REMARK  Name = 
REMARK  10 active torsions:
REMARK  status: ('A' for Active; 'I' for Inactive)
REMARK    1  A    between atoms: C_1  and  C_2
REMARK    2  A    between atoms: C_5  and  N_8
REMARK    3  A    between atoms: N_8  and  C_9
REMARK    4  A    between atoms: N_8  and  C_13
REMARK    5  A    between atoms: C_9  and  C_10
REMARK    6  A    between atoms: C_10  and  C_11
REMARK    7  A    between atoms: C_10  and  O_12
REMARK    8  A    between atoms: C_13  and  C_14
REMARK    9  A    between atoms: C_14  and  C_15
REMARK   10  A    between atoms: C_14  and  O_16
REMARK                            x       y       z     vdW  Elec       q    Type
REMARK                         _______ _______ _______ _____ _____    ______ ____
ROOT
ATOM      1  N   UNL     1      -0.601   0.394  -0.099  0.00  0.00    +0.000 N 
ENDROOT
BRANCH   1   6
ATOM      2  C   UNL     1       4.893  -1.304  -0.610  0.00  0.00    +0.000 C 
ATOM      3  C   UNL     1       3.475  -0.843  -0.465  0.00  0.00    +0.000 A 
ATOM      4  C   UNL     1       2.698  -1.251   0.614  0.00  0.00    +0.000 A 
ATOM      5  C   UNL     1       1.360  -0.840   0.729  0.00  0.00    +0.000 A 
ATOM      6  C   UNL     1       0.728  -0.028  -0.230  0.00  0.00    +0.000 A 
ATOM      7  C   UNL     1       1.544   0.367  -1.306  0.00  0.00    +0.000 A 
ATOM      8  C   UNL     1       2.884  -0.035  -1.432  0.00  0.00    +0.000 A 
ENDBRANCH   1   6
BRANCH   1   9
ATOM      9  C   UNL     1      -1.482  -0.229   0.918  0.00  0.00    +0.000 C 
BRANCH   9  10
ATOM     10  C   UNL     1      -1.947  -1.651   0.519  0.00  0.00    +0.000 C 
ATOM     11  C   UNL     1      -2.434  -2.427   1.737  0.00  0.00    +0.000 C 
BRANCH  10  12
ATOM     12  O   UNL     1      -3.021  -1.594  -0.430  0.00  0.00    +0.000 OA
ATOM     13  H   UNL     1      -3.789  -1.191   0.008  0.00  0.00    +0.000 HD
ENDBRANCH  10  12
ENDBRANCH   9  10
ENDBRANCH   1   9
BRANCH   1  14
ATOM     14  C   UNL     1      -1.314   1.050  -1.225  0.00  0.00    +0.000 C 
BRANCH  14  15
ATOM     15  C   UNL     1      -1.321   2.592  -1.093  0.00  0.00    +0.000 C 
ATOM     16  C   UNL     1      -2.164   3.090   0.075  0.00  0.00    +0.000 C 
BRANCH  15  17
ATOM     17  O   UNL     1      -0.002   3.114  -0.940  0.00  0.00    +0.000 OA
ATOM     18  H   UNL     1       0.415   2.551  -0.257  0.00  0.00    +0.000 HD
ENDBRANCH  15  17
ENDBRANCH  14  15
ENDBRANCH   1  14
TORSDOF 7
