MODEL 1
REMARK VINA RESULT:    -5.691      0.000      0.000
REMARK INTER + INTRA:          -8.064
REMARK INTER:                  -7.687
REMARK INTRA:                  -0.377
REMARK UNBOUND:                -0.377
REMARK  Name = 
REMARK  10 active torsions:
REMARK  status: ('A' for Active; 'I' for Inactive)
REMARK    1  A    between atoms: C_1  and  C_2
REMARK    2  A    between atoms: C_5  and  N_8
REMARK    3  A    between atoms: N_8  and  C_9
REMARK    4  A    between atoms: N_8  and  C_13
REMARK    5  A    between atoms: C_9  and  C_10
REMARK    6  A    between atoms: C_10  and  C_11
REMARK    7  A    between atoms: C_10  and  O_12
REMARK    8  A    between atoms: C_13  and  C_14
REMARK    9  A    between atoms: C_14  and  C_15
REMARK   10  A    between atoms: C_14  and  O_16
REMARK                            x       y       z     vdW  Elec       q    Type
REMARK                         _______ _______ _______ _____ _____    ______ ____
ROOT
ATOM      1  N   UNL     1       4.506  12.840   6.141  0.00  0.00    +0.000 N 
ENDROOT
BRANCH   1   6
ATOM      2  C   UNL     1       7.948  12.397   1.527  0.00  0.00    +0.000 C 
ATOM      3  C   UNL     1       7.067  12.492   2.735  0.00  0.00    +0.000 A 
ATOM      4  C   UNL     1       5.857  11.809   2.793  0.00  0.00    +0.000 A 
ATOM      5  C   UNL     1       5.021  11.927   3.915  0.00  0.00    +0.000 A 
ATOM      6  C   UNL     1       5.336  12.743   5.017  0.00  0.00    +0.000 A 
ATOM      7  C   UNL     1       6.567  13.417   4.925  0.00  0.00    +0.000 A 
ATOM      8  C   UNL     1       7.413  13.307   3.810  0.00  0.00    +0.000 A 
ENDBRANCH   1   6
BRANCH   1   9
ATOM      9  C   UNL     1       3.191  13.517   6.039  0.00  0.00    +0.000 C 
BRANCH   9  10
ATOM     10  C   UNL     1       2.510  13.717   7.415  0.00  0.00    +0.000 C 
ATOM     11  C   UNL     1       2.442  15.195   7.780  0.00  0.00    +0.000 C 
BRANCH  10  12
ATOM     12  O   UNL     1       1.173  13.199   7.408  0.00  0.00    +0.000 OA
ATOM     13  H   UNL     1       0.984  12.841   8.291  0.00  0.00    +0.000 HD
ENDBRANCH  10  12
ENDBRANCH   9  10
ENDBRANCH   1   9
BRANCH   1  14
ATOM     14  C   UNL     1       5.063  12.762   7.516  0.00  0.00    +0.000 C 
BRANCH  14  15
ATOM     15  C   UNL     1       5.123  11.307   8.041  0.00  0.00    +0.000 C 
ATOM     16  C   UNL     1       6.476  10.940   8.638  0.00  0.00    +0.000 C 
BRANCH  15  17
ATOM     17  O   UNL     1       4.123  11.062   9.029  0.00  0.00    +0.000 OA
ATOM     18  H   UNL     1       4.618  10.923   9.861  0.00  0.00    +0.000 HD
ENDBRANCH  15  17
ENDBRANCH  14  15
ENDBRANCH   1  14
TORSDOF 7
ENDMDL
MODEL 2
REMARK VINA RESULT:    -5.645      0.449      3.254
REMARK INTER + INTRA:          -8.002
REMARK INTER:                  -7.588
REMARK INTRA:                  -0.414
REMARK UNBOUND:                -0.377
REMARK  Name = 
REMARK  10 active torsions:
REMARK  status: ('A' for Active; 'I' for Inactive)
REMARK    1  A    between atoms: C_1  and  C_2
REMARK    2  A    between atoms: C_5  and  N_8
REMARK    3  A    between atoms: N_8  and  C_9
REMARK    4  A    between atoms: N_8  and  C_13
REMARK    5  A    between atoms: C_9  and  C_10
REMARK    6  A    between atoms: C_10  and  C_11
REMARK    7  A    between atoms: C_10  and  O_12
REMARK    8  A    between atoms: C_13  and  C_14
REMARK    9  A    between atoms: C_14  and  C_15
REMARK   10  A    between atoms: C_14  and  O_16
REMARK                            x       y       z     vdW  Elec       q    Type
REMARK                         _______ _______ _______ _____ _____    ______ ____
ROOT
ATOM      1  N   UNL     1       4.330  13.129   6.493  0.00  0.00    +0.000 N 
ENDROOT
BRANCH   1   6
ATOM      2  C   UNL     1       7.772  12.554   1.894  0.00  0.00    +0.000 C 
ATOM      3  C   UNL     1       6.867  12.721   3.075  0.00  0.00    +0.000 A 
ATOM      4  C   UNL     1       7.193  13.594   4.108  0.00  0.00    +0.000 A 
ATOM      5  C   UNL     1       6.354  13.724   5.227  0.00  0.00    +0.000 A 
ATOM      6  C   UNL     1       5.171  12.979   5.383  0.00  0.00    +0.000 A 
ATOM      7  C   UNL     1       4.872  12.109   4.319  0.00  0.00    +0.000 A 
ATOM      8  C   UNL     1       5.700  11.970   3.193  0.00  0.00    +0.000 A 
ENDBRANCH   1   6
BRANCH   1   9
ATOM      9  C   UNL     1       4.861  12.919   7.861  0.00  0.00    +0.000 C 
BRANCH   9  10
ATOM     10  C   UNL     1       5.058  11.422   8.206  0.00  0.00    +0.000 C 
ATOM     11  C   UNL     1       6.367  11.203   8.955  0.00  0.00    +0.000 C 
BRANCH  10  12
ATOM     12  O   UNL     1       3.988  10.938   9.029  0.00  0.00    +0.000 OA
ATOM     13  H   UNL     1       3.353  11.663   9.155  0.00  0.00    +0.000 HD
ENDBRANCH  10  12
ENDBRANCH   9  10
ENDBRANCH   1   9
BRANCH   1  14
ATOM     14  C   UNL     1       2.857  12.986   6.366  0.00  0.00    +0.000 C 
BRANCH  14  15
ATOM     15  C   UNL     1       2.101  13.681   7.523  0.00  0.00    +0.000 C 
ATOM     16  C   UNL     1       2.251  15.198   7.512  0.00  0.00    +0.000 C 
BRANCH  15  17
ATOM     17  O   UNL     1       0.708  13.375   7.502  0.00  0.00    +0.000 OA
ATOM     18  H   UNL     1       0.631  12.585   6.930  0.00  0.00    +0.000 HD
ENDBRANCH  15  17
ENDBRANCH  14  15
ENDBRANCH   1  14
TORSDOF 7
ENDMDL
MODEL 3
REMARK VINA RESULT:    -5.642      1.051      3.020
REMARK INTER + INTRA:          -7.998
REMARK INTER:                  -7.435
REMARK INTRA:                  -0.563
REMARK UNBOUND:                -0.377
REMARK  Name = 
REMARK  10 active torsions:
REMARK  status: ('A' for Active; 'I' for Inactive)
REMARK    1  A    between atoms: C_1  and  C_2
REMARK    2  A    between atoms: C_5  and  N_8
REMARK    3  A    between atoms: N_8  and  C_9
REMARK    4  A    between atoms: N_8  and  C_13
REMARK    5  A    between atoms: C_9  and  C_10
REMARK    6  A    between atoms: C_10  and  C_11
REMARK    7  A    between atoms: C_10  and  O_12
REMARK    8  A    between atoms: C_13  and  C_14
REMARK    9  A    between atoms: C_14  and  C_15
REMARK   10  A    between atoms: C_14  and  O_16
REMARK                            x       y       z     vdW  Elec       q    Type
REMARK                         _______ _______ _______ _____ _____    ______ ____
ROOT
ATOM      1  N   UNL     1       4.295  12.925   6.233  0.00  0.00    +0.000 N 
ENDROOT
BRANCH   1   6
ATOM      2  C   UNL     1       7.585  12.494   1.508  0.00  0.00    +0.000 C 
ATOM      3  C   UNL     1       6.748  12.592   2.747  0.00  0.00    +0.000 A 
ATOM      4  C   UNL     1       5.759  11.653   3.018  0.00  0.00    +0.000 A 
ATOM      5  C   UNL     1       4.958  11.767   4.166  0.00  0.00    +0.000 A 
ATOM      6  C   UNL     1       5.085  12.828   5.080  0.00  0.00    +0.000 A 
ATOM      7  C   UNL     1       6.096  13.758   4.776  0.00  0.00    +0.000 A 
ATOM      8  C   UNL     1       6.906  13.654   3.633  0.00  0.00    +0.000 A 
ENDBRANCH   1   6
BRANCH   1   9
ATOM      9  C   UNL     1       4.556  12.036   7.390  0.00  0.00    +0.000 C 
BRANCH   9  10
ATOM     10  C   UNL     1       5.682  12.565   8.312  0.00  0.00    +0.000 C 
ATOM     11  C   UNL     1       7.026  11.952   7.939  0.00  0.00    +0.000 C 
BRANCH  10  12
ATOM     12  O   UNL     1       5.801  13.991   8.212  0.00  0.00    +0.000 OA
ATOM     13  H   UNL     1       6.712  14.199   7.945  0.00  0.00    +0.000 HD
ENDBRANCH  10  12
ENDBRANCH   9  10
ENDBRANCH   1   9
BRANCH   1  14
ATOM     14  C   UNL     1       2.924  13.495   6.180  0.00  0.00    +0.000 C 
BRANCH  14  15
ATOM     15  C   UNL     1       2.335  13.732   7.591  0.00  0.00    +0.000 C 
ATOM     16  C   UNL     1       2.477  15.174   8.065  0.00  0.00    +0.000 C 
BRANCH  15  17
ATOM     17  O   UNL     1       0.953  13.382   7.651  0.00  0.00    +0.000 OA
ATOM     18  H   UNL     1       0.921  12.573   8.201  0.00  0.00    +0.000 HD
ENDBRANCH  15  17
ENDBRANCH  14  15
ENDBRANCH   1  14
TORSDOF 7
ENDMDL
MODEL 4
REMARK VINA RESULT:    -5.524      2.394      3.550
REMARK INTER + INTRA:          -7.839
REMARK INTER:                  -7.335
REMARK INTRA:                  -0.504
REMARK UNBOUND:                -0.377
REMARK  Name = 
REMARK  10 active torsions:
REMARK  status: ('A' for Active; 'I' for Inactive)
REMARK    1  A    between atoms: C_1  and  C_2
REMARK    2  A    between atoms: C_5  and  N_8
REMARK    3  A    between atoms: N_8  and  C_9
REMARK    4  A    between atoms: N_8  and  C_13
REMARK    5  A    between atoms: C_9  and  C_10
REMARK    6  A    between atoms: C_10  and  C_11
REMARK    7  A    between atoms: C_10  and  O_12
REMARK    8  A    between atoms: C_13  and  C_14
REMARK    9  A    between atoms: C_14  and  C_15
REMARK   10  A    between atoms: C_14  and  O_16
REMARK                            x       y       z     vdW  Elec       q    Type
REMARK                         _______ _______ _______ _____ _____    ______ ____
ROOT
ATOM      1  N   UNL     1       4.930  13.932   6.700  0.00  0.00    +0.000 N 
ENDROOT
BRANCH   1   6
ATOM      2  C   UNL     1       6.429  11.705   1.589  0.00  0.00    +0.000 C 
ATOM      3  C   UNL     1       6.021  12.295   2.904  0.00  0.00    +0.000 A 
ATOM      4  C   UNL     1       6.554  13.503   3.342  0.00  0.00    +0.000 A 
ATOM      5  C   UNL     1       6.190  14.036   4.589  0.00  0.00    +0.000 A 
ATOM      6  C   UNL     1       5.303  13.385   5.466  0.00  0.00    +0.000 A 
ATOM      7  C   UNL     1       4.782  12.168   4.990  0.00  0.00    +0.000 A 
ATOM      8  C   UNL     1       5.136  11.625   3.744  0.00  0.00    +0.000 A 
ENDBRANCH   1   6
BRANCH   1   9
ATOM      9  C   UNL     1       5.953  14.544   7.582  0.00  0.00    +0.000 C 
BRANCH   9  10
ATOM     10  C   UNL     1       5.946  16.091   7.526  0.00  0.00    +0.000 C 
ATOM     11  C   UNL     1       5.645  16.685   8.897  0.00  0.00    +0.000 C 
BRANCH  10  12
ATOM     12  O   UNL     1       7.217  16.596   7.092  0.00  0.00    +0.000 OA
ATOM     13  H   UNL     1       7.083  17.068   6.253  0.00  0.00    +0.000 HD
ENDBRANCH  10  12
ENDBRANCH   9  10
ENDBRANCH   1   9
BRANCH   1  14
ATOM     14  C   UNL     1       3.691  13.494   7.392  0.00  0.00    +0.000 C 
BRANCH  14  15
ATOM     15  C   UNL     1       2.489  14.417   7.077  0.00  0.00    +0.000 C 
ATOM     16  C   UNL     1       1.144  13.708   7.182  0.00  0.00    +0.000 C 
BRANCH  15  17
ATOM     17  O   UNL     1       2.457  15.554   7.939  0.00  0.00    +0.000 OA
ATOM     18  H   UNL     1       2.479  16.327   7.340  0.00  0.00    +0.000 HD
ENDBRANCH  15  17
ENDBRANCH  14  15
ENDBRANCH   1  14
TORSDOF 7
ENDMDL
MODEL 5
REMARK VINA RESULT:    -5.345      1.399      1.951
REMARK INTER + INTRA:          -7.597
REMARK INTER:                  -7.083
REMARK INTRA:                  -0.514
REMARK UNBOUND:                -0.377
REMARK  Name = 
REMARK  10 active torsions:
REMARK  status: ('A' for Active; 'I' for Inactive)
REMARK    1  A    between atoms: C_1  and  C_2
REMARK    2  A    between atoms: C_5  and  N_8
REMARK    3  A    between atoms: N_8  and  C_9
REMARK    4  A    between atoms: N_8  and  C_13
REMARK    5  A    between atoms: C_9  and  C_10
REMARK    6  A    between atoms: C_10  and  C_11
REMARK    7  A    between atoms: C_10  and  O_12
REMARK    8  A    between atoms: C_13  and  C_14
REMARK    9  A    between atoms: C_14  and  C_15
REMARK   10  A    between atoms: C_14  and  O_16
REMARK                            x       y       z     vdW  Elec       q    Type
REMARK                         _______ _______ _______ _____ _____    ______ ____
ROOT
ATOM      1  N   UNL     1       5.292  13.449   7.359  0.00  0.00    +0.000 N 
ENDROOT
BRANCH   1   6
ATOM      2  C   UNL     1       6.376  12.135   1.843  0.00  0.00    +0.000 C 
ATOM      3  C   UNL     1       6.076  12.492   3.267  0.00  0.00    +0.000 A 
ATOM      4  C   UNL     1       6.769  13.514   3.908  0.00  0.00    +0.000 A 
ATOM      5  C   UNL     1       6.506  13.824   5.252  0.00  0.00    +0.000 A 
ATOM      6  C   UNL     1       5.563  13.122   6.024  0.00  0.00    +0.000 A 
ATOM      7  C   UNL     1       4.880  12.097   5.343  0.00  0.00    +0.000 A 
ATOM      8  C   UNL     1       5.133  11.778   3.999  0.00  0.00    +0.000 A 
ENDBRANCH   1   6
BRANCH   1   9
ATOM      9  C   UNL     1       4.440  14.620   7.678  0.00  0.00    +0.000 C 
BRANCH   9  10
ATOM     10  C   UNL     1       2.964  14.235   7.943  0.00  0.00    +0.000 C 
ATOM     11  C   UNL     1       2.094  14.545   6.730  0.00  0.00    +0.000 C 
BRANCH  10  12
ATOM     12  O   UNL     1       2.841  12.835   8.231  0.00  0.00    +0.000 OA
ATOM     13  H   UNL     1       3.598  12.574   8.781  0.00  0.00    +0.000 HD
ENDBRANCH  10  12
ENDBRANCH   9  10
ENDBRANCH   1   9
BRANCH   1  14
ATOM     14  C   UNL     1       6.194  13.015   8.456  0.00  0.00    +0.000 C 
BRANCH  14  15
ATOM     15  C   UNL     1       6.937  11.701   8.116  0.00  0.00    +0.000 C 
ATOM     16  C   UNL     1       8.454  11.850   8.125  0.00  0.00    +0.000 C 
BRANCH  15  17
ATOM     17  O   UNL     1       6.591  10.651   9.018  0.00  0.00    +0.000 OA
ATOM     18  H   UNL     1       6.796  11.004   9.907  0.00  0.00    +0.000 HD
ENDBRANCH  15  17
ENDBRANCH  14  15
ENDBRANCH   1  14
TORSDOF 7
ENDMDL
MODEL 6
REMARK VINA RESULT:    -5.322      2.395      2.823
REMARK INTER + INTRA:          -7.565
REMARK INTER:                  -7.157
REMARK INTRA:                  -0.409
REMARK UNBOUND:                -0.377
REMARK  Name = 
REMARK  10 active torsions:
REMARK  status: ('A' for Active; 'I' for Inactive)
REMARK    1  A    between atoms: C_1  and  C_2
REMARK    2  A    between atoms: C_5  and  N_8
REMARK    3  A    between atoms: N_8  and  C_9
REMARK    4  A    between atoms: N_8  and  C_13
REMARK    5  A    between atoms: C_9  and  C_10
REMARK    6  A    between atoms: C_10  and  C_11
REMARK    7  A    between atoms: C_10  and  O_12
REMARK    8  A    between atoms: C_13  and  C_14
REMARK    9  A    between atoms: C_14  and  C_15
REMARK   10  A    between atoms: C_14  and  O_16
REMARK                            x       y       z     vdW  Elec       q    Type
REMARK                         _______ _______ _______ _____ _____    ______ ____
ROOT
ATOM      1  N   UNL     1       4.960  14.019   6.772  0.00  0.00    +0.000 N 
ENDROOT
BRANCH   1   6
ATOM      2  C   UNL     1       6.278  11.663   1.669  0.00  0.00    +0.000 C 
ATOM      3  C   UNL     1       5.956  12.264   3.003  0.00  0.00    +0.000 A 
ATOM      4  C   UNL     1       5.120  11.607   3.900  0.00  0.00    +0.000 A 
ATOM      5  C   UNL     1       4.798  12.188   5.137  0.00  0.00    +0.000 A 
ATOM      6  C   UNL     1       5.270  13.454   5.529  0.00  0.00    +0.000 A 
ATOM      7  C   UNL     1       6.114  14.088   4.599  0.00  0.00    +0.000 A 
ATOM      8  C   UNL     1       6.446  13.517   3.360  0.00  0.00    +0.000 A 
ENDBRANCH   1   6
BRANCH   1   9
ATOM      9  C   UNL     1       3.643  14.664   6.988  0.00  0.00    +0.000 C 
BRANCH   9  10
ATOM     10  C   UNL     1       2.705  13.824   7.890  0.00  0.00    +0.000 C 
ATOM     11  C   UNL     1       1.332  13.662   7.248  0.00  0.00    +0.000 C 
BRANCH  10  12
ATOM     12  O   UNL     1       3.246  12.516   8.120  0.00  0.00    +0.000 OA
ATOM     13  H   UNL     1       3.492  12.452   9.057  0.00  0.00    +0.000 HD
ENDBRANCH  10  12
ENDBRANCH   9  10
ENDBRANCH   1   9
BRANCH   1  14
ATOM     14  C   UNL     1       6.030  14.456   7.706  0.00  0.00    +0.000 C 
BRANCH  14  15
ATOM     15  C   UNL     1       6.263  15.985   7.653  0.00  0.00    +0.000 C 
ATOM     16  C   UNL     1       6.255  16.641   9.029  0.00  0.00    +0.000 C 
BRANCH  15  17
ATOM     17  O   UNL     1       7.498  16.308   7.017  0.00  0.00    +0.000 OA
ATOM     18  H   UNL     1       8.098  15.567   7.237  0.00  0.00    +0.000 HD
ENDBRANCH  15  17
ENDBRANCH  14  15
ENDBRANCH   1  14
TORSDOF 7
ENDMDL
MODEL 7
REMARK VINA RESULT:    -5.196      3.193      5.844
REMARK INTER + INTRA:          -7.395
REMARK INTER:                  -6.948
REMARK INTRA:                  -0.447
REMARK UNBOUND:                -0.377
REMARK  Name = 
REMARK  10 active torsions:
REMARK  status: ('A' for Active; 'I' for Inactive)
REMARK    1  A    between atoms: C_1  and  C_2
REMARK    2  A    between atoms: C_5  and  N_8
REMARK    3  A    between atoms: N_8  and  C_9
REMARK    4  A    between atoms: N_8  and  C_13
REMARK    5  A    between atoms: C_9  and  C_10
REMARK    6  A    between atoms: C_10  and  C_11
REMARK    7  A    between atoms: C_10  and  O_12
REMARK    8  A    between atoms: C_13  and  C_14
REMARK    9  A    between atoms: C_14  and  C_15
REMARK   10  A    between atoms: C_14  and  O_16
REMARK                            x       y       z     vdW  Elec       q    Type
REMARK                         _______ _______ _______ _____ _____    ______ ____
ROOT
ATOM      1  N   UNL     1       6.839  13.199   5.763  0.00  0.00    +0.000 N 
ENDROOT
BRANCH   1   6
ATOM      2  C   UNL     1       1.357  14.069   7.349  0.00  0.00    +0.000 C 
ATOM      3  C   UNL     1       2.777  13.860   6.919  0.00  0.00    +0.000 A 
ATOM      4  C   UNL     1       3.105  12.878   5.992  0.00  0.00    +0.000 A 
ATOM      5  C   UNL     1       4.442  12.666   5.615  0.00  0.00    +0.000 A 
ATOM      6  C   UNL     1       5.511  13.402   6.158  0.00  0.00    +0.000 A 
ATOM      7  C   UNL     1       5.142  14.388   7.091  0.00  0.00    +0.000 A 
ATOM      8  C   UNL     1       3.809  14.611   7.475  0.00  0.00    +0.000 A 
ENDBRANCH   1   6
BRANCH   1   9
ATOM      9  C   UNL     1       7.872  12.865   6.773  0.00  0.00    +0.000 C 
BRANCH   9  10
ATOM     10  C   UNL     1       9.276  13.396   6.394  0.00  0.00    +0.000 C 
ATOM     11  C   UNL     1       9.892  14.180   7.547  0.00  0.00    +0.000 C 
BRANCH  10  12
ATOM     12  O   UNL     1      10.163  12.317   6.067  0.00  0.00    +0.000 OA
ATOM     13  H   UNL     1      11.018  12.699   5.807  0.00  0.00    +0.000 HD
ENDBRANCH  10  12
ENDBRANCH   9  10
ENDBRANCH   1   9
BRANCH   1  14
ATOM     14  C   UNL     1       7.365  13.783   4.503  0.00  0.00    +0.000 C 
BRANCH  14  15
ATOM     15  C   UNL     1       7.053  12.896   3.273  0.00  0.00    +0.000 C 
ATOM     16  C   UNL     1       6.046  13.527   2.319  0.00  0.00    +0.000 C 
BRANCH  15  17
ATOM     17  O   UNL     1       8.233  12.590   2.531  0.00  0.00    +0.000 OA
ATOM     18  H   UNL     1       8.133  11.651   2.273  0.00  0.00    +0.000 HD
ENDBRANCH  15  17
ENDBRANCH  14  15
ENDBRANCH   1  14
TORSDOF 7
ENDMDL
MODEL 8
REMARK VINA RESULT:    -5.152      2.337      4.351
REMARK INTER + INTRA:          -7.336
REMARK INTER:                  -6.587
REMARK INTRA:                  -0.750
REMARK UNBOUND:                -0.377
REMARK  Name = 
REMARK  10 active torsions:
REMARK  status: ('A' for Active; 'I' for Inactive)
REMARK    1  A    between atoms: C_1  and  C_2
REMARK    2  A    between atoms: C_5  and  N_8
REMARK    3  A    between atoms: N_8  and  C_9
REMARK    4  A    between atoms: N_8  and  C_13
REMARK    5  A    between atoms: C_9  and  C_10
REMARK    6  A    between atoms: C_10  and  C_11
REMARK    7  A    between atoms: C_10  and  O_12
REMARK    8  A    between atoms: C_13  and  C_14
REMARK    9  A    between atoms: C_14  and  C_15
REMARK   10  A    between atoms: C_14  and  O_16
REMARK                            x       y       z     vdW  Elec       q    Type
REMARK                         _______ _______ _______ _____ _____    ______ ____
ROOT
ATOM      1  N   UNL     1       5.810  13.483   6.214  0.00  0.00    +0.000 N 
ENDROOT
BRANCH   1   6
ATOM      2  C   UNL     1      10.869  11.392   8.048  0.00  0.00    +0.000 C 
ATOM      3  C   UNL     1       9.559  11.955   7.586  0.00  0.00    +0.000 A 
ATOM      4  C   UNL     1       8.377  11.654   8.254  0.00  0.00    +0.000 A 
ATOM      5  C   UNL     1       7.149  12.160   7.799  0.00  0.00    +0.000 A 
ATOM      6  C   UNL     1       7.036  12.966   6.651  0.00  0.00    +0.000 A 
ATOM      7  C   UNL     1       8.251  13.251   6.002  0.00  0.00    +0.000 A 
ATOM      8  C   UNL     1       9.486  12.753   6.448  0.00  0.00    +0.000 A 
ENDBRANCH   1   6
BRANCH   1   9
ATOM      9  C   UNL     1       5.585  13.744   4.772  0.00  0.00    +0.000 C 
BRANCH   9  10
ATOM     10  C   UNL     1       5.116  12.486   4.000  0.00  0.00    +0.000 C 
ATOM     11  C   UNL     1       6.148  12.068   2.960  0.00  0.00    +0.000 C 
BRANCH  10  12
ATOM     12  O   UNL     1       4.911  11.381   4.892  0.00  0.00    +0.000 OA
ATOM     13  H   UNL     1       5.780  11.006   5.111  0.00  0.00    +0.000 HD
ENDBRANCH  10  12
ENDBRANCH   9  10
ENDBRANCH   1   9
BRANCH   1  14
ATOM     14  C   UNL     1       4.926  14.247   7.132  0.00  0.00    +0.000 C 
BRANCH  14  15
ATOM     15  C   UNL     1       3.604  13.499   7.427  0.00  0.00    +0.000 C 
ATOM     16  C   UNL     1       2.445  13.961   6.552  0.00  0.00    +0.000 C 
BRANCH  15  17
ATOM     17  O   UNL     1       3.747  12.089   7.262  0.00  0.00    +0.000 OA
ATOM     18  H   UNL     1       4.283  11.983   6.449  0.00  0.00    +0.000 HD
ENDBRANCH  15  17
ENDBRANCH  14  15
ENDBRANCH   1  14
TORSDOF 7
ENDMDL
MODEL 9
REMARK VINA RESULT:    -4.942      2.003      3.764
REMARK INTER + INTRA:          -7.052
REMARK INTER:                  -6.413
REMARK INTRA:                  -0.640
REMARK UNBOUND:                -0.377
REMARK  Name = 
REMARK  10 active torsions:
REMARK  status: ('A' for Active; 'I' for Inactive)
REMARK    1  A    between atoms: C_1  and  C_2
REMARK    2  A    between atoms: C_5  and  N_8
REMARK    3  A    between atoms: N_8  and  C_9
REMARK    4  A    between atoms: N_8  and  C_13
REMARK    5  A    between atoms: C_9  and  C_10
REMARK    6  A    between atoms: C_10  and  C_11
REMARK    7  A    between atoms: C_10  and  O_12
REMARK    8  A    between atoms: C_13  and  C_14
REMARK    9  A    between atoms: C_14  and  C_15
REMARK   10  A    between atoms: C_14  and  O_16
REMARK                            x       y       z     vdW  Elec       q    Type
REMARK                         _______ _______ _______ _____ _____    ______ ____
ROOT
ATOM      1  N   UNL     1       4.833  13.611   7.308  0.00  0.00    +0.000 N 
ENDROOT
BRANCH   1   6
ATOM      2  C   UNL     1       6.537  12.205   1.974  0.00  0.00    +0.000 C 
ATOM      3  C   UNL     1       6.077  12.584   3.348  0.00  0.00    +0.000 A 
ATOM      4  C   UNL     1       6.608  13.692   4.000  0.00  0.00    +0.000 A 
ATOM      5  C   UNL     1       6.194  14.025   5.300  0.00  0.00    +0.000 A 
ATOM      6  C   UNL     1       5.256  13.263   6.019  0.00  0.00    +0.000 A 
ATOM      7  C   UNL     1       4.738  12.151   5.329  0.00  0.00    +0.000 A 
ATOM      8  C   UNL     1       5.141  11.808   4.028  0.00  0.00    +0.000 A 
ENDBRANCH   1   6
BRANCH   1   9
ATOM      9  C   UNL     1       4.925  12.626   8.412  0.00  0.00    +0.000 C 
BRANCH   9  10
ATOM     10  C   UNL     1       6.352  12.521   9.005  0.00  0.00    +0.000 C 
ATOM     11  C   UNL     1       7.085  11.306   8.448  0.00  0.00    +0.000 C 
BRANCH  10  12
ATOM     12  O   UNL     1       7.126  13.687   8.693  0.00  0.00    +0.000 OA
ATOM     13  H   UNL     1       7.313  13.680   7.740  0.00  0.00    +0.000 HD
ENDBRANCH  10  12
ENDBRANCH   9  10
ENDBRANCH   1   9
BRANCH   1  14
ATOM     14  C   UNL     1       3.850  14.703   7.525  0.00  0.00    +0.000 C 
BRANCH  14  15
ATOM     15  C   UNL     1       4.360  15.756   8.539  0.00  0.00    +0.000 C 
ATOM     16  C   UNL     1       5.435  16.671   7.964  0.00  0.00    +0.000 C 
BRANCH  15  17
ATOM     17  O   UNL     1       3.299  16.574   9.029  0.00  0.00    +0.000 OA
ATOM     18  H   UNL     1       3.738  17.376   9.377  0.00  0.00    +0.000 HD
ENDBRANCH  15  17
ENDBRANCH  14  15
ENDBRANCH   1  14
TORSDOF 7
ENDMDL
