MODEL 1
REMARK VINA RESULT:    -5.314      0.000      0.000
REMARK INTER + INTRA:          -7.615
REMARK INTER:                  -7.178
REMARK INTRA:                  -0.437
REMARK UNBOUND:                -0.437
REMARK  Name = 
REMARK  10 active torsions:
REMARK  status: ('A' for Active; 'I' for Inactive)
REMARK    1  A    between atoms: C_1  and  C_2
REMARK    2  A    between atoms: C_5  and  N_8
REMARK    3  A    between atoms: N_8  and  C_9
REMARK    4  A    between atoms: N_8  and  C_13
REMARK    5  A    between atoms: C_9  and  C_10
REMARK    6  A    between atoms: C_10  and  C_11
REMARK    7  A    between atoms: C_10  and  O_12
REMARK    8  A    between atoms: C_13  and  C_14
REMARK    9  A    between atoms: C_14  and  C_15
REMARK   10  A    between atoms: C_14  and  O_16
REMARK                            x       y       z     vdW  Elec       q    Type
REMARK                         _______ _______ _______ _____ _____    ______ ____
ROOT
ATOM      1  N   UNL     1      12.981   4.811   8.041  0.00  0.00    +0.000 N 
ENDROOT
BRANCH   1   6
ATOM      2  C   UNL     1      10.787   7.966  12.350  0.00  0.00    +0.000 C 
ATOM      3  C   UNL     1      11.351   7.126  11.245  0.00  0.00    +0.000 A 
ATOM      4  C   UNL     1      12.703   6.799  11.214  0.00  0.00    +0.000 A 
ATOM      5  C   UNL     1      13.231   6.037  10.160  0.00  0.00    +0.000 A 
ATOM      6  C   UNL     1      12.451   5.587   9.080  0.00  0.00    +0.000 A 
ATOM      7  C   UNL     1      11.089   5.935   9.144  0.00  0.00    +0.000 A 
ATOM      8  C   UNL     1      10.547   6.694  10.194  0.00  0.00    +0.000 A 
ENDBRANCH   1   6
BRANCH   1   9
ATOM      9  C   UNL     1      14.143   5.304   7.263  0.00  0.00    +0.000 C 
BRANCH   9  10
ATOM     10  C   UNL     1      14.088   6.829   7.004  0.00  0.00    +0.000 C 
ATOM     11  C   UNL     1      15.411   7.493   7.368  0.00  0.00    +0.000 C 
BRANCH  10  12
ATOM     12  O   UNL     1      13.817   7.107   5.623  0.00  0.00    +0.000 OA
ATOM     13  H   UNL     1      13.355   7.960   5.572  0.00  0.00    +0.000 HD
ENDBRANCH  10  12
ENDBRANCH   9  10
ENDBRANCH   1   9
BRANCH   1  14
ATOM     14  C   UNL     1      12.158   3.784   7.352  0.00  0.00    +0.000 C 
BRANCH  14  15
ATOM     15  C   UNL     1      11.784   4.207   5.911  0.00  0.00    +0.000 C 
ATOM     16  C   UNL     1      10.834   3.230   5.228  0.00  0.00    +0.000 C 
BRANCH  15  17
ATOM     17  O   UNL     1      11.184   5.501   5.880  0.00  0.00    +0.000 OA
ATOM     18  H   UNL     1      11.929   6.121   5.747  0.00  0.00    +0.000 HD
ENDBRANCH  15  17
ENDBRANCH  14  15
ENDBRANCH   1  14
TORSDOF 7
ENDMDL
MODEL 2
REMARK VINA RESULT:    -5.289      2.828      3.110
REMARK INTER + INTRA:          -7.581
REMARK INTER:                  -6.982
REMARK INTRA:                  -0.599
REMARK UNBOUND:                -0.437
REMARK  Name = 
REMARK  10 active torsions:
REMARK  status: ('A' for Active; 'I' for Inactive)
REMARK    1  A    between atoms: C_1  and  C_2
REMARK    2  A    between atoms: C_5  and  N_8
REMARK    3  A    between atoms: N_8  and  C_9
REMARK    4  A    between atoms: N_8  and  C_13
REMARK    5  A    between atoms: C_9  and  C_10
REMARK    6  A    between atoms: C_10  and  C_11
REMARK    7  A    between atoms: C_10  and  O_12
REMARK    8  A    between atoms: C_13  and  C_14
REMARK    9  A    between atoms: C_14  and  C_15
REMARK   10  A    between atoms: C_14  and  O_16
REMARK                            x       y       z     vdW  Elec       q    Type
REMARK                         _______ _______ _______ _____ _____    ______ ____
ROOT
ATOM      1  N   UNL     1      13.045   4.304   7.064  0.00  0.00    +0.000 N 
ENDROOT
BRANCH   1   6
ATOM      2  C   UNL     1      14.322   1.860  12.136  0.00  0.00    +0.000 C 
ATOM      3  C   UNL     1      13.996   2.473  10.808  0.00  0.00    +0.000 A 
ATOM      4  C   UNL     1      14.966   3.150  10.076  0.00  0.00    +0.000 A 
ATOM      5  C   UNL     1      14.647   3.748   8.846  0.00  0.00    +0.000 A 
ATOM      6  C   UNL     1      13.351   3.722   8.300  0.00  0.00    +0.000 A 
ATOM      7  C   UNL     1      12.397   3.028   9.066  0.00  0.00    +0.000 A 
ATOM      8  C   UNL     1      12.703   2.423  10.297  0.00  0.00    +0.000 A 
ENDBRANCH   1   6
BRANCH   1   9
ATOM      9  C   UNL     1      14.047   5.150   6.372  0.00  0.00    +0.000 C 
BRANCH   9  10
ATOM     10  C   UNL     1      13.837   6.662   6.630  0.00  0.00    +0.000 C 
ATOM     11  C   UNL     1      14.941   7.221   7.521  0.00  0.00    +0.000 C 
BRANCH  10  12
ATOM     12  O   UNL     1      13.843   7.401   5.401  0.00  0.00    +0.000 OA
ATOM     13  H   UNL     1      13.011   7.901   5.346  0.00  0.00    +0.000 HD
ENDBRANCH  10  12
ENDBRANCH   9  10
ENDBRANCH   1   9
BRANCH   1  14
ATOM     14  C   UNL     1      11.637   4.542   6.654  0.00  0.00    +0.000 C 
BRANCH  14  15
ATOM     15  C   UNL     1      11.265   3.770   5.365  0.00  0.00    +0.000 C 
ATOM     16  C   UNL     1      10.850   2.327   5.629  0.00  0.00    +0.000 C 
BRANCH  15  17
ATOM     17  O   UNL     1      10.208   4.410   4.653  0.00  0.00    +0.000 OA
ATOM     18  H   UNL     1       9.527   3.718   4.534  0.00  0.00    +0.000 HD
ENDBRANCH  15  17
ENDBRANCH  14  15
ENDBRANCH   1  14
TORSDOF 7
ENDMDL
MODEL 3
REMARK VINA RESULT:    -5.215      0.457      3.232
REMARK INTER + INTRA:          -7.481
REMARK INTER:                  -7.074
REMARK INTRA:                  -0.407
REMARK UNBOUND:                -0.437
REMARK  Name = 
REMARK  10 active torsions:
REMARK  status: ('A' for Active; 'I' for Inactive)
REMARK    1  A    between atoms: C_1  and  C_2
REMARK    2  A    between atoms: C_5  and  N_8
REMARK    3  A    between atoms: N_8  and  C_9
REMARK    4  A    between atoms: N_8  and  C_13
REMARK    5  A    between atoms: C_9  and  C_10
REMARK    6  A    between atoms: C_10  and  C_11
REMARK    7  A    between atoms: C_10  and  O_12
REMARK    8  A    between atoms: C_13  and  C_14
REMARK    9  A    between atoms: C_14  and  C_15
REMARK   10  A    between atoms: C_14  and  O_16
REMARK                            x       y       z     vdW  Elec       q    Type
REMARK                         _______ _______ _______ _____ _____    ______ ____
ROOT
ATOM      1  N   UNL     1      12.999   5.185   7.706  0.00  0.00    +0.000 N 
ENDROOT
BRANCH   1   6
ATOM      2  C   UNL     1      10.545   7.551  12.365  0.00  0.00    +0.000 C 
ATOM      3  C   UNL     1      11.177   6.915  11.165  0.00  0.00    +0.000 A 
ATOM      4  C   UNL     1      12.534   6.612  11.148  0.00  0.00    +0.000 A 
ATOM      5  C   UNL     1      13.126   6.042  10.009  0.00  0.00    +0.000 A 
ATOM      6  C   UNL     1      12.406   5.771   8.832  0.00  0.00    +0.000 A 
ATOM      7  C   UNL     1      11.036   6.087   8.885  0.00  0.00    +0.000 A 
ATOM      8  C   UNL     1      10.431   6.655  10.019  0.00  0.00    +0.000 A 
ENDBRANCH   1   6
BRANCH   1   9
ATOM      9  C   UNL     1      12.476   3.905   7.171  0.00  0.00    +0.000 C 
BRANCH   9  10
ATOM     10  C   UNL     1      11.832   4.058   5.771  0.00  0.00    +0.000 C 
ATOM     11  C   UNL     1      10.846   2.929   5.498  0.00  0.00    +0.000 C 
BRANCH  10  12
ATOM     12  O   UNL     1      11.125   5.301   5.663  0.00  0.00    +0.000 OA
ATOM     13  H   UNL     1      10.791   5.536   6.545  0.00  0.00    +0.000 HD
ENDBRANCH  10  12
ENDBRANCH   9  10
ENDBRANCH   1   9
BRANCH   1  14
ATOM     14  C   UNL     1      14.403   5.491   7.330  0.00  0.00    +0.000 C 
BRANCH  14  15
ATOM     15  C   UNL     1      14.601   6.984   6.975  0.00  0.00    +0.000 C 
ATOM     16  C   UNL     1      15.668   7.666   7.823  0.00  0.00    +0.000 C 
BRANCH  15  17
ATOM     17  O   UNL     1      14.951   7.157   5.602  0.00  0.00    +0.000 OA
ATOM     18  H   UNL     1      14.492   7.976   5.326  0.00  0.00    +0.000 HD
ENDBRANCH  15  17
ENDBRANCH  14  15
ENDBRANCH   1  14
TORSDOF 7
ENDMDL
MODEL 4
REMARK VINA RESULT:    -5.128      2.658      4.638
REMARK INTER + INTRA:          -7.364
REMARK INTER:                  -6.749
REMARK INTRA:                  -0.615
REMARK UNBOUND:                -0.437
REMARK  Name = 
REMARK  10 active torsions:
REMARK  status: ('A' for Active; 'I' for Inactive)
REMARK    1  A    between atoms: C_1  and  C_2
REMARK    2  A    between atoms: C_5  and  N_8
REMARK    3  A    between atoms: N_8  and  C_9
REMARK    4  A    between atoms: N_8  and  C_13
REMARK    5  A    between atoms: C_9  and  C_10
REMARK    6  A    between atoms: C_10  and  C_11
REMARK    7  A    between atoms: C_10  and  O_12
REMARK    8  A    between atoms: C_13  and  C_14
REMARK    9  A    between atoms: C_14  and  C_15
REMARK   10  A    between atoms: C_14  and  O_16
REMARK                            x       y       z     vdW  Elec       q    Type
REMARK                         _______ _______ _______ _____ _____    ______ ____
ROOT
ATOM      1  N   UNL     1      12.985   4.670   7.515  0.00  0.00    +0.000 N 
ENDROOT
BRANCH   1   6
ATOM      2  C   UNL     1      14.443   1.191  11.885  0.00  0.00    +0.000 C 
ATOM      3  C   UNL     1      14.062   2.112  10.767  0.00  0.00    +0.000 A 
ATOM      4  C   UNL     1      12.743   2.201  10.334  0.00  0.00    +0.000 A 
ATOM      5  C   UNL     1      12.396   3.044   9.265  0.00  0.00    +0.000 A 
ATOM      6  C   UNL     1      13.342   3.816   8.567  0.00  0.00    +0.000 A 
ATOM      7  C   UNL     1      14.664   3.703   9.034  0.00  0.00    +0.000 A 
ATOM      8  C   UNL     1      15.024   2.865  10.102  0.00  0.00    +0.000 A 
ENDBRANCH   1   6
BRANCH   1   9
ATOM      9  C   UNL     1      11.595   4.676   7.001  0.00  0.00    +0.000 C 
BRANCH   9  10
ATOM     10  C   UNL     1      11.459   3.977   5.627  0.00  0.00    +0.000 C 
ATOM     11  C   UNL     1      11.091   2.508   5.797  0.00  0.00    +0.000 C 
BRANCH  10  12
ATOM     12  O   UNL     1      10.442   4.600   4.830  0.00  0.00    +0.000 OA
ATOM     13  H   UNL     1      10.455   5.554   5.017  0.00  0.00    +0.000 HD
ENDBRANCH  10  12
ENDBRANCH   9  10
ENDBRANCH   1   9
BRANCH   1  14
ATOM     14  C   UNL     1      14.004   5.186   6.565  0.00  0.00    +0.000 C 
BRANCH  14  15
ATOM     15  C   UNL     1      14.150   6.725   6.645  0.00  0.00    +0.000 C 
ATOM     16  C   UNL     1      14.710   7.206   7.978  0.00  0.00    +0.000 C 
BRANCH  15  17
ATOM     17  O   UNL     1      14.989   7.229   5.606  0.00  0.00    +0.000 OA
ATOM     18  H   UNL     1      14.416   7.266   4.814  0.00  0.00    +0.000 HD
ENDBRANCH  15  17
ENDBRANCH  14  15
ENDBRANCH   1  14
TORSDOF 7
ENDMDL
MODEL 5
REMARK VINA RESULT:    -5.070      2.149      3.826
REMARK INTER + INTRA:          -7.286
REMARK INTER:                  -6.727
REMARK INTRA:                  -0.559
REMARK UNBOUND:                -0.437
REMARK  Name = 
REMARK  10 active torsions:
REMARK  status: ('A' for Active; 'I' for Inactive)
REMARK    1  A    between atoms: C_1  and  C_2
REMARK    2  A    between atoms: C_5  and  N_8
REMARK    3  A    between atoms: N_8  and  C_9
REMARK    4  A    between atoms: N_8  and  C_13
REMARK    5  A    between atoms: C_9  and  C_10
REMARK    6  A    between atoms: C_10  and  C_11
REMARK    7  A    between atoms: C_10  and  O_12
REMARK    8  A    between atoms: C_13  and  C_14
REMARK    9  A    between atoms: C_14  and  C_15
REMARK   10  A    between atoms: C_14  and  O_16
REMARK                            x       y       z     vdW  Elec       q    Type
REMARK                         _______ _______ _______ _____ _____    ______ ____
ROOT
ATOM      1  N   UNL     1      13.026   5.299   7.889  0.00  0.00    +0.000 N 
ENDROOT
BRANCH   1   6
ATOM      2  C   UNL     1      10.840   2.369  12.357  0.00  0.00    +0.000 C 
ATOM      3  C   UNL     1      11.391   3.118  11.182  0.00  0.00    +0.000 A 
ATOM      4  C   UNL     1      12.469   2.620  10.459  0.00  0.00    +0.000 A 
ATOM      5  C   UNL     1      13.001   3.340   9.378  0.00  0.00    +0.000 A 
ATOM      6  C   UNL     1      12.503   4.595   8.981  0.00  0.00    +0.000 A 
ATOM      7  C   UNL     1      11.412   5.067   9.732  0.00  0.00    +0.000 A 
ATOM      8  C   UNL     1      10.869   4.355  10.815  0.00  0.00    +0.000 A 
ENDBRANCH   1   6
BRANCH   1   9
ATOM      9  C   UNL     1      13.209   4.619   6.584  0.00  0.00    +0.000 C 
BRANCH   9  10
ATOM     10  C   UNL     1      11.942   4.675   5.695  0.00  0.00    +0.000 C 
ATOM     11  C   UNL     1      11.129   3.393   5.825  0.00  0.00    +0.000 C 
BRANCH  10  12
ATOM     12  O   UNL     1      11.101   5.775   6.067  0.00  0.00    +0.000 OA
ATOM     13  H   UNL     1      11.660   6.460   6.469  0.00  0.00    +0.000 HD
ENDBRANCH  10  12
ENDBRANCH   9  10
ENDBRANCH   1   9
BRANCH   1  14
ATOM     14  C   UNL     1      13.864   6.510   8.085  0.00  0.00    +0.000 C 
BRANCH  14  15
ATOM     15  C   UNL     1      14.856   6.729   6.917  0.00  0.00    +0.000 C 
ATOM     16  C   UNL     1      14.473   7.896   6.016  0.00  0.00    +0.000 C 
BRANCH  15  17
ATOM     17  O   UNL     1      16.184   6.952   7.389  0.00  0.00    +0.000 OA
ATOM     18  H   UNL     1      16.619   7.473   6.684  0.00  0.00    +0.000 HD
ENDBRANCH  15  17
ENDBRANCH  14  15
ENDBRANCH   1  14
TORSDOF 7
ENDMDL
MODEL 6
REMARK VINA RESULT:    -5.011      2.002      3.594
REMARK INTER + INTRA:          -7.206
REMARK INTER:                  -6.637
REMARK INTRA:                  -0.569
REMARK UNBOUND:                -0.437
REMARK  Name = 
REMARK  10 active torsions:
REMARK  status: ('A' for Active; 'I' for Inactive)
REMARK    1  A    between atoms: C_1  and  C_2
REMARK    2  A    between atoms: C_5  and  N_8
REMARK    3  A    between atoms: N_8  and  C_9
REMARK    4  A    between atoms: N_8  and  C_13
REMARK    5  A    between atoms: C_9  and  C_10
REMARK    6  A    between atoms: C_10  and  C_11
REMARK    7  A    between atoms: C_10  and  O_12
REMARK    8  A    between atoms: C_13  and  C_14
REMARK    9  A    between atoms: C_14  and  C_15
REMARK   10  A    between atoms: C_14  and  O_16
REMARK                            x       y       z     vdW  Elec       q    Type
REMARK                         _______ _______ _______ _____ _____    ______ ____
ROOT
ATOM      1  N   UNL     1      13.732   5.573   8.295  0.00  0.00    +0.000 N 
ENDROOT
BRANCH   1   6
ATOM      2  C   UNL     1      10.130   7.832  12.201  0.00  0.00    +0.000 C 
ATOM      3  C   UNL     1      11.065   7.267  11.175  0.00  0.00    +0.000 A 
ATOM      4  C   UNL     1      10.579   6.576  10.070  0.00  0.00    +0.000 A 
ATOM      5  C   UNL     1      11.460   6.023   9.127  0.00  0.00    +0.000 A 
ATOM      6  C   UNL     1      12.859   6.110   9.250  0.00  0.00    +0.000 A 
ATOM      7  C   UNL     1      13.314   6.817  10.378  0.00  0.00    +0.000 A 
ATOM      8  C   UNL     1      12.444   7.377  11.327  0.00  0.00    +0.000 A 
ENDBRANCH   1   6
BRANCH   1   9
ATOM      9  C   UNL     1      13.882   4.103   8.169  0.00  0.00    +0.000 C 
BRANCH   9  10
ATOM     10  C   UNL     1      14.572   3.463   9.399  0.00  0.00    +0.000 C 
ATOM     11  C   UNL     1      13.589   2.612  10.194  0.00  0.00    +0.000 C 
BRANCH  10  12
ATOM     12  O   UNL     1      15.663   2.622   8.997  0.00  0.00    +0.000 OA
ATOM     13  H   UNL     1      15.629   2.525   8.031  0.00  0.00    +0.000 HD
ENDBRANCH  10  12
ENDBRANCH   9  10
ENDBRANCH   1   9
BRANCH   1  14
ATOM     14  C   UNL     1      14.869   6.365   7.762  0.00  0.00    +0.000 C 
BRANCH  14  15
ATOM     15  C   UNL     1      14.404   7.466   6.779  0.00  0.00    +0.000 C 
ATOM     16  C   UNL     1      15.517   8.433   6.392  0.00  0.00    +0.000 C 
BRANCH  15  17
ATOM     17  O   UNL     1      13.867   6.910   5.580  0.00  0.00    +0.000 OA
ATOM     18  H   UNL     1      13.835   7.655   4.947  0.00  0.00    +0.000 HD
ENDBRANCH  15  17
ENDBRANCH  14  15
ENDBRANCH   1  14
TORSDOF 7
ENDMDL
MODEL 7
REMARK VINA RESULT:    -4.954      2.588      4.079
REMARK INTER + INTRA:          -7.128
REMARK INTER:                  -6.354
REMARK INTRA:                  -0.774
REMARK UNBOUND:                -0.437
REMARK  Name = 
REMARK  10 active torsions:
REMARK  status: ('A' for Active; 'I' for Inactive)
REMARK    1  A    between atoms: C_1  and  C_2
REMARK    2  A    between atoms: C_5  and  N_8
REMARK    3  A    between atoms: N_8  and  C_9
REMARK    4  A    between atoms: N_8  and  C_13
REMARK    5  A    between atoms: C_9  and  C_10
REMARK    6  A    between atoms: C_10  and  C_11
REMARK    7  A    between atoms: C_10  and  O_12
REMARK    8  A    between atoms: C_13  and  C_14
REMARK    9  A    between atoms: C_14  and  C_15
REMARK   10  A    between atoms: C_14  and  O_16
REMARK                            x       y       z     vdW  Elec       q    Type
REMARK                         _______ _______ _______ _____ _____    ______ ____
ROOT
ATOM      1  N   UNL     1      13.225   5.035   8.982  0.00  0.00    +0.000 N 
ENDROOT
BRANCH   1   6
ATOM      2  C   UNL     1      15.375  10.238  10.260  0.00  0.00    +0.000 C 
ATOM      3  C   UNL     1      14.837   8.878   9.939  0.00  0.00    +0.000 A 
ATOM      4  C   UNL     1      15.121   8.265   8.723  0.00  0.00    +0.000 A 
ATOM      5  C   UNL     1      14.589   7.002   8.415  0.00  0.00    +0.000 A 
ATOM      6  C   UNL     1      13.736   6.303   9.287  0.00  0.00    +0.000 A 
ATOM      7  C   UNL     1      13.472   6.951  10.508  0.00  0.00    +0.000 A 
ATOM      8  C   UNL     1      13.999   8.213  10.829  0.00  0.00    +0.000 A 
ENDBRANCH   1   6
BRANCH   1   9
ATOM      9  C   UNL     1      12.102   4.897   8.024  0.00  0.00    +0.000 C 
BRANCH   9  10
ATOM     10  C   UNL     1      12.418   3.920   6.865  0.00  0.00    +0.000 C 
ATOM     11  C   UNL     1      11.386   4.044   5.751  0.00  0.00    +0.000 C 
BRANCH  10  12
ATOM     12  O   UNL     1      13.711   4.187   6.305  0.00  0.00    +0.000 OA
ATOM     13  H   UNL     1      13.740   3.799   5.415  0.00  0.00    +0.000 HD
ENDBRANCH  10  12
ENDBRANCH   9  10
ENDBRANCH   1   9
BRANCH   1  14
ATOM     14  C   UNL     1      13.391   3.894   9.918  0.00  0.00    +0.000 C 
BRANCH  14  15
ATOM     15  C   UNL     1      14.859   3.411   9.996  0.00  0.00    +0.000 C 
ATOM     16  C   UNL     1      15.032   2.153  10.840  0.00  0.00    +0.000 C 
BRANCH  15  17
ATOM     17  O   UNL     1      15.398   3.152   8.701  0.00  0.00    +0.000 OA
ATOM     18  H   UNL     1      16.300   3.531   8.723  0.00  0.00    +0.000 HD
ENDBRANCH  15  17
ENDBRANCH  14  15
ENDBRANCH   1  14
TORSDOF 7
ENDMDL
MODEL 8
REMARK VINA RESULT:    -4.949      2.103      4.302
REMARK INTER + INTRA:          -7.123
REMARK INTER:                  -6.693
REMARK INTRA:                  -0.430
REMARK UNBOUND:                -0.437
REMARK  Name = 
REMARK  10 active torsions:
REMARK  status: ('A' for Active; 'I' for Inactive)
REMARK    1  A    between atoms: C_1  and  C_2
REMARK    2  A    between atoms: C_5  and  N_8
REMARK    3  A    between atoms: N_8  and  C_9
REMARK    4  A    between atoms: N_8  and  C_13
REMARK    5  A    between atoms: C_9  and  C_10
REMARK    6  A    between atoms: C_10  and  C_11
REMARK    7  A    between atoms: C_10  and  O_12
REMARK    8  A    between atoms: C_13  and  C_14
REMARK    9  A    between atoms: C_14  and  C_15
REMARK   10  A    between atoms: C_14  and  O_16
REMARK                            x       y       z     vdW  Elec       q    Type
REMARK                         _______ _______ _______ _____ _____    ______ ____
ROOT
ATOM      1  N   UNL     1      11.974   5.060   8.364  0.00  0.00    +0.000 N 
ENDROOT
BRANCH   1   6
ATOM      2  C   UNL     1      17.584   6.378   8.710  0.00  0.00    +0.000 C 
ATOM      3  C   UNL     1      16.132   6.026   8.597  0.00  0.00    +0.000 A 
ATOM      4  C   UNL     1      15.213   6.939   8.091  0.00  0.00    +0.000 A 
ATOM      5  C   UNL     1      13.849   6.615   8.016  0.00  0.00    +0.000 A 
ATOM      6  C   UNL     1      13.333   5.384   8.460  0.00  0.00    +0.000 A 
ATOM      7  C   UNL     1      14.291   4.485   8.964  0.00  0.00    +0.000 A 
ATOM      8  C   UNL     1      15.659   4.795   9.042  0.00  0.00    +0.000 A 
ENDBRANCH   1   6
BRANCH   1   9
ATOM      9  C   UNL     1      11.336   4.215   9.402  0.00  0.00    +0.000 C 
BRANCH   9  10
ATOM     10  C   UNL     1      10.910   5.021  10.653  0.00  0.00    +0.000 C 
ATOM     11  C   UNL     1      10.551   6.455  10.282  0.00  0.00    +0.000 C 
BRANCH  10  12
ATOM     12  O   UNL     1       9.768   4.427  11.284  0.00  0.00    +0.000 OA
ATOM     13  H   UNL     1       9.864   3.461  11.234  0.00  0.00    +0.000 HD
ENDBRANCH  10  12
ENDBRANCH   9  10
ENDBRANCH   1   9
BRANCH   1  14
ATOM     14  C   UNL     1      11.269   5.082   7.057  0.00  0.00    +0.000 C 
BRANCH  14  15
ATOM     15  C   UNL     1      11.776   3.975   6.101  0.00  0.00    +0.000 C 
ATOM     16  C   UNL     1      10.661   3.330   5.286  0.00  0.00    +0.000 C 
BRANCH  15  17
ATOM     17  O   UNL     1      12.757   4.472   5.192  0.00  0.00    +0.000 OA
ATOM     18  H   UNL     1      13.398   4.955   5.752  0.00  0.00    +0.000 HD
ENDBRANCH  15  17
ENDBRANCH  14  15
ENDBRANCH   1  14
TORSDOF 7
ENDMDL
MODEL 9
REMARK VINA RESULT:    -4.910      2.428      3.369
REMARK INTER + INTRA:          -7.070
REMARK INTER:                  -6.456
REMARK INTRA:                  -0.614
REMARK UNBOUND:                -0.437
REMARK  Name = 
REMARK  10 active torsions:
REMARK  status: ('A' for Active; 'I' for Inactive)
REMARK    1  A    between atoms: C_1  and  C_2
REMARK    2  A    between atoms: C_5  and  N_8
REMARK    3  A    between atoms: N_8  and  C_9
REMARK    4  A    between atoms: N_8  and  C_13
REMARK    5  A    between atoms: C_9  and  C_10
REMARK    6  A    between atoms: C_10  and  C_11
REMARK    7  A    between atoms: C_10  and  O_12
REMARK    8  A    between atoms: C_13  and  C_14
REMARK    9  A    between atoms: C_14  and  C_15
REMARK   10  A    between atoms: C_14  and  O_16
REMARK                            x       y       z     vdW  Elec       q    Type
REMARK                         _______ _______ _______ _____ _____    ______ ____
ROOT
ATOM      1  N   UNL     1      12.512   4.946   8.943  0.00  0.00    +0.000 N 
ENDROOT
BRANCH   1   6
ATOM      2  C   UNL     1      15.522   9.625  10.482  0.00  0.00    +0.000 C 
ATOM      3  C   UNL     1      14.759   8.397  10.092  0.00  0.00    +0.000 A 
ATOM      4  C   UNL     1      14.920   7.825   8.835  0.00  0.00    +0.000 A 
ATOM      5  C   UNL     1      14.180   6.690   8.464  0.00  0.00    +0.000 A 
ATOM      6  C   UNL     1      13.233   6.089   9.312  0.00  0.00    +0.000 A 
ATOM      7  C   UNL     1      13.097   6.693  10.576  0.00  0.00    +0.000 A 
ATOM      8  C   UNL     1      13.833   7.826  10.960  0.00  0.00    +0.000 A 
ENDBRANCH   1   6
BRANCH   1   9
ATOM      9  C   UNL     1      12.913   3.615   9.458  0.00  0.00    +0.000 C 
BRANCH   9  10
ATOM     10  C   UNL     1      14.428   3.524   9.768  0.00  0.00    +0.000 C 
ATOM     11  C   UNL     1      14.710   2.428  10.790  0.00  0.00    +0.000 C 
BRANCH  10  12
ATOM     12  O   UNL     1      15.179   3.229   8.582  0.00  0.00    +0.000 OA
ATOM     13  H   UNL     1      14.832   3.780   7.861  0.00  0.00    +0.000 HD
ENDBRANCH  10  12
ENDBRANCH   9  10
ENDBRANCH   1   9
BRANCH   1  14
ATOM     14  C   UNL     1      11.705   4.915   7.696  0.00  0.00    +0.000 C 
BRANCH  14  15
ATOM     15  C   UNL     1      12.173   3.805   6.724  0.00  0.00    +0.000 C 
ATOM     16  C   UNL     1      11.175   3.526   5.607  0.00  0.00    +0.000 C 
BRANCH  15  17
ATOM     17  O   UNL     1      13.429   4.123   6.126  0.00  0.00    +0.000 OA
ATOM     18  H   UNL     1      13.203   4.532   5.266  0.00  0.00    +0.000 HD
ENDBRANCH  15  17
ENDBRANCH  14  15
ENDBRANCH   1  14
TORSDOF 7
ENDMDL
