MODEL 1
REMARK VINA RESULT:    -3.927      0.000      0.000
REMARK INTER + INTRA:          -4.309
REMARK INTER:                  -4.271
REMARK INTRA:                  -0.038
REMARK UNBOUND:                -0.038
REMARK  Name = 
REMARK  3 active torsions:
REMARK  status: ('A' for Active; 'I' for Inactive)
REMARK    1  A    between atoms: C_1  and  O_2
REMARK    2  A    between atoms: O_2  and  C_3
REMARK    3  A    between atoms: C_8  and  O_9
REMARK                            x       y       z     vdW  Elec       q    Type
REMARK                         _______ _______ _______ _____ _____    ______ ____
ROOT
ATOM      1  C   UNL     1      11.355   9.475   6.025  0.00  0.00    +0.000 A 
ATOM      2  C   UNL     1      12.174   9.567   4.901  0.00  0.00    +0.000 A 
ATOM      3  C   UNL     1      11.693  10.173   3.733  0.00  0.00    +0.000 A 
ATOM      4  C   UNL     1      10.396  10.686   3.685  0.00  0.00    +0.000 A 
ATOM      5  C   UNL     1       9.572  10.598   4.804  0.00  0.00    +0.000 A 
ATOM      6  C   UNL     1      10.057   9.996   5.958  0.00  0.00    +0.000 A 
ENDROOT
BRANCH   1   8
ATOM      7  C   UNL     1      12.900   8.160   7.263  0.00  0.00    +0.000 C 
ATOM      8  O   UNL     1      11.692   8.910   7.229  0.00  0.00    +0.000 OA
ENDBRANCH   1   8
BRANCH   6   9
ATOM      9  O   UNL     1       9.228   9.921   7.046  0.00  0.00    +0.000 OA
ATOM     10  H   UNL     1       9.770  10.239   7.793  0.00  0.00    +0.000 HD
ENDBRANCH   6   9
TORSDOF 2
ENDMDL
MODEL 2
REMARK VINA RESULT:    -3.904      8.649      9.219
REMARK INTER + INTRA:          -4.284
REMARK INTER:                  -4.243
REMARK INTRA:                  -0.041
REMARK UNBOUND:                -0.038
REMARK  Name = 
REMARK  3 active torsions:
REMARK  status: ('A' for Active; 'I' for Inactive)
REMARK    1  A    between atoms: C_1  and  O_2
REMARK    2  A    between atoms: O_2  and  C_3
REMARK    3  A    between atoms: C_8  and  O_9
REMARK                            x       y       z     vdW  Elec       q    Type
REMARK                         _______ _______ _______ _____ _____    ______ ____
ROOT
ATOM      1  C   UNL     1       9.661  18.265   3.035  0.00  0.00    +0.000 A 
ATOM      2  C   UNL     1      10.807  18.187   3.825  0.00  0.00    +0.000 A 
ATOM      3  C   UNL     1      11.952  17.546   3.336  0.00  0.00    +0.000 A 
ATOM      4  C   UNL     1      11.956  16.981   2.060  0.00  0.00    +0.000 A 
ATOM      5  C   UNL     1      10.815  17.055   1.264  0.00  0.00    +0.000 A 
ATOM      6  C   UNL     1       9.683  17.692   1.758  0.00  0.00    +0.000 A 
ENDROOT
BRANCH   1   8
ATOM      7  C   UNL     1       8.157  18.877   4.770  0.00  0.00    +0.000 C 
ATOM      8  O   UNL     1       8.474  18.858   3.384  0.00  0.00    +0.000 OA
ENDBRANCH   1   8
BRANCH   6   9
ATOM      9  O   UNL     1       8.574  17.752   0.957  0.00  0.00    +0.000 OA
ATOM     10  H   UNL     1       7.998  17.031   1.276  0.00  0.00    +0.000 HD
ENDBRANCH   6   9
TORSDOF 2
ENDMDL
MODEL 3
REMARK VINA RESULT:    -3.656      8.211      8.711
REMARK INTER + INTRA:          -4.015
REMARK INTER:                  -3.962
REMARK INTRA:                  -0.052
REMARK UNBOUND:                -0.038
REMARK  Name = 
REMARK  3 active torsions:
REMARK  status: ('A' for Active; 'I' for Inactive)
REMARK    1  A    between atoms: C_1  and  O_2
REMARK    2  A    between atoms: O_2  and  C_3
REMARK    3  A    between atoms: C_8  and  O_9
REMARK                            x       y       z     vdW  Elec       q    Type
REMARK                         _______ _______ _______ _____ _____    ______ ____
ROOT
ATOM      1  C   UNL     1      11.759  17.172   2.716  0.00  0.00    +0.000 A 
ATOM      2  C   UNL     1      11.425  17.921   3.844  0.00  0.00    +0.000 A 
ATOM      3  C   UNL     1      10.188  18.575   3.908  0.00  0.00    +0.000 A 
ATOM      4  C   UNL     1       9.283  18.483   2.849  0.00  0.00    +0.000 A 
ATOM      5  C   UNL     1       9.609  17.735   1.720  0.00  0.00    +0.000 A 
ATOM      6  C   UNL     1      10.838  17.091   1.664  0.00  0.00    +0.000 A 
ENDROOT
BRANCH   1   8
ATOM      7  C   UNL     1      14.121  17.258   2.476  0.00  0.00    +0.000 C 
ATOM      8  O   UNL     1      12.929  16.483   2.517  0.00  0.00    +0.000 OA
ENDBRANCH   1   8
BRANCH   6   9
ATOM      9  O   UNL     1      11.136  16.362   0.544  0.00  0.00    +0.000 OA
ATOM     10  H   UNL     1      10.349  16.452  -0.027  0.00  0.00    +0.000 HD
ENDBRANCH   6   9
TORSDOF 2
ENDMDL
MODEL 4
REMARK VINA RESULT:    -3.482      8.589      9.179
REMARK INTER + INTRA:          -3.825
REMARK INTER:                  -3.787
REMARK INTRA:                  -0.037
REMARK UNBOUND:                -0.038
REMARK  Name = 
REMARK  3 active torsions:
REMARK  status: ('A' for Active; 'I' for Inactive)
REMARK    1  A    between atoms: C_1  and  O_2
REMARK    2  A    between atoms: O_2  and  C_3
REMARK    3  A    between atoms: C_8  and  O_9
REMARK                            x       y       z     vdW  Elec       q    Type
REMARK                         _______ _______ _______ _____ _____    ______ ____
ROOT
ATOM      1  C   UNL     1      10.620  17.775   2.536  0.00  0.00    +0.000 A 
ATOM      2  C   UNL     1      11.037  18.029   3.842  0.00  0.00    +0.000 A 
ATOM      3  C   UNL     1      10.142  18.579   4.768  0.00  0.00    +0.000 A 
ATOM      4  C   UNL     1       8.831  18.877   4.394  0.00  0.00    +0.000 A 
ATOM      5  C   UNL     1       8.406  18.625   3.091  0.00  0.00    +0.000 A 
ATOM      6  C   UNL     1       9.301  18.081   2.179  0.00  0.00    +0.000 A 
ENDROOT
BRANCH   1   8
ATOM      7  C   UNL     1      12.742  16.960   1.845  0.00  0.00    +0.000 C 
ATOM      8  O   UNL     1      11.385  17.243   1.529  0.00  0.00    +0.000 OA
ENDBRANCH   1   8
BRANCH   6   9
ATOM      9  O   UNL     1       8.860  17.843   0.904  0.00  0.00    +0.000 OA
ATOM     10  H   UNL     1       8.011  18.321   0.842  0.00  0.00    +0.000 HD
ENDBRANCH   6   9
TORSDOF 2
ENDMDL
MODEL 5
REMARK VINA RESULT:    -3.449      1.864      2.562
REMARK INTER + INTRA:          -3.789
REMARK INTER:                  -3.739
REMARK INTRA:                  -0.051
REMARK UNBOUND:                -0.038
REMARK  Name = 
REMARK  3 active torsions:
REMARK  status: ('A' for Active; 'I' for Inactive)
REMARK    1  A    between atoms: C_1  and  O_2
REMARK    2  A    between atoms: O_2  and  C_3
REMARK    3  A    between atoms: C_8  and  O_9
REMARK                            x       y       z     vdW  Elec       q    Type
REMARK                         _______ _______ _______ _____ _____    ______ ____
ROOT
ATOM      1  C   UNL     1      11.621   9.755   5.895  0.00  0.00    +0.000 A 
ATOM      2  C   UNL     1      10.968  10.014   7.099  0.00  0.00    +0.000 A 
ATOM      3  C   UNL     1       9.686  10.579   7.092  0.00  0.00    +0.000 A 
ATOM      4  C   UNL     1       9.054  10.887   5.886  0.00  0.00    +0.000 A 
ATOM      5  C   UNL     1       9.700  10.631   4.679  0.00  0.00    +0.000 A 
ATOM      6  C   UNL     1      10.971  10.070   4.695  0.00  0.00    +0.000 A 
ENDROOT
BRANCH   1   8
ATOM      7  C   UNL     1      13.970  10.030   6.125  0.00  0.00    +0.000 C 
ATOM      8  O   UNL     1      12.871   9.208   5.751  0.00  0.00    +0.000 OA
ENDBRANCH   1   8
BRANCH   6   9
ATOM      9  O   UNL     1      11.586   9.827   3.495  0.00  0.00    +0.000 OA
ATOM     10  H   UNL     1      11.005   9.185   3.044  0.00  0.00    +0.000 HD
ENDBRANCH   6   9
TORSDOF 2
ENDMDL
MODEL 6
REMARK VINA RESULT:    -3.440     20.008     20.569
REMARK INTER + INTRA:          -3.779
REMARK INTER:                  -3.739
REMARK INTRA:                  -0.040
REMARK UNBOUND:                -0.038
REMARK  Name = 
REMARK  3 active torsions:
REMARK  status: ('A' for Active; 'I' for Inactive)
REMARK    1  A    between atoms: C_1  and  O_2
REMARK    2  A    between atoms: O_2  and  C_3
REMARK    3  A    between atoms: C_8  and  O_9
REMARK                            x       y       z     vdW  Elec       q    Type
REMARK                         _______ _______ _______ _____ _____    ______ ____
ROOT
ATOM      1  C   UNL     1      10.254  16.102 -13.694  0.00  0.00    +0.000 A 
ATOM      2  C   UNL     1       9.529  17.292 -13.736  0.00  0.00    +0.000 A 
ATOM      3  C   UNL     1      10.188  18.518 -13.587  0.00  0.00    +0.000 A 
ATOM      4  C   UNL     1      11.570  18.560 -13.394  0.00  0.00    +0.000 A 
ATOM      5  C   UNL     1      12.302  17.375 -13.352  0.00  0.00    +0.000 A 
ATOM      6  C   UNL     1      11.639  16.163 -13.500  0.00  0.00    +0.000 A 
ENDROOT
BRANCH   1   8
ATOM      7  C   UNL     1       8.375  14.663 -13.469  0.00  0.00    +0.000 C 
ATOM      8  O   UNL     1       9.742  14.835 -13.824  0.00  0.00    +0.000 OA
ENDBRANCH   1   8
BRANCH   6   9
ATOM      9  O   UNL     1      12.380  15.012 -13.454  0.00  0.00    +0.000 OA
ATOM     10  H   UNL     1      11.760  14.331 -13.130  0.00  0.00    +0.000 HD
ENDBRANCH   6   9
TORSDOF 2
ENDMDL
MODEL 7
REMARK VINA RESULT:    -3.394     20.221     20.707
REMARK INTER + INTRA:          -3.729
REMARK INTER:                  -3.686
REMARK INTRA:                  -0.043
REMARK UNBOUND:                -0.038
REMARK  Name = 
REMARK  3 active torsions:
REMARK  status: ('A' for Active; 'I' for Inactive)
REMARK    1  A    between atoms: C_1  and  O_2
REMARK    2  A    between atoms: O_2  and  C_3
REMARK    3  A    between atoms: C_8  and  O_9
REMARK                            x       y       z     vdW  Elec       q    Type
REMARK                         _______ _______ _______ _____ _____    ______ ____
ROOT
ATOM      1  C   UNL     1       9.123  15.965 -14.027  0.00  0.00    +0.000 A 
ATOM      2  C   UNL     1       9.594  17.226 -13.666  0.00  0.00    +0.000 A 
ATOM      3  C   UNL     1      10.940  17.397 -13.319  0.00  0.00    +0.000 A 
ATOM      4  C   UNL     1      11.818  16.311 -13.331  0.00  0.00    +0.000 A 
ATOM      5  C   UNL     1      11.354  15.048 -13.692  0.00  0.00    +0.000 A 
ATOM      6  C   UNL     1      10.018  14.888 -14.034  0.00  0.00    +0.000 A 
ENDROOT
BRANCH   1   8
ATOM      7  C   UNL     1       6.799  16.339 -13.697  0.00  0.00    +0.000 C 
ATOM      8  O   UNL     1       7.837  15.652 -14.388  0.00  0.00    +0.000 OA
ENDBRANCH   1   8
BRANCH   6   9
ATOM      9  O   UNL     1       9.585  13.636 -14.384  0.00  0.00    +0.000 OA
ATOM     10  H   UNL     1      10.110  13.028 -13.829  0.00  0.00    +0.000 HD
ENDBRANCH   6   9
TORSDOF 2
ENDMDL
MODEL 8
REMARK VINA RESULT:    -3.354      1.469      3.103
REMARK INTER + INTRA:          -3.686
REMARK INTER:                  -3.634
REMARK INTRA:                  -0.052
REMARK UNBOUND:                -0.038
REMARK  Name = 
REMARK  3 active torsions:
REMARK  status: ('A' for Active; 'I' for Inactive)
REMARK    1  A    between atoms: C_1  and  O_2
REMARK    2  A    between atoms: O_2  and  C_3
REMARK    3  A    between atoms: C_8  and  O_9
REMARK                            x       y       z     vdW  Elec       q    Type
REMARK                         _______ _______ _______ _____ _____    ______ ____
ROOT
ATOM      1  C   UNL     1      11.186  10.220   5.116  0.00  0.00    +0.000 A 
ATOM      2  C   UNL     1      12.535   9.867   5.117  0.00  0.00    +0.000 A 
ATOM      3  C   UNL     1      13.067   9.136   6.187  0.00  0.00    +0.000 A 
ATOM      4  C   UNL     1      12.255   8.757   7.258  0.00  0.00    +0.000 A 
ATOM      5  C   UNL     1      10.906   9.105   7.264  0.00  0.00    +0.000 A 
ATOM      6  C   UNL     1      10.388   9.830   6.199  0.00  0.00    +0.000 A 
ENDROOT
BRANCH   1   8
ATOM      7  C   UNL     1      10.524  10.359   2.838  0.00  0.00    +0.000 C 
ATOM      8  O   UNL     1      10.534  10.931   4.141  0.00  0.00    +0.000 OA
ENDBRANCH   1   8
BRANCH   6   9
ATOM      9  O   UNL     1       9.059  10.161   6.228  0.00  0.00    +0.000 OA
ATOM     10  H   UNL     1       9.004  10.913   6.848  0.00  0.00    +0.000 HD
ENDBRANCH   6   9
TORSDOF 2
ENDMDL
MODEL 9
REMARK VINA RESULT:    -3.204      1.644      3.342
REMARK INTER + INTRA:          -3.523
REMARK INTER:                  -3.483
REMARK INTRA:                  -0.040
REMARK UNBOUND:                -0.038
REMARK  Name = 
REMARK  3 active torsions:
REMARK  status: ('A' for Active; 'I' for Inactive)
REMARK    1  A    between atoms: C_1  and  O_2
REMARK    2  A    between atoms: O_2  and  C_3
REMARK    3  A    between atoms: C_8  and  O_9
REMARK                            x       y       z     vdW  Elec       q    Type
REMARK                         _______ _______ _______ _____ _____    ______ ____
ROOT
ATOM      1  C   UNL     1      10.585   9.889   6.232  0.00  0.00    +0.000 A 
ATOM      2  C   UNL     1      11.125   9.123   7.265  0.00  0.00    +0.000 A 
ATOM      3  C   UNL     1      12.469   8.733   7.218  0.00  0.00    +0.000 A 
ATOM      4  C   UNL     1      13.277   9.105   6.142  0.00  0.00    +0.000 A 
ATOM      5  C   UNL     1      12.745   9.870   5.106  0.00  0.00    +0.000 A 
ATOM      6  C   UNL     1      11.411  10.252   5.160  0.00  0.00    +0.000 A 
ENDROOT
BRANCH   1   8
ATOM      7  C   UNL     1       8.945  11.437   6.980  0.00  0.00    +0.000 C 
ATOM      8  O   UNL     1       9.292  10.338   6.146  0.00  0.00    +0.000 OA
ENDBRANCH   1   8
BRANCH   6   9
ATOM      9  O   UNL     1      10.911  11.003   4.130  0.00  0.00    +0.000 OA
ATOM     10  H   UNL     1      10.943  11.923   4.455  0.00  0.00    +0.000 HD
ENDBRANCH   6   9
TORSDOF 2
ENDMDL
