MODEL 1
REMARK VINA RESULT:    -5.454      0.000      0.000
REMARK INTER + INTRA:          -7.901
REMARK INTER:                  -7.367
REMARK INTRA:                  -0.534
REMARK UNBOUND:                -0.534
REMARK  Name = 
REMARK  10 active torsions:
REMARK  status: ('A' for Active; 'I' for Inactive)
REMARK    1  A    between atoms: C_1  and  C_2
REMARK    2  A    between atoms: C_5  and  N_8
REMARK    3  A    between atoms: N_8  and  C_9
REMARK    4  A    between atoms: N_8  and  C_13
REMARK    5  A    between atoms: C_9  and  C_10
REMARK    6  A    between atoms: C_10  and  C_11
REMARK    7  A    between atoms: C_10  and  O_12
REMARK    8  A    between atoms: C_13  and  C_14
REMARK    9  A    between atoms: C_14  and  C_15
REMARK   10  A    between atoms: C_14  and  O_16
REMARK                            x       y       z     vdW  Elec       q    Type
REMARK                         _______ _______ _______ _____ _____    ______ ____
ROOT
ATOM      1  N   UNL     1       9.552  12.555   7.620  0.00  0.00    +0.000 N 
ENDROOT
BRANCH   1   6
ATOM      2  C   UNL     1      11.083  10.655   2.388  0.00  0.00    +0.000 C 
ATOM      3  C   UNL     1      10.670  11.128   3.748  0.00  0.00    +0.000 A 
ATOM      4  C   UNL     1       9.620  12.027   3.903  0.00  0.00    +0.000 A 
ATOM      5  C   UNL     1       9.257  12.491   5.178  0.00  0.00    +0.000 A 
ATOM      6  C   UNL     1       9.932  12.103   6.350  0.00  0.00    +0.000 A 
ATOM      7  C   UNL     1      10.987  11.193   6.156  0.00  0.00    +0.000 A 
ATOM      8  C   UNL     1      11.359  10.720   4.886  0.00  0.00    +0.000 A 
ENDBRANCH   1   6
BRANCH   1   9
ATOM      9  C   UNL     1      10.496  12.451   8.759  0.00  0.00    +0.000 C 
BRANCH   9  10
ATOM     10  C   UNL     1      11.322  13.742   8.974  0.00  0.00    +0.000 C 
ATOM     11  C   UNL     1      12.729  13.590   8.406  0.00  0.00    +0.000 C 
BRANCH  10  12
ATOM     12  O   UNL     1      10.702  14.863   8.329  0.00  0.00    +0.000 OA
ATOM     13  H   UNL     1       9.933  14.537   7.832  0.00  0.00    +0.000 HD
ENDBRANCH  10  12
ENDBRANCH   9  10
ENDBRANCH   1   9
BRANCH   1  14
ATOM     14  C   UNL     1       8.121  12.658   8.003  0.00  0.00    +0.000 C 
BRANCH  14  15
ATOM     15  C   UNL     1       7.419  11.279   8.019  0.00  0.00    +0.000 C 
ATOM     16  C   UNL     1       7.273  10.696   9.419  0.00  0.00    +0.000 C 
BRANCH  15  17
ATOM     17  O   UNL     1       6.121  11.341   7.429  0.00  0.00    +0.000 OA
ATOM     18  H   UNL     1       5.560  11.783   8.098  0.00  0.00    +0.000 HD
ENDBRANCH  15  17
ENDBRANCH  14  15
ENDBRANCH   1  14
TORSDOF 7
ENDMDL
MODEL 2
REMARK VINA RESULT:    -5.320      2.125      4.219
REMARK INTER + INTRA:          -7.719
REMARK INTER:                  -7.236
REMARK INTRA:                  -0.484
REMARK UNBOUND:                -0.534
REMARK  Name = 
REMARK  10 active torsions:
REMARK  status: ('A' for Active; 'I' for Inactive)
REMARK    1  A    between atoms: C_1  and  C_2
REMARK    2  A    between atoms: C_5  and  N_8
REMARK    3  A    between atoms: N_8  and  C_9
REMARK    4  A    between atoms: N_8  and  C_13
REMARK    5  A    between atoms: C_9  and  C_10
REMARK    6  A    between atoms: C_10  and  C_11
REMARK    7  A    between atoms: C_10  and  O_12
REMARK    8  A    between atoms: C_13  and  C_14
REMARK    9  A    between atoms: C_14  and  C_15
REMARK   10  A    between atoms: C_14  and  O_16
REMARK                            x       y       z     vdW  Elec       q    Type
REMARK                         _______ _______ _______ _____ _____    ______ ____
ROOT
ATOM      1  N   UNL     1       9.489  12.161   6.123  0.00  0.00    +0.000 N 
ENDROOT
BRANCH   1   6
ATOM      2  C   UNL     1      14.552  11.209   8.730  0.00  0.00    +0.000 C 
ATOM      3  C   UNL     1      13.226  11.444   8.072  0.00  0.00    +0.000 A 
ATOM      4  C   UNL     1      12.723  10.545   7.139  0.00  0.00    +0.000 A 
ATOM      5  C   UNL     1      11.494  10.786   6.503  0.00  0.00    +0.000 A 
ATOM      6  C   UNL     1      10.723  11.937   6.747  0.00  0.00    +0.000 A 
ATOM      7  C   UNL     1      11.262  12.823   7.698  0.00  0.00    +0.000 A 
ATOM      8  C   UNL     1      12.489  12.593   8.342  0.00  0.00    +0.000 A 
ENDBRANCH   1   6
BRANCH   1   9
ATOM      9  C   UNL     1       9.441  12.658   4.727  0.00  0.00    +0.000 C 
BRANCH   9  10
ATOM     10  C   UNL     1       9.670  11.537   3.684  0.00  0.00    +0.000 C 
ATOM     11  C   UNL     1       8.490  10.573   3.651  0.00  0.00    +0.000 C 
BRANCH  10  12
ATOM     12  O   UNL     1       9.834  12.084   2.368  0.00  0.00    +0.000 OA
ATOM     13  H   UNL     1      10.726  11.859   2.057  0.00  0.00    +0.000 HD
ENDBRANCH  10  12
ENDBRANCH   9  10
ENDBRANCH   1   9
BRANCH   1  14
ATOM     14  C   UNL     1       8.261  12.415   6.919  0.00  0.00    +0.000 C 
BRANCH  14  15
ATOM     15  C   UNL     1       7.479  11.113   7.218  0.00  0.00    +0.000 C 
ATOM     16  C   UNL     1       7.922  10.431   8.507  0.00  0.00    +0.000 C 
BRANCH  15  17
ATOM     17  O   UNL     1       6.075  11.350   7.303  0.00  0.00    +0.000 OA
ATOM     18  H   UNL     1       5.985  12.322   7.364  0.00  0.00    +0.000 HD
ENDBRANCH  15  17
ENDBRANCH  14  15
ENDBRANCH   1  14
TORSDOF 7
ENDMDL
MODEL 3
REMARK VINA RESULT:    -5.276      1.986      4.757
REMARK INTER + INTRA:          -7.660
REMARK INTER:                  -7.085
REMARK INTRA:                  -0.575
REMARK UNBOUND:                -0.534
REMARK  Name = 
REMARK  10 active torsions:
REMARK  status: ('A' for Active; 'I' for Inactive)
REMARK    1  A    between atoms: C_1  and  C_2
REMARK    2  A    between atoms: C_5  and  N_8
REMARK    3  A    between atoms: N_8  and  C_9
REMARK    4  A    between atoms: N_8  and  C_13
REMARK    5  A    between atoms: C_9  and  C_10
REMARK    6  A    between atoms: C_10  and  C_11
REMARK    7  A    between atoms: C_10  and  O_12
REMARK    8  A    between atoms: C_13  and  C_14
REMARK    9  A    between atoms: C_14  and  C_15
REMARK   10  A    between atoms: C_14  and  O_16
REMARK                            x       y       z     vdW  Elec       q    Type
REMARK                         _______ _______ _______ _____ _____    ______ ____
ROOT
ATOM      1  N   UNL     1       9.358  11.696   5.808  0.00  0.00    +0.000 N 
ENDROOT
BRANCH   1   6
ATOM      2  C   UNL     1      14.390  11.580   8.635  0.00  0.00    +0.000 C 
ATOM      3  C   UNL     1      13.074  11.598   7.920  0.00  0.00    +0.000 A 
ATOM      4  C   UNL     1      12.739  10.596   7.015  0.00  0.00    +0.000 A 
ATOM      5  C   UNL     1      11.516  10.633   6.326  0.00  0.00    +0.000 A 
ATOM      6  C   UNL     1      10.584  11.675   6.485  0.00  0.00    +0.000 A 
ATOM      7  C   UNL     1      10.955  12.669   7.409  0.00  0.00    +0.000 A 
ATOM      8  C   UNL     1      12.173  12.643   8.107  0.00  0.00    +0.000 A 
ENDBRANCH   1   6
BRANCH   1   9
ATOM      9  C   UNL     1       8.146  12.223   6.481  0.00  0.00    +0.000 C 
BRANCH   9  10
ATOM     10  C   UNL     1       7.332  11.120   7.202  0.00  0.00    +0.000 C 
ATOM     11  C   UNL     1       7.822  10.928   8.632  0.00  0.00    +0.000 C 
BRANCH  10  12
ATOM     12  O   UNL     1       5.939  11.458   7.250  0.00  0.00    +0.000 OA
ATOM     13  H   UNL     1       5.706  11.641   8.175  0.00  0.00    +0.000 HD
ENDBRANCH  10  12
ENDBRANCH   9  10
ENDBRANCH   1   9
BRANCH   1  14
ATOM     14  C   UNL     1       9.091  10.777   4.672  0.00  0.00    +0.000 C 
BRANCH  14  15
ATOM     15  C   UNL     1       9.400  11.434   3.305  0.00  0.00    +0.000 C 
ATOM     16  C   UNL     1      10.788  11.094   2.776  0.00  0.00    +0.000 C 
BRANCH  15  17
ATOM     17  O   UNL     1       8.445  11.059   2.312  0.00  0.00    +0.000 OA
ATOM     18  H   UNL     1       7.615  11.501   2.581  0.00  0.00    +0.000 HD
ENDBRANCH  15  17
ENDBRANCH  14  15
ENDBRANCH   1  14
TORSDOF 7
ENDMDL
MODEL 4
REMARK VINA RESULT:    -5.059      0.883      3.630
REMARK INTER + INTRA:          -7.367
REMARK INTER:                  -6.941
REMARK INTRA:                  -0.427
REMARK UNBOUND:                -0.534
REMARK  Name = 
REMARK  10 active torsions:
REMARK  status: ('A' for Active; 'I' for Inactive)
REMARK    1  A    between atoms: C_1  and  C_2
REMARK    2  A    between atoms: C_5  and  N_8
REMARK    3  A    between atoms: N_8  and  C_9
REMARK    4  A    between atoms: N_8  and  C_13
REMARK    5  A    between atoms: C_9  and  C_10
REMARK    6  A    between atoms: C_10  and  C_11
REMARK    7  A    between atoms: C_10  and  O_12
REMARK    8  A    between atoms: C_13  and  C_14
REMARK    9  A    between atoms: C_14  and  C_15
REMARK   10  A    between atoms: C_14  and  O_16
REMARK                            x       y       z     vdW  Elec       q    Type
REMARK                         _______ _______ _______ _____ _____    ______ ____
ROOT
ATOM      1  N   UNL     1       9.444  12.755   7.342  0.00  0.00    +0.000 N 
ENDROOT
BRANCH   1   6
ATOM      2  C   UNL     1      11.024  10.708   2.181  0.00  0.00    +0.000 C 
ATOM      3  C   UNL     1      10.631  11.257   3.518  0.00  0.00    +0.000 A 
ATOM      4  C   UNL     1      11.212  10.776   4.686  0.00  0.00    +0.000 A 
ATOM      5  C   UNL     1      10.819  11.273   5.939  0.00  0.00    +0.000 A 
ATOM      6  C   UNL     1       9.818  12.250   6.091  0.00  0.00    +0.000 A 
ATOM      7  C   UNL     1       9.254  12.715   4.889  0.00  0.00    +0.000 A 
ATOM      8  C   UNL     1       9.640  12.228   3.629  0.00  0.00    +0.000 A 
ENDBRANCH   1   6
BRANCH   1   9
ATOM      9  C   UNL     1       8.030  12.679   7.782  0.00  0.00    +0.000 C 
BRANCH   9  10
ATOM     10  C   UNL     1       7.412  11.275   7.575  0.00  0.00    +0.000 C 
ATOM     11  C   UNL     1       7.720  10.364   8.757  0.00  0.00    +0.000 C 
BRANCH  10  12
ATOM     12  O   UNL     1       5.986  11.356   7.437  0.00  0.00    +0.000 OA
ATOM     13  H   UNL     1       5.761  11.158   6.512  0.00  0.00    +0.000 HD
ENDBRANCH  10  12
ENDBRANCH   9  10
ENDBRANCH   1   9
BRANCH   1  14
ATOM     14  C   UNL     1      10.256  13.795   8.025  0.00  0.00    +0.000 C 
BRANCH  14  15
ATOM     15  C   UNL     1      11.366  13.181   8.912  0.00  0.00    +0.000 C 
ATOM     16  C   UNL     1      10.988  11.823   9.491  0.00  0.00    +0.000 C 
BRANCH  15  17
ATOM     17  O   UNL     1      12.590  13.030   8.195  0.00  0.00    +0.000 OA
ATOM     18  H   UNL     1      12.504  13.621   7.421  0.00  0.00    +0.000 HD
ENDBRANCH  15  17
ENDBRANCH  14  15
ENDBRANCH   1  14
TORSDOF 7
ENDMDL
MODEL 5
REMARK VINA RESULT:    -4.931      2.138      2.540
REMARK INTER + INTRA:          -7.195
REMARK INTER:                  -6.701
REMARK INTRA:                  -0.494
REMARK UNBOUND:                -0.534
REMARK  Name = 
REMARK  10 active torsions:
REMARK  status: ('A' for Active; 'I' for Inactive)
REMARK    1  A    between atoms: C_1  and  C_2
REMARK    2  A    between atoms: C_5  and  N_8
REMARK    3  A    between atoms: N_8  and  C_9
REMARK    4  A    between atoms: N_8  and  C_13
REMARK    5  A    between atoms: C_9  and  C_10
REMARK    6  A    between atoms: C_10  and  C_11
REMARK    7  A    between atoms: C_10  and  O_12
REMARK    8  A    between atoms: C_13  and  C_14
REMARK    9  A    between atoms: C_14  and  C_15
REMARK   10  A    between atoms: C_14  and  O_16
REMARK                            x       y       z     vdW  Elec       q    Type
REMARK                         _______ _______ _______ _____ _____    ______ ____
ROOT
ATOM      1  N   UNL     1       9.445  11.035   7.425  0.00  0.00    +0.000 N 
ENDROOT
BRANCH   1   6
ATOM      2  C   UNL     1       8.525  11.798   1.777  0.00  0.00    +0.000 C 
ATOM      3  C   UNL     1       8.742  11.612   3.248  0.00  0.00    +0.000 A 
ATOM      4  C   UNL     1       9.459  12.546   3.988  0.00  0.00    +0.000 A 
ATOM      5  C   UNL     1       9.685  12.351   5.360  0.00  0.00    +0.000 A 
ATOM      6  C   UNL     1       9.232  11.213   6.053  0.00  0.00    +0.000 A 
ATOM      7  C   UNL     1       8.510  10.291   5.273  0.00  0.00    +0.000 A 
ATOM      8  C   UNL     1       8.275  10.475   3.901  0.00  0.00    +0.000 A 
ENDBRANCH   1   6
BRANCH   1   9
ATOM      9  C   UNL     1      10.774  11.323   8.016  0.00  0.00    +0.000 C 
BRANCH   9  10
ATOM     10  C   UNL     1      11.667  10.063   8.127  0.00  0.00    +0.000 C 
ATOM     11  C   UNL     1      12.748  10.065   7.053  0.00  0.00    +0.000 C 
BRANCH  10  12
ATOM     12  O   UNL     1      12.312  10.000   9.406  0.00  0.00    +0.000 OA
ATOM     13  H   UNL     1      11.809   9.386   9.967  0.00  0.00    +0.000 HD
ENDBRANCH  10  12
ENDBRANCH   9  10
ENDBRANCH   1   9
BRANCH   1  14
ATOM     14  C   UNL     1       8.594  10.113   8.222  0.00  0.00    +0.000 C 
BRANCH  14  15
ATOM     15  C   UNL     1       7.378  10.835   8.849  0.00  0.00    +0.000 C 
ATOM     16  C   UNL     1       7.741  12.164   9.502  0.00  0.00    +0.000 C 
BRANCH  15  17
ATOM     17  O   UNL     1       6.356  11.081   7.885  0.00  0.00    +0.000 OA
ATOM     18  H   UNL     1       5.782  10.289   7.917  0.00  0.00    +0.000 HD
ENDBRANCH  15  17
ENDBRANCH  14  15
ENDBRANCH   1  14
TORSDOF 7
ENDMDL
MODEL 6
REMARK VINA RESULT:    -4.813      2.278      3.304
REMARK INTER + INTRA:          -7.035
REMARK INTER:                  -6.193
REMARK INTRA:                  -0.842
REMARK UNBOUND:                -0.534
REMARK  Name = 
REMARK  10 active torsions:
REMARK  status: ('A' for Active; 'I' for Inactive)
REMARK    1  A    between atoms: C_1  and  C_2
REMARK    2  A    between atoms: C_5  and  N_8
REMARK    3  A    between atoms: N_8  and  C_9
REMARK    4  A    between atoms: N_8  and  C_13
REMARK    5  A    between atoms: C_9  and  C_10
REMARK    6  A    between atoms: C_10  and  C_11
REMARK    7  A    between atoms: C_10  and  O_12
REMARK    8  A    between atoms: C_13  and  C_14
REMARK    9  A    between atoms: C_14  and  C_15
REMARK   10  A    between atoms: C_14  and  O_16
REMARK                            x       y       z     vdW  Elec       q    Type
REMARK                         _______ _______ _______ _____ _____    ______ ____
ROOT
ATOM      1  N   UNL     1      10.539  11.280   8.191  0.00  0.00    +0.000 N 
ENDROOT
BRANCH   1   6
ATOM      2  C   UNL     1       8.578  10.453   2.825  0.00  0.00    +0.000 C 
ATOM      3  C   UNL     1       9.079  10.691   4.216  0.00  0.00    +0.000 A 
ATOM      4  C   UNL     1      10.400  11.062   4.445  0.00  0.00    +0.000 A 
ATOM      5  C   UNL     1      10.873  11.255   5.754  0.00  0.00    +0.000 A 
ATOM      6  C   UNL     1      10.066  11.067   6.890  0.00  0.00    +0.000 A 
ATOM      7  C   UNL     1       8.736  10.694   6.621  0.00  0.00    +0.000 A 
ATOM      8  C   UNL     1       8.250  10.500   5.317  0.00  0.00    +0.000 A 
ENDBRANCH   1   6
BRANCH   1   9
ATOM      9  C   UNL     1      11.204  10.179   8.930  0.00  0.00    +0.000 C 
BRANCH   9  10
ATOM     10  C   UNL     1      12.745  10.204   8.783  0.00  0.00    +0.000 C 
ATOM     11  C   UNL     1      13.211   9.176   7.759  0.00  0.00    +0.000 C 
BRANCH  10  12
ATOM     12  O   UNL     1      13.201  11.495   8.356  0.00  0.00    +0.000 OA
ATOM     13  H   UNL     1      13.459  11.429   7.422  0.00  0.00    +0.000 HD
ENDBRANCH  10  12
ENDBRANCH   9  10
ENDBRANCH   1   9
BRANCH   1  14
ATOM     14  C   UNL     1       9.977  12.356   9.047  0.00  0.00    +0.000 C 
BRANCH  14  15
ATOM     15  C   UNL     1      10.266  13.766   8.478  0.00  0.00    +0.000 C 
ATOM     16  C   UNL     1       9.830  14.890   9.410  0.00  0.00    +0.000 C 
BRANCH  15  17
ATOM     17  O   UNL     1      11.652  13.944   8.189  0.00  0.00    +0.000 OA
ATOM     18  H   UNL     1      11.725  13.833   7.220  0.00  0.00    +0.000 HD
ENDBRANCH  15  17
ENDBRANCH  14  15
ENDBRANCH   1  14
TORSDOF 7
ENDMDL
MODEL 7
REMARK VINA RESULT:    -4.747      2.234      3.720
REMARK INTER + INTRA:          -6.945
REMARK INTER:                  -6.603
REMARK INTRA:                  -0.342
REMARK UNBOUND:                -0.534
REMARK  Name = 
REMARK  10 active torsions:
REMARK  status: ('A' for Active; 'I' for Inactive)
REMARK    1  A    between atoms: C_1  and  C_2
REMARK    2  A    between atoms: C_5  and  N_8
REMARK    3  A    between atoms: N_8  and  C_9
REMARK    4  A    between atoms: N_8  and  C_13
REMARK    5  A    between atoms: C_9  and  C_10
REMARK    6  A    between atoms: C_10  and  C_11
REMARK    7  A    between atoms: C_10  and  O_12
REMARK    8  A    between atoms: C_13  and  C_14
REMARK    9  A    between atoms: C_14  and  C_15
REMARK   10  A    between atoms: C_14  and  O_16
REMARK                            x       y       z     vdW  Elec       q    Type
REMARK                         _______ _______ _______ _____ _____    ______ ____
ROOT
ATOM      1  N   UNL     1      10.144  11.278   7.018  0.00  0.00    +0.000 N 
ENDROOT
BRANCH   1   6
ATOM      2  C   UNL     1       8.301  11.778   1.570  0.00  0.00    +0.000 C 
ATOM      3  C   UNL     1       8.757  11.656   2.992  0.00  0.00    +0.000 A 
ATOM      4  C   UNL     1       9.403  12.711   3.627  0.00  0.00    +0.000 A 
ATOM      5  C   UNL     1       9.855  12.581   4.951  0.00  0.00    +0.000 A 
ATOM      6  C   UNL     1       9.708  11.394   5.692  0.00  0.00    +0.000 A 
ATOM      7  C   UNL     1       9.049  10.350   5.018  0.00  0.00    +0.000 A 
ATOM      8  C   UNL     1       8.590  10.468   3.696  0.00  0.00    +0.000 A 
ENDBRANCH   1   6
BRANCH   1   9
ATOM      9  C   UNL     1       9.158  11.123   8.114  0.00  0.00    +0.000 C 
BRANCH   9  10
ATOM     10  C   UNL     1       8.024  12.176   8.054  0.00  0.00    +0.000 C 
ATOM     11  C   UNL     1       6.755  11.577   7.460  0.00  0.00    +0.000 C 
BRANCH  10  12
ATOM     12  O   UNL     1       7.711  12.670   9.364  0.00  0.00    +0.000 OA
ATOM     13  H   UNL     1       8.534  12.990   9.770  0.00  0.00    +0.000 HD
ENDBRANCH  10  12
ENDBRANCH   9  10
ENDBRANCH   1   9
BRANCH   1  14
ATOM     14  C   UNL     1      11.470  11.799   7.440  0.00  0.00    +0.000 C 
BRANCH  14  15
ATOM     15  C   UNL     1      12.563  10.704   7.414  0.00  0.00    +0.000 C 
ATOM     16  C   UNL     1      12.231   9.504   8.293  0.00  0.00    +0.000 C 
BRANCH  15  17
ATOM     17  O   UNL     1      12.802  10.228   6.090  0.00  0.00    +0.000 OA
ATOM     18  H   UNL     1      12.689   9.258   6.146  0.00  0.00    +0.000 HD
ENDBRANCH  15  17
ENDBRANCH  14  15
ENDBRANCH   1  14
TORSDOF 7
ENDMDL
MODEL 8
REMARK VINA RESULT:    -4.598      2.336      4.128
REMARK INTER + INTRA:          -6.744
REMARK INTER:                  -5.921
REMARK INTRA:                  -0.824
REMARK UNBOUND:                -0.534
REMARK  Name = 
REMARK  10 active torsions:
REMARK  status: ('A' for Active; 'I' for Inactive)
REMARK    1  A    between atoms: C_1  and  C_2
REMARK    2  A    between atoms: C_5  and  N_8
REMARK    3  A    between atoms: N_8  and  C_9
REMARK    4  A    between atoms: N_8  and  C_13
REMARK    5  A    between atoms: C_9  and  C_10
REMARK    6  A    between atoms: C_10  and  C_11
REMARK    7  A    between atoms: C_10  and  O_12
REMARK    8  A    between atoms: C_13  and  C_14
REMARK    9  A    between atoms: C_14  and  C_15
REMARK   10  A    between atoms: C_14  and  O_16
REMARK                            x       y       z     vdW  Elec       q    Type
REMARK                         _______ _______ _______ _____ _____    ______ ____
ROOT
ATOM      1  N   UNL     1      11.171  11.911   7.824  0.00  0.00    +0.000 N 
ENDROOT
BRANCH   1   6
ATOM      2  C   UNL     1       9.105  11.828   2.434  0.00  0.00    +0.000 C 
ATOM      3  C   UNL     1       9.624  11.833   3.839  0.00  0.00    +0.000 A 
ATOM      4  C   UNL     1       9.142  12.742   4.776  0.00  0.00    +0.000 A 
ATOM      5  C   UNL     1       9.654  12.762   6.083  0.00  0.00    +0.000 A 
ATOM      6  C   UNL     1      10.679  11.899   6.513  0.00  0.00    +0.000 A 
ATOM      7  C   UNL     1      11.140  10.992   5.541  0.00  0.00    +0.000 A 
ATOM      8  C   UNL     1      10.636  10.961   4.230  0.00  0.00    +0.000 A 
ENDBRANCH   1   6
BRANCH   1   9
ATOM      9  C   UNL     1      10.252  11.684   8.965  0.00  0.00    +0.000 C 
BRANCH   9  10
ATOM     10  C   UNL     1      10.018  10.181   9.257  0.00  0.00    +0.000 C 
ATOM     11  C   UNL     1       8.737   9.690   8.592  0.00  0.00    +0.000 C 
BRANCH  10  12
ATOM     12  O   UNL     1      11.106   9.386   8.766  0.00  0.00    +0.000 OA
ATOM     13  H   UNL     1      10.739   8.557   8.416  0.00  0.00    +0.000 HD
ENDBRANCH  10  12
ENDBRANCH   9  10
ENDBRANCH   1   9
BRANCH   1  14
ATOM     14  C   UNL     1      12.427  12.626   8.168  0.00  0.00    +0.000 C 
BRANCH  14  15
ATOM     15  C   UNL     1      13.675  11.726   7.999  0.00  0.00    +0.000 C 
ATOM     16  C   UNL     1      14.986  12.474   8.210  0.00  0.00    +0.000 C 
BRANCH  15  17
ATOM     17  O   UNL     1      13.651  10.617   8.897  0.00  0.00    +0.000 OA
ATOM     18  H   UNL     1      14.497  10.669   9.385  0.00  0.00    +0.000 HD
ENDBRANCH  15  17
ENDBRANCH  14  15
ENDBRANCH   1  14
TORSDOF 7
ENDMDL
MODEL 9
REMARK VINA RESULT:    -4.580      2.902      4.696
REMARK INTER + INTRA:          -6.720
REMARK INTER:                  -6.227
REMARK INTRA:                  -0.494
REMARK UNBOUND:                -0.534
REMARK  Name = 
REMARK  10 active torsions:
REMARK  status: ('A' for Active; 'I' for Inactive)
REMARK    1  A    between atoms: C_1  and  C_2
REMARK    2  A    between atoms: C_5  and  N_8
REMARK    3  A    between atoms: N_8  and  C_9
REMARK    4  A    between atoms: N_8  and  C_13
REMARK    5  A    between atoms: C_9  and  C_10
REMARK    6  A    between atoms: C_10  and  C_11
REMARK    7  A    between atoms: C_10  and  O_12
REMARK    8  A    between atoms: C_13  and  C_14
REMARK    9  A    between atoms: C_14  and  C_15
REMARK   10  A    between atoms: C_14  and  O_16
REMARK                            x       y       z     vdW  Elec       q    Type
REMARK                         _______ _______ _______ _____ _____    ______ ____
ROOT
ATOM      1  N   UNL     1       9.966  11.231   7.277  0.00  0.00    +0.000 N 
ENDROOT
BRANCH   1   6
ATOM      2  C   UNL     1      14.055   7.718   9.341  0.00  0.00    +0.000 C 
ATOM      3  C   UNL     1      13.001   8.647   8.822  0.00  0.00    +0.000 A 
ATOM      4  C   UNL     1      11.711   8.626   9.342  0.00  0.00    +0.000 A 
ATOM      5  C   UNL     1      10.719   9.479   8.831  0.00  0.00    +0.000 A 
ATOM      6  C   UNL     1      10.955  10.370   7.768  0.00  0.00    +0.000 A 
ATOM      7  C   UNL     1      12.270  10.366   7.269  0.00  0.00    +0.000 A 
ATOM      8  C   UNL     1      13.272   9.520   7.772  0.00  0.00    +0.000 A 
ENDBRANCH   1   6
BRANCH   1   9
ATOM      9  C   UNL     1       8.533  10.873   7.412  0.00  0.00    +0.000 C 
BRANCH   9  10
ATOM     10  C   UNL     1       7.742  11.882   8.281  0.00  0.00    +0.000 C 
ATOM     11  C   UNL     1       8.630  12.481   9.365  0.00  0.00    +0.000 C 
BRANCH  10  12
ATOM     12  O   UNL     1       7.229  12.957   7.482  0.00  0.00    +0.000 OA
ATOM     13  H   UNL     1       7.753  13.752   7.675  0.00  0.00    +0.000 HD
ENDBRANCH  10  12
ENDBRANCH   9  10
ENDBRANCH   1   9
BRANCH   1  14
ATOM     14  C   UNL     1      10.265  12.211   6.201  0.00  0.00    +0.000 C 
BRANCH  14  15
ATOM     15  C   UNL     1       9.685  11.773   4.834  0.00  0.00    +0.000 C 
ATOM     16  C   UNL     1       9.425  12.942   3.891  0.00  0.00    +0.000 C 
BRANCH  15  17
ATOM     17  O   UNL     1      10.546  10.851   4.168  0.00  0.00    +0.000 OA
ATOM     18  H   UNL     1      10.664  11.219   3.269  0.00  0.00    +0.000 HD
ENDBRANCH  15  17
ENDBRANCH  14  15
ENDBRANCH   1  14
TORSDOF 7
ENDMDL
