MODEL 1
REMARK VINA RESULT:    -4.007      0.000      0.000
REMARK INTER + INTRA:          -4.405
REMARK INTER:                  -4.359
REMARK INTRA:                  -0.047
REMARK UNBOUND:                -0.047
REMARK  Name = 
REMARK  3 active torsions:
REMARK  status: ('A' for Active; 'I' for Inactive)
REMARK    1  A    between atoms: C_1  and  O_2
REMARK    2  A    between atoms: O_2  and  C_3
REMARK    3  A    between atoms: C_8  and  O_9
REMARK                            x       y       z     vdW  Elec       q    Type
REMARK                         _______ _______ _______ _____ _____    ______ ____
ROOT
ATOM      1  C   UNL     1      11.765   4.232   6.929  0.00  0.00    +0.000 A 
ATOM      2  C   UNL     1      10.880   4.691   7.904  0.00  0.00    +0.000 A 
ATOM      3  C   UNL     1      11.288   5.680   8.809  0.00  0.00    +0.000 A 
ATOM      4  C   UNL     1      12.578   6.211   8.743  0.00  0.00    +0.000 A 
ATOM      5  C   UNL     1      13.467   5.758   7.771  0.00  0.00    +0.000 A 
ATOM      6  C   UNL     1      13.054   4.777   6.878  0.00  0.00    +0.000 A 
ENDROOT
BRANCH   1   8
ATOM      7  C   UNL     1      10.641   3.653   4.917  0.00  0.00    +0.000 C 
ATOM      8  O   UNL     1      11.503   3.274   5.983  0.00  0.00    +0.000 OA
ENDBRANCH   1   8
BRANCH   6   9
ATOM      9  O   UNL     1      13.945   4.348   5.932  0.00  0.00    +0.000 OA
ATOM     10  H   UNL     1      14.380   5.162   5.612  0.00  0.00    +0.000 HD
ENDBRANCH   6   9
TORSDOF 2
ENDMDL
MODEL 2
REMARK VINA RESULT:    -3.911      2.017      3.477
REMARK INTER + INTRA:          -4.301
REMARK INTER:                  -4.261
REMARK INTRA:                  -0.040
REMARK UNBOUND:                -0.047
REMARK  Name = 
REMARK  3 active torsions:
REMARK  status: ('A' for Active; 'I' for Inactive)
REMARK    1  A    between atoms: C_1  and  O_2
REMARK    2  A    between atoms: O_2  and  C_3
REMARK    3  A    between atoms: C_8  and  O_9
REMARK                            x       y       z     vdW  Elec       q    Type
REMARK                         _______ _______ _______ _____ _____    ______ ____
ROOT
ATOM      1  C   UNL     1      13.433   5.950   6.789  0.00  0.00    +0.000 A 
ATOM      2  C   UNL     1      14.366   5.198   7.502  0.00  0.00    +0.000 A 
ATOM      3  C   UNL     1      13.947   4.093   8.254  0.00  0.00    +0.000 A 
ATOM      4  C   UNL     1      12.597   3.737   8.297  0.00  0.00    +0.000 A 
ATOM      5  C   UNL     1      11.659   4.483   7.587  0.00  0.00    +0.000 A 
ATOM      6  C   UNL     1      12.084   5.577   6.844  0.00  0.00    +0.000 A 
ENDROOT
BRANCH   1   8
ATOM      7  C   UNL     1      14.885   7.773   6.327  0.00  0.00    +0.000 C 
ATOM      8  O   UNL     1      13.699   7.051   6.016  0.00  0.00    +0.000 OA
ENDBRANCH   1   8
BRANCH   6   9
ATOM      9  O   UNL     1      11.143   6.295   6.155  0.00  0.00    +0.000 OA
ATOM     10  H   UNL     1      10.498   5.630   5.849  0.00  0.00    +0.000 HD
ENDBRANCH   6   9
TORSDOF 2
ENDMDL
MODEL 3
REMARK VINA RESULT:    -3.886      1.302      2.856
REMARK INTER + INTRA:          -4.274
REMARK INTER:                  -4.227
REMARK INTRA:                  -0.046
REMARK UNBOUND:                -0.047
REMARK  Name = 
REMARK  3 active torsions:
REMARK  status: ('A' for Active; 'I' for Inactive)
REMARK    1  A    between atoms: C_1  and  O_2
REMARK    2  A    between atoms: O_2  and  C_3
REMARK    3  A    between atoms: C_8  and  O_9
REMARK                            x       y       z     vdW  Elec       q    Type
REMARK                         _______ _______ _______ _____ _____    ______ ____
ROOT
ATOM      1  C   UNL     1      13.167   5.670   6.996  0.00  0.00    +0.000 A 
ATOM      2  C   UNL     1      13.014   6.088   8.317  0.00  0.00    +0.000 A 
ATOM      3  C   UNL     1      11.904   5.666   9.060  0.00  0.00    +0.000 A 
ATOM      4  C   UNL     1      10.945   4.829   8.487  0.00  0.00    +0.000 A 
ATOM      5  C   UNL     1      11.091   4.407   7.167  0.00  0.00    +0.000 A 
ATOM      6  C   UNL     1      12.195   4.830   6.438  0.00  0.00    +0.000 A 
ENDROOT
BRANCH   1   8
ATOM      7  C   UNL     1      14.581   7.373   6.130  0.00  0.00    +0.000 C 
ATOM      8  O   UNL     1      14.198   6.003   6.154  0.00  0.00    +0.000 OA
ENDBRANCH   1   8
BRANCH   6   9
ATOM      9  O   UNL     1      12.317   4.403   5.143  0.00  0.00    +0.000 OA
ATOM     10  H   UNL     1      11.728   4.990   4.631  0.00  0.00    +0.000 HD
ENDBRANCH   6   9
TORSDOF 2
ENDMDL
MODEL 4
REMARK VINA RESULT:    -3.875      1.510      2.074
REMARK INTER + INTRA:          -4.262
REMARK INTER:                  -4.306
REMARK INTRA:                   0.044
REMARK UNBOUND:                -0.047
REMARK  Name = 
REMARK  3 active torsions:
REMARK  status: ('A' for Active; 'I' for Inactive)
REMARK    1  A    between atoms: C_1  and  O_2
REMARK    2  A    between atoms: O_2  and  C_3
REMARK    3  A    between atoms: C_8  and  O_9
REMARK                            x       y       z     vdW  Elec       q    Type
REMARK                         _______ _______ _______ _____ _____    ______ ____
ROOT
ATOM      1  C   UNL     1      11.726   4.301   7.528  0.00  0.00    +0.000 A 
ATOM      2  C   UNL     1      11.817   3.642   8.754  0.00  0.00    +0.000 A 
ATOM      3  C   UNL     1      11.341   4.259   9.917  0.00  0.00    +0.000 A 
ATOM      4  C   UNL     1      10.774   5.534   9.861  0.00  0.00    +0.000 A 
ATOM      5  C   UNL     1      10.678   6.198   8.640  0.00  0.00    +0.000 A 
ATOM      6  C   UNL     1      11.154   5.578   7.491  0.00  0.00    +0.000 A 
ENDROOT
BRANCH   1   8
ATOM      7  C   UNL     1      11.208   3.057   5.571  0.00  0.00    +0.000 C 
ATOM      8  O   UNL     1      12.150   3.820   6.315  0.00  0.00    +0.000 OA
ENDBRANCH   1   8
BRANCH   6   9
ATOM      9  O   UNL     1      11.049   6.251   6.303  0.00  0.00    +0.000 OA
ATOM     10  H   UNL     1      10.108   6.175   6.057  0.00  0.00    +0.000 HD
ENDBRANCH   6   9
TORSDOF 2
ENDMDL
MODEL 5
REMARK VINA RESULT:    -3.737      2.203      3.282
REMARK INTER + INTRA:          -4.112
REMARK INTER:                  -4.066
REMARK INTRA:                  -0.046
REMARK UNBOUND:                -0.047
REMARK  Name = 
REMARK  3 active torsions:
REMARK  status: ('A' for Active; 'I' for Inactive)
REMARK    1  A    between atoms: C_1  and  O_2
REMARK    2  A    between atoms: O_2  and  C_3
REMARK    3  A    between atoms: C_8  and  O_9
REMARK                            x       y       z     vdW  Elec       q    Type
REMARK                         _______ _______ _______ _____ _____    ______ ____
ROOT
ATOM      1  C   UNL     1      14.296   5.635   6.789  0.00  0.00    +0.000 A 
ATOM      2  C   UNL     1      14.930   5.080   7.900  0.00  0.00    +0.000 A 
ATOM      3  C   UNL     1      15.792   5.863   8.677  0.00  0.00    +0.000 A 
ATOM      4  C   UNL     1      16.025   7.199   8.348  0.00  0.00    +0.000 A 
ATOM      5  C   UNL     1      15.395   7.761   7.240  0.00  0.00    +0.000 A 
ATOM      6  C   UNL     1      14.541   6.977   6.475  0.00  0.00    +0.000 A 
ENDROOT
BRANCH   1   8
ATOM      7  C   UNL     1      12.452   4.155   6.550  0.00  0.00    +0.000 C 
ATOM      8  O   UNL     1      13.431   4.990   5.942  0.00  0.00    +0.000 OA
ENDBRANCH   1   8
BRANCH   6   9
ATOM      9  O   UNL     1      13.933   7.552   5.391  0.00  0.00    +0.000 OA
ATOM     10  H   UNL     1      13.419   8.296   5.759  0.00  0.00    +0.000 HD
ENDBRANCH   6   9
TORSDOF 2
ENDMDL
MODEL 6
REMARK VINA RESULT:    -3.731      1.817      2.595
REMARK INTER + INTRA:          -4.105
REMARK INTER:                  -4.052
REMARK INTRA:                  -0.052
REMARK UNBOUND:                -0.047
REMARK  Name = 
REMARK  3 active torsions:
REMARK  status: ('A' for Active; 'I' for Inactive)
REMARK    1  A    between atoms: C_1  and  O_2
REMARK    2  A    between atoms: O_2  and  C_3
REMARK    3  A    between atoms: C_8  and  O_9
REMARK                            x       y       z     vdW  Elec       q    Type
REMARK                         _______ _______ _______ _____ _____    ______ ____
ROOT
ATOM      1  C   UNL     1      12.936   5.085   7.237  0.00  0.00    +0.000 A 
ATOM      2  C   UNL     1      11.683   5.691   7.302  0.00  0.00    +0.000 A 
ATOM      3  C   UNL     1      10.802   5.367   8.342  0.00  0.00    +0.000 A 
ATOM      4  C   UNL     1      11.170   4.438   9.317  0.00  0.00    +0.000 A 
ATOM      5  C   UNL     1      12.421   3.829   9.259  0.00  0.00    +0.000 A 
ATOM      6  C   UNL     1      13.288   4.156   8.224  0.00  0.00    +0.000 A 
ENDROOT
BRANCH   1   8
ATOM      7  C   UNL     1      14.467   6.607   6.242  0.00  0.00    +0.000 C 
ATOM      8  O   UNL     1      13.895   5.305   6.280  0.00  0.00    +0.000 OA
ENDBRANCH   1   8
BRANCH   6   9
ATOM      9  O   UNL     1      14.512   3.544   8.188  0.00  0.00    +0.000 OA
ATOM     10  H   UNL     1      14.394   2.723   8.702  0.00  0.00    +0.000 HD
ENDBRANCH   6   9
TORSDOF 2
ENDMDL
MODEL 7
REMARK VINA RESULT:    -3.664      1.707      2.237
REMARK INTER + INTRA:          -4.032
REMARK INTER:                  -3.985
REMARK INTRA:                  -0.047
REMARK UNBOUND:                -0.047
REMARK  Name = 
REMARK  3 active torsions:
REMARK  status: ('A' for Active; 'I' for Inactive)
REMARK    1  A    between atoms: C_1  and  O_2
REMARK    2  A    between atoms: O_2  and  C_3
REMARK    3  A    between atoms: C_8  and  O_9
REMARK                            x       y       z     vdW  Elec       q    Type
REMARK                         _______ _______ _______ _____ _____    ______ ____
ROOT
ATOM      1  C   UNL     1      11.660   4.372   7.867  0.00  0.00    +0.000 A 
ATOM      2  C   UNL     1      10.936   5.562   7.918  0.00  0.00    +0.000 A 
ATOM      3  C   UNL     1      10.520   6.076   9.153  0.00  0.00    +0.000 A 
ATOM      4  C   UNL     1      10.825   5.404  10.338  0.00  0.00    +0.000 A 
ATOM      5  C   UNL     1      11.549   4.215  10.296  0.00  0.00    +0.000 A 
ATOM      6  C   UNL     1      11.957   3.712   9.066  0.00  0.00    +0.000 A 
ENDROOT
BRANCH   1   8
ATOM      7  C   UNL     1      11.212   3.632   5.654  0.00  0.00    +0.000 C 
ATOM      8  O   UNL     1      12.129   3.755   6.735  0.00  0.00    +0.000 OA
ENDBRANCH   1   8
BRANCH   6   9
ATOM      9  O   UNL     1      12.667   2.541   9.050  0.00  0.00    +0.000 OA
ATOM     10  H   UNL     1      11.990   1.841   8.990  0.00  0.00    +0.000 HD
ENDBRANCH   6   9
TORSDOF 2
ENDMDL
MODEL 8
REMARK VINA RESULT:    -3.641      1.909      3.006
REMARK INTER + INTRA:          -4.007
REMARK INTER:                  -3.970
REMARK INTRA:                  -0.038
REMARK UNBOUND:                -0.047
REMARK  Name = 
REMARK  3 active torsions:
REMARK  status: ('A' for Active; 'I' for Inactive)
REMARK    1  A    between atoms: C_1  and  O_2
REMARK    2  A    between atoms: O_2  and  C_3
REMARK    3  A    between atoms: C_8  and  O_9
REMARK                            x       y       z     vdW  Elec       q    Type
REMARK                         _______ _______ _______ _____ _____    ______ ____
ROOT
ATOM      1  C   UNL     1      12.439   5.654   8.050  0.00  0.00    +0.000 A 
ATOM      2  C   UNL     1      13.261   6.289   8.981  0.00  0.00    +0.000 A 
ATOM      3  C   UNL     1      12.736   6.697  10.214  0.00  0.00    +0.000 A 
ATOM      4  C   UNL     1      11.393   6.473  10.520  0.00  0.00    +0.000 A 
ATOM      5  C   UNL     1      10.566   5.839   9.596  0.00  0.00    +0.000 A 
ATOM      6  C   UNL     1      11.094   5.438   8.375  0.00  0.00    +0.000 A 
ENDROOT
BRANCH   1   8
ATOM      7  C   UNL     1      14.117   5.571   6.370  0.00  0.00    +0.000 C 
ATOM      8  O   UNL     1      12.815   5.204   6.810  0.00  0.00    +0.000 OA
ENDBRANCH   1   8
BRANCH   6   9
ATOM      9  O   UNL     1      10.262   4.817   7.483  0.00  0.00    +0.000 OA
ATOM     10  H   UNL     1       9.376   5.177   7.678  0.00  0.00    +0.000 HD
ENDBRANCH   6   9
TORSDOF 2
ENDMDL
MODEL 9
REMARK VINA RESULT:    -3.577      1.244      3.135
REMARK INTER + INTRA:          -3.937
REMARK INTER:                  -3.890
REMARK INTRA:                  -0.047
REMARK UNBOUND:                -0.047
REMARK  Name = 
REMARK  3 active torsions:
REMARK  status: ('A' for Active; 'I' for Inactive)
REMARK    1  A    between atoms: C_1  and  O_2
REMARK    2  A    between atoms: O_2  and  C_3
REMARK    3  A    between atoms: C_8  and  O_9
REMARK                            x       y       z     vdW  Elec       q    Type
REMARK                         _______ _______ _______ _____ _____    ______ ____
ROOT
ATOM      1  C   UNL     1      13.504   5.622   7.614  0.00  0.00    +0.000 A 
ATOM      2  C   UNL     1      12.514   5.934   8.545  0.00  0.00    +0.000 A 
ATOM      3  C   UNL     1      11.229   5.393   8.407  0.00  0.00    +0.000 A 
ATOM      4  C   UNL     1      10.931   4.541   7.341  0.00  0.00    +0.000 A 
ATOM      5  C   UNL     1      11.915   4.225   6.408  0.00  0.00    +0.000 A 
ATOM      6  C   UNL     1      13.186   4.766   6.553  0.00  0.00    +0.000 A 
ENDROOT
BRANCH   1   8
ATOM      7  C   UNL     1      15.657   5.528   8.616  0.00  0.00    +0.000 C 
ATOM      8  O   UNL     1      14.798   6.077   7.624  0.00  0.00    +0.000 OA
ENDBRANCH   1   8
BRANCH   6   9
ATOM      9  O   UNL     1      14.137   4.441   5.623  0.00  0.00    +0.000 OA
ATOM     10  H   UNL     1      14.468   3.566   5.901  0.00  0.00    +0.000 HD
ENDBRANCH   6   9
TORSDOF 2
ENDMDL
