MODEL 1
REMARK VINA RESULT:    -4.003      0.000      0.000
REMARK INTER + INTRA:          -6.000
REMARK INTER:                  -5.407
REMARK INTRA:                  -0.593
REMARK UNBOUND:                -0.593
REMARK  Name = 
REMARK  10 active torsions:
REMARK  status: ('A' for Active; 'I' for Inactive)
REMARK    1  A    between atoms: C_1  and  C_2
REMARK    2  A    between atoms: C_5  and  N_8
REMARK    3  A    between atoms: N_8  and  C_9
REMARK    4  A    between atoms: N_8  and  C_13
REMARK    5  A    between atoms: C_9  and  C_10
REMARK    6  A    between atoms: C_10  and  C_11
REMARK    7  A    between atoms: C_10  and  O_12
REMARK    8  A    between atoms: C_13  and  C_14
REMARK    9  A    between atoms: C_14  and  C_15
REMARK   10  A    between atoms: C_14  and  O_16
REMARK                            x       y       z     vdW  Elec       q    Type
REMARK                         _______ _______ _______ _____ _____    ______ ____
ROOT
ATOM      1  N   UNL     1      11.657  17.759   3.184  0.00  0.00    +0.000 N 
ENDROOT
BRANCH   1   6
ATOM      2  C   UNL     1      17.418  17.387   3.174  0.00  0.00    +0.000 C 
ATOM      3  C   UNL     1      15.925  17.499   3.157  0.00  0.00    +0.000 A 
ATOM      4  C   UNL     1      15.271  18.461   3.921  0.00  0.00    +0.000 A 
ATOM      5  C   UNL     1      13.869  18.541   3.925  0.00  0.00    +0.000 A 
ATOM      6  C   UNL     1      13.054  17.660   3.191  0.00  0.00    +0.000 A 
ATOM      7  C   UNL     1      13.748  16.703   2.429  0.00  0.00    +0.000 A 
ATOM      8  C   UNL     1      15.150  16.612   2.415  0.00  0.00    +0.000 A 
ENDBRANCH   1   6
BRANCH   1   9
ATOM      9  C   UNL     1      10.871  17.101   2.113  0.00  0.00    +0.000 C 
BRANCH   9  10
ATOM     10  C   UNL     1      10.213  18.114   1.144  0.00  0.00    +0.000 C 
ATOM     11  C   UNL     1      10.902  18.094  -0.215  0.00  0.00    +0.000 C 
BRANCH  10  12
ATOM     12  O   UNL     1       8.826  17.807   0.943  0.00  0.00    +0.000 OA
ATOM     13  H   UNL     1       8.657  17.787  -0.014  0.00  0.00    +0.000 HD
ENDBRANCH  10  12
ENDBRANCH   9  10
ENDBRANCH   1   9
BRANCH   1  14
ATOM     14  C   UNL     1      10.962  18.877   3.872  0.00  0.00    +0.000 C 
BRANCH  14  15
ATOM     15  C   UNL     1       9.718  18.396   4.658  0.00  0.00    +0.000 C 
ATOM     16  C   UNL     1       9.700  18.875   6.104  0.00  0.00    +0.000 C 
BRANCH  15  17
ATOM     17  O   UNL     1       8.506  18.821   4.037  0.00  0.00    +0.000 OA
ATOM     18  H   UNL     1       7.812  18.673   4.710  0.00  0.00    +0.000 HD
ENDBRANCH  15  17
ENDBRANCH  14  15
ENDBRANCH   1  14
TORSDOF 7
ENDMDL
MODEL 2
REMARK VINA RESULT:    -3.972      9.671     11.632
REMARK INTER + INTRA:          -5.958
REMARK INTER:                  -5.372
REMARK INTRA:                  -0.587
REMARK UNBOUND:                -0.593
REMARK  Name = 
REMARK  10 active torsions:
REMARK  status: ('A' for Active; 'I' for Inactive)
REMARK    1  A    between atoms: C_1  and  C_2
REMARK    2  A    between atoms: C_5  and  N_8
REMARK    3  A    between atoms: N_8  and  C_9
REMARK    4  A    between atoms: N_8  and  C_13
REMARK    5  A    between atoms: C_9  and  C_10
REMARK    6  A    between atoms: C_10  and  C_11
REMARK    7  A    between atoms: C_10  and  O_12
REMARK    8  A    between atoms: C_13  and  C_14
REMARK    9  A    between atoms: C_14  and  C_15
REMARK   10  A    between atoms: C_14  and  O_16
REMARK                            x       y       z     vdW  Elec       q    Type
REMARK                         _______ _______ _______ _____ _____    ______ ____
ROOT
ATOM      1  N   UNL     1      17.088   9.310   6.543  0.00  0.00    +0.000 N 
ENDROOT
BRANCH   1   6
ATOM      2  C   UNL     1      11.323   9.240   6.256  0.00  0.00    +0.000 C 
ATOM      3  C   UNL     1      12.817   9.267   6.354  0.00  0.00    +0.000 A 
ATOM      4  C   UNL     1      13.540  10.380   5.939  0.00  0.00    +0.000 A 
ATOM      5  C   UNL     1      14.943  10.389   6.005  0.00  0.00    +0.000 A 
ATOM      6  C   UNL     1      15.690   9.288   6.462  0.00  0.00    +0.000 A 
ATOM      7  C   UNL     1      14.926   8.181   6.875  0.00  0.00    +0.000 A 
ATOM      8  C   UNL     1      13.523   8.160   6.816  0.00  0.00    +0.000 A 
ENDBRANCH   1   6
BRANCH   1   9
ATOM      9  C   UNL     1      17.821   8.136   7.075  0.00  0.00    +0.000 C 
BRANCH   9  10
ATOM     10  C   UNL     1      18.694   7.438   6.003  0.00  0.00    +0.000 C 
ATOM     11  C   UNL     1      19.409   6.226   6.588  0.00  0.00    +0.000 C 
BRANCH  10  12
ATOM     12  O   UNL     1      17.894   6.991   4.899  0.00  0.00    +0.000 OA
ATOM     13  H   UNL     1      18.408   6.334   4.401  0.00  0.00    +0.000 HD
ENDBRANCH  10  12
ENDBRANCH   9  10
ENDBRANCH   1   9
BRANCH   1  14
ATOM     14  C   UNL     1      17.834  10.593   6.608  0.00  0.00    +0.000 C 
BRANCH  14  15
ATOM     15  C   UNL     1      18.513  10.943   5.262  0.00  0.00    +0.000 C 
ATOM     16  C   UNL     1      20.033  10.844   5.313  0.00  0.00    +0.000 C 
BRANCH  15  17
ATOM     17  O   UNL     1      18.050  10.104   4.204  0.00  0.00    +0.000 OA
ATOM     18  H   UNL     1      18.226   9.192   4.511  0.00  0.00    +0.000 HD
ENDBRANCH  15  17
ENDBRANCH  14  15
ENDBRANCH   1  14
TORSDOF 7
ENDMDL
MODEL 3
REMARK VINA RESULT:    -3.945      0.754      3.339
REMARK INTER + INTRA:          -5.922
REMARK INTER:                  -5.345
REMARK INTRA:                  -0.577
REMARK UNBOUND:                -0.593
REMARK  Name = 
REMARK  10 active torsions:
REMARK  status: ('A' for Active; 'I' for Inactive)
REMARK    1  A    between atoms: C_1  and  C_2
REMARK    2  A    between atoms: C_5  and  N_8
REMARK    3  A    between atoms: N_8  and  C_9
REMARK    4  A    between atoms: N_8  and  C_13
REMARK    5  A    between atoms: C_9  and  C_10
REMARK    6  A    between atoms: C_10  and  C_11
REMARK    7  A    between atoms: C_10  and  O_12
REMARK    8  A    between atoms: C_13  and  C_14
REMARK    9  A    between atoms: C_14  and  C_15
REMARK   10  A    between atoms: C_14  and  O_16
REMARK                            x       y       z     vdW  Elec       q    Type
REMARK                         _______ _______ _______ _____ _____    ______ ____
ROOT
ATOM      1  N   UNL     1      11.505  18.043   3.262  0.00  0.00    +0.000 N 
ENDROOT
BRANCH   1   6
ATOM      2  C   UNL     1      16.991  16.293   3.684  0.00  0.00    +0.000 C 
ATOM      3  C   UNL     1      15.560  16.724   3.581  0.00  0.00    +0.000 A 
ATOM      4  C   UNL     1      14.876  16.649   2.372  0.00  0.00    +0.000 A 
ATOM      5  C   UNL     1      13.544  17.083   2.274  0.00  0.00    +0.000 A 
ATOM      6  C   UNL     1      12.840  17.631   3.361  0.00  0.00    +0.000 A 
ATOM      7  C   UNL     1      13.561  17.690   4.568  0.00  0.00    +0.000 A 
ATOM      8  C   UNL     1      14.893  17.257   4.680  0.00  0.00    +0.000 A 
ENDBRANCH   1   6
BRANCH   1   9
ATOM      9  C   UNL     1      10.903  18.877   4.330  0.00  0.00    +0.000 C 
BRANCH   9  10
ATOM     10  C   UNL     1       9.805  18.131   5.126  0.00  0.00    +0.000 C 
ATOM     11  C   UNL     1      10.093  18.172   6.622  0.00  0.00    +0.000 C 
BRANCH  10  12
ATOM     12  O   UNL     1       8.517  18.722   4.905  0.00  0.00    +0.000 OA
ATOM     13  H   UNL     1       7.853  18.177   5.359  0.00  0.00    +0.000 HD
ENDBRANCH  10  12
ENDBRANCH   9  10
ENDBRANCH   1   9
BRANCH   1  14
ATOM     14  C   UNL     1      10.529  17.294   2.429  0.00  0.00    +0.000 C 
BRANCH  14  15
ATOM     15  C   UNL     1       9.938  18.166   1.296  0.00  0.00    +0.000 C 
ATOM     16  C   UNL     1      10.801  18.183   0.039  0.00  0.00    +0.000 C 
BRANCH  15  17
ATOM     17  O   UNL     1       8.629  17.735   0.926  0.00  0.00    +0.000 OA
ATOM     18  H   UNL     1       8.710  17.450  -0.006  0.00  0.00    +0.000 HD
ENDBRANCH  15  17
ENDBRANCH  14  15
ENDBRANCH   1  14
TORSDOF 7
ENDMDL
MODEL 4
REMARK VINA RESULT:    -3.938      9.384     11.294
REMARK INTER + INTRA:          -5.913
REMARK INTER:                  -5.446
REMARK INTRA:                  -0.468
REMARK UNBOUND:                -0.593
REMARK  Name = 
REMARK  10 active torsions:
REMARK  status: ('A' for Active; 'I' for Inactive)
REMARK    1  A    between atoms: C_1  and  C_2
REMARK    2  A    between atoms: C_5  and  N_8
REMARK    3  A    between atoms: N_8  and  C_9
REMARK    4  A    between atoms: N_8  and  C_13
REMARK    5  A    between atoms: C_9  and  C_10
REMARK    6  A    between atoms: C_10  and  C_11
REMARK    7  A    between atoms: C_10  and  O_12
REMARK    8  A    between atoms: C_13  and  C_14
REMARK    9  A    between atoms: C_14  and  C_15
REMARK   10  A    between atoms: C_14  and  O_16
REMARK                            x       y       z     vdW  Elec       q    Type
REMARK                         _______ _______ _______ _____ _____    ______ ____
ROOT
ATOM      1  N   UNL     1      16.284   9.275   6.351  0.00  0.00    +0.000 N 
ENDROOT
BRANCH   1   6
ATOM      2  C   UNL     1      10.539   9.482   6.884  0.00  0.00    +0.000 C 
ATOM      3  C   UNL     1      12.032   9.435   6.770  0.00  0.00    +0.000 A 
ATOM      4  C   UNL     1      12.753  10.552   6.362  0.00  0.00    +0.000 A 
ATOM      5  C   UNL     1      14.150  10.493   6.227  0.00  0.00    +0.000 A 
ATOM      6  C   UNL     1      14.889   9.321   6.468  0.00  0.00    +0.000 A 
ATOM      7  C   UNL     1      14.128   8.212   6.881  0.00  0.00    +0.000 A 
ATOM      8  C   UNL     1      12.731   8.258   7.022  0.00  0.00    +0.000 A 
ENDBRANCH   1   6
BRANCH   1   9
ATOM      9  C   UNL     1      16.983  10.192   5.419  0.00  0.00    +0.000 C 
BRANCH   9  10
ATOM     10  C   UNL     1      17.742  11.326   6.149  0.00  0.00    +0.000 C 
ATOM     11  C   UNL     1      19.225  11.304   5.796  0.00  0.00    +0.000 C 
BRANCH  10  12
ATOM     12  O   UNL     1      17.219  12.612   5.789  0.00  0.00    +0.000 OA
ATOM     13  H   UNL     1      16.413  12.473   5.265  0.00  0.00    +0.000 HD
ENDBRANCH  10  12
ENDBRANCH   9  10
ENDBRANCH   1   9
BRANCH   1  14
ATOM     14  C   UNL     1      17.046   8.051   6.711  0.00  0.00    +0.000 C 
BRANCH  14  15
ATOM     15  C   UNL     1      18.119   7.699   5.653  0.00  0.00    +0.000 C 
ATOM     16  C   UNL     1      19.293   6.915   6.227  0.00  0.00    +0.000 C 
BRANCH  15  17
ATOM     17  O   UNL     1      17.568   6.943   4.575  0.00  0.00    +0.000 OA
ATOM     18  H   UNL     1      16.994   6.276   5.002  0.00  0.00    +0.000 HD
ENDBRANCH  15  17
ENDBRANCH  14  15
ENDBRANCH   1  14
TORSDOF 7
ENDMDL
MODEL 5
REMARK VINA RESULT:    -3.806      8.193      9.102
REMARK INTER + INTRA:          -5.734
REMARK INTER:                  -5.301
REMARK INTRA:                  -0.433
REMARK UNBOUND:                -0.593
REMARK  Name = 
REMARK  10 active torsions:
REMARK  status: ('A' for Active; 'I' for Inactive)
REMARK    1  A    between atoms: C_1  and  C_2
REMARK    2  A    between atoms: C_5  and  N_8
REMARK    3  A    between atoms: N_8  and  C_9
REMARK    4  A    between atoms: N_8  and  C_13
REMARK    5  A    between atoms: C_9  and  C_10
REMARK    6  A    between atoms: C_10  and  C_11
REMARK    7  A    between atoms: C_10  and  O_12
REMARK    8  A    between atoms: C_13  and  C_14
REMARK    9  A    between atoms: C_14  and  C_15
REMARK   10  A    between atoms: C_14  and  O_16
REMARK                            x       y       z     vdW  Elec       q    Type
REMARK                         _______ _______ _______ _____ _____    ______ ____
ROOT
ATOM      1  N   UNL     1      11.205   9.776   6.087  0.00  0.00    +0.000 N 
ENDROOT
BRANCH   1   6
ATOM      2  C   UNL     1      16.675   8.137   6.935  0.00  0.00    +0.000 C 
ATOM      3  C   UNL     1      15.256   8.574   6.737  0.00  0.00    +0.000 A 
ATOM      4  C   UNL     1      14.197   7.763   7.131  0.00  0.00    +0.000 A 
ATOM      5  C   UNL     1      12.869   8.164   6.916  0.00  0.00    +0.000 A 
ATOM      6  C   UNL     1      12.532   9.373   6.281  0.00  0.00    +0.000 A 
ATOM      7  C   UNL     1      13.628  10.169   5.898  0.00  0.00    +0.000 A 
ATOM      8  C   UNL     1      14.961   9.781   6.110  0.00  0.00    +0.000 A 
ENDBRANCH   1   6
BRANCH   1   9
ATOM      9  C   UNL     1      10.321  10.009   7.255  0.00  0.00    +0.000 C 
BRANCH   9  10
ATOM     10  C   UNL     1       9.701  11.428   7.265  0.00  0.00    +0.000 C 
ATOM     11  C   UNL     1      10.784  12.496   7.158  0.00  0.00    +0.000 C 
BRANCH  10  12
ATOM     12  O   UNL     1       8.796  11.602   6.166  0.00  0.00    +0.000 OA
ATOM     13  H   UNL     1       8.370  10.747   5.988  0.00  0.00    +0.000 HD
ENDBRANCH  10  12
ENDBRANCH   9  10
ENDBRANCH   1   9
BRANCH   1  14
ATOM     14  C   UNL     1      10.496   9.499   4.812  0.00  0.00    +0.000 C 
BRANCH  14  15
ATOM     15  C   UNL     1      10.867  10.514   3.704  0.00  0.00    +0.000 C 
ATOM     16  C   UNL     1      11.679   9.896   2.572  0.00  0.00    +0.000 C 
BRANCH  15  17
ATOM     17  O   UNL     1       9.707  11.121   3.136  0.00  0.00    +0.000 OA
ATOM     18  H   UNL     1       9.951  12.059   3.006  0.00  0.00    +0.000 HD
ENDBRANCH  15  17
ENDBRANCH  14  15
ENDBRANCH   1  14
TORSDOF 7
ENDMDL
MODEL 6
REMARK VINA RESULT:    -3.651      8.256      8.711
REMARK INTER + INTRA:          -5.525
REMARK INTER:                  -5.390
REMARK INTRA:                  -0.135
REMARK UNBOUND:                -0.593
REMARK  Name = 
REMARK  10 active torsions:
REMARK  status: ('A' for Active; 'I' for Inactive)
REMARK    1  A    between atoms: C_1  and  C_2
REMARK    2  A    between atoms: C_5  and  N_8
REMARK    3  A    between atoms: N_8  and  C_9
REMARK    4  A    between atoms: N_8  and  C_13
REMARK    5  A    between atoms: C_9  and  C_10
REMARK    6  A    between atoms: C_10  and  C_11
REMARK    7  A    between atoms: C_10  and  O_12
REMARK    8  A    between atoms: C_13  and  C_14
REMARK    9  A    between atoms: C_14  and  C_15
REMARK   10  A    between atoms: C_14  and  O_16
REMARK                            x       y       z     vdW  Elec       q    Type
REMARK                         _______ _______ _______ _____ _____    ______ ____
ROOT
ATOM      1  N   UNL     1      11.925   9.906   6.010  0.00  0.00    +0.000 N 
ENDROOT
BRANCH   1   6
ATOM      2  C   UNL     1      17.366   8.103   6.696  0.00  0.00    +0.000 C 
ATOM      3  C   UNL     1      15.954   8.561   6.495  0.00  0.00    +0.000 A 
ATOM      4  C   UNL     1      15.678   9.819   5.970  0.00  0.00    +0.000 A 
ATOM      5  C   UNL     1      14.353  10.254   5.812  0.00  0.00    +0.000 A 
ATOM      6  C   UNL     1      13.245   9.473   6.188  0.00  0.00    +0.000 A 
ATOM      7  C   UNL     1      13.561   8.207   6.713  0.00  0.00    +0.000 A 
ATOM      8  C   UNL     1      14.882   7.758   6.875  0.00  0.00    +0.000 A 
ENDBRANCH   1   6
BRANCH   1   9
ATOM      9  C   UNL     1      11.157   9.477   4.816  0.00  0.00    +0.000 C 
BRANCH   9  10
ATOM     10  C   UNL     1      11.242  10.494   3.651  0.00  0.00    +0.000 C 
ATOM     11  C   UNL     1      11.907   9.870   2.430  0.00  0.00    +0.000 C 
BRANCH  10  12
ATOM     12  O   UNL     1       9.936  10.944   3.264  0.00  0.00    +0.000 OA
ATOM     13  H   UNL     1       9.587  11.506   3.976  0.00  0.00    +0.000 HD
ENDBRANCH  10  12
ENDBRANCH   9  10
ENDBRANCH   1   9
BRANCH   1  14
ATOM     14  C   UNL     1      11.427  11.145   6.660  0.00  0.00    +0.000 C 
BRANCH  14  15
ATOM     15  C   UNL     1      10.014  10.961   7.264  0.00  0.00    +0.000 C 
ATOM     16  C   UNL     1       8.942  11.765   6.537  0.00  0.00    +0.000 C 
BRANCH  15  17
ATOM     17  O   UNL     1       9.616   9.592   7.265  0.00  0.00    +0.000 OA
ATOM     18  H   UNL     1      10.058   9.200   8.045  0.00  0.00    +0.000 HD
ENDBRANCH  15  17
ENDBRANCH  14  15
ENDBRANCH   1  14
TORSDOF 7
ENDMDL
MODEL 7
REMARK VINA RESULT:    -3.639      7.447      9.592
REMARK INTER + INTRA:          -5.509
REMARK INTER:                  -4.986
REMARK INTRA:                  -0.522
REMARK UNBOUND:                -0.593
REMARK  Name = 
REMARK  10 active torsions:
REMARK  status: ('A' for Active; 'I' for Inactive)
REMARK    1  A    between atoms: C_1  and  C_2
REMARK    2  A    between atoms: C_5  and  N_8
REMARK    3  A    between atoms: N_8  and  C_9
REMARK    4  A    between atoms: N_8  and  C_13
REMARK    5  A    between atoms: C_9  and  C_10
REMARK    6  A    between atoms: C_10  and  C_11
REMARK    7  A    between atoms: C_10  and  O_12
REMARK    8  A    between atoms: C_13  and  C_14
REMARK    9  A    between atoms: C_14  and  C_15
REMARK   10  A    between atoms: C_14  and  O_16
REMARK                            x       y       z     vdW  Elec       q    Type
REMARK                         _______ _______ _______ _____ _____    ______ ____
ROOT
ATOM      1  N   UNL     1      19.430  12.988   4.787  0.00  0.00    +0.000 N 
ENDROOT
BRANCH   1   6
ATOM      2  C   UNL     1      19.490  17.278   0.923  0.00  0.00    +0.000 C 
ATOM      3  C   UNL     1      19.486  16.179   1.942  0.00  0.00    +0.000 A 
ATOM      4  C   UNL     1      20.520  15.251   1.995  0.00  0.00    +0.000 A 
ATOM      5  C   UNL     1      20.496  14.205   2.933  0.00  0.00    +0.000 A 
ATOM      6  C   UNL     1      19.438  14.021   3.841  0.00  0.00    +0.000 A 
ATOM      7  C   UNL     1      18.411  14.980   3.760  0.00  0.00    +0.000 A 
ATOM      8  C   UNL     1      18.424  16.031   2.829  0.00  0.00    +0.000 A 
ENDBRANCH   1   6
BRANCH   1   9
ATOM      9  C   UNL     1      18.148  12.518   5.363  0.00  0.00    +0.000 C 
BRANCH   9  10
ATOM     10  C   UNL     1      17.577  11.281   4.628  0.00  0.00    +0.000 C 
ATOM     11  C   UNL     1      16.572  10.542   5.504  0.00  0.00    +0.000 C 
BRANCH  10  12
ATOM     12  O   UNL     1      16.912  11.663   3.416  0.00  0.00    +0.000 OA
ATOM     13  H   UNL     1      16.009  11.942   3.642  0.00  0.00    +0.000 HD
ENDBRANCH  10  12
ENDBRANCH   9  10
ENDBRANCH   1   9
BRANCH   1  14
ATOM     14  C   UNL     1      20.631  12.688   5.608  0.00  0.00    +0.000 C 
BRANCH  14  15
ATOM     15  C   UNL     1      21.268  11.327   5.236  0.00  0.00    +0.000 C 
ATOM     16  C   UNL     1      20.825  10.189   6.147  0.00  0.00    +0.000 C 
BRANCH  15  17
ATOM     17  O   UNL     1      20.972  10.957   3.890  0.00  0.00    +0.000 OA
ATOM     18  H   UNL     1      20.005  10.806   3.876  0.00  0.00    +0.000 HD
ENDBRANCH  15  17
ENDBRANCH  14  15
ENDBRANCH   1  14
TORSDOF 7
ENDMDL
MODEL 8
REMARK VINA RESULT:    -3.517      1.978      3.431
REMARK INTER + INTRA:          -5.343
REMARK INTER:                  -4.980
REMARK INTRA:                  -0.363
REMARK UNBOUND:                -0.593
REMARK  Name = 
REMARK  10 active torsions:
REMARK  status: ('A' for Active; 'I' for Inactive)
REMARK    1  A    between atoms: C_1  and  C_2
REMARK    2  A    between atoms: C_5  and  N_8
REMARK    3  A    between atoms: N_8  and  C_9
REMARK    4  A    between atoms: N_8  and  C_13
REMARK    5  A    between atoms: C_9  and  C_10
REMARK    6  A    between atoms: C_10  and  C_11
REMARK    7  A    between atoms: C_10  and  O_12
REMARK    8  A    between atoms: C_13  and  C_14
REMARK    9  A    between atoms: C_14  and  C_15
REMARK   10  A    between atoms: C_14  and  O_16
REMARK                            x       y       z     vdW  Elec       q    Type
REMARK                         _______ _______ _______ _____ _____    ______ ____
ROOT
ATOM      1  N   UNL     1      13.001  18.503   2.823  0.00  0.00    +0.000 N 
ENDROOT
BRANCH   1   6
ATOM      2  C   UNL     1      18.444  16.589   2.625  0.00  0.00    +0.000 C 
ATOM      3  C   UNL     1      17.033  17.091   2.652  0.00  0.00    +0.000 A 
ATOM      4  C   UNL     1      16.753  18.418   2.960  0.00  0.00    +0.000 A 
ATOM      5  C   UNL     1      15.426  18.876   3.014  0.00  0.00    +0.000 A 
ATOM      6  C   UNL     1      14.321  18.035   2.787  0.00  0.00    +0.000 A 
ATOM      7  C   UNL     1      14.642  16.701   2.476  0.00  0.00    +0.000 A 
ATOM      8  C   UNL     1      15.964  16.231   2.417  0.00  0.00    +0.000 A 
ENDBRANCH   1   6
BRANCH   1   9
ATOM      9  C   UNL     1      12.305  18.665   4.122  0.00  0.00    +0.000 C 
BRANCH   9  10
ATOM     10  C   UNL     1      12.841  17.707   5.214  0.00  0.00    +0.000 C 
ATOM     11  C   UNL     1      12.529  18.239   6.607  0.00  0.00    +0.000 C 
BRANCH  10  12
ATOM     12  O   UNL     1      12.250  16.405   5.093  0.00  0.00    +0.000 OA
ATOM     13  H   UNL     1      12.928  15.745   5.310  0.00  0.00    +0.000 HD
ENDBRANCH  10  12
ENDBRANCH   9  10
ENDBRANCH   1   9
BRANCH   1  14
ATOM     14  C   UNL     1      12.105  18.365   1.647  0.00  0.00    +0.000 C 
BRANCH  14  15
ATOM     15  C   UNL     1      11.035  17.266   1.853  0.00  0.00    +0.000 C 
ATOM     16  C   UNL     1       9.612  17.812   1.881  0.00  0.00    +0.000 C 
BRANCH  15  17
ATOM     17  O   UNL     1      11.104  16.266   0.838  0.00  0.00    +0.000 OA
ATOM     18  H   UNL     1      11.969  16.407   0.403  0.00  0.00    +0.000 HD
ENDBRANCH  15  17
ENDBRANCH  14  15
ENDBRANCH   1  14
TORSDOF 7
ENDMDL
MODEL 9
REMARK VINA RESULT:    -3.444      3.180      6.088
REMARK INTER + INTRA:          -5.245
REMARK INTER:                  -4.793
REMARK INTRA:                  -0.453
REMARK UNBOUND:                -0.593
REMARK  Name = 
REMARK  10 active torsions:
REMARK  status: ('A' for Active; 'I' for Inactive)
REMARK    1  A    between atoms: C_1  and  C_2
REMARK    2  A    between atoms: C_5  and  N_8
REMARK    3  A    between atoms: N_8  and  C_9
REMARK    4  A    between atoms: N_8  and  C_13
REMARK    5  A    between atoms: C_9  and  C_10
REMARK    6  A    between atoms: C_10  and  C_11
REMARK    7  A    between atoms: C_10  and  O_12
REMARK    8  A    between atoms: C_13  and  C_14
REMARK    9  A    between atoms: C_14  and  C_15
REMARK   10  A    between atoms: C_14  and  O_16
REMARK                            x       y       z     vdW  Elec       q    Type
REMARK                         _______ _______ _______ _____ _____    ______ ____
ROOT
ATOM      1  N   UNL     1      14.437  17.192   3.664  0.00  0.00    +0.000 N 
ENDROOT
BRANCH   1   6
ATOM      2  C   UNL     1       9.019  18.057   1.866  0.00  0.00    +0.000 C 
ATOM      3  C   UNL     1      10.417  17.817   2.350  0.00  0.00    +0.000 A 
ATOM      4  C   UNL     1      10.990  18.639   3.314  0.00  0.00    +0.000 A 
ATOM      5  C   UNL     1      12.310  18.428   3.743  0.00  0.00    +0.000 A 
ATOM      6  C   UNL     1      13.127  17.410   3.218  0.00  0.00    +0.000 A 
ATOM      7  C   UNL     1      12.514  16.597   2.247  0.00  0.00    +0.000 A 
ATOM      8  C   UNL     1      11.194  16.796   1.811  0.00  0.00    +0.000 A 
ENDBRANCH   1   6
BRANCH   1   9
ATOM      9  C   UNL     1      14.956  17.936   4.837  0.00  0.00    +0.000 C 
BRANCH   9  10
ATOM     10  C   UNL     1      14.747  17.177   6.170  0.00  0.00    +0.000 C 
ATOM     11  C   UNL     1      13.866  17.978   7.122  0.00  0.00    +0.000 C 
BRANCH  10  12
ATOM     12  O   UNL     1      14.117  15.907   5.946  0.00  0.00    +0.000 OA
ATOM     13  H   UNL     1      14.625  15.435   5.265  0.00  0.00    +0.000 HD
ENDBRANCH  10  12
ENDBRANCH   9  10
ENDBRANCH   1   9
BRANCH   1  14
ATOM     14  C   UNL     1      15.480  16.657   2.753  0.00  0.00    +0.000 C 
BRANCH  14  15
ATOM     15  C   UNL     1      16.910  16.904   3.292  0.00  0.00    +0.000 C 
ATOM     16  C   UNL     1      17.670  15.617   3.587  0.00  0.00    +0.000 C 
BRANCH  15  17
ATOM     17  O   UNL     1      17.690  17.679   2.382  0.00  0.00    +0.000 OA
ATOM     18  H   UNL     1      17.268  17.546   1.510  0.00  0.00    +0.000 HD
ENDBRANCH  15  17
ENDBRANCH  14  15
ENDBRANCH   1  14
TORSDOF 7
ENDMDL
