MODEL 1
REMARK VINA RESULT:    -3.915      0.000      0.000
REMARK INTER + INTRA:          -4.298
REMARK INTER:                  -4.258
REMARK INTRA:                  -0.039
REMARK UNBOUND:                -0.039
REMARK  Name = 
REMARK  3 active torsions:
REMARK  status: ('A' for Active; 'I' for Inactive)
REMARK    1  A    between atoms: C_1  and  O_2
REMARK    2  A    between atoms: O_2  and  C_3
REMARK    3  A    between atoms: C_8  and  O_9
REMARK                            x       y       z     vdW  Elec       q    Type
REMARK                         _______ _______ _______ _____ _____    ______ ____
ROOT
ATOM      1  C   UNL     1      11.453   9.500   6.051  0.00  0.00    +0.000 A 
ATOM      2  C   UNL     1      12.253   9.598   4.913  0.00  0.00    +0.000 A 
ATOM      3  C   UNL     1      11.732  10.150   3.736  0.00  0.00    +0.000 A 
ATOM      4  C   UNL     1      10.412  10.604   3.692  0.00  0.00    +0.000 A 
ATOM      5  C   UNL     1       9.607  10.510   4.825  0.00  0.00    +0.000 A 
ATOM      6  C   UNL     1      10.132   9.961   5.987  0.00  0.00    +0.000 A 
ENDROOT
BRANCH   1   8
ATOM      7  C   UNL     1      12.914   8.064   7.255  0.00  0.00    +0.000 C 
ATOM      8  O   UNL     1      11.830   8.984   7.265  0.00  0.00    +0.000 OA
ENDBRANCH   1   8
BRANCH   6   9
ATOM      9  O   UNL     1       9.321   9.879   7.088  0.00  0.00    +0.000 OA
ATOM     10  H   UNL     1       9.316   8.931   7.322  0.00  0.00    +0.000 HD
ENDBRANCH   6   9
TORSDOF 2
ENDMDL
MODEL 2
REMARK VINA RESULT:    -3.690      8.956      9.519
REMARK INTER + INTRA:          -4.053
REMARK INTER:                  -4.158
REMARK INTRA:                   0.105
REMARK UNBOUND:                -0.039
REMARK  Name = 
REMARK  3 active torsions:
REMARK  status: ('A' for Active; 'I' for Inactive)
REMARK    1  A    between atoms: C_1  and  O_2
REMARK    2  A    between atoms: O_2  and  C_3
REMARK    3  A    between atoms: C_8  and  O_9
REMARK                            x       y       z     vdW  Elec       q    Type
REMARK                         _______ _______ _______ _____ _____    ______ ____
ROOT
ATOM      1  C   UNL     1      10.600  17.699   2.020  0.00  0.00    +0.000 A 
ATOM      2  C   UNL     1      11.396  17.944   3.138  0.00  0.00    +0.000 A 
ATOM      3  C   UNL     1      10.834  18.516   4.286  0.00  0.00    +0.000 A 
ATOM      4  C   UNL     1       9.477  18.846   4.320  0.00  0.00    +0.000 A 
ATOM      5  C   UNL     1       8.676  18.604   3.207  0.00  0.00    +0.000 A 
ATOM      6  C   UNL     1       9.242  18.037   2.073  0.00  0.00    +0.000 A 
ENDROOT
BRANCH   1   8
ATOM      7  C   UNL     1      11.384  18.058  -0.194  0.00  0.00    +0.000 C 
ATOM      8  O   UNL     1      11.015  17.147   0.835  0.00  0.00    +0.000 OA
ENDBRANCH   1   8
BRANCH   6   9
ATOM      9  O   UNL     1       8.434  17.809   0.991  0.00  0.00    +0.000 OA
ATOM     10  H   UNL     1       7.531  17.996   1.312  0.00  0.00    +0.000 HD
ENDBRANCH   6   9
TORSDOF 2
ENDMDL
MODEL 3
REMARK VINA RESULT:    -3.659      8.267      8.768
REMARK INTER + INTRA:          -4.019
REMARK INTER:                  -3.966
REMARK INTRA:                  -0.053
REMARK UNBOUND:                -0.039
REMARK  Name = 
REMARK  3 active torsions:
REMARK  status: ('A' for Active; 'I' for Inactive)
REMARK    1  A    between atoms: C_1  and  O_2
REMARK    2  A    between atoms: O_2  and  C_3
REMARK    3  A    between atoms: C_8  and  O_9
REMARK                            x       y       z     vdW  Elec       q    Type
REMARK                         _______ _______ _______ _____ _____    ______ ____
ROOT
ATOM      1  C   UNL     1      11.774  17.195   2.697  0.00  0.00    +0.000 A 
ATOM      2  C   UNL     1      11.439  17.930   3.834  0.00  0.00    +0.000 A 
ATOM      3  C   UNL     1      10.193  18.566   3.913  0.00  0.00    +0.000 A 
ATOM      4  C   UNL     1       9.282  18.472   2.860  0.00  0.00    +0.000 A 
ATOM      5  C   UNL     1       9.610  17.740   1.721  0.00  0.00    +0.000 A 
ATOM      6  C   UNL     1      10.848  17.112   1.651  0.00  0.00    +0.000 A 
ENDROOT
BRANCH   1   8
ATOM      7  C   UNL     1      14.129  17.319   2.399  0.00  0.00    +0.000 C 
ATOM      8  O   UNL     1      12.952  16.525   2.484  0.00  0.00    +0.000 OA
ENDBRANCH   1   8
BRANCH   6   9
ATOM      9  O   UNL     1      11.147  16.398   0.522  0.00  0.00    +0.000 OA
ATOM     10  H   UNL     1      11.946  16.828   0.161  0.00  0.00    +0.000 HD
ENDBRANCH   6   9
TORSDOF 2
ENDMDL
MODEL 4
REMARK VINA RESULT:    -3.445      1.845      2.554
REMARK INTER + INTRA:          -3.787
REMARK INTER:                  -3.737
REMARK INTRA:                  -0.050
REMARK UNBOUND:                -0.039
REMARK  Name = 
REMARK  3 active torsions:
REMARK  status: ('A' for Active; 'I' for Inactive)
REMARK    1  A    between atoms: C_1  and  O_2
REMARK    2  A    between atoms: O_2  and  C_3
REMARK    3  A    between atoms: C_8  and  O_9
REMARK                            x       y       z     vdW  Elec       q    Type
REMARK                         _______ _______ _______ _____ _____    ______ ____
ROOT
ATOM      1  C   UNL     1      11.632   9.707   5.916  0.00  0.00    +0.000 A 
ATOM      2  C   UNL     1      10.997   9.997   7.123  0.00  0.00    +0.000 A 
ATOM      3  C   UNL     1       9.728  10.589   7.122  0.00  0.00    +0.000 A 
ATOM      4  C   UNL     1       9.090  10.893   5.918  0.00  0.00    +0.000 A 
ATOM      5  C   UNL     1       9.717  10.606   4.708  0.00  0.00    +0.000 A 
ATOM      6  C   UNL     1      10.976  10.019   4.719  0.00  0.00    +0.000 A 
ENDROOT
BRANCH   1   8
ATOM      7  C   UNL     1      13.989   9.939   6.110  0.00  0.00    +0.000 C 
ATOM      8  O   UNL     1      12.868   9.132   5.768  0.00  0.00    +0.000 OA
ENDBRANCH   1   8
BRANCH   6   9
ATOM      9  O   UNL     1      11.573   9.746   3.517  0.00  0.00    +0.000 OA
ATOM     10  H   UNL     1      10.832   9.630   2.892  0.00  0.00    +0.000 HD
ENDBRANCH   6   9
TORSDOF 2
ENDMDL
MODEL 5
REMARK VINA RESULT:    -3.436     20.063     20.621
REMARK INTER + INTRA:          -3.777
REMARK INTER:                  -3.737
REMARK INTRA:                  -0.040
REMARK UNBOUND:                -0.039
REMARK  Name = 
REMARK  3 active torsions:
REMARK  status: ('A' for Active; 'I' for Inactive)
REMARK    1  A    between atoms: C_1  and  O_2
REMARK    2  A    between atoms: O_2  and  C_3
REMARK    3  A    between atoms: C_8  and  O_9
REMARK                            x       y       z     vdW  Elec       q    Type
REMARK                         _______ _______ _______ _____ _____    ______ ____
ROOT
ATOM      1  C   UNL     1      10.280  16.147 -13.707  0.00  0.00    +0.000 A 
ATOM      2  C   UNL     1       9.525  17.318 -13.728  0.00  0.00    +0.000 A 
ATOM      3  C   UNL     1      10.154  18.559 -13.560  0.00  0.00    +0.000 A 
ATOM      4  C   UNL     1      11.535  18.633 -13.370  0.00  0.00    +0.000 A 
ATOM      5  C   UNL     1      12.296  17.466 -13.348  0.00  0.00    +0.000 A 
ATOM      6  C   UNL     1      11.664  16.240 -13.515  0.00  0.00    +0.000 A 
ENDROOT
BRANCH   1   8
ATOM      7  C   UNL     1       8.441  14.656 -13.497  0.00  0.00    +0.000 C 
ATOM      8  O   UNL     1       9.801  14.870 -13.856  0.00  0.00    +0.000 OA
ENDBRANCH   1   8
BRANCH   6   9
ATOM      9  O   UNL     1      12.434  15.108 -13.490  0.00  0.00    +0.000 OA
ATOM     10  H   UNL     1      11.980  14.486 -14.089  0.00  0.00    +0.000 HD
ENDBRANCH   6   9
TORSDOF 2
ENDMDL
MODEL 6
REMARK VINA RESULT:    -3.396     20.300     20.744
REMARK INTER + INTRA:          -3.733
REMARK INTER:                  -3.687
REMARK INTRA:                  -0.046
REMARK UNBOUND:                -0.039
REMARK  Name = 
REMARK  3 active torsions:
REMARK  status: ('A' for Active; 'I' for Inactive)
REMARK    1  A    between atoms: C_1  and  O_2
REMARK    2  A    between atoms: O_2  and  C_3
REMARK    3  A    between atoms: C_8  and  O_9
REMARK                            x       y       z     vdW  Elec       q    Type
REMARK                         _______ _______ _______ _____ _____    ______ ____
ROOT
ATOM      1  C   UNL     1       9.216  16.020 -14.039  0.00  0.00    +0.000 A 
ATOM      2  C   UNL     1       9.747  17.248 -13.647  0.00  0.00    +0.000 A 
ATOM      3  C   UNL     1      11.102  17.348 -13.309  0.00  0.00    +0.000 A 
ATOM      4  C   UNL     1      11.930  16.225 -13.360  0.00  0.00    +0.000 A 
ATOM      5  C   UNL     1      11.407  14.994 -13.751  0.00  0.00    +0.000 A 
ATOM      6  C   UNL     1      10.062  14.904 -14.085  0.00  0.00    +0.000 A 
ENDROOT
BRANCH   1   8
ATOM      7  C   UNL     1       6.911  16.381 -13.589  0.00  0.00    +0.000 C 
ATOM      8  O   UNL     1       7.914  15.775 -14.396  0.00  0.00    +0.000 OA
ENDBRANCH   1   8
BRANCH   6   9
ATOM      9  O   UNL     1       9.571  13.684 -14.466  0.00  0.00    +0.000 OA
ATOM     10  H   UNL     1      10.359  13.168 -14.723  0.00  0.00    +0.000 HD
ENDBRANCH   6   9
TORSDOF 2
ENDMDL
MODEL 7
REMARK VINA RESULT:    -3.321     19.880     20.893
REMARK INTER + INTRA:          -3.652
REMARK INTER:                  -3.608
REMARK INTRA:                  -0.044
REMARK UNBOUND:                -0.039
REMARK  Name = 
REMARK  3 active torsions:
REMARK  status: ('A' for Active; 'I' for Inactive)
REMARK    1  A    between atoms: C_1  and  O_2
REMARK    2  A    between atoms: O_2  and  C_3
REMARK    3  A    between atoms: C_8  and  O_9
REMARK                            x       y       z     vdW  Elec       q    Type
REMARK                         _______ _______ _______ _____ _____    ______ ____
ROOT
ATOM      1  C   UNL     1       7.903  16.207 -13.937  0.00  0.00    +0.000 A 
ATOM      2  C   UNL     1       6.990  16.968 -14.665  0.00  0.00    +0.000 A 
ATOM      3  C   UNL     1       5.653  16.562 -14.752  0.00  0.00    +0.000 A 
ATOM      4  C   UNL     1       5.224  15.396 -14.114  0.00  0.00    +0.000 A 
ATOM      5  C   UNL     1       6.131  14.631 -13.384  0.00  0.00    +0.000 A 
ATOM      6  C   UNL     1       7.455  15.041 -13.304  0.00  0.00    +0.000 A 
ENDROOT
BRANCH   1   8
ATOM      7  C   UNL     1       9.584  17.851 -13.585  0.00  0.00    +0.000 C 
ATOM      8  O   UNL     1       9.237  16.483 -13.768  0.00  0.00    +0.000 OA
ENDBRANCH   1   8
BRANCH   6   9
ATOM      9  O   UNL     1       8.328  14.272 -12.581  0.00  0.00    +0.000 OA
ATOM     10  H   UNL     1       7.878  13.411 -12.484  0.00  0.00    +0.000 HD
ENDBRANCH   6   9
TORSDOF 2
ENDMDL
MODEL 8
REMARK VINA RESULT:    -3.285     20.253     20.634
REMARK INTER + INTRA:          -3.612
REMARK INTER:                  -3.573
REMARK INTRA:                  -0.038
REMARK UNBOUND:                -0.039
REMARK  Name = 
REMARK  3 active torsions:
REMARK  status: ('A' for Active; 'I' for Inactive)
REMARK    1  A    between atoms: C_1  and  O_2
REMARK    2  A    between atoms: O_2  and  C_3
REMARK    3  A    between atoms: C_8  and  O_9
REMARK                            x       y       z     vdW  Elec       q    Type
REMARK                         _______ _______ _______ _____ _____    ______ ____
ROOT
ATOM      1  C   UNL     1      10.787  16.710 -13.694  0.00  0.00    +0.000 A 
ATOM      2  C   UNL     1       9.673  17.546 -13.643  0.00  0.00    +0.000 A 
ATOM      3  C   UNL     1       8.385  16.997 -13.673  0.00  0.00    +0.000 A 
ATOM      4  C   UNL     1       8.206  15.615 -13.754  0.00  0.00    +0.000 A 
ATOM      5  C   UNL     1       9.314  14.773 -13.805  0.00  0.00    +0.000 A 
ATOM      6  C   UNL     1      10.588  15.326 -13.776  0.00  0.00    +0.000 A 
ENDROOT
BRANCH   1   8
ATOM      7  C   UNL     1      12.358  18.425 -13.207  0.00  0.00    +0.000 C 
ATOM      8  O   UNL     1      12.100  17.107 -13.674  0.00  0.00    +0.000 OA
ENDBRANCH   1   8
BRANCH   6   9
ATOM      9  O   UNL     1      11.662  14.479 -13.827  0.00  0.00    +0.000 OA
ATOM     10  H   UNL     1      11.350  13.655 -13.405  0.00  0.00    +0.000 HD
ENDBRANCH   6   9
TORSDOF 2
ENDMDL
MODEL 9
REMARK VINA RESULT:    -1.516      8.677      9.226
REMARK INTER + INTRA:          -1.688
REMARK INTER:                  -1.647
REMARK INTRA:                  -0.041
REMARK UNBOUND:                -0.039
REMARK  Name = 
REMARK  3 active torsions:
REMARK  status: ('A' for Active; 'I' for Inactive)
REMARK    1  A    between atoms: C_1  and  O_2
REMARK    2  A    between atoms: O_2  and  C_3
REMARK    3  A    between atoms: C_8  and  O_9
REMARK                            x       y       z     vdW  Elec       q    Type
REMARK                         _______ _______ _______ _____ _____    ______ ____
ROOT
ATOM      1  C   UNL     1       9.746  18.275   3.090  0.00  0.00    +0.000 A 
ATOM      2  C   UNL     1      10.922  18.193   3.834  0.00  0.00    +0.000 A 
ATOM      3  C   UNL     1      12.043  17.543   3.301  0.00  0.00    +0.000 A 
ATOM      4  C   UNL     1      11.992  16.974   2.027  0.00  0.00    +0.000 A 
ATOM      5  C   UNL     1      10.820  17.052   1.278  0.00  0.00    +0.000 A 
ATOM      6  C   UNL     1       9.714  17.698   1.814  0.00  0.00    +0.000 A 
ENDROOT
BRANCH   1   8
ATOM      7  C   UNL     1       8.302  18.874   4.879  0.00  0.00    +0.000 C 
ATOM      8  O   UNL     1       8.578  18.877   3.484  0.00  0.00    +0.000 OA
ENDBRANCH   1   8
BRANCH   6   9
ATOM      9  O   UNL     1       8.573  17.762   1.059  0.00  0.00    +0.000 OA
ATOM     10  H   UNL     1       7.844  17.721   1.706  0.00  0.00    +0.000 HD
ENDBRANCH   6   9
TORSDOF 2
ENDMDL
