MODEL 1
REMARK VINA RESULT:    -5.456      0.000      0.000
REMARK INTER + INTRA:          -7.907
REMARK INTER:                  -7.369
REMARK INTRA:                  -0.537
REMARK UNBOUND:                -0.537
REMARK  Name = 
REMARK  10 active torsions:
REMARK  status: ('A' for Active; 'I' for Inactive)
REMARK    1  A    between atoms: C_1  and  C_2
REMARK    2  A    between atoms: C_5  and  N_8
REMARK    3  A    between atoms: N_8  and  C_9
REMARK    4  A    between atoms: N_8  and  C_13
REMARK    5  A    between atoms: C_9  and  C_10
REMARK    6  A    between atoms: C_10  and  C_11
REMARK    7  A    between atoms: C_10  and  O_12
REMARK    8  A    between atoms: C_13  and  C_14
REMARK    9  A    between atoms: C_14  and  C_15
REMARK   10  A    between atoms: C_14  and  O_16
REMARK                            x       y       z     vdW  Elec       q    Type
REMARK                         _______ _______ _______ _____ _____    ______ ____
ROOT
ATOM      1  N   UNL     1       9.549  12.568   7.612  0.00  0.00    +0.000 N 
ENDROOT
BRANCH   1   6
ATOM      2  C   UNL     1      11.138  10.646   2.405  0.00  0.00    +0.000 C 
ATOM      3  C   UNL     1      10.710  11.125   3.758  0.00  0.00    +0.000 A 
ATOM      4  C   UNL     1       9.668  12.036   3.897  0.00  0.00    +0.000 A 
ATOM      5  C   UNL     1       9.291  12.505   5.166  0.00  0.00    +0.000 A 
ATOM      6  C   UNL     1       9.943  12.111   6.348  0.00  0.00    +0.000 A 
ATOM      7  C   UNL     1      10.990  11.188   6.170  0.00  0.00    +0.000 A 
ATOM      8  C   UNL     1      11.376  10.709   4.907  0.00  0.00    +0.000 A 
ENDBRANCH   1   6
BRANCH   1   9
ATOM      9  C   UNL     1      10.478  12.463   8.763  0.00  0.00    +0.000 C 
BRANCH   9  10
ATOM     10  C   UNL     1      11.312  13.750   8.980  0.00  0.00    +0.000 C 
ATOM     11  C   UNL     1      12.724  13.583   8.432  0.00  0.00    +0.000 C 
BRANCH  10  12
ATOM     12  O   UNL     1      10.708  14.872   8.321  0.00  0.00    +0.000 OA
ATOM     13  H   UNL     1      11.278  15.646   8.462  0.00  0.00    +0.000 HD
ENDBRANCH  10  12
ENDBRANCH   9  10
ENDBRANCH   1   9
BRANCH   1  14
ATOM     14  C   UNL     1       8.113  12.679   7.976  0.00  0.00    +0.000 C 
BRANCH  14  15
ATOM     15  C   UNL     1       7.416  11.298   8.031  0.00  0.00    +0.000 C 
ATOM     16  C   UNL     1       7.246  10.768   9.450  0.00  0.00    +0.000 C 
BRANCH  15  17
ATOM     17  O   UNL     1       6.130  11.332   7.414  0.00  0.00    +0.000 OA
ATOM     18  H   UNL     1       5.713  12.153   7.745  0.00  0.00    +0.000 HD
ENDBRANCH  15  17
ENDBRANCH  14  15
ENDBRANCH   1  14
TORSDOF 7
ENDMDL
MODEL 2
REMARK VINA RESULT:    -5.309      2.118      4.201
REMARK INTER + INTRA:          -7.709
REMARK INTER:                  -7.239
REMARK INTRA:                  -0.469
REMARK UNBOUND:                -0.537
REMARK  Name = 
REMARK  10 active torsions:
REMARK  status: ('A' for Active; 'I' for Inactive)
REMARK    1  A    between atoms: C_1  and  C_2
REMARK    2  A    between atoms: C_5  and  N_8
REMARK    3  A    between atoms: N_8  and  C_9
REMARK    4  A    between atoms: N_8  and  C_13
REMARK    5  A    between atoms: C_9  and  C_10
REMARK    6  A    between atoms: C_10  and  C_11
REMARK    7  A    between atoms: C_10  and  O_12
REMARK    8  A    between atoms: C_13  and  C_14
REMARK    9  A    between atoms: C_14  and  C_15
REMARK   10  A    between atoms: C_14  and  O_16
REMARK                            x       y       z     vdW  Elec       q    Type
REMARK                         _______ _______ _______ _____ _____    ______ ____
ROOT
ATOM      1  N   UNL     1       9.506  12.157   6.133  0.00  0.00    +0.000 N 
ENDROOT
BRANCH   1   6
ATOM      2  C   UNL     1      14.610  11.264   8.678  0.00  0.00    +0.000 C 
ATOM      3  C   UNL     1      13.274  11.484   8.037  0.00  0.00    +0.000 A 
ATOM      4  C   UNL     1      12.763  10.571   7.120  0.00  0.00    +0.000 A 
ATOM      5  C   UNL     1      11.524  10.798   6.499  0.00  0.00    +0.000 A 
ATOM      6  C   UNL     1      10.750  11.947   6.741  0.00  0.00    +0.000 A 
ATOM      7  C   UNL     1      11.297  12.846   7.675  0.00  0.00    +0.000 A 
ATOM      8  C   UNL     1      12.533  12.631   8.304  0.00  0.00    +0.000 A 
ENDBRANCH   1   6
BRANCH   1   9
ATOM      9  C   UNL     1       9.435  12.642   4.733  0.00  0.00    +0.000 C 
BRANCH   9  10
ATOM     10  C   UNL     1       9.734  11.531   3.697  0.00  0.00    +0.000 C 
ATOM     11  C   UNL     1       8.651  10.459   3.720  0.00  0.00    +0.000 C 
BRANCH  10  12
ATOM     12  O   UNL     1       9.799  12.069   2.369  0.00  0.00    +0.000 OA
ATOM     13  H   UNL     1      10.246  12.931   2.415  0.00  0.00    +0.000 HD
ENDBRANCH  10  12
ENDBRANCH   9  10
ENDBRANCH   1   9
BRANCH   1  14
ATOM     14  C   UNL     1       8.287  12.408   6.943  0.00  0.00    +0.000 C 
BRANCH  14  15
ATOM     15  C   UNL     1       7.482  11.112   7.204  0.00  0.00    +0.000 C 
ATOM     16  C   UNL     1       7.940  10.363   8.450  0.00  0.00    +0.000 C 
BRANCH  15  17
ATOM     17  O   UNL     1       6.086  11.375   7.335  0.00  0.00    +0.000 OA
ATOM     18  H   UNL     1       5.911  12.120   6.725  0.00  0.00    +0.000 HD
ENDBRANCH  15  17
ENDBRANCH  14  15
ENDBRANCH   1  14
TORSDOF 7
ENDMDL
MODEL 3
REMARK VINA RESULT:    -5.262      1.999      4.764
REMARK INTER + INTRA:          -7.645
REMARK INTER:                  -7.073
REMARK INTRA:                  -0.572
REMARK UNBOUND:                -0.537
REMARK  Name = 
REMARK  10 active torsions:
REMARK  status: ('A' for Active; 'I' for Inactive)
REMARK    1  A    between atoms: C_1  and  C_2
REMARK    2  A    between atoms: C_5  and  N_8
REMARK    3  A    between atoms: N_8  and  C_9
REMARK    4  A    between atoms: N_8  and  C_13
REMARK    5  A    between atoms: C_9  and  C_10
REMARK    6  A    between atoms: C_10  and  C_11
REMARK    7  A    between atoms: C_10  and  O_12
REMARK    8  A    between atoms: C_13  and  C_14
REMARK    9  A    between atoms: C_14  and  C_15
REMARK   10  A    between atoms: C_14  and  O_16
REMARK                            x       y       z     vdW  Elec       q    Type
REMARK                         _______ _______ _______ _____ _____    ______ ____
ROOT
ATOM      1  N   UNL     1       9.378  11.654   5.794  0.00  0.00    +0.000 N 
ENDROOT
BRANCH   1   6
ATOM      2  C   UNL     1      14.429  11.608   8.590  0.00  0.00    +0.000 C 
ATOM      3  C   UNL     1      13.108  11.608   7.883  0.00  0.00    +0.000 A 
ATOM      4  C   UNL     1      12.778  10.597   6.986  0.00  0.00    +0.000 A 
ATOM      5  C   UNL     1      11.551  10.618   6.304  0.00  0.00    +0.000 A 
ATOM      6  C   UNL     1      10.609  11.650   6.463  0.00  0.00    +0.000 A 
ATOM      7  C   UNL     1      10.974  12.653   7.379  0.00  0.00    +0.000 A 
ATOM      8  C   UNL     1      12.198  12.644   8.069  0.00  0.00    +0.000 A 
ENDBRANCH   1   6
BRANCH   1   9
ATOM      9  C   UNL     1       8.169  12.188   6.466  0.00  0.00    +0.000 C 
BRANCH   9  10
ATOM     10  C   UNL     1       7.305  11.079   7.116  0.00  0.00    +0.000 C 
ATOM     11  C   UNL     1       7.806  10.749   8.517  0.00  0.00    +0.000 C 
BRANCH  10  12
ATOM     12  O   UNL     1       5.934  11.489   7.220  0.00  0.00    +0.000 OA
ATOM     13  H   UNL     1       5.541  11.452   6.332  0.00  0.00    +0.000 HD
ENDBRANCH  10  12
ENDBRANCH   9  10
ENDBRANCH   1   9
BRANCH   1  14
ATOM     14  C   UNL     1       9.108  10.715   4.676  0.00  0.00    +0.000 C 
BRANCH  14  15
ATOM     15  C   UNL     1       9.405  11.348   3.296  0.00  0.00    +0.000 C 
ATOM     16  C   UNL     1      10.800  11.023   2.775  0.00  0.00    +0.000 C 
BRANCH  15  17
ATOM     17  O   UNL     1       8.459  10.936   2.311  0.00  0.00    +0.000 OA
ATOM     18  H   UNL     1       7.681  10.632   2.820  0.00  0.00    +0.000 HD
ENDBRANCH  15  17
ENDBRANCH  14  15
ENDBRANCH   1  14
TORSDOF 7
ENDMDL
MODEL 4
REMARK VINA RESULT:    -4.880      1.598      2.137
REMARK INTER + INTRA:          -7.129
REMARK INTER:                  -6.670
REMARK INTRA:                  -0.459
REMARK UNBOUND:                -0.537
REMARK  Name = 
REMARK  10 active torsions:
REMARK  status: ('A' for Active; 'I' for Inactive)
REMARK    1  A    between atoms: C_1  and  C_2
REMARK    2  A    between atoms: C_5  and  N_8
REMARK    3  A    between atoms: N_8  and  C_9
REMARK    4  A    between atoms: N_8  and  C_13
REMARK    5  A    between atoms: C_9  and  C_10
REMARK    6  A    between atoms: C_10  and  C_11
REMARK    7  A    between atoms: C_10  and  O_12
REMARK    8  A    between atoms: C_13  and  C_14
REMARK    9  A    between atoms: C_14  and  C_15
REMARK   10  A    between atoms: C_14  and  O_16
REMARK                            x       y       z     vdW  Elec       q    Type
REMARK                         _______ _______ _______ _____ _____    ______ ____
ROOT
ATOM      1  N   UNL     1       9.691  10.906   7.038  0.00  0.00    +0.000 N 
ENDROOT
BRANCH   1   6
ATOM      2  C   UNL     1       8.289  11.793   1.508  0.00  0.00    +0.000 C 
ATOM      3  C   UNL     1       8.674  11.551   2.936  0.00  0.00    +0.000 A 
ATOM      4  C   UNL     1       8.249  10.409   3.607  0.00  0.00    +0.000 A 
ATOM      5  C   UNL     1       8.588  10.203   4.954  0.00  0.00    +0.000 A 
ATOM      6  C   UNL     1       9.341  11.127   5.700  0.00  0.00    +0.000 A 
ATOM      7  C   UNL     1       9.755  12.269   4.989  0.00  0.00    +0.000 A 
ATOM      8  C   UNL     1       9.425  12.487   3.641  0.00  0.00    +0.000 A 
ENDBRANCH   1   6
BRANCH   1   9
ATOM      9  C   UNL     1      11.117  10.755   7.417  0.00  0.00    +0.000 C 
BRANCH   9  10
ATOM     10  C   UNL     1      11.622  11.907   8.320  0.00  0.00    +0.000 C 
ATOM     11  C   UNL     1      13.040  11.633   8.810  0.00  0.00    +0.000 C 
BRANCH  10  12
ATOM     12  O   UNL     1      11.630  13.152   7.609  0.00  0.00    +0.000 OA
ATOM     13  H   UNL     1      10.975  13.739   8.022  0.00  0.00    +0.000 HD
ENDBRANCH  10  12
ENDBRANCH   9  10
ENDBRANCH   1   9
BRANCH   1  14
ATOM     14  C   UNL     1       8.724  10.317   7.999  0.00  0.00    +0.000 C 
BRANCH  14  15
ATOM     15  C   UNL     1       7.640  11.333   8.432  0.00  0.00    +0.000 C 
ATOM     16  C   UNL     1       8.118  12.779   8.379  0.00  0.00    +0.000 C 
BRANCH  15  17
ATOM     17  O   UNL     1       6.466  11.226   7.628  0.00  0.00    +0.000 OA
ATOM     18  H   UNL     1       5.785  10.851   8.223  0.00  0.00    +0.000 HD
ENDBRANCH  15  17
ENDBRANCH  14  15
ENDBRANCH   1  14
TORSDOF 7
ENDMDL
MODEL 5
REMARK VINA RESULT:    -4.880      0.905      3.527
REMARK INTER + INTRA:          -7.129
REMARK INTER:                  -6.722
REMARK INTRA:                  -0.407
REMARK UNBOUND:                -0.537
REMARK  Name = 
REMARK  10 active torsions:
REMARK  status: ('A' for Active; 'I' for Inactive)
REMARK    1  A    between atoms: C_1  and  C_2
REMARK    2  A    between atoms: C_5  and  N_8
REMARK    3  A    between atoms: N_8  and  C_9
REMARK    4  A    between atoms: N_8  and  C_13
REMARK    5  A    between atoms: C_9  and  C_10
REMARK    6  A    between atoms: C_10  and  C_11
REMARK    7  A    between atoms: C_10  and  O_12
REMARK    8  A    between atoms: C_13  and  C_14
REMARK    9  A    between atoms: C_14  and  C_15
REMARK   10  A    between atoms: C_14  and  O_16
REMARK                            x       y       z     vdW  Elec       q    Type
REMARK                         _______ _______ _______ _____ _____    ______ ____
ROOT
ATOM      1  N   UNL     1       9.674  12.624   7.751  0.00  0.00    +0.000 N 
ENDROOT
BRANCH   1   6
ATOM      2  C   UNL     1      10.809  10.801   2.392  0.00  0.00    +0.000 C 
ATOM      3  C   UNL     1      10.498  11.255   3.786  0.00  0.00    +0.000 A 
ATOM      4  C   UNL     1       9.498  12.191   4.026  0.00  0.00    +0.000 A 
ATOM      5  C   UNL     1       9.231  12.636   5.331  0.00  0.00    +0.000 A 
ATOM      6  C   UNL     1       9.958  12.191   6.450  0.00  0.00    +0.000 A 
ATOM      7  C   UNL     1      10.960  11.244   6.170  0.00  0.00    +0.000 A 
ATOM      8  C   UNL     1      11.236  10.789   4.870  0.00  0.00    +0.000 A 
ENDBRANCH   1   6
BRANCH   1   9
ATOM      9  C   UNL     1       8.391  12.251   8.395  0.00  0.00    +0.000 C 
BRANCH   9  10
ATOM     10  C   UNL     1       7.960  10.798   8.076  0.00  0.00    +0.000 C 
ATOM     11  C   UNL     1       7.998   9.930   9.328  0.00  0.00    +0.000 C 
BRANCH  10  12
ATOM     12  O   UNL     1       6.626  10.762   7.550  0.00  0.00    +0.000 OA
ATOM     13  H   UNL     1       6.152  10.031   7.982  0.00  0.00    +0.000 HD
ENDBRANCH  10  12
ENDBRANCH   9  10
ENDBRANCH   1   9
BRANCH   1  14
ATOM     14  C   UNL     1      10.333  13.826   8.323  0.00  0.00    +0.000 C 
BRANCH  14  15
ATOM     15  C   UNL     1      11.707  13.495   8.953  0.00  0.00    +0.000 C 
ATOM     16  C   UNL     1      11.787  12.078   9.507  0.00  0.00    +0.000 C 
BRANCH  15  17
ATOM     17  O   UNL     1      12.770  13.664   8.016  0.00  0.00    +0.000 OA
ATOM     18  H   UNL     1      12.335  13.949   7.188  0.00  0.00    +0.000 HD
ENDBRANCH  15  17
ENDBRANCH  14  15
ENDBRANCH   1  14
TORSDOF 7
ENDMDL
MODEL 6
REMARK VINA RESULT:    -4.788      2.121      3.807
REMARK INTER + INTRA:          -7.005
REMARK INTER:                  -6.549
REMARK INTRA:                  -0.457
REMARK UNBOUND:                -0.537
REMARK  Name = 
REMARK  10 active torsions:
REMARK  status: ('A' for Active; 'I' for Inactive)
REMARK    1  A    between atoms: C_1  and  C_2
REMARK    2  A    between atoms: C_5  and  N_8
REMARK    3  A    between atoms: N_8  and  C_9
REMARK    4  A    between atoms: N_8  and  C_13
REMARK    5  A    between atoms: C_9  and  C_10
REMARK    6  A    between atoms: C_10  and  C_11
REMARK    7  A    between atoms: C_10  and  O_12
REMARK    8  A    between atoms: C_13  and  C_14
REMARK    9  A    between atoms: C_14  and  C_15
REMARK   10  A    between atoms: C_14  and  O_16
REMARK                            x       y       z     vdW  Elec       q    Type
REMARK                         _______ _______ _______ _____ _____    ______ ____
ROOT
ATOM      1  N   UNL     1       9.394  11.718   7.508  0.00  0.00    +0.000 N 
ENDROOT
BRANCH   1   6
ATOM      2  C   UNL     1       8.526  11.614   1.801  0.00  0.00    +0.000 C 
ATOM      3  C   UNL     1       8.773  11.630   3.279  0.00  0.00    +0.000 A 
ATOM      4  C   UNL     1       8.333  10.588   4.088  0.00  0.00    +0.000 A 
ATOM      5  C   UNL     1       8.541  10.623   5.476  0.00  0.00    +0.000 A 
ATOM      6  C   UNL     1       9.172  11.699   6.125  0.00  0.00    +0.000 A 
ATOM      7  C   UNL     1       9.606  12.734   5.276  0.00  0.00    +0.000 A 
ATOM      8  C   UNL     1       9.407  12.711   3.885  0.00  0.00    +0.000 A 
ENDBRANCH   1   6
BRANCH   1   9
ATOM      9  C   UNL     1       8.306  12.125   8.430  0.00  0.00    +0.000 C 
BRANCH   9  10
ATOM     10  C   UNL     1       7.288  10.988   8.695  0.00  0.00    +0.000 C 
ATOM     11  C   UNL     1       7.927   9.861   9.499  0.00  0.00    +0.000 C 
BRANCH  10  12
ATOM     12  O   UNL     1       6.156  11.472   9.431  0.00  0.00    +0.000 OA
ATOM     13  H   UNL     1       6.480  11.861  10.261  0.00  0.00    +0.000 HD
ENDBRANCH  10  12
ENDBRANCH   9  10
ENDBRANCH   1   9
BRANCH   1  14
ATOM     14  C   UNL     1      10.765  11.846   8.065  0.00  0.00    +0.000 C 
BRANCH  14  15
ATOM     15  C   UNL     1      11.634  10.600   7.772  0.00  0.00    +0.000 C 
ATOM     16  C   UNL     1      13.130  10.885   7.827  0.00  0.00    +0.000 C 
BRANCH  15  17
ATOM     17  O   UNL     1      11.353   9.536   8.679  0.00  0.00    +0.000 OA
ATOM     18  H   UNL     1      10.479   9.193   8.405  0.00  0.00    +0.000 HD
ENDBRANCH  15  17
ENDBRANCH  14  15
ENDBRANCH   1  14
TORSDOF 7
ENDMDL
MODEL 7
REMARK VINA RESULT:    -4.733      2.739      4.249
REMARK INTER + INTRA:          -6.930
REMARK INTER:                  -6.592
REMARK INTRA:                  -0.338
REMARK UNBOUND:                -0.537
REMARK  Name = 
REMARK  10 active torsions:
REMARK  status: ('A' for Active; 'I' for Inactive)
REMARK    1  A    between atoms: C_1  and  C_2
REMARK    2  A    between atoms: C_5  and  N_8
REMARK    3  A    between atoms: N_8  and  C_9
REMARK    4  A    between atoms: N_8  and  C_13
REMARK    5  A    between atoms: C_9  and  C_10
REMARK    6  A    between atoms: C_10  and  C_11
REMARK    7  A    between atoms: C_10  and  O_12
REMARK    8  A    between atoms: C_13  and  C_14
REMARK    9  A    between atoms: C_14  and  C_15
REMARK   10  A    between atoms: C_14  and  O_16
REMARK                            x       y       z     vdW  Elec       q    Type
REMARK                         _______ _______ _______ _____ _____    ______ ____
ROOT
ATOM      1  N   UNL     1       9.908  11.342   7.244  0.00  0.00    +0.000 N 
ENDROOT
BRANCH   1   6
ATOM      2  C   UNL     1      13.999   7.777   9.214  0.00  0.00    +0.000 C 
ATOM      3  C   UNL     1      12.930   8.684   8.687  0.00  0.00    +0.000 A 
ATOM      4  C   UNL     1      13.179   9.537   7.617  0.00  0.00    +0.000 A 
ATOM      5  C   UNL     1      12.182  10.407   7.147  0.00  0.00    +0.000 A 
ATOM      6  C   UNL     1      10.904  10.486   7.731  0.00  0.00    +0.000 A 
ATOM      7  C   UNL     1      10.687   9.609   8.809  0.00  0.00    +0.000 A 
ATOM      8  C   UNL     1      11.675   8.732   9.287  0.00  0.00    +0.000 A 
ENDBRANCH   1   6
BRANCH   1   9
ATOM      9  C   UNL     1      10.191  12.235   6.095  0.00  0.00    +0.000 C 
BRANCH   9  10
ATOM     10  C   UNL     1       9.539  11.745   4.779  0.00  0.00    +0.000 C 
ATOM     11  C   UNL     1       9.351  12.898   3.801  0.00  0.00    +0.000 C 
BRANCH  10  12
ATOM     12  O   UNL     1      10.351  10.749   4.142  0.00  0.00    +0.000 OA
ATOM     13  H   UNL     1      10.548  11.053   3.240  0.00  0.00    +0.000 HD
ENDBRANCH  10  12
ENDBRANCH   9  10
ENDBRANCH   1   9
BRANCH   1  14
ATOM     14  C   UNL     1       8.776  11.772   8.105  0.00  0.00    +0.000 C 
BRANCH  14  15
ATOM     15  C   UNL     1       7.602  10.765   8.073  0.00  0.00    +0.000 C 
ATOM     16  C   UNL     1       7.182  10.289   9.459  0.00  0.00    +0.000 C 
BRANCH  15  17
ATOM     17  O   UNL     1       6.454  11.314   7.428  0.00  0.00    +0.000 OA
ATOM     18  H   UNL     1       6.329  12.193   7.839  0.00  0.00    +0.000 HD
ENDBRANCH  15  17
ENDBRANCH  14  15
ENDBRANCH   1  14
TORSDOF 7
ENDMDL
MODEL 8
REMARK VINA RESULT:    -4.604      2.323      4.144
REMARK INTER + INTRA:          -6.756
REMARK INTER:                  -5.921
REMARK INTRA:                  -0.835
REMARK UNBOUND:                -0.537
REMARK  Name = 
REMARK  10 active torsions:
REMARK  status: ('A' for Active; 'I' for Inactive)
REMARK    1  A    between atoms: C_1  and  C_2
REMARK    2  A    between atoms: C_5  and  N_8
REMARK    3  A    between atoms: N_8  and  C_9
REMARK    4  A    between atoms: N_8  and  C_13
REMARK    5  A    between atoms: C_9  and  C_10
REMARK    6  A    between atoms: C_10  and  C_11
REMARK    7  A    between atoms: C_10  and  O_12
REMARK    8  A    between atoms: C_13  and  C_14
REMARK    9  A    between atoms: C_14  and  C_15
REMARK   10  A    between atoms: C_14  and  O_16
REMARK                            x       y       z     vdW  Elec       q    Type
REMARK                         _______ _______ _______ _____ _____    ______ ____
ROOT
ATOM      1  N   UNL     1      11.169  11.948   7.785  0.00  0.00    +0.000 N 
ENDROOT
BRANCH   1   6
ATOM      2  C   UNL     1       9.052  11.804   2.416  0.00  0.00    +0.000 C 
ATOM      3  C   UNL     1       9.584  11.824   3.816  0.00  0.00    +0.000 A 
ATOM      4  C   UNL     1       9.114  12.747   4.745  0.00  0.00    +0.000 A 
ATOM      5  C   UNL     1       9.638  12.781   6.047  0.00  0.00    +0.000 A 
ATOM      6  C   UNL     1      10.664  11.921   6.478  0.00  0.00    +0.000 A 
ATOM      7  C   UNL     1      11.113  11.001   5.514  0.00  0.00    +0.000 A 
ATOM      8  C   UNL     1      10.597  10.954   4.208  0.00  0.00    +0.000 A 
ENDBRANCH   1   6
BRANCH   1   9
ATOM      9  C   UNL     1      10.274  11.666   8.933  0.00  0.00    +0.000 C 
BRANCH   9  10
ATOM     10  C   UNL     1      10.102  10.151   9.202  0.00  0.00    +0.000 C 
ATOM     11  C   UNL     1       8.855   9.612   8.509  0.00  0.00    +0.000 C 
BRANCH  10  12
ATOM     12  O   UNL     1      11.232   9.411   8.721  0.00  0.00    +0.000 OA
ATOM     13  H   UNL     1      11.132   8.488   9.007  0.00  0.00    +0.000 HD
ENDBRANCH  10  12
ENDBRANCH   9  10
ENDBRANCH   1   9
BRANCH   1  14
ATOM     14  C   UNL     1      12.391  12.722   8.121  0.00  0.00    +0.000 C 
BRANCH  14  15
ATOM     15  C   UNL     1      13.671  11.854   8.047  0.00  0.00    +0.000 C 
ATOM     16  C   UNL     1      14.954  12.675   8.078  0.00  0.00    +0.000 C 
BRANCH  15  17
ATOM     17  O   UNL     1      13.727  10.905   9.111  0.00  0.00    +0.000 OA
ATOM     18  H   UNL     1      14.576  11.082   9.563  0.00  0.00    +0.000 HD
ENDBRANCH  15  17
ENDBRANCH  14  15
ENDBRANCH   1  14
TORSDOF 7
ENDMDL
MODEL 9
REMARK VINA RESULT:    -4.536      2.687      4.509
REMARK INTER + INTRA:          -6.665
REMARK INTER:                  -6.331
REMARK INTRA:                  -0.334
REMARK UNBOUND:                -0.537
REMARK  Name = 
REMARK  10 active torsions:
REMARK  status: ('A' for Active; 'I' for Inactive)
REMARK    1  A    between atoms: C_1  and  C_2
REMARK    2  A    between atoms: C_5  and  N_8
REMARK    3  A    between atoms: N_8  and  C_9
REMARK    4  A    between atoms: N_8  and  C_13
REMARK    5  A    between atoms: C_9  and  C_10
REMARK    6  A    between atoms: C_10  and  C_11
REMARK    7  A    between atoms: C_10  and  O_12
REMARK    8  A    between atoms: C_13  and  C_14
REMARK    9  A    between atoms: C_14  and  C_15
REMARK   10  A    between atoms: C_14  and  O_16
REMARK                            x       y       z     vdW  Elec       q    Type
REMARK                         _______ _______ _______ _____ _____    ______ ____
ROOT
ATOM      1  N   UNL     1      10.162  11.974   6.860  0.00  0.00    +0.000 N 
ENDROOT
BRANCH   1   6
ATOM      2  C   UNL     1      13.717   7.862   8.804  0.00  0.00    +0.000 C 
ATOM      3  C   UNL     1      12.805   8.946   8.316  0.00  0.00    +0.000 A 
ATOM      4  C   UNL     1      11.545   9.126   8.878  0.00  0.00    +0.000 A 
ATOM      5  C   UNL     1      10.683  10.124   8.395  0.00  0.00    +0.000 A 
ATOM      6  C   UNL     1      11.020  10.968   7.323  0.00  0.00    +0.000 A 
ATOM      7  C   UNL     1      12.301  10.759   6.780  0.00  0.00    +0.000 A 
ATOM      8  C   UNL     1      13.175   9.766   7.254  0.00  0.00    +0.000 A 
ENDBRANCH   1   6
BRANCH   1   9
ATOM      9  C   UNL     1       9.121  12.534   7.755  0.00  0.00    +0.000 C 
BRANCH   9  10
ATOM     10  C   UNL     1       7.760  11.809   7.621  0.00  0.00    +0.000 C 
ATOM     11  C   UNL     1       7.220  11.407   8.989  0.00  0.00    +0.000 C 
BRANCH  10  12
ATOM     12  O   UNL     1       6.787  12.652   6.989  0.00  0.00    +0.000 OA
ATOM     13  H   UNL     1       7.205  13.067   6.217  0.00  0.00    +0.000 HD
ENDBRANCH  10  12
ENDBRANCH   9  10
ENDBRANCH   1   9
BRANCH   1  14
ATOM     14  C   UNL     1       9.898  12.152   5.409  0.00  0.00    +0.000 C 
BRANCH  14  15
ATOM     15  C   UNL     1       9.760  10.800   4.670  0.00  0.00    +0.000 C 
ATOM     16  C   UNL     1       8.319  10.461   4.304  0.00  0.00    +0.000 C 
BRANCH  15  17
ATOM     17  O   UNL     1      10.538  10.770   3.474  0.00  0.00    +0.000 OA
ATOM     18  H   UNL     1       9.888  10.654   2.752  0.00  0.00    +0.000 HD
ENDBRANCH  15  17
ENDBRANCH  14  15
ENDBRANCH   1  14
TORSDOF 7
ENDMDL
