MODEL 1
REMARK VINA RESULT:    -3.995      0.000      0.000
REMARK INTER + INTRA:          -4.396
REMARK INTER:                  -4.346
REMARK INTRA:                  -0.050
REMARK UNBOUND:                -0.050
REMARK  Name = 
REMARK  3 active torsions:
REMARK  status: ('A' for Active; 'I' for Inactive)
REMARK    1  A    between atoms: C_1  and  O_2
REMARK    2  A    between atoms: O_2  and  C_3
REMARK    3  A    between atoms: C_8  and  O_9
REMARK                            x       y       z     vdW  Elec       q    Type
REMARK                         _______ _______ _______ _____ _____    ______ ____
ROOT
ATOM      1  C   UNL     1      11.802   4.239   6.987  0.00  0.00    +0.000 A 
ATOM      2  C   UNL     1      10.900   4.707   7.942  0.00  0.00    +0.000 A 
ATOM      3  C   UNL     1      11.292   5.704   8.845  0.00  0.00    +0.000 A 
ATOM      4  C   UNL     1      12.582   6.234   8.798  0.00  0.00    +0.000 A 
ATOM      5  C   UNL     1      13.489   5.771   7.847  0.00  0.00    +0.000 A 
ATOM      6  C   UNL     1      13.092   4.783   6.956  0.00  0.00    +0.000 A 
ENDROOT
BRANCH   1   8
ATOM      7  C   UNL     1      10.679   3.627   4.984  0.00  0.00    +0.000 C 
ATOM      8  O   UNL     1      11.558   3.272   6.046  0.00  0.00    +0.000 OA
ENDBRANCH   1   8
BRANCH   6   9
ATOM      9  O   UNL     1      14.001   4.345   6.030  0.00  0.00    +0.000 OA
ATOM     10  H   UNL     1      13.626   4.609   5.169  0.00  0.00    +0.000 HD
ENDBRANCH   6   9
TORSDOF 2
ENDMDL
MODEL 2
REMARK VINA RESULT:    -3.907      2.000      3.453
REMARK INTER + INTRA:          -4.300
REMARK INTER:                  -4.260
REMARK INTRA:                  -0.040
REMARK UNBOUND:                -0.050
REMARK  Name = 
REMARK  3 active torsions:
REMARK  status: ('A' for Active; 'I' for Inactive)
REMARK    1  A    between atoms: C_1  and  O_2
REMARK    2  A    between atoms: O_2  and  C_3
REMARK    3  A    between atoms: C_8  and  O_9
REMARK                            x       y       z     vdW  Elec       q    Type
REMARK                         _______ _______ _______ _____ _____    ______ ____
ROOT
ATOM      1  C   UNL     1      13.406   5.898   6.789  0.00  0.00    +0.000 A 
ATOM      2  C   UNL     1      14.338   5.159   7.516  0.00  0.00    +0.000 A 
ATOM      3  C   UNL     1      13.919   4.058   8.274  0.00  0.00    +0.000 A 
ATOM      4  C   UNL     1      12.572   3.694   8.310  0.00  0.00    +0.000 A 
ATOM      5  C   UNL     1      11.635   4.428   7.586  0.00  0.00    +0.000 A 
ATOM      6  C   UNL     1      12.059   5.518   6.836  0.00  0.00    +0.000 A 
ENDROOT
BRANCH   1   8
ATOM      7  C   UNL     1      14.848   7.730   6.325  0.00  0.00    +0.000 C 
ATOM      8  O   UNL     1      13.673   6.994   6.007  0.00  0.00    +0.000 OA
ENDBRANCH   1   8
BRANCH   6   9
ATOM      9  O   UNL     1      11.120   6.224   6.133  0.00  0.00    +0.000 OA
ATOM     10  H   UNL     1      11.544   7.084   5.946  0.00  0.00    +0.000 HD
ENDBRANCH   6   9
TORSDOF 2
ENDMDL
MODEL 3
REMARK VINA RESULT:    -3.904      1.362      2.879
REMARK INTER + INTRA:          -4.297
REMARK INTER:                  -4.249
REMARK INTRA:                  -0.048
REMARK UNBOUND:                -0.050
REMARK  Name = 
REMARK  3 active torsions:
REMARK  status: ('A' for Active; 'I' for Inactive)
REMARK    1  A    between atoms: C_1  and  O_2
REMARK    2  A    between atoms: O_2  and  C_3
REMARK    3  A    between atoms: C_8  and  O_9
REMARK                            x       y       z     vdW  Elec       q    Type
REMARK                         _______ _______ _______ _____ _____    ______ ____
ROOT
ATOM      1  C   UNL     1      13.241   5.729   6.986  0.00  0.00    +0.000 A 
ATOM      2  C   UNL     1      13.048   6.140   8.304  0.00  0.00    +0.000 A 
ATOM      3  C   UNL     1      11.933   5.690   9.021  0.00  0.00    +0.000 A 
ATOM      4  C   UNL     1      11.007   4.831   8.425  0.00  0.00    +0.000 A 
ATOM      5  C   UNL     1      11.193   4.416   7.109  0.00  0.00    +0.000 A 
ATOM      6  C   UNL     1      12.302   4.867   6.405  0.00  0.00    +0.000 A 
ENDROOT
BRANCH   1   8
ATOM      7  C   UNL     1      14.585   7.476   6.100  0.00  0.00    +0.000 C 
ATOM      8  O   UNL     1      14.282   6.088   6.168  0.00  0.00    +0.000 OA
ENDBRANCH   1   8
BRANCH   6   9
ATOM      9  O   UNL     1      12.462   4.445   5.112  0.00  0.00    +0.000 OA
ATOM     10  H   UNL     1      13.353   4.046   5.090  0.00  0.00    +0.000 HD
ENDBRANCH   6   9
TORSDOF 2
ENDMDL
MODEL 4
REMARK VINA RESULT:    -3.863      1.507      2.068
REMARK INTER + INTRA:          -4.253
REMARK INTER:                  -4.283
REMARK INTRA:                   0.031
REMARK UNBOUND:                -0.050
REMARK  Name = 
REMARK  3 active torsions:
REMARK  status: ('A' for Active; 'I' for Inactive)
REMARK    1  A    between atoms: C_1  and  O_2
REMARK    2  A    between atoms: O_2  and  C_3
REMARK    3  A    between atoms: C_8  and  O_9
REMARK                            x       y       z     vdW  Elec       q    Type
REMARK                         _______ _______ _______ _____ _____    ______ ____
ROOT
ATOM      1  C   UNL     1      11.768   4.293   7.568  0.00  0.00    +0.000 A 
ATOM      2  C   UNL     1      11.847   3.640   8.798  0.00  0.00    +0.000 A 
ATOM      3  C   UNL     1      11.357   4.262   9.953  0.00  0.00    +0.000 A 
ATOM      4  C   UNL     1      10.788   5.535   9.885  0.00  0.00    +0.000 A 
ATOM      5  C   UNL     1      10.704   6.193   8.660  0.00  0.00    +0.000 A 
ATOM      6  C   UNL     1      11.193   5.569   7.519  0.00  0.00    +0.000 A 
ENDROOT
BRANCH   1   8
ATOM      7  C   UNL     1      11.283   3.014   5.625  0.00  0.00    +0.000 C 
ATOM      8  O   UNL     1      12.206   3.807   6.362  0.00  0.00    +0.000 OA
ENDBRANCH   1   8
BRANCH   6   9
ATOM      9  O   UNL     1      11.100   6.236   6.327  0.00  0.00    +0.000 OA
ATOM     10  H   UNL     1      11.839   5.891   5.791  0.00  0.00    +0.000 HD
ENDBRANCH   6   9
TORSDOF 2
ENDMDL
MODEL 5
REMARK VINA RESULT:    -3.836      1.723      2.845
REMARK INTER + INTRA:          -4.223
REMARK INTER:                  -4.223
REMARK INTRA:                   0.000
REMARK UNBOUND:                -0.050
REMARK  Name = 
REMARK  3 active torsions:
REMARK  status: ('A' for Active; 'I' for Inactive)
REMARK    1  A    between atoms: C_1  and  O_2
REMARK    2  A    between atoms: O_2  and  C_3
REMARK    3  A    between atoms: C_8  and  O_9
REMARK                            x       y       z     vdW  Elec       q    Type
REMARK                         _______ _______ _______ _____ _____    ______ ____
ROOT
ATOM      1  C   UNL     1      12.864   4.886   7.246  0.00  0.00    +0.000 A 
ATOM      2  C   UNL     1      13.280   4.070   8.297  0.00  0.00    +0.000 A 
ATOM      3  C   UNL     1      12.422   3.830   9.378  0.00  0.00    +0.000 A 
ATOM      4  C   UNL     1      11.149   4.403   9.412  0.00  0.00    +0.000 A 
ATOM      5  C   UNL     1      10.726   5.218   8.365  0.00  0.00    +0.000 A 
ATOM      6  C   UNL     1      11.584   5.451   7.298  0.00  0.00    +0.000 A 
ENDROOT
BRANCH   1   8
ATOM      7  C   UNL     1      14.511   6.286   6.261  0.00  0.00    +0.000 C 
ATOM      8  O   UNL     1      13.595   5.206   6.130  0.00  0.00    +0.000 OA
ENDBRANCH   1   8
BRANCH   6   9
ATOM      9  O   UNL     1      11.146   6.256   6.280  0.00  0.00    +0.000 OA
ATOM     10  H   UNL     1      11.864   6.904   6.149  0.00  0.00    +0.000 HD
ENDBRANCH   6   9
TORSDOF 2
ENDMDL
MODEL 6
REMARK VINA RESULT:    -3.724      2.192      3.259
REMARK INTER + INTRA:          -4.101
REMARK INTER:                  -4.057
REMARK INTRA:                  -0.045
REMARK UNBOUND:                -0.050
REMARK  Name = 
REMARK  3 active torsions:
REMARK  status: ('A' for Active; 'I' for Inactive)
REMARK    1  A    between atoms: C_1  and  O_2
REMARK    2  A    between atoms: O_2  and  C_3
REMARK    3  A    between atoms: C_8  and  O_9
REMARK                            x       y       z     vdW  Elec       q    Type
REMARK                         _______ _______ _______ _____ _____    ______ ____
ROOT
ATOM      1  C   UNL     1      14.255   5.630   6.769  0.00  0.00    +0.000 A 
ATOM      2  C   UNL     1      14.927   5.102   7.871  0.00  0.00    +0.000 A 
ATOM      3  C   UNL     1      15.805   5.908   8.607  0.00  0.00    +0.000 A 
ATOM      4  C   UNL     1      16.015   7.240   8.245  0.00  0.00    +0.000 A 
ATOM      5  C   UNL     1      15.347   7.775   7.146  0.00  0.00    +0.000 A 
ATOM      6  C   UNL     1      14.478   6.969   6.422  0.00  0.00    +0.000 A 
ENDROOT
BRANCH   1   8
ATOM      7  C   UNL     1      12.446   4.097   6.610  0.00  0.00    +0.000 C 
ATOM      8  O   UNL     1      13.372   4.961   5.960  0.00  0.00    +0.000 OA
ENDBRANCH   1   8
BRANCH   6   9
ATOM      9  O   UNL     1      13.833   7.517   5.345  0.00  0.00    +0.000 OA
ATOM     10  H   UNL     1      12.897   7.568   5.616  0.00  0.00    +0.000 HD
ENDBRANCH   6   9
TORSDOF 2
ENDMDL
MODEL 7
REMARK VINA RESULT:    -3.680      1.152      3.069
REMARK INTER + INTRA:          -4.053
REMARK INTER:                  -4.000
REMARK INTRA:                  -0.053
REMARK UNBOUND:                -0.050
REMARK  Name = 
REMARK  3 active torsions:
REMARK  status: ('A' for Active; 'I' for Inactive)
REMARK    1  A    between atoms: C_1  and  O_2
REMARK    2  A    between atoms: O_2  and  C_3
REMARK    3  A    between atoms: C_8  and  O_9
REMARK                            x       y       z     vdW  Elec       q    Type
REMARK                         _______ _______ _______ _____ _____    ______ ____
ROOT
ATOM      1  C   UNL     1      13.558   5.665   7.837  0.00  0.00    +0.000 A 
ATOM      2  C   UNL     1      12.727   6.100   8.869  0.00  0.00    +0.000 A 
ATOM      3  C   UNL     1      11.387   5.694   8.907  0.00  0.00    +0.000 A 
ATOM      4  C   UNL     1      10.873   4.856   7.916  0.00  0.00    +0.000 A 
ATOM      5  C   UNL     1      11.697   4.418   6.881  0.00  0.00    +0.000 A 
ATOM      6  C   UNL     1      13.024   4.825   6.852  0.00  0.00    +0.000 A 
ENDROOT
BRANCH   1   8
ATOM      7  C   UNL     1      15.181   7.349   7.418  0.00  0.00    +0.000 C 
ATOM      8  O   UNL     1      14.882   5.982   7.674  0.00  0.00    +0.000 OA
ENDBRANCH   1   8
BRANCH   6   9
ATOM      9  O   UNL     1      13.814   4.381   5.825  0.00  0.00    +0.000 OA
ATOM     10  H   UNL     1      14.367   3.681   6.221  0.00  0.00    +0.000 HD
ENDBRANCH   6   9
TORSDOF 2
ENDMDL
MODEL 8
REMARK VINA RESULT:    -3.662      1.640      2.170
REMARK INTER + INTRA:          -4.034
REMARK INTER:                  -3.986
REMARK INTRA:                  -0.047
REMARK UNBOUND:                -0.050
REMARK  Name = 
REMARK  3 active torsions:
REMARK  status: ('A' for Active; 'I' for Inactive)
REMARK    1  A    between atoms: C_1  and  O_2
REMARK    2  A    between atoms: O_2  and  C_3
REMARK    3  A    between atoms: C_8  and  O_9
REMARK                            x       y       z     vdW  Elec       q    Type
REMARK                         _______ _______ _______ _____ _____    ______ ____
ROOT
ATOM      1  C   UNL     1      11.648   4.407   7.828  0.00  0.00    +0.000 A 
ATOM      2  C   UNL     1      10.923   5.597   7.881  0.00  0.00    +0.000 A 
ATOM      3  C   UNL     1      10.513   6.111   9.118  0.00  0.00    +0.000 A 
ATOM      4  C   UNL     1      10.824   5.440  10.302  0.00  0.00    +0.000 A 
ATOM      5  C   UNL     1      11.548   4.251  10.256  0.00  0.00    +0.000 A 
ATOM      6  C   UNL     1      11.950   3.748   9.026  0.00  0.00    +0.000 A 
ENDROOT
BRANCH   1   8
ATOM      7  C   UNL     1      11.182   3.643   5.626  0.00  0.00    +0.000 C 
ATOM      8  O   UNL     1      12.111   3.790   6.693  0.00  0.00    +0.000 OA
ENDBRANCH   1   8
BRANCH   6   9
ATOM      9  O   UNL     1      12.661   2.577   9.006  0.00  0.00    +0.000 OA
ATOM     10  H   UNL     1      13.212   2.608   9.812  0.00  0.00    +0.000 HD
ENDBRANCH   6   9
TORSDOF 2
ENDMDL
MODEL 9
REMARK VINA RESULT:    -3.615      1.223      2.285
REMARK INTER + INTRA:          -3.982
REMARK INTER:                  -3.934
REMARK INTRA:                  -0.049
REMARK UNBOUND:                -0.050
REMARK  Name = 
REMARK  3 active torsions:
REMARK  status: ('A' for Active; 'I' for Inactive)
REMARK    1  A    between atoms: C_1  and  O_2
REMARK    2  A    between atoms: O_2  and  C_3
REMARK    3  A    between atoms: C_8  and  O_9
REMARK                            x       y       z     vdW  Elec       q    Type
REMARK                         _______ _______ _______ _____ _____    ______ ____
ROOT
ATOM      1  C   UNL     1      12.030   4.424   6.758  0.00  0.00    +0.000 A 
ATOM      2  C   UNL     1      13.275   4.712   6.199  0.00  0.00    +0.000 A 
ATOM      3  C   UNL     1      14.121   5.642   6.817  0.00  0.00    +0.000 A 
ATOM      4  C   UNL     1      13.727   6.285   7.992  0.00  0.00    +0.000 A 
ATOM      5  C   UNL     1      12.486   6.002   8.557  0.00  0.00    +0.000 A 
ATOM      6  C   UNL     1      11.653   5.079   7.937  0.00  0.00    +0.000 A 
ENDROOT
BRANCH   1   8
ATOM      7  C   UNL     1      10.758   3.686   4.892  0.00  0.00    +0.000 C 
ATOM      8  O   UNL     1      11.104   3.540   6.264  0.00  0.00    +0.000 OA
ENDBRANCH   1   8
BRANCH   6   9
ATOM      9  O   UNL     1      10.438   4.817   8.511  0.00  0.00    +0.000 OA
ATOM     10  H   UNL     1      10.002   4.195   7.897  0.00  0.00    +0.000 HD
ENDBRANCH   6   9
TORSDOF 2
ENDMDL
