MODEL 1
REMARK VINA RESULT:    -5.012      0.000      0.000
REMARK INTER + INTRA:          -5.492
REMARK INTER:                  -5.451
REMARK INTRA:                  -0.041
REMARK UNBOUND:                -0.041
REMARK  Name = 
REMARK  3 active torsions:
REMARK  status: ('A' for Active; 'I' for Inactive)
REMARK    1  A    between atoms: C_1  and  O_2
REMARK    2  A    between atoms: O_2  and  C_3
REMARK    3  A    between atoms: C_8  and  O_9
REMARK                            x       y       z     vdW  Elec       q    Type
REMARK                         _______ _______ _______ _____ _____    ______ ____
ROOT
ATOM      1  C   UNL     1       6.755  12.780   2.393  0.00  0.00    +0.000 A 
ATOM      2  C   UNL     1       6.788  13.547   3.557  0.00  0.00    +0.000 A 
ATOM      3  C   UNL     1       5.975  13.203   4.644  0.00  0.00    +0.000 A 
ATOM      4  C   UNL     1       5.129  12.096   4.573  0.00  0.00    +0.000 A 
ATOM      5  C   UNL     1       5.090  11.324   3.414  0.00  0.00    +0.000 A 
ATOM      6  C   UNL     1       5.899  11.673   2.340  0.00  0.00    +0.000 A 
ENDROOT
BRANCH   1   8
ATOM      7  C   UNL     1       8.868  12.646   1.314  0.00  0.00    +0.000 C 
ATOM      8  O   UNL     1       7.491  12.999   1.256  0.00  0.00    +0.000 OA
ENDBRANCH   1   8
BRANCH   6   9
ATOM      9  O   UNL     1       5.844  10.900   1.211  0.00  0.00    +0.000 OA
ATOM     10  H   UNL     1       6.661  10.365   1.236  0.00  0.00    +0.000 HD
ENDBRANCH   6   9
TORSDOF 2
ENDMDL
MODEL 2
REMARK VINA RESULT:    -4.669      1.951      3.390
REMARK INTER + INTRA:          -5.119
REMARK INTER:                  -5.071
REMARK INTRA:                  -0.049
REMARK UNBOUND:                -0.041
REMARK  Name = 
REMARK  3 active torsions:
REMARK  status: ('A' for Active; 'I' for Inactive)
REMARK    1  A    between atoms: C_1  and  O_2
REMARK    2  A    between atoms: O_2  and  C_3
REMARK    3  A    between atoms: C_8  and  O_9
REMARK                            x       y       z     vdW  Elec       q    Type
REMARK                         _______ _______ _______ _____ _____    ______ ____
ROOT
ATOM      1  C   UNL     1       5.398  12.406   4.233  0.00  0.00    +0.000 A 
ATOM      2  C   UNL     1       5.820  13.726   4.074  0.00  0.00    +0.000 A 
ATOM      3  C   UNL     1       6.235  14.181   2.816  0.00  0.00    +0.000 A 
ATOM      4  C   UNL     1       6.232  13.321   1.716  0.00  0.00    +0.000 A 
ATOM      5  C   UNL     1       5.812  12.002   1.867  0.00  0.00    +0.000 A 
ATOM      6  C   UNL     1       5.402  11.559   3.118  0.00  0.00    +0.000 A 
ENDROOT
BRANCH   1   8
ATOM      7  C   UNL     1       3.964  12.529   6.124  0.00  0.00    +0.000 C 
ATOM      8  O   UNL     1       4.968  11.828   5.400  0.00  0.00    +0.000 OA
ENDBRANCH   1   8
BRANCH   6   9
ATOM      9  O   UNL     1       4.994  10.258   3.242  0.00  0.00    +0.000 OA
ATOM     10  H   UNL     1       4.176  10.303   3.773  0.00  0.00    +0.000 HD
ENDBRANCH   6   9
TORSDOF 2
ENDMDL
MODEL 3
REMARK VINA RESULT:    -4.258      2.417      3.380
REMARK INTER + INTRA:          -4.673
REMARK INTER:                  -4.620
REMARK INTRA:                  -0.052
REMARK UNBOUND:                -0.041
REMARK  Name = 
REMARK  3 active torsions:
REMARK  status: ('A' for Active; 'I' for Inactive)
REMARK    1  A    between atoms: C_1  and  O_2
REMARK    2  A    between atoms: O_2  and  C_3
REMARK    3  A    between atoms: C_8  and  O_9
REMARK                            x       y       z     vdW  Elec       q    Type
REMARK                         _______ _______ _______ _____ _____    ______ ____
ROOT
ATOM      1  C   UNL     1       5.857  13.373   4.556  0.00  0.00    +0.000 A 
ATOM      2  C   UNL     1       6.616  13.731   3.443  0.00  0.00    +0.000 A 
ATOM      3  C   UNL     1       6.643  12.899   2.317  0.00  0.00    +0.000 A 
ATOM      4  C   UNL     1       5.913  11.709   2.298  0.00  0.00    +0.000 A 
ATOM      5  C   UNL     1       5.151  11.345   3.406  0.00  0.00    +0.000 A 
ATOM      6  C   UNL     1       5.131  12.176   4.519  0.00  0.00    +0.000 A 
ENDROOT
BRANCH   1   8
ATOM      7  C   UNL     1       6.930  14.268   6.477  0.00  0.00    +0.000 C 
ATOM      8  O   UNL     1       5.739  14.086   5.722  0.00  0.00    +0.000 OA
ENDBRANCH   1   8
BRANCH   6   9
ATOM      9  O   UNL     1       4.375  11.796   5.596  0.00  0.00    +0.000 OA
ATOM     10  H   UNL     1       3.500  11.579   5.221  0.00  0.00    +0.000 HD
ENDBRANCH   6   9
TORSDOF 2
ENDMDL
MODEL 4
REMARK VINA RESULT:    -4.213      2.346      4.075
REMARK INTER + INTRA:          -4.624
REMARK INTER:                  -4.572
REMARK INTRA:                  -0.052
REMARK UNBOUND:                -0.041
REMARK  Name = 
REMARK  3 active torsions:
REMARK  status: ('A' for Active; 'I' for Inactive)
REMARK    1  A    between atoms: C_1  and  O_2
REMARK    2  A    between atoms: O_2  and  C_3
REMARK    3  A    between atoms: C_8  and  O_9
REMARK                            x       y       z     vdW  Elec       q    Type
REMARK                         _______ _______ _______ _____ _____    ______ ____
ROOT
ATOM      1  C   UNL     1       5.465  12.478   4.570  0.00  0.00    +0.000 A 
ATOM      2  C   UNL     1       5.099  11.423   3.736  0.00  0.00    +0.000 A 
ATOM      3  C   UNL     1       5.616  11.346   2.437  0.00  0.00    +0.000 A 
ATOM      4  C   UNL     1       6.497  12.321   1.967  0.00  0.00    +0.000 A 
ATOM      5  C   UNL     1       6.868  13.379   2.794  0.00  0.00    +0.000 A 
ATOM      6  C   UNL     1       6.350  13.447   4.081  0.00  0.00    +0.000 A 
ENDROOT
BRANCH   1   8
ATOM      7  C   UNL     1       3.637  12.841   6.045  0.00  0.00    +0.000 C 
ATOM      8  O   UNL     1       5.038  12.680   5.858  0.00  0.00    +0.000 OA
ENDBRANCH   1   8
BRANCH   6   9
ATOM      9  O   UNL     1       6.729  14.496   4.876  0.00  0.00    +0.000 OA
ATOM     10  H   UNL     1       7.466  14.918   4.395  0.00  0.00    +0.000 HD
ENDBRANCH   6   9
TORSDOF 2
ENDMDL
MODEL 5
REMARK VINA RESULT:    -4.128      3.032      4.076
REMARK INTER + INTRA:          -4.532
REMARK INTER:                  -4.490
REMARK INTRA:                  -0.042
REMARK UNBOUND:                -0.041
REMARK  Name = 
REMARK  3 active torsions:
REMARK  status: ('A' for Active; 'I' for Inactive)
REMARK    1  A    between atoms: C_1  and  O_2
REMARK    2  A    between atoms: O_2  and  C_3
REMARK    3  A    between atoms: C_8  and  O_9
REMARK                            x       y       z     vdW  Elec       q    Type
REMARK                         _______ _______ _______ _____ _____    ______ ____
ROOT
ATOM      1  C   UNL     1       5.766  13.312   5.803  0.00  0.00    +0.000 A 
ATOM      2  C   UNL     1       6.819  13.762   5.008  0.00  0.00    +0.000 A 
ATOM      3  C   UNL     1       6.999  13.237   3.722  0.00  0.00    +0.000 A 
ATOM      4  C   UNL     1       6.130  12.263   3.227  0.00  0.00    +0.000 A 
ATOM      5  C   UNL     1       5.076  11.808   4.015  0.00  0.00    +0.000 A 
ATOM      6  C   UNL     1       4.905  12.334   5.289  0.00  0.00    +0.000 A 
ENDROOT
BRANCH   1   8
ATOM      7  C   UNL     1       5.788  15.086   7.384  0.00  0.00    +0.000 C 
ATOM      8  O   UNL     1       5.471  13.734   7.074  0.00  0.00    +0.000 OA
ENDBRANCH   1   8
BRANCH   6   9
ATOM      9  O   UNL     1       3.861  11.871   6.045  0.00  0.00    +0.000 OA
ATOM     10  H   UNL     1       3.403  11.229   5.469  0.00  0.00    +0.000 HD
ENDBRANCH   6   9
TORSDOF 2
ENDMDL
MODEL 6
REMARK VINA RESULT:    -4.041      4.297      5.264
REMARK INTER + INTRA:          -4.436
REMARK INTER:                  -4.385
REMARK INTRA:                  -0.052
REMARK UNBOUND:                -0.041
REMARK  Name = 
REMARK  3 active torsions:
REMARK  status: ('A' for Active; 'I' for Inactive)
REMARK    1  A    between atoms: C_1  and  O_2
REMARK    2  A    between atoms: O_2  and  C_3
REMARK    3  A    between atoms: C_8  and  O_9
REMARK                            x       y       z     vdW  Elec       q    Type
REMARK                         _______ _______ _______ _____ _____    ______ ____
ROOT
ATOM      1  C   UNL     1       4.448  13.909   7.053  0.00  0.00    +0.000 A 
ATOM      2  C   UNL     1       4.176  15.077   7.763  0.00  0.00    +0.000 A 
ATOM      3  C   UNL     1       2.849  15.472   7.979  0.00  0.00    +0.000 A 
ATOM      4  C   UNL     1       1.793  14.703   7.487  0.00  0.00    +0.000 A 
ATOM      5  C   UNL     1       2.057  13.534   6.777  0.00  0.00    +0.000 A 
ATOM      6  C   UNL     1       3.375  13.150   6.567  0.00  0.00    +0.000 A 
ENDROOT
BRANCH   1   8
ATOM      7  C   UNL     1       6.469  14.130   5.823  0.00  0.00    +0.000 C 
ATOM      8  O   UNL     1       5.691  13.404   6.767  0.00  0.00    +0.000 OA
ENDBRANCH   1   8
BRANCH   6   9
ATOM      9  O   UNL     1       3.610  11.997   5.866  0.00  0.00    +0.000 OA
ATOM     10  H   UNL     1       4.463  11.668   6.208  0.00  0.00    +0.000 HD
ENDBRANCH   6   9
TORSDOF 2
ENDMDL
MODEL 7
REMARK VINA RESULT:    -3.991     11.582     12.530
REMARK INTER + INTRA:          -4.382
REMARK INTER:                  -4.344
REMARK INTRA:                  -0.038
REMARK UNBOUND:                -0.041
REMARK  Name = 
REMARK  3 active torsions:
REMARK  status: ('A' for Active; 'I' for Inactive)
REMARK    1  A    between atoms: C_1  and  O_2
REMARK    2  A    between atoms: O_2  and  C_3
REMARK    3  A    between atoms: C_8  and  O_9
REMARK                            x       y       z     vdW  Elec       q    Type
REMARK                         _______ _______ _______ _____ _____    ______ ____
ROOT
ATOM      1  C   UNL     1       7.918   1.375   8.859  0.00  0.00    +0.000 A 
ATOM      2  C   UNL     1       9.311   1.402   8.901  0.00  0.00    +0.000 A 
ATOM      3  C   UNL     1       9.985   2.627   8.982  0.00  0.00    +0.000 A 
ATOM      4  C   UNL     1       9.270   3.826   9.022  0.00  0.00    +0.000 A 
ATOM      5  C   UNL     1       7.878   3.807   8.982  0.00  0.00    +0.000 A 
ATOM      6  C   UNL     1       7.218   2.587   8.900  0.00  0.00    +0.000 A 
ENDROOT
BRANCH   1   8
ATOM      7  C   UNL     1       7.777  -0.949   8.380  0.00  0.00    +0.000 C 
ATOM      8  O   UNL     1       7.130   0.254   8.779  0.00  0.00    +0.000 OA
ENDBRANCH   1   8
BRANCH   6   9
ATOM      9  O   UNL     1       5.850   2.594   8.862  0.00  0.00    +0.000 OA
ATOM     10  H   UNL     1       5.576   2.783   9.780  0.00  0.00    +0.000 HD
ENDBRANCH   6   9
TORSDOF 2
ENDMDL
MODEL 8
REMARK VINA RESULT:    -3.956      5.719      6.721
REMARK INTER + INTRA:          -4.344
REMARK INTER:                  -4.291
REMARK INTRA:                  -0.052
REMARK UNBOUND:                -0.041
REMARK  Name = 
REMARK  3 active torsions:
REMARK  status: ('A' for Active; 'I' for Inactive)
REMARK    1  A    between atoms: C_1  and  O_2
REMARK    2  A    between atoms: O_2  and  C_3
REMARK    3  A    between atoms: C_8  and  O_9
REMARK                            x       y       z     vdW  Elec       q    Type
REMARK                         _______ _______ _______ _____ _____    ______ ____
ROOT
ATOM      1  C   UNL     1       4.390  14.987   7.892  0.00  0.00    +0.000 A 
ATOM      2  C   UNL     1       4.585  13.928   7.007  0.00  0.00    +0.000 A 
ATOM      3  C   UNL     1       3.483  13.304   6.408  0.00  0.00    +0.000 A 
ATOM      4  C   UNL     1       2.186  13.735   6.692  0.00  0.00    +0.000 A 
ATOM      5  C   UNL     1       1.983  14.793   7.575  0.00  0.00    +0.000 A 
ATOM      6  C   UNL     1       3.082  15.405   8.164  0.00  0.00    +0.000 A 
ENDROOT
BRANCH   1   8
ATOM      7  C   UNL     1       6.209  16.509   7.745  0.00  0.00    +0.000 C 
ATOM      8  O   UNL     1       5.371  15.687   8.548  0.00  0.00    +0.000 OA
ENDBRANCH   1   8
BRANCH   6   9
ATOM      9  O   UNL     1       2.858  16.443   9.029  0.00  0.00    +0.000 OA
ATOM     10  H   UNL     1       3.600  17.058   8.877  0.00  0.00    +0.000 HD
ENDBRANCH   6   9
TORSDOF 2
ENDMDL
MODEL 9
REMARK VINA RESULT:    -3.954      2.602      3.644
REMARK INTER + INTRA:          -4.342
REMARK INTER:                  -4.304
REMARK INTRA:                  -0.038
REMARK UNBOUND:                -0.041
REMARK  Name = 
REMARK  3 active torsions:
REMARK  status: ('A' for Active; 'I' for Inactive)
REMARK    1  A    between atoms: C_1  and  O_2
REMARK    2  A    between atoms: O_2  and  C_3
REMARK    3  A    between atoms: C_8  and  O_9
REMARK                            x       y       z     vdW  Elec       q    Type
REMARK                         _______ _______ _______ _____ _____    ______ ____
ROOT
ATOM      1  C   UNL     1       5.347  12.626   4.873  0.00  0.00    +0.000 A 
ATOM      2  C   UNL     1       6.527  13.367   4.833  0.00  0.00    +0.000 A 
ATOM      3  C   UNL     1       6.804  14.297   5.843  0.00  0.00    +0.000 A 
ATOM      4  C   UNL     1       5.904  14.490   6.893  0.00  0.00    +0.000 A 
ATOM      5  C   UNL     1       4.723  13.753   6.940  0.00  0.00    +0.000 A 
ATOM      6  C   UNL     1       4.457  12.833   5.934  0.00  0.00    +0.000 A 
ENDROOT
BRANCH   1   8
ATOM      7  C   UNL     1       5.633  11.685   2.709  0.00  0.00    +0.000 C 
ATOM      8  O   UNL     1       4.947  11.686   3.956  0.00  0.00    +0.000 OA
ENDBRANCH   1   8
BRANCH   6   9
ATOM      9  O   UNL     1       3.289  12.121   6.002  0.00  0.00    +0.000 OA
ATOM     10  H   UNL     1       3.536  11.279   6.429  0.00  0.00    +0.000 HD
ENDBRANCH   6   9
TORSDOF 2
ENDMDL
