MODEL 1
REMARK VINA RESULT:    -4.142      0.000      0.000
REMARK INTER + INTRA:          -5.893
REMARK INTER:                  -5.594
REMARK INTRA:                  -0.299
REMARK UNBOUND:                -0.299
REMARK  Name = 
REMARK  10 active torsions:
REMARK  status: ('A' for Active; 'I' for Inactive)
REMARK    1  A    between atoms: C_1  and  C_2
REMARK    2  A    between atoms: C_5  and  N_8
REMARK    3  A    between atoms: N_8  and  C_9
REMARK    4  A    between atoms: N_8  and  C_13
REMARK    5  A    between atoms: C_9  and  C_10
REMARK    6  A    between atoms: C_10  and  C_11
REMARK    7  A    between atoms: C_10  and  O_12
REMARK    8  A    between atoms: C_13  and  C_14
REMARK    9  A    between atoms: C_14  and  C_15
REMARK   10  A    between atoms: C_14  and  O_16
REMARK                            x       y       z     vdW  Elec       q    Type
REMARK                         _______ _______ _______ _____ _____    ______ ____
ROOT
ATOM      1  N   UNL     1     -11.263   4.331 -16.498  0.00  0.00    +0.000 N 
ENDROOT
BRANCH   1   6
ATOM      2  C   UNL     1     -12.382   3.963 -10.846  0.00  0.00    +0.000 C 
ATOM      3  C   UNL     1     -12.068   4.064 -12.307  0.00  0.00    +0.000 A 
ATOM      4  C   UNL     1     -12.244   5.261 -12.995  0.00  0.00    +0.000 A 
ATOM      5  C   UNL     1     -11.977   5.342 -14.371  0.00  0.00    +0.000 A 
ATOM      6  C   UNL     1     -11.546   4.238 -15.129  0.00  0.00    +0.000 A 
ATOM      7  C   UNL     1     -11.377   3.046 -14.401  0.00  0.00    +0.000 A 
ATOM      8  C   UNL     1     -11.638   2.952 -13.025  0.00  0.00    +0.000 A 
ENDBRANCH   1   6
BRANCH   1   9
ATOM      9  C   UNL     1     -11.525   5.595 -17.227  0.00  0.00    +0.000 C 
BRANCH   9  10
ATOM     10  C   UNL     1     -10.229   6.375 -17.561  0.00  0.00    +0.000 C 
ATOM     11  C   UNL     1     -10.525   7.553 -18.481  0.00  0.00    +0.000 C 
BRANCH  10  12
ATOM     12  O   UNL     1      -9.613   6.884 -16.370  0.00  0.00    +0.000 OA
ATOM     13  H   UNL     1     -10.292   7.354 -15.858  0.00  0.00    +0.000 HD
ENDBRANCH  10  12
ENDBRANCH   9  10
ENDBRANCH   1   9
BRANCH   1  14
ATOM     14  C   UNL     1     -11.197   3.119 -17.353  0.00  0.00    +0.000 C 
BRANCH  14  15
ATOM     15  C   UNL     1      -9.824   2.411 -17.260  0.00  0.00    +0.000 C 
ATOM     16  C   UNL     1      -9.932   0.891 -17.252  0.00  0.00    +0.000 C 
BRANCH  15  17
ATOM     17  O   UNL     1      -8.963   2.788 -18.334  0.00  0.00    +0.000 OA
ATOM     18  H   UNL     1      -9.562   2.971 -19.086  0.00  0.00    +0.000 HD
ENDBRANCH  15  17
ENDBRANCH  14  15
ENDBRANCH   1  14
TORSDOF 7
ENDMDL
MODEL 2
REMARK VINA RESULT:    -4.070     20.663     21.918
REMARK INTER + INTRA:          -5.796
REMARK INTER:                  -5.189
REMARK INTRA:                  -0.607
REMARK UNBOUND:                -0.299
REMARK  Name = 
REMARK  10 active torsions:
REMARK  status: ('A' for Active; 'I' for Inactive)
REMARK    1  A    between atoms: C_1  and  C_2
REMARK    2  A    between atoms: C_5  and  N_8
REMARK    3  A    between atoms: N_8  and  C_9
REMARK    4  A    between atoms: N_8  and  C_13
REMARK    5  A    between atoms: C_9  and  C_10
REMARK    6  A    between atoms: C_10  and  C_11
REMARK    7  A    between atoms: C_10  and  O_12
REMARK    8  A    between atoms: C_13  and  C_14
REMARK    9  A    between atoms: C_14  and  C_15
REMARK   10  A    between atoms: C_14  and  O_16
REMARK                            x       y       z     vdW  Elec       q    Type
REMARK                         _______ _______ _______ _____ _____    ______ ____
ROOT
ATOM      1  N   UNL     1       3.317  21.176 -16.050  0.00  0.00    +0.000 N 
ENDROOT
BRANCH   1   6
ATOM      2  C   UNL     1      -1.874  22.540 -13.924  0.00  0.00    +0.000 C 
ATOM      3  C   UNL     1      -0.538  22.168 -14.489  0.00  0.00    +0.000 A 
ATOM      4  C   UNL     1       0.275  21.239 -13.849  0.00  0.00    +0.000 A 
ATOM      5  C   UNL     1       1.540  20.917 -14.367  0.00  0.00    +0.000 A 
ATOM      6  C   UNL     1       2.063  21.517 -15.527  0.00  0.00    +0.000 A 
ATOM      7  C   UNL     1       1.213  22.449 -16.150  0.00  0.00    +0.000 A 
ATOM      8  C   UNL     1      -0.055  22.779 -15.643  0.00  0.00    +0.000 A 
ENDBRANCH   1   6
BRANCH   1   9
ATOM      9  C   UNL     1       4.528  21.277 -15.201  0.00  0.00    +0.000 C 
BRANCH   9  10
ATOM     10  C   UNL     1       5.823  20.887 -15.954  0.00  0.00    +0.000 C 
ATOM     11  C   UNL     1       7.047  21.511 -15.294  0.00  0.00    +0.000 C 
BRANCH  10  12
ATOM     12  O   UNL     1       6.003  19.464 -15.966  0.00  0.00    +0.000 OA
ATOM     13  H   UNL     1       6.631  19.245 -16.675  0.00  0.00    +0.000 HD
ENDBRANCH  10  12
ENDBRANCH   9  10
ENDBRANCH   1   9
BRANCH   1  14
ATOM     14  C   UNL     1       3.575  21.209 -17.512  0.00  0.00    +0.000 C 
BRANCH  14  15
ATOM     15  C   UNL     1       3.002  19.966 -18.235  0.00  0.00    +0.000 C 
ATOM     16  C   UNL     1       3.473  19.842 -19.679  0.00  0.00    +0.000 C 
BRANCH  15  17
ATOM     17  O   UNL     1       3.341  18.758 -17.554  0.00  0.00    +0.000 OA
ATOM     18  H   UNL     1       3.746  18.188 -18.239  0.00  0.00    +0.000 HD
ENDBRANCH  15  17
ENDBRANCH  14  15
ENDBRANCH   1  14
TORSDOF 7
ENDMDL
MODEL 3
REMARK VINA RESULT:    -3.956      1.400      5.229
REMARK INTER + INTRA:          -5.642
REMARK INTER:                  -4.982
REMARK INTRA:                  -0.660
REMARK UNBOUND:                -0.299
REMARK  Name = 
REMARK  10 active torsions:
REMARK  status: ('A' for Active; 'I' for Inactive)
REMARK    1  A    between atoms: C_1  and  C_2
REMARK    2  A    between atoms: C_5  and  N_8
REMARK    3  A    between atoms: N_8  and  C_9
REMARK    4  A    between atoms: N_8  and  C_13
REMARK    5  A    between atoms: C_9  and  C_10
REMARK    6  A    between atoms: C_10  and  C_11
REMARK    7  A    between atoms: C_10  and  O_12
REMARK    8  A    between atoms: C_13  and  C_14
REMARK    9  A    between atoms: C_14  and  C_15
REMARK   10  A    between atoms: C_14  and  O_16
REMARK                            x       y       z     vdW  Elec       q    Type
REMARK                         _______ _______ _______ _____ _____    ______ ____
ROOT
ATOM      1  N   UNL     1     -11.286   4.460 -16.592  0.00  0.00    +0.000 N 
ENDROOT
BRANCH   1   6
ATOM      2  C   UNL     1     -10.976   9.770 -18.835  0.00  0.00    +0.000 C 
ATOM      3  C   UNL     1     -11.066   8.384 -18.274  0.00  0.00    +0.000 A 
ATOM      4  C   UNL     1     -12.195   7.967 -17.578  0.00  0.00    +0.000 A 
ATOM      5  C   UNL     1     -12.261   6.676 -17.029  0.00  0.00    +0.000 A 
ATOM      6  C   UNL     1     -11.205   5.752 -17.125  0.00  0.00    +0.000 A 
ATOM      7  C   UNL     1     -10.080   6.207 -17.838  0.00  0.00    +0.000 A 
ATOM      8  C   UNL     1     -10.002   7.494 -18.394  0.00  0.00    +0.000 A 
ENDBRANCH   1   6
BRANCH   1   9
ATOM      9  C   UNL     1     -11.112   3.280 -17.473  0.00  0.00    +0.000 C 
BRANCH   9  10
ATOM     10  C   UNL     1     -10.657   2.017 -16.702  0.00  0.00    +0.000 C 
ATOM     11  C   UNL     1     -10.669   0.791 -17.608  0.00  0.00    +0.000 C 
BRANCH  10  12
ATOM     12  O   UNL     1      -9.327   2.177 -16.189  0.00  0.00    +0.000 OA
ATOM     13  H   UNL     1      -9.325   2.944 -15.592  0.00  0.00    +0.000 HD
ENDBRANCH  10  12
ENDBRANCH   9  10
ENDBRANCH   1   9
BRANCH   1  14
ATOM     14  C   UNL     1     -12.023   4.193 -15.330  0.00  0.00    +0.000 C 
BRANCH  14  15
ATOM     15  C   UNL     1     -11.162   4.487 -14.078  0.00  0.00    +0.000 C 
ATOM     16  C   UNL     1     -11.421   3.518 -12.931  0.00  0.00    +0.000 C 
BRANCH  15  17
ATOM     17  O   UNL     1      -9.767   4.454 -14.377  0.00  0.00    +0.000 OA
ATOM     18  H   UNL     1      -9.707   4.020 -15.252  0.00  0.00    +0.000 HD
ENDBRANCH  15  17
ENDBRANCH  14  15
ENDBRANCH   1  14
TORSDOF 7
ENDMDL
MODEL 4
REMARK VINA RESULT:    -3.915      1.604      4.882
REMARK INTER + INTRA:          -5.587
REMARK INTER:                  -5.054
REMARK INTRA:                  -0.533
REMARK UNBOUND:                -0.299
REMARK  Name = 
REMARK  10 active torsions:
REMARK  status: ('A' for Active; 'I' for Inactive)
REMARK    1  A    between atoms: C_1  and  C_2
REMARK    2  A    between atoms: C_5  and  N_8
REMARK    3  A    between atoms: N_8  and  C_9
REMARK    4  A    between atoms: N_8  and  C_13
REMARK    5  A    between atoms: C_9  and  C_10
REMARK    6  A    between atoms: C_10  and  C_11
REMARK    7  A    between atoms: C_10  and  O_12
REMARK    8  A    between atoms: C_13  and  C_14
REMARK    9  A    between atoms: C_14  and  C_15
REMARK   10  A    between atoms: C_14  and  O_16
REMARK                            x       y       z     vdW  Elec       q    Type
REMARK                         _______ _______ _______ _____ _____    ______ ____
ROOT
ATOM      1  N   UNL     1     -11.292   4.834 -16.188  0.00  0.00    +0.000 N 
ENDROOT
BRANCH   1   6
ATOM      2  C   UNL     1     -11.255   9.871 -19.008  0.00  0.00    +0.000 C 
ATOM      3  C   UNL     1     -11.274   8.552 -18.297  0.00  0.00    +0.000 A 
ATOM      4  C   UNL     1     -12.382   8.156 -17.555  0.00  0.00    +0.000 A 
ATOM      5  C   UNL     1     -12.382   6.933 -16.866  0.00  0.00    +0.000 A 
ATOM      6  C   UNL     1     -11.278   6.061 -16.862  0.00  0.00    +0.000 A 
ATOM      7  C   UNL     1     -10.176   6.493 -17.623  0.00  0.00    +0.000 A 
ATOM      8  C   UNL     1     -10.164   7.713 -18.319  0.00  0.00    +0.000 A 
ENDBRANCH   1   6
BRANCH   1   9
ATOM      9  C   UNL     1     -10.694   4.721 -14.836  0.00  0.00    +0.000 C 
BRANCH   9  10
ATOM     10  C   UNL     1     -11.753   4.499 -13.728  0.00  0.00    +0.000 C 
ATOM     11  C   UNL     1     -11.592   3.125 -13.088  0.00  0.00    +0.000 C 
BRANCH  10  12
ATOM     12  O   UNL     1     -11.632   5.487 -12.695  0.00  0.00    +0.000 OA
ATOM     13  H   UNL     1     -11.063   6.201 -13.026  0.00  0.00    +0.000 HD
ENDBRANCH  10  12
ENDBRANCH   9  10
ENDBRANCH   1   9
BRANCH   1  14
ATOM     14  C   UNL     1     -11.408   3.551 -16.928  0.00  0.00    +0.000 C 
BRANCH  14  15
ATOM     15  C   UNL     1     -10.256   2.575 -16.589  0.00  0.00    +0.000 C 
ATOM     16  C   UNL     1     -10.733   1.151 -16.329  0.00  0.00    +0.000 C 
BRANCH  15  17
ATOM     17  O   UNL     1      -9.279   2.531 -17.628  0.00  0.00    +0.000 OA
ATOM     18  H   UNL     1      -9.351   1.631 -18.005  0.00  0.00    +0.000 HD
ENDBRANCH  15  17
ENDBRANCH  14  15
ENDBRANCH   1  14
TORSDOF 7
ENDMDL
MODEL 5
REMARK VINA RESULT:    -3.881     20.301     21.916
REMARK INTER + INTRA:          -5.540
REMARK INTER:                  -5.014
REMARK INTRA:                  -0.526
REMARK UNBOUND:                -0.299
REMARK  Name = 
REMARK  10 active torsions:
REMARK  status: ('A' for Active; 'I' for Inactive)
REMARK    1  A    between atoms: C_1  and  C_2
REMARK    2  A    between atoms: C_5  and  N_8
REMARK    3  A    between atoms: N_8  and  C_9
REMARK    4  A    between atoms: N_8  and  C_13
REMARK    5  A    between atoms: C_9  and  C_10
REMARK    6  A    between atoms: C_10  and  C_11
REMARK    7  A    between atoms: C_10  and  O_12
REMARK    8  A    between atoms: C_13  and  C_14
REMARK    9  A    between atoms: C_14  and  C_15
REMARK   10  A    between atoms: C_14  and  O_16
REMARK                            x       y       z     vdW  Elec       q    Type
REMARK                         _______ _______ _______ _____ _____    ______ ____
ROOT
ATOM      1  N   UNL     1       3.371  21.574 -16.179  0.00  0.00    +0.000 N 
ENDROOT
BRANCH   1   6
ATOM      2  C   UNL     1      -2.175  22.101 -14.662  0.00  0.00    +0.000 C 
ATOM      3  C   UNL     1      -0.730  21.984 -15.041  0.00  0.00    +0.000 A 
ATOM      4  C   UNL     1      -0.235  22.622 -16.174  0.00  0.00    +0.000 A 
ATOM      5  C   UNL     1       1.113  22.484 -16.542  0.00  0.00    +0.000 A 
ATOM      6  C   UNL     1       2.022  21.691 -15.818  0.00  0.00    +0.000 A 
ATOM      7  C   UNL     1       1.488  21.063 -14.678  0.00  0.00    +0.000 A 
ATOM      8  C   UNL     1       0.142  21.194 -14.298  0.00  0.00    +0.000 A 
ENDBRANCH   1   6
BRANCH   1   9
ATOM      9  C   UNL     1       3.741  21.299 -17.588  0.00  0.00    +0.000 C 
BRANCH   9  10
ATOM     10  C   UNL     1       2.978  20.091 -18.185  0.00  0.00    +0.000 C 
ATOM     11  C   UNL     1       3.237  19.968 -19.681  0.00  0.00    +0.000 C 
BRANCH  10  12
ATOM     12  O   UNL     1       3.386  18.865 -17.561  0.00  0.00    +0.000 OA
ATOM     13  H   UNL     1       2.586  18.369 -17.320  0.00  0.00    +0.000 HD
ENDBRANCH  10  12
ENDBRANCH   9  10
ENDBRANCH   1   9
BRANCH   1  14
ATOM     14  C   UNL     1       4.406  21.209 -15.178  0.00  0.00    +0.000 C 
BRANCH  14  15
ATOM     15  C   UNL     1       5.777  20.920 -15.835  0.00  0.00    +0.000 C 
ATOM     16  C   UNL     1       6.948  21.522 -15.068  0.00  0.00    +0.000 C 
BRANCH  15  17
ATOM     17  O   UNL     1       6.012  19.519 -15.971  0.00  0.00    +0.000 OA
ATOM     18  H   UNL     1       6.079  19.184 -15.055  0.00  0.00    +0.000 HD
ENDBRANCH  15  17
ENDBRANCH  14  15
ENDBRANCH   1  14
TORSDOF 7
ENDMDL
MODEL 6
REMARK VINA RESULT:    -3.775      1.639      4.851
REMARK INTER + INTRA:          -5.397
REMARK INTER:                  -4.764
REMARK INTRA:                  -0.633
REMARK UNBOUND:                -0.299
REMARK  Name = 
REMARK  10 active torsions:
REMARK  status: ('A' for Active; 'I' for Inactive)
REMARK    1  A    between atoms: C_1  and  C_2
REMARK    2  A    between atoms: C_5  and  N_8
REMARK    3  A    between atoms: N_8  and  C_9
REMARK    4  A    between atoms: N_8  and  C_13
REMARK    5  A    between atoms: C_9  and  C_10
REMARK    6  A    between atoms: C_10  and  C_11
REMARK    7  A    between atoms: C_10  and  O_12
REMARK    8  A    between atoms: C_13  and  C_14
REMARK    9  A    between atoms: C_14  and  C_15
REMARK   10  A    between atoms: C_14  and  O_16
REMARK                            x       y       z     vdW  Elec       q    Type
REMARK                         _______ _______ _______ _____ _____    ______ ____
ROOT
ATOM      1  N   UNL     1     -11.290   4.615 -17.172  0.00  0.00    +0.000 N 
ENDROOT
BRANCH   1   6
ATOM      2  C   UNL     1     -10.884  10.109 -18.897  0.00  0.00    +0.000 C 
ATOM      3  C   UNL     1     -10.983   8.691 -18.427  0.00  0.00    +0.000 A 
ATOM      4  C   UNL     1      -9.881   7.844 -18.472  0.00  0.00    +0.000 A 
ATOM      5  C   UNL     1      -9.988   6.506 -18.058  0.00  0.00    +0.000 A 
ATOM      6  C   UNL     1     -11.195   5.944 -17.603  0.00  0.00    +0.000 A 
ATOM      7  C   UNL     1     -12.288   6.830 -17.568  0.00  0.00    +0.000 A 
ATOM      8  C   UNL     1     -12.194   8.170 -17.978  0.00  0.00    +0.000 A 
ENDBRANCH   1   6
BRANCH   1   9
ATOM      9  C   UNL     1     -11.771   4.309 -15.804  0.00  0.00    +0.000 C 
BRANCH   9  10
ATOM     10  C   UNL     1     -11.031   5.120 -14.712  0.00  0.00    +0.000 C 
ATOM     11  C   UNL     1     -11.922   5.335 -13.495  0.00  0.00    +0.000 C 
BRANCH  10  12
ATOM     12  O   UNL     1      -9.846   4.437 -14.280  0.00  0.00    +0.000 OA
ATOM     13  H   UNL     1      -9.707   3.674 -14.865  0.00  0.00    +0.000 HD
ENDBRANCH  10  12
ENDBRANCH   9  10
ENDBRANCH   1   9
BRANCH   1  14
ATOM     14  C   UNL     1     -10.476   3.543 -17.802  0.00  0.00    +0.000 C 
BRANCH  14  15
ATOM     15  C   UNL     1     -10.463   2.247 -16.956  0.00  0.00    +0.000 C 
ATOM     16  C   UNL     1     -10.596   0.982 -17.796  0.00  0.00    +0.000 C 
BRANCH  15  17
ATOM     17  O   UNL     1      -9.271   2.138 -16.179  0.00  0.00    +0.000 OA
ATOM     18  H   UNL     1      -9.228   2.969 -15.665  0.00  0.00    +0.000 HD
ENDBRANCH  15  17
ENDBRANCH  14  15
ENDBRANCH   1  14
TORSDOF 7
ENDMDL
MODEL 7
REMARK VINA RESULT:    -3.689     21.489     23.522
REMARK INTER + INTRA:          -5.282
REMARK INTER:                  -4.672
REMARK INTRA:                  -0.610
REMARK UNBOUND:                -0.299
REMARK  Name = 
REMARK  10 active torsions:
REMARK  status: ('A' for Active; 'I' for Inactive)
REMARK    1  A    between atoms: C_1  and  C_2
REMARK    2  A    between atoms: C_5  and  N_8
REMARK    3  A    between atoms: N_8  and  C_9
REMARK    4  A    between atoms: N_8  and  C_13
REMARK    5  A    between atoms: C_9  and  C_10
REMARK    6  A    between atoms: C_10  and  C_11
REMARK    7  A    between atoms: C_10  and  O_12
REMARK    8  A    between atoms: C_13  and  C_14
REMARK    9  A    between atoms: C_14  and  C_15
REMARK   10  A    between atoms: C_14  and  O_16
REMARK                            x       y       z     vdW  Elec       q    Type
REMARK                         _______ _______ _______ _____ _____    ______ ____
ROOT
ATOM      1  N   UNL     1       4.142  21.498 -16.473  0.00  0.00    +0.000 N 
ENDROOT
BRANCH   1   6
ATOM      2  C   UNL     1       9.378  21.652 -14.047  0.00  0.00    +0.000 C 
ATOM      3  C   UNL     1       8.026  21.632 -14.691  0.00  0.00    +0.000 A 
ATOM      4  C   UNL     1       6.957  22.322 -14.129  0.00  0.00    +0.000 A 
ATOM      5  C   UNL     1       5.683  22.275 -14.720  0.00  0.00    +0.000 A 
ATOM      6  C   UNL     1       5.409  21.525 -15.878  0.00  0.00    +0.000 A 
ATOM      7  C   UNL     1       6.514  20.842 -16.420  0.00  0.00    +0.000 A 
ATOM      8  C   UNL     1       7.792  20.882 -15.840  0.00  0.00    +0.000 A 
ENDBRANCH   1   6
BRANCH   1   9
ATOM      9  C   UNL     1       4.012  21.297 -17.936  0.00  0.00    +0.000 C 
BRANCH   9  10
ATOM     10  C   UNL     1       3.057  20.133 -18.300  0.00  0.00    +0.000 C 
ATOM     11  C   UNL     1       3.240  19.712 -19.753  0.00  0.00    +0.000 C 
BRANCH  10  12
ATOM     12  O   UNL     1       3.303  18.988 -17.471  0.00  0.00    +0.000 OA
ATOM     13  H   UNL     1       4.109  18.551 -17.792  0.00  0.00    +0.000 HD
ENDBRANCH  10  12
ENDBRANCH   9  10
ENDBRANCH   1   9
BRANCH   1  14
ATOM     14  C   UNL     1       2.975  22.151 -15.827  0.00  0.00    +0.000 C 
BRANCH  14  15
ATOM     15  C   UNL     1       2.443  21.337 -14.623  0.00  0.00    +0.000 C 
ATOM     16  C   UNL     1       1.505  22.136 -13.725  0.00  0.00    +0.000 C 
BRANCH  15  17
ATOM     17  O   UNL     1       1.754  20.160 -15.045  0.00  0.00    +0.000 OA
ATOM     18  H   UNL     1       0.869  20.472 -15.323  0.00  0.00    +0.000 HD
ENDBRANCH  15  17
ENDBRANCH  14  15
ENDBRANCH   1  14
TORSDOF 7
ENDMDL
MODEL 8
REMARK VINA RESULT:    -3.640      1.196      3.407
REMARK INTER + INTRA:          -5.216
REMARK INTER:                  -4.670
REMARK INTRA:                  -0.546
REMARK UNBOUND:                -0.299
REMARK  Name = 
REMARK  10 active torsions:
REMARK  status: ('A' for Active; 'I' for Inactive)
REMARK    1  A    between atoms: C_1  and  C_2
REMARK    2  A    between atoms: C_5  and  N_8
REMARK    3  A    between atoms: N_8  and  C_9
REMARK    4  A    between atoms: N_8  and  C_13
REMARK    5  A    between atoms: C_9  and  C_10
REMARK    6  A    between atoms: C_10  and  C_11
REMARK    7  A    between atoms: C_10  and  O_12
REMARK    8  A    between atoms: C_13  and  C_14
REMARK    9  A    between atoms: C_14  and  C_15
REMARK   10  A    between atoms: C_14  and  O_16
REMARK                            x       y       z     vdW  Elec       q    Type
REMARK                         _______ _______ _______ _____ _____    ______ ____
ROOT
ATOM      1  N   UNL     1     -11.269   4.611 -16.967  0.00  0.00    +0.000 N 
ENDROOT
BRANCH   1   6
ATOM      2  C   UNL     1     -12.382   3.670 -11.381  0.00  0.00    +0.000 C 
ATOM      3  C   UNL     1     -12.069   3.920 -12.825  0.00  0.00    +0.000 A 
ATOM      4  C   UNL     1     -12.264   5.175 -13.391  0.00  0.00    +0.000 A 
ATOM      5  C   UNL     1     -11.998   5.396 -14.752  0.00  0.00    +0.000 A 
ATOM      6  C   UNL     1     -11.551   4.379 -15.615  0.00  0.00    +0.000 A 
ATOM      7  C   UNL     1     -11.363   3.123 -15.008  0.00  0.00    +0.000 A 
ATOM      8  C   UNL     1     -11.623   2.890 -13.648  0.00  0.00    +0.000 A 
ENDBRANCH   1   6
BRANCH   1   9
ATOM      9  C   UNL     1     -10.335   3.718 -17.696  0.00  0.00    +0.000 C 
BRANCH   9  10
ATOM     10  C   UNL     1     -11.010   2.979 -18.877  0.00  0.00    +0.000 C 
ATOM     11  C   UNL     1     -10.185   1.773 -19.309  0.00  0.00    +0.000 C 
BRANCH  10  12
ATOM     12  O   UNL     1     -12.318   2.515 -18.514  0.00  0.00    +0.000 OA
ATOM     13  H   UNL     1     -12.214   1.748 -17.927  0.00  0.00    +0.000 HD
ENDBRANCH  10  12
ENDBRANCH   9  10
ENDBRANCH   1   9
BRANCH   1  14
ATOM     14  C   UNL     1     -11.441   5.958 -17.569  0.00  0.00    +0.000 C 
BRANCH  14  15
ATOM     15  C   UNL     1     -10.087   6.664 -17.818  0.00  0.00    +0.000 C 
ATOM     16  C   UNL     1     -10.222   7.951 -18.624  0.00  0.00    +0.000 C 
BRANCH  15  17
ATOM     17  O   UNL     1      -9.422   6.976 -16.595  0.00  0.00    +0.000 OA
ATOM     18  H   UNL     1      -9.683   7.897 -16.393  0.00  0.00    +0.000 HD
ENDBRANCH  15  17
ENDBRANCH  14  15
ENDBRANCH   1  14
TORSDOF 7
ENDMDL
MODEL 9
REMARK VINA RESULT:    -3.637      1.558      4.755
REMARK INTER + INTRA:          -5.211
REMARK INTER:                  -4.671
REMARK INTRA:                  -0.540
REMARK UNBOUND:                -0.299
REMARK  Name = 
REMARK  10 active torsions:
REMARK  status: ('A' for Active; 'I' for Inactive)
REMARK    1  A    between atoms: C_1  and  C_2
REMARK    2  A    between atoms: C_5  and  N_8
REMARK    3  A    between atoms: N_8  and  C_9
REMARK    4  A    between atoms: N_8  and  C_13
REMARK    5  A    between atoms: C_9  and  C_10
REMARK    6  A    between atoms: C_10  and  C_11
REMARK    7  A    between atoms: C_10  and  O_12
REMARK    8  A    between atoms: C_13  and  C_14
REMARK    9  A    between atoms: C_14  and  C_15
REMARK   10  A    between atoms: C_14  and  O_16
REMARK                            x       y       z     vdW  Elec       q    Type
REMARK                         _______ _______ _______ _____ _____    ______ ____
ROOT
ATOM      1  N   UNL     1     -11.904   4.224 -16.081  0.00  0.00    +0.000 N 
ENDROOT
BRANCH   1   6
ATOM      2  C   UNL     1      -8.599   0.664 -19.200  0.00  0.00    +0.000 C 
ATOM      3  C   UNL     1      -9.438   1.605 -18.392  0.00  0.00    +0.000 A 
ATOM      4  C   UNL     1      -9.409   1.574 -17.001  0.00  0.00    +0.000 A 
ATOM      5  C   UNL     1     -10.220   2.438 -16.248  0.00  0.00    +0.000 A 
ATOM      6  C   UNL     1     -11.112   3.352 -16.838  0.00  0.00    +0.000 A 
ATOM      7  C   UNL     1     -11.114   3.357 -18.245  0.00  0.00    +0.000 A 
ATOM      8  C   UNL     1     -10.306   2.500 -19.010  0.00  0.00    +0.000 A 
ENDBRANCH   1   6
BRANCH   1   9
ATOM      9  C   UNL     1     -11.872   5.682 -16.352  0.00  0.00    +0.000 C 
BRANCH   9  10
ATOM     10  C   UNL     1     -10.472   6.181 -16.785  0.00  0.00    +0.000 C 
ATOM     11  C   UNL     1     -10.587   7.320 -17.791  0.00  0.00    +0.000 C 
BRANCH  10  12
ATOM     12  O   UNL     1      -9.724   6.658 -15.658  0.00  0.00    +0.000 OA
ATOM     13  H   UNL     1      -9.509   5.896 -15.095  0.00  0.00    +0.000 HD
ENDBRANCH  10  12
ENDBRANCH   9  10
ENDBRANCH   1   9
BRANCH   1  14
ATOM     14  C   UNL     1     -12.376   3.851 -14.723  0.00  0.00    +0.000 C 
BRANCH  14  15
ATOM     15  C   UNL     1     -11.778   4.765 -13.626  0.00  0.00    +0.000 C 
ATOM     16  C   UNL     1     -12.382   4.521 -12.248  0.00  0.00    +0.000 C 
BRANCH  15  17
ATOM     17  O   UNL     1     -10.363   4.607 -13.522  0.00  0.00    +0.000 OA
ATOM     18  H   UNL     1     -10.004   5.516 -13.569  0.00  0.00    +0.000 HD
ENDBRANCH  15  17
ENDBRANCH  14  15
ENDBRANCH   1  14
TORSDOF 7
ENDMDL
