MODEL 1
REMARK VINA RESULT:    -5.012      0.000      0.000
REMARK INTER + INTRA:          -5.488
REMARK INTER:                  -5.452
REMARK INTRA:                  -0.036
REMARK UNBOUND:                -0.036
REMARK  Name = 
REMARK  3 active torsions:
REMARK  status: ('A' for Active; 'I' for Inactive)
REMARK    1  A    between atoms: C_1  and  O_2
REMARK    2  A    between atoms: O_2  and  C_3
REMARK    3  A    between atoms: C_8  and  O_9
REMARK                            x       y       z     vdW  Elec       q    Type
REMARK                         _______ _______ _______ _____ _____    ______ ____
ROOT
ATOM      1  C   UNL     1       6.786  12.797   2.481  0.00  0.00    +0.000 A 
ATOM      2  C   UNL     1       6.849  13.538   3.659  0.00  0.00    +0.000 A 
ATOM      3  C   UNL     1       6.027  13.202   4.742  0.00  0.00    +0.000 A 
ATOM      4  C   UNL     1       5.140  12.128   4.651  0.00  0.00    +0.000 A 
ATOM      5  C   UNL     1       5.072  11.382   3.477  0.00  0.00    +0.000 A 
ATOM      6  C   UNL     1       5.891  11.722   2.408  0.00  0.00    +0.000 A 
ENDROOT
BRANCH   1   8
ATOM      7  C   UNL     1       8.882  12.577   1.382  0.00  0.00    +0.000 C 
ATOM      8  O   UNL     1       7.528  13.012   1.347  0.00  0.00    +0.000 OA
ENDBRANCH   1   8
BRANCH   6   9
ATOM      9  O   UNL     1       5.806  10.974   1.264  0.00  0.00    +0.000 OA
ATOM     10  H   UNL     1       4.850  10.920   1.073  0.00  0.00    +0.000 HD
ENDBRANCH   6   9
TORSDOF 2
ENDMDL
MODEL 2
REMARK VINA RESULT:    -4.671      1.982      3.375
REMARK INTER + INTRA:          -5.117
REMARK INTER:                  -5.068
REMARK INTRA:                  -0.049
REMARK UNBOUND:                -0.036
REMARK  Name = 
REMARK  3 active torsions:
REMARK  status: ('A' for Active; 'I' for Inactive)
REMARK    1  A    between atoms: C_1  and  O_2
REMARK    2  A    between atoms: O_2  and  C_3
REMARK    3  A    between atoms: C_8  and  O_9
REMARK                            x       y       z     vdW  Elec       q    Type
REMARK                         _______ _______ _______ _____ _____    ______ ____
ROOT
ATOM      1  C   UNL     1       5.393  12.393   4.225  0.00  0.00    +0.000 A 
ATOM      2  C   UNL     1       5.784  13.722   4.067  0.00  0.00    +0.000 A 
ATOM      3  C   UNL     1       6.151  14.198   2.802  0.00  0.00    +0.000 A 
ATOM      4  C   UNL     1       6.128  13.350   1.693  0.00  0.00    +0.000 A 
ATOM      5  C   UNL     1       5.738  12.021   1.842  0.00  0.00    +0.000 A 
ATOM      6  C   UNL     1       5.377  11.557   3.101  0.00  0.00    +0.000 A 
ENDROOT
BRANCH   1   8
ATOM      7  C   UNL     1       4.025  12.473   6.166  0.00  0.00    +0.000 C 
ATOM      8  O   UNL     1       5.011  11.794   5.398  0.00  0.00    +0.000 OA
ENDBRANCH   1   8
BRANCH   6   9
ATOM      9  O   UNL     1       4.997  10.247   3.223  0.00  0.00    +0.000 OA
ATOM     10  H   UNL     1       5.826   9.764   3.402  0.00  0.00    +0.000 HD
ENDBRANCH   6   9
TORSDOF 2
ENDMDL
MODEL 3
REMARK VINA RESULT:    -4.279      2.388      3.358
REMARK INTER + INTRA:          -4.690
REMARK INTER:                  -4.642
REMARK INTRA:                  -0.048
REMARK UNBOUND:                -0.036
REMARK  Name = 
REMARK  3 active torsions:
REMARK  status: ('A' for Active; 'I' for Inactive)
REMARK    1  A    between atoms: C_1  and  O_2
REMARK    2  A    between atoms: O_2  and  C_3
REMARK    3  A    between atoms: C_8  and  O_9
REMARK                            x       y       z     vdW  Elec       q    Type
REMARK                         _______ _______ _______ _____ _____    ______ ____
ROOT
ATOM      1  C   UNL     1       5.864  13.354   4.602  0.00  0.00    +0.000 A 
ATOM      2  C   UNL     1       6.655  13.736   3.519  0.00  0.00    +0.000 A 
ATOM      3  C   UNL     1       6.704  12.934   2.372  0.00  0.00    +0.000 A 
ATOM      4  C   UNL     1       5.966  11.751   2.303  0.00  0.00    +0.000 A 
ATOM      5  C   UNL     1       5.173  11.364   3.381  0.00  0.00    +0.000 A 
ATOM      6  C   UNL     1       5.130  12.165   4.515  0.00  0.00    +0.000 A 
ENDROOT
BRANCH   1   8
ATOM      7  C   UNL     1       6.921  14.463   6.419  0.00  0.00    +0.000 C 
ATOM      8  O   UNL     1       5.722  14.038   5.783  0.00  0.00    +0.000 OA
ENDBRANCH   1   8
BRANCH   6   9
ATOM      9  O   UNL     1       4.344  11.763   5.561  0.00  0.00    +0.000 OA
ATOM     10  H   UNL     1       3.500  11.496   5.149  0.00  0.00    +0.000 HD
ENDBRANCH   6   9
TORSDOF 2
ENDMDL
MODEL 4
REMARK VINA RESULT:    -4.212      2.306      4.055
REMARK INTER + INTRA:          -4.617
REMARK INTER:                  -4.565
REMARK INTRA:                  -0.052
REMARK UNBOUND:                -0.036
REMARK  Name = 
REMARK  3 active torsions:
REMARK  status: ('A' for Active; 'I' for Inactive)
REMARK    1  A    between atoms: C_1  and  O_2
REMARK    2  A    between atoms: O_2  and  C_3
REMARK    3  A    between atoms: C_8  and  O_9
REMARK                            x       y       z     vdW  Elec       q    Type
REMARK                         _______ _______ _______ _____ _____    ______ ____
ROOT
ATOM      1  C   UNL     1       5.498  12.513   4.571  0.00  0.00    +0.000 A 
ATOM      2  C   UNL     1       5.104  11.497   3.702  0.00  0.00    +0.000 A 
ATOM      3  C   UNL     1       5.649  11.428   2.413  0.00  0.00    +0.000 A 
ATOM      4  C   UNL     1       6.586  12.372   1.990  0.00  0.00    +0.000 A 
ATOM      5  C   UNL     1       6.985  13.391   2.853  0.00  0.00    +0.000 A 
ATOM      6  C   UNL     1       6.439  13.451   4.129  0.00  0.00    +0.000 A 
ENDROOT
BRANCH   1   8
ATOM      7  C   UNL     1       3.651  12.910   6.013  0.00  0.00    +0.000 C 
ATOM      8  O   UNL     1       5.049  12.702   5.853  0.00  0.00    +0.000 OA
ENDBRANCH   1   8
BRANCH   6   9
ATOM      9  O   UNL     1       6.846  14.461   4.959  0.00  0.00    +0.000 OA
ATOM     10  H   UNL     1       7.785  14.606   4.731  0.00  0.00    +0.000 HD
ENDBRANCH   6   9
TORSDOF 2
ENDMDL
MODEL 5
REMARK VINA RESULT:    -4.018      4.234      5.201
REMARK INTER + INTRA:          -4.406
REMARK INTER:                  -4.354
REMARK INTRA:                  -0.052
REMARK UNBOUND:                -0.036
REMARK  Name = 
REMARK  3 active torsions:
REMARK  status: ('A' for Active; 'I' for Inactive)
REMARK    1  A    between atoms: C_1  and  O_2
REMARK    2  A    between atoms: O_2  and  C_3
REMARK    3  A    between atoms: C_8  and  O_9
REMARK                            x       y       z     vdW  Elec       q    Type
REMARK                         _______ _______ _______ _____ _____    ______ ____
ROOT
ATOM      1  C   UNL     1       4.471  13.901   7.091  0.00  0.00    +0.000 A 
ATOM      2  C   UNL     1       4.132  15.074   7.764  0.00  0.00    +0.000 A 
ATOM      3  C   UNL     1       2.786  15.429   7.917  0.00  0.00    +0.000 A 
ATOM      4  C   UNL     1       1.776  14.615   7.398  0.00  0.00    +0.000 A 
ATOM      5  C   UNL     1       2.107  13.442   6.725  0.00  0.00    +0.000 A 
ATOM      6  C   UNL     1       3.444  13.098   6.578  0.00  0.00    +0.000 A 
ENDROOT
BRANCH   1   8
ATOM      7  C   UNL     1       6.541  14.177   5.957  0.00  0.00    +0.000 C 
ATOM      8  O   UNL     1       5.740  13.432   6.867  0.00  0.00    +0.000 OA
ENDBRANCH   1   8
BRANCH   6   9
ATOM      9  O   UNL     1       3.745  11.939   5.912  0.00  0.00    +0.000 OA
ATOM     10  H   UNL     1       2.985  11.350   6.083  0.00  0.00    +0.000 HD
ENDBRANCH   6   9
TORSDOF 2
ENDMDL
MODEL 6
REMARK VINA RESULT:    -4.016      3.297      4.422
REMARK INTER + INTRA:          -4.404
REMARK INTER:                  -4.365
REMARK INTRA:                  -0.039
REMARK UNBOUND:                -0.036
REMARK  Name = 
REMARK  3 active torsions:
REMARK  status: ('A' for Active; 'I' for Inactive)
REMARK    1  A    between atoms: C_1  and  O_2
REMARK    2  A    between atoms: O_2  and  C_3
REMARK    3  A    between atoms: C_8  and  O_9
REMARK                            x       y       z     vdW  Elec       q    Type
REMARK                         _______ _______ _______ _____ _____    ______ ____
ROOT
ATOM      1  C   UNL     1       5.228  13.606   6.159  0.00  0.00    +0.000 A 
ATOM      2  C   UNL     1       6.365  14.137   5.551  0.00  0.00    +0.000 A 
ATOM      3  C   UNL     1       6.808  13.621   4.326  0.00  0.00    +0.000 A 
ATOM      4  C   UNL     1       6.119  12.577   3.707  0.00  0.00    +0.000 A 
ATOM      5  C   UNL     1       4.982  12.042   4.308  0.00  0.00    +0.000 A 
ATOM      6  C   UNL     1       4.550  12.559   5.523  0.00  0.00    +0.000 A 
ENDROOT
BRANCH   1   8
ATOM      7  C   UNL     1       4.981  15.337   7.769  0.00  0.00    +0.000 C 
ATOM      8  O   UNL     1       4.683  14.010   7.351  0.00  0.00    +0.000 OA
ENDBRANCH   1   8
BRANCH   6   9
ATOM      9  O   UNL     1       3.430  12.017   6.094  0.00  0.00    +0.000 OA
ATOM     10  H   UNL     1       3.155  12.667   6.768  0.00  0.00    +0.000 HD
ENDBRANCH   6   9
TORSDOF 2
ENDMDL
MODEL 7
REMARK VINA RESULT:    -3.933      2.344      3.347
REMARK INTER + INTRA:          -4.314
REMARK INTER:                  -4.276
REMARK INTRA:                  -0.038
REMARK UNBOUND:                -0.036
REMARK  Name = 
REMARK  3 active torsions:
REMARK  status: ('A' for Active; 'I' for Inactive)
REMARK    1  A    between atoms: C_1  and  O_2
REMARK    2  A    between atoms: O_2  and  C_3
REMARK    3  A    between atoms: C_8  and  O_9
REMARK                            x       y       z     vdW  Elec       q    Type
REMARK                         _______ _______ _______ _____ _____    ______ ____
ROOT
ATOM      1  C   UNL     1       5.567  12.568   4.606  0.00  0.00    +0.000 A 
ATOM      2  C   UNL     1       6.763  13.282   4.530  0.00  0.00    +0.000 A 
ATOM      3  C   UNL     1       7.114  14.169   5.555  0.00  0.00    +0.000 A 
ATOM      4  C   UNL     1       6.275  14.346   6.657  0.00  0.00    +0.000 A 
ATOM      5  C   UNL     1       5.080  13.636   6.740  0.00  0.00    +0.000 A 
ATOM      6  C   UNL     1       4.739  12.759   5.718  0.00  0.00    +0.000 A 
ENDROOT
BRANCH   1   8
ATOM      7  C   UNL     1       5.760  11.654   2.421  0.00  0.00    +0.000 C 
ATOM      8  O   UNL     1       5.098  11.672   3.680  0.00  0.00    +0.000 OA
ENDBRANCH   1   8
BRANCH   6   9
ATOM      9  O   UNL     1       3.559  12.072   5.823  0.00  0.00    +0.000 OA
ATOM     10  H   UNL     1       3.266  12.220   6.742  0.00  0.00    +0.000 HD
ENDBRANCH   6   9
TORSDOF 2
ENDMDL
