MODEL 1
REMARK VINA RESULT:    -5.443      0.000      0.000
REMARK INTER + INTRA:          -7.903
REMARK INTER:                  -7.352
REMARK INTRA:                  -0.551
REMARK UNBOUND:                -0.551
REMARK  Name = 
REMARK  10 active torsions:
REMARK  status: ('A' for Active; 'I' for Inactive)
REMARK    1  A    between atoms: C_1  and  C_2
REMARK    2  A    between atoms: C_5  and  N_8
REMARK    3  A    between atoms: N_8  and  C_9
REMARK    4  A    between atoms: N_8  and  C_13
REMARK    5  A    between atoms: C_9  and  C_10
REMARK    6  A    between atoms: C_10  and  C_11
REMARK    7  A    between atoms: C_10  and  O_12
REMARK    8  A    between atoms: C_13  and  C_14
REMARK    9  A    between atoms: C_14  and  C_15
REMARK   10  A    between atoms: C_14  and  O_16
REMARK                            x       y       z     vdW  Elec       q    Type
REMARK                         _______ _______ _______ _____ _____    ______ ____
ROOT
ATOM      1  N   UNL     1       9.550  12.565   7.587  0.00  0.00    +0.000 N 
ENDROOT
BRANCH   1   6
ATOM      2  C   UNL     1      11.062  10.734   2.324  0.00  0.00    +0.000 C 
ATOM      3  C   UNL     1      10.653  11.190   3.692  0.00  0.00    +0.000 A 
ATOM      4  C   UNL     1       9.643  12.132   3.858  0.00  0.00    +0.000 A 
ATOM      5  C   UNL     1       9.285  12.579   5.140  0.00  0.00    +0.000 A 
ATOM      6  C   UNL     1       9.926  12.130   6.309  0.00  0.00    +0.000 A 
ATOM      7  C   UNL     1      10.940  11.177   6.103  0.00  0.00    +0.000 A 
ATOM      8  C   UNL     1      11.307  10.720   4.827  0.00  0.00    +0.000 A 
ENDBRANCH   1   6
BRANCH   1   9
ATOM      9  C   UNL     1      10.497  12.445   8.721  0.00  0.00    +0.000 C 
BRANCH   9  10
ATOM     10  C   UNL     1      11.344  13.723   8.935  0.00  0.00    +0.000 C 
ATOM     11  C   UNL     1      12.754  13.541   8.386  0.00  0.00    +0.000 C 
BRANCH  10  12
ATOM     12  O   UNL     1      10.751  14.850   8.274  0.00  0.00    +0.000 OA
ATOM     13  H   UNL     1      10.249  14.520   7.509  0.00  0.00    +0.000 HD
ENDBRANCH  10  12
ENDBRANCH   9  10
ENDBRANCH   1   9
BRANCH   1  14
ATOM     14  C   UNL     1       8.120  12.666   7.975  0.00  0.00    +0.000 C 
BRANCH  14  15
ATOM     15  C   UNL     1       7.423  11.284   8.001  0.00  0.00    +0.000 C 
ATOM     16  C   UNL     1       7.265  10.719   9.407  0.00  0.00    +0.000 C 
BRANCH  15  17
ATOM     17  O   UNL     1       6.131  11.334   7.398  0.00  0.00    +0.000 OA
ATOM     18  H   UNL     1       6.218  10.817   6.571  0.00  0.00    +0.000 HD
ENDBRANCH  15  17
ENDBRANCH  14  15
ENDBRANCH   1  14
TORSDOF 7
ENDMDL
MODEL 2
REMARK VINA RESULT:    -5.314      2.118      4.214
REMARK INTER + INTRA:          -7.729
REMARK INTER:                  -7.256
REMARK INTRA:                  -0.472
REMARK UNBOUND:                -0.551
REMARK  Name = 
REMARK  10 active torsions:
REMARK  status: ('A' for Active; 'I' for Inactive)
REMARK    1  A    between atoms: C_1  and  C_2
REMARK    2  A    between atoms: C_5  and  N_8
REMARK    3  A    between atoms: N_8  and  C_9
REMARK    4  A    between atoms: N_8  and  C_13
REMARK    5  A    between atoms: C_9  and  C_10
REMARK    6  A    between atoms: C_10  and  C_11
REMARK    7  A    between atoms: C_10  and  O_12
REMARK    8  A    between atoms: C_13  and  C_14
REMARK    9  A    between atoms: C_14  and  C_15
REMARK   10  A    between atoms: C_14  and  O_16
REMARK                            x       y       z     vdW  Elec       q    Type
REMARK                         _______ _______ _______ _____ _____    ______ ____
ROOT
ATOM      1  N   UNL     1       9.510  12.164   6.138  0.00  0.00    +0.000 N 
ENDROOT
BRANCH   1   6
ATOM      2  C   UNL     1      14.606  11.194   8.673  0.00  0.00    +0.000 C 
ATOM      3  C   UNL     1      13.272  11.434   8.034  0.00  0.00    +0.000 A 
ATOM      4  C   UNL     1      12.756  10.541   7.101  0.00  0.00    +0.000 A 
ATOM      5  C   UNL     1      11.519  10.786   6.483  0.00  0.00    +0.000 A 
ATOM      6  C   UNL     1      10.752  11.936   6.744  0.00  0.00    +0.000 A 
ATOM      7  C   UNL     1      11.304  12.815   7.694  0.00  0.00    +0.000 A 
ATOM      8  C   UNL     1      12.538  12.581   8.321  0.00  0.00    +0.000 A 
ENDBRANCH   1   6
BRANCH   1   9
ATOM      9  C   UNL     1       9.444  12.672   4.747  0.00  0.00    +0.000 C 
BRANCH   9  10
ATOM     10  C   UNL     1       9.701  11.568   3.692  0.00  0.00    +0.000 C 
ATOM     11  C   UNL     1       8.581  10.534   3.702  0.00  0.00    +0.000 C 
BRANCH  10  12
ATOM     12  O   UNL     1       9.779  12.125   2.373  0.00  0.00    +0.000 OA
ATOM     13  H   UNL     1       9.145  12.860   2.318  0.00  0.00    +0.000 HD
ENDBRANCH  10  12
ENDBRANCH   9  10
ENDBRANCH   1   9
BRANCH   1  14
ATOM     14  C   UNL     1       8.292  12.411   6.952  0.00  0.00    +0.000 C 
BRANCH  14  15
ATOM     15  C   UNL     1       7.462  11.122   7.166  0.00  0.00    +0.000 C 
ATOM     16  C   UNL     1       7.902  10.322   8.386  0.00  0.00    +0.000 C 
BRANCH  15  17
ATOM     17  O   UNL     1       6.071  11.408   7.302  0.00  0.00    +0.000 OA
ATOM     18  H   UNL     1       5.734  10.731   7.924  0.00  0.00    +0.000 HD
ENDBRANCH  15  17
ENDBRANCH  14  15
ENDBRANCH   1  14
TORSDOF 7
ENDMDL
MODEL 3
REMARK VINA RESULT:    -5.248      1.985      4.772
REMARK INTER + INTRA:          -7.639
REMARK INTER:                  -7.051
REMARK INTRA:                  -0.588
REMARK UNBOUND:                -0.551
REMARK  Name = 
REMARK  10 active torsions:
REMARK  status: ('A' for Active; 'I' for Inactive)
REMARK    1  A    between atoms: C_1  and  C_2
REMARK    2  A    between atoms: C_5  and  N_8
REMARK    3  A    between atoms: N_8  and  C_9
REMARK    4  A    between atoms: N_8  and  C_13
REMARK    5  A    between atoms: C_9  and  C_10
REMARK    6  A    between atoms: C_10  and  C_11
REMARK    7  A    between atoms: C_10  and  O_12
REMARK    8  A    between atoms: C_13  and  C_14
REMARK    9  A    between atoms: C_14  and  C_15
REMARK   10  A    between atoms: C_14  and  O_16
REMARK                            x       y       z     vdW  Elec       q    Type
REMARK                         _______ _______ _______ _____ _____    ______ ____
ROOT
ATOM      1  N   UNL     1       9.399  11.664   5.822  0.00  0.00    +0.000 N 
ENDROOT
BRANCH   1   6
ATOM      2  C   UNL     1      14.450  11.596   8.618  0.00  0.00    +0.000 C 
ATOM      3  C   UNL     1      13.129  11.601   7.911  0.00  0.00    +0.000 A 
ATOM      4  C   UNL     1      12.785  10.581   7.031  0.00  0.00    +0.000 A 
ATOM      5  C   UNL     1      11.558  10.606   6.349  0.00  0.00    +0.000 A 
ATOM      6  C   UNL     1      10.630  11.654   6.491  0.00  0.00    +0.000 A 
ATOM      7  C   UNL     1      11.010  12.668   7.390  0.00  0.00    +0.000 A 
ATOM      8  C   UNL     1      12.233  12.653   8.080  0.00  0.00    +0.000 A 
ENDBRANCH   1   6
BRANCH   1   9
ATOM      9  C   UNL     1       8.191  12.196   6.497  0.00  0.00    +0.000 C 
BRANCH   9  10
ATOM     10  C   UNL     1       7.356  11.092   7.192  0.00  0.00    +0.000 C 
ATOM     11  C   UNL     1       7.848  10.851   8.614  0.00  0.00    +0.000 C 
BRANCH  10  12
ATOM     12  O   UNL     1       5.971  11.459   7.257  0.00  0.00    +0.000 OA
ATOM     13  H   UNL     1       5.907  12.315   7.713  0.00  0.00    +0.000 HD
ENDBRANCH  10  12
ENDBRANCH   9  10
ENDBRANCH   1   9
BRANCH   1  14
ATOM     14  C   UNL     1       9.127  10.731   4.699  0.00  0.00    +0.000 C 
BRANCH  14  15
ATOM     15  C   UNL     1       9.405  11.379   3.321  0.00  0.00    +0.000 C 
ATOM     16  C   UNL     1      10.794  11.063   2.779  0.00  0.00    +0.000 C 
BRANCH  15  17
ATOM     17  O   UNL     1       8.447  10.972   2.345  0.00  0.00    +0.000 OA
ATOM     18  H   UNL     1       7.638  10.765   2.855  0.00  0.00    +0.000 HD
ENDBRANCH  15  17
ENDBRANCH  14  15
ENDBRANCH   1  14
TORSDOF 7
ENDMDL
MODEL 4
REMARK VINA RESULT:    -5.092      0.813      3.471
REMARK INTER + INTRA:          -7.429
REMARK INTER:                  -7.044
REMARK INTRA:                  -0.385
REMARK UNBOUND:                -0.551
REMARK  Name = 
REMARK  10 active torsions:
REMARK  status: ('A' for Active; 'I' for Inactive)
REMARK    1  A    between atoms: C_1  and  C_2
REMARK    2  A    between atoms: C_5  and  N_8
REMARK    3  A    between atoms: N_8  and  C_9
REMARK    4  A    between atoms: N_8  and  C_13
REMARK    5  A    between atoms: C_9  and  C_10
REMARK    6  A    between atoms: C_10  and  C_11
REMARK    7  A    between atoms: C_10  and  O_12
REMARK    8  A    between atoms: C_13  and  C_14
REMARK    9  A    between atoms: C_14  and  C_15
REMARK   10  A    between atoms: C_14  and  O_16
REMARK                            x       y       z     vdW  Elec       q    Type
REMARK                         _______ _______ _______ _____ _____    ______ ____
ROOT
ATOM      1  N   UNL     1       9.477  12.774   7.495  0.00  0.00    +0.000 N 
ENDROOT
BRANCH   1   6
ATOM      2  C   UNL     1      10.949  10.660   2.328  0.00  0.00    +0.000 C 
ATOM      3  C   UNL     1      10.550  11.191   3.671  0.00  0.00    +0.000 A 
ATOM      4  C   UNL     1       9.596  12.196   3.786  0.00  0.00    +0.000 A 
ATOM      5  C   UNL     1       9.247  12.711   5.046  0.00  0.00    +0.000 A 
ATOM      6  C   UNL     1       9.844  12.269   6.240  0.00  0.00    +0.000 A 
ATOM      7  C   UNL     1      10.802  11.251   6.086  0.00  0.00    +0.000 A 
ATOM      8  C   UNL     1      11.159  10.726   4.833  0.00  0.00    +0.000 A 
ENDBRANCH   1   6
BRANCH   1   9
ATOM      9  C   UNL     1       8.090  12.602   7.988  0.00  0.00    +0.000 C 
BRANCH   9  10
ATOM     10  C   UNL     1       7.504  11.207   7.659  0.00  0.00    +0.000 C 
ATOM     11  C   UNL     1       7.773  10.222   8.790  0.00  0.00    +0.000 C 
BRANCH  10  12
ATOM     12  O   UNL     1       6.086  11.278   7.459  0.00  0.00    +0.000 OA
ATOM     13  H   UNL     1       5.774  10.396   7.196  0.00  0.00    +0.000 HD
ENDBRANCH  10  12
ENDBRANCH   9  10
ENDBRANCH   1   9
BRANCH   1  14
ATOM     14  C   UNL     1      10.231  13.887   8.126  0.00  0.00    +0.000 C 
BRANCH  14  15
ATOM     15  C   UNL     1      11.484  13.388   8.886  0.00  0.00    +0.000 C 
ATOM     16  C   UNL     1      11.302  12.004   9.498  0.00  0.00    +0.000 C 
BRANCH  15  17
ATOM     17  O   UNL     1      12.632  13.349   8.040  0.00  0.00    +0.000 OA
ATOM     18  H   UNL     1      13.236  14.029   8.402  0.00  0.00    +0.000 HD
ENDBRANCH  15  17
ENDBRANCH  14  15
ENDBRANCH   1  14
TORSDOF 7
ENDMDL
MODEL 5
REMARK VINA RESULT:    -4.856      1.601      2.095
REMARK INTER + INTRA:          -7.110
REMARK INTER:                  -6.697
REMARK INTRA:                  -0.413
REMARK UNBOUND:                -0.551
REMARK  Name = 
REMARK  10 active torsions:
REMARK  status: ('A' for Active; 'I' for Inactive)
REMARK    1  A    between atoms: C_1  and  C_2
REMARK    2  A    between atoms: C_5  and  N_8
REMARK    3  A    between atoms: N_8  and  C_9
REMARK    4  A    between atoms: N_8  and  C_13
REMARK    5  A    between atoms: C_9  and  C_10
REMARK    6  A    between atoms: C_10  and  C_11
REMARK    7  A    between atoms: C_10  and  O_12
REMARK    8  A    between atoms: C_13  and  C_14
REMARK    9  A    between atoms: C_14  and  C_15
REMARK   10  A    between atoms: C_14  and  O_16
REMARK                            x       y       z     vdW  Elec       q    Type
REMARK                         _______ _______ _______ _____ _____    ______ ____
ROOT
ATOM      1  N   UNL     1       9.660  10.857   7.084  0.00  0.00    +0.000 N 
ENDROOT
BRANCH   1   6
ATOM      2  C   UNL     1       8.281  11.777   1.554  0.00  0.00    +0.000 C 
ATOM      3  C   UNL     1       8.660  11.527   2.981  0.00  0.00    +0.000 A 
ATOM      4  C   UNL     1       8.231  10.382   3.644  0.00  0.00    +0.000 A 
ATOM      5  C   UNL     1       8.564  10.167   4.992  0.00  0.00    +0.000 A 
ATOM      6  C   UNL     1       9.315  11.087   5.746  0.00  0.00    +0.000 A 
ATOM      7  C   UNL     1       9.734  12.231   5.043  0.00  0.00    +0.000 A 
ATOM      8  C   UNL     1       9.410  12.457   3.695  0.00  0.00    +0.000 A 
ENDBRANCH   1   6
BRANCH   1   9
ATOM      9  C   UNL     1      11.085  10.722   7.471  0.00  0.00    +0.000 C 
BRANCH   9  10
ATOM     10  C   UNL     1      11.587  11.905   8.335  0.00  0.00    +0.000 C 
ATOM     11  C   UNL     1      13.037  11.696   8.756  0.00  0.00    +0.000 C 
BRANCH  10  12
ATOM     12  O   UNL     1      11.509  13.140   7.610  0.00  0.00    +0.000 OA
ATOM     13  H   UNL     1      10.577  13.299   7.386  0.00  0.00    +0.000 HD
ENDBRANCH  10  12
ENDBRANCH   9  10
ENDBRANCH   1   9
BRANCH   1  14
ATOM     14  C   UNL     1       8.695  10.247   8.033  0.00  0.00    +0.000 C 
BRANCH  14  15
ATOM     15  C   UNL     1       7.600  11.247   8.476  0.00  0.00    +0.000 C 
ATOM     16  C   UNL     1       8.082  12.692   8.499  0.00  0.00    +0.000 C 
BRANCH  15  17
ATOM     17  O   UNL     1       6.450  11.178   7.634  0.00  0.00    +0.000 OA
ATOM     18  H   UNL     1       5.763  10.744   8.180  0.00  0.00    +0.000 HD
ENDBRANCH  15  17
ENDBRANCH  14  15
ENDBRANCH   1  14
TORSDOF 7
ENDMDL
MODEL 6
REMARK VINA RESULT:    -4.744      2.771      4.885
REMARK INTER + INTRA:          -6.959
REMARK INTER:                  -6.674
REMARK INTRA:                  -0.285
REMARK UNBOUND:                -0.551
REMARK  Name = 
REMARK  10 active torsions:
REMARK  status: ('A' for Active; 'I' for Inactive)
REMARK    1  A    between atoms: C_1  and  C_2
REMARK    2  A    between atoms: C_5  and  N_8
REMARK    3  A    between atoms: N_8  and  C_9
REMARK    4  A    between atoms: N_8  and  C_13
REMARK    5  A    between atoms: C_9  and  C_10
REMARK    6  A    between atoms: C_10  and  C_11
REMARK    7  A    between atoms: C_10  and  O_12
REMARK    8  A    between atoms: C_13  and  C_14
REMARK    9  A    between atoms: C_14  and  C_15
REMARK   10  A    between atoms: C_14  and  O_16
REMARK                            x       y       z     vdW  Elec       q    Type
REMARK                         _______ _______ _______ _____ _____    ______ ____
ROOT
ATOM      1  N   UNL     1       9.734  11.083   7.029  0.00  0.00    +0.000 N 
ENDROOT
BRANCH   1   6
ATOM      2  C   UNL     1      14.132   8.161   9.362  0.00  0.00    +0.000 C 
ATOM      3  C   UNL     1      12.986   8.899   8.742  0.00  0.00    +0.000 A 
ATOM      4  C   UNL     1      13.183   9.730   7.644  0.00  0.00    +0.000 A 
ATOM      5  C   UNL     1      12.110  10.444   7.085  0.00  0.00    +0.000 A 
ATOM      6  C   UNL     1      10.803  10.384   7.603  0.00  0.00    +0.000 A 
ATOM      7  C   UNL     1      10.642   9.533   8.711  0.00  0.00    +0.000 A 
ATOM      8  C   UNL     1      11.705   8.812   9.279  0.00  0.00    +0.000 A 
ENDBRANCH   1   6
BRANCH   1   9
ATOM      9  C   UNL     1       8.397  10.450   6.935  0.00  0.00    +0.000 C 
BRANCH   9  10
ATOM     10  C   UNL     1       7.398  11.001   7.983  0.00  0.00    +0.000 C 
ATOM     11  C   UNL     1       7.982  12.207   8.711  0.00  0.00    +0.000 C 
BRANCH  10  12
ATOM     12  O   UNL     1       6.172  11.409   7.360  0.00  0.00    +0.000 OA
ATOM     13  H   UNL     1       5.887  12.242   7.772  0.00  0.00    +0.000 HD
ENDBRANCH  10  12
ENDBRANCH   9  10
ENDBRANCH   1   9
BRANCH   1  14
ATOM     14  C   UNL     1       9.968  12.193   6.069  0.00  0.00    +0.000 C 
BRANCH  14  15
ATOM     15  C   UNL     1       9.543  11.819   4.629  0.00  0.00    +0.000 C 
ATOM     16  C   UNL     1       9.439  13.025   3.703  0.00  0.00    +0.000 C 
BRANCH  15  17
ATOM     17  O   UNL     1      10.444  10.885   4.038  0.00  0.00    +0.000 OA
ATOM     18  H   UNL     1      11.163  11.431   3.661  0.00  0.00    +0.000 HD
ENDBRANCH  15  17
ENDBRANCH  14  15
ENDBRANCH   1  14
TORSDOF 7
ENDMDL
MODEL 7
REMARK VINA RESULT:    -4.585      2.615      3.193
REMARK INTER + INTRA:          -6.744
REMARK INTER:                  -6.239
REMARK INTRA:                  -0.505
REMARK UNBOUND:                -0.551
REMARK  Name = 
REMARK  10 active torsions:
REMARK  status: ('A' for Active; 'I' for Inactive)
REMARK    1  A    between atoms: C_1  and  C_2
REMARK    2  A    between atoms: C_5  and  N_8
REMARK    3  A    between atoms: N_8  and  C_9
REMARK    4  A    between atoms: N_8  and  C_13
REMARK    5  A    between atoms: C_9  and  C_10
REMARK    6  A    between atoms: C_10  and  C_11
REMARK    7  A    between atoms: C_10  and  O_12
REMARK    8  A    between atoms: C_13  and  C_14
REMARK    9  A    between atoms: C_14  and  C_15
REMARK   10  A    between atoms: C_14  and  O_16
REMARK                            x       y       z     vdW  Elec       q    Type
REMARK                         _______ _______ _______ _____ _____    ______ ____
ROOT
ATOM      1  N   UNL     1      10.300  11.127   8.280  0.00  0.00    +0.000 N 
ENDROOT
BRANCH   1   6
ATOM      2  C   UNL     1       8.720  10.640   2.749  0.00  0.00    +0.000 C 
ATOM      3  C   UNL     1       9.119  10.789   4.185  0.00  0.00    +0.000 A 
ATOM      4  C   UNL     1      10.367  11.299   4.530  0.00  0.00    +0.000 A 
ATOM      5  C   UNL     1      10.748  11.409   5.877  0.00  0.00    +0.000 A 
ATOM      6  C   UNL     1       9.921  10.997   6.938  0.00  0.00    +0.000 A 
ATOM      7  C   UNL     1       8.667  10.489   6.553  0.00  0.00    +0.000 A 
ATOM      8  C   UNL     1       8.272  10.375   5.209  0.00  0.00    +0.000 A 
ENDBRANCH   1   6
BRANCH   1   9
ATOM      9  C   UNL     1      11.612  10.609   8.736  0.00  0.00    +0.000 C 
BRANCH   9  10
ATOM     10  C   UNL     1      11.822   9.116   8.385  0.00  0.00    +0.000 C 
ATOM     11  C   UNL     1      13.266   8.850   7.975  0.00  0.00    +0.000 C 
BRANCH  10  12
ATOM     12  O   UNL     1      11.517   8.275   9.507  0.00  0.00    +0.000 OA
ATOM     13  H   UNL     1      10.889   8.750  10.076  0.00  0.00    +0.000 HD
ENDBRANCH  10  12
ENDBRANCH   9  10
ENDBRANCH   1   9
BRANCH   1  14
ATOM     14  C   UNL     1       9.285  11.289   9.353  0.00  0.00    +0.000 C 
BRANCH  14  15
ATOM     15  C   UNL     1       8.811  12.755   9.494  0.00  0.00    +0.000 C 
ATOM     16  C   UNL     1       9.908  13.771   9.196  0.00  0.00    +0.000 C 
BRANCH  15  17
ATOM     17  O   UNL     1       7.705  13.036   8.637  0.00  0.00    +0.000 OA
ATOM     18  H   UNL     1       6.949  13.181   9.240  0.00  0.00    +0.000 HD
ENDBRANCH  15  17
ENDBRANCH  14  15
ENDBRANCH   1  14
TORSDOF 7
ENDMDL
MODEL 8
REMARK VINA RESULT:    -4.570      2.297      4.106
REMARK INTER + INTRA:          -6.724
REMARK INTER:                  -5.896
REMARK INTRA:                  -0.828
REMARK UNBOUND:                -0.551
REMARK  Name = 
REMARK  10 active torsions:
REMARK  status: ('A' for Active; 'I' for Inactive)
REMARK    1  A    between atoms: C_1  and  C_2
REMARK    2  A    between atoms: C_5  and  N_8
REMARK    3  A    between atoms: N_8  and  C_9
REMARK    4  A    between atoms: N_8  and  C_13
REMARK    5  A    between atoms: C_9  and  C_10
REMARK    6  A    between atoms: C_10  and  C_11
REMARK    7  A    between atoms: C_10  and  O_12
REMARK    8  A    between atoms: C_13  and  C_14
REMARK    9  A    between atoms: C_14  and  C_15
REMARK   10  A    between atoms: C_14  and  O_16
REMARK                            x       y       z     vdW  Elec       q    Type
REMARK                         _______ _______ _______ _____ _____    ______ ____
ROOT
ATOM      1  N   UNL     1      11.135  11.939   7.770  0.00  0.00    +0.000 N 
ENDROOT
BRANCH   1   6
ATOM      2  C   UNL     1       9.097  11.722   2.373  0.00  0.00    +0.000 C 
ATOM      3  C   UNL     1       9.609  11.761   3.780  0.00  0.00    +0.000 A 
ATOM      4  C   UNL     1       9.096  12.667   4.702  0.00  0.00    +0.000 A 
ATOM      5  C   UNL     1       9.600  12.719   6.012  0.00  0.00    +0.000 A 
ATOM      6  C   UNL     1      10.649  11.894   6.457  0.00  0.00    +0.000 A 
ATOM      7  C   UNL     1      11.142  10.990   5.499  0.00  0.00    +0.000 A 
ATOM      8  C   UNL     1      10.645  10.925   4.187  0.00  0.00    +0.000 A 
ENDBRANCH   1   6
BRANCH   1   9
ATOM      9  C   UNL     1      10.219  11.692   8.910  0.00  0.00    +0.000 C 
BRANCH   9  10
ATOM     10  C   UNL     1      10.048  10.187   9.228  0.00  0.00    +0.000 C 
ATOM     11  C   UNL     1       8.784   9.633   8.580  0.00  0.00    +0.000 C 
BRANCH  10  12
ATOM     12  O   UNL     1      11.165   9.428   8.743  0.00  0.00    +0.000 OA
ATOM     13  H   UNL     1      11.818  10.051   8.384  0.00  0.00    +0.000 HD
ENDBRANCH  10  12
ENDBRANCH   9  10
ENDBRANCH   1   9
BRANCH   1  14
ATOM     14  C   UNL     1      12.364  12.700   8.110  0.00  0.00    +0.000 C 
BRANCH  14  15
ATOM     15  C   UNL     1      13.637  11.824   8.020  0.00  0.00    +0.000 C 
ATOM     16  C   UNL     1      14.927  12.630   8.116  0.00  0.00    +0.000 C 
BRANCH  15  17
ATOM     17  O   UNL     1      13.663  10.826   9.039  0.00  0.00    +0.000 OA
ATOM     18  H   UNL     1      13.346  10.010   8.601  0.00  0.00    +0.000 HD
ENDBRANCH  15  17
ENDBRANCH  14  15
ENDBRANCH   1  14
TORSDOF 7
ENDMDL
MODEL 9
REMARK VINA RESULT:    -4.543      1.875      3.372
REMARK INTER + INTRA:          -6.688
REMARK INTER:                  -6.276
REMARK INTRA:                  -0.411
REMARK UNBOUND:                -0.551
REMARK  Name = 
REMARK  10 active torsions:
REMARK  status: ('A' for Active; 'I' for Inactive)
REMARK    1  A    between atoms: C_1  and  C_2
REMARK    2  A    between atoms: C_5  and  N_8
REMARK    3  A    between atoms: N_8  and  C_9
REMARK    4  A    between atoms: N_8  and  C_13
REMARK    5  A    between atoms: C_9  and  C_10
REMARK    6  A    between atoms: C_10  and  C_11
REMARK    7  A    between atoms: C_10  and  O_12
REMARK    8  A    between atoms: C_13  and  C_14
REMARK    9  A    between atoms: C_14  and  C_15
REMARK   10  A    between atoms: C_14  and  O_16
REMARK                            x       y       z     vdW  Elec       q    Type
REMARK                         _______ _______ _______ _____ _____    ______ ____
ROOT
ATOM      1  N   UNL     1       8.772  11.461   7.422  0.00  0.00    +0.000 N 
ENDROOT
BRANCH   1   6
ATOM      2  C   UNL     1      10.524  10.318   2.041  0.00  0.00    +0.000 C 
ATOM      3  C   UNL     1      10.064  10.638   3.430  0.00  0.00    +0.000 A 
ATOM      4  C   UNL     1      10.958  11.100   4.390  0.00  0.00    +0.000 A 
ATOM      5  C   UNL     1      10.527  11.370   5.699  0.00  0.00    +0.000 A 
ATOM      6  C   UNL     1       9.200  11.172   6.120  0.00  0.00    +0.000 A 
ATOM      7  C   UNL     1       8.323  10.706   5.123  0.00  0.00    +0.000 A 
ATOM      8  C   UNL     1       8.740  10.434   3.809  0.00  0.00    +0.000 A 
ENDBRANCH   1   6
BRANCH   1   9
ATOM      9  C   UNL     1       8.102  10.417   8.234  0.00  0.00    +0.000 C 
BRANCH   9  10
ATOM     10  C   UNL     1       9.038   9.791   9.296  0.00  0.00    +0.000 C 
ATOM     11  C   UNL     1       8.727   8.311   9.492  0.00  0.00    +0.000 C 
BRANCH  10  12
ATOM     12  O   UNL     1      10.413   9.908   8.905  0.00  0.00    +0.000 OA
ATOM     13  H   UNL     1      10.861  10.482   9.548  0.00  0.00    +0.000 HD
ENDBRANCH  10  12
ENDBRANCH   9  10
ENDBRANCH   1   9
BRANCH   1  14
ATOM     14  C   UNL     1       8.495  12.857   7.847  0.00  0.00    +0.000 C 
BRANCH  14  15
ATOM     15  C   UNL     1       9.457  13.330   8.964  0.00  0.00    +0.000 C 
ATOM     16  C   UNL     1      10.911  13.403   8.511  0.00  0.00    +0.000 C 
BRANCH  15  17
ATOM     17  O   UNL     1       9.087  14.611   9.471  0.00  0.00    +0.000 OA
ATOM     18  H   UNL     1       8.283  14.449  10.004  0.00  0.00    +0.000 HD
ENDBRANCH  15  17
ENDBRANCH  14  15
ENDBRANCH   1  14
TORSDOF 7
ENDMDL
