MODEL 1
REMARK VINA RESULT:    -4.976      0.000      0.000
REMARK INTER + INTRA:          -5.462
REMARK INTER:                  -5.412
REMARK INTRA:                  -0.050
REMARK UNBOUND:                -0.050
REMARK  Name = 
REMARK  3 active torsions:
REMARK  status: ('A' for Active; 'I' for Inactive)
REMARK    1  A    between atoms: C_1  and  O_2
REMARK    2  A    between atoms: O_2  and  C_3
REMARK    3  A    between atoms: C_8  and  O_9
REMARK                            x       y       z     vdW  Elec       q    Type
REMARK                         _______ _______ _______ _____ _____    ______ ____
ROOT
ATOM      1  C   UNL     1      10.002  11.099   3.583  0.00  0.00    +0.000 A 
ATOM      2  C   UNL     1      10.289  11.521   4.881  0.00  0.00    +0.000 A 
ATOM      3  C   UNL     1       9.419  11.197   5.930  0.00  0.00    +0.000 A 
ATOM      4  C   UNL     1       8.263  10.454   5.686  0.00  0.00    +0.000 A 
ATOM      5  C   UNL     1       7.969  10.029   4.393  0.00  0.00    +0.000 A 
ATOM      6  C   UNL     1       8.838  10.355   3.358  0.00  0.00    +0.000 A 
ENDROOT
BRANCH   1   8
ATOM      7  C   UNL     1      11.992  10.639   2.368  0.00  0.00    +0.000 C 
ATOM      8  O   UNL     1      10.760  11.342   2.465  0.00  0.00    +0.000 OA
ENDBRANCH   1   8
BRANCH   6   9
ATOM      9  O   UNL     1       8.528   9.926   2.095  0.00  0.00    +0.000 OA
ATOM     10  H   UNL     1       8.184  10.719   1.641  0.00  0.00    +0.000 HD
ENDBRANCH   6   9
TORSDOF 2
ENDMDL
MODEL 2
REMARK VINA RESULT:    -4.717      2.103      3.458
REMARK INTER + INTRA:          -5.181
REMARK INTER:                  -5.133
REMARK INTRA:                  -0.048
REMARK UNBOUND:                -0.050
REMARK  Name = 
REMARK  3 active torsions:
REMARK  status: ('A' for Active; 'I' for Inactive)
REMARK    1  A    between atoms: C_1  and  O_2
REMARK    2  A    between atoms: O_2  and  C_3
REMARK    3  A    between atoms: C_8  and  O_9
REMARK                            x       y       z     vdW  Elec       q    Type
REMARK                         _______ _______ _______ _____ _____    ______ ____
ROOT
ATOM      1  C   UNL     1       8.451  10.929   5.281  0.00  0.00    +0.000 A 
ATOM      2  C   UNL     1       9.124  12.138   5.105  0.00  0.00    +0.000 A 
ATOM      3  C   UNL     1       9.577  12.507   3.832  0.00  0.00    +0.000 A 
ATOM      4  C   UNL     1       9.361  11.671   2.734  0.00  0.00    +0.000 A 
ATOM      5  C   UNL     1       8.690  10.463   2.903  0.00  0.00    +0.000 A 
ATOM      6  C   UNL     1       8.244  10.105   4.169  0.00  0.00    +0.000 A 
ENDROOT
BRANCH   1   8
ATOM      7  C   UNL     1       7.168  11.339   7.239  0.00  0.00    +0.000 C 
ATOM      8  O   UNL     1       7.955  10.443   6.464  0.00  0.00    +0.000 OA
ENDBRANCH   1   8
BRANCH   6   9
ATOM      9  O   UNL     1       7.587   8.912   4.309  0.00  0.00    +0.000 OA
ATOM     10  H   UNL     1       7.086   9.001   5.142  0.00  0.00    +0.000 HD
ENDBRANCH   6   9
TORSDOF 2
ENDMDL
MODEL 3
REMARK VINA RESULT:    -4.609      1.114      1.324
REMARK INTER + INTRA:          -5.062
REMARK INTER:                  -5.023
REMARK INTRA:                  -0.040
REMARK UNBOUND:                -0.050
REMARK  Name = 
REMARK  3 active torsions:
REMARK  status: ('A' for Active; 'I' for Inactive)
REMARK    1  A    between atoms: C_1  and  O_2
REMARK    2  A    between atoms: O_2  and  C_3
REMARK    3  A    between atoms: C_8  and  O_9
REMARK                            x       y       z     vdW  Elec       q    Type
REMARK                         _______ _______ _______ _____ _____    ______ ____
ROOT
ATOM      1  C   UNL     1       9.417  10.867   3.941  0.00  0.00    +0.000 A 
ATOM      2  C   UNL     1      10.100  11.874   4.622  0.00  0.00    +0.000 A 
ATOM      3  C   UNL     1       9.653  12.295   5.880  0.00  0.00    +0.000 A 
ATOM      4  C   UNL     1       8.524  11.714   6.461  0.00  0.00    +0.000 A 
ATOM      5  C   UNL     1       7.837  10.707   5.787  0.00  0.00    +0.000 A 
ATOM      6  C   UNL     1       8.287  10.296   4.539  0.00  0.00    +0.000 A 
ENDROOT
BRANCH   1   8
ATOM      7  C   UNL     1      11.097  10.493   2.302  0.00  0.00    +0.000 C 
ATOM      8  O   UNL     1       9.740  10.359   2.708  0.00  0.00    +0.000 OA
ENDBRANCH   1   8
BRANCH   6   9
ATOM      9  O   UNL     1       7.595   9.305   3.896  0.00  0.00    +0.000 OA
ATOM     10  H   UNL     1       7.108   8.843   4.604  0.00  0.00    +0.000 HD
ENDBRANCH   6   9
TORSDOF 2
ENDMDL
MODEL 4
REMARK VINA RESULT:    -4.578     12.175     13.061
REMARK INTER + INTRA:          -5.029
REMARK INTER:                  -4.976
REMARK INTRA:                  -0.052
REMARK UNBOUND:                -0.050
REMARK  Name = 
REMARK  3 active torsions:
REMARK  status: ('A' for Active; 'I' for Inactive)
REMARK    1  A    between atoms: C_1  and  O_2
REMARK    2  A    between atoms: O_2  and  C_3
REMARK    3  A    between atoms: C_8  and  O_9
REMARK                            x       y       z     vdW  Elec       q    Type
REMARK                         _______ _______ _______ _____ _____    ______ ____
ROOT
ATOM      1  C   UNL     1       8.185  -1.444   9.270  0.00  0.00    +0.000 A 
ATOM      2  C   UNL     1       9.568  -1.294   9.368  0.00  0.00    +0.000 A 
ATOM      3  C   UNL     1      10.146  -0.027   9.228  0.00  0.00    +0.000 A 
ATOM      4  C   UNL     1       9.347   1.093   8.990  0.00  0.00    +0.000 A 
ATOM      5  C   UNL     1       7.965   0.952   8.892  0.00  0.00    +0.000 A 
ATOM      6  C   UNL     1       7.400  -0.309   9.032  0.00  0.00    +0.000 A 
ENDROOT
BRANCH   1   8
ATOM      7  C   UNL     1       7.665  -3.568   8.341  0.00  0.00    +0.000 C 
ATOM      8  O   UNL     1       7.486  -2.619   9.385  0.00  0.00    +0.000 OA
ENDBRANCH   1   8
BRANCH   6   9
ATOM      9  O   UNL     1       6.039  -0.423   8.931  0.00  0.00    +0.000 OA
ATOM     10  H   UNL     1       5.757   0.382   8.457  0.00  0.00    +0.000 HD
ENDBRANCH   6   9
TORSDOF 2
ENDMDL
MODEL 5
REMARK VINA RESULT:    -4.314      2.271      3.188
REMARK INTER + INTRA:          -4.742
REMARK INTER:                  -4.704
REMARK INTRA:                  -0.038
REMARK UNBOUND:                -0.050
REMARK  Name = 
REMARK  3 active torsions:
REMARK  status: ('A' for Active; 'I' for Inactive)
REMARK    1  A    between atoms: C_1  and  O_2
REMARK    2  A    between atoms: O_2  and  C_3
REMARK    3  A    between atoms: C_8  and  O_9
REMARK                            x       y       z     vdW  Elec       q    Type
REMARK                         _______ _______ _______ _____ _____    ______ ____
ROOT
ATOM      1  C   UNL     1       9.626  11.130   5.614  0.00  0.00    +0.000 A 
ATOM      2  C   UNL     1      10.597  11.155   4.614  0.00  0.00    +0.000 A 
ATOM      3  C   UNL     1      10.277  10.733   3.317  0.00  0.00    +0.000 A 
ATOM      4  C   UNL     1       8.990  10.284   3.016  0.00  0.00    +0.000 A 
ATOM      5  C   UNL     1       8.014  10.256   4.010  0.00  0.00    +0.000 A 
ATOM      6  C   UNL     1       8.340  10.677   5.293  0.00  0.00    +0.000 A 
ENDROOT
BRANCH   1   8
ATOM      7  C   UNL     1      10.965  12.268   7.213  0.00  0.00    +0.000 C 
ATOM      8  O   UNL     1       9.797  11.512   6.921  0.00  0.00    +0.000 OA
ENDBRANCH   1   8
BRANCH   6   9
ATOM      9  O   UNL     1       7.364  10.640   6.253  0.00  0.00    +0.000 OA
ATOM     10  H   UNL     1       7.277   9.695   6.483  0.00  0.00    +0.000 HD
ENDBRANCH   6   9
TORSDOF 2
ENDMDL
MODEL 6
REMARK VINA RESULT:    -4.288     11.221     13.675
REMARK INTER + INTRA:          -4.714
REMARK INTER:                  -4.667
REMARK INTRA:                  -0.047
REMARK UNBOUND:                -0.050
REMARK  Name = 
REMARK  3 active torsions:
REMARK  status: ('A' for Active; 'I' for Inactive)
REMARK    1  A    between atoms: C_1  and  O_2
REMARK    2  A    between atoms: O_2  and  C_3
REMARK    3  A    between atoms: C_8  and  O_9
REMARK                            x       y       z     vdW  Elec       q    Type
REMARK                         _______ _______ _______ _____ _____    ______ ____
ROOT
ATOM      1  C   UNL     1      21.247  15.508   1.489  0.00  0.00    +0.000 A 
ATOM      2  C   UNL     1      22.373  14.866   0.976  0.00  0.00    +0.000 A 
ATOM      3  C   UNL     1      23.236  15.551   0.112  0.00  0.00    +0.000 A 
ATOM      4  C   UNL     1      22.977  16.876  -0.243  0.00  0.00    +0.000 A 
ATOM      5  C   UNL     1      21.855  17.525   0.267  0.00  0.00    +0.000 A 
ATOM      6  C   UNL     1      21.004  16.837   1.123  0.00  0.00    +0.000 A 
ENDROOT
BRANCH   1   8
ATOM      7  C   UNL     1      19.860  13.654   2.024  0.00  0.00    +0.000 C 
ATOM      8  O   UNL     1      20.320  14.962   2.341  0.00  0.00    +0.000 OA
ENDBRANCH   1   8
BRANCH   6   9
ATOM      9  O   UNL     1      19.907  17.495   1.610  0.00  0.00    +0.000 OA
ATOM     10  H   UNL     1      19.541  16.898   2.291  0.00  0.00    +0.000 HD
ENDBRANCH   6   9
TORSDOF 2
ENDMDL
MODEL 7
REMARK VINA RESULT:    -4.277      2.369      3.969
REMARK INTER + INTRA:          -4.701
REMARK INTER:                  -4.673
REMARK INTRA:                  -0.029
REMARK UNBOUND:                -0.050
REMARK  Name = 
REMARK  3 active torsions:
REMARK  status: ('A' for Active; 'I' for Inactive)
REMARK    1  A    between atoms: C_1  and  O_2
REMARK    2  A    between atoms: O_2  and  C_3
REMARK    3  A    between atoms: C_8  and  O_9
REMARK                            x       y       z     vdW  Elec       q    Type
REMARK                         _______ _______ _______ _____ _____    ______ ____
ROOT
ATOM      1  C   UNL     1       8.723  10.964   5.311  0.00  0.00    +0.000 A 
ATOM      2  C   UNL     1       8.253  10.101   4.322  0.00  0.00    +0.000 A 
ATOM      3  C   UNL     1       8.475  10.398   2.971  0.00  0.00    +0.000 A 
ATOM      4  C   UNL     1       9.165  11.555   2.605  0.00  0.00    +0.000 A 
ATOM      5  C   UNL     1       9.639  12.422   3.588  0.00  0.00    +0.000 A 
ATOM      6  C   UNL     1       9.413  12.120   4.925  0.00  0.00    +0.000 A 
ENDROOT
BRANCH   1   8
ATOM      7  C   UNL     1       7.310  11.140   7.214  0.00  0.00    +0.000 C 
ATOM      8  O   UNL     1       8.578  10.801   6.666  0.00  0.00    +0.000 OA
ENDBRANCH   1   8
BRANCH   6   9
ATOM      9  O   UNL     1       9.888  12.987   5.873  0.00  0.00    +0.000 OA
ATOM     10  H   UNL     1       9.107  13.502   6.151  0.00  0.00    +0.000 HD
ENDBRANCH   6   9
TORSDOF 2
ENDMDL
MODEL 8
REMARK VINA RESULT:    -4.264     12.839     13.559
REMARK INTER + INTRA:          -4.687
REMARK INTER:                  -4.643
REMARK INTRA:                  -0.044
REMARK UNBOUND:                -0.050
REMARK  Name = 
REMARK  3 active torsions:
REMARK  status: ('A' for Active; 'I' for Inactive)
REMARK    1  A    between atoms: C_1  and  O_2
REMARK    2  A    between atoms: O_2  and  C_3
REMARK    3  A    between atoms: C_8  and  O_9
REMARK                            x       y       z     vdW  Elec       q    Type
REMARK                         _______ _______ _______ _____ _____    ______ ____
ROOT
ATOM      1  C   UNL     1       8.836  -1.026   9.301  0.00  0.00    +0.000 A 
ATOM      2  C   UNL     1       9.943  -1.847   9.507  0.00  0.00    +0.000 A 
ATOM      3  C   UNL     1       9.837  -3.229   9.303  0.00  0.00    +0.000 A 
ATOM      4  C   UNL     1       8.628  -3.793   8.894  0.00  0.00    +0.000 A 
ATOM      5  C   UNL     1       7.517  -2.979   8.685  0.00  0.00    +0.000 A 
ATOM      6  C   UNL     1       7.631  -1.610   8.890  0.00  0.00    +0.000 A 
ENDROOT
BRANCH   1   8
ATOM      7  C   UNL     1       9.938   1.061   9.024  0.00  0.00    +0.000 C 
ATOM      8  O   UNL     1       8.795   0.336   9.461  0.00  0.00    +0.000 OA
ENDBRANCH   1   8
BRANCH   6   9
ATOM      9  O   UNL     1       6.526  -0.830   8.678  0.00  0.00    +0.000 OA
ATOM     10  H   UNL     1       6.030  -1.288   7.973  0.00  0.00    +0.000 HD
ENDBRANCH   6   9
TORSDOF 2
ENDMDL
