MODEL 1
REMARK VINA RESULT:    -5.679      0.000      0.000
REMARK INTER + INTRA:          -8.081
REMARK INTER:                  -7.670
REMARK INTRA:                  -0.411
REMARK UNBOUND:                -0.411
REMARK  Name = 
REMARK  10 active torsions:
REMARK  status: ('A' for Active; 'I' for Inactive)
REMARK    1  A    between atoms: C_1  and  C_2
REMARK    2  A    between atoms: C_5  and  N_8
REMARK    3  A    between atoms: N_8  and  C_9
REMARK    4  A    between atoms: N_8  and  C_13
REMARK    5  A    between atoms: C_9  and  C_10
REMARK    6  A    between atoms: C_10  and  C_11
REMARK    7  A    between atoms: C_10  and  O_12
REMARK    8  A    between atoms: C_13  and  C_14
REMARK    9  A    between atoms: C_14  and  C_15
REMARK   10  A    between atoms: C_14  and  O_16
REMARK                            x       y       z     vdW  Elec       q    Type
REMARK                         _______ _______ _______ _____ _____    ______ ____
ROOT
ATOM      1  N   UNL     1       4.325  13.147   6.351  0.00  0.00    +0.000 N 
ENDROOT
BRANCH   1   6
ATOM      2  C   UNL     1       7.626  12.382   1.677  0.00  0.00    +0.000 C 
ATOM      3  C   UNL     1       6.756  12.597   2.877  0.00  0.00    +0.000 A 
ATOM      4  C   UNL     1       7.085  13.548   3.837  0.00  0.00    +0.000 A 
ATOM      5  C   UNL     1       6.282  13.724   4.975  0.00  0.00    +0.000 A 
ATOM      6  C   UNL     1       5.132  12.952   5.223  0.00  0.00    +0.000 A 
ATOM      7  C   UNL     1       4.828  12.003   4.230  0.00  0.00    +0.000 A 
ATOM      8  C   UNL     1       5.622  11.817   3.086  0.00  0.00    +0.000 A 
ENDBRANCH   1   6
BRANCH   1   9
ATOM      9  C   UNL     1       4.878  12.924   7.708  0.00  0.00    +0.000 C 
BRANCH   9  10
ATOM     10  C   UNL     1       4.990  11.423   8.072  0.00  0.00    +0.000 C 
ATOM     11  C   UNL     1       6.352  11.110   8.679  0.00  0.00    +0.000 C 
BRANCH  10  12
ATOM     12  O   UNL     1       3.983  11.047   9.021  0.00  0.00    +0.000 OA
ATOM     13  H   UNL     1       3.130  11.389   8.706  0.00  0.00    +0.000 HD
ENDBRANCH  10  12
ENDBRANCH   9  10
ENDBRANCH   1   9
BRANCH   1  14
ATOM     14  C   UNL     1       2.844  13.068   6.259  0.00  0.00    +0.000 C 
BRANCH  14  15
ATOM     15  C   UNL     1       2.149  13.679   7.500  0.00  0.00    +0.000 C 
ATOM     16  C   UNL     1       2.205  15.201   7.530  0.00  0.00    +0.000 C 
BRANCH  15  17
ATOM     17  O   UNL     1       0.780  13.285   7.584  0.00  0.00    +0.000 OA
ATOM     18  H   UNL     1       0.523  13.461   8.511  0.00  0.00    +0.000 HD
ENDBRANCH  15  17
ENDBRANCH  14  15
ENDBRANCH   1  14
TORSDOF 7
ENDMDL
MODEL 2
REMARK VINA RESULT:    -5.673      0.330      3.214
REMARK INTER + INTRA:          -8.074
REMARK INTER:                  -7.718
REMARK INTRA:                  -0.356
REMARK UNBOUND:                -0.411
REMARK  Name = 
REMARK  10 active torsions:
REMARK  status: ('A' for Active; 'I' for Inactive)
REMARK    1  A    between atoms: C_1  and  C_2
REMARK    2  A    between atoms: C_5  and  N_8
REMARK    3  A    between atoms: N_8  and  C_9
REMARK    4  A    between atoms: N_8  and  C_13
REMARK    5  A    between atoms: C_9  and  C_10
REMARK    6  A    between atoms: C_10  and  C_11
REMARK    7  A    between atoms: C_10  and  O_12
REMARK    8  A    between atoms: C_13  and  C_14
REMARK    9  A    between atoms: C_14  and  C_15
REMARK   10  A    between atoms: C_14  and  O_16
REMARK                            x       y       z     vdW  Elec       q    Type
REMARK                         _______ _______ _______ _____ _____    ______ ____
ROOT
ATOM      1  N   UNL     1       4.456  12.748   6.149  0.00  0.00    +0.000 N 
ENDROOT
BRANCH   1   6
ATOM      2  C   UNL     1       7.937  12.506   1.549  0.00  0.00    +0.000 C 
ATOM      3  C   UNL     1       7.046  12.550   2.753  0.00  0.00    +0.000 A 
ATOM      4  C   UNL     1       5.859  11.826   2.791  0.00  0.00    +0.000 A 
ATOM      5  C   UNL     1       5.014  11.894   3.910  0.00  0.00    +0.000 A 
ATOM      6  C   UNL     1       5.295  12.700   5.028  0.00  0.00    +0.000 A 
ATOM      7  C   UNL     1       6.504  13.416   4.957  0.00  0.00    +0.000 A 
ATOM      8  C   UNL     1       7.360  13.355   3.845  0.00  0.00    +0.000 A 
ENDBRANCH   1   6
BRANCH   1   9
ATOM      9  C   UNL     1       3.089  13.308   6.030  0.00  0.00    +0.000 C 
BRANCH   9  10
ATOM     10  C   UNL     1       2.473  13.683   7.401  0.00  0.00    +0.000 C 
ATOM     11  C   UNL     1       2.426  15.195   7.583  0.00  0.00    +0.000 C 
BRANCH  10  12
ATOM     12  O   UNL     1       1.135  13.179   7.519  0.00  0.00    +0.000 OA
ATOM     13  H   UNL     1       0.800  13.416   8.400  0.00  0.00    +0.000 HD
ENDBRANCH  10  12
ENDBRANCH   9  10
ENDBRANCH   1   9
BRANCH   1  14
ATOM     14  C   UNL     1       5.013  12.746   7.526  0.00  0.00    +0.000 C 
BRANCH  14  15
ATOM     15  C   UNL     1       5.103  11.319   8.118  0.00  0.00    +0.000 C 
ATOM     16  C   UNL     1       6.418  11.052   8.840  0.00  0.00    +0.000 C 
BRANCH  15  17
ATOM     17  O   UNL     1       4.037  11.058   9.029  0.00  0.00    +0.000 OA
ATOM     18  H   UNL     1       3.594  10.260   8.677  0.00  0.00    +0.000 HD
ENDBRANCH  15  17
ENDBRANCH  14  15
ENDBRANCH   1  14
TORSDOF 7
ENDMDL
MODEL 3
REMARK VINA RESULT:    -5.513      2.453      3.028
REMARK INTER + INTRA:          -7.858
REMARK INTER:                  -7.332
REMARK INTRA:                  -0.525
REMARK UNBOUND:                -0.411
REMARK  Name = 
REMARK  10 active torsions:
REMARK  status: ('A' for Active; 'I' for Inactive)
REMARK    1  A    between atoms: C_1  and  C_2
REMARK    2  A    between atoms: C_5  and  N_8
REMARK    3  A    between atoms: N_8  and  C_9
REMARK    4  A    between atoms: N_8  and  C_13
REMARK    5  A    between atoms: C_9  and  C_10
REMARK    6  A    between atoms: C_10  and  C_11
REMARK    7  A    between atoms: C_10  and  O_12
REMARK    8  A    between atoms: C_13  and  C_14
REMARK    9  A    between atoms: C_14  and  C_15
REMARK   10  A    between atoms: C_14  and  O_16
REMARK                            x       y       z     vdW  Elec       q    Type
REMARK                         _______ _______ _______ _____ _____    ______ ____
ROOT
ATOM      1  N   UNL     1       4.973  14.004   6.723  0.00  0.00    +0.000 N 
ENDROOT
BRANCH   1   6
ATOM      2  C   UNL     1       6.394  11.678   1.634  0.00  0.00    +0.000 C 
ATOM      3  C   UNL     1       6.045  12.269   2.965  0.00  0.00    +0.000 A 
ATOM      4  C   UNL     1       5.133  11.642   3.808  0.00  0.00    +0.000 A 
ATOM      5  C   UNL     1       4.786  12.217   5.042  0.00  0.00    +0.000 A 
ATOM      6  C   UNL     1       5.308  13.446   5.483  0.00  0.00    +0.000 A 
ATOM      7  C   UNL     1       6.228  14.051   4.606  0.00  0.00    +0.000 A 
ATOM      8  C   UNL     1       6.585  13.486   3.371  0.00  0.00    +0.000 A 
ENDBRANCH   1   6
BRANCH   1   9
ATOM      9  C   UNL     1       6.028  14.590   7.585  0.00  0.00    +0.000 C 
BRANCH   9  10
ATOM     10  C   UNL     1       6.016  16.138   7.578  0.00  0.00    +0.000 C 
ATOM     11  C   UNL     1       5.734  16.687   8.972  0.00  0.00    +0.000 C 
BRANCH  10  12
ATOM     12  O   UNL     1       7.279  16.660   7.142  0.00  0.00    +0.000 OA
ATOM     13  H   UNL     1       7.170  16.995   6.237  0.00  0.00    +0.000 HD
ENDBRANCH  10  12
ENDBRANCH   9  10
ENDBRANCH   1   9
BRANCH   1  14
ATOM     14  C   UNL     1       3.736  13.598   7.439  0.00  0.00    +0.000 C 
BRANCH  14  15
ATOM     15  C   UNL     1       2.536  14.514   7.096  0.00  0.00    +0.000 C 
ATOM     16  C   UNL     1       1.192  13.799   7.183  0.00  0.00    +0.000 C 
BRANCH  15  17
ATOM     17  O   UNL     1       2.484  15.657   7.948  0.00  0.00    +0.000 OA
ATOM     18  H   UNL     1       3.304  15.613   8.480  0.00  0.00    +0.000 HD
ENDBRANCH  15  17
ENDBRANCH  14  15
ENDBRANCH   1  14
TORSDOF 7
ENDMDL
MODEL 4
REMARK VINA RESULT:    -5.487      1.217      3.515
REMARK INTER + INTRA:          -7.822
REMARK INTER:                  -7.055
REMARK INTRA:                  -0.767
REMARK UNBOUND:                -0.411
REMARK  Name = 
REMARK  10 active torsions:
REMARK  status: ('A' for Active; 'I' for Inactive)
REMARK    1  A    between atoms: C_1  and  C_2
REMARK    2  A    between atoms: C_5  and  N_8
REMARK    3  A    between atoms: N_8  and  C_9
REMARK    4  A    between atoms: N_8  and  C_13
REMARK    5  A    between atoms: C_9  and  C_10
REMARK    6  A    between atoms: C_10  and  C_11
REMARK    7  A    between atoms: C_10  and  O_12
REMARK    8  A    between atoms: C_13  and  C_14
REMARK    9  A    between atoms: C_14  and  C_15
REMARK   10  A    between atoms: C_14  and  O_16
REMARK                            x       y       z     vdW  Elec       q    Type
REMARK                         _______ _______ _______ _____ _____    ______ ____
ROOT
ATOM      1  N   UNL     1       5.348  13.377   7.184  0.00  0.00    +0.000 N 
ENDROOT
BRANCH   1   6
ATOM      2  C   UNL     1       6.474  12.082   1.672  0.00  0.00    +0.000 C 
ATOM      3  C   UNL     1       6.197  12.400   3.110  0.00  0.00    +0.000 A 
ATOM      4  C   UNL     1       5.120  11.823   3.774  0.00  0.00    +0.000 A 
ATOM      5  C   UNL     1       4.847  12.147   5.113  0.00  0.00    +0.000 A 
ATOM      6  C   UNL     1       5.614  13.073   5.843  0.00  0.00    +0.000 A 
ATOM      7  C   UNL     1       6.696  13.635   5.141  0.00  0.00    +0.000 A 
ATOM      8  C   UNL     1       6.981  13.318   3.803  0.00  0.00    +0.000 A 
ENDBRANCH   1   6
BRANCH   1   9
ATOM      9  C   UNL     1       4.410  14.473   7.526  0.00  0.00    +0.000 C 
BRANCH   9  10
ATOM     10  C   UNL     1       3.003  13.959   7.919  0.00  0.00    +0.000 C 
ATOM     11  C   UNL     1       2.020  14.127   6.767  0.00  0.00    +0.000 C 
BRANCH  10  12
ATOM     12  O   UNL     1       3.042  12.569   8.270  0.00  0.00    +0.000 OA
ATOM     13  H   UNL     1       3.687  12.458   8.989  0.00  0.00    +0.000 HD
ENDBRANCH  10  12
ENDBRANCH   9  10
ENDBRANCH   1   9
BRANCH   1  14
ATOM     14  C   UNL     1       6.309  13.019   8.259  0.00  0.00    +0.000 C 
BRANCH  14  15
ATOM     15  C   UNL     1       6.552  11.493   8.341  0.00  0.00    +0.000 C 
ATOM     16  C   UNL     1       7.864  11.132   9.029  0.00  0.00    +0.000 C 
BRANCH  15  17
ATOM     17  O   UNL     1       5.495  10.827   9.029  0.00  0.00    +0.000 OA
ATOM     18  H   UNL     1       5.341  11.360   9.835  0.00  0.00    +0.000 HD
ENDBRANCH  15  17
ENDBRANCH  14  15
ENDBRANCH   1  14
TORSDOF 7
ENDMDL
MODEL 5
REMARK VINA RESULT:    -5.321      1.594      2.055
REMARK INTER + INTRA:          -7.599
REMARK INTER:                  -6.766
REMARK INTRA:                  -0.832
REMARK UNBOUND:                -0.411
REMARK  Name = 
REMARK  10 active torsions:
REMARK  status: ('A' for Active; 'I' for Inactive)
REMARK    1  A    between atoms: C_1  and  C_2
REMARK    2  A    between atoms: C_5  and  N_8
REMARK    3  A    between atoms: N_8  and  C_9
REMARK    4  A    between atoms: N_8  and  C_13
REMARK    5  A    between atoms: C_9  and  C_10
REMARK    6  A    between atoms: C_10  and  C_11
REMARK    7  A    between atoms: C_10  and  O_12
REMARK    8  A    between atoms: C_13  and  C_14
REMARK    9  A    between atoms: C_14  and  C_15
REMARK   10  A    between atoms: C_14  and  O_16
REMARK                            x       y       z     vdW  Elec       q    Type
REMARK                         _______ _______ _______ _____ _____    ______ ____
ROOT
ATOM      1  N   UNL     1       4.971  12.463   6.746  0.00  0.00    +0.000 N 
ENDROOT
BRANCH   1   6
ATOM      2  C   UNL     1       6.745  13.115   1.291  0.00  0.00    +0.000 C 
ATOM      3  C   UNL     1       6.305  12.933   2.711  0.00  0.00    +0.000 A 
ATOM      4  C   UNL     1       5.499  11.860   3.078  0.00  0.00    +0.000 A 
ATOM      5  C   UNL     1       5.065  11.711   4.405  0.00  0.00    +0.000 A 
ATOM      6  C   UNL     1       5.391  12.629   5.420  0.00  0.00    +0.000 A 
ATOM      7  C   UNL     1       6.210  13.699   5.014  0.00  0.00    +0.000 A 
ATOM      8  C   UNL     1       6.652  13.859   3.691  0.00  0.00    +0.000 A 
ENDBRANCH   1   6
BRANCH   1   9
ATOM      9  C   UNL     1       5.755  11.612   7.673  0.00  0.00    +0.000 C 
BRANCH   9  10
ATOM     10  C   UNL     1       6.776  12.420   8.512  0.00  0.00    +0.000 C 
ATOM     11  C   UNL     1       8.168  12.343   7.897  0.00  0.00    +0.000 C 
BRANCH  10  12
ATOM     12  O   UNL     1       6.399  13.802   8.588  0.00  0.00    +0.000 OA
ATOM     13  H   UNL     1       5.890  13.931   9.406  0.00  0.00    +0.000 HD
ENDBRANCH  10  12
ENDBRANCH   9  10
ENDBRANCH   1   9
BRANCH   1  14
ATOM     14  C   UNL     1       3.552  12.667   7.134  0.00  0.00    +0.000 C 
BRANCH  14  15
ATOM     15  C   UNL     1       3.106  14.139   6.966  0.00  0.00    +0.000 C 
ATOM     16  C   UNL     1       1.595  14.321   7.048  0.00  0.00    +0.000 C 
BRANCH  15  17
ATOM     17  O   UNL     1       3.706  14.987   7.943  0.00  0.00    +0.000 OA
ATOM     18  H   UNL     1       3.309  14.712   8.794  0.00  0.00    +0.000 HD
ENDBRANCH  15  17
ENDBRANCH  14  15
ENDBRANCH   1  14
TORSDOF 7
ENDMDL
MODEL 6
REMARK VINA RESULT:    -5.221      3.331      5.596
REMARK INTER + INTRA:          -7.464
REMARK INTER:                  -6.921
REMARK INTRA:                  -0.543
REMARK UNBOUND:                -0.411
REMARK  Name = 
REMARK  10 active torsions:
REMARK  status: ('A' for Active; 'I' for Inactive)
REMARK    1  A    between atoms: C_1  and  C_2
REMARK    2  A    between atoms: C_5  and  N_8
REMARK    3  A    between atoms: N_8  and  C_9
REMARK    4  A    between atoms: N_8  and  C_13
REMARK    5  A    between atoms: C_9  and  C_10
REMARK    6  A    between atoms: C_10  and  C_11
REMARK    7  A    between atoms: C_10  and  O_12
REMARK    8  A    between atoms: C_13  and  C_14
REMARK    9  A    between atoms: C_14  and  C_15
REMARK   10  A    between atoms: C_14  and  O_16
REMARK                            x       y       z     vdW  Elec       q    Type
REMARK                         _______ _______ _______ _____ _____    ______ ____
ROOT
ATOM      1  N   UNL     1       6.772  13.228   5.548  0.00  0.00    +0.000 N 
ENDROOT
BRANCH   1   6
ATOM      2  C   UNL     1       1.378  13.992   7.461  0.00  0.00    +0.000 C 
ATOM      3  C   UNL     1       2.774  13.811   6.946  0.00  0.00    +0.000 A 
ATOM      4  C   UNL     1       3.066  12.832   6.002  0.00  0.00    +0.000 A 
ATOM      5  C   UNL     1       4.381  12.647   5.546  0.00  0.00    +0.000 A 
ATOM      6  C   UNL     1       5.466  13.405   6.022  0.00  0.00    +0.000 A 
ATOM      7  C   UNL     1       5.133  14.387   6.974  0.00  0.00    +0.000 A 
ATOM      8  C   UNL     1       3.822  14.584   7.437  0.00  0.00    +0.000 A 
ENDBRANCH   1   6
BRANCH   1   9
ATOM      9  C   UNL     1       7.865  12.890   6.491  0.00  0.00    +0.000 C 
BRANCH   9  10
ATOM     10  C   UNL     1       9.238  13.447   6.042  0.00  0.00    +0.000 C 
ATOM     11  C   UNL     1      10.077  13.863   7.245  0.00  0.00    +0.000 C 
BRANCH  10  12
ATOM     12  O   UNL     1       9.977  12.463   5.305  0.00  0.00    +0.000 OA
ATOM     13  H   UNL     1      10.131  12.810   4.410  0.00  0.00    +0.000 HD
ENDBRANCH  10  12
ENDBRANCH   9  10
ENDBRANCH   1   9
BRANCH   1  14
ATOM     14  C   UNL     1       7.217  13.843   4.271  0.00  0.00    +0.000 C 
BRANCH  14  15
ATOM     15  C   UNL     1       7.112  12.859   3.081  0.00  0.00    +0.000 C 
ATOM     16  C   UNL     1       6.215  13.368   1.959  0.00  0.00    +0.000 C 
BRANCH  15  17
ATOM     17  O   UNL     1       8.393  12.567   2.525  0.00  0.00    +0.000 OA
ATOM     18  H   UNL     1       8.204  12.109   1.681  0.00  0.00    +0.000 HD
ENDBRANCH  15  17
ENDBRANCH  14  15
ENDBRANCH   1  14
TORSDOF 7
ENDMDL
MODEL 7
REMARK VINA RESULT:    -5.156      2.404      4.114
REMARK INTER + INTRA:          -7.375
REMARK INTER:                  -6.811
REMARK INTRA:                  -0.564
REMARK UNBOUND:                -0.411
REMARK  Name = 
REMARK  10 active torsions:
REMARK  status: ('A' for Active; 'I' for Inactive)
REMARK    1  A    between atoms: C_1  and  C_2
REMARK    2  A    between atoms: C_5  and  N_8
REMARK    3  A    between atoms: N_8  and  C_9
REMARK    4  A    between atoms: N_8  and  C_13
REMARK    5  A    between atoms: C_9  and  C_10
REMARK    6  A    between atoms: C_10  and  C_11
REMARK    7  A    between atoms: C_10  and  O_12
REMARK    8  A    between atoms: C_13  and  C_14
REMARK    9  A    between atoms: C_14  and  C_15
REMARK   10  A    between atoms: C_14  and  O_16
REMARK                            x       y       z     vdW  Elec       q    Type
REMARK                         _______ _______ _______ _____ _____    ______ ____
ROOT
ATOM      1  N   UNL     1       5.652  13.456   5.939  0.00  0.00    +0.000 N 
ENDROOT
BRANCH   1   6
ATOM      2  C   UNL     1      10.623  11.504   8.132  0.00  0.00    +0.000 C 
ATOM      3  C   UNL     1       9.335  12.031   7.577  0.00  0.00    +0.000 A 
ATOM      4  C   UNL     1       8.115  11.680   8.147  0.00  0.00    +0.000 A 
ATOM      5  C   UNL     1       6.909  12.153   7.605  0.00  0.00    +0.000 A 
ATOM      6  C   UNL     1       6.857  12.973   6.463  0.00  0.00    +0.000 A 
ATOM      7  C   UNL     1       8.109  13.309   5.914  0.00  0.00    +0.000 A 
ATOM      8  C   UNL     1       9.322  12.844   6.448  0.00  0.00    +0.000 A 
ENDBRANCH   1   6
BRANCH   1   9
ATOM      9  C   UNL     1       5.527  13.725   4.486  0.00  0.00    +0.000 C 
BRANCH   9  10
ATOM     10  C   UNL     1       5.286  12.440   3.657  0.00  0.00    +0.000 C 
ATOM     11  C   UNL     1       6.463  12.159   2.730  0.00  0.00    +0.000 C 
BRANCH  10  12
ATOM     12  O   UNL     1       5.112  11.301   4.511  0.00  0.00    +0.000 OA
ATOM     13  H   UNL     1       5.835  10.677   4.333  0.00  0.00    +0.000 HD
ENDBRANCH  10  12
ENDBRANCH   9  10
ENDBRANCH   1   9
BRANCH   1  14
ATOM     14  C   UNL     1       4.679  14.184   6.794  0.00  0.00    +0.000 C 
BRANCH  14  15
ATOM     15  C   UNL     1       3.480  13.294   7.201  0.00  0.00    +0.000 C 
ATOM     16  C   UNL     1       2.130  13.910   6.853  0.00  0.00    +0.000 C 
BRANCH  15  17
ATOM     17  O   UNL     1       3.548  12.006   6.591  0.00  0.00    +0.000 OA
ATOM     18  H   UNL     1       3.993  12.156   5.733  0.00  0.00    +0.000 HD
ENDBRANCH  15  17
ENDBRANCH  14  15
ENDBRANCH   1  14
TORSDOF 7
ENDMDL
MODEL 8
REMARK VINA RESULT:    -5.039      3.989      6.265
REMARK INTER + INTRA:          -7.217
REMARK INTER:                  -6.576
REMARK INTRA:                  -0.642
REMARK UNBOUND:                -0.411
REMARK  Name = 
REMARK  10 active torsions:
REMARK  status: ('A' for Active; 'I' for Inactive)
REMARK    1  A    between atoms: C_1  and  C_2
REMARK    2  A    between atoms: C_5  and  N_8
REMARK    3  A    between atoms: N_8  and  C_9
REMARK    4  A    between atoms: N_8  and  C_13
REMARK    5  A    between atoms: C_9  and  C_10
REMARK    6  A    between atoms: C_10  and  C_11
REMARK    7  A    between atoms: C_10  and  O_12
REMARK    8  A    between atoms: C_13  and  C_14
REMARK    9  A    between atoms: C_14  and  C_15
REMARK   10  A    between atoms: C_14  and  O_16
REMARK                            x       y       z     vdW  Elec       q    Type
REMARK                         _______ _______ _______ _____ _____    ______ ____
ROOT
ATOM      1  N   UNL     1       6.158  15.213   7.435  0.00  0.00    +0.000 N 
ENDROOT
BRANCH   1   6
ATOM      2  C   UNL     1       0.650  13.515   7.107  0.00  0.00    +0.000 C 
ATOM      3  C   UNL     1       2.075  13.973   7.175  0.00  0.00    +0.000 A 
ATOM      4  C   UNL     1       3.054  13.381   6.384  0.00  0.00    +0.000 A 
ATOM      5  C   UNL     1       4.393  13.794   6.473  0.00  0.00    +0.000 A 
ATOM      6  C   UNL     1       4.824  14.793   7.365  0.00  0.00    +0.000 A 
ATOM      7  C   UNL     1       3.807  15.370   8.147  0.00  0.00    +0.000 A 
ATOM      8  C   UNL     1       2.464  14.968   8.066  0.00  0.00    +0.000 A 
ENDBRANCH   1   6
BRANCH   1   9
ATOM      9  C   UNL     1       6.513  16.440   8.188  0.00  0.00    +0.000 C 
BRANCH   9  10
ATOM     10  C   UNL     1       6.351  17.729   7.346  0.00  0.00    +0.000 C 
ATOM     11  C   UNL     1       5.523  18.768   8.093  0.00  0.00    +0.000 C 
BRANCH  10  12
ATOM     12  O   UNL     1       7.627  18.311   7.046  0.00  0.00    +0.000 OA
ATOM     13  H   UNL     1       7.675  18.452   6.086  0.00  0.00    +0.000 HD
ENDBRANCH  10  12
ENDBRANCH   9  10
ENDBRANCH   1   9
BRANCH   1  14
ATOM     14  C   UNL     1       7.148  14.805   6.405  0.00  0.00    +0.000 C 
BRANCH  14  15
ATOM     15  C   UNL     1       8.600  14.853   6.939  0.00  0.00    +0.000 C 
ATOM     16  C   UNL     1       9.402  13.600   6.609  0.00  0.00    +0.000 C 
BRANCH  15  17
ATOM     17  O   UNL     1       9.312  15.980   6.429  0.00  0.00    +0.000 OA
ATOM     18  H   UNL     1       9.645  16.447   7.221  0.00  0.00    +0.000 HD
ENDBRANCH  15  17
ENDBRANCH  14  15
ENDBRANCH   1  14
TORSDOF 7
ENDMDL
MODEL 9
REMARK VINA RESULT:    -4.948      3.362      5.116
REMARK INTER + INTRA:          -7.094
REMARK INTER:                  -6.486
REMARK INTRA:                  -0.608
REMARK UNBOUND:                -0.411
REMARK  Name = 
REMARK  10 active torsions:
REMARK  status: ('A' for Active; 'I' for Inactive)
REMARK    1  A    between atoms: C_1  and  C_2
REMARK    2  A    between atoms: C_5  and  N_8
REMARK    3  A    between atoms: N_8  and  C_9
REMARK    4  A    between atoms: N_8  and  C_13
REMARK    5  A    between atoms: C_9  and  C_10
REMARK    6  A    between atoms: C_10  and  C_11
REMARK    7  A    between atoms: C_10  and  O_12
REMARK    8  A    between atoms: C_13  and  C_14
REMARK    9  A    between atoms: C_14  and  C_15
REMARK   10  A    between atoms: C_14  and  O_16
REMARK                            x       y       z     vdW  Elec       q    Type
REMARK                         _______ _______ _______ _____ _____    ______ ____
ROOT
ATOM      1  N   UNL     1       6.851  13.308   4.808  0.00  0.00    +0.000 N 
ENDROOT
BRANCH   1   6
ATOM      2  C   UNL     1      11.081  14.816   8.435  0.00  0.00    +0.000 C 
ATOM      3  C   UNL     1       9.972  14.412   7.513  0.00  0.00    +0.000 A 
ATOM      4  C   UNL     1      10.072  13.263   6.736  0.00  0.00    +0.000 A 
ATOM      5  C   UNL     1       9.043  12.905   5.850  0.00  0.00    +0.000 A 
ATOM      6  C   UNL     1       7.882  13.681   5.678  0.00  0.00    +0.000 A 
ATOM      7  C   UNL     1       7.814  14.835   6.481  0.00  0.00    +0.000 A 
ATOM      8  C   UNL     1       8.835  15.203   7.372  0.00  0.00    +0.000 A 
ENDBRANCH   1   6
BRANCH   1   9
ATOM      9  C   UNL     1       7.156  12.959   3.399  0.00  0.00    +0.000 C 
BRANCH   9  10
ATOM     10  C   UNL     1       5.884  12.799   2.531  0.00  0.00    +0.000 C 
ATOM     11  C   UNL     1       6.115  13.335   1.123  0.00  0.00    +0.000 C 
BRANCH  10  12
ATOM     12  O   UNL     1       5.503  11.420   2.425  0.00  0.00    +0.000 OA
ATOM     13  H   UNL     1       4.543  11.383   2.281  0.00  0.00    +0.000 HD
ENDBRANCH  10  12
ENDBRANCH   9  10
ENDBRANCH   1   9
BRANCH   1  14
ATOM     14  C   UNL     1       5.446  13.721   5.058  0.00  0.00    +0.000 C 
BRANCH  14  15
ATOM     15  C   UNL     1       4.693  12.717   5.963  0.00  0.00    +0.000 C 
ATOM     16  C   UNL     1       3.248  13.117   6.231  0.00  0.00    +0.000 C 
BRANCH  15  17
ATOM     17  O   UNL     1       4.692  11.403   5.405  0.00  0.00    +0.000 OA
ATOM     18  H   UNL     1       3.825  11.320   4.959  0.00  0.00    +0.000 HD
ENDBRANCH  15  17
ENDBRANCH  14  15
ENDBRANCH   1  14
TORSDOF 7
ENDMDL
