MODEL 1
REMARK VINA RESULT:    -4.010      0.000      0.000
REMARK INTER + INTRA:          -4.409
REMARK INTER:                  -4.361
REMARK INTRA:                  -0.048
REMARK UNBOUND:                -0.048
REMARK  Name = 
REMARK  3 active torsions:
REMARK  status: ('A' for Active; 'I' for Inactive)
REMARK    1  A    between atoms: C_1  and  O_2
REMARK    2  A    between atoms: O_2  and  C_3
REMARK    3  A    between atoms: C_8  and  O_9
REMARK                            x       y       z     vdW  Elec       q    Type
REMARK                         _______ _______ _______ _____ _____    ______ ____
ROOT
ATOM      1  C   UNL     1      11.772   4.241   6.946  0.00  0.00    +0.000 A 
ATOM      2  C   UNL     1      10.866   4.706   7.898  0.00  0.00    +0.000 A 
ATOM      3  C   UNL     1      11.251   5.703   8.803  0.00  0.00    +0.000 A 
ATOM      4  C   UNL     1      12.541   6.237   8.761  0.00  0.00    +0.000 A 
ATOM      5  C   UNL     1      13.452   5.777   7.812  0.00  0.00    +0.000 A 
ATOM      6  C   UNL     1      13.061   4.788   6.919  0.00  0.00    +0.000 A 
ENDROOT
BRANCH   1   8
ATOM      7  C   UNL     1      10.687   3.638   4.919  0.00  0.00    +0.000 C 
ATOM      8  O   UNL     1      11.533   3.273   6.003  0.00  0.00    +0.000 OA
ENDBRANCH   1   8
BRANCH   6   9
ATOM      9  O   UNL     1      13.974   4.353   5.996  0.00  0.00    +0.000 OA
ATOM     10  H   UNL     1      14.766   4.902   6.152  0.00  0.00    +0.000 HD
ENDBRANCH   6   9
TORSDOF 2
ENDMDL
MODEL 2
REMARK VINA RESULT:    -3.902      2.002      3.458
REMARK INTER + INTRA:          -4.292
REMARK INTER:                  -4.252
REMARK INTRA:                  -0.040
REMARK UNBOUND:                -0.048
REMARK  Name = 
REMARK  3 active torsions:
REMARK  status: ('A' for Active; 'I' for Inactive)
REMARK    1  A    between atoms: C_1  and  O_2
REMARK    2  A    between atoms: O_2  and  C_3
REMARK    3  A    between atoms: C_8  and  O_9
REMARK                            x       y       z     vdW  Elec       q    Type
REMARK                         _______ _______ _______ _____ _____    ______ ____
ROOT
ATOM      1  C   UNL     1      13.429   5.898   6.779  0.00  0.00    +0.000 A 
ATOM      2  C   UNL     1      14.361   5.156   7.503  0.00  0.00    +0.000 A 
ATOM      3  C   UNL     1      13.941   4.065   8.273  0.00  0.00    +0.000 A 
ATOM      4  C   UNL     1      12.591   3.711   8.323  0.00  0.00    +0.000 A 
ATOM      5  C   UNL     1      11.654   4.447   7.603  0.00  0.00    +0.000 A 
ATOM      6  C   UNL     1      12.079   5.529   6.842  0.00  0.00    +0.000 A 
ENDROOT
BRANCH   1   8
ATOM      7  C   UNL     1      14.873   7.723   6.298  0.00  0.00    +0.000 C 
ATOM      8  O   UNL     1      13.696   6.986   5.988  0.00  0.00    +0.000 OA
ENDBRANCH   1   8
BRANCH   6   9
ATOM      9  O   UNL     1      11.139   6.237   6.142  0.00  0.00    +0.000 OA
ATOM     10  H   UNL     1      11.168   7.135   6.525  0.00  0.00    +0.000 HD
ENDBRANCH   6   9
TORSDOF 2
ENDMDL
MODEL 3
REMARK VINA RESULT:    -3.896      1.359      2.879
REMARK INTER + INTRA:          -4.285
REMARK INTER:                  -4.239
REMARK INTRA:                  -0.046
REMARK UNBOUND:                -0.048
REMARK  Name = 
REMARK  3 active torsions:
REMARK  status: ('A' for Active; 'I' for Inactive)
REMARK    1  A    between atoms: C_1  and  O_2
REMARK    2  A    between atoms: O_2  and  C_3
REMARK    3  A    between atoms: C_8  and  O_9
REMARK                            x       y       z     vdW  Elec       q    Type
REMARK                         _______ _______ _______ _____ _____    ______ ____
ROOT
ATOM      1  C   UNL     1      13.226   5.735   6.966  0.00  0.00    +0.000 A 
ATOM      2  C   UNL     1      13.055   6.150   8.286  0.00  0.00    +0.000 A 
ATOM      3  C   UNL     1      11.957   5.694   9.026  0.00  0.00    +0.000 A 
ATOM      4  C   UNL     1      11.028   4.825   8.451  0.00  0.00    +0.000 A 
ATOM      5  C   UNL     1      11.193   4.405   7.133  0.00  0.00    +0.000 A 
ATOM      6  C   UNL     1      12.284   4.863   6.407  0.00  0.00    +0.000 A 
ENDROOT
BRANCH   1   8
ATOM      7  C   UNL     1      14.589   7.481   6.105  0.00  0.00    +0.000 C 
ATOM      8  O   UNL     1      14.248   6.100   6.127  0.00  0.00    +0.000 OA
ENDBRANCH   1   8
BRANCH   6   9
ATOM      9  O   UNL     1      12.424   4.436   5.113  0.00  0.00    +0.000 OA
ATOM     10  H   UNL     1      11.668   3.836   4.966  0.00  0.00    +0.000 HD
ENDBRANCH   6   9
TORSDOF 2
ENDMDL
MODEL 4
REMARK VINA RESULT:    -3.875      1.514      2.056
REMARK INTER + INTRA:          -4.262
REMARK INTER:                  -4.298
REMARK INTRA:                   0.036
REMARK UNBOUND:                -0.048
REMARK  Name = 
REMARK  3 active torsions:
REMARK  status: ('A' for Active; 'I' for Inactive)
REMARK    1  A    between atoms: C_1  and  O_2
REMARK    2  A    between atoms: O_2  and  C_3
REMARK    3  A    between atoms: C_8  and  O_9
REMARK                            x       y       z     vdW  Elec       q    Type
REMARK                         _______ _______ _______ _____ _____    ______ ____
ROOT
ATOM      1  C   UNL     1      11.747   4.300   7.543  0.00  0.00    +0.000 A 
ATOM      2  C   UNL     1      11.832   3.637   8.767  0.00  0.00    +0.000 A 
ATOM      3  C   UNL     1      11.364   4.258   9.932  0.00  0.00    +0.000 A 
ATOM      4  C   UNL     1      10.813   5.539   9.879  0.00  0.00    +0.000 A 
ATOM      5  C   UNL     1      10.725   6.207   8.660  0.00  0.00    +0.000 A 
ATOM      6  C   UNL     1      11.191   5.584   7.510  0.00  0.00    +0.000 A 
ENDROOT
BRANCH   1   8
ATOM      7  C   UNL     1      11.218   3.051   5.592  0.00  0.00    +0.000 C 
ATOM      8  O   UNL     1      12.164   3.816   6.329  0.00  0.00    +0.000 OA
ENDBRANCH   1   8
BRANCH   6   9
ATOM      9  O   UNL     1      11.094   6.261   6.323  0.00  0.00    +0.000 OA
ATOM     10  H   UNL     1      11.665   7.045   6.436  0.00  0.00    +0.000 HD
ENDBRANCH   6   9
TORSDOF 2
ENDMDL
MODEL 5
REMARK VINA RESULT:    -3.752      2.336      3.444
REMARK INTER + INTRA:          -4.129
REMARK INTER:                  -4.085
REMARK INTRA:                  -0.044
REMARK UNBOUND:                -0.048
REMARK  Name = 
REMARK  3 active torsions:
REMARK  status: ('A' for Active; 'I' for Inactive)
REMARK    1  A    between atoms: C_1  and  O_2
REMARK    2  A    between atoms: O_2  and  C_3
REMARK    3  A    between atoms: C_8  and  O_9
REMARK                            x       y       z     vdW  Elec       q    Type
REMARK                         _______ _______ _______ _____ _____    ______ ____
ROOT
ATOM      1  C   UNL     1      14.391   5.901   6.781  0.00  0.00    +0.000 A 
ATOM      2  C   UNL     1      15.002   5.423   7.940  0.00  0.00    +0.000 A 
ATOM      3  C   UNL     1      15.786   6.281   8.722  0.00  0.00    +0.000 A 
ATOM      4  C   UNL     1      15.962   7.615   8.349  0.00  0.00    +0.000 A 
ATOM      5  C   UNL     1      15.354   8.099   7.193  0.00  0.00    +0.000 A 
ATOM      6  C   UNL     1      14.579   7.242   6.424  0.00  0.00    +0.000 A 
ENDROOT
BRANCH   1   8
ATOM      7  C   UNL     1      12.691   4.261   6.520  0.00  0.00    +0.000 C 
ATOM      8  O   UNL     1      13.601   5.178   5.924  0.00  0.00    +0.000 OA
ENDBRANCH   1   8
BRANCH   6   9
ATOM      9  O   UNL     1      13.992   7.741   5.292  0.00  0.00    +0.000 OA
ATOM     10  H   UNL     1      14.208   7.094   4.594  0.00  0.00    +0.000 HD
ENDBRANCH   6   9
TORSDOF 2
ENDMDL
MODEL 6
REMARK VINA RESULT:    -3.714      1.808      2.585
REMARK INTER + INTRA:          -4.087
REMARK INTER:                  -4.035
REMARK INTRA:                  -0.053
REMARK UNBOUND:                -0.048
REMARK  Name = 
REMARK  3 active torsions:
REMARK  status: ('A' for Active; 'I' for Inactive)
REMARK    1  A    between atoms: C_1  and  O_2
REMARK    2  A    between atoms: O_2  and  C_3
REMARK    3  A    between atoms: C_8  and  O_9
REMARK                            x       y       z     vdW  Elec       q    Type
REMARK                         _______ _______ _______ _____ _____    ______ ____
ROOT
ATOM      1  C   UNL     1      12.934   5.057   7.337  0.00  0.00    +0.000 A 
ATOM      2  C   UNL     1      11.698   5.698   7.405  0.00  0.00    +0.000 A 
ATOM      3  C   UNL     1      10.816   5.411   8.455  0.00  0.00    +0.000 A 
ATOM      4  C   UNL     1      11.165   4.483   9.438  0.00  0.00    +0.000 A 
ATOM      5  C   UNL     1      12.399   3.839   9.378  0.00  0.00    +0.000 A 
ATOM      6  C   UNL     1      13.266   4.130   8.333  0.00  0.00    +0.000 A 
ENDROOT
BRANCH   1   8
ATOM      7  C   UNL     1      14.472   6.534   6.290  0.00  0.00    +0.000 C 
ATOM      8  O   UNL     1      13.890   5.239   6.371  0.00  0.00    +0.000 OA
ENDBRANCH   1   8
BRANCH   6   9
ATOM      9  O   UNL     1      14.473   3.483   8.295  0.00  0.00    +0.000 OA
ATOM     10  H   UNL     1      14.245   2.537   8.220  0.00  0.00    +0.000 HD
ENDBRANCH   6   9
TORSDOF 2
ENDMDL
MODEL 7
REMARK VINA RESULT:    -3.669      1.717      2.234
REMARK INTER + INTRA:          -4.039
REMARK INTER:                  -3.991
REMARK INTRA:                  -0.048
REMARK UNBOUND:                -0.048
REMARK  Name = 
REMARK  3 active torsions:
REMARK  status: ('A' for Active; 'I' for Inactive)
REMARK    1  A    between atoms: C_1  and  O_2
REMARK    2  A    between atoms: O_2  and  C_3
REMARK    3  A    between atoms: C_8  and  O_9
REMARK                            x       y       z     vdW  Elec       q    Type
REMARK                         _______ _______ _______ _____ _____    ______ ____
ROOT
ATOM      1  C   UNL     1      11.673   4.382   7.892  0.00  0.00    +0.000 A 
ATOM      2  C   UNL     1      10.959   5.579   7.932  0.00  0.00    +0.000 A 
ATOM      3  C   UNL     1      10.531   6.097   9.161  0.00  0.00    +0.000 A 
ATOM      4  C   UNL     1      10.813   5.423  10.351  0.00  0.00    +0.000 A 
ATOM      5  C   UNL     1      11.527   4.227  10.319  0.00  0.00    +0.000 A 
ATOM      6  C   UNL     1      11.947   3.720   9.095  0.00  0.00    +0.000 A 
ENDROOT
BRANCH   1   8
ATOM      7  C   UNL     1      11.225   3.572   5.704  0.00  0.00    +0.000 C 
ATOM      8  O   UNL     1      12.151   3.761   6.766  0.00  0.00    +0.000 OA
ENDBRANCH   1   8
BRANCH   6   9
ATOM      9  O   UNL     1      12.647   2.543   9.089  0.00  0.00    +0.000 OA
ATOM     10  H   UNL     1      12.210   1.998   8.407  0.00  0.00    +0.000 HD
ENDBRANCH   6   9
TORSDOF 2
ENDMDL
MODEL 8
REMARK VINA RESULT:    -3.662      2.073      3.170
REMARK INTER + INTRA:          -4.031
REMARK INTER:                  -3.997
REMARK INTRA:                  -0.034
REMARK UNBOUND:                -0.048
REMARK  Name = 
REMARK  3 active torsions:
REMARK  status: ('A' for Active; 'I' for Inactive)
REMARK    1  A    between atoms: C_1  and  O_2
REMARK    2  A    between atoms: O_2  and  C_3
REMARK    3  A    between atoms: C_8  and  O_9
REMARK                            x       y       z     vdW  Elec       q    Type
REMARK                         _______ _______ _______ _____ _____    ______ ____
ROOT
ATOM      1  C   UNL     1      14.148   5.677   6.576  0.00  0.00    +0.000 A 
ATOM      2  C   UNL     1      14.253   6.995   6.136  0.00  0.00    +0.000 A 
ATOM      3  C   UNL     1      15.112   7.886   6.792  0.00  0.00    +0.000 A 
ATOM      4  C   UNL     1      15.865   7.464   7.889  0.00  0.00    +0.000 A 
ATOM      5  C   UNL     1      15.766   6.148   8.335  0.00  0.00    +0.000 A 
ATOM      6  C   UNL     1      14.912   5.271   7.678  0.00  0.00    +0.000 A 
ENDROOT
BRANCH   1   8
ATOM      7  C   UNL     1      11.967   4.761   6.352  0.00  0.00    +0.000 C 
ATOM      8  O   UNL     1      13.352   4.701   6.032  0.00  0.00    +0.000 OA
ENDBRANCH   1   8
BRANCH   6   9
ATOM      9  O   UNL     1      14.832   3.983   8.134  0.00  0.00    +0.000 OA
ATOM     10  H   UNL     1      15.112   4.033   9.068  0.00  0.00    +0.000 HD
ENDBRANCH   6   9
TORSDOF 2
ENDMDL
MODEL 9
REMARK VINA RESULT:    -3.648      1.693      2.029
REMARK INTER + INTRA:          -4.016
REMARK INTER:                  -3.967
REMARK INTRA:                  -0.048
REMARK UNBOUND:                -0.048
REMARK  Name = 
REMARK  3 active torsions:
REMARK  status: ('A' for Active; 'I' for Inactive)
REMARK    1  A    between atoms: C_1  and  O_2
REMARK    2  A    between atoms: O_2  and  C_3
REMARK    3  A    between atoms: C_8  and  O_9
REMARK                            x       y       z     vdW  Elec       q    Type
REMARK                         _______ _______ _______ _____ _____    ______ ____
ROOT
ATOM      1  C   UNL     1      12.607   4.699   7.031  0.00  0.00    +0.000 A 
ATOM      2  C   UNL     1      12.830   3.744   8.022  0.00  0.00    +0.000 A 
ATOM      3  C   UNL     1      14.028   3.756   8.748  0.00  0.00    +0.000 A 
ATOM      4  C   UNL     1      15.005   4.719   8.486  0.00  0.00    +0.000 A 
ATOM      5  C   UNL     1      14.789   5.676   7.498  0.00  0.00    +0.000 A 
ATOM      6  C   UNL     1      13.598   5.657   6.783  0.00  0.00    +0.000 A 
ENDROOT
BRANCH   1   8
ATOM      7  C   UNL     1      11.052   3.618   5.596  0.00  0.00    +0.000 C 
ATOM      8  O   UNL     1      11.487   4.806   6.246  0.00  0.00    +0.000 OA
ENDBRANCH   1   8
BRANCH   6   9
ATOM      9  O   UNL     1      13.408   6.608   5.816  0.00  0.00    +0.000 OA
ATOM     10  H   UNL     1      12.598   6.329   5.349  0.00  0.00    +0.000 HD
ENDBRANCH   6   9
TORSDOF 2
ENDMDL
