MODEL 1
REMARK VINA RESULT:    -5.694      0.000      0.000
REMARK INTER + INTRA:          -8.107
REMARK INTER:                  -7.691
REMARK INTRA:                  -0.416
REMARK UNBOUND:                -0.416
REMARK  Name = 
REMARK  10 active torsions:
REMARK  status: ('A' for Active; 'I' for Inactive)
REMARK    1  A    between atoms: C_1  and  C_2
REMARK    2  A    between atoms: C_5  and  N_8
REMARK    3  A    between atoms: N_8  and  C_9
REMARK    4  A    between atoms: N_8  and  C_13
REMARK    5  A    between atoms: C_9  and  C_10
REMARK    6  A    between atoms: C_10  and  C_11
REMARK    7  A    between atoms: C_10  and  O_12
REMARK    8  A    between atoms: C_13  and  C_14
REMARK    9  A    between atoms: C_14  and  C_15
REMARK   10  A    between atoms: C_14  and  O_16
REMARK                            x       y       z     vdW  Elec       q    Type
REMARK                         _______ _______ _______ _____ _____    ______ ____
ROOT
ATOM      1  N   UNL     1       4.487  12.876   6.167  0.00  0.00    +0.000 N 
ENDROOT
BRANCH   1   6
ATOM      2  C   UNL     1       7.884  12.340   1.530  0.00  0.00    +0.000 C 
ATOM      3  C   UNL     1       6.990  12.498   2.722  0.00  0.00    +0.000 A 
ATOM      4  C   UNL     1       7.351  13.324   3.781  0.00  0.00    +0.000 A 
ATOM      5  C   UNL     1       6.524  13.445   4.909  0.00  0.00    +0.000 A 
ATOM      6  C   UNL     1       5.317  12.736   5.048  0.00  0.00    +0.000 A 
ATOM      7  C   UNL     1       4.983  11.912   3.957  0.00  0.00    +0.000 A 
ATOM      8  C   UNL     1       5.800  11.784   2.822  0.00  0.00    +0.000 A 
ENDBRANCH   1   6
BRANCH   1   9
ATOM      9  C   UNL     1       3.209  13.618   6.057  0.00  0.00    +0.000 C 
BRANCH   9  10
ATOM     10  C   UNL     1       2.484  13.770   7.416  0.00  0.00    +0.000 C 
ATOM     11  C   UNL     1       2.335  15.240   7.793  0.00  0.00    +0.000 C 
BRANCH  10  12
ATOM     12  O   UNL     1       1.173  13.189   7.369  0.00  0.00    +0.000 OA
ATOM     13  H   UNL     1       1.274  12.227   7.277  0.00  0.00    +0.000 HD
ENDBRANCH  10  12
ENDBRANCH   9  10
ENDBRANCH   1   9
BRANCH   1  14
ATOM     14  C   UNL     1       5.032  12.772   7.545  0.00  0.00    +0.000 C 
BRANCH  14  15
ATOM     15  C   UNL     1       5.073  11.309   8.048  0.00  0.00    +0.000 C 
ATOM     16  C   UNL     1       6.419  10.918   8.648  0.00  0.00    +0.000 C 
BRANCH  15  17
ATOM     17  O   UNL     1       4.064  11.059   9.026  0.00  0.00    +0.000 OA
ATOM     18  H   UNL     1       4.444  10.372   9.611  0.00  0.00    +0.000 HD
ENDBRANCH  15  17
ENDBRANCH  14  15
ENDBRANCH   1  14
TORSDOF 7
ENDMDL
MODEL 2
REMARK VINA RESULT:    -5.649      0.381      3.262
REMARK INTER + INTRA:          -8.046
REMARK INTER:                  -7.555
REMARK INTRA:                  -0.491
REMARK UNBOUND:                -0.416
REMARK  Name = 
REMARK  10 active torsions:
REMARK  status: ('A' for Active; 'I' for Inactive)
REMARK    1  A    between atoms: C_1  and  C_2
REMARK    2  A    between atoms: C_5  and  N_8
REMARK    3  A    between atoms: N_8  and  C_9
REMARK    4  A    between atoms: N_8  and  C_13
REMARK    5  A    between atoms: C_9  and  C_10
REMARK    6  A    between atoms: C_10  and  C_11
REMARK    7  A    between atoms: C_10  and  O_12
REMARK    8  A    between atoms: C_13  and  C_14
REMARK    9  A    between atoms: C_14  and  C_15
REMARK   10  A    between atoms: C_14  and  O_16
REMARK                            x       y       z     vdW  Elec       q    Type
REMARK                         _______ _______ _______ _____ _____    ______ ____
ROOT
ATOM      1  N   UNL     1       4.401  13.064   6.426  0.00  0.00    +0.000 N 
ENDROOT
BRANCH   1   6
ATOM      2  C   UNL     1       7.749  12.559   1.751  0.00  0.00    +0.000 C 
ATOM      3  C   UNL     1       6.894  12.672   2.975  0.00  0.00    +0.000 A 
ATOM      4  C   UNL     1       5.710  11.950   3.088  0.00  0.00    +0.000 A 
ATOM      5  C   UNL     1       4.897  12.082   4.225  0.00  0.00    +0.000 A 
ATOM      6  C   UNL     1       5.207  12.951   5.287  0.00  0.00    +0.000 A 
ATOM      7  C   UNL     1       6.411  13.664   5.139  0.00  0.00    +0.000 A 
ATOM      8  C   UNL     1       7.235  13.539   4.008  0.00  0.00    +0.000 A 
ENDBRANCH   1   6
BRANCH   1   9
ATOM      9  C   UNL     1       4.984  12.850   7.773  0.00  0.00    +0.000 C 
BRANCH   9  10
ATOM     10  C   UNL     1       5.138  11.351   8.129  0.00  0.00    +0.000 C 
ATOM     11  C   UNL     1       6.481  11.085   8.799  0.00  0.00    +0.000 C 
BRANCH  10  12
ATOM     12  O   UNL     1       4.102  10.926   9.026  0.00  0.00    +0.000 OA
ATOM     13  H   UNL     1       3.348  11.530   8.923  0.00  0.00    +0.000 HD
ENDBRANCH  10  12
ENDBRANCH   9  10
ENDBRANCH   1   9
BRANCH   1  14
ATOM     14  C   UNL     1       2.929  12.884   6.348  0.00  0.00    +0.000 C 
BRANCH  14  15
ATOM     15  C   UNL     1       2.187  13.637   7.478  0.00  0.00    +0.000 C 
ATOM     16  C   UNL     1       2.164  15.148   7.278  0.00  0.00    +0.000 C 
BRANCH  15  17
ATOM     17  O   UNL     1       0.839  13.189   7.614  0.00  0.00    +0.000 OA
ATOM     18  H   UNL     1       0.667  13.194   8.577  0.00  0.00    +0.000 HD
ENDBRANCH  15  17
ENDBRANCH  14  15
ENDBRANCH   1  14
TORSDOF 7
ENDMDL
MODEL 3
REMARK VINA RESULT:    -5.620      0.445      3.041
REMARK INTER + INTRA:          -8.007
REMARK INTER:                  -7.565
REMARK INTRA:                  -0.442
REMARK UNBOUND:                -0.416
REMARK  Name = 
REMARK  10 active torsions:
REMARK  status: ('A' for Active; 'I' for Inactive)
REMARK    1  A    between atoms: C_1  and  C_2
REMARK    2  A    between atoms: C_5  and  N_8
REMARK    3  A    between atoms: N_8  and  C_9
REMARK    4  A    between atoms: N_8  and  C_13
REMARK    5  A    between atoms: C_9  and  C_10
REMARK    6  A    between atoms: C_10  and  C_11
REMARK    7  A    between atoms: C_10  and  O_12
REMARK    8  A    between atoms: C_13  and  C_14
REMARK    9  A    between atoms: C_14  and  C_15
REMARK   10  A    between atoms: C_14  and  O_16
REMARK                            x       y       z     vdW  Elec       q    Type
REMARK                         _______ _______ _______ _____ _____    ______ ____
ROOT
ATOM      1  N   UNL     1       4.332  13.121   6.503  0.00  0.00    +0.000 N 
ENDROOT
BRANCH   1   6
ATOM      2  C   UNL     1       7.799  12.552   1.922  0.00  0.00    +0.000 C 
ATOM      3  C   UNL     1       6.888  12.719   3.100  0.00  0.00    +0.000 A 
ATOM      4  C   UNL     1       7.253  13.518   4.178  0.00  0.00    +0.000 A 
ATOM      5  C   UNL     1       6.408  13.647   5.292  0.00  0.00    +0.000 A 
ATOM      6  C   UNL     1       5.178  12.972   5.397  0.00  0.00    +0.000 A 
ATOM      7  C   UNL     1       4.841  12.174   4.288  0.00  0.00    +0.000 A 
ATOM      8  C   UNL     1       5.676  12.039   3.167  0.00  0.00    +0.000 A 
ENDBRANCH   1   6
BRANCH   1   9
ATOM      9  C   UNL     1       4.856  12.909   7.874  0.00  0.00    +0.000 C 
BRANCH   9  10
ATOM     10  C   UNL     1       5.079  11.414   8.207  0.00  0.00    +0.000 C 
ATOM     11  C   UNL     1       6.394  11.212   8.952  0.00  0.00    +0.000 C 
BRANCH  10  12
ATOM     12  O   UNL     1       4.020  10.905   9.029  0.00  0.00    +0.000 OA
ATOM     13  H   UNL     1       3.322  11.580   9.072  0.00  0.00    +0.000 HD
ENDBRANCH  10  12
ENDBRANCH   9  10
ENDBRANCH   1   9
BRANCH   1  14
ATOM     14  C   UNL     1       2.859  12.979   6.368  0.00  0.00    +0.000 C 
BRANCH  14  15
ATOM     15  C   UNL     1       2.098  13.668   7.526  0.00  0.00    +0.000 C 
ATOM     16  C   UNL     1       2.199  15.189   7.488  0.00  0.00    +0.000 C 
BRANCH  15  17
ATOM     17  O   UNL     1       0.715  13.318   7.530  0.00  0.00    +0.000 OA
ATOM     18  H   UNL     1       0.407  13.512   8.438  0.00  0.00    +0.000 HD
ENDBRANCH  15  17
ENDBRANCH  14  15
ENDBRANCH   1  14
TORSDOF 7
ENDMDL
MODEL 4
REMARK VINA RESULT:    -5.536      0.784      1.430
REMARK INTER + INTRA:          -7.894
REMARK INTER:                  -7.518
REMARK INTRA:                  -0.376
REMARK UNBOUND:                -0.416
REMARK  Name = 
REMARK  10 active torsions:
REMARK  status: ('A' for Active; 'I' for Inactive)
REMARK    1  A    between atoms: C_1  and  C_2
REMARK    2  A    between atoms: C_5  and  N_8
REMARK    3  A    between atoms: N_8  and  C_9
REMARK    4  A    between atoms: N_8  and  C_13
REMARK    5  A    between atoms: C_9  and  C_10
REMARK    6  A    between atoms: C_10  and  C_11
REMARK    7  A    between atoms: C_10  and  O_12
REMARK    8  A    between atoms: C_13  and  C_14
REMARK    9  A    between atoms: C_14  and  C_15
REMARK   10  A    between atoms: C_14  and  O_16
REMARK                            x       y       z     vdW  Elec       q    Type
REMARK                         _______ _______ _______ _____ _____    ______ ____
ROOT
ATOM      1  N   UNL     1       4.812  12.516   6.134  0.00  0.00    +0.000 N 
ENDROOT
BRANCH   1   6
ATOM      2  C   UNL     1       7.851  12.474   1.226  0.00  0.00    +0.000 C 
ATOM      3  C   UNL     1       7.075  12.464   2.507  0.00  0.00    +0.000 A 
ATOM      4  C   UNL     1       5.853  11.807   2.597  0.00  0.00    +0.000 A 
ATOM      5  C   UNL     1       5.115  11.826   3.792  0.00  0.00    +0.000 A 
ATOM      6  C   UNL     1       5.544  12.516   4.940  0.00  0.00    +0.000 A 
ATOM      7  C   UNL     1       6.784  13.168   4.814  0.00  0.00    +0.000 A 
ATOM      8  C   UNL     1       7.533  13.154   3.625  0.00  0.00    +0.000 A 
ENDBRANCH   1   6
BRANCH   1   9
ATOM      9  C   UNL     1       3.388  12.927   6.134  0.00  0.00    +0.000 C 
BRANCH   9  10
ATOM     10  C   UNL     1       2.940  13.542   7.482  0.00  0.00    +0.000 C 
ATOM     11  C   UNL     1       1.685  14.389   7.305  0.00  0.00    +0.000 C 
BRANCH  10  12
ATOM     12  O   UNL     1       2.653  12.518   8.445  0.00  0.00    +0.000 OA
ATOM     13  H   UNL     1       3.470  12.016   8.603  0.00  0.00    +0.000 HD
ENDBRANCH  10  12
ENDBRANCH   9  10
ENDBRANCH   1   9
BRANCH   1  14
ATOM     14  C   UNL     1       5.491  12.617   7.452  0.00  0.00    +0.000 C 
BRANCH  14  15
ATOM     15  C   UNL     1       5.960  11.239   7.975  0.00  0.00    +0.000 C 
ATOM     16  C   UNL     1       7.397  11.247   8.483  0.00  0.00    +0.000 C 
BRANCH  15  17
ATOM     17  O   UNL     1       5.123  10.761   9.027  0.00  0.00    +0.000 OA
ATOM     18  H   UNL     1       4.928   9.831   8.794  0.00  0.00    +0.000 HD
ENDBRANCH  15  17
ENDBRANCH  14  15
ENDBRANCH   1  14
TORSDOF 7
ENDMDL
MODEL 5
REMARK VINA RESULT:    -5.434      2.092      3.495
REMARK INTER + INTRA:          -7.756
REMARK INTER:                  -7.021
REMARK INTRA:                  -0.734
REMARK UNBOUND:                -0.416
REMARK  Name = 
REMARK  10 active torsions:
REMARK  status: ('A' for Active; 'I' for Inactive)
REMARK    1  A    between atoms: C_1  and  C_2
REMARK    2  A    between atoms: C_5  and  N_8
REMARK    3  A    between atoms: N_8  and  C_9
REMARK    4  A    between atoms: N_8  and  C_13
REMARK    5  A    between atoms: C_9  and  C_10
REMARK    6  A    between atoms: C_10  and  C_11
REMARK    7  A    between atoms: C_10  and  O_12
REMARK    8  A    between atoms: C_13  and  C_14
REMARK    9  A    between atoms: C_14  and  C_15
REMARK   10  A    between atoms: C_14  and  O_16
REMARK                            x       y       z     vdW  Elec       q    Type
REMARK                         _______ _______ _______ _____ _____    ______ ____
ROOT
ATOM      1  N   UNL     1       4.851  13.637   7.213  0.00  0.00    +0.000 N 
ENDROOT
BRANCH   1   6
ATOM      2  C   UNL     1       6.550  12.178   1.892  0.00  0.00    +0.000 C 
ATOM      3  C   UNL     1       6.127  12.543   3.282  0.00  0.00    +0.000 A 
ATOM      4  C   UNL     1       5.171  11.793   3.958  0.00  0.00    +0.000 A 
ATOM      5  C   UNL     1       4.757  12.157   5.250  0.00  0.00    +0.000 A 
ATOM      6  C   UNL     1       5.254  13.291   5.917  0.00  0.00    +0.000 A 
ATOM      7  C   UNL     1       6.221  14.024   5.205  0.00  0.00    +0.000 A 
ATOM      8  C   UNL     1       6.645  13.670   3.914  0.00  0.00    +0.000 A 
ENDBRANCH   1   6
BRANCH   1   9
ATOM      9  C   UNL     1       5.864  13.847   8.275  0.00  0.00    +0.000 C 
BRANCH   9  10
ATOM     10  C   UNL     1       6.085  15.343   8.607  0.00  0.00    +0.000 C 
ATOM     11  C   UNL     1       7.516  15.764   8.297  0.00  0.00    +0.000 C 
BRANCH  10  12
ATOM     12  O   UNL     1       5.202  16.176   7.843  0.00  0.00    +0.000 OA
ATOM     13  H   UNL     1       4.793  15.628   7.152  0.00  0.00    +0.000 HD
ENDBRANCH  10  12
ENDBRANCH   9  10
ENDBRANCH   1   9
BRANCH   1  14
ATOM     14  C   UNL     1       3.487  13.317   7.705  0.00  0.00    +0.000 C 
BRANCH  14  15
ATOM     15  C   UNL     1       2.414  14.258   7.107  0.00  0.00    +0.000 C 
ATOM     16  C   UNL     1       1.002  13.690   7.196  0.00  0.00    +0.000 C 
BRANCH  15  17
ATOM     17  O   UNL     1       2.417  15.534   7.745  0.00  0.00    +0.000 OA
ATOM     18  H   UNL     1       1.501  15.660   8.065  0.00  0.00    +0.000 HD
ENDBRANCH  15  17
ENDBRANCH  14  15
ENDBRANCH   1  14
TORSDOF 7
ENDMDL
MODEL 6
REMARK VINA RESULT:    -5.288      1.578      3.417
REMARK INTER + INTRA:          -7.559
REMARK INTER:                  -6.764
REMARK INTRA:                  -0.795
REMARK UNBOUND:                -0.416
REMARK  Name = 
REMARK  10 active torsions:
REMARK  status: ('A' for Active; 'I' for Inactive)
REMARK    1  A    between atoms: C_1  and  C_2
REMARK    2  A    between atoms: C_5  and  N_8
REMARK    3  A    between atoms: N_8  and  C_9
REMARK    4  A    between atoms: N_8  and  C_13
REMARK    5  A    between atoms: C_9  and  C_10
REMARK    6  A    between atoms: C_10  and  C_11
REMARK    7  A    between atoms: C_10  and  O_12
REMARK    8  A    between atoms: C_13  and  C_14
REMARK    9  A    between atoms: C_14  and  C_15
REMARK   10  A    between atoms: C_14  and  O_16
REMARK                            x       y       z     vdW  Elec       q    Type
REMARK                         _______ _______ _______ _____ _____    ______ ____
ROOT
ATOM      1  N   UNL     1       5.210  12.323   6.892  0.00  0.00    +0.000 N 
ENDROOT
BRANCH   1   6
ATOM      2  C   UNL     1       7.120  12.706   1.458  0.00  0.00    +0.000 C 
ATOM      3  C   UNL     1       6.609  12.626   2.864  0.00  0.00    +0.000 A 
ATOM      4  C   UNL     1       7.243  13.311   3.894  0.00  0.00    +0.000 A 
ATOM      5  C   UNL     1       6.778  13.209   5.216  0.00  0.00    +0.000 A 
ATOM      6  C   UNL     1       5.681  12.405   5.576  0.00  0.00    +0.000 A 
ATOM      7  C   UNL     1       5.063  11.728   4.508  0.00  0.00    +0.000 A 
ATOM      8  C   UNL     1       5.517  11.824   3.183  0.00  0.00    +0.000 A 
ENDBRANCH   1   6
BRANCH   1   9
ATOM      9  C   UNL     1       5.887  11.436   7.870  0.00  0.00    +0.000 C 
BRANCH   9  10
ATOM     10  C   UNL     1       6.878  12.197   8.784  0.00  0.00    +0.000 C 
ATOM     11  C   UNL     1       8.318  11.951   8.351  0.00  0.00    +0.000 C 
BRANCH  10  12
ATOM     12  O   UNL     1       6.637  13.611   8.741  0.00  0.00    +0.000 OA
ATOM     13  H   UNL     1       6.861  13.928   7.851  0.00  0.00    +0.000 HD
ENDBRANCH  10  12
ENDBRANCH   9  10
ENDBRANCH   1   9
BRANCH   1  14
ATOM     14  C   UNL     1       3.805  12.666   7.229  0.00  0.00    +0.000 C 
BRANCH  14  15
ATOM     15  C   UNL     1       3.479  14.150   6.936  0.00  0.00    +0.000 C 
ATOM     16  C   UNL     1       1.983  14.437   6.886  0.00  0.00    +0.000 C 
BRANCH  15  17
ATOM     17  O   UNL     1       4.063  15.019   7.906  0.00  0.00    +0.000 OA
ATOM     18  H   UNL     1       3.381  15.118   8.600  0.00  0.00    +0.000 HD
ENDBRANCH  15  17
ENDBRANCH  14  15
ENDBRANCH   1  14
TORSDOF 7
ENDMDL
MODEL 7
REMARK VINA RESULT:    -5.224      3.276      6.011
REMARK INTER + INTRA:          -7.472
REMARK INTER:                  -6.914
REMARK INTRA:                  -0.558
REMARK UNBOUND:                -0.416
REMARK  Name = 
REMARK  10 active torsions:
REMARK  status: ('A' for Active; 'I' for Inactive)
REMARK    1  A    between atoms: C_1  and  C_2
REMARK    2  A    between atoms: C_5  and  N_8
REMARK    3  A    between atoms: N_8  and  C_9
REMARK    4  A    between atoms: N_8  and  C_13
REMARK    5  A    between atoms: C_9  and  C_10
REMARK    6  A    between atoms: C_10  and  C_11
REMARK    7  A    between atoms: C_10  and  O_12
REMARK    8  A    between atoms: C_13  and  C_14
REMARK    9  A    between atoms: C_14  and  C_15
REMARK   10  A    between atoms: C_14  and  O_16
REMARK                            x       y       z     vdW  Elec       q    Type
REMARK                         _______ _______ _______ _____ _____    ______ ____
ROOT
ATOM      1  N   UNL     1       6.732  13.203   5.490  0.00  0.00    +0.000 N 
ENDROOT
BRANCH   1   6
ATOM      2  C   UNL     1       1.378  14.027   7.487  0.00  0.00    +0.000 C 
ATOM      3  C   UNL     1       2.763  13.830   6.951  0.00  0.00    +0.000 A 
ATOM      4  C   UNL     1       3.032  12.837   6.015  0.00  0.00    +0.000 A 
ATOM      5  C   UNL     1       4.338  12.637   5.538  0.00  0.00    +0.000 A 
ATOM      6  C   UNL     1       5.435  13.395   5.984  0.00  0.00    +0.000 A 
ATOM      7  C   UNL     1       5.126  14.391   6.929  0.00  0.00    +0.000 A 
ATOM      8  C   UNL     1       3.824  14.603   7.412  0.00  0.00    +0.000 A 
ENDBRANCH   1   6
BRANCH   1   9
ATOM      9  C   UNL     1       7.840  12.872   6.418  0.00  0.00    +0.000 C 
BRANCH   9  10
ATOM     10  C   UNL     1       9.192  13.485   5.981  0.00  0.00    +0.000 C 
ATOM     11  C   UNL     1      10.011  13.918   7.191  0.00  0.00    +0.000 C 
BRANCH  10  12
ATOM     12  O   UNL     1       9.969  12.538   5.234  0.00  0.00    +0.000 OA
ATOM     13  H   UNL     1      10.906  12.683   5.446  0.00  0.00    +0.000 HD
ENDBRANCH  10  12
ENDBRANCH   9  10
ENDBRANCH   1   9
BRANCH   1  14
ATOM     14  C   UNL     1       7.157  13.796   4.196  0.00  0.00    +0.000 C 
BRANCH  14  15
ATOM     15  C   UNL     1       7.114  12.768   3.040  0.00  0.00    +0.000 C 
ATOM     16  C   UNL     1       6.141  13.153   1.931  0.00  0.00    +0.000 C 
BRANCH  15  17
ATOM     17  O   UNL     1       8.400  12.579   2.454  0.00  0.00    +0.000 OA
ATOM     18  H   UNL     1       8.258  11.932   1.734  0.00  0.00    +0.000 HD
ENDBRANCH  15  17
ENDBRANCH  14  15
ENDBRANCH   1  14
TORSDOF 7
ENDMDL
MODEL 8
REMARK VINA RESULT:    -5.148      2.217      3.039
REMARK INTER + INTRA:          -7.369
REMARK INTER:                  -6.940
REMARK INTRA:                  -0.430
REMARK UNBOUND:                -0.416
REMARK  Name = 
REMARK  10 active torsions:
REMARK  status: ('A' for Active; 'I' for Inactive)
REMARK    1  A    between atoms: C_1  and  C_2
REMARK    2  A    between atoms: C_5  and  N_8
REMARK    3  A    between atoms: N_8  and  C_9
REMARK    4  A    between atoms: N_8  and  C_13
REMARK    5  A    between atoms: C_9  and  C_10
REMARK    6  A    between atoms: C_10  and  C_11
REMARK    7  A    between atoms: C_10  and  O_12
REMARK    8  A    between atoms: C_13  and  C_14
REMARK    9  A    between atoms: C_14  and  C_15
REMARK   10  A    between atoms: C_14  and  O_16
REMARK                            x       y       z     vdW  Elec       q    Type
REMARK                         _______ _______ _______ _____ _____    ______ ____
ROOT
ATOM      1  N   UNL     1       5.238  13.715   5.894  0.00  0.00    +0.000 N 
ENDROOT
BRANCH   1   6
ATOM      2  C   UNL     1       8.559  12.393   1.360  0.00  0.00    +0.000 C 
ATOM      3  C   UNL     1       7.699  12.761   2.531  0.00  0.00    +0.000 A 
ATOM      4  C   UNL     1       8.256  12.966   3.788  0.00  0.00    +0.000 A 
ATOM      5  C   UNL     1       7.442  13.281   4.889  0.00  0.00    +0.000 A 
ATOM      6  C   UNL     1       6.042  13.382   4.796  0.00  0.00    +0.000 A 
ATOM      7  C   UNL     1       5.514  13.169   3.509  0.00  0.00    +0.000 A 
ATOM      8  C   UNL     1       6.317  12.856   2.400  0.00  0.00    +0.000 A 
ENDBRANCH   1   6
BRANCH   1   9
ATOM      9  C   UNL     1       5.858  14.217   7.144  0.00  0.00    +0.000 C 
BRANCH   9  10
ATOM     10  C   UNL     1       6.078  15.750   7.130  0.00  0.00    +0.000 C 
ATOM     11  C   UNL     1       5.498  16.395   8.383  0.00  0.00    +0.000 C 
BRANCH  10  12
ATOM     12  O   UNL     1       7.475  16.069   7.073  0.00  0.00    +0.000 OA
ATOM     13  H   UNL     1       7.709  16.547   7.885  0.00  0.00    +0.000 HD
ENDBRANCH  10  12
ENDBRANCH   9  10
ENDBRANCH   1   9
BRANCH   1  14
ATOM     14  C   UNL     1       3.883  13.129   6.060  0.00  0.00    +0.000 C 
BRANCH  14  15
ATOM     15  C   UNL     1       3.163  13.673   7.317  0.00  0.00    +0.000 C 
ATOM     16  C   UNL     1       1.868  14.410   6.995  0.00  0.00    +0.000 C 
BRANCH  15  17
ATOM     17  O   UNL     1       2.858  12.630   8.243  0.00  0.00    +0.000 OA
ATOM     18  H   UNL     1       1.909  12.745   8.449  0.00  0.00    +0.000 HD
ENDBRANCH  15  17
ENDBRANCH  14  15
ENDBRANCH   1  14
TORSDOF 7
ENDMDL
MODEL 9
REMARK VINA RESULT:    -5.139      2.465      3.199
REMARK INTER + INTRA:          -7.357
REMARK INTER:                  -7.107
REMARK INTRA:                  -0.251
REMARK UNBOUND:                -0.416
REMARK  Name = 
REMARK  10 active torsions:
REMARK  status: ('A' for Active; 'I' for Inactive)
REMARK    1  A    between atoms: C_1  and  C_2
REMARK    2  A    between atoms: C_5  and  N_8
REMARK    3  A    between atoms: N_8  and  C_9
REMARK    4  A    between atoms: N_8  and  C_13
REMARK    5  A    between atoms: C_9  and  C_10
REMARK    6  A    between atoms: C_10  and  C_11
REMARK    7  A    between atoms: C_10  and  O_12
REMARK    8  A    between atoms: C_13  and  C_14
REMARK    9  A    between atoms: C_14  and  C_15
REMARK   10  A    between atoms: C_14  and  O_16
REMARK                            x       y       z     vdW  Elec       q    Type
REMARK                         _______ _______ _______ _____ _____    ______ ____
ROOT
ATOM      1  N   UNL     1       5.323  13.705   7.375  0.00  0.00    +0.000 N 
ENDROOT
BRANCH   1   6
ATOM      2  C   UNL     1       6.038  11.989   1.909  0.00  0.00    +0.000 C 
ATOM      3  C   UNL     1       5.872  12.421   3.334  0.00  0.00    +0.000 A 
ATOM      4  C   UNL     1       5.057  11.708   4.206  0.00  0.00    +0.000 A 
ATOM      5  C   UNL     1       4.882  12.134   5.533  0.00  0.00    +0.000 A 
ATOM      6  C   UNL     1       5.487  13.296   6.045  0.00  0.00    +0.000 A 
ATOM      7  C   UNL     1       6.306  13.991   5.136  0.00  0.00    +0.000 A 
ATOM      8  C   UNL     1       6.491  13.574   3.807  0.00  0.00    +0.000 A 
ENDBRANCH   1   6
BRANCH   1   9
ATOM      9  C   UNL     1       3.984  13.656   8.008  0.00  0.00    +0.000 C 
BRANCH   9  10
ATOM     10  C   UNL     1       2.933  14.510   7.256  0.00  0.00    +0.000 C 
ATOM     11  C   UNL     1       1.705  13.679   6.906  0.00  0.00    +0.000 C 
BRANCH  10  12
ATOM     12  O   UNL     1       2.505  15.621   8.056  0.00  0.00    +0.000 OA
ATOM     13  H   UNL     1       3.281  15.971   8.525  0.00  0.00    +0.000 HD
ENDBRANCH  10  12
ENDBRANCH   9  10
ENDBRANCH   1   9
BRANCH   1  14
ATOM     14  C   UNL     1       6.283  14.640   8.015  0.00  0.00    +0.000 C 
BRANCH  14  15
ATOM     15  C   UNL     1       6.001  16.115   7.639  0.00  0.00    +0.000 C 
ATOM     16  C   UNL     1       5.557  16.962   8.826  0.00  0.00    +0.000 C 
BRANCH  15  17
ATOM     17  O   UNL     1       7.143  16.738   7.054  0.00  0.00    +0.000 OA
ATOM     18  H   UNL     1       7.465  16.099   6.386  0.00  0.00    +0.000 HD
ENDBRANCH  15  17
ENDBRANCH  14  15
ENDBRANCH   1  14
TORSDOF 7
ENDMDL
