MODEL 1
REMARK VINA RESULT:    -3.867      0.000      0.000
REMARK INTER + INTRA:          -5.809
REMARK INTER:                  -5.223
REMARK INTRA:                  -0.586
REMARK UNBOUND:                -0.586
REMARK  Name = 
REMARK  10 active torsions:
REMARK  status: ('A' for Active; 'I' for Inactive)
REMARK    1  A    between atoms: C_1  and  C_2
REMARK    2  A    between atoms: C_5  and  N_8
REMARK    3  A    between atoms: N_8  and  C_9
REMARK    4  A    between atoms: N_8  and  C_13
REMARK    5  A    between atoms: C_9  and  C_10
REMARK    6  A    between atoms: C_10  and  C_11
REMARK    7  A    between atoms: C_10  and  O_12
REMARK    8  A    between atoms: C_13  and  C_14
REMARK    9  A    between atoms: C_14  and  C_15
REMARK   10  A    between atoms: C_14  and  O_16
REMARK                            x       y       z     vdW  Elec       q    Type
REMARK                         _______ _______ _______ _____ _____    ______ ____
ROOT
ATOM      1  N   UNL     1       3.338  21.182 -16.051  0.00  0.00    +0.000 N 
ENDROOT
BRANCH   1   6
ATOM      2  C   UNL     1      -1.861  22.502 -13.916  0.00  0.00    +0.000 C 
ATOM      3  C   UNL     1      -0.502  22.178 -14.456  0.00  0.00    +0.000 A 
ATOM      4  C   UNL     1      -0.034  22.776 -15.621  0.00  0.00    +0.000 A 
ATOM      5  C   UNL     1       1.229  22.446 -16.139  0.00  0.00    +0.000 A 
ATOM      6  C   UNL     1       2.071  21.492 -15.539  0.00  0.00    +0.000 A 
ATOM      7  C   UNL     1       1.567  20.909 -14.362  0.00  0.00    +0.000 A 
ATOM      8  C   UNL     1       0.307  21.232 -13.832  0.00  0.00    +0.000 A 
ENDBRANCH   1   6
BRANCH   1   9
ATOM      9  C   UNL     1       4.537  21.293 -15.185  0.00  0.00    +0.000 C 
BRANCH   9  10
ATOM     10  C   UNL     1       5.843  20.900 -15.917  0.00  0.00    +0.000 C 
ATOM     11  C   UNL     1       7.061  21.477 -15.205  0.00  0.00    +0.000 C 
BRANCH  10  12
ATOM     12  O   UNL     1       5.995  19.475 -15.971  0.00  0.00    +0.000 OA
ATOM     13  H   UNL     1       6.244  19.232 -16.879  0.00  0.00    +0.000 HD
ENDBRANCH  10  12
ENDBRANCH   9  10
ENDBRANCH   1   9
BRANCH   1  14
ATOM     14  C   UNL     1       3.613  21.239 -17.509  0.00  0.00    +0.000 C 
BRANCH  14  15
ATOM     15  C   UNL     1       3.024  20.023 -18.263  0.00  0.00    +0.000 C 
ATOM     16  C   UNL     1       3.492  19.930 -19.711  0.00  0.00    +0.000 C 
BRANCH  15  17
ATOM     17  O   UNL     1       3.346  18.794 -17.615  0.00  0.00    +0.000 OA
ATOM     18  H   UNL     1       2.769  18.765 -16.826  0.00  0.00    +0.000 HD
ENDBRANCH  15  17
ENDBRANCH  14  15
ENDBRANCH   1  14
TORSDOF 7
ENDMDL
MODEL 2
REMARK VINA RESULT:    -3.805     20.700     21.945
REMARK INTER + INTRA:          -5.726
REMARK INTER:                  -5.383
REMARK INTRA:                  -0.343
REMARK UNBOUND:                -0.586
REMARK  Name = 
REMARK  10 active torsions:
REMARK  status: ('A' for Active; 'I' for Inactive)
REMARK    1  A    between atoms: C_1  and  C_2
REMARK    2  A    between atoms: C_5  and  N_8
REMARK    3  A    between atoms: N_8  and  C_9
REMARK    4  A    between atoms: N_8  and  C_13
REMARK    5  A    between atoms: C_9  and  C_10
REMARK    6  A    between atoms: C_10  and  C_11
REMARK    7  A    between atoms: C_10  and  O_12
REMARK    8  A    between atoms: C_13  and  C_14
REMARK    9  A    between atoms: C_14  and  C_15
REMARK   10  A    between atoms: C_14  and  O_16
REMARK                            x       y       z     vdW  Elec       q    Type
REMARK                         _______ _______ _______ _____ _____    ______ ____
ROOT
ATOM      1  N   UNL     1     -11.218   4.266 -16.526  0.00  0.00    +0.000 N 
ENDROOT
BRANCH   1   6
ATOM      2  C   UNL     1     -12.382   3.994 -10.878  0.00  0.00    +0.000 C 
ATOM      3  C   UNL     1     -12.056   4.069 -12.338  0.00  0.00    +0.000 A 
ATOM      4  C   UNL     1     -12.164   5.269 -13.033  0.00  0.00    +0.000 A 
ATOM      5  C   UNL     1     -11.886   5.327 -14.409  0.00  0.00    +0.000 A 
ATOM      6  C   UNL     1     -11.512   4.197 -15.158  0.00  0.00    +0.000 A 
ATOM      7  C   UNL     1     -11.411   3.002 -14.423  0.00  0.00    +0.000 A 
ATOM      8  C   UNL     1     -11.684   2.930 -13.047  0.00  0.00    +0.000 A 
ENDBRANCH   1   6
BRANCH   1   9
ATOM      9  C   UNL     1     -11.457   5.523 -17.275  0.00  0.00    +0.000 C 
BRANCH   9  10
ATOM     10  C   UNL     1     -10.145   6.242 -17.674  0.00  0.00    +0.000 C 
ATOM     11  C   UNL     1     -10.398   7.270 -18.771  0.00  0.00    +0.000 C 
BRANCH  10  12
ATOM     12  O   UNL     1      -9.569   6.924 -16.551  0.00  0.00    +0.000 OA
ATOM     13  H   UNL     1      -9.994   6.588 -15.745  0.00  0.00    +0.000 HD
ENDBRANCH  10  12
ENDBRANCH   9  10
ENDBRANCH   1   9
BRANCH   1  14
ATOM     14  C   UNL     1     -11.164   3.041 -17.364  0.00  0.00    +0.000 C 
BRANCH  14  15
ATOM     15  C   UNL     1      -9.794   2.328 -17.269  0.00  0.00    +0.000 C 
ATOM     16  C   UNL     1      -9.914   0.822 -17.068  0.00  0.00    +0.000 C 
BRANCH  15  17
ATOM     17  O   UNL     1      -8.999   2.557 -18.431  0.00  0.00    +0.000 OA
ATOM     18  H   UNL     1      -9.343   3.390 -18.813  0.00  0.00    +0.000 HD
ENDBRANCH  15  17
ENDBRANCH  14  15
ENDBRANCH   1  14
TORSDOF 7
ENDMDL
MODEL 3
REMARK VINA RESULT:    -3.779     19.961     21.389
REMARK INTER + INTRA:          -5.691
REMARK INTER:                  -5.051
REMARK INTRA:                  -0.640
REMARK UNBOUND:                -0.586
REMARK  Name = 
REMARK  10 active torsions:
REMARK  status: ('A' for Active; 'I' for Inactive)
REMARK    1  A    between atoms: C_1  and  C_2
REMARK    2  A    between atoms: C_5  and  N_8
REMARK    3  A    between atoms: N_8  and  C_9
REMARK    4  A    between atoms: N_8  and  C_13
REMARK    5  A    between atoms: C_9  and  C_10
REMARK    6  A    between atoms: C_10  and  C_11
REMARK    7  A    between atoms: C_10  and  O_12
REMARK    8  A    between atoms: C_13  and  C_14
REMARK    9  A    between atoms: C_14  and  C_15
REMARK   10  A    between atoms: C_14  and  O_16
REMARK                            x       y       z     vdW  Elec       q    Type
REMARK                         _______ _______ _______ _____ _____    ______ ____
ROOT
ATOM      1  N   UNL     1     -11.114   4.634 -16.653  0.00  0.00    +0.000 N 
ENDROOT
BRANCH   1   6
ATOM      2  C   UNL     1     -11.341   9.983 -18.812  0.00  0.00    +0.000 C 
ATOM      3  C   UNL     1     -11.291   8.586 -18.273  0.00  0.00    +0.000 A 
ATOM      4  C   UNL     1     -12.366   8.053 -17.570  0.00  0.00    +0.000 A 
ATOM      5  C   UNL     1     -12.302   6.753 -17.041  0.00  0.00    +0.000 A 
ATOM      6  C   UNL     1     -11.164   5.936 -17.166  0.00  0.00    +0.000 A 
ATOM      7  C   UNL     1     -10.097   6.507 -17.884  0.00  0.00    +0.000 A 
ATOM      8  C   UNL     1     -10.149   7.804 -18.420  0.00  0.00    +0.000 A 
ENDBRANCH   1   6
BRANCH   1   9
ATOM      9  C   UNL     1     -10.747   3.501 -17.536  0.00  0.00    +0.000 C 
BRANCH   9  10
ATOM     10  C   UNL     1     -10.572   2.170 -16.763  0.00  0.00    +0.000 C 
ATOM     11  C   UNL     1     -10.700   0.975 -17.700  0.00  0.00    +0.000 C 
BRANCH  10  12
ATOM     12  O   UNL     1      -9.285   2.106 -16.134  0.00  0.00    +0.000 OA
ATOM     13  H   UNL     1      -9.419   1.903 -15.193  0.00  0.00    +0.000 HD
ENDBRANCH  10  12
ENDBRANCH   9  10
ENDBRANCH   1   9
BRANCH   1  14
ATOM     14  C   UNL     1     -11.881   4.256 -15.438  0.00  0.00    +0.000 C 
BRANCH  14  15
ATOM     15  C   UNL     1     -11.094   4.543 -14.137  0.00  0.00    +0.000 C 
ATOM     16  C   UNL     1     -11.399   3.552 -13.020  0.00  0.00    +0.000 C 
BRANCH  15  17
ATOM     17  O   UNL     1      -9.685   4.535 -14.361  0.00  0.00    +0.000 OA
ATOM     18  H   UNL     1      -9.395   5.452 -14.181  0.00  0.00    +0.000 HD
ENDBRANCH  15  17
ENDBRANCH  14  15
ENDBRANCH   1  14
TORSDOF 7
ENDMDL
MODEL 4
REMARK VINA RESULT:    -3.664     19.941     21.321
REMARK INTER + INTRA:          -5.535
REMARK INTER:                  -5.000
REMARK INTRA:                  -0.535
REMARK UNBOUND:                -0.586
REMARK  Name = 
REMARK  10 active torsions:
REMARK  status: ('A' for Active; 'I' for Inactive)
REMARK    1  A    between atoms: C_1  and  C_2
REMARK    2  A    between atoms: C_5  and  N_8
REMARK    3  A    between atoms: N_8  and  C_9
REMARK    4  A    between atoms: N_8  and  C_13
REMARK    5  A    between atoms: C_9  and  C_10
REMARK    6  A    between atoms: C_10  and  C_11
REMARK    7  A    between atoms: C_10  and  O_12
REMARK    8  A    between atoms: C_13  and  C_14
REMARK    9  A    between atoms: C_14  and  C_15
REMARK   10  A    between atoms: C_14  and  O_16
REMARK                            x       y       z     vdW  Elec       q    Type
REMARK                         _______ _______ _______ _____ _____    ______ ____
ROOT
ATOM      1  N   UNL     1     -11.340   4.856 -16.150  0.00  0.00    +0.000 N 
ENDROOT
BRANCH   1   6
ATOM      2  C   UNL     1     -11.165   9.826 -19.082  0.00  0.00    +0.000 C 
ATOM      3  C   UNL     1     -11.219   8.525 -18.342  0.00  0.00    +0.000 A 
ATOM      4  C   UNL     1     -12.345   8.167 -17.608  0.00  0.00    +0.000 A 
ATOM      5  C   UNL     1     -12.379   6.960 -16.891  0.00  0.00    +0.000 A 
ATOM      6  C   UNL     1     -11.292   6.067 -16.851  0.00  0.00    +0.000 A 
ATOM      7  C   UNL     1     -10.172   6.460 -17.606  0.00  0.00    +0.000 A 
ATOM      8  C   UNL     1     -10.126   7.664 -18.329  0.00  0.00    +0.000 A 
ENDBRANCH   1   6
BRANCH   1   9
ATOM      9  C   UNL     1     -10.731   4.753 -14.802  0.00  0.00    +0.000 C 
BRANCH   9  10
ATOM     10  C   UNL     1     -11.782   4.549 -13.683  0.00  0.00    +0.000 C 
ATOM     11  C   UNL     1     -11.636   3.174 -13.042  0.00  0.00    +0.000 C 
BRANCH  10  12
ATOM     12  O   UNL     1     -11.636   5.537 -12.653  0.00  0.00    +0.000 OA
ATOM     13  H   UNL     1     -12.495   5.974 -12.530  0.00  0.00    +0.000 HD
ENDBRANCH  10  12
ENDBRANCH   9  10
ENDBRANCH   1   9
BRANCH   1  14
ATOM     14  C   UNL     1     -11.506   3.562 -16.860  0.00  0.00    +0.000 C 
BRANCH  14  15
ATOM     15  C   UNL     1     -10.357   2.573 -16.549  0.00  0.00    +0.000 C 
ATOM     16  C   UNL     1     -10.837   1.140 -16.349  0.00  0.00    +0.000 C 
BRANCH  15  17
ATOM     17  O   UNL     1      -9.371   2.568 -17.580  0.00  0.00    +0.000 OA
ATOM     18  H   UNL     1      -9.028   1.652 -17.598  0.00  0.00    +0.000 HD
ENDBRANCH  15  17
ENDBRANCH  14  15
ENDBRANCH   1  14
TORSDOF 7
ENDMDL
MODEL 5
REMARK VINA RESULT:    -3.663      0.405      2.922
REMARK INTER + INTRA:          -5.534
REMARK INTER:                  -5.019
REMARK INTRA:                  -0.515
REMARK UNBOUND:                -0.586
REMARK  Name = 
REMARK  10 active torsions:
REMARK  status: ('A' for Active; 'I' for Inactive)
REMARK    1  A    between atoms: C_1  and  C_2
REMARK    2  A    between atoms: C_5  and  N_8
REMARK    3  A    between atoms: N_8  and  C_9
REMARK    4  A    between atoms: N_8  and  C_13
REMARK    5  A    between atoms: C_9  and  C_10
REMARK    6  A    between atoms: C_10  and  C_11
REMARK    7  A    between atoms: C_10  and  O_12
REMARK    8  A    between atoms: C_13  and  C_14
REMARK    9  A    between atoms: C_14  and  C_15
REMARK   10  A    between atoms: C_14  and  O_16
REMARK                            x       y       z     vdW  Elec       q    Type
REMARK                         _______ _______ _______ _____ _____    ______ ____
ROOT
ATOM      1  N   UNL     1       3.389  21.557 -16.170  0.00  0.00    +0.000 N 
ENDROOT
BRANCH   1   6
ATOM      2  C   UNL     1      -2.158  22.097 -14.667  0.00  0.00    +0.000 C 
ATOM      3  C   UNL     1      -0.713  21.977 -15.043  0.00  0.00    +0.000 A 
ATOM      4  C   UNL     1      -0.219  22.594 -16.187  0.00  0.00    +0.000 A 
ATOM      5  C   UNL     1       1.130  22.453 -16.551  0.00  0.00    +0.000 A 
ATOM      6  C   UNL     1       2.041  21.677 -15.812  0.00  0.00    +0.000 A 
ATOM      7  C   UNL     1       1.507  21.069 -14.660  0.00  0.00    +0.000 A 
ATOM      8  C   UNL     1       0.161  21.204 -14.284  0.00  0.00    +0.000 A 
ENDBRANCH   1   6
BRANCH   1   9
ATOM      9  C   UNL     1       3.762  21.265 -17.575  0.00  0.00    +0.000 C 
BRANCH   9  10
ATOM     10  C   UNL     1       2.998  20.051 -18.159  0.00  0.00    +0.000 C 
ATOM     11  C   UNL     1       3.253  19.915 -19.655  0.00  0.00    +0.000 C 
BRANCH  10  12
ATOM     12  O   UNL     1       3.408  18.831 -17.525  0.00  0.00    +0.000 OA
ATOM     13  H   UNL     1       4.369  18.874 -17.384  0.00  0.00    +0.000 HD
ENDBRANCH  10  12
ENDBRANCH   9  10
ENDBRANCH   1   9
BRANCH   1  14
ATOM     14  C   UNL     1       4.424  21.205 -15.163  0.00  0.00    +0.000 C 
BRANCH  14  15
ATOM     15  C   UNL     1       5.801  20.928 -15.813  0.00  0.00    +0.000 C 
ATOM     16  C   UNL     1       6.963  21.536 -15.038  0.00  0.00    +0.000 C 
BRANCH  15  17
ATOM     17  O   UNL     1       6.046  19.529 -15.951  0.00  0.00    +0.000 OA
ATOM     18  H   UNL     1       6.978  19.408 -15.680  0.00  0.00    +0.000 HD
ENDBRANCH  15  17
ENDBRANCH  14  15
ENDBRANCH   1  14
TORSDOF 7
ENDMDL
MODEL 6
REMARK VINA RESULT:    -3.451     20.891     22.378
REMARK INTER + INTRA:          -5.248
REMARK INTER:                  -4.718
REMARK INTRA:                  -0.530
REMARK UNBOUND:                -0.586
REMARK  Name = 
REMARK  10 active torsions:
REMARK  status: ('A' for Active; 'I' for Inactive)
REMARK    1  A    between atoms: C_1  and  C_2
REMARK    2  A    between atoms: C_5  and  N_8
REMARK    3  A    between atoms: N_8  and  C_9
REMARK    4  A    between atoms: N_8  and  C_13
REMARK    5  A    between atoms: C_9  and  C_10
REMARK    6  A    between atoms: C_10  and  C_11
REMARK    7  A    between atoms: C_10  and  O_12
REMARK    8  A    between atoms: C_13  and  C_14
REMARK    9  A    between atoms: C_14  and  C_15
REMARK   10  A    between atoms: C_14  and  O_16
REMARK                            x       y       z     vdW  Elec       q    Type
REMARK                         _______ _______ _______ _____ _____    ______ ____
ROOT
ATOM      1  N   UNL     1     -11.802   4.213 -16.099  0.00  0.00    +0.000 N 
ENDROOT
BRANCH   1   6
ATOM      2  C   UNL     1      -8.535   0.657 -19.263  0.00  0.00    +0.000 C 
ATOM      3  C   UNL     1      -9.402   1.563 -18.443  0.00  0.00    +0.000 A 
ATOM      4  C   UNL     1     -10.183   2.543 -19.046  0.00  0.00    +0.000 A 
ATOM      5  C   UNL     1     -10.970   3.410 -18.270  0.00  0.00    +0.000 A 
ATOM      6  C   UNL     1     -11.000   3.359 -16.865  0.00  0.00    +0.000 A 
ATOM      7  C   UNL     1     -10.199   2.355 -16.289  0.00  0.00    +0.000 A 
ATOM      8  C   UNL     1      -9.409   1.480 -17.053  0.00  0.00    +0.000 A 
ENDBRANCH   1   6
BRANCH   1   9
ATOM      9  C   UNL     1     -11.765   5.677 -16.333  0.00  0.00    +0.000 C 
BRANCH   9  10
ATOM     10  C   UNL     1     -10.349   6.191 -16.692  0.00  0.00    +0.000 C 
ATOM     11  C   UNL     1     -10.417   7.269 -17.767  0.00  0.00    +0.000 C 
BRANCH  10  12
ATOM     12  O   UNL     1      -9.698   6.750 -15.543  0.00  0.00    +0.000 OA
ATOM     13  H   UNL     1     -10.379   6.955 -14.881  0.00  0.00    +0.000 HD
ENDBRANCH  10  12
ENDBRANCH   9  10
ENDBRANCH   1   9
BRANCH   1  14
ATOM     14  C   UNL     1     -12.294   3.808 -14.757  0.00  0.00    +0.000 C 
BRANCH  14  15
ATOM     15  C   UNL     1     -11.678   4.666 -13.625  0.00  0.00    +0.000 C 
ATOM     16  C   UNL     1     -12.248   4.343 -12.250  0.00  0.00    +0.000 C 
BRANCH  15  17
ATOM     17  O   UNL     1     -10.260   4.515 -13.562  0.00  0.00    +0.000 OA
ATOM     18  H   UNL     1      -9.901   5.384 -13.834  0.00  0.00    +0.000 HD
ENDBRANCH  15  17
ENDBRANCH  14  15
ENDBRANCH   1  14
TORSDOF 7
ENDMDL
MODEL 7
REMARK VINA RESULT:    -3.432     20.644     21.943
REMARK INTER + INTRA:          -5.221
REMARK INTER:                  -4.703
REMARK INTRA:                  -0.518
REMARK UNBOUND:                -0.586
REMARK  Name = 
REMARK  10 active torsions:
REMARK  status: ('A' for Active; 'I' for Inactive)
REMARK    1  A    between atoms: C_1  and  C_2
REMARK    2  A    between atoms: C_5  and  N_8
REMARK    3  A    between atoms: N_8  and  C_9
REMARK    4  A    between atoms: N_8  and  C_13
REMARK    5  A    between atoms: C_9  and  C_10
REMARK    6  A    between atoms: C_10  and  C_11
REMARK    7  A    between atoms: C_10  and  O_12
REMARK    8  A    between atoms: C_13  and  C_14
REMARK    9  A    between atoms: C_14  and  C_15
REMARK   10  A    between atoms: C_14  and  O_16
REMARK                            x       y       z     vdW  Elec       q    Type
REMARK                         _______ _______ _______ _____ _____    ______ ____
ROOT
ATOM      1  N   UNL     1     -11.264   4.625 -16.957  0.00  0.00    +0.000 N 
ENDROOT
BRANCH   1   6
ATOM      2  C   UNL     1     -12.382   3.783 -11.356  0.00  0.00    +0.000 C 
ATOM      3  C   UNL     1     -12.068   4.007 -12.804  0.00  0.00    +0.000 A 
ATOM      4  C   UNL     1     -12.229   5.260 -13.384  0.00  0.00    +0.000 A 
ATOM      5  C   UNL     1     -11.962   5.457 -14.749  0.00  0.00    +0.000 A 
ATOM      6  C   UNL     1     -11.547   4.417 -15.601  0.00  0.00    +0.000 A 
ATOM      7  C   UNL     1     -11.393   3.165 -14.980  0.00  0.00    +0.000 A 
ATOM      8  C   UNL     1     -11.654   2.955 -13.616  0.00  0.00    +0.000 A 
ENDBRANCH   1   6
BRANCH   1   9
ATOM      9  C   UNL     1     -10.368   3.691 -17.681  0.00  0.00    +0.000 C 
BRANCH   9  10
ATOM     10  C   UNL     1     -11.039   3.057 -18.924  0.00  0.00    +0.000 C 
ATOM     11  C   UNL     1     -10.183   1.932 -19.492  0.00  0.00    +0.000 C 
BRANCH  10  12
ATOM     12  O   UNL     1     -12.325   2.514 -18.593  0.00  0.00    +0.000 OA
ATOM     13  H   UNL     1     -12.884   3.239 -18.268  0.00  0.00    +0.000 HD
ENDBRANCH  10  12
ENDBRANCH   9  10
ENDBRANCH   1   9
BRANCH   1  14
ATOM     14  C   UNL     1     -11.391   5.971 -17.572  0.00  0.00    +0.000 C 
BRANCH  14  15
ATOM     15  C   UNL     1     -10.016   6.653 -17.772  0.00  0.00    +0.000 C 
ATOM     16  C   UNL     1     -10.096   7.932 -18.598  0.00  0.00    +0.000 C 
BRANCH  15  17
ATOM     17  O   UNL     1      -9.398   6.970 -16.526  0.00  0.00    +0.000 OA
ATOM     18  H   UNL     1      -9.200   7.927 -16.578  0.00  0.00    +0.000 HD
ENDBRANCH  15  17
ENDBRANCH  14  15
ENDBRANCH   1  14
TORSDOF 7
ENDMDL
MODEL 8
REMARK VINA RESULT:    -3.405      1.614      5.670
REMARK INTER + INTRA:          -5.185
REMARK INTER:                  -4.548
REMARK INTRA:                  -0.638
REMARK UNBOUND:                -0.586
REMARK  Name = 
REMARK  10 active torsions:
REMARK  status: ('A' for Active; 'I' for Inactive)
REMARK    1  A    between atoms: C_1  and  C_2
REMARK    2  A    between atoms: C_5  and  N_8
REMARK    3  A    between atoms: N_8  and  C_9
REMARK    4  A    between atoms: N_8  and  C_13
REMARK    5  A    between atoms: C_9  and  C_10
REMARK    6  A    between atoms: C_10  and  C_11
REMARK    7  A    between atoms: C_10  and  O_12
REMARK    8  A    between atoms: C_13  and  C_14
REMARK    9  A    between atoms: C_14  and  C_15
REMARK   10  A    between atoms: C_14  and  O_16
REMARK                            x       y       z     vdW  Elec       q    Type
REMARK                         _______ _______ _______ _____ _____    ______ ____
ROOT
ATOM      1  N   UNL     1       3.998  21.597 -16.345  0.00  0.00    +0.000 N 
ENDROOT
BRANCH   1   6
ATOM      2  C   UNL     1       9.318  21.766 -14.109  0.00  0.00    +0.000 C 
ATOM      3  C   UNL     1       7.943  21.742 -14.703  0.00  0.00    +0.000 A 
ATOM      4  C   UNL     1       6.888  22.409 -14.089  0.00  0.00    +0.000 A 
ATOM      5  C   UNL     1       5.594  22.358 -14.634  0.00  0.00    +0.000 A 
ATOM      6  C   UNL     1       5.286  21.627 -15.796  0.00  0.00    +0.000 A 
ATOM      7  C   UNL     1       6.377  20.967 -16.391  0.00  0.00    +0.000 A 
ATOM      8  C   UNL     1       7.676  21.012 -15.857  0.00  0.00    +0.000 A 
ENDBRANCH   1   6
BRANCH   1   9
ATOM      9  C   UNL     1       3.817  21.442 -17.809  0.00  0.00    +0.000 C 
BRANCH   9  10
ATOM     10  C   UNL     1       2.953  20.212 -18.180  0.00  0.00    +0.000 C 
ATOM     11  C   UNL     1       3.123  19.851 -19.651  0.00  0.00    +0.000 C 
BRANCH  10  12
ATOM     12  O   UNL     1       3.321  19.069 -17.396  0.00  0.00    +0.000 OA
ATOM     13  H   UNL     1       3.958  19.358 -16.722  0.00  0.00    +0.000 HD
ENDBRANCH  10  12
ENDBRANCH   9  10
ENDBRANCH   1   9
BRANCH   1  14
ATOM     14  C   UNL     1       2.845  22.206 -15.635  0.00  0.00    +0.000 C 
BRANCH  14  15
ATOM     15  C   UNL     1       2.335  21.316 -14.476  0.00  0.00    +0.000 C 
ATOM     16  C   UNL     1       1.367  22.037 -13.547  0.00  0.00    +0.000 C 
BRANCH  15  17
ATOM     17  O   UNL     1       1.690  20.139 -14.960  0.00  0.00    +0.000 OA
ATOM     18  H   UNL     1       1.301  19.719 -14.166  0.00  0.00    +0.000 HD
ENDBRANCH  15  17
ENDBRANCH  14  15
ENDBRANCH   1  14
TORSDOF 7
ENDMDL
MODEL 9
REMARK VINA RESULT:    -3.150      5.104      8.139
REMARK INTER + INTRA:          -4.840
REMARK INTER:                  -4.150
REMARK INTRA:                  -0.690
REMARK UNBOUND:                -0.586
REMARK  Name = 
REMARK  10 active torsions:
REMARK  status: ('A' for Active; 'I' for Inactive)
REMARK    1  A    between atoms: C_1  and  C_2
REMARK    2  A    between atoms: C_5  and  N_8
REMARK    3  A    between atoms: N_8  and  C_9
REMARK    4  A    between atoms: N_8  and  C_13
REMARK    5  A    between atoms: C_9  and  C_10
REMARK    6  A    between atoms: C_10  and  C_11
REMARK    7  A    between atoms: C_10  and  O_12
REMARK    8  A    between atoms: C_13  and  C_14
REMARK    9  A    between atoms: C_14  and  C_15
REMARK   10  A    between atoms: C_14  and  O_16
REMARK                            x       y       z     vdW  Elec       q    Type
REMARK                         _______ _______ _______ _____ _____    ______ ____
ROOT
ATOM      1  N   UNL     1      -4.159  21.961 -15.687  0.00  0.00    +0.000 N 
ENDROOT
BRANCH   1   6
ATOM      2  C   UNL     1      -8.639  21.579 -12.065  0.00  0.00    +0.000 C 
ATOM      3  C   UNL     1      -7.471  21.654 -13.000  0.00  0.00    +0.000 A 
ATOM      4  C   UNL     1      -6.225  22.083 -12.554  0.00  0.00    +0.000 A 
ATOM      5  C   UNL     1      -5.141  22.180 -13.441  0.00  0.00    +0.000 A 
ATOM      6  C   UNL     1      -5.249  21.880 -14.811  0.00  0.00    +0.000 A 
ATOM      7  C   UNL     1      -6.522  21.448 -15.227  0.00  0.00    +0.000 A 
ATOM      8  C   UNL     1      -7.614  21.345 -14.349  0.00  0.00    +0.000 A 
ENDBRANCH   1   6
BRANCH   1   9
ATOM      9  C   UNL     1      -4.294  22.676 -16.978  0.00  0.00    +0.000 C 
BRANCH   9  10
ATOM     10  C   UNL     1      -4.456  21.716 -18.182  0.00  0.00    +0.000 C 
ATOM     11  C   UNL     1      -5.652  22.113 -19.039  0.00  0.00    +0.000 C 
BRANCH  10  12
ATOM     12  O   UNL     1      -3.288  21.732 -19.014  0.00  0.00    +0.000 OA
ATOM     13  H   UNL     1      -2.999  22.655 -19.110  0.00  0.00    +0.000 HD
ENDBRANCH  10  12
ENDBRANCH   9  10
ENDBRANCH   1   9
BRANCH   1  14
ATOM     14  C   UNL     1      -3.057  20.965 -15.636  0.00  0.00    +0.000 C 
BRANCH  14  15
ATOM     15  C   UNL     1      -1.666  21.626 -15.784  0.00  0.00    +0.000 C 
ATOM     16  C   UNL     1      -0.726  21.310 -14.627  0.00  0.00    +0.000 C 
BRANCH  15  17
ATOM     17  O   UNL     1      -1.022  21.235 -16.996  0.00  0.00    +0.000 OA
ATOM     18  H   UNL     1      -0.478  20.458 -16.754  0.00  0.00    +0.000 HD
ENDBRANCH  15  17
ENDBRANCH  14  15
ENDBRANCH   1  14
TORSDOF 7
ENDMDL
