MODEL 1
REMARK VINA RESULT:    -3.462      0.000      0.000
REMARK INTER + INTRA:          -3.807
REMARK INTER:                  -3.766
REMARK INTRA:                  -0.041
REMARK UNBOUND:                -0.041
REMARK  Name = 
REMARK  3 active torsions:
REMARK  status: ('A' for Active; 'I' for Inactive)
REMARK    1  A    between atoms: C_1  and  O_2
REMARK    2  A    between atoms: O_2  and  C_3
REMARK    3  A    between atoms: C_8  and  O_9
REMARK                            x       y       z     vdW  Elec       q    Type
REMARK                         _______ _______ _______ _____ _____    ______ ____
ROOT
ATOM      1  C   UNL     1      -2.039   2.763 -19.391  0.00  0.00    +0.000 A 
ATOM      2  C   UNL     1      -3.360   2.830 -19.829  0.00  0.00    +0.000 A 
ATOM      3  C   UNL     1      -4.263   1.816 -19.488  0.00  0.00    +0.000 A 
ATOM      4  C   UNL     1      -3.850   0.732 -18.710  0.00  0.00    +0.000 A 
ATOM      5  C   UNL     1      -2.531   0.658 -18.268  0.00  0.00    +0.000 A 
ATOM      6  C   UNL     1      -1.642   1.668 -18.612  0.00  0.00    +0.000 A 
ENDROOT
BRANCH   1   8
ATOM      7  C   UNL     1      -1.465   5.030 -19.812  0.00  0.00    +0.000 C 
ATOM      8  O   UNL     1      -1.051   3.679 -19.649  0.00  0.00    +0.000 OA
ENDBRANCH   1   8
BRANCH   6   9
ATOM      9  O   UNL     1      -0.351   1.573 -18.166  0.00  0.00    +0.000 OA
ATOM     10  H   UNL     1      -0.355   0.811 -17.556  0.00  0.00    +0.000 HD
ENDBRANCH   6   9
TORSDOF 2
ENDMDL
MODEL 2
REMARK VINA RESULT:    -3.308     13.400     14.744
REMARK INTER + INTRA:          -3.639
REMARK INTER:                  -3.597
REMARK INTRA:                  -0.042
REMARK UNBOUND:                -0.041
REMARK  Name = 
REMARK  3 active torsions:
REMARK  status: ('A' for Active; 'I' for Inactive)
REMARK    1  A    between atoms: C_1  and  O_2
REMARK    2  A    between atoms: O_2  and  C_3
REMARK    3  A    between atoms: C_8  and  O_9
REMARK                            x       y       z     vdW  Elec       q    Type
REMARK                         _______ _______ _______ _____ _____    ______ ____
ROOT
ATOM      1  C   UNL     1     -10.867  13.173 -18.073  0.00  0.00    +0.000 A 
ATOM      2  C   UNL     1     -10.960  13.827 -19.301  0.00  0.00    +0.000 A 
ATOM      3  C   UNL     1     -11.035  15.225 -19.345  0.00  0.00    +0.000 A 
ATOM      4  C   UNL     1     -11.018  15.972 -18.166  0.00  0.00    +0.000 A 
ATOM      5  C   UNL     1     -10.925  15.326 -16.935  0.00  0.00    +0.000 A 
ATOM      6  C   UNL     1     -10.851  13.939 -16.901  0.00  0.00    +0.000 A 
ENDROOT
BRANCH   1   8
ATOM      7  C   UNL     1     -11.499  11.002 -18.804  0.00  0.00    +0.000 C 
ATOM      8  O   UNL     1     -10.788  11.817 -17.880  0.00  0.00    +0.000 OA
ENDBRANCH   1   8
BRANCH   6   9
ATOM      9  O   UNL     1     -10.760  13.327 -15.680  0.00  0.00    +0.000 OA
ATOM     10  H   UNL     1     -11.449  12.635 -15.696  0.00  0.00    +0.000 HD
ENDBRANCH   6   9
TORSDOF 2
ENDMDL
MODEL 3
REMARK VINA RESULT:    -3.224     14.006     15.190
REMARK INTER + INTRA:          -3.548
REMARK INTER:                  -3.511
REMARK INTRA:                  -0.037
REMARK UNBOUND:                -0.041
REMARK  Name = 
REMARK  3 active torsions:
REMARK  status: ('A' for Active; 'I' for Inactive)
REMARK    1  A    between atoms: C_1  and  O_2
REMARK    2  A    between atoms: O_2  and  C_3
REMARK    3  A    between atoms: C_8  and  O_9
REMARK                            x       y       z     vdW  Elec       q    Type
REMARK                         _______ _______ _______ _____ _____    ______ ____
ROOT
ATOM      1  C   UNL     1     -10.887  14.903 -17.423  0.00  0.00    +0.000 A 
ATOM      2  C   UNL     1     -11.042  15.622 -18.607  0.00  0.00    +0.000 A 
ATOM      3  C   UNL     1     -11.291  14.947 -19.809  0.00  0.00    +0.000 A 
ATOM      4  C   UNL     1     -11.386  13.554 -19.831  0.00  0.00    +0.000 A 
ATOM      5  C   UNL     1     -11.233  12.828 -18.652  0.00  0.00    +0.000 A 
ATOM      6  C   UNL     1     -10.985  13.506 -17.465  0.00  0.00    +0.000 A 
ENDROOT
BRANCH   1   8
ATOM      7  C   UNL     1     -11.743  16.029 -15.514  0.00  0.00    +0.000 C 
ATOM      8  O   UNL     1     -10.639  15.429 -16.181  0.00  0.00    +0.000 OA
ENDBRANCH   1   8
BRANCH   6   9
ATOM      9  O   UNL     1     -10.838  12.771 -16.319  0.00  0.00    +0.000 OA
ATOM     10  H   UNL     1      -9.928  12.422 -16.364  0.00  0.00    +0.000 HD
ENDBRANCH   6   9
TORSDOF 2
ENDMDL
MODEL 4
REMARK VINA RESULT:    -3.178     26.040     27.013
REMARK INTER + INTRA:          -3.498
REMARK INTER:                  -3.447
REMARK INTRA:                  -0.050
REMARK UNBOUND:                -0.041
REMARK  Name = 
REMARK  3 active torsions:
REMARK  status: ('A' for Active; 'I' for Inactive)
REMARK    1  A    between atoms: C_1  and  O_2
REMARK    2  A    between atoms: O_2  and  C_3
REMARK    3  A    between atoms: C_8  and  O_9
REMARK                            x       y       z     vdW  Elec       q    Type
REMARK                         _______ _______ _______ _____ _____    ______ ____
ROOT
ATOM      1  C   UNL     1      -1.225  19.995   1.252  0.00  0.00    +0.000 A 
ATOM      2  C   UNL     1      -0.261  20.182   2.242  0.00  0.00    +0.000 A 
ATOM      3  C   UNL     1       1.040  20.561   1.888  0.00  0.00    +0.000 A 
ATOM      4  C   UNL     1       1.382  20.753   0.549  0.00  0.00    +0.000 A 
ATOM      5  C   UNL     1       0.425  20.568  -0.446  0.00  0.00    +0.000 A 
ATOM      6  C   UNL     1      -0.863  20.192  -0.087  0.00  0.00    +0.000 A 
ENDROOT
BRANCH   1   8
ATOM      7  C   UNL     1      -2.746  18.426   2.185  0.00  0.00    +0.000 C 
ATOM      8  O   UNL     1      -2.531  19.625   1.451  0.00  0.00    +0.000 OA
ENDBRANCH   1   8
BRANCH   6   9
ATOM      9  O   UNL     1      -1.787  20.015  -1.082  0.00  0.00    +0.000 OA
ATOM     10  H   UNL     1      -2.651  20.073  -0.632  0.00  0.00    +0.000 HD
ENDBRANCH   6   9
TORSDOF 2
ENDMDL
MODEL 5
REMARK VINA RESULT:    -3.027      9.917     10.914
REMARK INTER + INTRA:          -3.333
REMARK INTER:                  -3.291
REMARK INTRA:                  -0.042
REMARK UNBOUND:                -0.041
REMARK  Name = 
REMARK  3 active torsions:
REMARK  status: ('A' for Active; 'I' for Inactive)
REMARK    1  A    between atoms: C_1  and  O_2
REMARK    2  A    between atoms: O_2  and  C_3
REMARK    3  A    between atoms: C_8  and  O_9
REMARK                            x       y       z     vdW  Elec       q    Type
REMARK                         _______ _______ _______ _____ _____    ______ ____
ROOT
ATOM      1  C   UNL     1     -11.463   4.336 -14.064  0.00  0.00    +0.000 A 
ATOM      2  C   UNL     1     -12.262   5.460 -13.860  0.00  0.00    +0.000 A 
ATOM      3  C   UNL     1     -12.382   6.426 -14.867  0.00  0.00    +0.000 A 
ATOM      4  C   UNL     1     -11.705   6.272 -16.079  0.00  0.00    +0.000 A 
ATOM      5  C   UNL     1     -10.906   5.151 -16.290  0.00  0.00    +0.000 A 
ATOM      6  C   UNL     1     -10.792   4.199 -15.286  0.00  0.00    +0.000 A 
ENDROOT
BRANCH   1   8
ATOM      7  C   UNL     1     -12.344   2.986 -12.318  0.00  0.00    +0.000 C 
ATOM      8  O   UNL     1     -11.254   3.316 -13.170  0.00  0.00    +0.000 OA
ENDBRANCH   1   8
BRANCH   6   9
ATOM      9  O   UNL     1     -10.001   3.106 -15.517  0.00  0.00    +0.000 OA
ATOM     10  H   UNL     1     -10.586   2.465 -15.964  0.00  0.00    +0.000 HD
ENDBRANCH   6   9
TORSDOF 2
ENDMDL
MODEL 6
REMARK VINA RESULT:    -2.964      9.573     10.409
REMARK INTER + INTRA:          -3.265
REMARK INTER:                  -3.215
REMARK INTRA:                  -0.050
REMARK UNBOUND:                -0.041
REMARK  Name = 
REMARK  3 active torsions:
REMARK  status: ('A' for Active; 'I' for Inactive)
REMARK    1  A    between atoms: C_1  and  O_2
REMARK    2  A    between atoms: O_2  and  C_3
REMARK    3  A    between atoms: C_8  and  O_9
REMARK                            x       y       z     vdW  Elec       q    Type
REMARK                         _______ _______ _______ _____ _____    ______ ____
ROOT
ATOM      1  C   UNL     1     -10.796   4.439 -14.514  0.00  0.00    +0.000 A 
ATOM      2  C   UNL     1     -10.895   3.521 -15.559  0.00  0.00    +0.000 A 
ATOM      3  C   UNL     1     -10.949   3.972 -16.884  0.00  0.00    +0.000 A 
ATOM      4  C   UNL     1     -10.904   5.338 -17.169  0.00  0.00    +0.000 A 
ATOM      5  C   UNL     1     -10.805   6.262 -16.131  0.00  0.00    +0.000 A 
ATOM      6  C   UNL     1     -10.753   5.805 -14.820  0.00  0.00    +0.000 A 
ENDROOT
BRANCH   1   8
ATOM      7  C   UNL     1     -11.778   3.323 -12.660  0.00  0.00    +0.000 C 
ATOM      8  O   UNL     1     -10.735   4.142 -13.176  0.00  0.00    +0.000 OA
ENDBRANCH   1   8
BRANCH   6   9
ATOM      9  O   UNL     1     -10.655   6.732 -13.816  0.00  0.00    +0.000 OA
ATOM     10  H   UNL     1     -10.576   6.205 -12.998  0.00  0.00    +0.000 HD
ENDBRANCH   6   9
TORSDOF 2
ENDMDL
MODEL 7
REMARK VINA RESULT:    -2.963     25.563     26.662
REMARK INTER + INTRA:          -3.264
REMARK INTER:                  -3.220
REMARK INTRA:                  -0.043
REMARK UNBOUND:                -0.041
REMARK  Name = 
REMARK  3 active torsions:
REMARK  status: ('A' for Active; 'I' for Inactive)
REMARK    1  A    between atoms: C_1  and  O_2
REMARK    2  A    between atoms: O_2  and  C_3
REMARK    3  A    between atoms: C_8  and  O_9
REMARK                            x       y       z     vdW  Elec       q    Type
REMARK                         _______ _______ _______ _____ _____    ______ ____
ROOT
ATOM      1  C   UNL     1      -0.860  20.776  -0.139  0.00  0.00    +0.000 A 
ATOM      2  C   UNL     1      -0.868  21.700   0.904  0.00  0.00    +0.000 A 
ATOM      3  C   UNL     1      -1.492  21.380   2.117  0.00  0.00    +0.000 A 
ATOM      4  C   UNL     1      -2.109  20.140   2.290  0.00  0.00    +0.000 A 
ATOM      5  C   UNL     1      -2.104  19.211   1.252  0.00  0.00    +0.000 A 
ATOM      6  C   UNL     1      -1.483  19.537   0.053  0.00  0.00    +0.000 A 
ENDROOT
BRANCH   1   8
ATOM      7  C   UNL     1      -0.388  22.256  -1.938  0.00  0.00    +0.000 C 
ATOM      8  O   UNL     1      -0.290  20.953  -1.375  0.00  0.00    +0.000 OA
ENDBRANCH   1   8
BRANCH   6   9
ATOM      9  O   UNL     1      -1.492  18.608  -0.953  0.00  0.00    +0.000 OA
ATOM     10  H   UNL     1      -2.309  18.793  -1.455  0.00  0.00    +0.000 HD
ENDBRANCH   6   9
TORSDOF 2
ENDMDL
MODEL 8
REMARK VINA RESULT:    -2.926     26.016     27.133
REMARK INTER + INTRA:          -3.223
REMARK INTER:                  -3.171
REMARK INTRA:                  -0.053
REMARK UNBOUND:                -0.041
REMARK  Name = 
REMARK  3 active torsions:
REMARK  status: ('A' for Active; 'I' for Inactive)
REMARK    1  A    between atoms: C_1  and  O_2
REMARK    2  A    between atoms: O_2  and  C_3
REMARK    3  A    between atoms: C_8  and  O_9
REMARK                            x       y       z     vdW  Elec       q    Type
REMARK                         _______ _______ _______ _____ _____    ______ ____
ROOT
ATOM      1  C   UNL     1       0.433  21.017   0.943  0.00  0.00    +0.000 A 
ATOM      2  C   UNL     1      -0.134  20.577   2.139  0.00  0.00    +0.000 A 
ATOM      3  C   UNL     1      -1.280  19.772   2.115  0.00  0.00    +0.000 A 
ATOM      4  C   UNL     1      -1.862  19.405   0.900  0.00  0.00    +0.000 A 
ATOM      5  C   UNL     1      -1.301  19.840  -0.298  0.00  0.00    +0.000 A 
ATOM      6  C   UNL     1      -0.165  20.638  -0.265  0.00  0.00    +0.000 A 
ENDROOT
BRANCH   1   8
ATOM      7  C   UNL     1       2.775  21.249   1.270  0.00  0.00    +0.000 C 
ATOM      8  O   UNL     1       1.547  21.807   0.816  0.00  0.00    +0.000 OA
ENDBRANCH   1   8
BRANCH   6   9
ATOM      9  O   UNL     1       0.368  21.054  -1.456  0.00  0.00    +0.000 OA
ATOM     10  H   UNL     1       0.912  21.832  -1.227  0.00  0.00    +0.000 HD
ENDBRANCH   6   9
TORSDOF 2
ENDMDL
MODEL 9
REMARK VINA RESULT:    -2.886      9.819     10.541
REMARK INTER + INTRA:          -3.180
REMARK INTER:                  -3.139
REMARK INTRA:                  -0.041
REMARK UNBOUND:                -0.041
REMARK  Name = 
REMARK  3 active torsions:
REMARK  status: ('A' for Active; 'I' for Inactive)
REMARK    1  A    between atoms: C_1  and  O_2
REMARK    2  A    between atoms: O_2  and  C_3
REMARK    3  A    between atoms: C_8  and  O_9
REMARK                            x       y       z     vdW  Elec       q    Type
REMARK                         _______ _______ _______ _____ _____    ______ ____
ROOT
ATOM      1  C   UNL     1     -11.089   5.119 -14.542  0.00  0.00    +0.000 A 
ATOM      2  C   UNL     1     -11.852   5.571 -13.466  0.00  0.00    +0.000 A 
ATOM      3  C   UNL     1     -12.382   4.653 -12.550  0.00  0.00    +0.000 A 
ATOM      4  C   UNL     1     -12.153   3.284 -12.707  0.00  0.00    +0.000 A 
ATOM      5  C   UNL     1     -11.391   2.826 -13.779  0.00  0.00    +0.000 A 
ATOM      6  C   UNL     1     -10.869   3.743 -14.682  0.00  0.00    +0.000 A 
ENDROOT
BRANCH   1   8
ATOM      7  C   UNL     1     -11.384   6.435 -16.499  0.00  0.00    +0.000 C 
ATOM      8  O   UNL     1     -10.511   5.900 -15.511  0.00  0.00    +0.000 OA
ENDBRANCH   1   8
BRANCH   6   9
ATOM      9  O   UNL     1     -10.124   3.268 -15.728  0.00  0.00    +0.000 OA
ATOM     10  H   UNL     1      -9.264   3.030 -15.332  0.00  0.00    +0.000 HD
ENDBRANCH   6   9
TORSDOF 2
ENDMDL
