MODEL 1
REMARK VINA RESULT:    -4.976      0.000      0.000
REMARK INTER + INTRA:          -5.463
REMARK INTER:                  -5.412
REMARK INTRA:                  -0.051
REMARK UNBOUND:                -0.051
REMARK  Name = 
REMARK  3 active torsions:
REMARK  status: ('A' for Active; 'I' for Inactive)
REMARK    1  A    between atoms: C_1  and  O_2
REMARK    2  A    between atoms: O_2  and  C_3
REMARK    3  A    between atoms: C_8  and  O_9
REMARK                            x       y       z     vdW  Elec       q    Type
REMARK                         _______ _______ _______ _____ _____    ______ ____
ROOT
ATOM      1  C   UNL     1       9.992  11.120   3.573  0.00  0.00    +0.000 A 
ATOM      2  C   UNL     1      10.277  11.528   4.875  0.00  0.00    +0.000 A 
ATOM      3  C   UNL     1       9.407  11.191   5.920  0.00  0.00    +0.000 A 
ATOM      4  C   UNL     1       8.253  10.448   5.668  0.00  0.00    +0.000 A 
ATOM      5  C   UNL     1       7.962  10.035   4.369  0.00  0.00    +0.000 A 
ATOM      6  C   UNL     1       8.830  10.374   3.339  0.00  0.00    +0.000 A 
ENDROOT
BRANCH   1   8
ATOM      7  C   UNL     1      11.993  10.692   2.364  0.00  0.00    +0.000 C 
ATOM      8  O   UNL     1      10.750  11.377   2.458  0.00  0.00    +0.000 OA
ENDBRANCH   1   8
BRANCH   6   9
ATOM      9  O   UNL     1       8.523   9.958   2.072  0.00  0.00    +0.000 OA
ATOM     10  H   UNL     1       9.367   9.632   1.706  0.00  0.00    +0.000 HD
ENDBRANCH   6   9
TORSDOF 2
ENDMDL
MODEL 2
REMARK VINA RESULT:    -4.729      2.110      3.481
REMARK INTER + INTRA:          -5.194
REMARK INTER:                  -5.145
REMARK INTRA:                  -0.049
REMARK UNBOUND:                -0.051
REMARK  Name = 
REMARK  3 active torsions:
REMARK  status: ('A' for Active; 'I' for Inactive)
REMARK    1  A    between atoms: C_1  and  O_2
REMARK    2  A    between atoms: O_2  and  C_3
REMARK    3  A    between atoms: C_8  and  O_9
REMARK                            x       y       z     vdW  Elec       q    Type
REMARK                         _______ _______ _______ _____ _____    ______ ____
ROOT
ATOM      1  C   UNL     1       8.424  10.912   5.319  0.00  0.00    +0.000 A 
ATOM      2  C   UNL     1       9.132  12.096   5.119  0.00  0.00    +0.000 A 
ATOM      3  C   UNL     1       9.635  12.405   3.849  0.00  0.00    +0.000 A 
ATOM      4  C   UNL     1       9.433  11.534   2.777  0.00  0.00    +0.000 A 
ATOM      5  C   UNL     1       8.726  10.350   2.968  0.00  0.00    +0.000 A 
ATOM      6  C   UNL     1       8.231  10.051   4.231  0.00  0.00    +0.000 A 
ENDROOT
BRANCH   1   8
ATOM      7  C   UNL     1       7.056  11.413   7.196  0.00  0.00    +0.000 C 
ATOM      8  O   UNL     1       7.878  10.482   6.502  0.00  0.00    +0.000 OA
ENDBRANCH   1   8
BRANCH   6   9
ATOM      9  O   UNL     1       7.540   8.880   4.394  0.00  0.00    +0.000 OA
ATOM     10  H   UNL     1       7.180   8.679   3.509  0.00  0.00    +0.000 HD
ENDBRANCH   6   9
TORSDOF 2
ENDMDL
MODEL 3
REMARK VINA RESULT:    -4.638      1.187      1.402
REMARK INTER + INTRA:          -5.096
REMARK INTER:                  -5.056
REMARK INTRA:                  -0.039
REMARK UNBOUND:                -0.051
REMARK  Name = 
REMARK  3 active torsions:
REMARK  status: ('A' for Active; 'I' for Inactive)
REMARK    1  A    between atoms: C_1  and  O_2
REMARK    2  A    between atoms: O_2  and  C_3
REMARK    3  A    between atoms: C_8  and  O_9
REMARK                            x       y       z     vdW  Elec       q    Type
REMARK                         _______ _______ _______ _____ _____    ______ ____
ROOT
ATOM      1  C   UNL     1       9.328  10.884   3.967  0.00  0.00    +0.000 A 
ATOM      2  C   UNL     1       9.944  11.959   4.606  0.00  0.00    +0.000 A 
ATOM      3  C   UNL     1       9.464  12.405   5.845  0.00  0.00    +0.000 A 
ATOM      4  C   UNL     1       8.371  11.780   6.447  0.00  0.00    +0.000 A 
ATOM      5  C   UNL     1       7.751  10.705   5.815  0.00  0.00    +0.000 A 
ATOM      6  C   UNL     1       8.233  10.270   4.587  0.00  0.00    +0.000 A 
ENDROOT
BRANCH   1   8
ATOM      7  C   UNL     1      11.034  10.552   2.347  0.00  0.00    +0.000 C 
ATOM      8  O   UNL     1       9.689  10.344   2.759  0.00  0.00    +0.000 OA
ENDBRANCH   1   8
BRANCH   6   9
ATOM      9  O   UNL     1       7.607   9.211   3.985  0.00  0.00    +0.000 OA
ATOM     10  H   UNL     1       7.601   8.508   4.662  0.00  0.00    +0.000 HD
ENDBRANCH   6   9
TORSDOF 2
ENDMDL
MODEL 4
REMARK VINA RESULT:    -4.342      2.268      3.202
REMARK INTER + INTRA:          -4.774
REMARK INTER:                  -4.735
REMARK INTRA:                  -0.039
REMARK UNBOUND:                -0.051
REMARK  Name = 
REMARK  3 active torsions:
REMARK  status: ('A' for Active; 'I' for Inactive)
REMARK    1  A    between atoms: C_1  and  O_2
REMARK    2  A    between atoms: O_2  and  C_3
REMARK    3  A    between atoms: C_8  and  O_9
REMARK                            x       y       z     vdW  Elec       q    Type
REMARK                         _______ _______ _______ _____ _____    ______ ____
ROOT
ATOM      1  C   UNL     1       9.618  11.107   5.625  0.00  0.00    +0.000 A 
ATOM      2  C   UNL     1      10.607  11.191   4.646  0.00  0.00    +0.000 A 
ATOM      3  C   UNL     1      10.326  10.797   3.332  0.00  0.00    +0.000 A 
ATOM      4  C   UNL     1       9.060  10.317   2.992  0.00  0.00    +0.000 A 
ATOM      5  C   UNL     1       8.066  10.231   3.965  0.00  0.00    +0.000 A 
ATOM      6  C   UNL     1       8.354  10.624   5.265  0.00  0.00    +0.000 A 
ENDROOT
BRANCH   1   8
ATOM      7  C   UNL     1      10.831  12.325   7.265  0.00  0.00    +0.000 C 
ATOM      8  O   UNL     1       9.752  11.455   6.945  0.00  0.00    +0.000 OA
ENDBRANCH   1   8
BRANCH   6   9
ATOM      9  O   UNL     1       7.361  10.529   6.204  0.00  0.00    +0.000 OA
ATOM     10  H   UNL     1       7.097  11.452   6.379  0.00  0.00    +0.000 HD
ENDBRANCH   6   9
TORSDOF 2
ENDMDL
MODEL 5
REMARK VINA RESULT:    -4.258      2.367      3.987
REMARK INTER + INTRA:          -4.683
REMARK INTER:                  -4.640
REMARK INTRA:                  -0.043
REMARK UNBOUND:                -0.051
REMARK  Name = 
REMARK  3 active torsions:
REMARK  status: ('A' for Active; 'I' for Inactive)
REMARK    1  A    between atoms: C_1  and  O_2
REMARK    2  A    between atoms: O_2  and  C_3
REMARK    3  A    between atoms: C_8  and  O_9
REMARK                            x       y       z     vdW  Elec       q    Type
REMARK                         _______ _______ _______ _____ _____    ______ ____
ROOT
ATOM      1  C   UNL     1       8.679  11.007   5.376  0.00  0.00    +0.000 A 
ATOM      2  C   UNL     1       8.205  10.106   4.423  0.00  0.00    +0.000 A 
ATOM      3  C   UNL     1       8.471  10.321   3.064  0.00  0.00    +0.000 A 
ATOM      4  C   UNL     1       9.207  11.434   2.655  0.00  0.00    +0.000 A 
ATOM      5  C   UNL     1       9.684  12.338   3.601  0.00  0.00    +0.000 A 
ATOM      6  C   UNL     1       9.416  12.117   4.946  0.00  0.00    +0.000 A 
ENDROOT
BRANCH   1   8
ATOM      7  C   UNL     1       7.199  11.248   7.219  0.00  0.00    +0.000 C 
ATOM      8  O   UNL     1       8.495  10.923   6.733  0.00  0.00    +0.000 OA
ENDBRANCH   1   8
BRANCH   6   9
ATOM      9  O   UNL     1       9.895  13.020   5.858  0.00  0.00    +0.000 OA
ATOM     10  H   UNL     1       9.929  13.867   5.374  0.00  0.00    +0.000 HD
ENDBRANCH   6   9
TORSDOF 2
ENDMDL
MODEL 6
REMARK VINA RESULT:    -4.247     11.177     13.619
REMARK INTER + INTRA:          -4.671
REMARK INTER:                  -4.633
REMARK INTRA:                  -0.037
REMARK UNBOUND:                -0.051
REMARK  Name = 
REMARK  3 active torsions:
REMARK  status: ('A' for Active; 'I' for Inactive)
REMARK    1  A    between atoms: C_1  and  O_2
REMARK    2  A    between atoms: O_2  and  C_3
REMARK    3  A    between atoms: C_8  and  O_9
REMARK                            x       y       z     vdW  Elec       q    Type
REMARK                         _______ _______ _______ _____ _____    ______ ____
ROOT
ATOM      1  C   UNL     1      20.946  15.487   0.940  0.00  0.00    +0.000 A 
ATOM      2  C   UNL     1      21.991  14.852   0.270  0.00  0.00    +0.000 A 
ATOM      3  C   UNL     1      22.980  15.615  -0.364  0.00  0.00    +0.000 A 
ATOM      4  C   UNL     1      22.927  17.009  -0.333  0.00  0.00    +0.000 A 
ATOM      5  C   UNL     1      21.886  17.650   0.335  0.00  0.00    +0.000 A 
ATOM      6  C   UNL     1      20.910  16.886   0.961  0.00  0.00    +0.000 A 
ENDROOT
BRANCH   1   8
ATOM      7  C   UNL     1      19.841  13.454   1.485  0.00  0.00    +0.000 C 
ATOM      8  O   UNL     1      19.914  14.870   1.601  0.00  0.00    +0.000 OA
ENDBRANCH   1   8
BRANCH   6   9
ATOM      9  O   UNL     1      19.896  17.539   1.610  0.00  0.00    +0.000 OA
ATOM     10  H   UNL     1      19.578  18.203   0.970  0.00  0.00    +0.000 HD
ENDBRANCH   6   9
TORSDOF 2
ENDMDL
MODEL 7
REMARK VINA RESULT:    -4.095      1.837      2.987
REMARK INTER + INTRA:          -4.505
REMARK INTER:                  -4.460
REMARK INTRA:                  -0.046
REMARK UNBOUND:                -0.051
REMARK  Name = 
REMARK  3 active torsions:
REMARK  status: ('A' for Active; 'I' for Inactive)
REMARK    1  A    between atoms: C_1  and  O_2
REMARK    2  A    between atoms: O_2  and  C_3
REMARK    3  A    between atoms: C_8  and  O_9
REMARK                            x       y       z     vdW  Elec       q    Type
REMARK                         _______ _______ _______ _____ _____    ______ ____
ROOT
ATOM      1  C   UNL     1       9.154  11.833   4.735  0.00  0.00    +0.000 A 
ATOM      2  C   UNL     1       8.464  10.712   5.193  0.00  0.00    +0.000 A 
ATOM      3  C   UNL     1       8.040   9.733   4.286  0.00  0.00    +0.000 A 
ATOM      4  C   UNL     1       8.302   9.871   2.922  0.00  0.00    +0.000 A 
ATOM      5  C   UNL     1       8.991  10.988   2.456  0.00  0.00    +0.000 A 
ATOM      6  C   UNL     1       9.408  11.954   3.363  0.00  0.00    +0.000 A 
ENDROOT
BRANCH   1   8
ATOM      7  C   UNL     1      10.261  12.507   6.727  0.00  0.00    +0.000 C 
ATOM      8  O   UNL     1       9.627  12.866   5.505  0.00  0.00    +0.000 OA
ENDBRANCH   1   8
BRANCH   6   9
ATOM      9  O   UNL     1      10.084  13.043   2.882  0.00  0.00    +0.000 OA
ATOM     10  H   UNL     1      10.522  13.430   3.664  0.00  0.00    +0.000 HD
ENDBRANCH   6   9
TORSDOF 2
ENDMDL
MODEL 8
REMARK VINA RESULT:    -3.991      2.668      3.710
REMARK INTER + INTRA:          -4.392
REMARK INTER:                  -4.350
REMARK INTRA:                  -0.043
REMARK UNBOUND:                -0.051
REMARK  Name = 
REMARK  3 active torsions:
REMARK  status: ('A' for Active; 'I' for Inactive)
REMARK    1  A    between atoms: C_1  and  O_2
REMARK    2  A    between atoms: O_2  and  C_3
REMARK    3  A    between atoms: C_8  and  O_9
REMARK                            x       y       z     vdW  Elec       q    Type
REMARK                         _______ _______ _______ _____ _____    ______ ____
ROOT
ATOM      1  C   UNL     1       8.559  11.050   6.042  0.00  0.00    +0.000 A 
ATOM      2  C   UNL     1       9.863  11.542   5.985  0.00  0.00    +0.000 A 
ATOM      3  C   UNL     1      10.291  12.499   6.914  0.00  0.00    +0.000 A 
ATOM      4  C   UNL     1       9.420  12.968   7.899  0.00  0.00    +0.000 A 
ATOM      5  C   UNL     1       8.116  12.481   7.963  0.00  0.00    +0.000 A 
ATOM      6  C   UNL     1       7.700  11.532   7.037  0.00  0.00    +0.000 A 
ENDROOT
BRANCH   1   8
ATOM      7  C   UNL     1       8.431  10.155   3.844  0.00  0.00    +0.000 C 
ATOM      8  O   UNL     1       8.007  10.117   5.201  0.00  0.00    +0.000 OA
ENDBRANCH   1   8
BRANCH   6   9
ATOM      9  O   UNL     1       6.414  11.069   7.120  0.00  0.00    +0.000 OA
ATOM     10  H   UNL     1       6.360  10.364   6.447  0.00  0.00    +0.000 HD
ENDBRANCH   6   9
TORSDOF 2
ENDMDL
