MODEL 1
REMARK VINA RESULT:    -5.015      0.000      0.000
REMARK INTER + INTRA:          -5.495
REMARK INTER:                  -5.455
REMARK INTRA:                  -0.040
REMARK UNBOUND:                -0.040
REMARK  Name = 
REMARK  3 active torsions:
REMARK  status: ('A' for Active; 'I' for Inactive)
REMARK    1  A    between atoms: C_1  and  O_2
REMARK    2  A    between atoms: O_2  and  C_3
REMARK    3  A    between atoms: C_8  and  O_9
REMARK                            x       y       z     vdW  Elec       q    Type
REMARK                         _______ _______ _______ _____ _____    ______ ____
ROOT
ATOM      1  C   UNL     1       6.761  12.780   2.429  0.00  0.00    +0.000 A 
ATOM      2  C   UNL     1       6.797  13.512   3.615  0.00  0.00    +0.000 A 
ATOM      3  C   UNL     1       5.976  13.145   4.689  0.00  0.00    +0.000 A 
ATOM      4  C   UNL     1       5.118  12.048   4.582  0.00  0.00    +0.000 A 
ATOM      5  C   UNL     1       5.077  11.312   3.400  0.00  0.00    +0.000 A 
ATOM      6  C   UNL     1       5.894  11.683   2.340  0.00  0.00    +0.000 A 
ENDROOT
BRANCH   1   8
ATOM      7  C   UNL     1       8.876  12.652   1.354  0.00  0.00    +0.000 C 
ATOM      8  O   UNL     1       7.504  13.025   1.302  0.00  0.00    +0.000 OA
ENDBRANCH   1   8
BRANCH   6   9
ATOM      9  O   UNL     1       5.836  10.944   1.189  0.00  0.00    +0.000 OA
ATOM     10  H   UNL     1       6.259  11.506   0.511  0.00  0.00    +0.000 HD
ENDBRANCH   6   9
TORSDOF 2
ENDMDL
MODEL 2
REMARK VINA RESULT:    -4.636      1.977      3.379
REMARK INTER + INTRA:          -5.083
REMARK INTER:                  -5.034
REMARK INTRA:                  -0.049
REMARK UNBOUND:                -0.040
REMARK  Name = 
REMARK  3 active torsions:
REMARK  status: ('A' for Active; 'I' for Inactive)
REMARK    1  A    between atoms: C_1  and  O_2
REMARK    2  A    between atoms: O_2  and  C_3
REMARK    3  A    between atoms: C_8  and  O_9
REMARK                            x       y       z     vdW  Elec       q    Type
REMARK                         _______ _______ _______ _____ _____    ______ ____
ROOT
ATOM      1  C   UNL     1       5.399  12.367   4.146  0.00  0.00    +0.000 A 
ATOM      2  C   UNL     1       5.835  13.670   3.911  0.00  0.00    +0.000 A 
ATOM      3  C   UNL     1       6.267  14.043   2.632  0.00  0.00    +0.000 A 
ATOM      4  C   UNL     1       6.265  13.118   1.586  0.00  0.00    +0.000 A 
ATOM      5  C   UNL     1       5.831  11.814   1.813  0.00  0.00    +0.000 A 
ATOM      6  C   UNL     1       5.405  11.453   3.085  0.00  0.00    +0.000 A 
ENDROOT
BRANCH   1   8
ATOM      7  C   UNL     1       3.916  12.593   5.989  0.00  0.00    +0.000 C 
ATOM      8  O   UNL     1       4.952  11.864   5.342  0.00  0.00    +0.000 OA
ENDBRANCH   1   8
BRANCH   6   9
ATOM      9  O   UNL     1       4.983  10.165   3.284  0.00  0.00    +0.000 OA
ATOM     10  H   UNL     1       5.801   9.632   3.279  0.00  0.00    +0.000 HD
ENDBRANCH   6   9
TORSDOF 2
ENDMDL
MODEL 3
REMARK VINA RESULT:    -4.275      2.422      3.381
REMARK INTER + INTRA:          -4.690
REMARK INTER:                  -4.643
REMARK INTRA:                  -0.047
REMARK UNBOUND:                -0.040
REMARK  Name = 
REMARK  3 active torsions:
REMARK  status: ('A' for Active; 'I' for Inactive)
REMARK    1  A    between atoms: C_1  and  O_2
REMARK    2  A    between atoms: O_2  and  C_3
REMARK    3  A    between atoms: C_8  and  O_9
REMARK                            x       y       z     vdW  Elec       q    Type
REMARK                         _______ _______ _______ _____ _____    ______ ____
ROOT
ATOM      1  C   UNL     1       5.879  13.336   4.637  0.00  0.00    +0.000 A 
ATOM      2  C   UNL     1       6.679  13.707   3.557  0.00  0.00    +0.000 A 
ATOM      3  C   UNL     1       6.706  12.915   2.402  0.00  0.00    +0.000 A 
ATOM      4  C   UNL     1       5.937  11.753   2.322  0.00  0.00    +0.000 A 
ATOM      5  C   UNL     1       5.134  11.376   3.397  0.00  0.00    +0.000 A 
ATOM      6  C   UNL     1       5.114  12.167   4.539  0.00  0.00    +0.000 A 
ENDROOT
BRANCH   1   8
ATOM      7  C   UNL     1       6.963  14.451   6.433  0.00  0.00    +0.000 C 
ATOM      8  O   UNL     1       5.755  14.012   5.824  0.00  0.00    +0.000 OA
ENDBRANCH   1   8
BRANCH   6   9
ATOM      9  O   UNL     1       4.317  11.776   5.582  0.00  0.00    +0.000 OA
ATOM     10  H   UNL     1       4.639  10.886   5.819  0.00  0.00    +0.000 HD
ENDBRANCH   6   9
TORSDOF 2
ENDMDL
MODEL 4
REMARK VINA RESULT:    -4.216      2.334      4.064
REMARK INTER + INTRA:          -4.626
REMARK INTER:                  -4.574
REMARK INTRA:                  -0.052
REMARK UNBOUND:                -0.040
REMARK  Name = 
REMARK  3 active torsions:
REMARK  status: ('A' for Active; 'I' for Inactive)
REMARK    1  A    between atoms: C_1  and  O_2
REMARK    2  A    between atoms: O_2  and  C_3
REMARK    3  A    between atoms: C_8  and  O_9
REMARK                            x       y       z     vdW  Elec       q    Type
REMARK                         _______ _______ _______ _____ _____    ______ ____
ROOT
ATOM      1  C   UNL     1       5.487  12.507   4.561  0.00  0.00    +0.000 A 
ATOM      2  C   UNL     1       5.109  11.476   3.703  0.00  0.00    +0.000 A 
ATOM      3  C   UNL     1       5.647  11.408   2.412  0.00  0.00    +0.000 A 
ATOM      4  C   UNL     1       6.561  12.368   1.974  0.00  0.00    +0.000 A 
ATOM      5  C   UNL     1       6.944  13.401   2.826  0.00  0.00    +0.000 A 
ATOM      6  C   UNL     1       6.406  13.461   4.105  0.00  0.00    +0.000 A 
ENDROOT
BRANCH   1   8
ATOM      7  C   UNL     1       3.641  12.861   6.014  0.00  0.00    +0.000 C 
ATOM      8  O   UNL     1       5.044  12.698   5.845  0.00  0.00    +0.000 OA
ENDBRANCH   1   8
BRANCH   6   9
ATOM      9  O   UNL     1       6.798  14.486   4.924  0.00  0.00    +0.000 OA
ATOM     10  H   UNL     1       5.964  14.894   5.227  0.00  0.00    +0.000 HD
ENDBRANCH   6   9
TORSDOF 2
ENDMDL
MODEL 5
REMARK VINA RESULT:    -4.033      4.341      5.306
REMARK INTER + INTRA:          -4.427
REMARK INTER:                  -4.374
REMARK INTRA:                  -0.053
REMARK UNBOUND:                -0.040
REMARK  Name = 
REMARK  3 active torsions:
REMARK  status: ('A' for Active; 'I' for Inactive)
REMARK    1  A    between atoms: C_1  and  O_2
REMARK    2  A    between atoms: O_2  and  C_3
REMARK    3  A    between atoms: C_8  and  O_9
REMARK                            x       y       z     vdW  Elec       q    Type
REMARK                         _______ _______ _______ _____ _____    ______ ____
ROOT
ATOM      1  C   UNL     1       4.437  13.918   7.100  0.00  0.00    +0.000 A 
ATOM      2  C   UNL     1       4.184  15.085   7.820  0.00  0.00    +0.000 A 
ATOM      3  C   UNL     1       2.864  15.504   8.031  0.00  0.00    +0.000 A 
ATOM      4  C   UNL     1       1.796  14.763   7.523  0.00  0.00    +0.000 A 
ATOM      5  C   UNL     1       2.041  13.596   6.803  0.00  0.00    +0.000 A 
ATOM      6  C   UNL     1       3.353  13.187   6.599  0.00  0.00    +0.000 A 
ENDROOT
BRANCH   1   8
ATOM      7  C   UNL     1       6.512  14.162   5.968  0.00  0.00    +0.000 C 
ATOM      8  O   UNL     1       5.672  13.391   6.818  0.00  0.00    +0.000 OA
ENDBRANCH   1   8
BRANCH   6   9
ATOM      9  O   UNL     1       3.569  12.037   5.888  0.00  0.00    +0.000 OA
ATOM     10  H   UNL     1       2.677  11.730   5.636  0.00  0.00    +0.000 HD
ENDBRANCH   6   9
TORSDOF 2
ENDMDL
MODEL 6
REMARK VINA RESULT:    -3.967      5.578      6.593
REMARK INTER + INTRA:          -4.355
REMARK INTER:                  -4.306
REMARK INTRA:                  -0.050
REMARK UNBOUND:                -0.040
REMARK  Name = 
REMARK  3 active torsions:
REMARK  status: ('A' for Active; 'I' for Inactive)
REMARK    1  A    between atoms: C_1  and  O_2
REMARK    2  A    between atoms: O_2  and  C_3
REMARK    3  A    between atoms: C_8  and  O_9
REMARK                            x       y       z     vdW  Elec       q    Type
REMARK                         _______ _______ _______ _____ _____    ______ ____
ROOT
ATOM      1  C   UNL     1       4.468  15.064   7.781  0.00  0.00    +0.000 A 
ATOM      2  C   UNL     1       4.716  14.063   6.842  0.00  0.00    +0.000 A 
ATOM      3  C   UNL     1       3.647  13.378   6.251  0.00  0.00    +0.000 A 
ATOM      4  C   UNL     1       2.330  13.690   6.594  0.00  0.00    +0.000 A 
ATOM      5  C   UNL     1       2.074  14.689   7.530  0.00  0.00    +0.000 A 
ATOM      6  C   UNL     1       3.140  15.363   8.112  0.00  0.00    +0.000 A 
ENDROOT
BRANCH   1   8
ATOM      7  C   UNL     1       6.370  16.480   7.625  0.00  0.00    +0.000 C 
ATOM      8  O   UNL     1       5.412  15.812   8.437  0.00  0.00    +0.000 OA
ENDBRANCH   1   8
BRANCH   6   9
ATOM      9  O   UNL     1       2.864  16.341   9.029  0.00  0.00    +0.000 OA
ATOM     10  H   UNL     1       3.374  17.116   8.727  0.00  0.00    +0.000 HD
ENDBRANCH   6   9
TORSDOF 2
ENDMDL
MODEL 7
REMARK VINA RESULT:    -3.948      3.556      4.735
REMARK INTER + INTRA:          -4.334
REMARK INTER:                  -4.291
REMARK INTRA:                  -0.043
REMARK UNBOUND:                -0.040
REMARK  Name = 
REMARK  3 active torsions:
REMARK  status: ('A' for Active; 'I' for Inactive)
REMARK    1  A    between atoms: C_1  and  O_2
REMARK    2  A    between atoms: O_2  and  C_3
REMARK    3  A    between atoms: C_8  and  O_9
REMARK                            x       y       z     vdW  Elec       q    Type
REMARK                         _______ _______ _______ _____ _____    ______ ____
ROOT
ATOM      1  C   UNL     1       5.000  13.681   6.458  0.00  0.00    +0.000 A 
ATOM      2  C   UNL     1       6.163  14.245   5.934  0.00  0.00    +0.000 A 
ATOM      3  C   UNL     1       6.674  13.787   4.713  0.00  0.00    +0.000 A 
ATOM      4  C   UNL     1       6.027  12.766   4.013  0.00  0.00    +0.000 A 
ATOM      5  C   UNL     1       4.865  12.199   4.530  0.00  0.00    +0.000 A 
ATOM      6  C   UNL     1       4.366  12.659   5.742  0.00  0.00    +0.000 A 
ENDROOT
BRANCH   1   8
ATOM      7  C   UNL     1       4.415  15.408   7.982  0.00  0.00    +0.000 C 
ATOM      8  O   UNL     1       4.391  14.028   7.637  0.00  0.00    +0.000 OA
ENDBRANCH   1   8
BRANCH   6   9
ATOM      9  O   UNL     1       3.222  12.085   6.230  0.00  0.00    +0.000 OA
ATOM     10  H   UNL     1       3.382  11.988   7.188  0.00  0.00    +0.000 HD
ENDBRANCH   6   9
TORSDOF 2
ENDMDL
MODEL 8
REMARK VINA RESULT:    -3.900      2.644      3.679
REMARK INTER + INTRA:          -4.282
REMARK INTER:                  -4.241
REMARK INTRA:                  -0.041
REMARK UNBOUND:                -0.040
REMARK  Name = 
REMARK  3 active torsions:
REMARK  status: ('A' for Active; 'I' for Inactive)
REMARK    1  A    between atoms: C_1  and  O_2
REMARK    2  A    between atoms: O_2  and  C_3
REMARK    3  A    between atoms: C_8  and  O_9
REMARK                            x       y       z     vdW  Elec       q    Type
REMARK                         _______ _______ _______ _____ _____    ______ ____
ROOT
ATOM      1  C   UNL     1       5.379  12.648   4.959  0.00  0.00    +0.000 A 
ATOM      2  C   UNL     1       6.541  13.418   4.967  0.00  0.00    +0.000 A 
ATOM      3  C   UNL     1       6.718  14.408   5.943  0.00  0.00    +0.000 A 
ATOM      4  C   UNL     1       5.737  14.631   6.911  0.00  0.00    +0.000 A 
ATOM      5  C   UNL     1       4.574  13.865   6.910  0.00  0.00    +0.000 A 
ATOM      6  C   UNL     1       4.406  12.887   5.938  0.00  0.00    +0.000 A 
ENDROOT
BRANCH   1   8
ATOM      7  C   UNL     1       5.605  11.787   2.756  0.00  0.00    +0.000 C 
ATOM      8  O   UNL     1       5.072  11.651   4.068  0.00  0.00    +0.000 OA
ENDBRANCH   1   8
BRANCH   6   9
ATOM      9  O   UNL     1       3.254  12.147   5.957  0.00  0.00    +0.000 OA
ATOM     10  H   UNL     1       2.758  12.439   5.168  0.00  0.00    +0.000 HD
ENDBRANCH   6   9
TORSDOF 2
ENDMDL
