MODEL 1
REMARK VINA RESULT:    -3.668      0.000      0.000
REMARK INTER + INTRA:          -4.035
REMARK INTER:                  -3.990
REMARK INTRA:                  -0.045
REMARK UNBOUND:                -0.045
REMARK  Name = 
REMARK  3 active torsions:
REMARK  status: ('A' for Active; 'I' for Inactive)
REMARK    1  A    between atoms: C_1  and  O_2
REMARK    2  A    between atoms: O_2  and  C_3
REMARK    3  A    between atoms: C_8  and  O_9
REMARK                            x       y       z     vdW  Elec       q    Type
REMARK                         _______ _______ _______ _____ _____    ______ ____
ROOT
ATOM      1  C   UNL     1      -2.541   2.388 -19.299  0.00  0.00    +0.000 A 
ATOM      2  C   UNL     1      -2.336   3.660 -19.831  0.00  0.00    +0.000 A 
ATOM      3  C   UNL     1      -1.244   4.428 -19.407  0.00  0.00    +0.000 A 
ATOM      4  C   UNL     1      -0.357   3.929 -18.452  0.00  0.00    +0.000 A 
ATOM      5  C   UNL     1      -0.555   2.659 -17.916  0.00  0.00    +0.000 A 
ATOM      6  C   UNL     1      -1.640   1.904 -18.342  0.00  0.00    +0.000 A 
ENDROOT
BRANCH   1   8
ATOM      7  C   UNL     1      -4.857   2.105 -19.750  0.00  0.00    +0.000 C 
ATOM      8  O   UNL     1      -3.563   1.530 -19.619  0.00  0.00    +0.000 OA
ENDBRANCH   1   8
BRANCH   6   9
ATOM      9  O   UNL     1      -1.814   0.658 -17.801  0.00  0.00    +0.000 OA
ATOM     10  H   UNL     1      -2.576   0.283 -18.282  0.00  0.00    +0.000 HD
ENDBRANCH   6   9
TORSDOF 2
ENDMDL
MODEL 2
REMARK VINA RESULT:    -3.453      1.565      3.107
REMARK INTER + INTRA:          -3.801
REMARK INTER:                  -3.752
REMARK INTRA:                  -0.050
REMARK UNBOUND:                -0.045
REMARK  Name = 
REMARK  3 active torsions:
REMARK  status: ('A' for Active; 'I' for Inactive)
REMARK    1  A    between atoms: C_1  and  O_2
REMARK    2  A    between atoms: O_2  and  C_3
REMARK    3  A    between atoms: C_8  and  O_9
REMARK                            x       y       z     vdW  Elec       q    Type
REMARK                         _______ _______ _______ _____ _____    ______ ____
ROOT
ATOM      1  C   UNL     1      -1.651   2.611 -19.276  0.00  0.00    +0.000 A 
ATOM      2  C   UNL     1      -2.867   3.016 -19.824  0.00  0.00    +0.000 A 
ATOM      3  C   UNL     1      -4.018   2.245 -19.621  0.00  0.00    +0.000 A 
ATOM      4  C   UNL     1      -3.959   1.069 -18.872  0.00  0.00    +0.000 A 
ATOM      5  C   UNL     1      -2.748   0.657 -18.321  0.00  0.00    +0.000 A 
ATOM      6  C   UNL     1      -1.611   1.428 -18.528  0.00  0.00    +0.000 A 
ENDROOT
BRANCH   1   8
ATOM      7  C   UNL     1      -0.315   4.480 -18.669  0.00  0.00    +0.000 C 
ATOM      8  O   UNL     1      -0.450   3.263 -19.394  0.00  0.00    +0.000 OA
ENDBRANCH   1   8
BRANCH   6   9
ATOM      9  O   UNL     1      -0.432   1.002 -17.976  0.00  0.00    +0.000 OA
ATOM     10  H   UNL     1      -0.695   0.521 -17.168  0.00  0.00    +0.000 HD
ENDBRANCH   6   9
TORSDOF 2
ENDMDL
MODEL 3
REMARK VINA RESULT:    -3.347     13.575     14.366
REMARK INTER + INTRA:          -3.686
REMARK INTER:                  -3.645
REMARK INTRA:                  -0.041
REMARK UNBOUND:                -0.045
REMARK  Name = 
REMARK  3 active torsions:
REMARK  status: ('A' for Active; 'I' for Inactive)
REMARK    1  A    between atoms: C_1  and  O_2
REMARK    2  A    between atoms: O_2  and  C_3
REMARK    3  A    between atoms: C_8  and  O_9
REMARK                            x       y       z     vdW  Elec       q    Type
REMARK                         _______ _______ _______ _____ _____    ______ ____
ROOT
ATOM      1  C   UNL     1     -10.929  13.100 -18.062  0.00  0.00    +0.000 A 
ATOM      2  C   UNL     1     -11.049  13.705 -19.312  0.00  0.00    +0.000 A 
ATOM      3  C   UNL     1     -11.068  15.101 -19.415  0.00  0.00    +0.000 A 
ATOM      4  C   UNL     1     -10.969  15.897 -18.272  0.00  0.00    +0.000 A 
ATOM      5  C   UNL     1     -10.848  15.300 -17.019  0.00  0.00    +0.000 A 
ATOM      6  C   UNL     1     -10.830  13.914 -16.927  0.00  0.00    +0.000 A 
ENDROOT
BRANCH   1   8
ATOM      7  C   UNL     1     -11.582  10.918 -18.741  0.00  0.00    +0.000 C 
ATOM      8  O   UNL     1     -10.898  11.752 -17.812  0.00  0.00    +0.000 OA
ENDBRANCH   1   8
BRANCH   6   9
ATOM      9  O   UNL     1     -10.711  13.351 -15.684  0.00  0.00    +0.000 OA
ATOM     10  H   UNL     1     -10.880  14.084 -15.062  0.00  0.00    +0.000 HD
ENDBRANCH   6   9
TORSDOF 2
ENDMDL
MODEL 4
REMARK VINA RESULT:    -3.183     25.683     26.519
REMARK INTER + INTRA:          -3.507
REMARK INTER:                  -3.455
REMARK INTRA:                  -0.052
REMARK UNBOUND:                -0.045
REMARK  Name = 
REMARK  3 active torsions:
REMARK  status: ('A' for Active; 'I' for Inactive)
REMARK    1  A    between atoms: C_1  and  O_2
REMARK    2  A    between atoms: O_2  and  C_3
REMARK    3  A    between atoms: C_8  and  O_9
REMARK                            x       y       z     vdW  Elec       q    Type
REMARK                         _______ _______ _______ _____ _____    ______ ____
ROOT
ATOM      1  C   UNL     1      -1.175  20.032   1.228  0.00  0.00    +0.000 A 
ATOM      2  C   UNL     1      -0.187  20.227   2.193  0.00  0.00    +0.000 A 
ATOM      3  C   UNL     1       1.108  20.593   1.804  0.00  0.00    +0.000 A 
ATOM      4  C   UNL     1       1.420  20.764   0.454  0.00  0.00    +0.000 A 
ATOM      5  C   UNL     1       0.439  20.571  -0.515  0.00  0.00    +0.000 A 
ATOM      6  C   UNL     1      -0.843  20.208  -0.121  0.00  0.00    +0.000 A 
ENDROOT
BRANCH   1   8
ATOM      7  C   UNL     1      -2.686  18.420   2.104  0.00  0.00    +0.000 C 
ATOM      8  O   UNL     1      -2.478  19.673   1.463  0.00  0.00    +0.000 OA
ENDBRANCH   1   8
BRANCH   6   9
ATOM      9  O   UNL     1      -1.790  20.023  -1.092  0.00  0.00    +0.000 OA
ATOM     10  H   UNL     1      -2.635  20.260  -0.663  0.00  0.00    +0.000 HD
ENDBRANCH   6   9
TORSDOF 2
ENDMDL
MODEL 5
REMARK VINA RESULT:    -3.087     14.231     15.247
REMARK INTER + INTRA:          -3.403
REMARK INTER:                  -3.350
REMARK INTRA:                  -0.053
REMARK UNBOUND:                -0.045
REMARK  Name = 
REMARK  3 active torsions:
REMARK  status: ('A' for Active; 'I' for Inactive)
REMARK    1  A    between atoms: C_1  and  O_2
REMARK    2  A    between atoms: O_2  and  C_3
REMARK    3  A    between atoms: C_8  and  O_9
REMARK                            x       y       z     vdW  Elec       q    Type
REMARK                         _______ _______ _______ _____ _____    ______ ____
ROOT
ATOM      1  C   UNL     1     -10.883  14.627 -17.676  0.00  0.00    +0.000 A 
ATOM      2  C   UNL     1     -10.594  13.354 -17.188  0.00  0.00    +0.000 A 
ATOM      3  C   UNL     1     -10.778  12.233 -18.007  0.00  0.00    +0.000 A 
ATOM      4  C   UNL     1     -11.251  12.379 -19.312  0.00  0.00    +0.000 A 
ATOM      5  C   UNL     1     -11.542  13.648 -19.807  0.00  0.00    +0.000 A 
ATOM      6  C   UNL     1     -11.357  14.755 -18.988  0.00  0.00    +0.000 A 
ENDROOT
BRANCH   1   8
ATOM      7  C   UNL     1     -11.636  16.006 -15.893  0.00  0.00    +0.000 C 
ATOM      8  O   UNL     1     -10.752  15.808 -16.990  0.00  0.00    +0.000 OA
ENDBRANCH   1   8
BRANCH   6   9
ATOM      9  O   UNL     1     -11.651  15.992 -19.496  0.00  0.00    +0.000 OA
ATOM     10  H   UNL     1     -11.342  16.620 -18.815  0.00  0.00    +0.000 HD
ENDBRANCH   6   9
TORSDOF 2
ENDMDL
MODEL 6
REMARK VINA RESULT:    -3.042      9.778     10.844
REMARK INTER + INTRA:          -3.354
REMARK INTER:                  -3.303
REMARK INTRA:                  -0.052
REMARK UNBOUND:                -0.045
REMARK  Name = 
REMARK  3 active torsions:
REMARK  status: ('A' for Active; 'I' for Inactive)
REMARK    1  A    between atoms: C_1  and  O_2
REMARK    2  A    between atoms: O_2  and  C_3
REMARK    3  A    between atoms: C_8  and  O_9
REMARK                            x       y       z     vdW  Elec       q    Type
REMARK                         _______ _______ _______ _____ _____    ______ ____
ROOT
ATOM      1  C   UNL     1     -11.118   5.143 -14.551  0.00  0.00    +0.000 A 
ATOM      2  C   UNL     1     -11.881   5.607 -13.480  0.00  0.00    +0.000 A 
ATOM      3  C   UNL     1     -12.382   4.704 -12.535  0.00  0.00    +0.000 A 
ATOM      4  C   UNL     1     -12.124   3.337 -12.655  0.00  0.00    +0.000 A 
ATOM      5  C   UNL     1     -11.363   2.865 -13.722  0.00  0.00    +0.000 A 
ATOM      6  C   UNL     1     -10.870   3.768 -14.656  0.00  0.00    +0.000 A 
ENDROOT
BRANCH   1   8
ATOM      7  C   UNL     1     -11.475   6.492 -16.474  0.00  0.00    +0.000 C 
ATOM      8  O   UNL     1     -10.567   5.909 -15.547  0.00  0.00    +0.000 OA
ENDBRANCH   1   8
BRANCH   6   9
ATOM      9  O   UNL     1     -10.125   3.281 -15.696  0.00  0.00    +0.000 OA
ATOM     10  H   UNL     1     -10.632   2.516 -16.028  0.00  0.00    +0.000 HD
ENDBRANCH   6   9
TORSDOF 2
ENDMDL
MODEL 7
REMARK VINA RESULT:    -2.999      9.410     10.936
REMARK INTER + INTRA:          -3.307
REMARK INTER:                  -3.268
REMARK INTRA:                  -0.039
REMARK UNBOUND:                -0.045
REMARK  Name = 
REMARK  3 active torsions:
REMARK  status: ('A' for Active; 'I' for Inactive)
REMARK    1  A    between atoms: C_1  and  O_2
REMARK    2  A    between atoms: O_2  and  C_3
REMARK    3  A    between atoms: C_8  and  O_9
REMARK                            x       y       z     vdW  Elec       q    Type
REMARK                         _______ _______ _______ _____ _____    ______ ____
ROOT
ATOM      1  C   UNL     1     -11.420   3.460 -13.470  0.00  0.00    +0.000 A 
ATOM      2  C   UNL     1     -12.342   2.525 -13.939  0.00  0.00    +0.000 A 
ATOM      3  C   UNL     1     -12.369   2.190 -15.299  0.00  0.00    +0.000 A 
ATOM      4  C   UNL     1     -11.479   2.788 -16.193  0.00  0.00    +0.000 A 
ATOM      5  C   UNL     1     -10.555   3.724 -15.732  0.00  0.00    +0.000 A 
ATOM      6  C   UNL     1     -10.536   4.049 -14.382  0.00  0.00    +0.000 A 
ENDROOT
BRANCH   1   8
ATOM      7  C   UNL     1     -12.382   3.637 -11.305  0.00  0.00    +0.000 C 
ATOM      8  O   UNL     1     -11.281   3.882 -12.172  0.00  0.00    +0.000 OA
ENDBRANCH   1   8
BRANCH   6   9
ATOM      9  O   UNL     1      -9.619   4.972 -13.953  0.00  0.00    +0.000 OA
ATOM     10  H   UNL     1     -10.153   5.702 -13.588  0.00  0.00    +0.000 HD
ENDBRANCH   6   9
TORSDOF 2
ENDMDL
MODEL 8
REMARK VINA RESULT:    -2.991     25.908     26.963
REMARK INTER + INTRA:          -3.299
REMARK INTER:                  -3.251
REMARK INTRA:                  -0.048
REMARK UNBOUND:                -0.045
REMARK  Name = 
REMARK  3 active torsions:
REMARK  status: ('A' for Active; 'I' for Inactive)
REMARK    1  A    between atoms: C_1  and  O_2
REMARK    2  A    between atoms: O_2  and  C_3
REMARK    3  A    between atoms: C_8  and  O_9
REMARK                            x       y       z     vdW  Elec       q    Type
REMARK                         _______ _______ _______ _____ _____    ______ ____
ROOT
ATOM      1  C   UNL     1       0.385  20.855   1.123  0.00  0.00    +0.000 A 
ATOM      2  C   UNL     1      -0.248  20.417   2.286  0.00  0.00    +0.000 A 
ATOM      3  C   UNL     1      -1.385  19.604   2.199  0.00  0.00    +0.000 A 
ATOM      4  C   UNL     1      -1.893  19.228   0.954  0.00  0.00    +0.000 A 
ATOM      5  C   UNL     1      -1.266  19.661  -0.212  0.00  0.00    +0.000 A 
ATOM      6  C   UNL     1      -0.139  20.467  -0.116  0.00  0.00    +0.000 A 
ENDROOT
BRANCH   1   8
ATOM      7  C   UNL     1       2.735  21.044   1.421  0.00  0.00    +0.000 C 
ATOM      8  O   UNL     1       1.501  21.651   1.058  0.00  0.00    +0.000 OA
ENDBRANCH   1   8
BRANCH   6   9
ATOM      9  O   UNL     1       0.461  20.880  -1.276  0.00  0.00    +0.000 OA
ATOM     10  H   UNL     1       0.367  20.125  -1.887  0.00  0.00    +0.000 HD
ENDBRANCH   6   9
TORSDOF 2
ENDMDL
