MODEL 1
REMARK VINA RESULT:    -3.408      0.000      0.000
REMARK INTER + INTRA:          -3.744
REMARK INTER:                  -3.707
REMARK INTRA:                  -0.038
REMARK UNBOUND:                -0.038
REMARK  Name = 
REMARK  3 active torsions:
REMARK  status: ('A' for Active; 'I' for Inactive)
REMARK    1  A    between atoms: C_1  and  O_2
REMARK    2  A    between atoms: O_2  and  C_3
REMARK    3  A    between atoms: C_8  and  O_9
REMARK                            x       y       z     vdW  Elec       q    Type
REMARK                         _______ _______ _______ _____ _____    ______ ____
ROOT
ATOM      1  C   UNL     1      -1.746   2.897 -19.264  0.00  0.00    +0.000 A 
ATOM      2  C   UNL     1      -3.026   2.908 -19.817  0.00  0.00    +0.000 A 
ATOM      3  C   UNL     1      -3.865   1.798 -19.660  0.00  0.00    +0.000 A 
ATOM      4  C   UNL     1      -3.430   0.676 -18.952  0.00  0.00    +0.000 A 
ATOM      5  C   UNL     1      -2.153   0.658 -18.396  0.00  0.00    +0.000 A 
ATOM      6  C   UNL     1      -1.327   1.763 -18.558  0.00  0.00    +0.000 A 
ENDROOT
BRANCH   1   8
ATOM      7  C   UNL     1      -1.288   5.159 -19.831  0.00  0.00    +0.000 C 
ATOM      8  O   UNL     1      -0.822   3.908 -19.339  0.00  0.00    +0.000 OA
ENDBRANCH   1   8
BRANCH   6   9
ATOM      9  O   UNL     1      -0.076   1.722 -18.002  0.00  0.00    +0.000 OA
ATOM     10  H   UNL     1       0.477   1.270 -18.668  0.00  0.00    +0.000 HD
ENDBRANCH   6   9
TORSDOF 2
ENDMDL
MODEL 2
REMARK VINA RESULT:    -3.345      1.718      3.221
REMARK INTER + INTRA:          -3.676
REMARK INTER:                  -3.638
REMARK INTRA:                  -0.037
REMARK UNBOUND:                -0.038
REMARK  Name = 
REMARK  3 active torsions:
REMARK  status: ('A' for Active; 'I' for Inactive)
REMARK    1  A    between atoms: C_1  and  O_2
REMARK    2  A    between atoms: O_2  and  C_3
REMARK    3  A    between atoms: C_8  and  O_9
REMARK                            x       y       z     vdW  Elec       q    Type
REMARK                         _______ _______ _______ _____ _____    ______ ____
ROOT
ATOM      1  C   UNL     1      -3.015   2.224 -19.333  0.00  0.00    +0.000 A 
ATOM      2  C   UNL     1      -2.719   0.950 -18.849  0.00  0.00    +0.000 A 
ATOM      3  C   UNL     1      -1.427   0.657 -18.396  0.00  0.00    +0.000 A 
ATOM      4  C   UNL     1      -0.428   1.632 -18.425  0.00  0.00    +0.000 A 
ATOM      5  C   UNL     1      -0.716   2.907 -18.908  0.00  0.00    +0.000 A 
ATOM      6  C   UNL     1      -2.000   3.189 -19.356  0.00  0.00    +0.000 A 
ENDROOT
BRANCH   1   8
ATOM      7  C   UNL     1      -5.287   1.698 -19.789  0.00  0.00    +0.000 C 
ATOM      8  O   UNL     1      -4.230   2.649 -19.808  0.00  0.00    +0.000 OA
ENDBRANCH   1   8
BRANCH   6   9
ATOM      9  O   UNL     1      -2.259   4.449 -19.825  0.00  0.00    +0.000 OA
ATOM     10  H   UNL     1      -2.105   5.035 -19.060  0.00  0.00    +0.000 HD
ENDBRANCH   6   9
TORSDOF 2
ENDMDL
MODEL 3
REMARK VINA RESULT:    -3.311     13.444     14.883
REMARK INTER + INTRA:          -3.639
REMARK INTER:                  -3.597
REMARK INTRA:                  -0.042
REMARK UNBOUND:                -0.038
REMARK  Name = 
REMARK  3 active torsions:
REMARK  status: ('A' for Active; 'I' for Inactive)
REMARK    1  A    between atoms: C_1  and  O_2
REMARK    2  A    between atoms: O_2  and  C_3
REMARK    3  A    between atoms: C_8  and  O_9
REMARK                            x       y       z     vdW  Elec       q    Type
REMARK                         _______ _______ _______ _____ _____    ______ ____
ROOT
ATOM      1  C   UNL     1     -10.879  13.183 -18.068  0.00  0.00    +0.000 A 
ATOM      2  C   UNL     1     -10.970  13.839 -19.295  0.00  0.00    +0.000 A 
ATOM      3  C   UNL     1     -11.031  15.238 -19.337  0.00  0.00    +0.000 A 
ATOM      4  C   UNL     1     -11.002  15.984 -18.158  0.00  0.00    +0.000 A 
ATOM      5  C   UNL     1     -10.911  15.336 -16.928  0.00  0.00    +0.000 A 
ATOM      6  C   UNL     1     -10.851  13.948 -16.895  0.00  0.00    +0.000 A 
ENDROOT
BRANCH   1   8
ATOM      7  C   UNL     1     -11.527  11.019 -18.805  0.00  0.00    +0.000 C 
ATOM      8  O   UNL     1     -10.812  11.827 -17.877  0.00  0.00    +0.000 OA
ENDBRANCH   1   8
BRANCH   6   9
ATOM      9  O   UNL     1     -10.761  13.334 -15.675  0.00  0.00    +0.000 OA
ATOM     10  H   UNL     1     -10.177  12.567 -15.826  0.00  0.00    +0.000 HD
ENDBRANCH   6   9
TORSDOF 2
ENDMDL
MODEL 4
REMARK VINA RESULT:    -3.181     25.973     26.932
REMARK INTER + INTRA:          -3.498
REMARK INTER:                  -3.447
REMARK INTRA:                  -0.051
REMARK UNBOUND:                -0.038
REMARK  Name = 
REMARK  3 active torsions:
REMARK  status: ('A' for Active; 'I' for Inactive)
REMARK    1  A    between atoms: C_1  and  O_2
REMARK    2  A    between atoms: O_2  and  C_3
REMARK    3  A    between atoms: C_8  and  O_9
REMARK                            x       y       z     vdW  Elec       q    Type
REMARK                         _______ _______ _______ _____ _____    ______ ____
ROOT
ATOM      1  C   UNL     1      -1.206  20.009   1.247  0.00  0.00    +0.000 A 
ATOM      2  C   UNL     1      -0.236  20.181   2.234  0.00  0.00    +0.000 A 
ATOM      3  C   UNL     1       1.068  20.545   1.876  0.00  0.00    +0.000 A 
ATOM      4  C   UNL     1       1.407  20.738   0.536  0.00  0.00    +0.000 A 
ATOM      5  C   UNL     1       0.444  20.568  -0.456  0.00  0.00    +0.000 A 
ATOM      6  C   UNL     1      -0.847  20.206  -0.092  0.00  0.00    +0.000 A 
ENDROOT
BRANCH   1   8
ATOM      7  C   UNL     1      -2.742  18.445   2.164  0.00  0.00    +0.000 C 
ATOM      8  O   UNL     1      -2.516  19.654   1.451  0.00  0.00    +0.000 OA
ENDBRANCH   1   8
BRANCH   6   9
ATOM      9  O   UNL     1      -1.777  20.045  -1.084  0.00  0.00    +0.000 OA
ATOM     10  H   UNL     1      -2.559  19.671  -0.634  0.00  0.00    +0.000 HD
ENDBRANCH   6   9
TORSDOF 2
ENDMDL
MODEL 5
REMARK VINA RESULT:    -3.018     10.191     10.847
REMARK INTER + INTRA:          -3.320
REMARK INTER:                  -3.269
REMARK INTRA:                  -0.052
REMARK UNBOUND:                -0.038
REMARK  Name = 
REMARK  3 active torsions:
REMARK  status: ('A' for Active; 'I' for Inactive)
REMARK    1  A    between atoms: C_1  and  O_2
REMARK    2  A    between atoms: O_2  and  C_3
REMARK    3  A    between atoms: C_8  and  O_9
REMARK                            x       y       z     vdW  Elec       q    Type
REMARK                         _______ _______ _______ _____ _____    ______ ____
ROOT
ATOM      1  C   UNL     1     -11.188   5.147 -14.652  0.00  0.00    +0.000 A 
ATOM      2  C   UNL     1     -11.949   5.627 -13.587  0.00  0.00    +0.000 A 
ATOM      3  C   UNL     1     -12.382   4.749 -12.585  0.00  0.00    +0.000 A 
ATOM      4  C   UNL     1     -12.057   3.392 -12.644  0.00  0.00    +0.000 A 
ATOM      5  C   UNL     1     -11.297   2.906 -13.705  0.00  0.00    +0.000 A 
ATOM      6  C   UNL     1     -10.872   3.784 -14.694  0.00  0.00    +0.000 A 
ENDROOT
BRANCH   1   8
ATOM      7  C   UNL     1     -11.661   6.558 -16.505  0.00  0.00    +0.000 C 
ATOM      8  O   UNL     1     -10.699   5.888 -15.698  0.00  0.00    +0.000 OA
ENDBRANCH   1   8
BRANCH   6   9
ATOM      9  O   UNL     1     -10.126   3.282 -15.727  0.00  0.00    +0.000 OA
ATOM     10  H   UNL     1     -10.766   3.141 -16.451  0.00  0.00    +0.000 HD
ENDBRANCH   6   9
TORSDOF 2
ENDMDL
MODEL 6
REMARK VINA RESULT:    -2.987     25.847     27.012
REMARK INTER + INTRA:          -3.286
REMARK INTER:                  -3.237
REMARK INTRA:                  -0.049
REMARK UNBOUND:                -0.038
REMARK  Name = 
REMARK  3 active torsions:
REMARK  status: ('A' for Active; 'I' for Inactive)
REMARK    1  A    between atoms: C_1  and  O_2
REMARK    2  A    between atoms: O_2  and  C_3
REMARK    3  A    between atoms: C_8  and  O_9
REMARK                            x       y       z     vdW  Elec       q    Type
REMARK                         _______ _______ _______ _____ _____    ______ ____
ROOT
ATOM      1  C   UNL     1       0.367  20.950   1.009  0.00  0.00    +0.000 A 
ATOM      2  C   UNL     1      -0.232  20.483   2.178  0.00  0.00    +0.000 A 
ATOM      3  C   UNL     1      -1.354  19.647   2.103  0.00  0.00    +0.000 A 
ATOM      4  C   UNL     1      -1.879  19.276   0.864  0.00  0.00    +0.000 A 
ATOM      5  C   UNL     1      -1.284  19.738  -0.308  0.00  0.00    +0.000 A 
ATOM      6  C   UNL     1      -0.173  20.567  -0.225  0.00  0.00    +0.000 A 
ENDROOT
BRANCH   1   8
ATOM      7  C   UNL     1       2.716  21.192   1.279  0.00  0.00    +0.000 C 
ATOM      8  O   UNL     1       1.464  21.771   0.933  0.00  0.00    +0.000 OA
ENDBRANCH   1   8
BRANCH   6   9
ATOM      9  O   UNL     1       0.394  21.009  -1.390  0.00  0.00    +0.000 OA
ATOM     10  H   UNL     1      -0.140  21.785  -1.647  0.00  0.00    +0.000 HD
ENDBRANCH   6   9
TORSDOF 2
ENDMDL
MODEL 7
REMARK VINA RESULT:    -2.981     10.271     11.183
REMARK INTER + INTRA:          -3.280
REMARK INTER:                  -3.230
REMARK INTRA:                  -0.050
REMARK UNBOUND:                -0.038
REMARK  Name = 
REMARK  3 active torsions:
REMARK  status: ('A' for Active; 'I' for Inactive)
REMARK    1  A    between atoms: C_1  and  O_2
REMARK    2  A    between atoms: O_2  and  C_3
REMARK    3  A    between atoms: C_8  and  O_9
REMARK                            x       y       z     vdW  Elec       q    Type
REMARK                         _______ _______ _______ _____ _____    ______ ____
ROOT
ATOM      1  C   UNL     1     -11.465   4.386 -13.964  0.00  0.00    +0.000 A 
ATOM      2  C   UNL     1     -12.221   5.552 -13.852  0.00  0.00    +0.000 A 
ATOM      3  C   UNL     1     -12.371   6.397 -14.959  0.00  0.00    +0.000 A 
ATOM      4  C   UNL     1     -11.766   6.082 -16.177  0.00  0.00    +0.000 A 
ATOM      5  C   UNL     1     -11.010   4.919 -16.297  0.00  0.00    +0.000 A 
ATOM      6  C   UNL     1     -10.867   4.086 -15.194  0.00  0.00    +0.000 A 
ENDROOT
BRANCH   1   8
ATOM      7  C   UNL     1     -12.382   2.923 -12.331  0.00  0.00    +0.000 C 
ATOM      8  O   UNL     1     -11.234   3.470 -12.969  0.00  0.00    +0.000 OA
ENDBRANCH   1   8
BRANCH   6   9
ATOM      9  O   UNL     1     -10.118   2.948 -15.336  0.00  0.00    +0.000 OA
ATOM     10  H   UNL     1     -10.737   2.288 -15.702  0.00  0.00    +0.000 HD
ENDBRANCH   6   9
TORSDOF 2
ENDMDL
MODEL 8
REMARK VINA RESULT:    -2.967      9.777     10.612
REMARK INTER + INTRA:          -3.264
REMARK INTER:                  -3.214
REMARK INTRA:                  -0.050
REMARK UNBOUND:                -0.038
REMARK  Name = 
REMARK  3 active torsions:
REMARK  status: ('A' for Active; 'I' for Inactive)
REMARK    1  A    between atoms: C_1  and  O_2
REMARK    2  A    between atoms: O_2  and  C_3
REMARK    3  A    between atoms: C_8  and  O_9
REMARK                            x       y       z     vdW  Elec       q    Type
REMARK                         _______ _______ _______ _____ _____    ______ ____
ROOT
ATOM      1  C   UNL     1     -10.793   4.438 -14.554  0.00  0.00    +0.000 A 
ATOM      2  C   UNL     1     -10.871   3.529 -15.608  0.00  0.00    +0.000 A 
ATOM      3  C   UNL     1     -10.902   3.992 -16.930  0.00  0.00    +0.000 A 
ATOM      4  C   UNL     1     -10.857   5.360 -17.203  0.00  0.00    +0.000 A 
ATOM      5  C   UNL     1     -10.779   6.275 -16.155  0.00  0.00    +0.000 A 
ATOM      6  C   UNL     1     -10.749   5.807 -14.847  0.00  0.00    +0.000 A 
ENDROOT
BRANCH   1   8
ATOM      7  C   UNL     1     -11.818   3.323 -12.723  0.00  0.00    +0.000 C 
ATOM      8  O   UNL     1     -10.756   4.130 -13.218  0.00  0.00    +0.000 OA
ENDBRANCH   1   8
BRANCH   6   9
ATOM      9  O   UNL     1     -10.672   6.725 -13.834  0.00  0.00    +0.000 OA
ATOM     10  H   UNL     1      -9.944   7.322 -14.093  0.00  0.00    +0.000 HD
ENDBRANCH   6   9
TORSDOF 2
ENDMDL
MODEL 9
REMARK VINA RESULT:    -2.888      9.664     10.645
REMARK INTER + INTRA:          -3.179
REMARK INTER:                  -3.142
REMARK INTRA:                  -0.037
REMARK UNBOUND:                -0.038
REMARK  Name = 
REMARK  3 active torsions:
REMARK  status: ('A' for Active; 'I' for Inactive)
REMARK    1  A    between atoms: C_1  and  O_2
REMARK    2  A    between atoms: O_2  and  C_3
REMARK    3  A    between atoms: C_8  and  O_9
REMARK                            x       y       z     vdW  Elec       q    Type
REMARK                         _______ _______ _______ _____ _____    ______ ____
ROOT
ATOM      1  C   UNL     1     -10.887   3.468 -15.104  0.00  0.00    +0.000 A 
ATOM      2  C   UNL     1     -11.452   2.639 -14.136  0.00  0.00    +0.000 A 
ATOM      3  C   UNL     1     -12.038   3.197 -12.993  0.00  0.00    +0.000 A 
ATOM      4  C   UNL     1     -12.062   4.581 -12.814  0.00  0.00    +0.000 A 
ATOM      5  C   UNL     1     -11.501   5.416 -13.777  0.00  0.00    +0.000 A 
ATOM      6  C   UNL     1     -10.921   4.854 -14.907  0.00  0.00    +0.000 A 
ENDROOT
BRANCH   1   8
ATOM      7  C   UNL     1     -10.151   1.659 -16.457  0.00  0.00    +0.000 C 
ATOM      8  O   UNL     1     -10.282   3.062 -16.266  0.00  0.00    +0.000 OA
ENDBRANCH   1   8
BRANCH   6   9
ATOM      9  O   UNL     1     -10.375   5.695 -15.840  0.00  0.00    +0.000 OA
ATOM     10  H   UNL     1      -9.415   5.527 -15.794  0.00  0.00    +0.000 HD
ENDBRANCH   6   9
TORSDOF 2
ENDMDL
