MODEL 1
REMARK VINA RESULT:    -5.161      0.000      0.000
REMARK INTER + INTRA:          -7.571
REMARK INTER:                  -6.972
REMARK INTRA:                  -0.599
REMARK UNBOUND:                -0.599
REMARK  Name = 
REMARK  10 active torsions:
REMARK  status: ('A' for Active; 'I' for Inactive)
REMARK    1  A    between atoms: C_1  and  C_2
REMARK    2  A    between atoms: C_5  and  N_8
REMARK    3  A    between atoms: N_8  and  C_9
REMARK    4  A    between atoms: N_8  and  C_13
REMARK    5  A    between atoms: C_9  and  C_10
REMARK    6  A    between atoms: C_10  and  C_11
REMARK    7  A    between atoms: C_10  and  O_12
REMARK    8  A    between atoms: C_13  and  C_14
REMARK    9  A    between atoms: C_14  and  C_15
REMARK   10  A    between atoms: C_14  and  O_16
REMARK                            x       y       z     vdW  Elec       q    Type
REMARK                         _______ _______ _______ _____ _____    ______ ____
ROOT
ATOM      1  N   UNL     1      13.070   4.313   7.040  0.00  0.00    +0.000 N 
ENDROOT
BRANCH   1   6
ATOM      2  C   UNL     1      14.309   1.840  12.108  0.00  0.00    +0.000 C 
ATOM      3  C   UNL     1      13.982   2.503  10.805  0.00  0.00    +0.000 A 
ATOM      4  C   UNL     1      12.702   2.427  10.266  0.00  0.00    +0.000 A 
ATOM      5  C   UNL     1      12.409   3.025   9.029  0.00  0.00    +0.000 A 
ATOM      6  C   UNL     1      13.374   3.703   8.263  0.00  0.00    +0.000 A 
ATOM      7  C   UNL     1      14.656   3.762   8.840  0.00  0.00    +0.000 A 
ATOM      8  C   UNL     1      14.962   3.170  10.076  0.00  0.00    +0.000 A 
ENDBRANCH   1   6
BRANCH   1   9
ATOM      9  C   UNL     1      14.074   5.175   6.370  0.00  0.00    +0.000 C 
BRANCH   9  10
ATOM     10  C   UNL     1      13.857   6.681   6.654  0.00  0.00    +0.000 C 
ATOM     11  C   UNL     1      14.975   7.237   7.529  0.00  0.00    +0.000 C 
BRANCH  10  12
ATOM     12  O   UNL     1      13.830   7.437   5.435  0.00  0.00    +0.000 OA
ATOM     13  H   UNL     1      12.995   7.933   5.407  0.00  0.00    +0.000 HD
ENDBRANCH  10  12
ENDBRANCH   9  10
ENDBRANCH   1   9
BRANCH   1  14
ATOM     14  C   UNL     1      11.663   4.560   6.633  0.00  0.00    +0.000 C 
BRANCH  14  15
ATOM     15  C   UNL     1      11.284   3.790   5.345  0.00  0.00    +0.000 C 
ATOM     16  C   UNL     1      10.895   2.340   5.607  0.00  0.00    +0.000 C 
BRANCH  15  17
ATOM     17  O   UNL     1      10.206   4.418   4.653  0.00  0.00    +0.000 OA
ATOM     18  H   UNL     1      10.482   5.351   4.548  0.00  0.00    +0.000 HD
ENDBRANCH  15  17
ENDBRANCH  14  15
ENDBRANCH   1  14
TORSDOF 7
ENDMDL
MODEL 2
REMARK VINA RESULT:    -5.119      2.824      3.122
REMARK INTER + INTRA:          -7.513
REMARK INTER:                  -7.174
REMARK INTRA:                  -0.339
REMARK UNBOUND:                -0.599
REMARK  Name = 
REMARK  10 active torsions:
REMARK  status: ('A' for Active; 'I' for Inactive)
REMARK    1  A    between atoms: C_1  and  C_2
REMARK    2  A    between atoms: C_5  and  N_8
REMARK    3  A    between atoms: N_8  and  C_9
REMARK    4  A    between atoms: N_8  and  C_13
REMARK    5  A    between atoms: C_9  and  C_10
REMARK    6  A    between atoms: C_10  and  C_11
REMARK    7  A    between atoms: C_10  and  O_12
REMARK    8  A    between atoms: C_13  and  C_14
REMARK    9  A    between atoms: C_14  and  C_15
REMARK   10  A    between atoms: C_14  and  O_16
REMARK                            x       y       z     vdW  Elec       q    Type
REMARK                         _______ _______ _______ _____ _____    ______ ____
ROOT
ATOM      1  N   UNL     1      12.939   4.753   8.046  0.00  0.00    +0.000 N 
ENDROOT
BRANCH   1   6
ATOM      2  C   UNL     1      10.600   7.898  12.285  0.00  0.00    +0.000 C 
ATOM      3  C   UNL     1      11.213   7.103  11.173  0.00  0.00    +0.000 A 
ATOM      4  C   UNL     1      10.448   6.681  10.091  0.00  0.00    +0.000 A 
ATOM      5  C   UNL     1      11.022   5.910   9.066  0.00  0.00    +0.000 A 
ATOM      6  C   UNL     1      12.369   5.505   9.081  0.00  0.00    +0.000 A 
ATOM      7  C   UNL     1      13.112   5.952  10.189  0.00  0.00    +0.000 A 
ATOM      8  C   UNL     1      12.552   6.725  11.219  0.00  0.00    +0.000 A 
ENDBRANCH   1   6
BRANCH   1   9
ATOM      9  C   UNL     1      14.116   5.273   7.310  0.00  0.00    +0.000 C 
BRANCH   9  10
ATOM     10  C   UNL     1      14.031   6.796   7.041  0.00  0.00    +0.000 C 
ATOM     11  C   UNL     1      15.316   7.497   7.464  0.00  0.00    +0.000 C 
BRANCH  10  12
ATOM     12  O   UNL     1      13.817   7.061   5.648  0.00  0.00    +0.000 OA
ATOM     13  H   UNL     1      13.136   6.448   5.325  0.00  0.00    +0.000 HD
ENDBRANCH  10  12
ENDBRANCH   9  10
ENDBRANCH   1   9
BRANCH   1  14
ATOM     14  C   UNL     1      12.150   3.727   7.317  0.00  0.00    +0.000 C 
BRANCH  14  15
ATOM     15  C   UNL     1      11.768   4.189   5.890  0.00  0.00    +0.000 C 
ATOM     16  C   UNL     1      10.806   3.237   5.189  0.00  0.00    +0.000 C 
BRANCH  15  17
ATOM     17  O   UNL     1      11.177   5.488   5.897  0.00  0.00    +0.000 OA
ATOM     18  H   UNL     1      10.438   5.433   5.258  0.00  0.00    +0.000 HD
ENDBRANCH  15  17
ENDBRANCH  14  15
ENDBRANCH   1  14
TORSDOF 7
ENDMDL
MODEL 3
REMARK VINA RESULT:    -5.010      0.524      3.372
REMARK INTER + INTRA:          -7.366
REMARK INTER:                  -6.747
REMARK INTRA:                  -0.619
REMARK UNBOUND:                -0.599
REMARK  Name = 
REMARK  10 active torsions:
REMARK  status: ('A' for Active; 'I' for Inactive)
REMARK    1  A    between atoms: C_1  and  C_2
REMARK    2  A    between atoms: C_5  and  N_8
REMARK    3  A    between atoms: N_8  and  C_9
REMARK    4  A    between atoms: N_8  and  C_13
REMARK    5  A    between atoms: C_9  and  C_10
REMARK    6  A    between atoms: C_10  and  C_11
REMARK    7  A    between atoms: C_10  and  O_12
REMARK    8  A    between atoms: C_13  and  C_14
REMARK    9  A    between atoms: C_14  and  C_15
REMARK   10  A    between atoms: C_14  and  O_16
REMARK                            x       y       z     vdW  Elec       q    Type
REMARK                         _______ _______ _______ _____ _____    ______ ____
ROOT
ATOM      1  N   UNL     1      12.992   4.591   7.551  0.00  0.00    +0.000 N 
ENDROOT
BRANCH   1   6
ATOM      2  C   UNL     1      14.422   1.067  11.894  0.00  0.00    +0.000 C 
ATOM      3  C   UNL     1      14.046   2.000  10.784  0.00  0.00    +0.000 A 
ATOM      4  C   UNL     1      12.740   2.056  10.309  0.00  0.00    +0.000 A 
ATOM      5  C   UNL     1      12.400   2.910   9.247  0.00  0.00    +0.000 A 
ATOM      6  C   UNL     1      13.342   3.727   8.596  0.00  0.00    +0.000 A 
ATOM      7  C   UNL     1      14.652   3.647   9.104  0.00  0.00    +0.000 A 
ATOM      8  C   UNL     1      15.005   2.798  10.166  0.00  0.00    +0.000 A 
ENDBRANCH   1   6
BRANCH   1   9
ATOM      9  C   UNL     1      11.602   4.610   7.035  0.00  0.00    +0.000 C 
BRANCH   9  10
ATOM     10  C   UNL     1      11.472   3.962   5.635  0.00  0.00    +0.000 C 
ATOM     11  C   UNL     1      11.088   2.492   5.747  0.00  0.00    +0.000 C 
BRANCH  10  12
ATOM     12  O   UNL     1      10.470   4.625   4.852  0.00  0.00    +0.000 OA
ATOM     13  H   UNL     1      10.229   5.449   5.307  0.00  0.00    +0.000 HD
ENDBRANCH  10  12
ENDBRANCH   9  10
ENDBRANCH   1   9
BRANCH   1  14
ATOM     14  C   UNL     1      14.015   5.110   6.607  0.00  0.00    +0.000 C 
BRANCH  14  15
ATOM     15  C   UNL     1      14.148   6.650   6.678  0.00  0.00    +0.000 C 
ATOM     16  C   UNL     1      14.662   7.146   8.024  0.00  0.00    +0.000 C 
BRANCH  15  17
ATOM     17  O   UNL     1      15.015   7.152   5.662  0.00  0.00    +0.000 OA
ATOM     18  H   UNL     1      15.884   6.740   5.846  0.00  0.00    +0.000 HD
ENDBRANCH  15  17
ENDBRANCH  14  15
ENDBRANCH   1  14
TORSDOF 7
ENDMDL
MODEL 4
REMARK VINA RESULT:    -4.933      3.263      4.295
REMARK INTER + INTRA:          -7.263
REMARK INTER:                  -6.802
REMARK INTRA:                  -0.460
REMARK UNBOUND:                -0.599
REMARK  Name = 
REMARK  10 active torsions:
REMARK  status: ('A' for Active; 'I' for Inactive)
REMARK    1  A    between atoms: C_1  and  C_2
REMARK    2  A    between atoms: C_5  and  N_8
REMARK    3  A    between atoms: N_8  and  C_9
REMARK    4  A    between atoms: N_8  and  C_13
REMARK    5  A    between atoms: C_9  and  C_10
REMARK    6  A    between atoms: C_10  and  C_11
REMARK    7  A    between atoms: C_10  and  O_12
REMARK    8  A    between atoms: C_13  and  C_14
REMARK    9  A    between atoms: C_14  and  C_15
REMARK   10  A    between atoms: C_14  and  O_16
REMARK                            x       y       z     vdW  Elec       q    Type
REMARK                         _______ _______ _______ _____ _____    ______ ____
ROOT
ATOM      1  N   UNL     1      13.448   5.558   8.101  0.00  0.00    +0.000 N 
ENDROOT
BRANCH   1   6
ATOM      2  C   UNL     1      10.215   7.721  12.366  0.00  0.00    +0.000 C 
ATOM      3  C   UNL     1      11.055   7.138  11.271  0.00  0.00    +0.000 A 
ATOM      4  C   UNL     1      12.441   7.243  11.302  0.00  0.00    +0.000 A 
ATOM      5  C   UNL     1      13.222   6.720  10.258  0.00  0.00    +0.000 A 
ATOM      6  C   UNL     1      12.663   6.094   9.129  0.00  0.00    +0.000 A 
ATOM      7  C   UNL     1      11.259   6.004   9.133  0.00  0.00    +0.000 A 
ATOM      8  C   UNL     1      10.466   6.520  10.172  0.00  0.00    +0.000 A 
ENDBRANCH   1   6
BRANCH   1   9
ATOM      9  C   UNL     1      13.612   6.299   6.827  0.00  0.00    +0.000 C 
BRANCH   9  10
ATOM     10  C   UNL     1      14.728   7.370   6.895  0.00  0.00    +0.000 C 
ATOM     11  C   UNL     1      15.867   6.914   7.799  0.00  0.00    +0.000 C 
BRANCH  10  12
ATOM     12  O   UNL     1      15.272   7.630   5.593  0.00  0.00    +0.000 OA
ATOM     13  H   UNL     1      15.708   8.498   5.616  0.00  0.00    +0.000 HD
ENDBRANCH  10  12
ENDBRANCH   9  10
ENDBRANCH   1   9
BRANCH   1  14
ATOM     14  C   UNL     1      13.706   4.098   8.011  0.00  0.00    +0.000 C 
BRANCH  14  15
ATOM     15  C   UNL     1      14.459   3.560   9.252  0.00  0.00    +0.000 C 
ATOM     16  C   UNL     1      13.589   2.686  10.148  0.00  0.00    +0.000 C 
BRANCH  15  17
ATOM     17  O   UNL     1      15.611   2.805   8.882  0.00  0.00    +0.000 OA
ATOM     18  H   UNL     1      15.300   1.878   8.829  0.00  0.00    +0.000 HD
ENDBRANCH  15  17
ENDBRANCH  14  15
ENDBRANCH   1  14
TORSDOF 7
ENDMDL
MODEL 5
REMARK VINA RESULT:    -4.926      1.806      3.874
REMARK INTER + INTRA:          -7.252
REMARK INTER:                  -6.708
REMARK INTRA:                  -0.545
REMARK UNBOUND:                -0.599
REMARK  Name = 
REMARK  10 active torsions:
REMARK  status: ('A' for Active; 'I' for Inactive)
REMARK    1  A    between atoms: C_1  and  C_2
REMARK    2  A    between atoms: C_5  and  N_8
REMARK    3  A    between atoms: N_8  and  C_9
REMARK    4  A    between atoms: N_8  and  C_13
REMARK    5  A    between atoms: C_9  and  C_10
REMARK    6  A    between atoms: C_10  and  C_11
REMARK    7  A    between atoms: C_10  and  O_12
REMARK    8  A    between atoms: C_13  and  C_14
REMARK    9  A    between atoms: C_14  and  C_15
REMARK   10  A    between atoms: C_14  and  O_16
REMARK                            x       y       z     vdW  Elec       q    Type
REMARK                         _______ _______ _______ _____ _____    ______ ____
ROOT
ATOM      1  N   UNL     1      13.024   5.347   7.899  0.00  0.00    +0.000 N 
ENDROOT
BRANCH   1   6
ATOM      2  C   UNL     1      10.748   2.480  12.363  0.00  0.00    +0.000 C 
ATOM      3  C   UNL     1      11.323   3.213  11.189  0.00  0.00    +0.000 A 
ATOM      4  C   UNL     1      12.417   2.705  10.497  0.00  0.00    +0.000 A 
ATOM      5  C   UNL     1      12.971   3.411   9.416  0.00  0.00    +0.000 A 
ATOM      6  C   UNL     1      12.480   4.658   8.990  0.00  0.00    +0.000 A 
ATOM      7  C   UNL     1      11.372   5.140   9.711  0.00  0.00    +0.000 A 
ATOM      8  C   UNL     1      10.807   4.443  10.792  0.00  0.00    +0.000 A 
ENDBRANCH   1   6
BRANCH   1   9
ATOM      9  C   UNL     1      13.238   4.647   6.609  0.00  0.00    +0.000 C 
BRANCH   9  10
ATOM     10  C   UNL     1      11.987   4.676   5.697  0.00  0.00    +0.000 C 
ATOM     11  C   UNL     1      11.150   3.415   5.880  0.00  0.00    +0.000 C 
BRANCH  10  12
ATOM     12  O   UNL     1      11.157   5.807   5.996  0.00  0.00    +0.000 OA
ATOM     13  H   UNL     1      10.513   5.538   6.672  0.00  0.00    +0.000 HD
ENDBRANCH  10  12
ENDBRANCH   9  10
ENDBRANCH   1   9
BRANCH   1  14
ATOM     14  C   UNL     1      13.855   6.563   8.094  0.00  0.00    +0.000 C 
BRANCH  14  15
ATOM     15  C   UNL     1      14.898   6.746   6.966  0.00  0.00    +0.000 C 
ATOM     16  C   UNL     1      14.541   7.865   5.995  0.00  0.00    +0.000 C 
BRANCH  15  17
ATOM     17  O   UNL     1      16.199   7.012   7.488  0.00  0.00    +0.000 OA
ATOM     18  H   UNL     1      16.720   6.208   7.290  0.00  0.00    +0.000 HD
ENDBRANCH  15  17
ENDBRANCH  14  15
ENDBRANCH   1  14
TORSDOF 7
ENDMDL
MODEL 6
REMARK VINA RESULT:    -4.913      3.317      4.860
REMARK INTER + INTRA:          -7.235
REMARK INTER:                  -6.663
REMARK INTRA:                  -0.572
REMARK UNBOUND:                -0.599
REMARK  Name = 
REMARK  10 active torsions:
REMARK  status: ('A' for Active; 'I' for Inactive)
REMARK    1  A    between atoms: C_1  and  C_2
REMARK    2  A    between atoms: C_5  and  N_8
REMARK    3  A    between atoms: N_8  and  C_9
REMARK    4  A    between atoms: N_8  and  C_13
REMARK    5  A    between atoms: C_9  and  C_10
REMARK    6  A    between atoms: C_10  and  C_11
REMARK    7  A    between atoms: C_10  and  O_12
REMARK    8  A    between atoms: C_13  and  C_14
REMARK    9  A    between atoms: C_14  and  C_15
REMARK   10  A    between atoms: C_14  and  O_16
REMARK                            x       y       z     vdW  Elec       q    Type
REMARK                         _______ _______ _______ _____ _____    ______ ____
ROOT
ATOM      1  N   UNL     1      13.772   5.609   8.272  0.00  0.00    +0.000 N 
ENDROOT
BRANCH   1   6
ATOM      2  C   UNL     1      10.242   7.835  12.262  0.00  0.00    +0.000 C 
ATOM      3  C   UNL     1      11.157   7.279  11.214  0.00  0.00    +0.000 A 
ATOM      4  C   UNL     1      10.652   6.578  10.124  0.00  0.00    +0.000 A 
ATOM      5  C   UNL     1      11.517   6.033   9.160  0.00  0.00    +0.000 A 
ATOM      6  C   UNL     1      12.916   6.138   9.247  0.00  0.00    +0.000 A 
ATOM      7  C   UNL     1      13.391   6.855  10.361  0.00  0.00    +0.000 A 
ATOM      8  C   UNL     1      12.538   7.407  11.330  0.00  0.00    +0.000 A 
ENDBRANCH   1   6
BRANCH   1   9
ATOM      9  C   UNL     1      13.912   4.141   8.125  0.00  0.00    +0.000 C 
BRANCH   9  10
ATOM     10  C   UNL     1      14.514   3.466   9.382  0.00  0.00    +0.000 C 
ATOM     11  C   UNL     1      13.475   2.604  10.089  0.00  0.00    +0.000 C 
BRANCH  10  12
ATOM     12  O   UNL     1      15.625   2.627   9.034  0.00  0.00    +0.000 OA
ATOM     13  H   UNL     1      15.273   1.788   8.694  0.00  0.00    +0.000 HD
ENDBRANCH  10  12
ENDBRANCH   9  10
ENDBRANCH   1   9
BRANCH   1  14
ATOM     14  C   UNL     1      14.905   6.402   7.732  0.00  0.00    +0.000 C 
BRANCH  14  15
ATOM     15  C   UNL     1      14.430   7.528   6.781  0.00  0.00    +0.000 C 
ATOM     16  C   UNL     1      15.552   8.470   6.360  0.00  0.00    +0.000 C 
BRANCH  15  17
ATOM     17  O   UNL     1      13.828   7.001   5.600  0.00  0.00    +0.000 OA
ATOM     18  H   UNL     1      12.865   7.046   5.766  0.00  0.00    +0.000 HD
ENDBRANCH  15  17
ENDBRANCH  14  15
ENDBRANCH   1  14
TORSDOF 7
ENDMDL
MODEL 7
REMARK VINA RESULT:    -4.822      2.559      4.080
REMARK INTER + INTRA:          -7.112
REMARK INTER:                  -6.714
REMARK INTRA:                  -0.398
REMARK UNBOUND:                -0.599
REMARK  Name = 
REMARK  10 active torsions:
REMARK  status: ('A' for Active; 'I' for Inactive)
REMARK    1  A    between atoms: C_1  and  C_2
REMARK    2  A    between atoms: C_5  and  N_8
REMARK    3  A    between atoms: N_8  and  C_9
REMARK    4  A    between atoms: N_8  and  C_13
REMARK    5  A    between atoms: C_9  and  C_10
REMARK    6  A    between atoms: C_10  and  C_11
REMARK    7  A    between atoms: C_10  and  O_12
REMARK    8  A    between atoms: C_13  and  C_14
REMARK    9  A    between atoms: C_14  and  C_15
REMARK   10  A    between atoms: C_14  and  O_16
REMARK                            x       y       z     vdW  Elec       q    Type
REMARK                         _______ _______ _______ _____ _____    ______ ____
ROOT
ATOM      1  N   UNL     1      11.958   4.995   8.429  0.00  0.00    +0.000 N 
ENDROOT
BRANCH   1   6
ATOM      2  C   UNL     1      17.554   6.389   8.686  0.00  0.00    +0.000 C 
ATOM      3  C   UNL     1      16.105   6.018   8.596  0.00  0.00    +0.000 A 
ATOM      4  C   UNL     1      15.163   6.928   8.129  0.00  0.00    +0.000 A 
ATOM      5  C   UNL     1      13.802   6.585   8.075  0.00  0.00    +0.000 A 
ATOM      6  C   UNL     1      13.314   5.337   8.503  0.00  0.00    +0.000 A 
ATOM      7  C   UNL     1      14.295   4.442   8.968  0.00  0.00    +0.000 A 
ATOM      8  C   UNL     1      15.659   4.771   9.024  0.00  0.00    +0.000 A 
ENDBRANCH   1   6
BRANCH   1   9
ATOM      9  C   UNL     1      11.350   4.135   9.473  0.00  0.00    +0.000 C 
BRANCH   9  10
ATOM     10  C   UNL     1      10.908   4.933  10.724  0.00  0.00    +0.000 C 
ATOM     11  C   UNL     1      10.617   6.386  10.370  0.00  0.00    +0.000 C 
BRANCH  10  12
ATOM     12  O   UNL     1       9.721   4.370  11.300  0.00  0.00    +0.000 OA
ATOM     13  H   UNL     1       9.658   4.677  12.220  0.00  0.00    +0.000 HD
ENDBRANCH  10  12
ENDBRANCH   9  10
ENDBRANCH   1   9
BRANCH   1  14
ATOM     14  C   UNL     1      11.230   5.014   7.134  0.00  0.00    +0.000 C 
BRANCH  14  15
ATOM     15  C   UNL     1      11.764   3.949   6.147  0.00  0.00    +0.000 C 
ATOM     16  C   UNL     1      10.665   3.290   5.322  0.00  0.00    +0.000 C 
BRANCH  15  17
ATOM     17  O   UNL     1      12.724   4.499   5.246  0.00  0.00    +0.000 OA
ATOM     18  H   UNL     1      12.199   4.823   4.486  0.00  0.00    +0.000 HD
ENDBRANCH  15  17
ENDBRANCH  14  15
ENDBRANCH   1  14
TORSDOF 7
ENDMDL
MODEL 8
REMARK VINA RESULT:    -4.813      2.606      4.386
REMARK INTER + INTRA:          -7.100
REMARK INTER:                  -6.466
REMARK INTRA:                  -0.634
REMARK UNBOUND:                -0.599
REMARK  Name = 
REMARK  10 active torsions:
REMARK  status: ('A' for Active; 'I' for Inactive)
REMARK    1  A    between atoms: C_1  and  C_2
REMARK    2  A    between atoms: C_5  and  N_8
REMARK    3  A    between atoms: N_8  and  C_9
REMARK    4  A    between atoms: N_8  and  C_13
REMARK    5  A    between atoms: C_9  and  C_10
REMARK    6  A    between atoms: C_10  and  C_11
REMARK    7  A    between atoms: C_10  and  O_12
REMARK    8  A    between atoms: C_13  and  C_14
REMARK    9  A    between atoms: C_14  and  C_15
REMARK   10  A    between atoms: C_14  and  O_16
REMARK                            x       y       z     vdW  Elec       q    Type
REMARK                         _______ _______ _______ _____ _____    ______ ____
ROOT
ATOM      1  N   UNL     1      12.540   4.936   8.943  0.00  0.00    +0.000 N 
ENDROOT
BRANCH   1   6
ATOM      2  C   UNL     1      15.547   9.629  10.447  0.00  0.00    +0.000 C 
ATOM      3  C   UNL     1      14.749   8.426  10.047  0.00  0.00    +0.000 A 
ATOM      4  C   UNL     1      13.840   7.847  10.926  0.00  0.00    +0.000 A 
ATOM      5  C   UNL     1      13.116   6.702  10.557  0.00  0.00    +0.000 A 
ATOM      6  C   UNL     1      13.279   6.067   9.312  0.00  0.00    +0.000 A 
ATOM      7  C   UNL     1      14.205   6.680   8.448  0.00  0.00    +0.000 A 
ATOM      8  C   UNL     1      14.933   7.827   8.804  0.00  0.00    +0.000 A 
ENDBRANCH   1   6
BRANCH   1   9
ATOM      9  C   UNL     1      12.921   3.599   9.457  0.00  0.00    +0.000 C 
BRANCH   9  10
ATOM     10  C   UNL     1      14.432   3.487   9.776  0.00  0.00    +0.000 C 
ATOM     11  C   UNL     1      14.694   2.383  10.793  0.00  0.00    +0.000 C 
BRANCH  10  12
ATOM     12  O   UNL     1      15.188   3.190   8.593  0.00  0.00    +0.000 OA
ATOM     13  H   UNL     1      14.579   2.819   7.932  0.00  0.00    +0.000 HD
ENDBRANCH  10  12
ENDBRANCH   9  10
ENDBRANCH   1   9
BRANCH   1  14
ATOM     14  C   UNL     1      11.731   4.919   7.697  0.00  0.00    +0.000 C 
BRANCH  14  15
ATOM     15  C   UNL     1      12.188   3.810   6.719  0.00  0.00    +0.000 C 
ATOM     16  C   UNL     1      11.181   3.540   5.607  0.00  0.00    +0.000 C 
BRANCH  15  17
ATOM     17  O   UNL     1      13.441   4.124   6.114  0.00  0.00    +0.000 OA
ATOM     18  H   UNL     1      13.303   3.976   5.157  0.00  0.00    +0.000 HD
ENDBRANCH  15  17
ENDBRANCH  14  15
ENDBRANCH   1  14
TORSDOF 7
ENDMDL
MODEL 9
REMARK VINA RESULT:    -4.798      1.306      1.371
REMARK INTER + INTRA:          -7.080
REMARK INTER:                  -6.325
REMARK INTRA:                  -0.755
REMARK UNBOUND:                -0.599
REMARK  Name = 
REMARK  10 active torsions:
REMARK  status: ('A' for Active; 'I' for Inactive)
REMARK    1  A    between atoms: C_1  and  C_2
REMARK    2  A    between atoms: C_5  and  N_8
REMARK    3  A    between atoms: N_8  and  C_9
REMARK    4  A    between atoms: N_8  and  C_13
REMARK    5  A    between atoms: C_9  and  C_10
REMARK    6  A    between atoms: C_10  and  C_11
REMARK    7  A    between atoms: C_10  and  O_12
REMARK    8  A    between atoms: C_13  and  C_14
REMARK    9  A    between atoms: C_14  and  C_15
REMARK   10  A    between atoms: C_14  and  O_16
REMARK                            x       y       z     vdW  Elec       q    Type
REMARK                         _______ _______ _______ _____ _____    ______ ____
ROOT
ATOM      1  N   UNL     1      12.794   4.756   8.257  0.00  0.00    +0.000 N 
ENDROOT
BRANCH   1   6
ATOM      2  C   UNL     1      14.391   0.529  11.850  0.00  0.00    +0.000 C 
ATOM      3  C   UNL     1      13.971   1.640  10.937  0.00  0.00    +0.000 A 
ATOM      4  C   UNL     1      12.661   1.734  10.481  0.00  0.00    +0.000 A 
ATOM      5  C   UNL     1      12.280   2.760   9.601  0.00  0.00    +0.000 A 
ATOM      6  C   UNL     1      13.185   3.723   9.119  0.00  0.00    +0.000 A 
ATOM      7  C   UNL     1      14.500   3.599   9.603  0.00  0.00    +0.000 A 
ATOM      8  C   UNL     1      14.893   2.579  10.484  0.00  0.00    +0.000 A 
ENDBRANCH   1   6
BRANCH   1   9
ATOM      9  C   UNL     1      13.216   6.151   8.530  0.00  0.00    +0.000 C 
BRANCH   9  10
ATOM     10  C   UNL     1      14.169   6.712   7.446  0.00  0.00    +0.000 C 
ATOM     11  C   UNL     1      15.212   7.636   8.064  0.00  0.00    +0.000 C 
BRANCH  10  12
ATOM     12  O   UNL     1      14.859   5.653   6.769  0.00  0.00    +0.000 OA
ATOM     13  H   UNL     1      14.924   5.888   5.828  0.00  0.00    +0.000 HD
ENDBRANCH  10  12
ENDBRANCH   9  10
ENDBRANCH   1   9
BRANCH   1  14
ATOM     14  C   UNL     1      11.592   4.624   7.395  0.00  0.00    +0.000 C 
BRANCH  14  15
ATOM     15  C   UNL     1      11.875   3.795   6.119  0.00  0.00    +0.000 C 
ATOM     16  C   UNL     1      10.609   3.377   5.382  0.00  0.00    +0.000 C 
BRANCH  15  17
ATOM     17  O   UNL     1      12.706   4.506   5.202  0.00  0.00    +0.000 OA
ATOM     18  H   UNL     1      12.279   5.381   5.100  0.00  0.00    +0.000 HD
ENDBRANCH  15  17
ENDBRANCH  14  15
ENDBRANCH   1  14
TORSDOF 7
ENDMDL
