MODEL 1
REMARK VINA RESULT:    -5.452      0.000      0.000
REMARK INTER + INTRA:          -7.905
REMARK INTER:                  -7.365
REMARK INTRA:                  -0.540
REMARK UNBOUND:                -0.540
REMARK  Name = 
REMARK  10 active torsions:
REMARK  status: ('A' for Active; 'I' for Inactive)
REMARK    1  A    between atoms: C_1  and  C_2
REMARK    2  A    between atoms: C_5  and  N_8
REMARK    3  A    between atoms: N_8  and  C_9
REMARK    4  A    between atoms: N_8  and  C_13
REMARK    5  A    between atoms: C_9  and  C_10
REMARK    6  A    between atoms: C_10  and  C_11
REMARK    7  A    between atoms: C_10  and  O_12
REMARK    8  A    between atoms: C_13  and  C_14
REMARK    9  A    between atoms: C_14  and  C_15
REMARK   10  A    between atoms: C_14  and  O_16
REMARK                            x       y       z     vdW  Elec       q    Type
REMARK                         _______ _______ _______ _____ _____    ______ ____
ROOT
ATOM      1  N   UNL     1       9.549  12.573   7.609  0.00  0.00    +0.000 N 
ENDROOT
BRANCH   1   6
ATOM      2  C   UNL     1      11.084  10.680   2.376  0.00  0.00    +0.000 C 
ATOM      3  C   UNL     1      10.670  11.152   3.736  0.00  0.00    +0.000 A 
ATOM      4  C   UNL     1       9.631  12.064   3.890  0.00  0.00    +0.000 A 
ATOM      5  C   UNL     1       9.267  12.526   5.165  0.00  0.00    +0.000 A 
ATOM      6  C   UNL     1       9.930  12.123   6.339  0.00  0.00    +0.000 A 
ATOM      7  C   UNL     1      10.973  11.200   6.145  0.00  0.00    +0.000 A 
ATOM      8  C   UNL     1      11.346  10.728   4.876  0.00  0.00    +0.000 A 
ENDBRANCH   1   6
BRANCH   1   9
ATOM      9  C   UNL     1      10.491  12.465   8.750  0.00  0.00    +0.000 C 
BRANCH   9  10
ATOM     10  C   UNL     1      11.322  13.753   8.966  0.00  0.00    +0.000 C 
ATOM     11  C   UNL     1      12.733  13.590   8.413  0.00  0.00    +0.000 C 
BRANCH  10  12
ATOM     12  O   UNL     1      10.714  14.874   8.309  0.00  0.00    +0.000 OA
ATOM     13  H   UNL     1      10.824  15.653   8.880  0.00  0.00    +0.000 HD
ENDBRANCH  10  12
ENDBRANCH   9  10
ENDBRANCH   1   9
BRANCH   1  14
ATOM     14  C   UNL     1       8.117  12.679   7.990  0.00  0.00    +0.000 C 
BRANCH  14  15
ATOM     15  C   UNL     1       7.424  11.296   8.047  0.00  0.00    +0.000 C 
ATOM     16  C   UNL     1       7.260  10.765   9.466  0.00  0.00    +0.000 C 
BRANCH  15  17
ATOM     17  O   UNL     1       6.135  11.328   7.436  0.00  0.00    +0.000 OA
ATOM     18  H   UNL     1       6.145  12.122   6.864  0.00  0.00    +0.000 HD
ENDBRANCH  15  17
ENDBRANCH  14  15
ENDBRANCH   1  14
TORSDOF 7
ENDMDL
MODEL 2
REMARK VINA RESULT:    -5.322      2.123      4.204
REMARK INTER + INTRA:          -7.728
REMARK INTER:                  -7.247
REMARK INTRA:                  -0.482
REMARK UNBOUND:                -0.540
REMARK  Name = 
REMARK  10 active torsions:
REMARK  status: ('A' for Active; 'I' for Inactive)
REMARK    1  A    between atoms: C_1  and  C_2
REMARK    2  A    between atoms: C_5  and  N_8
REMARK    3  A    between atoms: N_8  and  C_9
REMARK    4  A    between atoms: N_8  and  C_13
REMARK    5  A    between atoms: C_9  and  C_10
REMARK    6  A    between atoms: C_10  and  C_11
REMARK    7  A    between atoms: C_10  and  O_12
REMARK    8  A    between atoms: C_13  and  C_14
REMARK    9  A    between atoms: C_14  and  C_15
REMARK   10  A    between atoms: C_14  and  O_16
REMARK                            x       y       z     vdW  Elec       q    Type
REMARK                         _______ _______ _______ _____ _____    ______ ____
ROOT
ATOM      1  N   UNL     1       9.510  12.169   6.147  0.00  0.00    +0.000 N 
ENDROOT
BRANCH   1   6
ATOM      2  C   UNL     1      14.621  11.263   8.674  0.00  0.00    +0.000 C 
ATOM      3  C   UNL     1      13.284  11.487   8.037  0.00  0.00    +0.000 A 
ATOM      4  C   UNL     1      12.766  10.575   7.123  0.00  0.00    +0.000 A 
ATOM      5  C   UNL     1      11.525  10.804   6.507  0.00  0.00    +0.000 A 
ATOM      6  C   UNL     1      10.756  11.956   6.751  0.00  0.00    +0.000 A 
ATOM      7  C   UNL     1      11.309  12.855   7.681  0.00  0.00    +0.000 A 
ATOM      8  C   UNL     1      12.547  12.637   8.306  0.00  0.00    +0.000 A 
ENDBRANCH   1   6
BRANCH   1   9
ATOM      9  C   UNL     1       9.435  12.684   4.759  0.00  0.00    +0.000 C 
BRANCH   9  10
ATOM     10  C   UNL     1       9.741  11.599   3.699  0.00  0.00    +0.000 C 
ATOM     11  C   UNL     1       8.662  10.522   3.693  0.00  0.00    +0.000 C 
BRANCH  10  12
ATOM     12  O   UNL     1       9.809  12.168   2.384  0.00  0.00    +0.000 OA
ATOM     13  H   UNL     1      10.529  11.729   1.902  0.00  0.00    +0.000 HD
ENDBRANCH  10  12
ENDBRANCH   9  10
ENDBRANCH   1   9
BRANCH   1  14
ATOM     14  C   UNL     1       8.289  12.392   6.963  0.00  0.00    +0.000 C 
BRANCH  14  15
ATOM     15  C   UNL     1       7.483  11.088   7.177  0.00  0.00    +0.000 C 
ATOM     16  C   UNL     1       7.931  10.301   8.403  0.00  0.00    +0.000 C 
BRANCH  15  17
ATOM     17  O   UNL     1       6.086  11.346   7.304  0.00  0.00    +0.000 OA
ATOM     18  H   UNL     1       5.977  12.283   7.044  0.00  0.00    +0.000 HD
ENDBRANCH  15  17
ENDBRANCH  14  15
ENDBRANCH   1  14
TORSDOF 7
ENDMDL
MODEL 3
REMARK VINA RESULT:    -5.275      1.979      4.786
REMARK INTER + INTRA:          -7.666
REMARK INTER:                  -7.083
REMARK INTRA:                  -0.583
REMARK UNBOUND:                -0.540
REMARK  Name = 
REMARK  10 active torsions:
REMARK  status: ('A' for Active; 'I' for Inactive)
REMARK    1  A    between atoms: C_1  and  C_2
REMARK    2  A    between atoms: C_5  and  N_8
REMARK    3  A    between atoms: N_8  and  C_9
REMARK    4  A    between atoms: N_8  and  C_13
REMARK    5  A    between atoms: C_9  and  C_10
REMARK    6  A    between atoms: C_10  and  C_11
REMARK    7  A    between atoms: C_10  and  O_12
REMARK    8  A    between atoms: C_13  and  C_14
REMARK    9  A    between atoms: C_14  and  C_15
REMARK   10  A    between atoms: C_14  and  O_16
REMARK                            x       y       z     vdW  Elec       q    Type
REMARK                         _______ _______ _______ _____ _____    ______ ____
ROOT
ATOM      1  N   UNL     1       9.369  11.695   5.813  0.00  0.00    +0.000 N 
ENDROOT
BRANCH   1   6
ATOM      2  C   UNL     1      14.393  11.698   8.656  0.00  0.00    +0.000 C 
ATOM      3  C   UNL     1      13.079  11.685   7.937  0.00  0.00    +0.000 A 
ATOM      4  C   UNL     1      12.762  10.665   7.047  0.00  0.00    +0.000 A 
ATOM      5  C   UNL     1      11.541  10.673   6.353  0.00  0.00    +0.000 A 
ATOM      6  C   UNL     1      10.593  11.703   6.494  0.00  0.00    +0.000 A 
ATOM      7  C   UNL     1      10.946  12.716   7.404  0.00  0.00    +0.000 A 
ATOM      8  C   UNL     1      12.162  12.719   8.105  0.00  0.00    +0.000 A 
ENDBRANCH   1   6
BRANCH   1   9
ATOM      9  C   UNL     1       8.148  12.218   6.473  0.00  0.00    +0.000 C 
BRANCH   9  10
ATOM     10  C   UNL     1       7.285  11.102   7.110  0.00  0.00    +0.000 C 
ATOM     11  C   UNL     1       7.807  10.731   8.493  0.00  0.00    +0.000 C 
BRANCH  10  12
ATOM     12  O   UNL     1       5.920  11.522   7.248  0.00  0.00    +0.000 OA
ATOM     13  H   UNL     1       5.528  11.569   6.360  0.00  0.00    +0.000 HD
ENDBRANCH  10  12
ENDBRANCH   9  10
ENDBRANCH   1   9
BRANCH   1  14
ATOM     14  C   UNL     1       9.118  10.752   4.693  0.00  0.00    +0.000 C 
BRANCH  14  15
ATOM     15  C   UNL     1       9.396  11.397   3.314  0.00  0.00    +0.000 C 
ATOM     16  C   UNL     1      10.786  11.079   2.773  0.00  0.00    +0.000 C 
BRANCH  15  17
ATOM     17  O   UNL     1       8.439  10.988   2.338  0.00  0.00    +0.000 OA
ATOM     18  H   UNL     1       8.932  10.401   1.730  0.00  0.00    +0.000 HD
ENDBRANCH  15  17
ENDBRANCH  14  15
ENDBRANCH   1  14
TORSDOF 7
ENDMDL
MODEL 4
REMARK VINA RESULT:    -4.851      1.611      2.110
REMARK INTER + INTRA:          -7.092
REMARK INTER:                  -6.648
REMARK INTRA:                  -0.444
REMARK UNBOUND:                -0.540
REMARK  Name = 
REMARK  10 active torsions:
REMARK  status: ('A' for Active; 'I' for Inactive)
REMARK    1  A    between atoms: C_1  and  C_2
REMARK    2  A    between atoms: C_5  and  N_8
REMARK    3  A    between atoms: N_8  and  C_9
REMARK    4  A    between atoms: N_8  and  C_13
REMARK    5  A    between atoms: C_9  and  C_10
REMARK    6  A    between atoms: C_10  and  C_11
REMARK    7  A    between atoms: C_10  and  O_12
REMARK    8  A    between atoms: C_13  and  C_14
REMARK    9  A    between atoms: C_14  and  C_15
REMARK   10  A    between atoms: C_14  and  O_16
REMARK                            x       y       z     vdW  Elec       q    Type
REMARK                         _______ _______ _______ _____ _____    ______ ____
ROOT
ATOM      1  N   UNL     1       9.701  10.906   7.122  0.00  0.00    +0.000 N 
ENDROOT
BRANCH   1   6
ATOM      2  C   UNL     1       8.297  11.736   1.584  0.00  0.00    +0.000 C 
ATOM      3  C   UNL     1       8.682  11.508   3.013  0.00  0.00    +0.000 A 
ATOM      4  C   UNL     1       8.215  10.399   3.711  0.00  0.00    +0.000 A 
ATOM      5  C   UNL     1       8.554  10.207   5.060  0.00  0.00    +0.000 A 
ATOM      6  C   UNL     1       9.350  11.115   5.782  0.00  0.00    +0.000 A 
ATOM      7  C   UNL     1       9.806  12.223   5.045  0.00  0.00    +0.000 A 
ATOM      8  C   UNL     1       9.476  12.426   3.695  0.00  0.00    +0.000 A 
ENDBRANCH   1   6
BRANCH   1   9
ATOM      9  C   UNL     1      11.126  10.763   7.503  0.00  0.00    +0.000 C 
BRANCH   9  10
ATOM     10  C   UNL     1      11.631  11.929   8.388  0.00  0.00    +0.000 C 
ATOM     11  C   UNL     1      12.963  11.580   9.041  0.00  0.00    +0.000 C 
BRANCH  10  12
ATOM     12  O   UNL     1      11.815  13.121   7.612  0.00  0.00    +0.000 OA
ATOM     13  H   UNL     1      12.769  13.293   7.545  0.00  0.00    +0.000 HD
ENDBRANCH  10  12
ENDBRANCH   9  10
ENDBRANCH   1   9
BRANCH   1  14
ATOM     14  C   UNL     1       8.734  10.325   8.088  0.00  0.00    +0.000 C 
BRANCH  14  15
ATOM     15  C   UNL     1       7.641  11.339   8.504  0.00  0.00    +0.000 C 
ATOM     16  C   UNL     1       8.078  12.790   8.342  0.00  0.00    +0.000 C 
BRANCH  15  17
ATOM     17  O   UNL     1       6.439  11.153   7.759  0.00  0.00    +0.000 OA
ATOM     18  H   UNL     1       6.178  12.052   7.473  0.00  0.00    +0.000 HD
ENDBRANCH  15  17
ENDBRANCH  14  15
ENDBRANCH   1  14
TORSDOF 7
ENDMDL
MODEL 5
REMARK VINA RESULT:    -4.756      2.263      3.202
REMARK INTER + INTRA:          -6.963
REMARK INTER:                  -6.125
REMARK INTRA:                  -0.838
REMARK UNBOUND:                -0.540
REMARK  Name = 
REMARK  10 active torsions:
REMARK  status: ('A' for Active; 'I' for Inactive)
REMARK    1  A    between atoms: C_1  and  C_2
REMARK    2  A    between atoms: C_5  and  N_8
REMARK    3  A    between atoms: N_8  and  C_9
REMARK    4  A    between atoms: N_8  and  C_13
REMARK    5  A    between atoms: C_9  and  C_10
REMARK    6  A    between atoms: C_10  and  C_11
REMARK    7  A    between atoms: C_10  and  O_12
REMARK    8  A    between atoms: C_13  and  C_14
REMARK    9  A    between atoms: C_14  and  C_15
REMARK   10  A    between atoms: C_14  and  O_16
REMARK                            x       y       z     vdW  Elec       q    Type
REMARK                         _______ _______ _______ _____ _____    ______ ____
ROOT
ATOM      1  N   UNL     1      10.319  11.343   8.305  0.00  0.00    +0.000 N 
ENDROOT
BRANCH   1   6
ATOM      2  C   UNL     1       8.711  10.443   2.834  0.00  0.00    +0.000 C 
ATOM      3  C   UNL     1       9.135  10.652   4.256  0.00  0.00    +0.000 A 
ATOM      4  C   UNL     1       8.236  10.480   5.303  0.00  0.00    +0.000 A 
ATOM      5  C   UNL     1       8.632  10.707   6.631  0.00  0.00    +0.000 A 
ATOM      6  C   UNL     1       9.926  11.137   6.977  0.00  0.00    +0.000 A 
ATOM      7  C   UNL     1      10.809  11.299   5.893  0.00  0.00    +0.000 A 
ATOM      8  C   UNL     1      10.427  11.073   4.561  0.00  0.00    +0.000 A 
ENDBRANCH   1   6
BRANCH   1   9
ATOM      9  C   UNL     1      10.844  10.213   9.109  0.00  0.00    +0.000 C 
BRANCH   9  10
ATOM     10  C   UNL     1      12.390  10.137   9.101  0.00  0.00    +0.000 C 
ATOM     11  C   UNL     1      12.880   9.087   8.111  0.00  0.00    +0.000 C 
BRANCH  10  12
ATOM     12  O   UNL     1      12.965  11.399   8.732  0.00  0.00    +0.000 OA
ATOM     13  H   UNL     1      13.698  11.586   9.342  0.00  0.00    +0.000 HD
ENDBRANCH  10  12
ENDBRANCH   9  10
ENDBRANCH   1   9
BRANCH   1  14
ATOM     14  C   UNL     1       9.781  12.477   9.099  0.00  0.00    +0.000 C 
BRANCH  14  15
ATOM     15  C   UNL     1      10.203  13.849   8.519  0.00  0.00    +0.000 C 
ATOM     16  C   UNL     1       9.847  15.019   9.427  0.00  0.00    +0.000 C 
BRANCH  15  17
ATOM     17  O   UNL     1      11.605  13.902   8.259  0.00  0.00    +0.000 OA
ATOM     18  H   UNL     1      12.012  14.148   9.115  0.00  0.00    +0.000 HD
ENDBRANCH  15  17
ENDBRANCH  14  15
ENDBRANCH   1  14
TORSDOF 7
ENDMDL
MODEL 6
REMARK VINA RESULT:    -4.726      2.248      3.715
REMARK INTER + INTRA:          -6.923
REMARK INTER:                  -6.576
REMARK INTRA:                  -0.347
REMARK UNBOUND:                -0.540
REMARK  Name = 
REMARK  10 active torsions:
REMARK  status: ('A' for Active; 'I' for Inactive)
REMARK    1  A    between atoms: C_1  and  C_2
REMARK    2  A    between atoms: C_5  and  N_8
REMARK    3  A    between atoms: N_8  and  C_9
REMARK    4  A    between atoms: N_8  and  C_13
REMARK    5  A    between atoms: C_9  and  C_10
REMARK    6  A    between atoms: C_10  and  C_11
REMARK    7  A    between atoms: C_10  and  O_12
REMARK    8  A    between atoms: C_13  and  C_14
REMARK    9  A    between atoms: C_14  and  C_15
REMARK   10  A    between atoms: C_14  and  O_16
REMARK                            x       y       z     vdW  Elec       q    Type
REMARK                         _______ _______ _______ _____ _____    ______ ____
ROOT
ATOM      1  N   UNL     1      10.185  11.281   7.028  0.00  0.00    +0.000 N 
ENDROOT
BRANCH   1   6
ATOM      2  C   UNL     1       8.327  11.779   1.585  0.00  0.00    +0.000 C 
ATOM      3  C   UNL     1       8.786  11.657   3.005  0.00  0.00    +0.000 A 
ATOM      4  C   UNL     1       9.388  12.728   3.656  0.00  0.00    +0.000 A 
ATOM      5  C   UNL     1       9.844  12.599   4.978  0.00  0.00    +0.000 A 
ATOM      6  C   UNL     1       9.745  11.397   5.703  0.00  0.00    +0.000 A 
ATOM      7  C   UNL     1       9.130  10.336   5.015  0.00  0.00    +0.000 A 
ATOM      8  C   UNL     1       8.667  10.453   3.693  0.00  0.00    +0.000 A 
ENDBRANCH   1   6
BRANCH   1   9
ATOM      9  C   UNL     1       9.201  11.134   8.127  0.00  0.00    +0.000 C 
BRANCH   9  10
ATOM     10  C   UNL     1       8.060  12.179   8.055  0.00  0.00    +0.000 C 
ATOM     11  C   UNL     1       6.793  11.564   7.474  0.00  0.00    +0.000 C 
BRANCH  10  12
ATOM     12  O   UNL     1       7.748  12.691   9.358  0.00  0.00    +0.000 OA
ATOM     13  H   UNL     1       8.514  13.199   9.674  0.00  0.00    +0.000 HD
ENDBRANCH  10  12
ENDBRANCH   9  10
ENDBRANCH   1   9
BRANCH   1  14
ATOM     14  C   UNL     1      11.515  11.794   7.445  0.00  0.00    +0.000 C 
BRANCH  14  15
ATOM     15  C   UNL     1      12.602  10.693   7.414  0.00  0.00    +0.000 C 
ATOM     16  C   UNL     1      12.280   9.508   8.317  0.00  0.00    +0.000 C 
BRANCH  15  17
ATOM     17  O   UNL     1      12.813  10.197   6.093  0.00  0.00    +0.000 OA
ATOM     18  H   UNL     1      12.554  10.933   5.503  0.00  0.00    +0.000 HD
ENDBRANCH  15  17
ENDBRANCH  14  15
ENDBRANCH   1  14
TORSDOF 7
ENDMDL
MODEL 7
REMARK VINA RESULT:    -4.712      2.524      4.566
REMARK INTER + INTRA:          -6.904
REMARK INTER:                  -6.804
REMARK INTRA:                  -0.100
REMARK UNBOUND:                -0.540
REMARK  Name = 
REMARK  10 active torsions:
REMARK  status: ('A' for Active; 'I' for Inactive)
REMARK    1  A    between atoms: C_1  and  C_2
REMARK    2  A    between atoms: C_5  and  N_8
REMARK    3  A    between atoms: N_8  and  C_9
REMARK    4  A    between atoms: N_8  and  C_13
REMARK    5  A    between atoms: C_9  and  C_10
REMARK    6  A    between atoms: C_10  and  C_11
REMARK    7  A    between atoms: C_10  and  O_12
REMARK    8  A    between atoms: C_13  and  C_14
REMARK    9  A    between atoms: C_14  and  C_15
REMARK   10  A    between atoms: C_14  and  O_16
REMARK                            x       y       z     vdW  Elec       q    Type
REMARK                         _______ _______ _______ _____ _____    ______ ____
ROOT
ATOM      1  N   UNL     1       9.562  11.881   6.980  0.00  0.00    +0.000 N 
ENDROOT
BRANCH   1   6
ATOM      2  C   UNL     1      13.726   8.296   8.752  0.00  0.00    +0.000 C 
ATOM      3  C   UNL     1      12.654   9.243   8.308  0.00  0.00    +0.000 A 
ATOM      4  C   UNL     1      11.400   9.237   8.911  0.00  0.00    +0.000 A 
ATOM      5  C   UNL     1      10.389  10.107   8.471  0.00  0.00    +0.000 A 
ATOM      6  C   UNL     1      10.568  11.003   7.401  0.00  0.00    +0.000 A 
ATOM      7  C   UNL     1      11.848  10.983   6.817  0.00  0.00    +0.000 A 
ATOM      8  C   UNL     1      12.868  10.120   7.248  0.00  0.00    +0.000 A 
ENDBRANCH   1   6
BRANCH   1   9
ATOM      9  C   UNL     1       8.455  12.238   7.899  0.00  0.00    +0.000 C 
BRANCH   9  10
ATOM     10  C   UNL     1       7.383  11.126   8.009  0.00  0.00    +0.000 C 
ATOM     11  C   UNL     1       6.981  10.897   9.461  0.00  0.00    +0.000 C 
BRANCH  10  12
ATOM     12  O   UNL     1       6.203  11.474   7.271  0.00  0.00    +0.000 OA
ATOM     13  H   UNL     1       5.436  11.099   7.735  0.00  0.00    +0.000 HD
ENDBRANCH  10  12
ENDBRANCH   9  10
ENDBRANCH   1   9
BRANCH   1  14
ATOM     14  C   UNL     1       9.263  12.073   5.538  0.00  0.00    +0.000 C 
BRANCH  14  15
ATOM     15  C   UNL     1       9.358  10.750   4.741  0.00  0.00    +0.000 C 
ATOM     16  C   UNL     1       7.999  10.215   4.303  0.00  0.00    +0.000 C 
BRANCH  15  17
ATOM     17  O   UNL     1      10.172  10.893   3.578  0.00  0.00    +0.000 OA
ATOM     18  H   UNL     1       9.834  10.224   2.949  0.00  0.00    +0.000 HD
ENDBRANCH  15  17
ENDBRANCH  14  15
ENDBRANCH   1  14
TORSDOF 7
ENDMDL
MODEL 8
REMARK VINA RESULT:    -4.602      2.320      4.127
REMARK INTER + INTRA:          -6.756
REMARK INTER:                  -5.923
REMARK INTRA:                  -0.833
REMARK UNBOUND:                -0.540
REMARK  Name = 
REMARK  10 active torsions:
REMARK  status: ('A' for Active; 'I' for Inactive)
REMARK    1  A    between atoms: C_1  and  C_2
REMARK    2  A    between atoms: C_5  and  N_8
REMARK    3  A    between atoms: N_8  and  C_9
REMARK    4  A    between atoms: N_8  and  C_13
REMARK    5  A    between atoms: C_9  and  C_10
REMARK    6  A    between atoms: C_10  and  C_11
REMARK    7  A    between atoms: C_10  and  O_12
REMARK    8  A    between atoms: C_13  and  C_14
REMARK    9  A    between atoms: C_14  and  C_15
REMARK   10  A    between atoms: C_14  and  O_16
REMARK                            x       y       z     vdW  Elec       q    Type
REMARK                         _______ _______ _______ _____ _____    ______ ____
ROOT
ATOM      1  N   UNL     1      11.150  11.938   7.755  0.00  0.00    +0.000 N 
ENDROOT
BRANCH   1   6
ATOM      2  C   UNL     1       9.059  11.774   2.377  0.00  0.00    +0.000 C 
ATOM      3  C   UNL     1       9.584  11.799   3.779  0.00  0.00    +0.000 A 
ATOM      4  C   UNL     1       9.100  12.716   4.707  0.00  0.00    +0.000 A 
ATOM      5  C   UNL     1       9.618  12.755   6.012  0.00  0.00    +0.000 A 
ATOM      6  C   UNL     1      10.652  11.906   6.447  0.00  0.00    +0.000 A 
ATOM      7  C   UNL     1      11.115  10.992   5.483  0.00  0.00    +0.000 A 
ATOM      8  C   UNL     1      10.605  10.940   4.176  0.00  0.00    +0.000 A 
ENDBRANCH   1   6
BRANCH   1   9
ATOM      9  C   UNL     1      10.249  11.661   8.900  0.00  0.00    +0.000 C 
BRANCH   9  10
ATOM     10  C   UNL     1      10.099  10.148   9.193  0.00  0.00    +0.000 C 
ATOM     11  C   UNL     1       8.856   9.583   8.516  0.00  0.00    +0.000 C 
BRANCH  10  12
ATOM     12  O   UNL     1      11.236   9.416   8.715  0.00  0.00    +0.000 OA
ATOM     13  H   UNL     1      11.380   9.656   7.785  0.00  0.00    +0.000 HD
ENDBRANCH  10  12
ENDBRANCH   9  10
ENDBRANCH   1   9
BRANCH   1  14
ATOM     14  C   UNL     1      12.371  12.713   8.095  0.00  0.00    +0.000 C 
BRANCH  14  15
ATOM     15  C   UNL     1      13.648  11.839   8.053  0.00  0.00    +0.000 C 
ATOM     16  C   UNL     1      14.934  12.656   8.084  0.00  0.00    +0.000 C 
BRANCH  15  17
ATOM     17  O   UNL     1      13.687  10.912   9.136  0.00  0.00    +0.000 OA
ATOM     18  H   UNL     1      12.775  10.897   9.490  0.00  0.00    +0.000 HD
ENDBRANCH  15  17
ENDBRANCH  14  15
ENDBRANCH   1  14
TORSDOF 7
ENDMDL
MODEL 9
REMARK VINA RESULT:    -4.565      2.428      2.994
REMARK INTER + INTRA:          -6.705
REMARK INTER:                  -6.084
REMARK INTRA:                  -0.622
REMARK UNBOUND:                -0.540
REMARK  Name = 
REMARK  10 active torsions:
REMARK  status: ('A' for Active; 'I' for Inactive)
REMARK    1  A    between atoms: C_1  and  C_2
REMARK    2  A    between atoms: C_5  and  N_8
REMARK    3  A    between atoms: N_8  and  C_9
REMARK    4  A    between atoms: N_8  and  C_13
REMARK    5  A    between atoms: C_9  and  C_10
REMARK    6  A    between atoms: C_10  and  C_11
REMARK    7  A    between atoms: C_10  and  O_12
REMARK    8  A    between atoms: C_13  and  C_14
REMARK    9  A    between atoms: C_14  and  C_15
REMARK   10  A    between atoms: C_14  and  O_16
REMARK                            x       y       z     vdW  Elec       q    Type
REMARK                         _______ _______ _______ _____ _____    ______ ____
ROOT
ATOM      1  N   UNL     1      11.266  11.583   7.539  0.00  0.00    +0.000 N 
ENDROOT
BRANCH   1   6
ATOM      2  C   UNL     1       8.941  11.957   2.268  0.00  0.00    +0.000 C 
ATOM      3  C   UNL     1       9.561  11.877   3.629  0.00  0.00    +0.000 A 
ATOM      4  C   UNL     1      10.563  10.952   3.905  0.00  0.00    +0.000 A 
ATOM      5  C   UNL     1      11.120  10.862   5.191  0.00  0.00    +0.000 A 
ATOM      6  C   UNL     1      10.693  11.666   6.263  0.00  0.00    +0.000 A 
ATOM      7  C   UNL     1       9.681  12.591   5.948  0.00  0.00    +0.000 A 
ATOM      8  C   UNL     1       9.117  12.693   4.665  0.00  0.00    +0.000 A 
ENDBRANCH   1   6
BRANCH   1   9
ATOM      9  C   UNL     1      12.730  11.397   7.685  0.00  0.00    +0.000 C 
BRANCH   9  10
ATOM     10  C   UNL     1      13.095  10.119   8.480  0.00  0.00    +0.000 C 
ATOM     11  C   UNL     1      13.370   8.952   7.539  0.00  0.00    +0.000 C 
BRANCH  10  12
ATOM     12  O   UNL     1      14.266  10.328   9.281  0.00  0.00    +0.000 OA
ATOM     13  H   UNL     1      14.480   9.492   9.727  0.00  0.00    +0.000 HD
ENDBRANCH  10  12
ENDBRANCH   9  10
ENDBRANCH   1   9
BRANCH   1  14
ATOM     14  C   UNL     1      10.463  11.169   8.717  0.00  0.00    +0.000 C 
BRANCH  14  15
ATOM     15  C   UNL     1       9.436  10.066   8.366  0.00  0.00    +0.000 C 
ATOM     16  C   UNL     1       9.605   8.801   9.200  0.00  0.00    +0.000 C 
BRANCH  15  17
ATOM     17  O   UNL     1       8.094  10.524   8.527  0.00  0.00    +0.000 OA
ATOM     18  H   UNL     1       7.561   9.959   7.932  0.00  0.00    +0.000 HD
ENDBRANCH  15  17
ENDBRANCH  14  15
ENDBRANCH   1  14
TORSDOF 7
ENDMDL
