MODEL 1
REMARK VINA RESULT:    -3.909      0.000      0.000
REMARK INTER + INTRA:          -4.293
REMARK INTER:                  -4.252
REMARK INTRA:                  -0.041
REMARK UNBOUND:                -0.041
REMARK  Name = 
REMARK  3 active torsions:
REMARK  status: ('A' for Active; 'I' for Inactive)
REMARK    1  A    between atoms: C_1  and  O_2
REMARK    2  A    between atoms: O_2  and  C_3
REMARK    3  A    between atoms: C_8  and  O_9
REMARK                            x       y       z     vdW  Elec       q    Type
REMARK                         _______ _______ _______ _____ _____    ______ ____
ROOT
ATOM      1  C   UNL     1       9.732  18.267   3.086  0.00  0.00    +0.000 A 
ATOM      2  C   UNL     1      10.900  18.188   3.843  0.00  0.00    +0.000 A 
ATOM      3  C   UNL     1      12.028  17.541   3.322  0.00  0.00    +0.000 A 
ATOM      4  C   UNL     1      11.992  16.971   2.048  0.00  0.00    +0.000 A 
ATOM      5  C   UNL     1      10.829  17.046   1.286  0.00  0.00    +0.000 A 
ATOM      6  C   UNL     1       9.715  17.689   1.811  0.00  0.00    +0.000 A 
ENDROOT
BRANCH   1   8
ATOM      7  C   UNL     1       8.274  18.877   4.861  0.00  0.00    +0.000 C 
ATOM      8  O   UNL     1       8.558  18.866   3.467  0.00  0.00    +0.000 OA
ENDBRANCH   1   8
BRANCH   6   9
ATOM      9  O   UNL     1       8.582  17.750   1.043  0.00  0.00    +0.000 OA
ATOM     10  H   UNL     1       8.815  18.342   0.303  0.00  0.00    +0.000 HD
ENDBRANCH   6   9
TORSDOF 2
ENDMDL
MODEL 2
REMARK VINA RESULT:    -3.849      8.658      9.224
REMARK INTER + INTRA:          -4.227
REMARK INTER:                  -4.190
REMARK INTRA:                  -0.038
REMARK UNBOUND:                -0.041
REMARK  Name = 
REMARK  3 active torsions:
REMARK  status: ('A' for Active; 'I' for Inactive)
REMARK    1  A    between atoms: C_1  and  O_2
REMARK    2  A    between atoms: O_2  and  C_3
REMARK    3  A    between atoms: C_8  and  O_9
REMARK                            x       y       z     vdW  Elec       q    Type
REMARK                         _______ _______ _______ _____ _____    ______ ____
ROOT
ATOM      1  C   UNL     1      11.430   9.485   6.086  0.00  0.00    +0.000 A 
ATOM      2  C   UNL     1      12.184   9.599   4.919  0.00  0.00    +0.000 A 
ATOM      3  C   UNL     1      11.631  10.207   3.785  0.00  0.00    +0.000 A 
ATOM      4  C   UNL     1      10.326  10.703   3.813  0.00  0.00    +0.000 A 
ATOM      5  C   UNL     1       9.566  10.594   4.976  0.00  0.00    +0.000 A 
ATOM      6  C   UNL     1      10.123   9.988   6.096  0.00  0.00    +0.000 A 
ENDROOT
BRANCH   1   8
ATOM      7  C   UNL     1      13.115   8.284   7.254  0.00  0.00    +0.000 C 
ATOM      8  O   UNL     1      11.840   8.915   7.265  0.00  0.00    +0.000 OA
ENDBRANCH   1   8
BRANCH   6   9
ATOM      9  O   UNL     1       9.357   9.892   7.227  0.00  0.00    +0.000 OA
ATOM     10  H   UNL     1       8.472   9.635   6.906  0.00  0.00    +0.000 HD
ENDBRANCH   6   9
TORSDOF 2
ENDMDL
MODEL 3
REMARK VINA RESULT:    -3.694      1.299      3.063
REMARK INTER + INTRA:          -4.059
REMARK INTER:                  -4.157
REMARK INTRA:                   0.098
REMARK UNBOUND:                -0.041
REMARK  Name = 
REMARK  3 active torsions:
REMARK  status: ('A' for Active; 'I' for Inactive)
REMARK    1  A    between atoms: C_1  and  O_2
REMARK    2  A    between atoms: O_2  and  C_3
REMARK    3  A    between atoms: C_8  and  O_9
REMARK                            x       y       z     vdW  Elec       q    Type
REMARK                         _______ _______ _______ _____ _____    ______ ____
ROOT
ATOM      1  C   UNL     1      10.590  17.704   2.016  0.00  0.00    +0.000 A 
ATOM      2  C   UNL     1      11.391  17.960   3.128  0.00  0.00    +0.000 A 
ATOM      3  C   UNL     1      10.832  18.540   4.274  0.00  0.00    +0.000 A 
ATOM      4  C   UNL     1       9.475  18.866   4.312  0.00  0.00    +0.000 A 
ATOM      5  C   UNL     1       8.668  18.613   3.205  0.00  0.00    +0.000 A 
ATOM      6  C   UNL     1       9.231  18.038   2.073  0.00  0.00    +0.000 A 
ENDROOT
BRANCH   1   8
ATOM      7  C   UNL     1      11.375  18.048  -0.201  0.00  0.00    +0.000 C 
ATOM      8  O   UNL     1      11.001  17.144   0.832  0.00  0.00    +0.000 OA
ENDBRANCH   1   8
BRANCH   6   9
ATOM      9  O   UNL     1       8.419  17.799   0.997  0.00  0.00    +0.000 OA
ATOM     10  H   UNL     1       8.854  17.072   0.513  0.00  0.00    +0.000 HD
ENDBRANCH   6   9
TORSDOF 2
ENDMDL
MODEL 4
REMARK VINA RESULT:    -3.646      2.061      3.352
REMARK INTER + INTRA:          -4.007
REMARK INTER:                  -3.954
REMARK INTRA:                  -0.053
REMARK UNBOUND:                -0.041
REMARK  Name = 
REMARK  3 active torsions:
REMARK  status: ('A' for Active; 'I' for Inactive)
REMARK    1  A    between atoms: C_1  and  O_2
REMARK    2  A    between atoms: O_2  and  C_3
REMARK    3  A    between atoms: C_8  and  O_9
REMARK                            x       y       z     vdW  Elec       q    Type
REMARK                         _______ _______ _______ _____ _____    ______ ____
ROOT
ATOM      1  C   UNL     1      11.742  17.176   2.811  0.00  0.00    +0.000 A 
ATOM      2  C   UNL     1      11.400  17.932   3.931  0.00  0.00    +0.000 A 
ATOM      3  C   UNL     1      10.164  18.588   3.981  0.00  0.00    +0.000 A 
ATOM      4  C   UNL     1       9.267  18.492   2.915  0.00  0.00    +0.000 A 
ATOM      5  C   UNL     1       9.602  17.738   1.792  0.00  0.00    +0.000 A 
ATOM      6  C   UNL     1      10.830  17.091   1.751  0.00  0.00    +0.000 A 
ENDROOT
BRANCH   1   8
ATOM      7  C   UNL     1      14.093  17.263   2.474  0.00  0.00    +0.000 C 
ATOM      8  O   UNL     1      12.912  16.484   2.626  0.00  0.00    +0.000 OA
ENDBRANCH   1   8
BRANCH   6   9
ATOM      9  O   UNL     1      11.136  16.355   0.637  0.00  0.00    +0.000 OA
ATOM     10  H   UNL     1      10.409  15.709   0.559  0.00  0.00    +0.000 HD
ENDBRANCH   6   9
TORSDOF 2
ENDMDL
MODEL 5
REMARK VINA RESULT:    -3.435     16.424     16.626
REMARK INTER + INTRA:          -3.777
REMARK INTER:                  -3.737
REMARK INTRA:                  -0.040
REMARK UNBOUND:                -0.041
REMARK  Name = 
REMARK  3 active torsions:
REMARK  status: ('A' for Active; 'I' for Inactive)
REMARK    1  A    between atoms: C_1  and  O_2
REMARK    2  A    between atoms: O_2  and  C_3
REMARK    3  A    between atoms: C_8  and  O_9
REMARK                            x       y       z     vdW  Elec       q    Type
REMARK                         _______ _______ _______ _____ _____    ______ ____
ROOT
ATOM      1  C   UNL     1      10.260  16.114 -13.698  0.00  0.00    +0.000 A 
ATOM      2  C   UNL     1       9.521  17.296 -13.737  0.00  0.00    +0.000 A 
ATOM      3  C   UNL     1      10.166  18.530 -13.577  0.00  0.00    +0.000 A 
ATOM      4  C   UNL     1      11.547  18.586 -13.378  0.00  0.00    +0.000 A 
ATOM      5  C   UNL     1      12.291  17.410 -13.339  0.00  0.00    +0.000 A 
ATOM      6  C   UNL     1      11.644  16.191 -13.498  0.00  0.00    +0.000 A 
ENDROOT
BRANCH   1   8
ATOM      7  C   UNL     1       8.412  14.642 -13.444  0.00  0.00    +0.000 C 
ATOM      8  O   UNL     1       9.764  14.843 -13.839  0.00  0.00    +0.000 OA
ENDBRANCH   1   8
BRANCH   6   9
ATOM      9  O   UNL     1      12.397  15.048 -13.456  0.00  0.00    +0.000 OA
ATOM     10  H   UNL     1      12.811  15.056 -12.572  0.00  0.00    +0.000 HD
ENDBRANCH   6   9
TORSDOF 2
ENDMDL
MODEL 6
REMARK VINA RESULT:    -3.423      8.693      9.224
REMARK INTER + INTRA:          -3.764
REMARK INTER:                  -3.725
REMARK INTRA:                  -0.039
REMARK UNBOUND:                -0.041
REMARK  Name = 
REMARK  3 active torsions:
REMARK  status: ('A' for Active; 'I' for Inactive)
REMARK    1  A    between atoms: C_1  and  O_2
REMARK    2  A    between atoms: O_2  and  C_3
REMARK    3  A    between atoms: C_8  and  O_9
REMARK                            x       y       z     vdW  Elec       q    Type
REMARK                         _______ _______ _______ _____ _____    ______ ____
ROOT
ATOM      1  C   UNL     1      11.781   9.630   6.005  0.00  0.00    +0.000 A 
ATOM      2  C   UNL     1      10.945   9.644   7.121  0.00  0.00    +0.000 A 
ATOM      3  C   UNL     1       9.683  10.246   7.043  0.00  0.00    +0.000 A 
ATOM      4  C   UNL     1       9.252  10.834   5.852  0.00  0.00    +0.000 A 
ATOM      5  C   UNL     1      10.081  10.823   4.732  0.00  0.00    +0.000 A 
ATOM      6  C   UNL     1      11.331  10.224   4.820  0.00  0.00    +0.000 A 
ENDROOT
BRANCH   1   8
ATOM      7  C   UNL     1      13.370   8.137   6.950  0.00  0.00    +0.000 C 
ATOM      8  O   UNL     1      13.036   9.080   5.938  0.00  0.00    +0.000 OA
ENDBRANCH   1   8
BRANCH   6   9
ATOM      9  O   UNL     1      12.128  10.226   3.706  0.00  0.00    +0.000 OA
ATOM     10  H   UNL     1      12.546   9.344   3.698  0.00  0.00    +0.000 HD
ENDBRANCH   6   9
TORSDOF 2
ENDMDL
MODEL 7
REMARK VINA RESULT:    -3.400     16.486     16.827
REMARK INTER + INTRA:          -3.739
REMARK INTER:                  -3.690
REMARK INTRA:                  -0.049
REMARK UNBOUND:                -0.041
REMARK  Name = 
REMARK  3 active torsions:
REMARK  status: ('A' for Active; 'I' for Inactive)
REMARK    1  A    between atoms: C_1  and  O_2
REMARK    2  A    between atoms: O_2  and  C_3
REMARK    3  A    between atoms: C_8  and  O_9
REMARK                            x       y       z     vdW  Elec       q    Type
REMARK                         _______ _______ _______ _____ _____    ______ ____
ROOT
ATOM      1  C   UNL     1       9.158  16.003 -14.066  0.00  0.00    +0.000 A 
ATOM      2  C   UNL     1       9.636  17.268 -13.725  0.00  0.00    +0.000 A 
ATOM      3  C   UNL     1      10.976  17.431 -13.349  0.00  0.00    +0.000 A 
ATOM      4  C   UNL     1      11.839  16.335 -13.312  0.00  0.00    +0.000 A 
ATOM      5  C   UNL     1      11.369  15.069 -13.652  0.00  0.00    +0.000 A 
ATOM      6  C   UNL     1      10.039  14.916 -14.023  0.00  0.00    +0.000 A 
ENDROOT
BRANCH   1   8
ATOM      7  C   UNL     1       6.834  16.137 -13.589  0.00  0.00    +0.000 C 
ATOM      8  O   UNL     1       7.877  15.697 -14.450  0.00  0.00    +0.000 OA
ENDBRANCH   1   8
BRANCH   6   9
ATOM      9  O   UNL     1       9.600  13.661 -14.352  0.00  0.00    +0.000 OA
ATOM     10  H   UNL     1       8.719  13.802 -14.747  0.00  0.00    +0.000 HD
ENDBRANCH   6   9
TORSDOF 2
ENDMDL
MODEL 8
REMARK VINA RESULT:    -3.371     16.382     17.214
REMARK INTER + INTRA:          -3.707
REMARK INTER:                  -3.663
REMARK INTRA:                  -0.044
REMARK UNBOUND:                -0.041
REMARK  Name = 
REMARK  3 active torsions:
REMARK  status: ('A' for Active; 'I' for Inactive)
REMARK    1  A    between atoms: C_1  and  O_2
REMARK    2  A    between atoms: O_2  and  C_3
REMARK    3  A    between atoms: C_8  and  O_9
REMARK                            x       y       z     vdW  Elec       q    Type
REMARK                         _______ _______ _______ _____ _____    ______ ____
ROOT
ATOM      1  C   UNL     1       7.963  16.125 -13.961  0.00  0.00    +0.000 A 
ATOM      2  C   UNL     1       7.127  16.946 -14.717  0.00  0.00    +0.000 A 
ATOM      3  C   UNL     1       5.755  16.672 -14.787  0.00  0.00    +0.000 A 
ATOM      4  C   UNL     1       5.216  15.580 -14.105  0.00  0.00    +0.000 A 
ATOM      5  C   UNL     1       6.045  14.756 -13.347  0.00  0.00    +0.000 A 
ATOM      6  C   UNL     1       7.404  15.035 -13.284  0.00  0.00    +0.000 A 
ENDROOT
BRANCH   1   8
ATOM      7  C   UNL     1       9.797  17.603 -13.647  0.00  0.00    +0.000 C 
ATOM      8  O   UNL     1       9.318  16.273 -13.804  0.00  0.00    +0.000 OA
ENDBRANCH   1   8
BRANCH   6   9
ATOM      9  O   UNL     1       8.199  14.211 -12.533  0.00  0.00    +0.000 OA
ATOM     10  H   UNL     1       8.909  13.929 -13.140  0.00  0.00    +0.000 HD
ENDBRANCH   6   9
TORSDOF 2
ENDMDL
MODEL 9
REMARK VINA RESULT:    -3.282     16.386     16.827
REMARK INTER + INTRA:          -3.611
REMARK INTER:                  -3.573
REMARK INTRA:                  -0.038
REMARK UNBOUND:                -0.041
REMARK  Name = 
REMARK  3 active torsions:
REMARK  status: ('A' for Active; 'I' for Inactive)
REMARK    1  A    between atoms: C_1  and  O_2
REMARK    2  A    between atoms: O_2  and  C_3
REMARK    3  A    between atoms: C_8  and  O_9
REMARK                            x       y       z     vdW  Elec       q    Type
REMARK                         _______ _______ _______ _____ _____    ______ ____
ROOT
ATOM      1  C   UNL     1      10.808  16.726 -13.724  0.00  0.00    +0.000 A 
ATOM      2  C   UNL     1       9.698  17.569 -13.700  0.00  0.00    +0.000 A 
ATOM      3  C   UNL     1       8.407  17.027 -13.735  0.00  0.00    +0.000 A 
ATOM      4  C   UNL     1       8.221  15.645 -13.795  0.00  0.00    +0.000 A 
ATOM      5  C   UNL     1       9.325  14.796 -13.819  0.00  0.00    +0.000 A 
ATOM      6  C   UNL     1      10.601  15.342 -13.784  0.00  0.00    +0.000 A 
ENDROOT
BRANCH   1   8
ATOM      7  C   UNL     1      12.383  18.442 -13.252  0.00  0.00    +0.000 C 
ATOM      8  O   UNL     1      12.123  17.115 -13.696  0.00  0.00    +0.000 OA
ENDBRANCH   1   8
BRANCH   6   9
ATOM      9  O   UNL     1      11.671  14.487 -13.809  0.00  0.00    +0.000 OA
ATOM     10  H   UNL     1      11.861  14.300 -12.870  0.00  0.00    +0.000 HD
ENDBRANCH   6   9
TORSDOF 2
ENDMDL
