MODEL 1
REMARK VINA RESULT:    -5.649      0.000      0.000
REMARK INTER + INTRA:          -8.057
REMARK INTER:                  -7.630
REMARK INTRA:                  -0.428
REMARK UNBOUND:                -0.428
REMARK  Name = 
REMARK  10 active torsions:
REMARK  status: ('A' for Active; 'I' for Inactive)
REMARK    1  A    between atoms: C_1  and  C_2
REMARK    2  A    between atoms: C_5  and  N_8
REMARK    3  A    between atoms: N_8  and  C_9
REMARK    4  A    between atoms: N_8  and  C_13
REMARK    5  A    between atoms: C_9  and  C_10
REMARK    6  A    between atoms: C_10  and  C_11
REMARK    7  A    between atoms: C_10  and  O_12
REMARK    8  A    between atoms: C_13  and  C_14
REMARK    9  A    between atoms: C_14  and  C_15
REMARK   10  A    between atoms: C_14  and  O_16
REMARK                            x       y       z     vdW  Elec       q    Type
REMARK                         _______ _______ _______ _____ _____    ______ ____
ROOT
ATOM      1  N   UNL     1       4.374  13.153   6.403  0.00  0.00    +0.000 N 
ENDROOT
BRANCH   1   6
ATOM      2  C   UNL     1       7.800  12.484   1.805  0.00  0.00    +0.000 C 
ATOM      3  C   UNL     1       6.923  12.639   3.010  0.00  0.00    +0.000 A 
ATOM      4  C   UNL     1       5.701  11.979   3.093  0.00  0.00    +0.000 A 
ATOM      5  C   UNL     1       4.869  12.151   4.212  0.00  0.00    +0.000 A 
ATOM      6  C   UNL     1       5.200  13.001   5.282  0.00  0.00    +0.000 A 
ATOM      7  C   UNL     1       6.442  13.651   5.165  0.00  0.00    +0.000 A 
ATOM      8  C   UNL     1       7.285  13.486   4.053  0.00  0.00    +0.000 A 
ENDBRANCH   1   6
BRANCH   1   9
ATOM      9  C   UNL     1       4.911  12.901   7.762  0.00  0.00    +0.000 C 
BRANCH   9  10
ATOM     10  C   UNL     1       5.039  11.393   8.087  0.00  0.00    +0.000 C 
ATOM     11  C   UNL     1       6.405  11.077   8.683  0.00  0.00    +0.000 C 
BRANCH  10  12
ATOM     12  O   UNL     1       4.038  10.983   9.029  0.00  0.00    +0.000 OA
ATOM     13  H   UNL     1       4.393  11.117   9.924  0.00  0.00    +0.000 HD
ENDBRANCH  10  12
ENDBRANCH   9  10
ENDBRANCH   1   9
BRANCH   1  14
ATOM     14  C   UNL     1       2.896  13.056   6.289  0.00  0.00    +0.000 C 
BRANCH  14  15
ATOM     15  C   UNL     1       2.174  13.673   7.511  0.00  0.00    +0.000 C 
ATOM     16  C   UNL     1       2.276  15.193   7.563  0.00  0.00    +0.000 C 
BRANCH  15  17
ATOM     17  O   UNL     1       0.791  13.323   7.538  0.00  0.00    +0.000 OA
ATOM     18  H   UNL     1       0.323  14.114   7.203  0.00  0.00    +0.000 HD
ENDBRANCH  15  17
ENDBRANCH  14  15
ENDBRANCH   1  14
TORSDOF 7
ENDMDL
MODEL 2
REMARK VINA RESULT:    -5.629      0.341      3.227
REMARK INTER + INTRA:          -8.032
REMARK INTER:                  -7.629
REMARK INTRA:                  -0.403
REMARK UNBOUND:                -0.428
REMARK  Name = 
REMARK  10 active torsions:
REMARK  status: ('A' for Active; 'I' for Inactive)
REMARK    1  A    between atoms: C_1  and  C_2
REMARK    2  A    between atoms: C_5  and  N_8
REMARK    3  A    between atoms: N_8  and  C_9
REMARK    4  A    between atoms: N_8  and  C_13
REMARK    5  A    between atoms: C_9  and  C_10
REMARK    6  A    between atoms: C_10  and  C_11
REMARK    7  A    between atoms: C_10  and  O_12
REMARK    8  A    between atoms: C_13  and  C_14
REMARK    9  A    between atoms: C_14  and  C_15
REMARK   10  A    between atoms: C_14  and  O_16
REMARK                            x       y       z     vdW  Elec       q    Type
REMARK                         _______ _______ _______ _____ _____    ______ ____
ROOT
ATOM      1  N   UNL     1       4.473  12.833   6.149  0.00  0.00    +0.000 N 
ENDROOT
BRANCH   1   6
ATOM      2  C   UNL     1       7.958  12.401   1.567  0.00  0.00    +0.000 C 
ATOM      3  C   UNL     1       7.042  12.533   2.745  0.00  0.00    +0.000 A 
ATOM      4  C   UNL     1       7.393  13.316   3.839  0.00  0.00    +0.000 A 
ATOM      5  C   UNL     1       6.544  13.412   4.954  0.00  0.00    +0.000 A 
ATOM      6  C   UNL     1       5.324  12.718   5.043  0.00  0.00    +0.000 A 
ATOM      7  C   UNL     1       5.000  11.937   3.918  0.00  0.00    +0.000 A 
ATOM      8  C   UNL     1       5.839  11.835   2.796  0.00  0.00    +0.000 A 
ENDBRANCH   1   6
BRANCH   1   9
ATOM      9  C   UNL     1       3.147  13.479   6.003  0.00  0.00    +0.000 C 
BRANCH   9  10
ATOM     10  C   UNL     1       2.413  13.656   7.355  0.00  0.00    +0.000 C 
ATOM     11  C   UNL     1       2.124  15.127   7.630  0.00  0.00    +0.000 C 
BRANCH  10  12
ATOM     12  O   UNL     1       1.165  12.950   7.360  0.00  0.00    +0.000 OA
ATOM     13  H   UNL     1       1.346  12.016   7.161  0.00  0.00    +0.000 HD
ENDBRANCH  10  12
ENDBRANCH   9  10
ENDBRANCH   1   9
BRANCH   1  14
ATOM     14  C   UNL     1       5.007  12.810   7.535  0.00  0.00    +0.000 C 
BRANCH  14  15
ATOM     15  C   UNL     1       5.105  11.372   8.100  0.00  0.00    +0.000 C 
ATOM     16  C   UNL     1       6.402  11.113   8.858  0.00  0.00    +0.000 C 
BRANCH  15  17
ATOM     17  O   UNL     1       4.016  11.072   8.971  0.00  0.00    +0.000 OA
ATOM     18  H   UNL     1       4.272  11.451   9.836  0.00  0.00    +0.000 HD
ENDBRANCH  15  17
ENDBRANCH  14  15
ENDBRANCH   1  14
TORSDOF 7
ENDMDL
MODEL 3
REMARK VINA RESULT:    -5.587      0.195      1.198
REMARK INTER + INTRA:          -7.974
REMARK INTER:                  -7.573
REMARK INTRA:                  -0.402
REMARK UNBOUND:                -0.428
REMARK  Name = 
REMARK  10 active torsions:
REMARK  status: ('A' for Active; 'I' for Inactive)
REMARK    1  A    between atoms: C_1  and  C_2
REMARK    2  A    between atoms: C_5  and  N_8
REMARK    3  A    between atoms: N_8  and  C_9
REMARK    4  A    between atoms: N_8  and  C_13
REMARK    5  A    between atoms: C_9  and  C_10
REMARK    6  A    between atoms: C_10  and  C_11
REMARK    7  A    between atoms: C_10  and  O_12
REMARK    8  A    between atoms: C_13  and  C_14
REMARK    9  A    between atoms: C_14  and  C_15
REMARK   10  A    between atoms: C_14  and  O_16
REMARK                            x       y       z     vdW  Elec       q    Type
REMARK                         _______ _______ _______ _____ _____    ______ ____
ROOT
ATOM      1  N   UNL     1       4.286  13.109   6.523  0.00  0.00    +0.000 N 
ENDROOT
BRANCH   1   6
ATOM      2  C   UNL     1       7.662  12.558   1.872  0.00  0.00    +0.000 C 
ATOM      3  C   UNL     1       6.771  12.717   3.066  0.00  0.00    +0.000 A 
ATOM      4  C   UNL     1       7.047  13.670   4.041  0.00  0.00    +0.000 A 
ATOM      5  C   UNL     1       6.226  13.794   5.174  0.00  0.00    +0.000 A 
ATOM      6  C   UNL     1       5.112  12.966   5.401  0.00  0.00    +0.000 A 
ATOM      7  C   UNL     1       4.862  12.016   4.394  0.00  0.00    +0.000 A 
ATOM      8  C   UNL     1       5.674  11.883   3.255  0.00  0.00    +0.000 A 
ENDBRANCH   1   6
BRANCH   1   9
ATOM      9  C   UNL     1       4.842  12.915   7.884  0.00  0.00    +0.000 C 
BRANCH   9  10
ATOM     10  C   UNL     1       5.105  11.427   8.219  0.00  0.00    +0.000 C 
ATOM     11  C   UNL     1       6.416  11.263   8.979  0.00  0.00    +0.000 C 
BRANCH  10  12
ATOM     12  O   UNL     1       4.052  10.887   9.029  0.00  0.00    +0.000 OA
ATOM     13  H   UNL     1       4.252   9.952   9.201  0.00  0.00    +0.000 HD
ENDBRANCH  10  12
ENDBRANCH   9  10
ENDBRANCH   1   9
BRANCH   1  14
ATOM     14  C   UNL     1       2.814  12.942   6.420  0.00  0.00    +0.000 C 
BRANCH  14  15
ATOM     15  C   UNL     1       2.062  13.680   7.553  0.00  0.00    +0.000 C 
ATOM     16  C   UNL     1       2.253  15.192   7.514  0.00  0.00    +0.000 C 
BRANCH  15  17
ATOM     17  O   UNL     1       0.661  13.411   7.519  0.00  0.00    +0.000 OA
ATOM     18  H   UNL     1       0.592  12.435   7.500  0.00  0.00    +0.000 HD
ENDBRANCH  15  17
ENDBRANCH  14  15
ENDBRANCH   1  14
TORSDOF 7
ENDMDL
MODEL 4
REMARK VINA RESULT:    -5.497      2.468      3.036
REMARK INTER + INTRA:          -7.853
REMARK INTER:                  -7.319
REMARK INTRA:                  -0.534
REMARK UNBOUND:                -0.428
REMARK  Name = 
REMARK  10 active torsions:
REMARK  status: ('A' for Active; 'I' for Inactive)
REMARK    1  A    between atoms: C_1  and  C_2
REMARK    2  A    between atoms: C_5  and  N_8
REMARK    3  A    between atoms: N_8  and  C_9
REMARK    4  A    between atoms: N_8  and  C_13
REMARK    5  A    between atoms: C_9  and  C_10
REMARK    6  A    between atoms: C_10  and  C_11
REMARK    7  A    between atoms: C_10  and  O_12
REMARK    8  A    between atoms: C_13  and  C_14
REMARK    9  A    between atoms: C_14  and  C_15
REMARK   10  A    between atoms: C_14  and  O_16
REMARK                            x       y       z     vdW  Elec       q    Type
REMARK                         _______ _______ _______ _____ _____    ______ ____
ROOT
ATOM      1  N   UNL     1       5.003  13.974   6.712  0.00  0.00    +0.000 N 
ENDROOT
BRANCH   1   6
ATOM      2  C   UNL     1       6.330  11.618   1.611  0.00  0.00    +0.000 C 
ATOM      3  C   UNL     1       5.967  12.241   2.924  0.00  0.00    +0.000 A 
ATOM      4  C   UNL     1       6.540  13.443   3.327  0.00  0.00    +0.000 A 
ATOM      5  C   UNL     1       6.218  14.007   4.572  0.00  0.00    +0.000 A 
ATOM      6  C   UNL     1       5.335  13.396   5.480  0.00  0.00    +0.000 A 
ATOM      7  C   UNL     1       4.773  12.184   5.038  0.00  0.00    +0.000 A 
ATOM      8  C   UNL     1       5.084  11.610   3.795  0.00  0.00    +0.000 A 
ENDBRANCH   1   6
BRANCH   1   9
ATOM      9  C   UNL     1       6.064  14.556   7.569  0.00  0.00    +0.000 C 
BRANCH   9  10
ATOM     10  C   UNL     1       6.044  16.104   7.581  0.00  0.00    +0.000 C 
ATOM     11  C   UNL     1       5.789  16.635   8.987  0.00  0.00    +0.000 C 
BRANCH  10  12
ATOM     12  O   UNL     1       7.294  16.639   7.124  0.00  0.00    +0.000 OA
ATOM     13  H   UNL     1       7.115  17.483   6.677  0.00  0.00    +0.000 HD
ENDBRANCH  10  12
ENDBRANCH   9  10
ENDBRANCH   1   9
BRANCH   1  14
ATOM     14  C   UNL     1       3.759  13.596   7.429  0.00  0.00    +0.000 C 
BRANCH  14  15
ATOM     15  C   UNL     1       2.570  14.517   7.061  0.00  0.00    +0.000 C 
ATOM     16  C   UNL     1       1.219  13.817   7.150  0.00  0.00    +0.000 C 
BRANCH  15  17
ATOM     17  O   UNL     1       2.523  15.675   7.894  0.00  0.00    +0.000 OA
ATOM     18  H   UNL     1       3.439  16.018   7.902  0.00  0.00    +0.000 HD
ENDBRANCH  15  17
ENDBRANCH  14  15
ENDBRANCH   1  14
TORSDOF 7
ENDMDL
MODEL 5
REMARK VINA RESULT:    -5.464      1.222      3.323
REMARK INTER + INTRA:          -7.807
REMARK INTER:                  -7.013
REMARK INTRA:                  -0.794
REMARK UNBOUND:                -0.428
REMARK  Name = 
REMARK  10 active torsions:
REMARK  status: ('A' for Active; 'I' for Inactive)
REMARK    1  A    between atoms: C_1  and  C_2
REMARK    2  A    between atoms: C_5  and  N_8
REMARK    3  A    between atoms: N_8  and  C_9
REMARK    4  A    between atoms: N_8  and  C_13
REMARK    5  A    between atoms: C_9  and  C_10
REMARK    6  A    between atoms: C_10  and  C_11
REMARK    7  A    between atoms: C_10  and  O_12
REMARK    8  A    between atoms: C_13  and  C_14
REMARK    9  A    between atoms: C_14  and  C_15
REMARK   10  A    between atoms: C_14  and  O_16
REMARK                            x       y       z     vdW  Elec       q    Type
REMARK                         _______ _______ _______ _____ _____    ______ ____
ROOT
ATOM      1  N   UNL     1       5.402  13.367   7.163  0.00  0.00    +0.000 N 
ENDROOT
BRANCH   1   6
ATOM      2  C   UNL     1       6.465  12.146   1.622  0.00  0.00    +0.000 C 
ATOM      3  C   UNL     1       6.204  12.444   3.067  0.00  0.00    +0.000 A 
ATOM      4  C   UNL     1       5.120  11.877   3.728  0.00  0.00    +0.000 A 
ATOM      5  C   UNL     1       4.863  12.184   5.075  0.00  0.00    +0.000 A 
ATOM      6  C   UNL     1       5.653  13.081   5.815  0.00  0.00    +0.000 A 
ATOM      7  C   UNL     1       6.741  13.633   5.115  0.00  0.00    +0.000 A 
ATOM      8  C   UNL     1       7.011  13.333   3.770  0.00  0.00    +0.000 A 
ENDBRANCH   1   6
BRANCH   1   9
ATOM      9  C   UNL     1       4.476  14.465   7.530  0.00  0.00    +0.000 C 
BRANCH   9  10
ATOM     10  C   UNL     1       3.066  13.956   7.918  0.00  0.00    +0.000 C 
ATOM     11  C   UNL     1       2.079  14.157   6.774  0.00  0.00    +0.000 C 
BRANCH  10  12
ATOM     12  O   UNL     1       3.094  12.559   8.240  0.00  0.00    +0.000 OA
ATOM     13  H   UNL     1       2.284  12.152   7.888  0.00  0.00    +0.000 HD
ENDBRANCH  10  12
ENDBRANCH   9  10
ENDBRANCH   1   9
BRANCH   1  14
ATOM     14  C   UNL     1       6.371  12.988   8.223  0.00  0.00    +0.000 C 
BRANCH  14  15
ATOM     15  C   UNL     1       6.561  11.455   8.319  0.00  0.00    +0.000 C 
ATOM     16  C   UNL     1       7.849  11.054   9.029  0.00  0.00    +0.000 C 
BRANCH  15  17
ATOM     17  O   UNL     1       5.471  10.830   8.995  0.00  0.00    +0.000 OA
ATOM     18  H   UNL     1       4.712  11.432   8.860  0.00  0.00    +0.000 HD
ENDBRANCH  15  17
ENDBRANCH  14  15
ENDBRANCH   1  14
TORSDOF 7
ENDMDL
MODEL 6
REMARK VINA RESULT:    -5.184      3.294      5.448
REMARK INTER + INTRA:          -7.430
REMARK INTER:                  -6.922
REMARK INTRA:                  -0.508
REMARK UNBOUND:                -0.428
REMARK  Name = 
REMARK  10 active torsions:
REMARK  status: ('A' for Active; 'I' for Inactive)
REMARK    1  A    between atoms: C_1  and  C_2
REMARK    2  A    between atoms: C_5  and  N_8
REMARK    3  A    between atoms: N_8  and  C_9
REMARK    4  A    between atoms: N_8  and  C_13
REMARK    5  A    between atoms: C_9  and  C_10
REMARK    6  A    between atoms: C_10  and  C_11
REMARK    7  A    between atoms: C_10  and  O_12
REMARK    8  A    between atoms: C_13  and  C_14
REMARK    9  A    between atoms: C_14  and  C_15
REMARK   10  A    between atoms: C_14  and  O_16
REMARK                            x       y       z     vdW  Elec       q    Type
REMARK                         _______ _______ _______ _____ _____    ______ ____
ROOT
ATOM      1  N   UNL     1       6.751  13.208   5.575  0.00  0.00    +0.000 N 
ENDROOT
BRANCH   1   6
ATOM      2  C   UNL     1       1.355  14.049   7.444  0.00  0.00    +0.000 C 
ATOM      3  C   UNL     1       2.751  13.848   6.941  0.00  0.00    +0.000 A 
ATOM      4  C   UNL     1       3.037  12.862   6.003  0.00  0.00    +0.000 A 
ATOM      5  C   UNL     1       4.353  12.657   5.557  0.00  0.00    +0.000 A 
ATOM      6  C   UNL     1       5.444  13.404   6.038  0.00  0.00    +0.000 A 
ATOM      7  C   UNL     1       5.118  14.394   6.983  0.00  0.00    +0.000 A 
ATOM      8  C   UNL     1       3.806  14.610   7.436  0.00  0.00    +0.000 A 
ENDBRANCH   1   6
BRANCH   1   9
ATOM      9  C   UNL     1       7.844  12.919   6.534  0.00  0.00    +0.000 C 
BRANCH   9  10
ATOM     10  C   UNL     1       9.205  13.508   6.089  0.00  0.00    +0.000 C 
ATOM     11  C   UNL     1       9.907  14.199   7.252  0.00  0.00    +0.000 C 
BRANCH  10  12
ATOM     12  O   UNL     1      10.074  12.480   5.594  0.00  0.00    +0.000 OA
ATOM     13  H   UNL     1      10.867  12.906   5.228  0.00  0.00    +0.000 HD
ENDBRANCH  10  12
ENDBRANCH   9  10
ENDBRANCH   1   9
BRANCH   1  14
ATOM     14  C   UNL     1       7.196  13.762   4.270  0.00  0.00    +0.000 C 
BRANCH  14  15
ATOM     15  C   UNL     1       7.070  12.730   3.124  0.00  0.00    +0.000 C 
ATOM     16  C   UNL     1       5.966  13.069   2.130  0.00  0.00    +0.000 C 
BRANCH  15  17
ATOM     17  O   UNL     1       8.292  12.595   2.399  0.00  0.00    +0.000 OA
ATOM     18  H   UNL     1       8.658  11.732   2.678  0.00  0.00    +0.000 HD
ENDBRANCH  15  17
ENDBRANCH  14  15
ENDBRANCH   1  14
TORSDOF 7
ENDMDL
MODEL 7
REMARK VINA RESULT:    -5.086      2.539      4.210
REMARK INTER + INTRA:          -7.297
REMARK INTER:                  -6.770
REMARK INTRA:                  -0.527
REMARK UNBOUND:                -0.428
REMARK  Name = 
REMARK  10 active torsions:
REMARK  status: ('A' for Active; 'I' for Inactive)
REMARK    1  A    between atoms: C_1  and  C_2
REMARK    2  A    between atoms: C_5  and  N_8
REMARK    3  A    between atoms: N_8  and  C_9
REMARK    4  A    between atoms: N_8  and  C_13
REMARK    5  A    between atoms: C_9  and  C_10
REMARK    6  A    between atoms: C_10  and  C_11
REMARK    7  A    between atoms: C_10  and  O_12
REMARK    8  A    between atoms: C_13  and  C_14
REMARK    9  A    between atoms: C_14  and  C_15
REMARK   10  A    between atoms: C_14  and  O_16
REMARK                            x       y       z     vdW  Elec       q    Type
REMARK                         _______ _______ _______ _____ _____    ______ ____
ROOT
ATOM      1  N   UNL     1       5.944  13.571   5.626  0.00  0.00    +0.000 N 
ENDROOT
BRANCH   1   6
ATOM      2  C   UNL     1      10.600  11.409   8.266  0.00  0.00    +0.000 C 
ATOM      3  C   UNL     1       9.394  11.990   7.595  0.00  0.00    +0.000 A 
ATOM      4  C   UNL     1       8.115  11.736   8.079  0.00  0.00    +0.000 A 
ATOM      5  C   UNL     1       6.986  12.259   7.428  0.00  0.00    +0.000 A 
ATOM      6  C   UNL     1       7.073  13.036   6.259  0.00  0.00    +0.000 A 
ATOM      7  C   UNL     1       8.381  13.275   5.799  0.00  0.00    +0.000 A 
ATOM      8  C   UNL     1       9.519  12.759   6.442  0.00  0.00    +0.000 A 
ENDBRANCH   1   6
BRANCH   1   9
ATOM      9  C   UNL     1       6.023  14.011   4.212  0.00  0.00    +0.000 C 
BRANCH   9  10
ATOM     10  C   UNL     1       5.836  12.845   3.210  0.00  0.00    +0.000 C 
ATOM     11  C   UNL     1       7.114  12.596   2.418  0.00  0.00    +0.000 C 
BRANCH  10  12
ATOM     12  O   UNL     1       5.491  11.631   3.891  0.00  0.00    +0.000 OA
ATOM     13  H   UNL     1       6.272  11.052   3.889  0.00  0.00    +0.000 HD
ENDBRANCH  10  12
ENDBRANCH   9  10
ENDBRANCH   1   9
BRANCH   1  14
ATOM     14  C   UNL     1       4.841  14.184   6.410  0.00  0.00    +0.000 C 
BRANCH  14  15
ATOM     15  C   UNL     1       3.762  13.149   6.808  0.00  0.00    +0.000 C 
ATOM     16  C   UNL     1       2.358  13.740   6.870  0.00  0.00    +0.000 C 
BRANCH  15  17
ATOM     17  O   UNL     1       3.735  12.042   5.907  0.00  0.00    +0.000 OA
ATOM     18  H   UNL     1       3.289  11.325   6.401  0.00  0.00    +0.000 HD
ENDBRANCH  15  17
ENDBRANCH  14  15
ENDBRANCH   1  14
TORSDOF 7
ENDMDL
MODEL 8
REMARK VINA RESULT:    -5.067      2.464      3.604
REMARK INTER + INTRA:          -7.272
REMARK INTER:                  -6.994
REMARK INTRA:                  -0.278
REMARK UNBOUND:                -0.428
REMARK  Name = 
REMARK  10 active torsions:
REMARK  status: ('A' for Active; 'I' for Inactive)
REMARK    1  A    between atoms: C_1  and  C_2
REMARK    2  A    between atoms: C_5  and  N_8
REMARK    3  A    between atoms: N_8  and  C_9
REMARK    4  A    between atoms: N_8  and  C_13
REMARK    5  A    between atoms: C_9  and  C_10
REMARK    6  A    between atoms: C_10  and  C_11
REMARK    7  A    between atoms: C_10  and  O_12
REMARK    8  A    between atoms: C_13  and  C_14
REMARK    9  A    between atoms: C_14  and  C_15
REMARK   10  A    between atoms: C_14  and  O_16
REMARK                            x       y       z     vdW  Elec       q    Type
REMARK                         _______ _______ _______ _____ _____    ______ ____
ROOT
ATOM      1  N   UNL     1       5.431  13.602   7.339  0.00  0.00    +0.000 N 
ENDROOT
BRANCH   1   6
ATOM      2  C   UNL     1       5.983  12.154   1.778  0.00  0.00    +0.000 C 
ATOM      3  C   UNL     1       5.819  12.543   3.215  0.00  0.00    +0.000 A 
ATOM      4  C   UNL     1       6.450  13.673   3.726  0.00  0.00    +0.000 A 
ATOM      5  C   UNL     1       6.317  14.016   5.081  0.00  0.00    +0.000 A 
ATOM      6  C   UNL     1       5.575  13.243   5.993  0.00  0.00    +0.000 A 
ATOM      7  C   UNL     1       4.950  12.110   5.442  0.00  0.00    +0.000 A 
ATOM      8  C   UNL     1       5.072  11.757   4.088  0.00  0.00    +0.000 A 
ENDBRANCH   1   6
BRANCH   1   9
ATOM      9  C   UNL     1       4.095  13.557   7.982  0.00  0.00    +0.000 C 
BRANCH   9  10
ATOM     10  C   UNL     1       3.066  14.488   7.294  0.00  0.00    +0.000 C 
ATOM     11  C   UNL     1       1.851  13.701   6.820  0.00  0.00    +0.000 C 
BRANCH  10  12
ATOM     12  O   UNL     1       2.612  15.507   8.195  0.00  0.00    +0.000 OA
ATOM     13  H   UNL     1       2.114  15.077   8.910  0.00  0.00    +0.000 HD
ENDBRANCH  10  12
ENDBRANCH   9  10
ENDBRANCH   1   9
BRANCH   1  14
ATOM     14  C   UNL     1       6.415  14.491   8.008  0.00  0.00    +0.000 C 
BRANCH  14  15
ATOM     15  C   UNL     1       6.129  15.988   7.737  0.00  0.00    +0.000 C 
ATOM     16  C   UNL     1       5.785  16.770   8.999  0.00  0.00    +0.000 C 
BRANCH  15  17
ATOM     17  O   UNL     1       7.237  16.630   7.107  0.00  0.00    +0.000 OA
ATOM     18  H   UNL     1       7.578  15.975   6.465  0.00  0.00    +0.000 HD
ENDBRANCH  15  17
ENDBRANCH  14  15
ENDBRANCH   1  14
TORSDOF 7
ENDMDL
MODEL 9
REMARK VINA RESULT:    -4.977      1.983      2.380
REMARK INTER + INTRA:          -7.150
REMARK INTER:                  -6.561
REMARK INTRA:                  -0.589
REMARK UNBOUND:                -0.428
REMARK  Name = 
REMARK  10 active torsions:
REMARK  status: ('A' for Active; 'I' for Inactive)
REMARK    1  A    between atoms: C_1  and  C_2
REMARK    2  A    between atoms: C_5  and  N_8
REMARK    3  A    between atoms: N_8  and  C_9
REMARK    4  A    between atoms: N_8  and  C_13
REMARK    5  A    between atoms: C_9  and  C_10
REMARK    6  A    between atoms: C_10  and  C_11
REMARK    7  A    between atoms: C_10  and  O_12
REMARK    8  A    between atoms: C_13  and  C_14
REMARK    9  A    between atoms: C_14  and  C_15
REMARK   10  A    between atoms: C_14  and  O_16
REMARK                            x       y       z     vdW  Elec       q    Type
REMARK                         _______ _______ _______ _____ _____    ______ ____
ROOT
ATOM      1  N   UNL     1       5.798  13.016   6.664  0.00  0.00    +0.000 N 
ENDROOT
BRANCH   1   6
ATOM      2  C   UNL     1       5.775  12.856   0.893  0.00  0.00    +0.000 C 
ATOM      3  C   UNL     1       5.805  12.888   2.391  0.00  0.00    +0.000 A 
ATOM      4  C   UNL     1       5.352  11.806   3.138  0.00  0.00    +0.000 A 
ATOM      5  C   UNL     1       5.354  11.854   4.541  0.00  0.00    +0.000 A 
ATOM      6  C   UNL     1       5.781  12.982   5.264  0.00  0.00    +0.000 A 
ATOM      7  C   UNL     1       6.233  14.057   4.477  0.00  0.00    +0.000 A 
ATOM      8  C   UNL     1       6.239  14.021   3.072  0.00  0.00    +0.000 A 
ENDBRANCH   1   6
BRANCH   1   9
ATOM      9  C   UNL     1       7.006  13.488   7.382  0.00  0.00    +0.000 C 
BRANCH   9  10
ATOM     10  C   UNL     1       8.170  12.467   7.334  0.00  0.00    +0.000 C 
ATOM     11  C   UNL     1       9.339  13.011   6.520  0.00  0.00    +0.000 C 
BRANCH  10  12
ATOM     12  O   UNL     1       8.647  12.169   8.653  0.00  0.00    +0.000 OA
ATOM     13  H   UNL     1       9.596  12.376   8.684  0.00  0.00    +0.000 HD
ENDBRANCH  10  12
ENDBRANCH   9  10
ENDBRANCH   1   9
BRANCH   1  14
ATOM     14  C   UNL     1       4.895  12.150   7.465  0.00  0.00    +0.000 C 
BRANCH  14  15
ATOM     15  C   UNL     1       3.692  12.936   8.042  0.00  0.00    +0.000 C 
ATOM     16  C   UNL     1       2.689  13.364   6.977  0.00  0.00    +0.000 C 
BRANCH  15  17
ATOM     17  O   UNL     1       2.993  12.179   9.029  0.00  0.00    +0.000 OA
ATOM     18  H   UNL     1       2.266  12.763   9.326  0.00  0.00    +0.000 HD
ENDBRANCH  15  17
ENDBRANCH  14  15
ENDBRANCH   1  14
TORSDOF 7
ENDMDL
