MODEL 1
REMARK VINA RESULT:    -4.003      0.000      0.000
REMARK INTER + INTRA:          -4.403
REMARK INTER:                  -4.354
REMARK INTRA:                  -0.050
REMARK UNBOUND:                -0.050
REMARK  Name = 
REMARK  3 active torsions:
REMARK  status: ('A' for Active; 'I' for Inactive)
REMARK    1  A    between atoms: C_1  and  O_2
REMARK    2  A    between atoms: O_2  and  C_3
REMARK    3  A    between atoms: C_8  and  O_9
REMARK                            x       y       z     vdW  Elec       q    Type
REMARK                         _______ _______ _______ _____ _____    ______ ____
ROOT
ATOM      1  C   UNL     1      11.770   4.208   6.958  0.00  0.00    +0.000 A 
ATOM      2  C   UNL     1      10.877   4.630   7.941  0.00  0.00    +0.000 A 
ATOM      3  C   UNL     1      11.266   5.604   8.869  0.00  0.00    +0.000 A 
ATOM      4  C   UNL     1      12.546   6.159   8.818  0.00  0.00    +0.000 A 
ATOM      5  C   UNL     1      13.444   5.743   7.838  0.00  0.00    +0.000 A 
ATOM      6  C   UNL     1      13.050   4.776   6.922  0.00  0.00    +0.000 A 
ENDROOT
BRANCH   1   8
ATOM      7  C   UNL     1      10.638   3.646   4.946  0.00  0.00    +0.000 C 
ATOM      8  O   UNL     1      11.527   3.267   5.990  0.00  0.00    +0.000 OA
ENDBRANCH   1   8
BRANCH   6   9
ATOM      9  O   UNL     1      13.951   4.383   5.968  0.00  0.00    +0.000 OA
ATOM     10  H   UNL     1      13.801   4.992   5.220  0.00  0.00    +0.000 HD
ENDBRANCH   6   9
TORSDOF 2
ENDMDL
MODEL 2
REMARK VINA RESULT:    -3.908      1.363      2.879
REMARK INTER + INTRA:          -4.301
REMARK INTER:                  -4.254
REMARK INTRA:                  -0.047
REMARK UNBOUND:                -0.050
REMARK  Name = 
REMARK  3 active torsions:
REMARK  status: ('A' for Active; 'I' for Inactive)
REMARK    1  A    between atoms: C_1  and  O_2
REMARK    2  A    between atoms: O_2  and  C_3
REMARK    3  A    between atoms: C_8  and  O_9
REMARK                            x       y       z     vdW  Elec       q    Type
REMARK                         _______ _______ _______ _____ _____    ______ ____
ROOT
ATOM      1  C   UNL     1      13.214   5.737   6.974  0.00  0.00    +0.000 A 
ATOM      2  C   UNL     1      13.037   6.154   8.292  0.00  0.00    +0.000 A 
ATOM      3  C   UNL     1      11.929   5.710   9.024  0.00  0.00    +0.000 A 
ATOM      4  C   UNL     1      10.995   4.850   8.442  0.00  0.00    +0.000 A 
ATOM      5  C   UNL     1      11.166   4.428   7.126  0.00  0.00    +0.000 A 
ATOM      6  C   UNL     1      12.268   4.875   6.407  0.00  0.00    +0.000 A 
ENDROOT
BRANCH   1   8
ATOM      7  C   UNL     1      14.580   7.474   6.100  0.00  0.00    +0.000 C 
ATOM      8  O   UNL     1      14.246   6.092   6.143  0.00  0.00    +0.000 OA
ENDBRANCH   1   8
BRANCH   6   9
ATOM      9  O   UNL     1      12.413   4.447   5.115  0.00  0.00    +0.000 OA
ATOM     10  H   UNL     1      13.217   4.897   4.793  0.00  0.00    +0.000 HD
ENDBRANCH   6   9
TORSDOF 2
ENDMDL
MODEL 3
REMARK VINA RESULT:    -3.899      2.015      3.461
REMARK INTER + INTRA:          -4.291
REMARK INTER:                  -4.251
REMARK INTRA:                  -0.039
REMARK UNBOUND:                -0.050
REMARK  Name = 
REMARK  3 active torsions:
REMARK  status: ('A' for Active; 'I' for Inactive)
REMARK    1  A    between atoms: C_1  and  O_2
REMARK    2  A    between atoms: O_2  and  C_3
REMARK    3  A    between atoms: C_8  and  O_9
REMARK                            x       y       z     vdW  Elec       q    Type
REMARK                         _______ _______ _______ _____ _____    ______ ____
ROOT
ATOM      1  C   UNL     1      13.432   5.950   6.748  0.00  0.00    +0.000 A 
ATOM      2  C   UNL     1      14.371   5.231   7.485  0.00  0.00    +0.000 A 
ATOM      3  C   UNL     1      13.966   4.133   8.254  0.00  0.00    +0.000 A 
ATOM      4  C   UNL     1      12.624   3.750   8.289  0.00  0.00    +0.000 A 
ATOM      5  C   UNL     1      11.679   4.463   7.555  0.00  0.00    +0.000 A 
ATOM      6  C   UNL     1      12.090   5.551   6.796  0.00  0.00    +0.000 A 
ENDROOT
BRANCH   1   8
ATOM      7  C   UNL     1      14.855   7.789   6.261  0.00  0.00    +0.000 C 
ATOM      8  O   UNL     1      13.684   7.041   5.956  0.00  0.00    +0.000 OA
ENDBRANCH   1   8
BRANCH   6   9
ATOM      9  O   UNL     1      11.143   6.236   6.082  0.00  0.00    +0.000 OA
ATOM     10  H   UNL     1      10.310   5.754   6.247  0.00  0.00    +0.000 HD
ENDBRANCH   6   9
TORSDOF 2
ENDMDL
MODEL 4
REMARK VINA RESULT:    -3.732      2.227      3.310
REMARK INTER + INTRA:          -4.109
REMARK INTER:                  -4.064
REMARK INTRA:                  -0.045
REMARK UNBOUND:                -0.050
REMARK  Name = 
REMARK  3 active torsions:
REMARK  status: ('A' for Active; 'I' for Inactive)
REMARK    1  A    between atoms: C_1  and  O_2
REMARK    2  A    between atoms: O_2  and  C_3
REMARK    3  A    between atoms: C_8  and  O_9
REMARK                            x       y       z     vdW  Elec       q    Type
REMARK                         _______ _______ _______ _____ _____    ______ ____
ROOT
ATOM      1  C   UNL     1      14.294   5.653   6.795  0.00  0.00    +0.000 A 
ATOM      2  C   UNL     1      14.941   5.111   7.904  0.00  0.00    +0.000 A 
ATOM      3  C   UNL     1      15.809   5.904   8.665  0.00  0.00    +0.000 A 
ATOM      4  C   UNL     1      16.034   7.238   8.321  0.00  0.00    +0.000 A 
ATOM      5  C   UNL     1      15.390   7.788   7.215  0.00  0.00    +0.000 A 
ATOM      6  C   UNL     1      14.531   6.993   6.465  0.00  0.00    +0.000 A 
ENDROOT
BRANCH   1   8
ATOM      7  C   UNL     1      12.485   4.126   6.584  0.00  0.00    +0.000 C 
ATOM      8  O   UNL     1      13.423   4.997   5.963  0.00  0.00    +0.000 OA
ENDBRANCH   1   8
BRANCH   6   9
ATOM      9  O   UNL     1      13.911   7.556   5.382  0.00  0.00    +0.000 OA
ATOM     10  H   UNL     1      13.216   8.127   5.762  0.00  0.00    +0.000 HD
ENDBRANCH   6   9
TORSDOF 2
ENDMDL
MODEL 5
REMARK VINA RESULT:    -3.732      1.941      2.597
REMARK INTER + INTRA:          -4.108
REMARK INTER:                  -4.075
REMARK INTRA:                  -0.034
REMARK UNBOUND:                -0.050
REMARK  Name = 
REMARK  3 active torsions:
REMARK  status: ('A' for Active; 'I' for Inactive)
REMARK    1  A    between atoms: C_1  and  O_2
REMARK    2  A    between atoms: O_2  and  C_3
REMARK    3  A    between atoms: C_8  and  O_9
REMARK                            x       y       z     vdW  Elec       q    Type
REMARK                         _______ _______ _______ _____ _____    ______ ____
ROOT
ATOM      1  C   UNL     1      11.781   4.336   7.774  0.00  0.00    +0.000 A 
ATOM      2  C   UNL     1      12.363   3.326   8.539  0.00  0.00    +0.000 A 
ATOM      3  C   UNL     1      12.126   3.267   9.918  0.00  0.00    +0.000 A 
ATOM      4  C   UNL     1      11.309   4.214  10.536  0.00  0.00    +0.000 A 
ATOM      5  C   UNL     1      10.723   5.227   9.780  0.00  0.00    +0.000 A 
ATOM      6  C   UNL     1      10.964   5.278   8.413  0.00  0.00    +0.000 A 
ENDROOT
BRANCH   1   8
ATOM      7  C   UNL     1      11.170   3.652   5.582  0.00  0.00    +0.000 C 
ATOM      8  O   UNL     1      11.926   4.516   6.422  0.00  0.00    +0.000 OA
ENDBRANCH   1   8
BRANCH   6   9
ATOM      9  O   UNL     1      10.377   6.282   7.690  0.00  0.00    +0.000 OA
ATOM     10  H   UNL     1      10.704   7.106   8.099  0.00  0.00    +0.000 HD
ENDBRANCH   6   9
TORSDOF 2
ENDMDL
MODEL 6
REMARK VINA RESULT:    -3.723      1.880      2.657
REMARK INTER + INTRA:          -4.099
REMARK INTER:                  -4.048
REMARK INTRA:                  -0.052
REMARK UNBOUND:                -0.050
REMARK  Name = 
REMARK  3 active torsions:
REMARK  status: ('A' for Active; 'I' for Inactive)
REMARK    1  A    between atoms: C_1  and  O_2
REMARK    2  A    between atoms: O_2  and  C_3
REMARK    3  A    between atoms: C_8  and  O_9
REMARK                            x       y       z     vdW  Elec       q    Type
REMARK                         _______ _______ _______ _____ _____    ______ ____
ROOT
ATOM      1  C   UNL     1      13.053   5.160   7.191  0.00  0.00    +0.000 A 
ATOM      2  C   UNL     1      11.803   5.778   7.220  0.00  0.00    +0.000 A 
ATOM      3  C   UNL     1      10.856   5.398   8.180  0.00  0.00    +0.000 A 
ATOM      4  C   UNL     1      11.154   4.401   9.111  0.00  0.00    +0.000 A 
ATOM      5  C   UNL     1      12.400   3.779   9.088  0.00  0.00    +0.000 A 
ATOM      6  C   UNL     1      13.333   4.163   8.133  0.00  0.00    +0.000 A 
ENDROOT
BRANCH   1   8
ATOM      7  C   UNL     1      14.568   6.763   6.307  0.00  0.00    +0.000 C 
ATOM      8  O   UNL     1      14.071   5.430   6.312  0.00  0.00    +0.000 OA
ENDBRANCH   1   8
BRANCH   6   9
ATOM      9  O   UNL     1      14.551   3.537   8.131  0.00  0.00    +0.000 OA
ATOM     10  H   UNL     1      14.593   3.077   7.271  0.00  0.00    +0.000 HD
ENDBRANCH   6   9
TORSDOF 2
ENDMDL
MODEL 7
REMARK VINA RESULT:    -3.670      1.164      3.063
REMARK INTER + INTRA:          -4.042
REMARK INTER:                  -3.992
REMARK INTRA:                  -0.050
REMARK UNBOUND:                -0.050
REMARK  Name = 
REMARK  3 active torsions:
REMARK  status: ('A' for Active; 'I' for Inactive)
REMARK    1  A    between atoms: C_1  and  O_2
REMARK    2  A    between atoms: O_2  and  C_3
REMARK    3  A    between atoms: C_8  and  O_9
REMARK                            x       y       z     vdW  Elec       q    Type
REMARK                         _______ _______ _______ _____ _____    ______ ____
ROOT
ATOM      1  C   UNL     1      13.521   5.651   7.864  0.00  0.00    +0.000 A 
ATOM      2  C   UNL     1      12.660   6.084   8.872  0.00  0.00    +0.000 A 
ATOM      3  C   UNL     1      11.324   5.663   8.879  0.00  0.00    +0.000 A 
ATOM      4  C   UNL     1      10.845   4.811   7.882  0.00  0.00    +0.000 A 
ATOM      5  C   UNL     1      11.700   4.374   6.872  0.00  0.00    +0.000 A 
ATOM      6  C   UNL     1      13.023   4.797   6.873  0.00  0.00    +0.000 A 
ENDROOT
BRANCH   1   8
ATOM      7  C   UNL     1      15.130   7.319   7.340  0.00  0.00    +0.000 C 
ATOM      8  O   UNL     1      14.846   5.982   7.733  0.00  0.00    +0.000 OA
ENDBRANCH   1   8
BRANCH   6   9
ATOM      9  O   UNL     1      13.844   4.354   5.870  0.00  0.00    +0.000 OA
ATOM     10  H   UNL     1      13.417   4.657   5.047  0.00  0.00    +0.000 HD
ENDBRANCH   6   9
TORSDOF 2
ENDMDL
MODEL 8
REMARK VINA RESULT:    -3.651      2.474      3.539
REMARK INTER + INTRA:          -4.021
REMARK INTER:                  -3.982
REMARK INTRA:                  -0.039
REMARK UNBOUND:                -0.050
REMARK  Name = 
REMARK  3 active torsions:
REMARK  status: ('A' for Active; 'I' for Inactive)
REMARK    1  A    between atoms: C_1  and  O_2
REMARK    2  A    between atoms: O_2  and  C_3
REMARK    3  A    between atoms: C_8  and  O_9
REMARK                            x       y       z     vdW  Elec       q    Type
REMARK                         _______ _______ _______ _____ _____    ______ ____
ROOT
ATOM      1  C   UNL     1      14.275   6.404   7.200  0.00  0.00    +0.000 A 
ATOM      2  C   UNL     1      14.416   6.963   8.469  0.00  0.00    +0.000 A 
ATOM      3  C   UNL     1      14.303   6.153   9.607  0.00  0.00    +0.000 A 
ATOM      4  C   UNL     1      14.049   4.786   9.480  0.00  0.00    +0.000 A 
ATOM      5  C   UNL     1      13.908   4.221   8.215  0.00  0.00    +0.000 A 
ATOM      6  C   UNL     1      14.021   5.031   7.092  0.00  0.00    +0.000 A 
ENDROOT
BRANCH   1   8
ATOM      7  C   UNL     1      15.047   8.319   6.023  0.00  0.00    +0.000 C 
ATOM      8  O   UNL     1      14.359   7.074   6.005  0.00  0.00    +0.000 OA
ENDBRANCH   1   8
BRANCH   6   9
ATOM      9  O   UNL     1      13.878   4.453   5.860  0.00  0.00    +0.000 OA
ATOM     10  H   UNL     1      13.854   3.493   6.037  0.00  0.00    +0.000 HD
ENDBRANCH   6   9
TORSDOF 2
ENDMDL
MODEL 9
REMARK VINA RESULT:    -3.626      1.223      2.288
REMARK INTER + INTRA:          -3.994
REMARK INTER:                  -3.942
REMARK INTRA:                  -0.051
REMARK UNBOUND:                -0.050
REMARK  Name = 
REMARK  3 active torsions:
REMARK  status: ('A' for Active; 'I' for Inactive)
REMARK    1  A    between atoms: C_1  and  O_2
REMARK    2  A    between atoms: O_2  and  C_3
REMARK    3  A    between atoms: C_8  and  O_9
REMARK                            x       y       z     vdW  Elec       q    Type
REMARK                         _______ _______ _______ _____ _____    ______ ____
ROOT
ATOM      1  C   UNL     1      12.095   4.409   6.720  0.00  0.00    +0.000 A 
ATOM      2  C   UNL     1      13.337   4.731   6.174  0.00  0.00    +0.000 A 
ATOM      3  C   UNL     1      14.150   5.686   6.798  0.00  0.00    +0.000 A 
ATOM      4  C   UNL     1      13.725   6.322   7.966  0.00  0.00    +0.000 A 
ATOM      5  C   UNL     1      12.486   6.005   8.518  0.00  0.00    +0.000 A 
ATOM      6  C   UNL     1      11.687   5.057   7.892  0.00  0.00    +0.000 A 
ENDROOT
BRANCH   1   8
ATOM      7  C   UNL     1      10.751   3.719   4.886  0.00  0.00    +0.000 C 
ATOM      8  O   UNL     1      11.200   3.499   6.218  0.00  0.00    +0.000 OA
ENDBRANCH   1   8
BRANCH   6   9
ATOM      9  O   UNL     1      10.473   4.763   8.453  0.00  0.00    +0.000 OA
ATOM     10  H   UNL     1      10.491   5.197   9.327  0.00  0.00    +0.000 HD
ENDBRANCH   6   9
TORSDOF 2
ENDMDL
