MODEL 1
REMARK VINA RESULT:    -3.837      0.000      0.000
REMARK INTER + INTRA:          -5.788
REMARK INTER:                  -5.183
REMARK INTRA:                  -0.605
REMARK UNBOUND:                -0.605
REMARK  Name = 
REMARK  10 active torsions:
REMARK  status: ('A' for Active; 'I' for Inactive)
REMARK    1  A    between atoms: C_1  and  C_2
REMARK    2  A    between atoms: C_5  and  N_8
REMARK    3  A    between atoms: N_8  and  C_9
REMARK    4  A    between atoms: N_8  and  C_13
REMARK    5  A    between atoms: C_9  and  C_10
REMARK    6  A    between atoms: C_10  and  C_11
REMARK    7  A    between atoms: C_10  and  O_12
REMARK    8  A    between atoms: C_13  and  C_14
REMARK    9  A    between atoms: C_14  and  C_15
REMARK   10  A    between atoms: C_14  and  O_16
REMARK                            x       y       z     vdW  Elec       q    Type
REMARK                         _______ _______ _______ _____ _____    ______ ____
ROOT
ATOM      1  N   UNL     1       3.373  21.172 -16.073  0.00  0.00    +0.000 N 
ENDROOT
BRANCH   1   6
ATOM      2  C   UNL     1      -1.830  22.453 -13.925  0.00  0.00    +0.000 C 
ATOM      3  C   UNL     1      -0.491  22.103 -14.497  0.00  0.00    +0.000 A 
ATOM      4  C   UNL     1       0.331  21.172 -13.872  0.00  0.00    +0.000 A 
ATOM      5  C   UNL     1       1.599  20.869 -14.395  0.00  0.00    +0.000 A 
ATOM      6  C   UNL     1       2.116  21.493 -15.546  0.00  0.00    +0.000 A 
ATOM      7  C   UNL     1       1.257  22.428 -16.152  0.00  0.00    +0.000 A 
ATOM      8  C   UNL     1      -0.014  22.738 -15.640  0.00  0.00    +0.000 A 
ENDBRANCH   1   6
BRANCH   1   9
ATOM      9  C   UNL     1       4.586  21.289 -15.229  0.00  0.00    +0.000 C 
BRANCH   9  10
ATOM     10  C   UNL     1       5.876  20.860 -15.969  0.00  0.00    +0.000 C 
ATOM     11  C   UNL     1       7.108  21.479 -15.320  0.00  0.00    +0.000 C 
BRANCH  10  12
ATOM     12  O   UNL     1       6.032  19.434 -15.947  0.00  0.00    +0.000 OA
ATOM     13  H   UNL     1       6.374  19.182 -15.074  0.00  0.00    +0.000 HD
ENDBRANCH  10  12
ENDBRANCH   9  10
ENDBRANCH   1   9
BRANCH   1  14
ATOM     14  C   UNL     1       3.625  21.212 -17.537  0.00  0.00    +0.000 C 
BRANCH  14  15
ATOM     15  C   UNL     1       3.044  19.975 -18.264  0.00  0.00    +0.000 C 
ATOM     16  C   UNL     1       3.547  19.830 -19.695  0.00  0.00    +0.000 C 
BRANCH  15  17
ATOM     17  O   UNL     1       3.342  18.766 -17.567  0.00  0.00    +0.000 OA
ATOM     18  H   UNL     1       3.786  18.197 -18.227  0.00  0.00    +0.000 HD
ENDBRANCH  15  17
ENDBRANCH  14  15
ENDBRANCH   1  14
TORSDOF 7
ENDMDL
MODEL 2
REMARK VINA RESULT:    -3.717     20.138     21.497
REMARK INTER + INTRA:          -5.626
REMARK INTER:                  -5.013
REMARK INTRA:                  -0.613
REMARK UNBOUND:                -0.605
REMARK  Name = 
REMARK  10 active torsions:
REMARK  status: ('A' for Active; 'I' for Inactive)
REMARK    1  A    between atoms: C_1  and  C_2
REMARK    2  A    between atoms: C_5  and  N_8
REMARK    3  A    between atoms: N_8  and  C_9
REMARK    4  A    between atoms: N_8  and  C_13
REMARK    5  A    between atoms: C_9  and  C_10
REMARK    6  A    between atoms: C_10  and  C_11
REMARK    7  A    between atoms: C_10  and  O_12
REMARK    8  A    between atoms: C_13  and  C_14
REMARK    9  A    between atoms: C_14  and  C_15
REMARK   10  A    between atoms: C_14  and  O_16
REMARK                            x       y       z     vdW  Elec       q    Type
REMARK                         _______ _______ _______ _____ _____    ______ ____
ROOT
ATOM      1  N   UNL     1     -10.858   4.249 -17.021  0.00  0.00    +0.000 N 
ENDROOT
BRANCH   1   6
ATOM      2  C   UNL     1     -11.090   9.736 -18.802  0.00  0.00    +0.000 C 
ATOM      3  C   UNL     1     -11.020   8.320 -18.318  0.00  0.00    +0.000 A 
ATOM      4  C   UNL     1      -9.910   7.527 -18.589  0.00  0.00    +0.000 A 
ATOM      5  C   UNL     1      -9.863   6.191 -18.159  0.00  0.00    +0.000 A 
ATOM      6  C   UNL     1     -10.920   5.577 -17.464  0.00  0.00    +0.000 A 
ATOM      7  C   UNL     1     -12.025   6.409 -17.206  0.00  0.00    +0.000 A 
ATOM      8  C   UNL     1     -12.084   7.747 -17.628  0.00  0.00    +0.000 A 
ENDBRANCH   1   6
BRANCH   1   9
ATOM      9  C   UNL     1     -10.279   3.201 -17.895  0.00  0.00    +0.000 C 
BRANCH   9  10
ATOM     10  C   UNL     1     -10.151   1.831 -17.184  0.00  0.00    +0.000 C 
ATOM     11  C   UNL     1      -9.941   0.710 -18.195  0.00  0.00    +0.000 C 
BRANCH  10  12
ATOM     12  O   UNL     1      -9.040   1.824 -16.276  0.00  0.00    +0.000 OA
ATOM     13  H   UNL     1      -9.092   2.627 -15.731  0.00  0.00    +0.000 HD
ENDBRANCH  10  12
ENDBRANCH   9  10
ENDBRANCH   1   9
BRANCH   1  14
ATOM     14  C   UNL     1     -11.776   3.747 -15.967  0.00  0.00    +0.000 C 
BRANCH  14  15
ATOM     15  C   UNL     1     -11.233   4.018 -14.543  0.00  0.00    +0.000 C 
ATOM     16  C   UNL     1     -11.575   2.912 -13.551  0.00  0.00    +0.000 C 
BRANCH  15  17
ATOM     17  O   UNL     1      -9.817   4.189 -14.542  0.00  0.00    +0.000 OA
ATOM     18  H   UNL     1      -9.620   4.672 -15.370  0.00  0.00    +0.000 HD
ENDBRANCH  15  17
ENDBRANCH  14  15
ENDBRANCH   1  14
TORSDOF 7
ENDMDL
MODEL 3
REMARK VINA RESULT:    -3.499     19.617     21.138
REMARK INTER + INTRA:          -5.331
REMARK INTER:                  -4.676
REMARK INTRA:                  -0.655
REMARK UNBOUND:                -0.605
REMARK  Name = 
REMARK  10 active torsions:
REMARK  status: ('A' for Active; 'I' for Inactive)
REMARK    1  A    between atoms: C_1  and  C_2
REMARK    2  A    between atoms: C_5  and  N_8
REMARK    3  A    between atoms: N_8  and  C_9
REMARK    4  A    between atoms: N_8  and  C_13
REMARK    5  A    between atoms: C_9  and  C_10
REMARK    6  A    between atoms: C_10  and  C_11
REMARK    7  A    between atoms: C_10  and  O_12
REMARK    8  A    between atoms: C_13  and  C_14
REMARK    9  A    between atoms: C_14  and  C_15
REMARK   10  A    between atoms: C_14  and  O_16
REMARK                            x       y       z     vdW  Elec       q    Type
REMARK                         _______ _______ _______ _____ _____    ______ ____
ROOT
ATOM      1  N   UNL     1     -11.316   5.860 -17.563  0.00  0.00    +0.000 N 
ENDROOT
BRANCH   1   6
ATOM      2  C   UNL     1      -7.995   1.649 -19.700  0.00  0.00    +0.000 C 
ATOM      3  C   UNL     1      -8.874   2.736 -19.162  0.00  0.00    +0.000 A 
ATOM      4  C   UNL     1      -8.771   4.039 -19.638  0.00  0.00    +0.000 A 
ATOM      5  C   UNL     1      -9.577   5.060 -19.109  0.00  0.00    +0.000 A 
ATOM      6  C   UNL     1     -10.502   4.841 -18.072  0.00  0.00    +0.000 A 
ATOM      7  C   UNL     1     -10.580   3.512 -17.617  0.00  0.00    +0.000 A 
ATOM      8  C   UNL     1      -9.782   2.480 -18.139  0.00  0.00    +0.000 A 
ENDBRANCH   1   6
BRANCH   1   9
ATOM      9  C   UNL     1     -11.850   5.765 -16.183  0.00  0.00    +0.000 C 
BRANCH   9  10
ATOM     10  C   UNL     1     -10.815   6.182 -15.109  0.00  0.00    +0.000 C 
ATOM     11  C   UNL     1     -10.396   4.986 -14.263  0.00  0.00    +0.000 C 
BRANCH  10  12
ATOM     12  O   UNL     1      -9.637   6.732 -15.715  0.00  0.00    +0.000 OA
ATOM     13  H   UNL     1      -8.991   6.014 -15.823  0.00  0.00    +0.000 HD
ENDBRANCH  10  12
ENDBRANCH   9  10
ENDBRANCH   1   9
BRANCH   1  14
ATOM     14  C   UNL     1     -12.078   6.760 -18.467  0.00  0.00    +0.000 C 
BRANCH  14  15
ATOM     15  C   UNL     1     -11.488   8.190 -18.500  0.00  0.00    +0.000 C 
ATOM     16  C   UNL     1     -12.382   9.222 -17.821  0.00  0.00    +0.000 C 
BRANCH  15  17
ATOM     17  O   UNL     1     -10.203   8.245 -17.883  0.00  0.00    +0.000 OA
ATOM     18  H   UNL     1      -9.573   7.996 -18.589  0.00  0.00    +0.000 HD
ENDBRANCH  15  17
ENDBRANCH  14  15
ENDBRANCH   1  14
TORSDOF 7
ENDMDL
MODEL 4
REMARK VINA RESULT:    -3.365      1.276      5.432
REMARK INTER + INTRA:          -5.150
REMARK INTER:                  -4.510
REMARK INTRA:                  -0.640
REMARK UNBOUND:                -0.605
REMARK  Name = 
REMARK  10 active torsions:
REMARK  status: ('A' for Active; 'I' for Inactive)
REMARK    1  A    between atoms: C_1  and  C_2
REMARK    2  A    between atoms: C_5  and  N_8
REMARK    3  A    between atoms: N_8  and  C_9
REMARK    4  A    between atoms: N_8  and  C_13
REMARK    5  A    between atoms: C_9  and  C_10
REMARK    6  A    between atoms: C_10  and  C_11
REMARK    7  A    between atoms: C_10  and  O_12
REMARK    8  A    between atoms: C_13  and  C_14
REMARK    9  A    between atoms: C_14  and  C_15
REMARK   10  A    between atoms: C_14  and  O_16
REMARK                            x       y       z     vdW  Elec       q    Type
REMARK                         _______ _______ _______ _____ _____    ______ ____
ROOT
ATOM      1  N   UNL     1       3.807  21.669 -16.572  0.00  0.00    +0.000 N 
ENDROOT
BRANCH   1   6
ATOM      2  C   UNL     1       8.951  21.722 -13.952  0.00  0.00    +0.000 C 
ATOM      3  C   UNL     1       7.623  21.728 -14.646  0.00  0.00    +0.000 A 
ATOM      4  C   UNL     1       6.547  22.438 -14.123  0.00  0.00    +0.000 A 
ATOM      5  C   UNL     1       5.297  22.415 -14.762  0.00  0.00    +0.000 A 
ATOM      6  C   UNL     1       5.051  21.671 -15.930  0.00  0.00    +0.000 A 
ATOM      7  C   UNL     1       6.162  20.967 -16.431  0.00  0.00    +0.000 A 
ATOM      8  C   UNL     1       7.418  20.982 -15.803  0.00  0.00    +0.000 A 
ENDBRANCH   1   6
BRANCH   1   9
ATOM      9  C   UNL     1       3.725  21.439 -18.035  0.00  0.00    +0.000 C 
BRANCH   9  10
ATOM     10  C   UNL     1       2.981  20.130 -18.396  0.00  0.00    +0.000 C 
ATOM     11  C   UNL     1       3.281  19.711 -19.830  0.00  0.00    +0.000 C 
BRANCH  10  12
ATOM     12  O   UNL     1       3.374  19.058 -17.528  0.00  0.00    +0.000 OA
ATOM     13  H   UNL     1       3.347  19.385 -16.614  0.00  0.00    +0.000 HD
ENDBRANCH  10  12
ENDBRANCH   9  10
ENDBRANCH   1   9
BRANCH   1  14
ATOM     14  C   UNL     1       2.637  22.370 -15.984  0.00  0.00    +0.000 C 
BRANCH  14  15
ATOM     15  C   UNL     1       1.924  21.516 -14.908  0.00  0.00    +0.000 C 
ATOM     16  C   UNL     1       0.463  21.902 -14.708  0.00  0.00    +0.000 C 
BRANCH  15  17
ATOM     17  O   UNL     1       1.975  20.125 -15.220  0.00  0.00    +0.000 OA
ATOM     18  H   UNL     1       1.241  19.725 -14.711  0.00  0.00    +0.000 HD
ENDBRANCH  15  17
ENDBRANCH  14  15
ENDBRANCH   1  14
TORSDOF 7
ENDMDL
MODEL 5
REMARK VINA RESULT:    -3.280      4.918      7.791
REMARK INTER + INTRA:          -5.036
REMARK INTER:                  -4.611
REMARK INTRA:                  -0.425
REMARK UNBOUND:                -0.605
REMARK  Name = 
REMARK  10 active torsions:
REMARK  status: ('A' for Active; 'I' for Inactive)
REMARK    1  A    between atoms: C_1  and  C_2
REMARK    2  A    between atoms: C_5  and  N_8
REMARK    3  A    between atoms: N_8  and  C_9
REMARK    4  A    between atoms: N_8  and  C_13
REMARK    5  A    between atoms: C_9  and  C_10
REMARK    6  A    between atoms: C_10  and  C_11
REMARK    7  A    between atoms: C_10  and  O_12
REMARK    8  A    between atoms: C_13  and  C_14
REMARK    9  A    between atoms: C_14  and  C_15
REMARK   10  A    between atoms: C_14  and  O_16
REMARK                            x       y       z     vdW  Elec       q    Type
REMARK                         _______ _______ _______ _____ _____    ______ ____
ROOT
ATOM      1  N   UNL     1      -3.894  21.590 -15.453  0.00  0.00    +0.000 N 
ENDROOT
BRANCH   1   6
ATOM      2  C   UNL     1      -8.778  21.944 -12.395  0.00  0.00    +0.000 C 
ATOM      3  C   UNL     1      -7.515  21.875 -13.198  0.00  0.00    +0.000 A 
ATOM      4  C   UNL     1      -7.509  21.320 -14.473  0.00  0.00    +0.000 A 
ATOM      5  C   UNL     1      -6.316  21.231 -15.209  0.00  0.00    +0.000 A 
ATOM      6  C   UNL     1      -5.077  21.664 -14.706  0.00  0.00    +0.000 A 
ATOM      7  C   UNL     1      -5.121  22.221 -13.414  0.00  0.00    +0.000 A 
ATOM      8  C   UNL     1      -6.307  22.318 -12.668  0.00  0.00    +0.000 A 
ENDBRANCH   1   6
BRANCH   1   9
ATOM      9  C   UNL     1      -3.418  20.281 -15.963  0.00  0.00    +0.000 C 
BRANCH   9  10
ATOM     10  C   UNL     1      -3.274  20.255 -17.504  0.00  0.00    +0.000 C 
ATOM     11  C   UNL     1      -4.134  21.334 -18.151  0.00  0.00    +0.000 C 
BRANCH  10  12
ATOM     12  O   UNL     1      -1.912  20.478 -17.897  0.00  0.00    +0.000 OA
ATOM     13  H   UNL     1      -1.798  20.133 -18.798  0.00  0.00    +0.000 HD
ENDBRANCH  10  12
ENDBRANCH   9  10
ENDBRANCH   1   9
BRANCH   1  14
ATOM     14  C   UNL     1      -2.844  22.634 -15.337  0.00  0.00    +0.000 C 
BRANCH  14  15
ATOM     15  C   UNL     1      -1.608  22.134 -14.551  0.00  0.00    +0.000 C 
ATOM     16  C   UNL     1      -0.298  22.332 -15.306  0.00  0.00    +0.000 C 
BRANCH  15  17
ATOM     17  O   UNL     1      -1.490  22.781 -13.285  0.00  0.00    +0.000 OA
ATOM     18  H   UNL     1      -0.611  23.210 -13.301  0.00  0.00    +0.000 HD
ENDBRANCH  15  17
ENDBRANCH  14  15
ENDBRANCH   1  14
TORSDOF 7
ENDMDL
MODEL 6
REMARK VINA RESULT:    -3.232      7.847     10.838
REMARK INTER + INTRA:          -4.971
REMARK INTER:                  -4.598
REMARK INTRA:                  -0.373
REMARK UNBOUND:                -0.605
REMARK  Name = 
REMARK  10 active torsions:
REMARK  status: ('A' for Active; 'I' for Inactive)
REMARK    1  A    between atoms: C_1  and  C_2
REMARK    2  A    between atoms: C_5  and  N_8
REMARK    3  A    between atoms: N_8  and  C_9
REMARK    4  A    between atoms: N_8  and  C_13
REMARK    5  A    between atoms: C_9  and  C_10
REMARK    6  A    between atoms: C_10  and  C_11
REMARK    7  A    between atoms: C_10  and  O_12
REMARK    8  A    between atoms: C_13  and  C_14
REMARK    9  A    between atoms: C_14  and  C_15
REMARK   10  A    between atoms: C_14  and  O_16
REMARK                            x       y       z     vdW  Elec       q    Type
REMARK                         _______ _______ _______ _____ _____    ______ ____
ROOT
ATOM      1  N   UNL     1      -6.758  21.854 -13.695  0.00  0.00    +0.000 N 
ENDROOT
BRANCH   1   6
ATOM      2  C   UNL     1      -3.148  20.279 -17.916  0.00  0.00    +0.000 C 
ATOM      3  C   UNL     1      -4.087  20.710 -16.831  0.00  0.00    +0.000 A 
ATOM      4  C   UNL     1      -3.607  21.261 -15.648  0.00  0.00    +0.000 A 
ATOM      5  C   UNL     1      -4.489  21.636 -14.622  0.00  0.00    +0.000 A 
ATOM      6  C   UNL     1      -5.882  21.460 -14.714  0.00  0.00    +0.000 A 
ATOM      7  C   UNL     1      -6.333  20.902 -15.925  0.00  0.00    +0.000 A 
ATOM      8  C   UNL     1      -5.461  20.525 -16.960  0.00  0.00    +0.000 A 
ENDBRANCH   1   6
BRANCH   1   9
ATOM      9  C   UNL     1      -7.969  22.645 -14.020  0.00  0.00    +0.000 C 
BRANCH   9  10
ATOM     10  C   UNL     1      -9.277  21.961 -13.553  0.00  0.00    +0.000 C 
ATOM     11  C   UNL     1      -9.457  20.608 -14.231  0.00  0.00    +0.000 C 
BRANCH  10  12
ATOM     12  O   UNL     1      -9.268  21.749 -12.134  0.00  0.00    +0.000 OA
ATOM     13  H   UNL     1     -10.154  21.452 -11.868  0.00  0.00    +0.000 HD
ENDBRANCH  10  12
ENDBRANCH   9  10
ENDBRANCH   1   9
BRANCH   1  14
ATOM     14  C   UNL     1      -6.299  21.966 -12.287  0.00  0.00    +0.000 C 
BRANCH  14  15
ATOM     15  C   UNL     1      -6.122  20.581 -11.618  0.00  0.00    +0.000 C 
ATOM     16  C   UNL     1      -5.965  20.662 -10.104  0.00  0.00    +0.000 C 
BRANCH  15  17
ATOM     17  O   UNL     1      -7.220  19.715 -11.902  0.00  0.00    +0.000 OA
ATOM     18  H   UNL     1      -7.333  19.177 -11.093  0.00  0.00    +0.000 HD
ENDBRANCH  15  17
ENDBRANCH  14  15
ENDBRANCH   1  14
TORSDOF 7
ENDMDL
MODEL 7
REMARK VINA RESULT:    -3.169      4.982      7.466
REMARK INTER + INTRA:          -4.886
REMARK INTER:                  -4.425
REMARK INTRA:                  -0.461
REMARK UNBOUND:                -0.605
REMARK  Name = 
REMARK  10 active torsions:
REMARK  status: ('A' for Active; 'I' for Inactive)
REMARK    1  A    between atoms: C_1  and  C_2
REMARK    2  A    between atoms: C_5  and  N_8
REMARK    3  A    between atoms: N_8  and  C_9
REMARK    4  A    between atoms: N_8  and  C_13
REMARK    5  A    between atoms: C_9  and  C_10
REMARK    6  A    between atoms: C_10  and  C_11
REMARK    7  A    between atoms: C_10  and  O_12
REMARK    8  A    between atoms: C_13  and  C_14
REMARK    9  A    between atoms: C_14  and  C_15
REMARK   10  A    between atoms: C_14  and  O_16
REMARK                            x       y       z     vdW  Elec       q    Type
REMARK                         _______ _______ _______ _____ _____    ______ ____
ROOT
ATOM      1  N   UNL     1      -3.911  21.899 -15.132  0.00  0.00    +0.000 N 
ENDROOT
BRANCH   1   6
ATOM      2  C   UNL     1      -8.960  21.648 -12.345  0.00  0.00    +0.000 C 
ATOM      3  C   UNL     1      -7.654  21.737 -13.073  0.00  0.00    +0.000 A 
ATOM      4  C   UNL     1      -7.570  21.438 -14.429  0.00  0.00    +0.000 A 
ATOM      5  C   UNL     1      -6.338  21.495 -15.100  0.00  0.00    +0.000 A 
ATOM      6  C   UNL     1      -5.133  21.826 -14.453  0.00  0.00    +0.000 A 
ATOM      7  C   UNL     1      -5.256  22.124 -13.083  0.00  0.00    +0.000 A 
ATOM      8  C   UNL     1      -6.483  22.074 -12.401  0.00  0.00    +0.000 A 
ENDBRANCH   1   6
BRANCH   1   9
ATOM      9  C   UNL     1      -2.831  22.782 -14.627  0.00  0.00    +0.000 C 
BRANCH   9  10
ATOM     10  C   UNL     1      -1.565  21.998 -14.203  0.00  0.00    +0.000 C 
ATOM     11  C   UNL     1      -0.470  22.121 -15.255  0.00  0.00    +0.000 C 
BRANCH  10  12
ATOM     12  O   UNL     1      -1.045  22.493 -12.961  0.00  0.00    +0.000 OA
ATOM     13  H   UNL     1      -1.425  21.960 -12.242  0.00  0.00    +0.000 HD
ENDBRANCH  10  12
ENDBRANCH   9  10
ENDBRANCH   1   9
BRANCH   1  14
ATOM     14  C   UNL     1      -3.809  21.551 -16.572  0.00  0.00    +0.000 C 
BRANCH  14  15
ATOM     15  C   UNL     1      -3.169  20.159 -16.793  0.00  0.00    +0.000 C 
ATOM     16  C   UNL     1      -4.189  19.027 -16.816  0.00  0.00    +0.000 C 
BRANCH  15  17
ATOM     17  O   UNL     1      -2.425  20.108 -18.009  0.00  0.00    +0.000 OA
ATOM     18  H   UNL     1      -1.668  20.713 -17.868  0.00  0.00    +0.000 HD
ENDBRANCH  15  17
ENDBRANCH  14  15
ENDBRANCH   1  14
TORSDOF 7
ENDMDL
MODEL 8
REMARK VINA RESULT:    -3.133      5.101      8.110
REMARK INTER + INTRA:          -4.837
REMARK INTER:                  -4.153
REMARK INTRA:                  -0.684
REMARK UNBOUND:                -0.605
REMARK  Name = 
REMARK  10 active torsions:
REMARK  status: ('A' for Active; 'I' for Inactive)
REMARK    1  A    between atoms: C_1  and  C_2
REMARK    2  A    between atoms: C_5  and  N_8
REMARK    3  A    between atoms: N_8  and  C_9
REMARK    4  A    between atoms: N_8  and  C_13
REMARK    5  A    between atoms: C_9  and  C_10
REMARK    6  A    between atoms: C_10  and  C_11
REMARK    7  A    between atoms: C_10  and  O_12
REMARK    8  A    between atoms: C_13  and  C_14
REMARK    9  A    between atoms: C_14  and  C_15
REMARK   10  A    between atoms: C_14  and  O_16
REMARK                            x       y       z     vdW  Elec       q    Type
REMARK                         _______ _______ _______ _____ _____    ______ ____
ROOT
ATOM      1  N   UNL     1      -4.132  21.966 -15.695  0.00  0.00    +0.000 N 
ENDROOT
BRANCH   1   6
ATOM      2  C   UNL     1      -8.641  21.632 -12.106  0.00  0.00    +0.000 C 
ATOM      3  C   UNL     1      -7.466  21.695 -13.032  0.00  0.00    +0.000 A 
ATOM      4  C   UNL     1      -6.226  22.136 -12.583  0.00  0.00    +0.000 A 
ATOM      5  C   UNL     1      -5.134  22.222 -13.463  0.00  0.00    +0.000 A 
ATOM      6  C   UNL     1      -5.230  21.897 -14.828  0.00  0.00    +0.000 A 
ATOM      7  C   UNL     1      -6.497  21.452 -15.247  0.00  0.00    +0.000 A 
ATOM      8  C   UNL     1      -7.596  21.360 -14.377  0.00  0.00    +0.000 A 
ENDBRANCH   1   6
BRANCH   1   9
ATOM      9  C   UNL     1      -4.260  22.656 -17.002  0.00  0.00    +0.000 C 
BRANCH   9  10
ATOM     10  C   UNL     1      -4.439  21.672 -18.184  0.00  0.00    +0.000 C 
ATOM     11  C   UNL     1      -5.624  22.077 -19.054  0.00  0.00    +0.000 C 
BRANCH  10  12
ATOM     12  O   UNL     1      -3.269  21.644 -19.013  0.00  0.00    +0.000 OA
ATOM     13  H   UNL     1      -2.642  21.010 -18.628  0.00  0.00    +0.000 HD
ENDBRANCH  10  12
ENDBRANCH   9  10
ENDBRANCH   1   9
BRANCH   1  14
ATOM     14  C   UNL     1      -3.026  20.977 -15.617  0.00  0.00    +0.000 C 
BRANCH  14  15
ATOM     15  C   UNL     1      -1.637  21.642 -15.769  0.00  0.00    +0.000 C 
ATOM     16  C   UNL     1      -0.695  21.335 -14.610  0.00  0.00    +0.000 C 
BRANCH  15  17
ATOM     17  O   UNL     1      -0.993  21.245 -16.979  0.00  0.00    +0.000 OA
ATOM     18  H   UNL     1      -1.715  20.930 -17.558  0.00  0.00    +0.000 HD
ENDBRANCH  15  17
ENDBRANCH  14  15
ENDBRANCH   1  14
TORSDOF 7
ENDMDL
MODEL 9
REMARK VINA RESULT:    -1.210     20.597     22.045
REMARK INTER + INTRA:          -2.239
REMARK INTER:                  -1.805
REMARK INTRA:                  -0.434
REMARK UNBOUND:                -0.605
REMARK  Name = 
REMARK  10 active torsions:
REMARK  status: ('A' for Active; 'I' for Inactive)
REMARK    1  A    between atoms: C_1  and  C_2
REMARK    2  A    between atoms: C_5  and  N_8
REMARK    3  A    between atoms: N_8  and  C_9
REMARK    4  A    between atoms: N_8  and  C_13
REMARK    5  A    between atoms: C_9  and  C_10
REMARK    6  A    between atoms: C_10  and  C_11
REMARK    7  A    between atoms: C_10  and  O_12
REMARK    8  A    between atoms: C_13  and  C_14
REMARK    9  A    between atoms: C_14  and  C_15
REMARK   10  A    between atoms: C_14  and  O_16
REMARK                            x       y       z     vdW  Elec       q    Type
REMARK                         _______ _______ _______ _____ _____    ______ ____
ROOT
ATOM      1  N   UNL     1     -11.193   4.448 -16.357  0.00  0.00    +0.000 N 
ENDROOT
BRANCH   1   6
ATOM      2  C   UNL     1      -8.299   0.657 -19.609  0.00  0.00    +0.000 C 
ATOM      3  C   UNL     1      -9.028   1.651 -18.758  0.00  0.00    +0.000 A 
ATOM      4  C   UNL     1      -9.370   1.351 -17.443  0.00  0.00    +0.000 A 
ATOM      5  C   UNL     1     -10.080   2.275 -16.659  0.00  0.00    +0.000 A 
ATOM      6  C   UNL     1     -10.502   3.524 -17.150  0.00  0.00    +0.000 A 
ATOM      7  C   UNL     1     -10.138   3.794 -18.482  0.00  0.00    +0.000 A 
ATOM      8  C   UNL     1      -9.426   2.880 -19.276  0.00  0.00    +0.000 A 
ENDBRANCH   1   6
BRANCH   1   9
ATOM      9  C   UNL     1     -11.871   4.003 -15.116  0.00  0.00    +0.000 C 
BRANCH   9  10
ATOM     10  C   UNL     1     -11.333   4.713 -13.850  0.00  0.00    +0.000 C 
ATOM     11  C   UNL     1     -11.618   3.889 -12.600  0.00  0.00    +0.000 C 
BRANCH  10  12
ATOM     12  O   UNL     1      -9.915   4.913 -13.936  0.00  0.00    +0.000 OA
ATOM     13  H   UNL     1      -9.733   5.853 -13.775  0.00  0.00    +0.000 HD
ENDBRANCH  10  12
ENDBRANCH   9  10
ENDBRANCH   1   9
BRANCH   1  14
ATOM     14  C   UNL     1     -11.710   5.718 -16.929  0.00  0.00    +0.000 C 
BRANCH  14  15
ATOM     15  C   UNL     1     -10.570   6.690 -17.319  0.00  0.00    +0.000 C 
ATOM     16  C   UNL     1     -11.074   7.984 -17.946  0.00  0.00    +0.000 C 
BRANCH  15  17
ATOM     17  O   UNL     1      -9.759   7.029 -16.196  0.00  0.00    +0.000 OA
ATOM     18  H   UNL     1      -9.103   7.667 -16.541  0.00  0.00    +0.000 HD
ENDBRANCH  15  17
ENDBRANCH  14  15
ENDBRANCH   1  14
TORSDOF 7
ENDMDL
