MODEL 1
REMARK VINA RESULT:    -5.018      0.000      0.000
REMARK INTER + INTRA:          -5.496
REMARK INTER:                  -5.458
REMARK INTRA:                  -0.038
REMARK UNBOUND:                -0.038
REMARK  Name = 
REMARK  3 active torsions:
REMARK  status: ('A' for Active; 'I' for Inactive)
REMARK    1  A    between atoms: C_1  and  O_2
REMARK    2  A    between atoms: O_2  and  C_3
REMARK    3  A    between atoms: C_8  and  O_9
REMARK                            x       y       z     vdW  Elec       q    Type
REMARK                         _______ _______ _______ _____ _____    ______ ____
ROOT
ATOM      1  C   UNL     1       6.771  12.787   2.440  0.00  0.00    +0.000 A 
ATOM      2  C   UNL     1       6.817  13.526   3.621  0.00  0.00    +0.000 A 
ATOM      3  C   UNL     1       6.002  13.169   4.702  0.00  0.00    +0.000 A 
ATOM      4  C   UNL     1       5.140  12.075   4.608  0.00  0.00    +0.000 A 
ATOM      5  C   UNL     1       5.088  11.331   3.432  0.00  0.00    +0.000 A 
ATOM      6  C   UNL     1       5.900  11.693   2.364  0.00  0.00    +0.000 A 
ENDROOT
BRANCH   1   8
ATOM      7  C   UNL     1       8.874  12.627   1.345  0.00  0.00    +0.000 C 
ATOM      8  O   UNL     1       7.507  13.021   1.306  0.00  0.00    +0.000 OA
ENDBRANCH   1   8
BRANCH   6   9
ATOM      9  O   UNL     1       5.831  10.946   1.218  0.00  0.00    +0.000 OA
ATOM     10  H   UNL     1       6.417  10.183   1.383  0.00  0.00    +0.000 HD
ENDBRANCH   6   9
TORSDOF 2
ENDMDL
MODEL 2
REMARK VINA RESULT:    -4.698      1.075      1.298
REMARK INTER + INTRA:          -5.148
REMARK INTER:                  -5.109
REMARK INTRA:                  -0.039
REMARK UNBOUND:                -0.038
REMARK  Name = 
REMARK  3 active torsions:
REMARK  status: ('A' for Active; 'I' for Inactive)
REMARK    1  A    between atoms: C_1  and  O_2
REMARK    2  A    between atoms: O_2  and  C_3
REMARK    3  A    between atoms: C_8  and  O_9
REMARK                            x       y       z     vdW  Elec       q    Type
REMARK                         _______ _______ _______ _____ _____    ______ ____
ROOT
ATOM      1  C   UNL     1       6.301  12.404   2.997  0.00  0.00    +0.000 A 
ATOM      2  C   UNL     1       6.668  13.614   3.584  0.00  0.00    +0.000 A 
ATOM      3  C   UNL     1       6.092  14.006   4.799  0.00  0.00    +0.000 A 
ATOM      4  C   UNL     1       5.147  13.193   5.429  0.00  0.00    +0.000 A 
ATOM      5  C   UNL     1       4.775  11.983   4.848  0.00  0.00    +0.000 A 
ATOM      6  C   UNL     1       5.352  11.602   3.643  0.00  0.00    +0.000 A 
ENDROOT
BRANCH   1   8
ATOM      7  C   UNL     1       8.056  12.366   1.396  0.00  0.00    +0.000 C 
ATOM      8  O   UNL     1       6.780  11.898   1.816  0.00  0.00    +0.000 OA
ENDBRANCH   1   8
BRANCH   6   9
ATOM      9  O   UNL     1       4.970  10.408   3.092  0.00  0.00    +0.000 OA
ATOM     10  H   UNL     1       5.555   9.745   3.506  0.00  0.00    +0.000 HD
ENDBRANCH   6   9
TORSDOF 2
ENDMDL
MODEL 3
REMARK VINA RESULT:    -4.662      1.974      3.395
REMARK INTER + INTRA:          -5.109
REMARK INTER:                  -5.060
REMARK INTRA:                  -0.049
REMARK UNBOUND:                -0.038
REMARK  Name = 
REMARK  3 active torsions:
REMARK  status: ('A' for Active; 'I' for Inactive)
REMARK    1  A    between atoms: C_1  and  O_2
REMARK    2  A    between atoms: O_2  and  C_3
REMARK    3  A    between atoms: C_8  and  O_9
REMARK                            x       y       z     vdW  Elec       q    Type
REMARK                         _______ _______ _______ _____ _____    ______ ____
ROOT
ATOM      1  C   UNL     1       5.399  12.383   4.250  0.00  0.00    +0.000 A 
ATOM      2  C   UNL     1       5.832  13.696   4.068  0.00  0.00    +0.000 A 
ATOM      3  C   UNL     1       6.245  14.127   2.801  0.00  0.00    +0.000 A 
ATOM      4  C   UNL     1       6.229  13.249   1.715  0.00  0.00    +0.000 A 
ATOM      5  C   UNL     1       5.797  11.936   1.889  0.00  0.00    +0.000 A 
ATOM      6  C   UNL     1       5.390  11.518   3.149  0.00  0.00    +0.000 A 
ENDROOT
BRANCH   1   8
ATOM      7  C   UNL     1       3.964  12.542   6.138  0.00  0.00    +0.000 C 
ATOM      8  O   UNL     1       4.969  11.827   5.429  0.00  0.00    +0.000 OA
ENDBRANCH   1   8
BRANCH   6   9
ATOM      9  O   UNL     1       4.970  10.223   3.296  0.00  0.00    +0.000 OA
ATOM     10  H   UNL     1       5.696   9.779   3.775  0.00  0.00    +0.000 HD
ENDBRANCH   6   9
TORSDOF 2
ENDMDL
MODEL 4
REMARK VINA RESULT:    -4.285      2.390      3.348
REMARK INTER + INTRA:          -4.699
REMARK INTER:                  -4.650
REMARK INTRA:                  -0.050
REMARK UNBOUND:                -0.038
REMARK  Name = 
REMARK  3 active torsions:
REMARK  status: ('A' for Active; 'I' for Inactive)
REMARK    1  A    between atoms: C_1  and  O_2
REMARK    2  A    between atoms: O_2  and  C_3
REMARK    3  A    between atoms: C_8  and  O_9
REMARK                            x       y       z     vdW  Elec       q    Type
REMARK                         _______ _______ _______ _____ _____    ______ ____
ROOT
ATOM      1  C   UNL     1       5.860  13.349   4.541  0.00  0.00    +0.000 A 
ATOM      2  C   UNL     1       6.621  13.726   3.435  0.00  0.00    +0.000 A 
ATOM      3  C   UNL     1       6.652  12.910   2.297  0.00  0.00    +0.000 A 
ATOM      4  C   UNL     1       5.926  11.718   2.260  0.00  0.00    +0.000 A 
ATOM      5  C   UNL     1       5.163  11.335   3.361  0.00  0.00    +0.000 A 
ATOM      6  C   UNL     1       5.138  12.151   4.486  0.00  0.00    +0.000 A 
ENDROOT
BRANCH   1   8
ATOM      7  C   UNL     1       6.949  14.390   6.379  0.00  0.00    +0.000 C 
ATOM      8  O   UNL     1       5.738  14.046   5.716  0.00  0.00    +0.000 OA
ENDBRANCH   1   8
BRANCH   6   9
ATOM      9  O   UNL     1       4.382  11.754   5.556  0.00  0.00    +0.000 OA
ATOM     10  H   UNL     1       3.865  12.544   5.802  0.00  0.00    +0.000 HD
ENDBRANCH   6   9
TORSDOF 2
ENDMDL
MODEL 5
REMARK VINA RESULT:    -4.211      2.333      4.069
REMARK INTER + INTRA:          -4.619
REMARK INTER:                  -4.568
REMARK INTRA:                  -0.051
REMARK UNBOUND:                -0.038
REMARK  Name = 
REMARK  3 active torsions:
REMARK  status: ('A' for Active; 'I' for Inactive)
REMARK    1  A    between atoms: C_1  and  O_2
REMARK    2  A    between atoms: O_2  and  C_3
REMARK    3  A    between atoms: C_8  and  O_9
REMARK                            x       y       z     vdW  Elec       q    Type
REMARK                         _______ _______ _______ _____ _____    ______ ____
ROOT
ATOM      1  C   UNL     1       5.494  12.529   4.583  0.00  0.00    +0.000 A 
ATOM      2  C   UNL     1       5.108  11.496   3.729  0.00  0.00    +0.000 A 
ATOM      3  C   UNL     1       5.655  11.411   2.443  0.00  0.00    +0.000 A 
ATOM      4  C   UNL     1       6.586  12.355   2.005  0.00  0.00    +0.000 A 
ATOM      5  C   UNL     1       6.976  13.390   2.852  0.00  0.00    +0.000 A 
ATOM      6  C   UNL     1       6.428  13.467   4.127  0.00  0.00    +0.000 A 
ENDROOT
BRANCH   1   8
ATOM      7  C   UNL     1       3.636  12.883   6.022  0.00  0.00    +0.000 C 
ATOM      8  O   UNL     1       5.042  12.735   5.862  0.00  0.00    +0.000 OA
ENDBRANCH   1   8
BRANCH   6   9
ATOM      9  O   UNL     1       6.827  14.493   4.941  0.00  0.00    +0.000 OA
ATOM     10  H   UNL     1       7.048  14.064   5.790  0.00  0.00    +0.000 HD
ENDBRANCH   6   9
TORSDOF 2
ENDMDL
MODEL 6
REMARK VINA RESULT:    -4.060      3.175      4.253
REMARK INTER + INTRA:          -4.454
REMARK INTER:                  -4.402
REMARK INTRA:                  -0.052
REMARK UNBOUND:                -0.038
REMARK  Name = 
REMARK  3 active torsions:
REMARK  status: ('A' for Active; 'I' for Inactive)
REMARK    1  A    between atoms: C_1  and  O_2
REMARK    2  A    between atoms: O_2  and  C_3
REMARK    3  A    between atoms: C_8  and  O_9
REMARK                            x       y       z     vdW  Elec       q    Type
REMARK                         _______ _______ _______ _____ _____    ______ ____
ROOT
ATOM      1  C   UNL     1       5.417  13.580   5.909  0.00  0.00    +0.000 A 
ATOM      2  C   UNL     1       6.500  14.037   5.158  0.00  0.00    +0.000 A 
ATOM      3  C   UNL     1       6.819  13.417   3.943  0.00  0.00    +0.000 A 
ATOM      4  C   UNL     1       6.061  12.342   3.476  0.00  0.00    +0.000 A 
ATOM      5  C   UNL     1       4.978  11.881   4.220  0.00  0.00    +0.000 A 
ATOM      6  C   UNL     1       4.669  12.501   5.424  0.00  0.00    +0.000 A 
ENDROOT
BRANCH   1   8
ATOM      7  C   UNL     1       5.852  13.884   8.225  0.00  0.00    +0.000 C 
ATOM      8  O   UNL     1       4.992  14.088   7.110  0.00  0.00    +0.000 OA
ENDBRANCH   1   8
BRANCH   6   9
ATOM      9  O   UNL     1       3.599  12.030   6.138  0.00  0.00    +0.000 OA
ATOM     10  H   UNL     1       3.768  11.073   6.236  0.00  0.00    +0.000 HD
ENDBRANCH   6   9
TORSDOF 2
ENDMDL
MODEL 7
REMARK VINA RESULT:    -4.037     12.149     12.989
REMARK INTER + INTRA:          -4.429
REMARK INTER:                  -4.392
REMARK INTRA:                  -0.037
REMARK UNBOUND:                -0.038
REMARK  Name = 
REMARK  3 active torsions:
REMARK  status: ('A' for Active; 'I' for Inactive)
REMARK    1  A    between atoms: C_1  and  O_2
REMARK    2  A    between atoms: O_2  and  C_3
REMARK    3  A    between atoms: C_8  and  O_9
REMARK                            x       y       z     vdW  Elec       q    Type
REMARK                         _______ _______ _______ _____ _____    ______ ____
ROOT
ATOM      1  C   UNL     1       8.025   1.790   8.824  0.00  0.00    +0.000 A 
ATOM      2  C   UNL     1       9.381   1.468   8.851  0.00  0.00    +0.000 A 
ATOM      3  C   UNL     1       9.785   0.131   8.744  0.00  0.00    +0.000 A 
ATOM      4  C   UNL     1       8.838  -0.886   8.609  0.00  0.00    +0.000 A 
ATOM      5  C   UNL     1       7.481  -0.572   8.581  0.00  0.00    +0.000 A 
ATOM      6  C   UNL     1       7.090   0.756   8.689  0.00  0.00    +0.000 A 
ENDROOT
BRANCH   1   8
ATOM      7  C   UNL     1       8.411   4.125   9.029  0.00  0.00    +0.000 C 
ATOM      8  O   UNL     1       7.488   3.049   8.920  0.00  0.00    +0.000 OA
ENDBRANCH   1   8
BRANCH   6   9
ATOM      9  O   UNL     1       5.750   1.040   8.658  0.00  0.00    +0.000 OA
ATOM     10  H   UNL     1       5.676   1.829   8.089  0.00  0.00    +0.000 HD
ENDBRANCH   6   9
TORSDOF 2
ENDMDL
MODEL 8
REMARK VINA RESULT:    -4.036      4.318      5.279
REMARK INTER + INTRA:          -4.428
REMARK INTER:                  -4.377
REMARK INTRA:                  -0.052
REMARK UNBOUND:                -0.038
REMARK  Name = 
REMARK  3 active torsions:
REMARK  status: ('A' for Active; 'I' for Inactive)
REMARK    1  A    between atoms: C_1  and  O_2
REMARK    2  A    between atoms: O_2  and  C_3
REMARK    3  A    between atoms: C_8  and  O_9
REMARK                            x       y       z     vdW  Elec       q    Type
REMARK                         _______ _______ _______ _____ _____    ______ ____
ROOT
ATOM      1  C   UNL     1       4.467  13.908   7.097  0.00  0.00    +0.000 A 
ATOM      2  C   UNL     1       4.238  15.093   7.794  0.00  0.00    +0.000 A 
ATOM      3  C   UNL     1       2.926  15.531   8.018  0.00  0.00    +0.000 A 
ATOM      4  C   UNL     1       1.842  14.788   7.545  0.00  0.00    +0.000 A 
ATOM      5  C   UNL     1       2.063  13.603   6.848  0.00  0.00    +0.000 A 
ATOM      6  C   UNL     1       3.367  13.177   6.631  0.00  0.00    +0.000 A 
ENDROOT
BRANCH   1   8
ATOM      7  C   UNL     1       6.486  14.058   5.853  0.00  0.00    +0.000 C 
ATOM      8  O   UNL     1       5.691  13.362   6.806  0.00  0.00    +0.000 OA
ENDBRANCH   1   8
BRANCH   6   9
ATOM      9  O   UNL     1       3.559  12.009   5.942  0.00  0.00    +0.000 OA
ATOM     10  H   UNL     1       3.076  11.335   6.457  0.00  0.00    +0.000 HD
ENDBRANCH   6   9
TORSDOF 2
ENDMDL
MODEL 9
REMARK VINA RESULT:    -3.937      5.621      6.627
REMARK INTER + INTRA:          -4.320
REMARK INTER:                  -4.276
REMARK INTRA:                  -0.045
REMARK UNBOUND:                -0.038
REMARK  Name = 
REMARK  3 active torsions:
REMARK  status: ('A' for Active; 'I' for Inactive)
REMARK    1  A    between atoms: C_1  and  O_2
REMARK    2  A    between atoms: O_2  and  C_3
REMARK    3  A    between atoms: C_8  and  O_9
REMARK                            x       y       z     vdW  Elec       q    Type
REMARK                         _______ _______ _______ _____ _____    ______ ____
ROOT
ATOM      1  C   UNL     1       4.512  15.138   7.853  0.00  0.00    +0.000 A 
ATOM      2  C   UNL     1       4.791  14.151   6.909  0.00  0.00    +0.000 A 
ATOM      3  C   UNL     1       3.744  13.509   6.236  0.00  0.00    +0.000 A 
ATOM      4  C   UNL     1       2.416  13.851   6.504  0.00  0.00    +0.000 A 
ATOM      5  C   UNL     1       2.129  14.836   7.445  0.00  0.00    +0.000 A 
ATOM      6  C   UNL     1       3.174  15.467   8.108  0.00  0.00    +0.000 A 
ENDROOT
BRANCH   1   8
ATOM      7  C   UNL     1       6.596  16.279   7.890  0.00  0.00    +0.000 C 
ATOM      8  O   UNL     1       5.432  15.845   8.584  0.00  0.00    +0.000 OA
ENDBRANCH   1   8
BRANCH   6   9
ATOM      9  O   UNL     1       2.867  16.433   9.029  0.00  0.00    +0.000 OA
ATOM     10  H   UNL     1       3.643  16.468   9.620  0.00  0.00    +0.000 HD
ENDBRANCH   6   9
TORSDOF 2
ENDMDL
