MODEL 1
REMARK VINA RESULT:    -5.009      0.000      0.000
REMARK INTER + INTRA:          -5.484
REMARK INTER:                  -5.448
REMARK INTRA:                  -0.036
REMARK UNBOUND:                -0.036
REMARK  Name = 
REMARK  3 active torsions:
REMARK  status: ('A' for Active; 'I' for Inactive)
REMARK    1  A    between atoms: C_1  and  O_2
REMARK    2  A    between atoms: O_2  and  C_3
REMARK    3  A    between atoms: C_8  and  O_9
REMARK                            x       y       z     vdW  Elec       q    Type
REMARK                         _______ _______ _______ _____ _____    ______ ____
ROOT
ATOM      1  C   UNL     1       6.761  12.789   2.359  0.00  0.00    +0.000 A 
ATOM      2  C   UNL     1       6.767  13.566   3.516  0.00  0.00    +0.000 A 
ATOM      3  C   UNL     1       5.945  13.220   4.596  0.00  0.00    +0.000 A 
ATOM      4  C   UNL     1       5.116  12.099   4.524  0.00  0.00    +0.000 A 
ATOM      5  C   UNL     1       5.105  11.317   3.371  0.00  0.00    +0.000 A 
ATOM      6  C   UNL     1       5.922  11.668   2.305  0.00  0.00    +0.000 A 
ENDROOT
BRANCH   1   8
ATOM      7  C   UNL     1       8.883  12.648   1.299  0.00  0.00    +0.000 C 
ATOM      8  O   UNL     1       7.509  13.008   1.230  0.00  0.00    +0.000 OA
ENDBRANCH   1   8
BRANCH   6   9
ATOM      9  O   UNL     1       5.894  10.884   1.182  0.00  0.00    +0.000 OA
ATOM     10  H   UNL     1       5.346  10.115   1.430  0.00  0.00    +0.000 HD
ENDBRANCH   6   9
TORSDOF 2
ENDMDL
MODEL 2
REMARK VINA RESULT:    -4.665      1.979      3.406
REMARK INTER + INTRA:          -5.110
REMARK INTER:                  -5.061
REMARK INTRA:                  -0.049
REMARK UNBOUND:                -0.036
REMARK  Name = 
REMARK  3 active torsions:
REMARK  status: ('A' for Active; 'I' for Inactive)
REMARK    1  A    between atoms: C_1  and  O_2
REMARK    2  A    between atoms: O_2  and  C_3
REMARK    3  A    between atoms: C_8  and  O_9
REMARK                            x       y       z     vdW  Elec       q    Type
REMARK                         _______ _______ _______ _____ _____    ______ ____
ROOT
ATOM      1  C   UNL     1       5.388  12.398   4.254  0.00  0.00    +0.000 A 
ATOM      2  C   UNL     1       5.791  13.722   4.088  0.00  0.00    +0.000 A 
ATOM      3  C   UNL     1       6.178  14.183   2.824  0.00  0.00    +0.000 A 
ATOM      4  C   UNL     1       6.166  13.324   1.723  0.00  0.00    +0.000 A 
ATOM      5  C   UNL     1       5.765  11.999   1.880  0.00  0.00    +0.000 A 
ATOM      6  C   UNL     1       5.383  11.551   3.138  0.00  0.00    +0.000 A 
ENDROOT
BRANCH   1   8
ATOM      7  C   UNL     1       3.960  12.482   6.151  0.00  0.00    +0.000 C 
ATOM      8  O   UNL     1       4.986  11.813   5.427  0.00  0.00    +0.000 OA
ENDBRANCH   1   8
BRANCH   6   9
ATOM      9  O   UNL     1       4.992  10.245   3.268  0.00  0.00    +0.000 OA
ATOM     10  H   UNL     1       4.019  10.282   3.332  0.00  0.00    +0.000 HD
ENDBRANCH   6   9
TORSDOF 2
ENDMDL
MODEL 3
REMARK VINA RESULT:    -4.258      2.446      3.404
REMARK INTER + INTRA:          -4.668
REMARK INTER:                  -4.617
REMARK INTRA:                  -0.051
REMARK UNBOUND:                -0.036
REMARK  Name = 
REMARK  3 active torsions:
REMARK  status: ('A' for Active; 'I' for Inactive)
REMARK    1  A    between atoms: C_1  and  O_2
REMARK    2  A    between atoms: O_2  and  C_3
REMARK    3  A    between atoms: C_8  and  O_9
REMARK                            x       y       z     vdW  Elec       q    Type
REMARK                         _______ _______ _______ _____ _____    ______ ____
ROOT
ATOM      1  C   UNL     1       5.861  13.367   4.595  0.00  0.00    +0.000 A 
ATOM      2  C   UNL     1       6.624  13.741   3.490  0.00  0.00    +0.000 A 
ATOM      3  C   UNL     1       6.654  12.924   2.352  0.00  0.00    +0.000 A 
ATOM      4  C   UNL     1       5.925  11.734   2.316  0.00  0.00    +0.000 A 
ATOM      5  C   UNL     1       5.160  11.354   3.416  0.00  0.00    +0.000 A 
ATOM      6  C   UNL     1       5.136  12.170   4.540  0.00  0.00    +0.000 A 
ENDROOT
BRANCH   1   8
ATOM      7  C   UNL     1       6.947  14.352   6.465  0.00  0.00    +0.000 C 
ATOM      8  O   UNL     1       5.739  14.065   5.770  0.00  0.00    +0.000 OA
ENDBRANCH   1   8
BRANCH   6   9
ATOM      9  O   UNL     1       4.377  11.776   5.609  0.00  0.00    +0.000 OA
ATOM     10  H   UNL     1       4.324  10.804   5.531  0.00  0.00    +0.000 HD
ENDBRANCH   6   9
TORSDOF 2
ENDMDL
MODEL 4
REMARK VINA RESULT:    -4.202      2.356      4.076
REMARK INTER + INTRA:          -4.607
REMARK INTER:                  -4.555
REMARK INTRA:                  -0.052
REMARK UNBOUND:                -0.036
REMARK  Name = 
REMARK  3 active torsions:
REMARK  status: ('A' for Active; 'I' for Inactive)
REMARK    1  A    between atoms: C_1  and  O_2
REMARK    2  A    between atoms: O_2  and  C_3
REMARK    3  A    between atoms: C_8  and  O_9
REMARK                            x       y       z     vdW  Elec       q    Type
REMARK                         _______ _______ _______ _____ _____    ______ ____
ROOT
ATOM      1  C   UNL     1       5.481  12.488   4.569  0.00  0.00    +0.000 A 
ATOM      2  C   UNL     1       5.094  11.432   3.745  0.00  0.00    +0.000 A 
ATOM      3  C   UNL     1       5.621  11.325   2.452  0.00  0.00    +0.000 A 
ATOM      4  C   UNL     1       6.535  12.269   1.979  0.00  0.00    +0.000 A 
ATOM      5  C   UNL     1       6.927  13.326   2.797  0.00  0.00    +0.000 A 
ATOM      6  C   UNL     1       6.398  13.425   4.078  0.00  0.00    +0.000 A 
ENDROOT
BRANCH   1   8
ATOM      7  C   UNL     1       3.647  12.895   6.024  0.00  0.00    +0.000 C 
ATOM      8  O   UNL     1       5.047  12.717   5.850  0.00  0.00    +0.000 OA
ENDBRANCH   1   8
BRANCH   6   9
ATOM      9  O   UNL     1       6.799  14.473   4.863  0.00  0.00    +0.000 OA
ATOM     10  H   UNL     1       5.970  14.911   5.135  0.00  0.00    +0.000 HD
ENDBRANCH   6   9
TORSDOF 2
ENDMDL
MODEL 5
REMARK VINA RESULT:    -4.047     11.477     12.445
REMARK INTER + INTRA:          -4.438
REMARK INTER:                  -4.399
REMARK INTRA:                  -0.038
REMARK UNBOUND:                -0.036
REMARK  Name = 
REMARK  3 active torsions:
REMARK  status: ('A' for Active; 'I' for Inactive)
REMARK    1  A    between atoms: C_1  and  O_2
REMARK    2  A    between atoms: O_2  and  C_3
REMARK    3  A    between atoms: C_8  and  O_9
REMARK                            x       y       z     vdW  Elec       q    Type
REMARK                         _______ _______ _______ _____ _____    ______ ____
ROOT
ATOM      1  C   UNL     1       7.865   1.485   8.812  0.00  0.00    +0.000 A 
ATOM      2  C   UNL     1       9.256   1.441   8.900  0.00  0.00    +0.000 A 
ATOM      3  C   UNL     1       9.988   2.630   9.008  0.00  0.00    +0.000 A 
ATOM      4  C   UNL     1       9.335   3.863   9.029  0.00  0.00    +0.000 A 
ATOM      5  C   UNL     1       7.946   3.916   8.943  0.00  0.00    +0.000 A 
ATOM      6  C   UNL     1       7.228   2.731   8.835  0.00  0.00    +0.000 A 
ENDROOT
BRANCH   1   8
ATOM      7  C   UNL     1       7.615  -0.818   8.281  0.00  0.00    +0.000 C 
ATOM      8  O   UNL     1       7.025   0.406   8.701  0.00  0.00    +0.000 OA
ENDBRANCH   1   8
BRANCH   6   9
ATOM      9  O   UNL     1       5.863   2.808   8.751  0.00  0.00    +0.000 OA
ATOM     10  H   UNL     1       5.544   2.518   9.627  0.00  0.00    +0.000 HD
ENDBRANCH   6   9
TORSDOF 2
ENDMDL
MODEL 6
REMARK VINA RESULT:    -4.021      4.394      5.371
REMARK INTER + INTRA:          -4.409
REMARK INTER:                  -4.357
REMARK INTRA:                  -0.052
REMARK UNBOUND:                -0.036
REMARK  Name = 
REMARK  3 active torsions:
REMARK  status: ('A' for Active; 'I' for Inactive)
REMARK    1  A    between atoms: C_1  and  O_2
REMARK    2  A    between atoms: O_2  and  C_3
REMARK    3  A    between atoms: C_8  and  O_9
REMARK                            x       y       z     vdW  Elec       q    Type
REMARK                         _______ _______ _______ _____ _____    ______ ____
ROOT
ATOM      1  C   UNL     1       4.425  13.896   7.105  0.00  0.00    +0.000 A 
ATOM      2  C   UNL     1       4.222  15.084   7.805  0.00  0.00    +0.000 A 
ATOM      3  C   UNL     1       2.920  15.548   8.034  0.00  0.00    +0.000 A 
ATOM      4  C   UNL     1       1.819  14.828   7.565  0.00  0.00    +0.000 A 
ATOM      5  C   UNL     1       2.014  13.639   6.865  0.00  0.00    +0.000 A 
ATOM      6  C   UNL     1       3.309  13.187   6.642  0.00  0.00    +0.000 A 
ENDROOT
BRANCH   1   8
ATOM      7  C   UNL     1       6.508  14.084   5.978  0.00  0.00    +0.000 C 
ATOM      8  O   UNL     1       5.637  13.326   6.809  0.00  0.00    +0.000 OA
ENDBRANCH   1   8
BRANCH   6   9
ATOM      9  O   UNL     1       3.475  12.016   5.952  0.00  0.00    +0.000 OA
ATOM     10  H   UNL     1       4.442  11.893   5.902  0.00  0.00    +0.000 HD
ENDBRANCH   6   9
TORSDOF 2
ENDMDL
MODEL 7
REMARK VINA RESULT:    -4.015      3.070      4.063
REMARK INTER + INTRA:          -4.404
REMARK INTER:                  -4.362
REMARK INTRA:                  -0.042
REMARK UNBOUND:                -0.036
REMARK  Name = 
REMARK  3 active torsions:
REMARK  status: ('A' for Active; 'I' for Inactive)
REMARK    1  A    between atoms: C_1  and  O_2
REMARK    2  A    between atoms: O_2  and  C_3
REMARK    3  A    between atoms: C_8  and  O_9
REMARK                            x       y       z     vdW  Elec       q    Type
REMARK                         _______ _______ _______ _____ _____    ______ ____
ROOT
ATOM      1  C   UNL     1       5.835  13.243   5.819  0.00  0.00    +0.000 A 
ATOM      2  C   UNL     1       6.892  13.677   5.019  0.00  0.00    +0.000 A 
ATOM      3  C   UNL     1       7.034  13.179   3.717  0.00  0.00    +0.000 A 
ATOM      4  C   UNL     1       6.124  12.248   3.213  0.00  0.00    +0.000 A 
ATOM      5  C   UNL     1       5.066  11.810   4.006  0.00  0.00    +0.000 A 
ATOM      6  C   UNL     1       4.933  12.309   5.295  0.00  0.00    +0.000 A 
ENDROOT
BRANCH   1   8
ATOM      7  C   UNL     1       6.703  13.975   7.907  0.00  0.00    +0.000 C 
ATOM      8  O   UNL     1       5.575  13.643   7.105  0.00  0.00    +0.000 OA
ENDBRANCH   1   8
BRANCH   6   9
ATOM      9  O   UNL     1       3.885  11.864   6.056  0.00  0.00    +0.000 OA
ATOM     10  H   UNL     1       4.130  12.091   6.974  0.00  0.00    +0.000 HD
ENDBRANCH   6   9
TORSDOF 2
ENDMDL
MODEL 8
REMARK VINA RESULT:    -3.991      5.745      6.779
REMARK INTER + INTRA:          -4.377
REMARK INTER:                  -4.324
REMARK INTRA:                  -0.053
REMARK UNBOUND:                -0.036
REMARK  Name = 
REMARK  3 active torsions:
REMARK  status: ('A' for Active; 'I' for Inactive)
REMARK    1  A    between atoms: C_1  and  O_2
REMARK    2  A    between atoms: O_2  and  C_3
REMARK    3  A    between atoms: C_8  and  O_9
REMARK                            x       y       z     vdW  Elec       q    Type
REMARK                         _______ _______ _______ _____ _____    ______ ____
ROOT
ATOM      1  C   UNL     1       4.452  15.194   7.887  0.00  0.00    +0.000 A 
ATOM      2  C   UNL     1       4.736  14.184   6.968  0.00  0.00    +0.000 A 
ATOM      3  C   UNL     1       3.692  13.522   6.310  0.00  0.00    +0.000 A 
ATOM      4  C   UNL     1       2.364  13.865   6.568  0.00  0.00    +0.000 A 
ATOM      5  C   UNL     1       2.071  14.873   7.484  0.00  0.00    +0.000 A 
ATOM      6  C   UNL     1       3.113  15.524   8.132  0.00  0.00    +0.000 A 
ENDROOT
BRANCH   1   8
ATOM      7  C   UNL     1       6.235  16.763   7.850  0.00  0.00    +0.000 C 
ATOM      8  O   UNL     1       5.369  15.922   8.601  0.00  0.00    +0.000 OA
ENDBRANCH   1   8
BRANCH   6   9
ATOM      9  O   UNL     1       2.801  16.511   9.028  0.00  0.00    +0.000 OA
ATOM     10  H   UNL     1       3.479  16.436   9.726  0.00  0.00    +0.000 HD
ENDBRANCH   6   9
TORSDOF 2
ENDMDL
MODEL 9
REMARK VINA RESULT:    -3.794      2.345      3.588
REMARK INTER + INTRA:          -4.162
REMARK INTER:                  -4.121
REMARK INTRA:                  -0.041
REMARK UNBOUND:                -0.036
REMARK  Name = 
REMARK  3 active torsions:
REMARK  status: ('A' for Active; 'I' for Inactive)
REMARK    1  A    between atoms: C_1  and  O_2
REMARK    2  A    between atoms: O_2  and  C_3
REMARK    3  A    between atoms: C_8  and  O_9
REMARK                            x       y       z     vdW  Elec       q    Type
REMARK                         _______ _______ _______ _____ _____    ______ ____
ROOT
ATOM      1  C   UNL     1       6.110  13.084   4.750  0.00  0.00    +0.000 A 
ATOM      2  C   UNL     1       4.928  12.348   4.806  0.00  0.00    +0.000 A 
ATOM      3  C   UNL     1       3.988  12.609   5.811  0.00  0.00    +0.000 A 
ATOM      4  C   UNL     1       4.226  13.603   6.761  0.00  0.00    +0.000 A 
ATOM      5  C   UNL     1       5.405  14.344   6.712  0.00  0.00    +0.000 A 
ATOM      6  C   UNL     1       6.332  14.078   5.712  0.00  0.00    +0.000 A 
ENDROOT
BRANCH   1   8
ATOM      7  C   UNL     1       6.724  12.515   2.525  0.00  0.00    +0.000 C 
ATOM      8  O   UNL     1       7.115  12.937   3.826  0.00  0.00    +0.000 OA
ENDBRANCH   1   8
BRANCH   6   9
ATOM      9  O   UNL     1       7.483  14.818   5.683  0.00  0.00    +0.000 OA
ATOM     10  H   UNL     1       8.145  14.233   5.267  0.00  0.00    +0.000 HD
ENDBRANCH   6   9
TORSDOF 2
ENDMDL
