MODEL 1
REMARK VINA RESULT:    -5.013      0.000      0.000
REMARK INTER + INTRA:          -5.492
REMARK INTER:                  -5.453
REMARK INTRA:                  -0.039
REMARK UNBOUND:                -0.039
REMARK  Name = 
REMARK  3 active torsions:
REMARK  status: ('A' for Active; 'I' for Inactive)
REMARK    1  A    between atoms: C_1  and  O_2
REMARK    2  A    between atoms: O_2  and  C_3
REMARK    3  A    between atoms: C_8  and  O_9
REMARK                            x       y       z     vdW  Elec       q    Type
REMARK                         _______ _______ _______ _____ _____    ______ ____
ROOT
ATOM      1  C   UNL     1       6.748  12.781   2.391  0.00  0.00    +0.000 A 
ATOM      2  C   UNL     1       6.786  13.545   3.557  0.00  0.00    +0.000 A 
ATOM      3  C   UNL     1       5.979  13.199   4.648  0.00  0.00    +0.000 A 
ATOM      4  C   UNL     1       5.133  12.090   4.578  0.00  0.00    +0.000 A 
ATOM      5  C   UNL     1       5.089  11.322   3.417  0.00  0.00    +0.000 A 
ATOM      6  C   UNL     1       5.893  11.673   2.340  0.00  0.00    +0.000 A 
ENDROOT
BRANCH   1   8
ATOM      7  C   UNL     1       8.853  12.638   1.298  0.00  0.00    +0.000 C 
ATOM      8  O   UNL     1       7.479  13.003   1.252  0.00  0.00    +0.000 OA
ENDBRANCH   1   8
BRANCH   6   9
ATOM      9  O   UNL     1       5.833  10.902   1.210  0.00  0.00    +0.000 OA
ATOM     10  H   UNL     1       4.955  10.477   1.246  0.00  0.00    +0.000 HD
ENDBRANCH   6   9
TORSDOF 2
ENDMDL
MODEL 2
REMARK VINA RESULT:    -4.656      1.977      3.393
REMARK INTER + INTRA:          -5.104
REMARK INTER:                  -5.054
REMARK INTRA:                  -0.049
REMARK UNBOUND:                -0.039
REMARK  Name = 
REMARK  3 active torsions:
REMARK  status: ('A' for Active; 'I' for Inactive)
REMARK    1  A    between atoms: C_1  and  O_2
REMARK    2  A    between atoms: O_2  and  C_3
REMARK    3  A    between atoms: C_8  and  O_9
REMARK                            x       y       z     vdW  Elec       q    Type
REMARK                         _______ _______ _______ _____ _____    ______ ____
ROOT
ATOM      1  C   UNL     1       5.396  12.433   4.236  0.00  0.00    +0.000 A 
ATOM      2  C   UNL     1       5.793  13.758   4.058  0.00  0.00    +0.000 A 
ATOM      3  C   UNL     1       6.159  14.214   2.786  0.00  0.00    +0.000 A 
ATOM      4  C   UNL     1       6.132  13.351   1.689  0.00  0.00    +0.000 A 
ATOM      5  C   UNL     1       5.736  12.026   1.858  0.00  0.00    +0.000 A 
ATOM      6  C   UNL     1       5.375  11.582   3.124  0.00  0.00    +0.000 A 
ENDROOT
BRANCH   1   8
ATOM      7  C   UNL     1       3.999  12.524   6.156  0.00  0.00    +0.000 C 
ATOM      8  O   UNL     1       5.013  11.853   5.418  0.00  0.00    +0.000 OA
ENDBRANCH   1   8
BRANCH   6   9
ATOM      9  O   UNL     1       4.990  10.275   3.266  0.00  0.00    +0.000 OA
ATOM     10  H   UNL     1       4.111  10.320   3.689  0.00  0.00    +0.000 HD
ENDBRANCH   6   9
TORSDOF 2
ENDMDL
MODEL 3
REMARK VINA RESULT:    -4.284      2.399      3.377
REMARK INTER + INTRA:          -4.699
REMARK INTER:                  -4.651
REMARK INTRA:                  -0.048
REMARK UNBOUND:                -0.039
REMARK  Name = 
REMARK  3 active torsions:
REMARK  status: ('A' for Active; 'I' for Inactive)
REMARK    1  A    between atoms: C_1  and  O_2
REMARK    2  A    between atoms: O_2  and  C_3
REMARK    3  A    between atoms: C_8  and  O_9
REMARK                            x       y       z     vdW  Elec       q    Type
REMARK                         _______ _______ _______ _____ _____    ______ ____
ROOT
ATOM      1  C   UNL     1       5.840  13.338   4.567  0.00  0.00    +0.000 A 
ATOM      2  C   UNL     1       6.638  13.737   3.495  0.00  0.00    +0.000 A 
ATOM      3  C   UNL     1       6.720  12.937   2.349  0.00  0.00    +0.000 A 
ATOM      4  C   UNL     1       6.007  11.739   2.269  0.00  0.00    +0.000 A 
ATOM      5  C   UNL     1       5.207  11.334   3.335  0.00  0.00    +0.000 A 
ATOM      6  C   UNL     1       5.133  12.134   4.469  0.00  0.00    +0.000 A 
ENDROOT
BRANCH   1   8
ATOM      7  C   UNL     1       6.850  14.447   6.411  0.00  0.00    +0.000 C 
ATOM      8  O   UNL     1       5.667  14.018   5.746  0.00  0.00    +0.000 OA
ENDBRANCH   1   8
BRANCH   6   9
ATOM      9  O   UNL     1       4.340  11.715   5.504  0.00  0.00    +0.000 OA
ATOM     10  H   UNL     1       3.427  11.805   5.170  0.00  0.00    +0.000 HD
ENDBRANCH   6   9
TORSDOF 2
ENDMDL
MODEL 4
REMARK VINA RESULT:    -4.191      2.334      4.063
REMARK INTER + INTRA:          -4.597
REMARK INTER:                  -4.545
REMARK INTRA:                  -0.052
REMARK UNBOUND:                -0.039
REMARK  Name = 
REMARK  3 active torsions:
REMARK  status: ('A' for Active; 'I' for Inactive)
REMARK    1  A    between atoms: C_1  and  O_2
REMARK    2  A    between atoms: O_2  and  C_3
REMARK    3  A    between atoms: C_8  and  O_9
REMARK                            x       y       z     vdW  Elec       q    Type
REMARK                         _______ _______ _______ _____ _____    ______ ____
ROOT
ATOM      1  C   UNL     1       5.515  12.481   4.575  0.00  0.00    +0.000 A 
ATOM      2  C   UNL     1       5.108  11.448   3.731  0.00  0.00    +0.000 A 
ATOM      3  C   UNL     1       5.636  11.353   2.437  0.00  0.00    +0.000 A 
ATOM      4  C   UNL     1       6.569  12.286   1.983  0.00  0.00    +0.000 A 
ATOM      5  C   UNL     1       6.981  13.320   2.820  0.00  0.00    +0.000 A 
ATOM      6  C   UNL     1       6.452  13.408   4.102  0.00  0.00    +0.000 A 
ENDROOT
BRANCH   1   8
ATOM      7  C   UNL     1       3.693  12.938   6.030  0.00  0.00    +0.000 C 
ATOM      8  O   UNL     1       5.084  12.696   5.860  0.00  0.00    +0.000 OA
ENDBRANCH   1   8
BRANCH   6   9
ATOM      9  O   UNL     1       6.873  14.433   4.907  0.00  0.00    +0.000 OA
ATOM     10  H   UNL     1       7.226  13.994   5.704  0.00  0.00    +0.000 HD
ENDBRANCH   6   9
TORSDOF 2
ENDMDL
MODEL 5
REMARK VINA RESULT:    -4.096     12.020     12.865
REMARK INTER + INTRA:          -4.494
REMARK INTER:                  -4.457
REMARK INTRA:                  -0.037
REMARK UNBOUND:                -0.039
REMARK  Name = 
REMARK  3 active torsions:
REMARK  status: ('A' for Active; 'I' for Inactive)
REMARK    1  A    between atoms: C_1  and  O_2
REMARK    2  A    between atoms: O_2  and  C_3
REMARK    3  A    between atoms: C_8  and  O_9
REMARK                            x       y       z     vdW  Elec       q    Type
REMARK                         _______ _______ _______ _____ _____    ______ ____
ROOT
ATOM      1  C   UNL     1       8.164   1.967   8.818  0.00  0.00    +0.000 A 
ATOM      2  C   UNL     1       9.488   1.535   8.749  0.00  0.00    +0.000 A 
ATOM      3  C   UNL     1       9.773   0.170   8.616  0.00  0.00    +0.000 A 
ATOM      4  C   UNL     1       8.739  -0.766   8.553  0.00  0.00    +0.000 A 
ATOM      5  C   UNL     1       7.413  -0.342   8.620  0.00  0.00    +0.000 A 
ATOM      6  C   UNL     1       7.140   1.013   8.752  0.00  0.00    +0.000 A 
ENDROOT
BRANCH   1   8
ATOM      7  C   UNL     1       8.755   4.259   9.024  0.00  0.00    +0.000 C 
ATOM      8  O   UNL     1       7.740   3.265   8.948  0.00  0.00    +0.000 OA
ENDBRANCH   1   8
BRANCH   6   9
ATOM      9  O   UNL     1       5.830   1.406   8.817  0.00  0.00    +0.000 OA
ATOM     10  H   UNL     1       5.865   2.348   9.068  0.00  0.00    +0.000 HD
ENDBRANCH   6   9
TORSDOF 2
ENDMDL
MODEL 6
REMARK VINA RESULT:    -4.021      4.335      5.317
REMARK INTER + INTRA:          -4.412
REMARK INTER:                  -4.362
REMARK INTRA:                  -0.050
REMARK UNBOUND:                -0.039
REMARK  Name = 
REMARK  3 active torsions:
REMARK  status: ('A' for Active; 'I' for Inactive)
REMARK    1  A    between atoms: C_1  and  O_2
REMARK    2  A    between atoms: O_2  and  C_3
REMARK    3  A    between atoms: C_8  and  O_9
REMARK                            x       y       z     vdW  Elec       q    Type
REMARK                         _______ _______ _______ _____ _____    ______ ____
ROOT
ATOM      1  C   UNL     1       4.437  13.900   7.092  0.00  0.00    +0.000 A 
ATOM      2  C   UNL     1       4.152  15.057   7.815  0.00  0.00    +0.000 A 
ATOM      3  C   UNL     1       2.822  15.448   8.015  0.00  0.00    +0.000 A 
ATOM      4  C   UNL     1       1.775  14.686   7.492  0.00  0.00    +0.000 A 
ATOM      5  C   UNL     1       2.052  13.528   6.769  0.00  0.00    +0.000 A 
ATOM      6  C   UNL     1       3.374  13.149   6.576  0.00  0.00    +0.000 A 
ENDROOT
BRANCH   1   8
ATOM      7  C   UNL     1       6.596  14.284   6.176  0.00  0.00    +0.000 C 
ATOM      8  O   UNL     1       5.686  13.400   6.820  0.00  0.00    +0.000 OA
ENDBRANCH   1   8
BRANCH   6   9
ATOM      9  O   UNL     1       3.621  12.007   5.862  0.00  0.00    +0.000 OA
ATOM     10  H   UNL     1       4.504  12.146   5.470  0.00  0.00    +0.000 HD
ENDBRANCH   6   9
TORSDOF 2
ENDMDL
MODEL 7
REMARK VINA RESULT:    -3.964      5.692      6.730
REMARK INTER + INTRA:          -4.351
REMARK INTER:                  -4.304
REMARK INTRA:                  -0.047
REMARK UNBOUND:                -0.039
REMARK  Name = 
REMARK  3 active torsions:
REMARK  status: ('A' for Active; 'I' for Inactive)
REMARK    1  A    between atoms: C_1  and  O_2
REMARK    2  A    between atoms: O_2  and  C_3
REMARK    3  A    between atoms: C_8  and  O_9
REMARK                            x       y       z     vdW  Elec       q    Type
REMARK                         _______ _______ _______ _____ _____    ______ ____
ROOT
ATOM      1  C   UNL     1       4.493  15.102   7.902  0.00  0.00    +0.000 A 
ATOM      2  C   UNL     1       4.762  14.080   6.992  0.00  0.00    +0.000 A 
ATOM      3  C   UNL     1       3.708  13.429   6.339  0.00  0.00    +0.000 A 
ATOM      4  C   UNL     1       2.385  13.795   6.592  0.00  0.00    +0.000 A 
ATOM      5  C   UNL     1       2.107  14.816   7.499  0.00  0.00    +0.000 A 
ATOM      6  C   UNL     1       3.159  15.456   8.142  0.00  0.00    +0.000 A 
ENDROOT
BRANCH   1   8
ATOM      7  C   UNL     1       6.176  16.779   7.878  0.00  0.00    +0.000 C 
ATOM      8  O   UNL     1       5.420  15.823   8.611  0.00  0.00    +0.000 OA
ENDBRANCH   1   8
BRANCH   6   9
ATOM      9  O   UNL     1       2.861  16.456   9.029  0.00  0.00    +0.000 OA
ATOM     10  H   UNL     1       3.712  16.907   9.190  0.00  0.00    +0.000 HD
ENDBRANCH   6   9
TORSDOF 2
ENDMDL
MODEL 8
REMARK VINA RESULT:    -3.951      2.553      3.605
REMARK INTER + INTRA:          -4.337
REMARK INTER:                  -4.298
REMARK INTRA:                  -0.039
REMARK UNBOUND:                -0.039
REMARK  Name = 
REMARK  3 active torsions:
REMARK  status: ('A' for Active; 'I' for Inactive)
REMARK    1  A    between atoms: C_1  and  O_2
REMARK    2  A    between atoms: O_2  and  C_3
REMARK    3  A    between atoms: C_8  and  O_9
REMARK                            x       y       z     vdW  Elec       q    Type
REMARK                         _______ _______ _______ _____ _____    ______ ____
ROOT
ATOM      1  C   UNL     1       5.420  12.563   4.832  0.00  0.00    +0.000 A 
ATOM      2  C   UNL     1       6.616  13.275   4.759  0.00  0.00    +0.000 A 
ATOM      3  C   UNL     1       6.914  14.245   5.725  0.00  0.00    +0.000 A 
ATOM      4  C   UNL     1       6.019  14.506   6.764  0.00  0.00    +0.000 A 
ATOM      5  C   UNL     1       4.822  13.799   6.844  0.00  0.00    +0.000 A 
ATOM      6  C   UNL     1       4.535  12.840   5.881  0.00  0.00    +0.000 A 
ENDROOT
BRANCH   1   8
ATOM      7  C   UNL     1       5.633  11.566   2.685  0.00  0.00    +0.000 C 
ATOM      8  O   UNL     1       5.000  11.592   3.959  0.00  0.00    +0.000 OA
ENDBRANCH   1   8
BRANCH   6   9
ATOM      9  O   UNL     1       3.352  12.157   5.981  0.00  0.00    +0.000 OA
ATOM     10  H   UNL     1       3.604  11.264   6.283  0.00  0.00    +0.000 HD
ENDBRANCH   6   9
TORSDOF 2
ENDMDL
MODEL 9
REMARK VINA RESULT:    -3.785      2.251      3.465
REMARK INTER + INTRA:          -4.156
REMARK INTER:                  -4.116
REMARK INTRA:                  -0.040
REMARK UNBOUND:                -0.039
REMARK  Name = 
REMARK  3 active torsions:
REMARK  status: ('A' for Active; 'I' for Inactive)
REMARK    1  A    between atoms: C_1  and  O_2
REMARK    2  A    between atoms: O_2  and  C_3
REMARK    3  A    between atoms: C_8  and  O_9
REMARK                            x       y       z     vdW  Elec       q    Type
REMARK                         _______ _______ _______ _____ _____    ______ ____
ROOT
ATOM      1  C   UNL     1       6.222  13.112   4.624  0.00  0.00    +0.000 A 
ATOM      2  C   UNL     1       5.055  12.350   4.626  0.00  0.00    +0.000 A 
ATOM      3  C   UNL     1       4.104  12.529   5.638  0.00  0.00    +0.000 A 
ATOM      4  C   UNL     1       4.315  13.467   6.650  0.00  0.00    +0.000 A 
ATOM      5  C   UNL     1       5.479  14.233   6.655  0.00  0.00    +0.000 A 
ATOM      6  C   UNL     1       6.417  14.048   5.647  0.00  0.00    +0.000 A 
ENDROOT
BRANCH   1   8
ATOM      7  C   UNL     1       6.887  12.547   2.414  0.00  0.00    +0.000 C 
ATOM      8  O   UNL     1       7.235  13.042   3.701  0.00  0.00    +0.000 OA
ENDBRANCH   1   8
BRANCH   6   9
ATOM      9  O   UNL     1       7.553  14.812   5.673  0.00  0.00    +0.000 OA
ATOM     10  H   UNL     1       8.284  14.168   5.737  0.00  0.00    +0.000 HD
ENDBRANCH   6   9
TORSDOF 2
ENDMDL
