MODEL 1
REMARK VINA RESULT:    -4.067      0.000      0.000
REMARK INTER + INTRA:          -5.854
REMARK INTER:                  -5.493
REMARK INTRA:                  -0.360
REMARK UNBOUND:                -0.360
REMARK  Name = 
REMARK  10 active torsions:
REMARK  status: ('A' for Active; 'I' for Inactive)
REMARK    1  A    between atoms: C_1  and  C_2
REMARK    2  A    between atoms: C_5  and  N_8
REMARK    3  A    between atoms: N_8  and  C_9
REMARK    4  A    between atoms: N_8  and  C_13
REMARK    5  A    between atoms: C_9  and  C_10
REMARK    6  A    between atoms: C_10  and  C_11
REMARK    7  A    between atoms: C_10  and  O_12
REMARK    8  A    between atoms: C_13  and  C_14
REMARK    9  A    between atoms: C_14  and  C_15
REMARK   10  A    between atoms: C_14  and  O_16
REMARK                            x       y       z     vdW  Elec       q    Type
REMARK                         _______ _______ _______ _____ _____    ______ ____
ROOT
ATOM      1  N   UNL     1     -11.308   4.331 -16.600  0.00  0.00    +0.000 N 
ENDROOT
BRANCH   1   6
ATOM      2  C   UNL     1     -12.382   3.967 -10.940  0.00  0.00    +0.000 C 
ATOM      3  C   UNL     1     -12.079   4.067 -12.403  0.00  0.00    +0.000 A 
ATOM      4  C   UNL     1     -12.254   5.265 -13.089  0.00  0.00    +0.000 A 
ATOM      5  C   UNL     1     -11.997   5.345 -14.467  0.00  0.00    +0.000 A 
ATOM      6  C   UNL     1     -11.581   4.239 -15.230  0.00  0.00    +0.000 A 
ATOM      7  C   UNL     1     -11.413   3.045 -14.504  0.00  0.00    +0.000 A 
ATOM      8  C   UNL     1     -11.663   2.952 -13.125  0.00  0.00    +0.000 A 
ENDBRANCH   1   6
BRANCH   1   9
ATOM      9  C   UNL     1     -11.521   5.612 -17.316  0.00  0.00    +0.000 C 
BRANCH   9  10
ATOM     10  C   UNL     1     -10.197   6.341 -17.649  0.00  0.00    +0.000 C 
ATOM     11  C   UNL     1     -10.431   7.469 -18.647  0.00  0.00    +0.000 C 
BRANCH  10  12
ATOM     12  O   UNL     1      -9.611   6.908 -16.469  0.00  0.00    +0.000 OA
ATOM     13  H   UNL     1      -8.673   6.657 -16.448  0.00  0.00    +0.000 HD
ENDBRANCH  10  12
ENDBRANCH   9  10
ENDBRANCH   1   9
BRANCH   1  14
ATOM     14  C   UNL     1     -11.306   3.124 -17.467  0.00  0.00    +0.000 C 
BRANCH  14  15
ATOM     15  C   UNL     1      -9.913   2.452 -17.528  0.00  0.00    +0.000 C 
ATOM     16  C   UNL     1      -9.965   1.009 -18.017  0.00  0.00    +0.000 C 
BRANCH  15  17
ATOM     17  O   UNL     1      -9.016   3.172 -18.372  0.00  0.00    +0.000 OA
ATOM     18  H   UNL     1      -9.495   3.276 -19.219  0.00  0.00    +0.000 HD
ENDBRANCH  15  17
ENDBRANCH  14  15
ENDBRANCH   1  14
TORSDOF 7
ENDMDL
MODEL 2
REMARK VINA RESULT:    -4.024     20.639     21.942
REMARK INTER + INTRA:          -5.796
REMARK INTER:                  -5.195
REMARK INTRA:                  -0.601
REMARK UNBOUND:                -0.360
REMARK  Name = 
REMARK  10 active torsions:
REMARK  status: ('A' for Active; 'I' for Inactive)
REMARK    1  A    between atoms: C_1  and  C_2
REMARK    2  A    between atoms: C_5  and  N_8
REMARK    3  A    between atoms: N_8  and  C_9
REMARK    4  A    between atoms: N_8  and  C_13
REMARK    5  A    between atoms: C_9  and  C_10
REMARK    6  A    between atoms: C_10  and  C_11
REMARK    7  A    between atoms: C_10  and  O_12
REMARK    8  A    between atoms: C_13  and  C_14
REMARK    9  A    between atoms: C_14  and  C_15
REMARK   10  A    between atoms: C_14  and  O_16
REMARK                            x       y       z     vdW  Elec       q    Type
REMARK                         _______ _______ _______ _____ _____    ______ ____
ROOT
ATOM      1  N   UNL     1       3.381  21.208 -16.057  0.00  0.00    +0.000 N 
ENDROOT
BRANCH   1   6
ATOM      2  C   UNL     1      -1.835  22.459 -13.920  0.00  0.00    +0.000 C 
ATOM      3  C   UNL     1      -0.492  22.117 -14.489  0.00  0.00    +0.000 A 
ATOM      4  C   UNL     1       0.319  21.163 -13.883  0.00  0.00    +0.000 A 
ATOM      5  C   UNL     1       1.590  20.868 -14.404  0.00  0.00    +0.000 A 
ATOM      6  C   UNL     1       2.121  21.521 -15.531  0.00  0.00    +0.000 A 
ATOM      7  C   UNL     1       1.273  22.478 -16.119  0.00  0.00    +0.000 A 
ATOM      8  C   UNL     1      -0.001  22.780 -15.610  0.00  0.00    +0.000 A 
ENDBRANCH   1   6
BRANCH   1   9
ATOM      9  C   UNL     1       4.588  21.309 -15.202  0.00  0.00    +0.000 C 
BRANCH   9  10
ATOM     10  C   UNL     1       5.883  20.895 -15.943  0.00  0.00    +0.000 C 
ATOM     11  C   UNL     1       7.113  21.478 -15.258  0.00  0.00    +0.000 C 
BRANCH  10  12
ATOM     12  O   UNL     1       6.026  19.468 -15.970  0.00  0.00    +0.000 OA
ATOM     13  H   UNL     1       5.784  19.124 -15.095  0.00  0.00    +0.000 HD
ENDBRANCH  10  12
ENDBRANCH   9  10
ENDBRANCH   1   9
BRANCH   1  14
ATOM     14  C   UNL     1       3.642  21.272 -17.518  0.00  0.00    +0.000 C 
BRANCH  14  15
ATOM     15  C   UNL     1       3.050  20.057 -18.271  0.00  0.00    +0.000 C 
ATOM     16  C   UNL     1       3.523  19.959 -19.716  0.00  0.00    +0.000 C 
BRANCH  15  17
ATOM     17  O   UNL     1       3.364  18.828 -17.619  0.00  0.00    +0.000 OA
ATOM     18  H   UNL     1       2.731  18.768 -16.874  0.00  0.00    +0.000 HD
ENDBRANCH  15  17
ENDBRANCH  14  15
ENDBRANCH   1  14
TORSDOF 7
ENDMDL
MODEL 3
REMARK VINA RESULT:    -3.940      1.520      5.272
REMARK INTER + INTRA:          -5.683
REMARK INTER:                  -5.044
REMARK INTRA:                  -0.639
REMARK UNBOUND:                -0.360
REMARK  Name = 
REMARK  10 active torsions:
REMARK  status: ('A' for Active; 'I' for Inactive)
REMARK    1  A    between atoms: C_1  and  C_2
REMARK    2  A    between atoms: C_5  and  N_8
REMARK    3  A    between atoms: N_8  and  C_9
REMARK    4  A    between atoms: N_8  and  C_13
REMARK    5  A    between atoms: C_9  and  C_10
REMARK    6  A    between atoms: C_10  and  C_11
REMARK    7  A    between atoms: C_10  and  O_12
REMARK    8  A    between atoms: C_13  and  C_14
REMARK    9  A    between atoms: C_14  and  C_15
REMARK   10  A    between atoms: C_14  and  O_16
REMARK                            x       y       z     vdW  Elec       q    Type
REMARK                         _______ _______ _______ _____ _____    ______ ____
ROOT
ATOM      1  N   UNL     1     -11.296   4.567 -16.490  0.00  0.00    +0.000 N 
ENDROOT
BRANCH   1   6
ATOM      2  C   UNL     1     -11.070   9.805 -18.905  0.00  0.00    +0.000 C 
ATOM      3  C   UNL     1     -11.139   8.437 -18.299  0.00  0.00    +0.000 A 
ATOM      4  C   UNL     1     -12.252   8.033 -17.570  0.00  0.00    +0.000 A 
ATOM      5  C   UNL     1     -12.298   6.760 -16.979  0.00  0.00    +0.000 A 
ATOM      6  C   UNL     1     -11.236   5.842 -17.065  0.00  0.00    +0.000 A 
ATOM      7  C   UNL     1     -10.127   6.283 -17.812  0.00  0.00    +0.000 A 
ATOM      8  C   UNL     1     -10.070   7.553 -18.410  0.00  0.00    +0.000 A 
ENDBRANCH   1   6
BRANCH   1   9
ATOM      9  C   UNL     1     -11.110   3.361 -17.333  0.00  0.00    +0.000 C 
BRANCH   9  10
ATOM     10  C   UNL     1     -10.707   2.112 -16.512  0.00  0.00    +0.000 C 
ATOM     11  C   UNL     1     -10.885   0.840 -17.333  0.00  0.00    +0.000 C 
BRANCH  10  12
ATOM     12  O   UNL     1      -9.335   2.186 -16.100  0.00  0.00    +0.000 OA
ATOM     13  H   UNL     1      -9.290   2.735 -15.300  0.00  0.00    +0.000 HD
ENDBRANCH  10  12
ENDBRANCH   9  10
ENDBRANCH   1   9
BRANCH   1  14
ATOM     14  C   UNL     1     -12.023   4.332 -15.216  0.00  0.00    +0.000 C 
BRANCH  14  15
ATOM     15  C   UNL     1     -11.136   4.604 -13.977  0.00  0.00    +0.000 C 
ATOM     16  C   UNL     1     -11.395   3.636 -12.829  0.00  0.00    +0.000 C 
BRANCH  15  17
ATOM     17  O   UNL     1      -9.747   4.545 -14.301  0.00  0.00    +0.000 OA
ATOM     18  H   UNL     1      -9.584   5.331 -14.860  0.00  0.00    +0.000 HD
ENDBRANCH  15  17
ENDBRANCH  14  15
ENDBRANCH   1  14
TORSDOF 7
ENDMDL
MODEL 4
REMARK VINA RESULT:    -3.822     20.246     21.885
REMARK INTER + INTRA:          -5.523
REMARK INTER:                  -4.992
REMARK INTRA:                  -0.531
REMARK UNBOUND:                -0.360
REMARK  Name = 
REMARK  10 active torsions:
REMARK  status: ('A' for Active; 'I' for Inactive)
REMARK    1  A    between atoms: C_1  and  C_2
REMARK    2  A    between atoms: C_5  and  N_8
REMARK    3  A    between atoms: N_8  and  C_9
REMARK    4  A    between atoms: N_8  and  C_13
REMARK    5  A    between atoms: C_9  and  C_10
REMARK    6  A    between atoms: C_10  and  C_11
REMARK    7  A    between atoms: C_10  and  O_12
REMARK    8  A    between atoms: C_13  and  C_14
REMARK    9  A    between atoms: C_14  and  C_15
REMARK   10  A    between atoms: C_14  and  O_16
REMARK                            x       y       z     vdW  Elec       q    Type
REMARK                         _______ _______ _______ _____ _____    ______ ____
ROOT
ATOM      1  N   UNL     1       3.331  21.575 -16.146  0.00  0.00    +0.000 N 
ENDROOT
BRANCH   1   6
ATOM      2  C   UNL     1      -2.215  22.051 -14.617  0.00  0.00    +0.000 C 
ATOM      3  C   UNL     1      -0.770  21.947 -14.999  0.00  0.00    +0.000 A 
ATOM      4  C   UNL     1      -0.275  22.620 -16.111  0.00  0.00    +0.000 A 
ATOM      5  C   UNL     1       1.074  22.494 -16.482  0.00  0.00    +0.000 A 
ATOM      6  C   UNL     1       1.983  21.680 -15.782  0.00  0.00    +0.000 A 
ATOM      7  C   UNL     1       1.448  21.017 -14.663  0.00  0.00    +0.000 A 
ATOM      8  C   UNL     1       0.102  21.135 -14.280  0.00  0.00    +0.000 A 
ENDBRANCH   1   6
BRANCH   1   9
ATOM      9  C   UNL     1       3.703  21.343 -17.563  0.00  0.00    +0.000 C 
BRANCH   9  10
ATOM     10  C   UNL     1       2.955  20.142 -18.191  0.00  0.00    +0.000 C 
ATOM     11  C   UNL     1       3.243  20.040 -19.684  0.00  0.00    +0.000 C 
BRANCH  10  12
ATOM     12  O   UNL     1       3.355  18.909 -17.576  0.00  0.00    +0.000 OA
ATOM     13  H   UNL     1       3.023  18.906 -16.663  0.00  0.00    +0.000 HD
ENDBRANCH  10  12
ENDBRANCH   9  10
ENDBRANCH   1   9
BRANCH   1  14
ATOM     14  C   UNL     1       4.366  21.181 -15.157  0.00  0.00    +0.000 C 
BRANCH  14  15
ATOM     15  C   UNL     1       5.743  20.933 -15.818  0.00  0.00    +0.000 C 
ATOM     16  C   UNL     1       6.903  21.537 -15.034  0.00  0.00    +0.000 C 
BRANCH  15  17
ATOM     17  O   UNL     1       6.003  19.541 -15.990  0.00  0.00    +0.000 OA
ATOM     18  H   UNL     1       5.285  19.088 -15.502  0.00  0.00    +0.000 HD
ENDBRANCH  15  17
ENDBRANCH  14  15
ENDBRANCH   1  14
TORSDOF 7
ENDMDL
MODEL 5
REMARK VINA RESULT:    -3.784      1.672      4.809
REMARK INTER + INTRA:          -5.471
REMARK INTER:                  -4.935
REMARK INTRA:                  -0.536
REMARK UNBOUND:                -0.360
REMARK  Name = 
REMARK  10 active torsions:
REMARK  status: ('A' for Active; 'I' for Inactive)
REMARK    1  A    between atoms: C_1  and  C_2
REMARK    2  A    between atoms: C_5  and  N_8
REMARK    3  A    between atoms: N_8  and  C_9
REMARK    4  A    between atoms: N_8  and  C_13
REMARK    5  A    between atoms: C_9  and  C_10
REMARK    6  A    between atoms: C_10  and  C_11
REMARK    7  A    between atoms: C_10  and  O_12
REMARK    8  A    between atoms: C_13  and  C_14
REMARK    9  A    between atoms: C_14  and  C_15
REMARK   10  A    between atoms: C_14  and  O_16
REMARK                            x       y       z     vdW  Elec       q    Type
REMARK                         _______ _______ _______ _____ _____    ______ ____
ROOT
ATOM      1  N   UNL     1     -11.259   4.597 -16.229  0.00  0.00    +0.000 N 
ENDROOT
BRANCH   1   6
ATOM      2  C   UNL     1     -11.251   9.730 -18.871  0.00  0.00    +0.000 C 
ATOM      3  C   UNL     1     -11.264   8.388 -18.206  0.00  0.00    +0.000 A 
ATOM      4  C   UNL     1     -12.338   7.992 -17.417  0.00  0.00    +0.000 A 
ATOM      5  C   UNL     1     -12.331   6.745 -16.771  0.00  0.00    +0.000 A 
ATOM      6  C   UNL     1     -11.251   5.847 -16.860  0.00  0.00    +0.000 A 
ATOM      7  C   UNL     1     -10.184   6.280 -17.668  0.00  0.00    +0.000 A 
ATOM      8  C   UNL     1     -10.179   7.523 -18.321  0.00  0.00    +0.000 A 
ENDBRANCH   1   6
BRANCH   1   9
ATOM      9  C   UNL     1     -10.729   4.456 -14.851  0.00  0.00    +0.000 C 
BRANCH   9  10
ATOM     10  C   UNL     1     -11.847   4.322 -13.789  0.00  0.00    +0.000 C 
ATOM     11  C   UNL     1     -11.881   2.914 -13.208  0.00  0.00    +0.000 C 
BRANCH  10  12
ATOM     12  O   UNL     1     -11.644   5.243 -12.709  0.00  0.00    +0.000 OA
ATOM     13  H   UNL     1     -11.166   6.015 -13.056  0.00  0.00    +0.000 HD
ENDBRANCH  10  12
ENDBRANCH   9  10
ENDBRANCH   1   9
BRANCH   1  14
ATOM     14  C   UNL     1     -11.292   3.338 -17.017  0.00  0.00    +0.000 C 
BRANCH  14  15
ATOM     15  C   UNL     1     -10.145   2.375 -16.628  0.00  0.00    +0.000 C 
ATOM     16  C   UNL     1     -10.607   0.934 -16.450  0.00  0.00    +0.000 C 
BRANCH  15  17
ATOM     17  O   UNL     1      -9.096   2.387 -17.595  0.00  0.00    +0.000 OA
ATOM     18  H   UNL     1      -9.258   3.188 -18.134  0.00  0.00    +0.000 HD
ENDBRANCH  15  17
ENDBRANCH  14  15
ENDBRANCH   1  14
TORSDOF 7
ENDMDL
MODEL 6
REMARK VINA RESULT:    -3.711      1.553      4.807
REMARK INTER + INTRA:          -5.372
REMARK INTER:                  -4.747
REMARK INTRA:                  -0.625
REMARK UNBOUND:                -0.360
REMARK  Name = 
REMARK  10 active torsions:
REMARK  status: ('A' for Active; 'I' for Inactive)
REMARK    1  A    between atoms: C_1  and  C_2
REMARK    2  A    between atoms: C_5  and  N_8
REMARK    3  A    between atoms: N_8  and  C_9
REMARK    4  A    between atoms: N_8  and  C_13
REMARK    5  A    between atoms: C_9  and  C_10
REMARK    6  A    between atoms: C_10  and  C_11
REMARK    7  A    between atoms: C_10  and  O_12
REMARK    8  A    between atoms: C_13  and  C_14
REMARK    9  A    between atoms: C_14  and  C_15
REMARK   10  A    between atoms: C_14  and  O_16
REMARK                            x       y       z     vdW  Elec       q    Type
REMARK                         _______ _______ _______ _____ _____    ______ ____
ROOT
ATOM      1  N   UNL     1     -11.172   4.453 -17.161  0.00  0.00    +0.000 N 
ENDROOT
BRANCH   1   6
ATOM      2  C   UNL     1     -10.954   9.946 -18.924  0.00  0.00    +0.000 C 
ATOM      3  C   UNL     1     -11.006   8.528 -18.443  0.00  0.00    +0.000 A 
ATOM      4  C   UNL     1      -9.866   7.731 -18.444  0.00  0.00    +0.000 A 
ATOM      5  C   UNL     1      -9.927   6.394 -18.021  0.00  0.00    +0.000 A 
ATOM      6  C   UNL     1     -11.122   5.782 -17.601  0.00  0.00    +0.000 A 
ATOM      7  C   UNL     1     -12.254   6.618 -17.611  0.00  0.00    +0.000 A 
ATOM      8  C   UNL     1     -12.206   7.958 -18.030  0.00  0.00    +0.000 A 
ENDBRANCH   1   6
BRANCH   1   9
ATOM      9  C   UNL     1     -11.709   4.135 -15.816  0.00  0.00    +0.000 C 
BRANCH   9  10
ATOM     10  C   UNL     1     -11.034   4.957 -14.691  0.00  0.00    +0.000 C 
ATOM     11  C   UNL     1     -11.871   4.926 -13.417  0.00  0.00    +0.000 C 
BRANCH  10  12
ATOM     12  O   UNL     1      -9.734   4.436 -14.381  0.00  0.00    +0.000 OA
ATOM     13  H   UNL     1      -9.198   5.160 -14.019  0.00  0.00    +0.000 HD
ENDBRANCH  10  12
ENDBRANCH   9  10
ENDBRANCH   1   9
BRANCH   1  14
ATOM     14  C   UNL     1     -10.274   3.419 -17.736  0.00  0.00    +0.000 C 
BRANCH  14  15
ATOM     15  C   UNL     1     -10.297   2.105 -16.918  0.00  0.00    +0.000 C 
ATOM     16  C   UNL     1     -10.341   0.857 -17.791  0.00  0.00    +0.000 C 
BRANCH  15  17
ATOM     17  O   UNL     1      -9.166   2.002 -16.054  0.00  0.00    +0.000 OA
ATOM     18  H   UNL     1      -8.994   1.041 -15.978  0.00  0.00    +0.000 HD
ENDBRANCH  15  17
ENDBRANCH  14  15
ENDBRANCH   1  14
TORSDOF 7
ENDMDL
MODEL 7
REMARK VINA RESULT:    -3.678      2.198      5.444
REMARK INTER + INTRA:          -5.329
REMARK INTER:                  -4.666
REMARK INTRA:                  -0.663
REMARK UNBOUND:                -0.360
REMARK  Name = 
REMARK  10 active torsions:
REMARK  status: ('A' for Active; 'I' for Inactive)
REMARK    1  A    between atoms: C_1  and  C_2
REMARK    2  A    between atoms: C_5  and  N_8
REMARK    3  A    between atoms: N_8  and  C_9
REMARK    4  A    between atoms: N_8  and  C_13
REMARK    5  A    between atoms: C_9  and  C_10
REMARK    6  A    between atoms: C_10  and  C_11
REMARK    7  A    between atoms: C_10  and  O_12
REMARK    8  A    between atoms: C_13  and  C_14
REMARK    9  A    between atoms: C_14  and  C_15
REMARK   10  A    between atoms: C_14  and  O_16
REMARK                            x       y       z     vdW  Elec       q    Type
REMARK                         _______ _______ _______ _____ _____    ______ ____
ROOT
ATOM      1  N   UNL     1     -11.320   5.832 -17.541  0.00  0.00    +0.000 N 
ENDROOT
BRANCH   1   6
ATOM      2  C   UNL     1      -8.065   1.529 -19.595  0.00  0.00    +0.000 C 
ATOM      3  C   UNL     1      -8.927   2.641 -19.079  0.00  0.00    +0.000 A 
ATOM      4  C   UNL     1      -8.783   3.938 -19.559  0.00  0.00    +0.000 A 
ATOM      5  C   UNL     1      -9.573   4.982 -19.050  0.00  0.00    +0.000 A 
ATOM      6  C   UNL     1     -10.522   4.790 -18.030  0.00  0.00    +0.000 A 
ATOM      7  C   UNL     1     -10.642   3.466 -17.570  0.00  0.00    +0.000 A 
ATOM      8  C   UNL     1      -9.859   2.412 -18.072  0.00  0.00    +0.000 A 
ENDBRANCH   1   6
BRANCH   1   9
ATOM      9  C   UNL     1     -11.853   5.774 -16.158  0.00  0.00    +0.000 C 
BRANCH   9  10
ATOM     10  C   UNL     1     -10.803   6.175 -15.093  0.00  0.00    +0.000 C 
ATOM     11  C   UNL     1     -10.397   4.973 -14.248  0.00  0.00    +0.000 C 
BRANCH  10  12
ATOM     12  O   UNL     1      -9.621   6.705 -15.709  0.00  0.00    +0.000 OA
ATOM     13  H   UNL     1      -9.828   7.593 -16.043  0.00  0.00    +0.000 HD
ENDBRANCH  10  12
ENDBRANCH   9  10
ENDBRANCH   1   9
BRANCH   1  14
ATOM     14  C   UNL     1     -12.070   6.723 -18.462  0.00  0.00    +0.000 C 
BRANCH  14  15
ATOM     15  C   UNL     1     -11.485   8.156 -18.493  0.00  0.00    +0.000 C 
ATOM     16  C   UNL     1     -12.379   9.183 -17.809  0.00  0.00    +0.000 C 
BRANCH  15  17
ATOM     17  O   UNL     1     -10.197   8.213 -17.882  0.00  0.00    +0.000 OA
ATOM     18  H   UNL     1     -10.053   7.319 -17.512  0.00  0.00    +0.000 HD
ENDBRANCH  15  17
ENDBRANCH  14  15
ENDBRANCH   1  14
TORSDOF 7
ENDMDL
MODEL 8
REMARK VINA RESULT:    -3.614     21.407     23.501
REMARK INTER + INTRA:          -5.243
REMARK INTER:                  -4.633
REMARK INTRA:                  -0.610
REMARK UNBOUND:                -0.360
REMARK  Name = 
REMARK  10 active torsions:
REMARK  status: ('A' for Active; 'I' for Inactive)
REMARK    1  A    between atoms: C_1  and  C_2
REMARK    2  A    between atoms: C_5  and  N_8
REMARK    3  A    between atoms: N_8  and  C_9
REMARK    4  A    between atoms: N_8  and  C_13
REMARK    5  A    between atoms: C_9  and  C_10
REMARK    6  A    between atoms: C_10  and  C_11
REMARK    7  A    between atoms: C_10  and  O_12
REMARK    8  A    between atoms: C_13  and  C_14
REMARK    9  A    between atoms: C_14  and  C_15
REMARK   10  A    between atoms: C_14  and  O_16
REMARK                            x       y       z     vdW  Elec       q    Type
REMARK                         _______ _______ _______ _____ _____    ______ ____
ROOT
ATOM      1  N   UNL     1       4.093  21.519 -16.433  0.00  0.00    +0.000 N 
ENDROOT
BRANCH   1   6
ATOM      2  C   UNL     1       9.358  21.715 -14.074  0.00  0.00    +0.000 C 
ATOM      3  C   UNL     1       7.997  21.685 -14.700  0.00  0.00    +0.000 A 
ATOM      4  C   UNL     1       6.926  22.351 -14.114  0.00  0.00    +0.000 A 
ATOM      5  C   UNL     1       5.646  22.293 -14.689  0.00  0.00    +0.000 A 
ATOM      6  C   UNL     1       5.367  21.556 -15.854  0.00  0.00    +0.000 A 
ATOM      7  C   UNL     1       6.474  20.897 -16.420  0.00  0.00    +0.000 A 
ATOM      8  C   UNL     1       7.760  20.948 -15.856  0.00  0.00    +0.000 A 
ENDBRANCH   1   6
BRANCH   1   9
ATOM      9  C   UNL     1       3.946  21.314 -17.894  0.00  0.00    +0.000 C 
BRANCH   9  10
ATOM     10  C   UNL     1       2.997  20.142 -18.244  0.00  0.00    +0.000 C 
ATOM     11  C   UNL     1       3.128  19.753 -19.711  0.00  0.00    +0.000 C 
BRANCH  10  12
ATOM     12  O   UNL     1       3.294  18.985 -17.449  0.00  0.00    +0.000 OA
ATOM     13  H   UNL     1       3.302  18.210 -18.036  0.00  0.00    +0.000 HD
ENDBRANCH  10  12
ENDBRANCH   9  10
ENDBRANCH   1   9
BRANCH   1  14
ATOM     14  C   UNL     1       2.929  22.165 -15.773  0.00  0.00    +0.000 C 
BRANCH  14  15
ATOM     15  C   UNL     1       2.393  21.328 -14.586  0.00  0.00    +0.000 C 
ATOM     16  C   UNL     1       1.372  22.077 -13.738  0.00  0.00    +0.000 C 
BRANCH  15  17
ATOM     17  O   UNL     1       1.793  20.111 -15.028  0.00  0.00    +0.000 OA
ATOM     18  H   UNL     1       1.153  20.380 -15.717  0.00  0.00    +0.000 HD
ENDBRANCH  15  17
ENDBRANCH  14  15
ENDBRANCH   1  14
TORSDOF 7
ENDMDL
MODEL 9
REMARK VINA RESULT:    -3.338     21.148     23.338
REMARK INTER + INTRA:          -4.869
REMARK INTER:                  -4.446
REMARK INTRA:                  -0.423
REMARK UNBOUND:                -0.360
REMARK  Name = 
REMARK  10 active torsions:
REMARK  status: ('A' for Active; 'I' for Inactive)
REMARK    1  A    between atoms: C_1  and  C_2
REMARK    2  A    between atoms: C_5  and  N_8
REMARK    3  A    between atoms: N_8  and  C_9
REMARK    4  A    between atoms: N_8  and  C_13
REMARK    5  A    between atoms: C_9  and  C_10
REMARK    6  A    between atoms: C_10  and  C_11
REMARK    7  A    between atoms: C_10  and  O_12
REMARK    8  A    between atoms: C_13  and  C_14
REMARK    9  A    between atoms: C_14  and  C_15
REMARK   10  A    between atoms: C_14  and  O_16
REMARK                            x       y       z     vdW  Elec       q    Type
REMARK                         _______ _______ _______ _____ _____    ______ ____
ROOT
ATOM      1  N   UNL     1       3.875  21.951 -16.920  0.00  0.00    +0.000 N 
ENDROOT
BRANCH   1   6
ATOM      2  C   UNL     1       8.790  21.717 -13.900  0.00  0.00    +0.000 C 
ATOM      3  C   UNL     1       7.504  21.762 -14.668  0.00  0.00    +0.000 A 
ATOM      4  C   UNL     1       7.273  20.889 -15.725  0.00  0.00    +0.000 A 
ATOM      5  C   UNL     1       6.078  20.955 -16.460  0.00  0.00    +0.000 A 
ATOM      6  C   UNL     1       5.073  21.903 -16.195  0.00  0.00    +0.000 A 
ATOM      7  C   UNL     1       5.340  22.768 -15.118  0.00  0.00    +0.000 A 
ATOM      8  C   UNL     1       6.530  22.711 -14.373  0.00  0.00    +0.000 A 
ENDBRANCH   1   6
BRANCH   1   9
ATOM      9  C   UNL     1       2.585  22.138 -16.212  0.00  0.00    +0.000 C 
BRANCH   9  10
ATOM     10  C   UNL     1       2.520  21.368 -14.871  0.00  0.00    +0.000 C 
ATOM     11  C   UNL     1       1.865  22.216 -13.787  0.00  0.00    +0.000 C 
BRANCH  10  12
ATOM     12  O   UNL     1       1.760  20.159 -15.007  0.00  0.00    +0.000 OA
ATOM     13  H   UNL     1       0.933  20.265 -14.509  0.00  0.00    +0.000 HD
ENDBRANCH  10  12
ENDBRANCH   9  10
ENDBRANCH   1   9
BRANCH   1  14
ATOM     14  C   UNL     1       3.765  21.331 -18.265  0.00  0.00    +0.000 C 
BRANCH  14  15
ATOM     15  C   UNL     1       2.773  20.143 -18.282  0.00  0.00    +0.000 C 
ATOM     16  C   UNL     1       2.399  19.695 -19.690  0.00  0.00    +0.000 C 
BRANCH  15  17
ATOM     17  O   UNL     1       3.291  19.014 -17.582  0.00  0.00    +0.000 OA
ATOM     18  H   UNL     1       2.921  18.236 -18.046  0.00  0.00    +0.000 HD
ENDBRANCH  15  17
ENDBRANCH  14  15
ENDBRANCH   1  14
TORSDOF 7
ENDMDL
