MODEL 1
REMARK VINA RESULT:    -3.951      0.000      0.000
REMARK INTER + INTRA:          -5.975
REMARK INTER:                  -5.338
REMARK INTRA:                  -0.638
REMARK UNBOUND:                -0.638
REMARK  Name = 
REMARK  10 active torsions:
REMARK  status: ('A' for Active; 'I' for Inactive)
REMARK    1  A    between atoms: C_1  and  C_2
REMARK    2  A    between atoms: C_5  and  N_8
REMARK    3  A    between atoms: N_8  and  C_9
REMARK    4  A    between atoms: N_8  and  C_13
REMARK    5  A    between atoms: C_9  and  C_10
REMARK    6  A    between atoms: C_10  and  C_11
REMARK    7  A    between atoms: C_10  and  O_12
REMARK    8  A    between atoms: C_13  and  C_14
REMARK    9  A    between atoms: C_14  and  C_15
REMARK   10  A    between atoms: C_14  and  O_16
REMARK                            x       y       z     vdW  Elec       q    Type
REMARK                         _______ _______ _______ _____ _____    ______ ____
ROOT
ATOM      1  N   UNL     1      17.197   9.314   6.566  0.00  0.00    +0.000 N 
ENDROOT
BRANCH   1   6
ATOM      2  C   UNL     1      11.436   9.193   6.207  0.00  0.00    +0.000 C 
ATOM      3  C   UNL     1      12.932   9.216   6.276  0.00  0.00    +0.000 A 
ATOM      4  C   UNL     1      13.644   8.111   6.731  0.00  0.00    +0.000 A 
ATOM      5  C   UNL     1      15.045   8.149   6.823  0.00  0.00    +0.000 A 
ATOM      6  C   UNL     1      15.798   9.290   6.491  0.00  0.00    +0.000 A 
ATOM      7  C   UNL     1      15.046  10.387   6.033  0.00  0.00    +0.000 A 
ATOM      8  C   UNL     1      13.645  10.362   5.934  0.00  0.00    +0.000 A 
ENDBRANCH   1   6
BRANCH   1   9
ATOM      9  C   UNL     1      17.929   8.177   7.173  0.00  0.00    +0.000 C 
BRANCH   9  10
ATOM     10  C   UNL     1      18.816   7.421   6.154  0.00  0.00    +0.000 C 
ATOM     11  C   UNL     1      19.474   6.207   6.799  0.00  0.00    +0.000 C 
BRANCH  10  12
ATOM     12  O   UNL     1      18.042   6.965   5.036  0.00  0.00    +0.000 OA
ATOM     13  H   UNL     1      17.177   6.673   5.368  0.00  0.00    +0.000 HD
ENDBRANCH  10  12
ENDBRANCH   9  10
ENDBRANCH   1   9
BRANCH   1  14
ATOM     14  C   UNL     1      17.945  10.597   6.541  0.00  0.00    +0.000 C 
BRANCH  14  15
ATOM     15  C   UNL     1      18.601  10.864   5.165  0.00  0.00    +0.000 C 
ATOM     16  C   UNL     1      20.117  10.706   5.181  0.00  0.00    +0.000 C 
BRANCH  15  17
ATOM     17  O   UNL     1      18.078  10.003   4.155  0.00  0.00    +0.000 OA
ATOM     18  H   UNL     1      17.331   9.537   4.583  0.00  0.00    +0.000 HD
ENDBRANCH  15  17
ENDBRANCH  14  15
ENDBRANCH   1  14
TORSDOF 7
ENDMDL
MODEL 2
REMARK VINA RESULT:    -3.918      1.169      2.917
REMARK INTER + INTRA:          -5.929
REMARK INTER:                  -5.443
REMARK INTRA:                  -0.487
REMARK UNBOUND:                -0.638
REMARK  Name = 
REMARK  10 active torsions:
REMARK  status: ('A' for Active; 'I' for Inactive)
REMARK    1  A    between atoms: C_1  and  C_2
REMARK    2  A    between atoms: C_5  and  N_8
REMARK    3  A    between atoms: N_8  and  C_9
REMARK    4  A    between atoms: N_8  and  C_13
REMARK    5  A    between atoms: C_9  and  C_10
REMARK    6  A    between atoms: C_10  and  C_11
REMARK    7  A    between atoms: C_10  and  O_12
REMARK    8  A    between atoms: C_13  and  C_14
REMARK    9  A    between atoms: C_14  and  C_15
REMARK   10  A    between atoms: C_14  and  O_16
REMARK                            x       y       z     vdW  Elec       q    Type
REMARK                         _______ _______ _______ _____ _____    ______ ____
ROOT
ATOM      1  N   UNL     1      16.516   9.294   6.374  0.00  0.00    +0.000 N 
ENDROOT
BRANCH   1   6
ATOM      2  C   UNL     1      10.745   9.261   6.519  0.00  0.00    +0.000 C 
ATOM      3  C   UNL     1      12.242   9.256   6.461  0.00  0.00    +0.000 A 
ATOM      4  C   UNL     1      12.979   8.271   7.109  0.00  0.00    +0.000 A 
ATOM      5  C   UNL     1      14.383   8.288   7.076  0.00  0.00    +0.000 A 
ATOM      6  C   UNL     1      15.116   9.293   6.420  0.00  0.00    +0.000 A 
ATOM      7  C   UNL     1      14.339  10.272   5.773  0.00  0.00    +0.000 A 
ATOM      8  C   UNL     1      12.934  10.265   5.797  0.00  0.00    +0.000 A 
ENDBRANCH   1   6
BRANCH   1   9
ATOM      9  C   UNL     1      17.231  10.255   5.501  0.00  0.00    +0.000 C 
BRANCH   9  10
ATOM     10  C   UNL     1      17.855  11.433   6.288  0.00  0.00    +0.000 C 
ATOM     11  C   UNL     1      19.343  11.563   5.985  0.00  0.00    +0.000 C 
BRANCH  10  12
ATOM     12  O   UNL     1      17.222  12.673   5.947  0.00  0.00    +0.000 OA
ATOM     13  H   UNL     1      16.977  13.124   6.773  0.00  0.00    +0.000 HD
ENDBRANCH  10  12
ENDBRANCH   9  10
ENDBRANCH   1   9
BRANCH   1  14
ATOM     14  C   UNL     1      17.298   8.086   6.746  0.00  0.00    +0.000 C 
BRANCH  14  15
ATOM     15  C   UNL     1      18.280   7.660   5.628  0.00  0.00    +0.000 C 
ATOM     16  C   UNL     1      19.428   6.797   6.137  0.00  0.00    +0.000 C 
BRANCH  15  17
ATOM     17  O   UNL     1      17.617   6.945   4.587  0.00  0.00    +0.000 OA
ATOM     18  H   UNL     1      18.104   7.176   3.771  0.00  0.00    +0.000 HD
ENDBRANCH  15  17
ENDBRANCH  14  15
ENDBRANCH   1  14
TORSDOF 7
ENDMDL
MODEL 3
REMARK VINA RESULT:    -3.909      9.224     11.022
REMARK INTER + INTRA:          -5.918
REMARK INTER:                  -5.600
REMARK INTRA:                  -0.319
REMARK UNBOUND:                -0.638
REMARK  Name = 
REMARK  10 active torsions:
REMARK  status: ('A' for Active; 'I' for Inactive)
REMARK    1  A    between atoms: C_1  and  C_2
REMARK    2  A    between atoms: C_5  and  N_8
REMARK    3  A    between atoms: N_8  and  C_9
REMARK    4  A    between atoms: N_8  and  C_13
REMARK    5  A    between atoms: C_9  and  C_10
REMARK    6  A    between atoms: C_10  and  C_11
REMARK    7  A    between atoms: C_10  and  O_12
REMARK    8  A    between atoms: C_13  and  C_14
REMARK    9  A    between atoms: C_14  and  C_15
REMARK   10  A    between atoms: C_14  and  O_16
REMARK                            x       y       z     vdW  Elec       q    Type
REMARK                         _______ _______ _______ _____ _____    ______ ____
ROOT
ATOM      1  N   UNL     1      11.801  18.387   3.121  0.00  0.00    +0.000 N 
ENDROOT
BRANCH   1   6
ATOM      2  C   UNL     1       7.265  18.561   6.688  0.00  0.00    +0.000 C 
ATOM      3  C   UNL     1       8.436  18.493   5.756  0.00  0.00    +0.000 A 
ATOM      4  C   UNL     1       9.688  18.090   6.210  0.00  0.00    +0.000 A 
ATOM      5  C   UNL     1      10.789  18.056   5.339  0.00  0.00    +0.000 A 
ATOM      6  C   UNL     1      10.703  18.441   3.989  0.00  0.00    +0.000 A 
ATOM      7  C   UNL     1       9.423  18.840   3.564  0.00  0.00    +0.000 A 
ATOM      8  C   UNL     1       8.313  18.877   4.424  0.00  0.00    +0.000 A 
ENDBRANCH   1   6
BRANCH   1   9
ATOM      9  C   UNL     1      13.179  18.338   3.667  0.00  0.00    +0.000 C 
BRANCH   9  10
ATOM     10  C   UNL     1      13.794  16.918   3.618  0.00  0.00    +0.000 C 
ATOM     11  C   UNL     1      14.723  16.768   2.419  0.00  0.00    +0.000 C 
BRANCH  10  12
ATOM     12  O   UNL     1      14.553  16.645   4.804  0.00  0.00    +0.000 OA
ATOM     13  H   UNL     1      14.162  15.870   5.241  0.00  0.00    +0.000 HD
ENDBRANCH  10  12
ENDBRANCH   9  10
ENDBRANCH   1   9
BRANCH   1  14
ATOM     14  C   UNL     1      11.701  18.877   1.723  0.00  0.00    +0.000 C 
BRANCH  14  15
ATOM     15  C   UNL     1      11.252  17.764   0.744  0.00  0.00    +0.000 C 
ATOM     16  C   UNL     1      11.083  16.407   1.417  0.00  0.00    +0.000 C 
BRANCH  15  17
ATOM     17  O   UNL     1      10.023  18.094   0.099  0.00  0.00    +0.000 OA
ATOM     18  H   UNL     1       9.382  17.430   0.423  0.00  0.00    +0.000 HD
ENDBRANCH  15  17
ENDBRANCH  14  15
ENDBRANCH   1  14
TORSDOF 7
ENDMDL
MODEL 4
REMARK VINA RESULT:    -3.908      9.418     11.421
REMARK INTER + INTRA:          -5.917
REMARK INTER:                  -5.319
REMARK INTRA:                  -0.597
REMARK UNBOUND:                -0.638
REMARK  Name = 
REMARK  10 active torsions:
REMARK  status: ('A' for Active; 'I' for Inactive)
REMARK    1  A    between atoms: C_1  and  C_2
REMARK    2  A    between atoms: C_5  and  N_8
REMARK    3  A    between atoms: N_8  and  C_9
REMARK    4  A    between atoms: N_8  and  C_13
REMARK    5  A    between atoms: C_9  and  C_10
REMARK    6  A    between atoms: C_10  and  C_11
REMARK    7  A    between atoms: C_10  and  O_12
REMARK    8  A    between atoms: C_13  and  C_14
REMARK    9  A    between atoms: C_14  and  C_15
REMARK   10  A    between atoms: C_14  and  O_16
REMARK                            x       y       z     vdW  Elec       q    Type
REMARK                         _______ _______ _______ _____ _____    ______ ____
ROOT
ATOM      1  N   UNL     1      11.535  18.069   3.235  0.00  0.00    +0.000 N 
ENDROOT
BRANCH   1   6
ATOM      2  C   UNL     1      17.088  16.537   3.610  0.00  0.00    +0.000 C 
ATOM      3  C   UNL     1      15.654  16.956   3.502  0.00  0.00    +0.000 A 
ATOM      4  C   UNL     1      15.033  17.653   4.533  0.00  0.00    +0.000 A 
ATOM      5  C   UNL     1      13.680  18.017   4.439  0.00  0.00    +0.000 A 
ATOM      6  C   UNL     1      12.878  17.686   3.331  0.00  0.00    +0.000 A 
ATOM      7  C   UNL     1      13.539  16.983   2.307  0.00  0.00    +0.000 A 
ATOM      8  C   UNL     1      14.892  16.615   2.388  0.00  0.00    +0.000 A 
ENDBRANCH   1   6
BRANCH   1   9
ATOM      9  C   UNL     1      10.913  18.877   4.312  0.00  0.00    +0.000 C 
BRANCH   9  10
ATOM     10  C   UNL     1       9.966  18.048   5.214  0.00  0.00    +0.000 C 
ATOM     11  C   UNL     1      10.492  17.982   6.643  0.00  0.00    +0.000 C 
BRANCH  10  12
ATOM     12  O   UNL     1       8.653  18.626   5.250  0.00  0.00    +0.000 OA
ATOM     13  H   UNL     1       8.098  18.152   4.608  0.00  0.00    +0.000 HD
ENDBRANCH  10  12
ENDBRANCH   9  10
ENDBRANCH   1   9
BRANCH   1  14
ATOM     14  C   UNL     1      10.576  17.308   2.394  0.00  0.00    +0.000 C 
BRANCH  14  15
ATOM     15  C   UNL     1       9.983  18.172   1.256  0.00  0.00    +0.000 C 
ATOM     16  C   UNL     1      10.823  18.149  -0.015  0.00  0.00    +0.000 C 
BRANCH  15  17
ATOM     17  O   UNL     1       8.659  17.762   0.917  0.00  0.00    +0.000 OA
ATOM     18  H   UNL     1       8.076  18.445   1.304  0.00  0.00    +0.000 HD
ENDBRANCH  15  17
ENDBRANCH  14  15
ENDBRANCH   1  14
TORSDOF 7
ENDMDL
MODEL 5
REMARK VINA RESULT:    -3.621      2.392      6.210
REMARK INTER + INTRA:          -5.529
REMARK INTER:                  -5.078
REMARK INTRA:                  -0.451
REMARK UNBOUND:                -0.638
REMARK  Name = 
REMARK  10 active torsions:
REMARK  status: ('A' for Active; 'I' for Inactive)
REMARK    1  A    between atoms: C_1  and  C_2
REMARK    2  A    between atoms: C_5  and  N_8
REMARK    3  A    between atoms: N_8  and  C_9
REMARK    4  A    between atoms: N_8  and  C_13
REMARK    5  A    between atoms: C_9  and  C_10
REMARK    6  A    between atoms: C_10  and  C_11
REMARK    7  A    between atoms: C_10  and  O_12
REMARK    8  A    between atoms: C_13  and  C_14
REMARK    9  A    between atoms: C_14  and  C_15
REMARK   10  A    between atoms: C_14  and  O_16
REMARK                            x       y       z     vdW  Elec       q    Type
REMARK                         _______ _______ _______ _____ _____    ______ ____
ROOT
ATOM      1  N   UNL     1      19.648   9.499   5.483  0.00  0.00    +0.000 N 
ENDROOT
BRANCH   1   6
ATOM      2  C   UNL     1      22.516  14.100   3.499  0.00  0.00    +0.000 C 
ATOM      3  C   UNL     1      21.760  12.904   3.992  0.00  0.00    +0.000 A 
ATOM      4  C   UNL     1      20.552  13.051   4.666  0.00  0.00    +0.000 A 
ATOM      5  C   UNL     1      19.862  11.928   5.152  0.00  0.00    +0.000 A 
ATOM      6  C   UNL     1      20.350  10.616   5.013  0.00  0.00    +0.000 A 
ATOM      7  C   UNL     1      21.572  10.505   4.324  0.00  0.00    +0.000 A 
ATOM      8  C   UNL     1      22.271  11.620   3.831  0.00  0.00    +0.000 A 
ENDBRANCH   1   6
BRANCH   1   9
ATOM      9  C   UNL     1      18.182   9.404   5.280  0.00  0.00    +0.000 C 
BRANCH   9  10
ATOM     10  C   UNL     1      17.589   8.075   5.808  0.00  0.00    +0.000 C 
ATOM     11  C   UNL     1      16.152   8.268   6.278  0.00  0.00    +0.000 C 
BRANCH  10  12
ATOM     12  O   UNL     1      17.590   7.068   4.786  0.00  0.00    +0.000 OA
ATOM     13  H   UNL     1      17.890   7.480   3.959  0.00  0.00    +0.000 HD
ENDBRANCH  10  12
ENDBRANCH   9  10
ENDBRANCH   1   9
BRANCH   1  14
ATOM     14  C   UNL     1      20.180   8.667   6.592  0.00  0.00    +0.000 C 
BRANCH  14  15
ATOM     15  C   UNL     1      21.140   7.563   6.085  0.00  0.00    +0.000 C 
ATOM     16  C   UNL     1      22.194   7.167   7.112  0.00  0.00    +0.000 C 
BRANCH  15  17
ATOM     17  O   UNL     1      20.432   6.385   5.702  0.00  0.00    +0.000 OA
ATOM     18  H   UNL     1      19.498   6.665   5.623  0.00  0.00    +0.000 HD
ENDBRANCH  15  17
ENDBRANCH  14  15
ENDBRANCH   1  14
TORSDOF 7
ENDMDL
MODEL 6
REMARK VINA RESULT:    -3.613      4.027      6.886
REMARK INTER + INTRA:          -5.518
REMARK INTER:                  -4.998
REMARK INTRA:                  -0.520
REMARK UNBOUND:                -0.638
REMARK  Name = 
REMARK  10 active torsions:
REMARK  status: ('A' for Active; 'I' for Inactive)
REMARK    1  A    between atoms: C_1  and  C_2
REMARK    2  A    between atoms: C_5  and  N_8
REMARK    3  A    between atoms: N_8  and  C_9
REMARK    4  A    between atoms: N_8  and  C_13
REMARK    5  A    between atoms: C_9  and  C_10
REMARK    6  A    between atoms: C_10  and  C_11
REMARK    7  A    between atoms: C_10  and  O_12
REMARK    8  A    between atoms: C_13  and  C_14
REMARK    9  A    between atoms: C_14  and  C_15
REMARK   10  A    between atoms: C_14  and  O_16
REMARK                            x       y       z     vdW  Elec       q    Type
REMARK                         _______ _______ _______ _____ _____    ______ ____
ROOT
ATOM      1  N   UNL     1      19.435  12.963   4.804  0.00  0.00    +0.000 N 
ENDROOT
BRANCH   1   6
ATOM      2  C   UNL     1      19.468  17.278   0.970  0.00  0.00    +0.000 C 
ATOM      3  C   UNL     1      19.472  16.173   1.981  0.00  0.00    +0.000 A 
ATOM      4  C   UNL     1      20.496  15.232   2.008  0.00  0.00    +0.000 A 
ATOM      5  C   UNL     1      20.479  14.181   2.939  0.00  0.00    +0.000 A 
ATOM      6  C   UNL     1      19.436  14.002   3.866  0.00  0.00    +0.000 A 
ATOM      7  C   UNL     1      18.419  14.973   3.812  0.00  0.00    +0.000 A 
ATOM      8  C   UNL     1      18.425  16.030   2.887  0.00  0.00    +0.000 A 
ENDBRANCH   1   6
BRANCH   1   9
ATOM      9  C   UNL     1      18.156  12.486   5.385  0.00  0.00    +0.000 C 
BRANCH   9  10
ATOM     10  C   UNL     1      17.581  11.255   4.642  0.00  0.00    +0.000 C 
ATOM     11  C   UNL     1      16.582  10.508   5.517  0.00  0.00    +0.000 C 
BRANCH  10  12
ATOM     12  O   UNL     1      16.910  11.649   3.437  0.00  0.00    +0.000 OA
ATOM     13  H   UNL     1      16.214  10.996   3.253  0.00  0.00    +0.000 HD
ENDBRANCH  10  12
ENDBRANCH   9  10
ENDBRANCH   1   9
BRANCH   1  14
ATOM     14  C   UNL     1      20.641  12.659   5.617  0.00  0.00    +0.000 C 
BRANCH  14  15
ATOM     15  C   UNL     1      21.276  11.301   5.234  0.00  0.00    +0.000 C 
ATOM     16  C   UNL     1      20.831  10.155   6.135  0.00  0.00    +0.000 C 
BRANCH  15  17
ATOM     17  O   UNL     1      20.981  10.942   3.885  0.00  0.00    +0.000 OA
ATOM     18  H   UNL     1      21.840  10.672   3.502  0.00  0.00    +0.000 HD
ENDBRANCH  15  17
ENDBRANCH  14  15
ENDBRANCH   1  14
TORSDOF 7
ENDMDL
MODEL 7
REMARK VINA RESULT:    -3.605      4.033      6.916
REMARK INTER + INTRA:          -5.507
REMARK INTER:                  -4.994
REMARK INTRA:                  -0.513
REMARK UNBOUND:                -0.638
REMARK  Name = 
REMARK  10 active torsions:
REMARK  status: ('A' for Active; 'I' for Inactive)
REMARK    1  A    between atoms: C_1  and  C_2
REMARK    2  A    between atoms: C_5  and  N_8
REMARK    3  A    between atoms: N_8  and  C_9
REMARK    4  A    between atoms: N_8  and  C_13
REMARK    5  A    between atoms: C_9  and  C_10
REMARK    6  A    between atoms: C_10  and  C_11
REMARK    7  A    between atoms: C_10  and  O_12
REMARK    8  A    between atoms: C_13  and  C_14
REMARK    9  A    between atoms: C_14  and  C_15
REMARK   10  A    between atoms: C_14  and  O_16
REMARK                            x       y       z     vdW  Elec       q    Type
REMARK                         _______ _______ _______ _____ _____    ______ ____
ROOT
ATOM      1  N   UNL     1      19.448  12.984   4.814  0.00  0.00    +0.000 N 
ENDROOT
BRANCH   1   6
ATOM      2  C   UNL     1      19.483  17.264   0.940  0.00  0.00    +0.000 C 
ATOM      3  C   UNL     1      19.462  16.139   1.929  0.00  0.00    +0.000 A 
ATOM      4  C   UNL     1      18.438  16.029   2.864  0.00  0.00    +0.000 A 
ATOM      5  C   UNL     1      18.439  14.990   3.808  0.00  0.00    +0.000 A 
ATOM      6  C   UNL     1      19.464  14.029   3.882  0.00  0.00    +0.000 A 
ATOM      7  C   UNL     1      20.481  14.169   2.920  0.00  0.00    +0.000 A 
ATOM      8  C   UNL     1      20.491  15.203   1.969  0.00  0.00    +0.000 A 
ENDBRANCH   1   6
BRANCH   1   9
ATOM      9  C   UNL     1      18.161  12.510   5.378  0.00  0.00    +0.000 C 
BRANCH   9  10
ATOM     10  C   UNL     1      17.598  11.275   4.633  0.00  0.00    +0.000 C 
ATOM     11  C   UNL     1      16.583  10.534   5.495  0.00  0.00    +0.000 C 
BRANCH  10  12
ATOM     12  O   UNL     1      16.947  11.661   3.414  0.00  0.00    +0.000 OA
ATOM     13  H   UNL     1      16.011  11.828   3.612  0.00  0.00    +0.000 HD
ENDBRANCH  10  12
ENDBRANCH   9  10
ENDBRANCH   1   9
BRANCH   1  14
ATOM     14  C   UNL     1      20.644  12.669   5.637  0.00  0.00    +0.000 C 
BRANCH  14  15
ATOM     15  C   UNL     1      21.272  11.306   5.258  0.00  0.00    +0.000 C 
ATOM     16  C   UNL     1      20.807  10.163   6.153  0.00  0.00    +0.000 C 
BRANCH  15  17
ATOM     17  O   UNL     1      20.987  10.952   3.905  0.00  0.00    +0.000 OA
ATOM     18  H   UNL     1      20.360  10.204   3.966  0.00  0.00    +0.000 HD
ENDBRANCH  15  17
ENDBRANCH  14  15
ENDBRANCH   1  14
TORSDOF 7
ENDMDL
MODEL 8
REMARK VINA RESULT:    -3.573      8.926     10.989
REMARK INTER + INTRA:          -5.464
REMARK INTER:                  -5.012
REMARK INTRA:                  -0.452
REMARK UNBOUND:                -0.638
REMARK  Name = 
REMARK  10 active torsions:
REMARK  status: ('A' for Active; 'I' for Inactive)
REMARK    1  A    between atoms: C_1  and  C_2
REMARK    2  A    between atoms: C_5  and  N_8
REMARK    3  A    between atoms: N_8  and  C_9
REMARK    4  A    between atoms: N_8  and  C_13
REMARK    5  A    between atoms: C_9  and  C_10
REMARK    6  A    between atoms: C_10  and  C_11
REMARK    7  A    between atoms: C_10  and  O_12
REMARK    8  A    between atoms: C_13  and  C_14
REMARK    9  A    between atoms: C_14  and  C_15
REMARK   10  A    between atoms: C_14  and  O_16
REMARK                            x       y       z     vdW  Elec       q    Type
REMARK                         _______ _______ _______ _____ _____    ______ ____
ROOT
ATOM      1  N   UNL     1      13.021  18.110   2.928  0.00  0.00    +0.000 N 
ENDROOT
BRANCH   1   6
ATOM      2  C   UNL     1      18.710  17.148   2.726  0.00  0.00    +0.000 C 
ATOM      3  C   UNL     1      17.234  17.391   2.802  0.00  0.00    +0.000 A 
ATOM      4  C   UNL     1      16.327  16.382   2.497  0.00  0.00    +0.000 A 
ATOM      5  C   UNL     1      14.944  16.625   2.541  0.00  0.00    +0.000 A 
ATOM      6  C   UNL     1      14.402  17.881   2.867  0.00  0.00    +0.000 A 
ATOM      7  C   UNL     1      15.348  18.877   3.172  0.00  0.00    +0.000 A 
ATOM      8  C   UNL     1      16.733  18.647   3.133  0.00  0.00    +0.000 A 
ENDBRANCH   1   6
BRANCH   1   9
ATOM      9  C   UNL     1      12.217  18.142   1.683  0.00  0.00    +0.000 C 
BRANCH   9  10
ATOM     10  C   UNL     1      11.088  17.082   1.669  0.00  0.00    +0.000 C 
ATOM     11  C   UNL     1       9.719  17.744   1.767  0.00  0.00    +0.000 C 
BRANCH  10  12
ATOM     12  O   UNL     1      11.123  16.308   0.462  0.00  0.00    +0.000 OA
ATOM     13  H   UNL     1      11.022  15.372   0.702  0.00  0.00    +0.000 HD
ENDBRANCH  10  12
ENDBRANCH   9  10
ENDBRANCH   1   9
BRANCH   1  14
ATOM     14  C   UNL     1      12.409  18.812   4.085  0.00  0.00    +0.000 C 
BRANCH  14  15
ATOM     15  C   UNL     1      12.096  17.849   5.254  0.00  0.00    +0.000 C 
ATOM     16  C   UNL     1      10.684  18.012   5.804  0.00  0.00    +0.000 C 
BRANCH  15  17
ATOM     17  O   UNL     1      12.267  16.484   4.873  0.00  0.00    +0.000 OA
ATOM     18  H   UNL     1      11.626  15.987   5.420  0.00  0.00    +0.000 HD
ENDBRANCH  15  17
ENDBRANCH  14  15
ENDBRANCH   1  14
TORSDOF 7
ENDMDL
MODEL 9
REMARK VINA RESULT:    -3.489      8.854     10.811
REMARK INTER + INTRA:          -5.351
REMARK INTER:                  -4.995
REMARK INTRA:                  -0.356
REMARK UNBOUND:                -0.638
REMARK  Name = 
REMARK  10 active torsions:
REMARK  status: ('A' for Active; 'I' for Inactive)
REMARK    1  A    between atoms: C_1  and  C_2
REMARK    2  A    between atoms: C_5  and  N_8
REMARK    3  A    between atoms: N_8  and  C_9
REMARK    4  A    between atoms: N_8  and  C_13
REMARK    5  A    between atoms: C_9  and  C_10
REMARK    6  A    between atoms: C_10  and  C_11
REMARK    7  A    between atoms: C_10  and  O_12
REMARK    8  A    between atoms: C_13  and  C_14
REMARK    9  A    between atoms: C_14  and  C_15
REMARK   10  A    between atoms: C_14  and  O_16
REMARK                            x       y       z     vdW  Elec       q    Type
REMARK                         _______ _______ _______ _____ _____    ______ ____
ROOT
ATOM      1  N   UNL     1      12.909  18.501   2.856  0.00  0.00    +0.000 N 
ENDROOT
BRANCH   1   6
ATOM      2  C   UNL     1      18.353  16.603   2.552  0.00  0.00    +0.000 C 
ATOM      3  C   UNL     1      16.940  17.090   2.656  0.00  0.00    +0.000 A 
ATOM      4  C   UNL     1      15.870  16.238   2.401  0.00  0.00    +0.000 A 
ATOM      5  C   UNL     1      14.548  16.707   2.470  0.00  0.00    +0.000 A 
ATOM      6  C   UNL     1      14.230  18.044   2.770  0.00  0.00    +0.000 A 
ATOM      7  C   UNL     1      15.336  18.876   3.024  0.00  0.00    +0.000 A 
ATOM      8  C   UNL     1      16.662  18.419   2.960  0.00  0.00    +0.000 A 
ENDBRANCH   1   6
BRANCH   1   9
ATOM      9  C   UNL     1      12.243  18.607   4.177  0.00  0.00    +0.000 C 
BRANCH   9  10
ATOM     10  C   UNL     1      12.843  17.643   5.230  0.00  0.00    +0.000 C 
ATOM     11  C   UNL     1      12.635  18.180   6.641  0.00  0.00    +0.000 C 
BRANCH  10  12
ATOM     12  O   UNL     1      12.228  16.349   5.152  0.00  0.00    +0.000 OA
ATOM     13  H   UNL     1      11.548  16.380   4.459  0.00  0.00    +0.000 HD
ENDBRANCH  10  12
ENDBRANCH   9  10
ENDBRANCH   1   9
BRANCH   1  14
ATOM     14  C   UNL     1      11.985  18.403   1.697  0.00  0.00    +0.000 C 
BRANCH  14  15
ATOM     15  C   UNL     1      10.933  17.282   1.882  0.00  0.00    +0.000 C 
ATOM     16  C   UNL     1       9.498  17.794   1.841  0.00  0.00    +0.000 C 
BRANCH  15  17
ATOM     17  O   UNL     1      11.068  16.265   0.890  0.00  0.00    +0.000 OA
ATOM     18  H   UNL     1      10.738  15.450   1.318  0.00  0.00    +0.000 HD
ENDBRANCH  15  17
ENDBRANCH  14  15
ENDBRANCH   1  14
TORSDOF 7
ENDMDL
