MODEL 1
REMARK VINA RESULT:    -3.341      0.000      0.000
REMARK INTER + INTRA:          -3.675
REMARK INTER:                  -3.634
REMARK INTRA:                  -0.041
REMARK UNBOUND:                -0.041
REMARK  Name = 
REMARK  3 active torsions:
REMARK  status: ('A' for Active; 'I' for Inactive)
REMARK    1  A    between atoms: C_1  and  O_2
REMARK    2  A    between atoms: O_2  and  C_3
REMARK    3  A    between atoms: C_8  and  O_9
REMARK                            x       y       z     vdW  Elec       q    Type
REMARK                         _______ _______ _______ _____ _____    ______ ____
ROOT
ATOM      1  C   UNL     1     -10.904  13.147 -18.089  0.00  0.00    +0.000 A 
ATOM      2  C   UNL     1     -11.027  13.771 -19.330  0.00  0.00    +0.000 A 
ATOM      3  C   UNL     1     -11.064  15.169 -19.409  0.00  0.00    +0.000 A 
ATOM      4  C   UNL     1     -10.978  15.946 -18.253  0.00  0.00    +0.000 A 
ATOM      5  C   UNL     1     -10.854  15.330 -17.010  0.00  0.00    +0.000 A 
ATOM      6  C   UNL     1     -10.819  13.944 -16.940  0.00  0.00    +0.000 A 
ENDROOT
BRANCH   1   8
ATOM      7  C   UNL     1     -11.559  10.972 -18.785  0.00  0.00    +0.000 C 
ATOM      8  O   UNL     1     -10.856  11.795 -17.863  0.00  0.00    +0.000 OA
ENDBRANCH   1   8
BRANCH   6   9
ATOM      9  O   UNL     1     -10.697  13.361 -15.707  0.00  0.00    +0.000 OA
ATOM     10  H   UNL     1     -10.548  12.414 -15.893  0.00  0.00    +0.000 HD
ENDBRANCH   6   9
TORSDOF 2
ENDMDL
MODEL 2
REMARK VINA RESULT:    -3.226      1.090      2.954
REMARK INTER + INTRA:          -3.550
REMARK INTER:                  -3.505
REMARK INTRA:                  -0.045
REMARK UNBOUND:                -0.041
REMARK  Name = 
REMARK  3 active torsions:
REMARK  status: ('A' for Active; 'I' for Inactive)
REMARK    1  A    between atoms: C_1  and  O_2
REMARK    2  A    between atoms: O_2  and  C_3
REMARK    3  A    between atoms: C_8  and  O_9
REMARK                            x       y       z     vdW  Elec       q    Type
REMARK                         _______ _______ _______ _____ _____    ______ ____
ROOT
ATOM      1  C   UNL     1     -10.843  14.867 -17.391  0.00  0.00    +0.000 A 
ATOM      2  C   UNL     1     -10.956  15.611 -18.565  0.00  0.00    +0.000 A 
ATOM      3  C   UNL     1     -11.199  14.963 -19.782  0.00  0.00    +0.000 A 
ATOM      4  C   UNL     1     -11.330  13.574 -19.831  0.00  0.00    +0.000 A 
ATOM      5  C   UNL     1     -11.220  12.825 -18.663  0.00  0.00    +0.000 A 
ATOM      6  C   UNL     1     -10.978  13.475 -17.459  0.00  0.00    +0.000 A 
ENDROOT
BRANCH   1   8
ATOM      7  C   UNL     1     -11.692  16.031 -15.500  0.00  0.00    +0.000 C 
ATOM      8  O   UNL     1     -10.606  15.366 -16.135  0.00  0.00    +0.000 OA
ENDBRANCH   1   8
BRANCH   6   9
ATOM      9  O   UNL     1     -10.873  12.717 -16.324  0.00  0.00    +0.000 OA
ATOM     10  H   UNL     1     -11.500  11.981 -16.458  0.00  0.00    +0.000 HD
ENDBRANCH   6   9
TORSDOF 2
ENDMDL
MODEL 3
REMARK VINA RESULT:    -3.193     21.281     22.470
REMARK INTER + INTRA:          -3.514
REMARK INTER:                  -3.464
REMARK INTRA:                  -0.050
REMARK UNBOUND:                -0.041
REMARK  Name = 
REMARK  3 active torsions:
REMARK  status: ('A' for Active; 'I' for Inactive)
REMARK    1  A    between atoms: C_1  and  O_2
REMARK    2  A    between atoms: O_2  and  C_3
REMARK    3  A    between atoms: C_8  and  O_9
REMARK                            x       y       z     vdW  Elec       q    Type
REMARK                         _______ _______ _______ _____ _____    ______ ____
ROOT
ATOM      1  C   UNL     1      -1.230  19.981   1.202  0.00  0.00    +0.000 A 
ATOM      2  C   UNL     1      -0.265  20.159   2.192  0.00  0.00    +0.000 A 
ATOM      3  C   UNL     1       1.036  20.541   1.841  0.00  0.00    +0.000 A 
ATOM      4  C   UNL     1       1.377  20.743   0.503  0.00  0.00    +0.000 A 
ATOM      5  C   UNL     1       0.419  20.567  -0.493  0.00  0.00    +0.000 A 
ATOM      6  C   UNL     1      -0.869  20.189  -0.135  0.00  0.00    +0.000 A 
ENDROOT
BRANCH   1   8
ATOM      7  C   UNL     1      -2.753  18.435   2.171  0.00  0.00    +0.000 C 
ATOM      8  O   UNL     1      -2.536  19.611   1.399  0.00  0.00    +0.000 OA
ENDBRANCH   1   8
BRANCH   6   9
ATOM      9  O   UNL     1      -1.794  20.022  -1.131  0.00  0.00    +0.000 OA
ATOM     10  H   UNL     1      -2.224  19.169  -0.930  0.00  0.00    +0.000 HD
ENDBRANCH   6   9
TORSDOF 2
ENDMDL
MODEL 4
REMARK VINA RESULT:    -3.024      8.058     10.356
REMARK INTER + INTRA:          -3.330
REMARK INTER:                  -3.278
REMARK INTRA:                  -0.052
REMARK UNBOUND:                -0.041
REMARK  Name = 
REMARK  3 active torsions:
REMARK  status: ('A' for Active; 'I' for Inactive)
REMARK    1  A    between atoms: C_1  and  O_2
REMARK    2  A    between atoms: O_2  and  C_3
REMARK    3  A    between atoms: C_8  and  O_9
REMARK                            x       y       z     vdW  Elec       q    Type
REMARK                         _______ _______ _______ _____ _____    ______ ____
ROOT
ATOM      1  C   UNL     1     -11.168   5.155 -14.613  0.00  0.00    +0.000 A 
ATOM      2  C   UNL     1     -11.929   5.636 -13.549  0.00  0.00    +0.000 A 
ATOM      3  C   UNL     1     -12.382   4.756 -12.558  0.00  0.00    +0.000 A 
ATOM      4  C   UNL     1     -12.078   3.395 -12.628  0.00  0.00    +0.000 A 
ATOM      5  C   UNL     1     -11.318   2.906 -13.688  0.00  0.00    +0.000 A 
ATOM      6  C   UNL     1     -10.873   3.787 -14.666  0.00  0.00    +0.000 A 
ENDROOT
BRANCH   1   8
ATOM      7  C   UNL     1     -11.604   6.415 -16.580  0.00  0.00    +0.000 C 
ATOM      8  O   UNL     1     -10.661   5.897 -15.649  0.00  0.00    +0.000 OA
ENDBRANCH   1   8
BRANCH   6   9
ATOM      9  O   UNL     1     -10.128   3.283 -15.698  0.00  0.00    +0.000 OA
ATOM     10  H   UNL     1      -9.262   3.725 -15.618  0.00  0.00    +0.000 HD
ENDBRANCH   6   9
TORSDOF 2
ENDMDL
MODEL 5
REMARK VINA RESULT:    -2.978     21.405     22.937
REMARK INTER + INTRA:          -3.280
REMARK INTER:                  -3.231
REMARK INTRA:                  -0.049
REMARK UNBOUND:                -0.041
REMARK  Name = 
REMARK  3 active torsions:
REMARK  status: ('A' for Active; 'I' for Inactive)
REMARK    1  A    between atoms: C_1  and  O_2
REMARK    2  A    between atoms: O_2  and  C_3
REMARK    3  A    between atoms: C_8  and  O_9
REMARK                            x       y       z     vdW  Elec       q    Type
REMARK                         _______ _______ _______ _____ _____    ______ ____
ROOT
ATOM      1  C   UNL     1       0.437  20.901   0.964  0.00  0.00    +0.000 A 
ATOM      2  C   UNL     1      -0.090  20.427   2.164  0.00  0.00    +0.000 A 
ATOM      3  C   UNL     1      -1.241  19.629   2.156  0.00  0.00    +0.000 A 
ATOM      4  C   UNL     1      -1.868  19.304   0.952  0.00  0.00    +0.000 A 
ATOM      5  C   UNL     1      -1.347  19.773  -0.251  0.00  0.00    +0.000 A 
ATOM      6  C   UNL     1      -0.206  20.564  -0.234  0.00  0.00    +0.000 A 
ENDROOT
BRANCH   1   8
ATOM      7  C   UNL     1       2.806  21.061   1.063  0.00  0.00    +0.000 C 
ATOM      8  O   UNL     1       1.552  21.688   0.822  0.00  0.00    +0.000 OA
ENDBRANCH   1   8
BRANCH   6   9
ATOM      9  O   UNL     1       0.287  21.014  -1.430  0.00  0.00    +0.000 OA
ATOM     10  H   UNL     1       0.225  20.246  -2.029  0.00  0.00    +0.000 HD
ENDBRANCH   6   9
TORSDOF 2
ENDMDL
MODEL 6
REMARK VINA RESULT:    -2.967      7.949      9.611
REMARK INTER + INTRA:          -3.268
REMARK INTER:                  -3.218
REMARK INTRA:                  -0.050
REMARK UNBOUND:                -0.041
REMARK  Name = 
REMARK  3 active torsions:
REMARK  status: ('A' for Active; 'I' for Inactive)
REMARK    1  A    between atoms: C_1  and  O_2
REMARK    2  A    between atoms: O_2  and  C_3
REMARK    3  A    between atoms: C_8  and  O_9
REMARK                            x       y       z     vdW  Elec       q    Type
REMARK                         _______ _______ _______ _____ _____    ______ ____
ROOT
ATOM      1  C   UNL     1     -10.796   4.439 -14.516  0.00  0.00    +0.000 A 
ATOM      2  C   UNL     1     -10.889   3.520 -15.561  0.00  0.00    +0.000 A 
ATOM      3  C   UNL     1     -10.931   3.970 -16.887  0.00  0.00    +0.000 A 
ATOM      4  C   UNL     1     -10.882   5.336 -17.173  0.00  0.00    +0.000 A 
ATOM      5  C   UNL     1     -10.789   6.260 -16.134  0.00  0.00    +0.000 A 
ATOM      6  C   UNL     1     -10.748   5.804 -14.823  0.00  0.00    +0.000 A 
ENDROOT
BRANCH   1   8
ATOM      7  C   UNL     1     -11.792   3.320 -12.671  0.00  0.00    +0.000 C 
ATOM      8  O   UNL     1     -10.747   4.142 -13.178  0.00  0.00    +0.000 OA
ENDBRANCH   1   8
BRANCH   6   9
ATOM      9  O   UNL     1     -10.657   6.731 -13.819  0.00  0.00    +0.000 OA
ATOM     10  H   UNL     1     -10.049   7.413 -14.165  0.00  0.00    +0.000 HD
ENDBRANCH   6   9
TORSDOF 2
ENDMDL
MODEL 7
REMARK VINA RESULT:    -2.902      8.776     10.141
REMARK INTER + INTRA:          -3.197
REMARK INTER:                  -3.153
REMARK INTRA:                  -0.045
REMARK UNBOUND:                -0.041
REMARK  Name = 
REMARK  3 active torsions:
REMARK  status: ('A' for Active; 'I' for Inactive)
REMARK    1  A    between atoms: C_1  and  O_2
REMARK    2  A    between atoms: O_2  and  C_3
REMARK    3  A    between atoms: C_8  and  O_9
REMARK                            x       y       z     vdW  Elec       q    Type
REMARK                         _______ _______ _______ _____ _____    ______ ____
ROOT
ATOM      1  C   UNL     1     -11.316   4.285 -13.889  0.00  0.00    +0.000 A 
ATOM      2  C   UNL     1     -11.859   5.552 -13.684  0.00  0.00    +0.000 A 
ATOM      3  C   UNL     1     -11.888   6.480 -14.733  0.00  0.00    +0.000 A 
ATOM      4  C   UNL     1     -11.374   6.146 -15.987  0.00  0.00    +0.000 A 
ATOM      5  C   UNL     1     -10.829   4.882 -16.200  0.00  0.00    +0.000 A 
ATOM      6  C   UNL     1     -10.805   3.968 -15.154  0.00  0.00    +0.000 A 
ENDROOT
BRANCH   1   8
ATOM      7  C   UNL     1     -12.344   3.103 -12.102  0.00  0.00    +0.000 C 
ATOM      8  O   UNL     1     -11.221   3.282 -12.958  0.00  0.00    +0.000 OA
ENDBRANCH   1   8
BRANCH   6   9
ATOM      9  O   UNL     1     -10.264   2.732 -15.388  0.00  0.00    +0.000 OA
ATOM     10  H   UNL     1      -9.863   2.471 -14.537  0.00  0.00    +0.000 HD
ENDBRANCH   6   9
TORSDOF 2
ENDMDL
MODEL 8
REMARK VINA RESULT:    -2.900      9.395     10.731
REMARK INTER + INTRA:          -3.196
REMARK INTER:                  -3.158
REMARK INTRA:                  -0.038
REMARK UNBOUND:                -0.041
REMARK  Name = 
REMARK  3 active torsions:
REMARK  status: ('A' for Active; 'I' for Inactive)
REMARK    1  A    between atoms: C_1  and  O_2
REMARK    2  A    between atoms: O_2  and  C_3
REMARK    3  A    between atoms: C_8  and  O_9
REMARK                            x       y       z     vdW  Elec       q    Type
REMARK                         _______ _______ _______ _____ _____    ______ ____
ROOT
ATOM      1  C   UNL     1     -10.862   3.421 -15.243  0.00  0.00    +0.000 A 
ATOM      2  C   UNL     1     -11.433   2.522 -14.344  0.00  0.00    +0.000 A 
ATOM      3  C   UNL     1     -12.017   2.992 -13.161  0.00  0.00    +0.000 A 
ATOM      4  C   UNL     1     -12.032   4.358 -12.873  0.00  0.00    +0.000 A 
ATOM      5  C   UNL     1     -11.464   5.262 -13.767  0.00  0.00    +0.000 A 
ATOM      6  C   UNL     1     -10.886   4.788 -14.937  0.00  0.00    +0.000 A 
ENDROOT
BRANCH   1   8
ATOM      7  C   UNL     1      -9.929   1.735 -16.634  0.00  0.00    +0.000 C 
ATOM      8  O   UNL     1     -10.257   3.105 -16.434  0.00  0.00    +0.000 OA
ENDBRANCH   1   8
BRANCH   6   9
ATOM      9  O   UNL     1     -10.334   5.696 -15.800  0.00  0.00    +0.000 OA
ATOM     10  H   UNL     1     -10.185   5.196 -16.625  0.00  0.00    +0.000 HD
ENDBRANCH   6   9
TORSDOF 2
ENDMDL
MODEL 9
REMARK VINA RESULT:    -2.777      7.799     10.094
REMARK INTER + INTRA:          -3.062
REMARK INTER:                  -3.009
REMARK INTRA:                  -0.052
REMARK UNBOUND:                -0.041
REMARK  Name = 
REMARK  3 active torsions:
REMARK  status: ('A' for Active; 'I' for Inactive)
REMARK    1  A    between atoms: C_1  and  O_2
REMARK    2  A    between atoms: O_2  and  C_3
REMARK    3  A    between atoms: C_8  and  O_9
REMARK                            x       y       z     vdW  Elec       q    Type
REMARK                         _______ _______ _______ _____ _____    ______ ____
ROOT
ATOM      1  C   UNL     1     -10.991   4.767 -15.467  0.00  0.00    +0.000 A 
ATOM      2  C   UNL     1     -11.250   3.459 -15.874  0.00  0.00    +0.000 A 
ATOM      3  C   UNL     1     -11.539   2.474 -14.921  0.00  0.00    +0.000 A 
ATOM      4  C   UNL     1     -11.569   2.791 -13.562  0.00  0.00    +0.000 A 
ATOM      5  C   UNL     1     -11.312   4.096 -13.147  0.00  0.00    +0.000 A 
ATOM      6  C   UNL     1     -11.026   5.066 -14.099  0.00  0.00    +0.000 A 
ENDROOT
BRANCH   1   8
ATOM      7  C   UNL     1     -11.744   6.295 -17.123  0.00  0.00    +0.000 C 
ATOM      8  O   UNL     1     -10.694   5.827 -16.285  0.00  0.00    +0.000 OA
ENDBRANCH   1   8
BRANCH   6   9
ATOM      9  O   UNL     1     -10.776   6.342 -13.668  0.00  0.00    +0.000 OA
ATOM     10  H   UNL     1      -9.945   6.596 -14.113  0.00  0.00    +0.000 HD
ENDBRANCH   6   9
TORSDOF 2
ENDMDL
