MODEL 1
REMARK VINA RESULT:    -3.338      0.000      0.000
REMARK INTER + INTRA:          -3.671
REMARK INTER:                  -3.630
REMARK INTRA:                  -0.041
REMARK UNBOUND:                -0.041
REMARK  Name = 
REMARK  3 active torsions:
REMARK  status: ('A' for Active; 'I' for Inactive)
REMARK    1  A    between atoms: C_1  and  O_2
REMARK    2  A    between atoms: O_2  and  C_3
REMARK    3  A    between atoms: C_8  and  O_9
REMARK                            x       y       z     vdW  Elec       q    Type
REMARK                         _______ _______ _______ _____ _____    ______ ____
ROOT
ATOM      1  C   UNL     1     -10.894  13.158 -18.078  0.00  0.00    +0.000 A 
ATOM      2  C   UNL     1     -10.994  13.798 -19.313  0.00  0.00    +0.000 A 
ATOM      3  C   UNL     1     -11.029  15.197 -19.375  0.00  0.00    +0.000 A 
ATOM      4  C   UNL     1     -10.965  15.959 -18.207  0.00  0.00    +0.000 A 
ATOM      5  C   UNL     1     -10.865  15.326 -16.970  0.00  0.00    +0.000 A 
ATOM      6  C   UNL     1     -10.831  13.939 -16.918  0.00  0.00    +0.000 A 
ENDROOT
BRANCH   1   8
ATOM      7  C   UNL     1     -11.523  10.991 -18.823  0.00  0.00    +0.000 C 
ATOM      8  O   UNL     1     -10.850  11.803 -17.869  0.00  0.00    +0.000 OA
ENDBRANCH   1   8
BRANCH   6   9
ATOM      9  O   UNL     1     -10.732  13.340 -15.690  0.00  0.00    +0.000 OA
ATOM     10  H   UNL     1      -9.779  13.358 -15.481  0.00  0.00    +0.000 HD
ENDBRANCH   6   9
TORSDOF 2
ENDMDL
MODEL 2
REMARK VINA RESULT:    -3.205      1.087      2.974
REMARK INTER + INTRA:          -3.527
REMARK INTER:                  -3.475
REMARK INTRA:                  -0.053
REMARK UNBOUND:                -0.041
REMARK  Name = 
REMARK  3 active torsions:
REMARK  status: ('A' for Active; 'I' for Inactive)
REMARK    1  A    between atoms: C_1  and  O_2
REMARK    2  A    between atoms: O_2  and  C_3
REMARK    3  A    between atoms: C_8  and  O_9
REMARK                            x       y       z     vdW  Elec       q    Type
REMARK                         _______ _______ _______ _____ _____    ______ ____
ROOT
ATOM      1  C   UNL     1     -10.878  14.855 -17.350  0.00  0.00    +0.000 A 
ATOM      2  C   UNL     1     -10.997  15.633 -18.500  0.00  0.00    +0.000 A 
ATOM      3  C   UNL     1     -11.227  15.020 -19.739  0.00  0.00    +0.000 A 
ATOM      4  C   UNL     1     -11.338  13.632 -19.831  0.00  0.00    +0.000 A 
ATOM      5  C   UNL     1     -11.220  12.848 -18.686  0.00  0.00    +0.000 A 
ATOM      6  C   UNL     1     -10.992  13.464 -17.462  0.00  0.00    +0.000 A 
ENDROOT
BRANCH   1   8
ATOM      7  C   UNL     1     -11.669  16.137 -15.511  0.00  0.00    +0.000 C 
ATOM      8  O   UNL     1     -10.653  15.318 -16.078  0.00  0.00    +0.000 OA
ENDBRANCH   1   8
BRANCH   6   9
ATOM      9  O   UNL     1     -10.880  12.672 -16.350  0.00  0.00    +0.000 OA
ATOM     10  H   UNL     1     -11.708  12.156 -16.329  0.00  0.00    +0.000 HD
ENDBRANCH   6   9
TORSDOF 2
ENDMDL
MODEL 3
REMARK VINA RESULT:    -3.171     21.353     22.535
REMARK INTER + INTRA:          -3.490
REMARK INTER:                  -3.439
REMARK INTRA:                  -0.051
REMARK UNBOUND:                -0.041
REMARK  Name = 
REMARK  3 active torsions:
REMARK  status: ('A' for Active; 'I' for Inactive)
REMARK    1  A    between atoms: C_1  and  O_2
REMARK    2  A    between atoms: O_2  and  C_3
REMARK    3  A    between atoms: C_8  and  O_9
REMARK                            x       y       z     vdW  Elec       q    Type
REMARK                         _______ _______ _______ _____ _____    ______ ____
ROOT
ATOM      1  C   UNL     1      -1.214  19.991   1.298  0.00  0.00    +0.000 A 
ATOM      2  C   UNL     1      -0.253  20.160   2.294  0.00  0.00    +0.000 A 
ATOM      3  C   UNL     1       1.057  20.516   1.949  0.00  0.00    +0.000 A 
ATOM      4  C   UNL     1       1.411  20.704   0.612  0.00  0.00    +0.000 A 
ATOM      5  C   UNL     1       0.457  20.538  -0.389  0.00  0.00    +0.000 A 
ATOM      6  C   UNL     1      -0.840  20.184  -0.038  0.00  0.00    +0.000 A 
ENDROOT
BRANCH   1   8
ATOM      7  C   UNL     1      -2.768  18.432   2.192  0.00  0.00    +0.000 C 
ATOM      8  O   UNL     1      -2.527  19.645   1.488  0.00  0.00    +0.000 OA
ENDBRANCH   1   8
BRANCH   6   9
ATOM      9  O   UNL     1      -1.761  20.027  -1.040  0.00  0.00    +0.000 OA
ATOM     10  H   UNL     1      -1.262  19.621  -1.774  0.00  0.00    +0.000 HD
ENDBRANCH   6   9
TORSDOF 2
ENDMDL
MODEL 4
REMARK VINA RESULT:    -3.139     13.456     14.470
REMARK INTER + INTRA:          -3.455
REMARK INTER:                  -3.416
REMARK INTRA:                  -0.040
REMARK UNBOUND:                -0.041
REMARK  Name = 
REMARK  3 active torsions:
REMARK  status: ('A' for Active; 'I' for Inactive)
REMARK    1  A    between atoms: C_1  and  O_2
REMARK    2  A    between atoms: O_2  and  C_3
REMARK    3  A    between atoms: C_8  and  O_9
REMARK                            x       y       z     vdW  Elec       q    Type
REMARK                         _______ _______ _______ _____ _____    ______ ____
ROOT
ATOM      1  C   UNL     1      -3.684   1.773 -19.004  0.00  0.00    +0.000 A 
ATOM      2  C   UNL     1      -3.015   0.657 -18.504  0.00  0.00    +0.000 A 
ATOM      3  C   UNL     1      -1.624   0.689 -18.342  0.00  0.00    +0.000 A 
ATOM      4  C   UNL     1      -0.899   1.834 -18.680  0.00  0.00    +0.000 A 
ATOM      5  C   UNL     1      -1.561   2.953 -19.180  0.00  0.00    +0.000 A 
ATOM      6  C   UNL     1      -2.940   2.911 -19.337  0.00  0.00    +0.000 A 
ENDROOT
BRANCH   1   8
ATOM      7  C   UNL     1      -5.750   0.664 -19.390  0.00  0.00    +0.000 C 
ATOM      8  O   UNL     1      -5.036   1.881 -19.215  0.00  0.00    +0.000 OA
ENDBRANCH   1   8
BRANCH   6   9
ATOM      9  O   UNL     1      -3.568   4.024 -19.831  0.00  0.00    +0.000 OA
ATOM     10  H   UNL     1      -3.694   3.837 -20.781  0.00  0.00    +0.000 HD
ENDBRANCH   6   9
TORSDOF 2
ENDMDL
MODEL 5
REMARK VINA RESULT:    -3.041     10.249     11.329
REMARK INTER + INTRA:          -3.349
REMARK INTER:                  -3.310
REMARK INTRA:                  -0.038
REMARK UNBOUND:                -0.041
REMARK  Name = 
REMARK  3 active torsions:
REMARK  status: ('A' for Active; 'I' for Inactive)
REMARK    1  A    between atoms: C_1  and  O_2
REMARK    2  A    between atoms: O_2  and  C_3
REMARK    3  A    between atoms: C_8  and  O_9
REMARK                            x       y       z     vdW  Elec       q    Type
REMARK                         _______ _______ _______ _____ _____    ______ ____
ROOT
ATOM      1  C   UNL     1     -11.434   3.489 -13.540  0.00  0.00    +0.000 A 
ATOM      2  C   UNL     1     -12.348   2.531 -13.975  0.00  0.00    +0.000 A 
ATOM      3  C   UNL     1     -12.382   2.156 -15.324  0.00  0.00    +0.000 A 
ATOM      4  C   UNL     1     -11.504   2.737 -16.242  0.00  0.00    +0.000 A 
ATOM      5  C   UNL     1     -10.587   3.695 -15.815  0.00  0.00    +0.000 A 
ATOM      6  C   UNL     1     -10.561   4.060 -14.475  0.00  0.00    +0.000 A 
ENDROOT
BRANCH   1   8
ATOM      7  C   UNL     1     -12.376   3.709 -11.370  0.00  0.00    +0.000 C 
ATOM      8  O   UNL     1     -11.290   3.950 -12.256  0.00  0.00    +0.000 OA
ENDBRANCH   1   8
BRANCH   6   9
ATOM      9  O   UNL     1      -9.651   5.004 -14.080  0.00  0.00    +0.000 OA
ATOM     10  H   UNL     1      -9.424   5.488 -14.898  0.00  0.00    +0.000 HD
ENDBRANCH   6   9
TORSDOF 2
ENDMDL
MODEL 6
REMARK VINA RESULT:    -3.024      8.063     10.334
REMARK INTER + INTRA:          -3.330
REMARK INTER:                  -3.280
REMARK INTRA:                  -0.050
REMARK UNBOUND:                -0.041
REMARK  Name = 
REMARK  3 active torsions:
REMARK  status: ('A' for Active; 'I' for Inactive)
REMARK    1  A    between atoms: C_1  and  O_2
REMARK    2  A    between atoms: O_2  and  C_3
REMARK    3  A    between atoms: C_8  and  O_9
REMARK                            x       y       z     vdW  Elec       q    Type
REMARK                         _______ _______ _______ _____ _____    ______ ____
ROOT
ATOM      1  C   UNL     1     -11.102   5.172 -14.612  0.00  0.00    +0.000 A 
ATOM      2  C   UNL     1     -11.867   5.659 -13.553  0.00  0.00    +0.000 A 
ATOM      3  C   UNL     1     -12.382   4.775 -12.597  0.00  0.00    +0.000 A 
ATOM      4  C   UNL     1     -12.136   3.404 -12.695  0.00  0.00    +0.000 A 
ATOM      5  C   UNL     1     -11.372   2.910 -13.750  0.00  0.00    +0.000 A 
ATOM      6  C   UNL     1     -10.865   3.794 -14.694  0.00  0.00    +0.000 A 
ENDROOT
BRANCH   1   8
ATOM      7  C   UNL     1     -11.431   6.473 -16.573  0.00  0.00    +0.000 C 
ATOM      8  O   UNL     1     -10.537   5.918 -15.616  0.00  0.00    +0.000 OA
ENDBRANCH   1   8
BRANCH   6   9
ATOM      9  O   UNL     1     -10.117   3.284 -15.721  0.00  0.00    +0.000 OA
ATOM     10  H   UNL     1     -10.274   2.321 -15.688  0.00  0.00    +0.000 HD
ENDBRANCH   6   9
TORSDOF 2
ENDMDL
MODEL 7
REMARK VINA RESULT:    -2.983     21.401     22.936
REMARK INTER + INTRA:          -3.285
REMARK INTER:                  -3.238
REMARK INTRA:                  -0.047
REMARK UNBOUND:                -0.041
REMARK  Name = 
REMARK  3 active torsions:
REMARK  status: ('A' for Active; 'I' for Inactive)
REMARK    1  A    between atoms: C_1  and  O_2
REMARK    2  A    between atoms: O_2  and  C_3
REMARK    3  A    between atoms: C_8  and  O_9
REMARK                            x       y       z     vdW  Elec       q    Type
REMARK                         _______ _______ _______ _____ _____    ______ ____
ROOT
ATOM      1  C   UNL     1       0.354  20.912   1.030  0.00  0.00    +0.000 A 
ATOM      2  C   UNL     1      -0.230  20.472   2.217  0.00  0.00    +0.000 A 
ATOM      3  C   UNL     1      -1.362  19.648   2.176  0.00  0.00    +0.000 A 
ATOM      4  C   UNL     1      -1.914  19.264   0.952  0.00  0.00    +0.000 A 
ATOM      5  C   UNL     1      -1.336  19.700  -0.238  0.00  0.00    +0.000 A 
ATOM      6  C   UNL     1      -0.214  20.516  -0.188  0.00  0.00    +0.000 A 
ENDROOT
BRANCH   1   8
ATOM      7  C   UNL     1       2.712  21.124   1.231  0.00  0.00    +0.000 C 
ATOM      8  O   UNL     1       1.458  21.719   0.920  0.00  0.00    +0.000 OA
ENDBRANCH   1   8
BRANCH   6   9
ATOM      9  O   UNL     1       0.336  20.932  -1.371  0.00  0.00    +0.000 OA
ATOM     10  H   UNL     1       0.347  21.907  -1.311  0.00  0.00    +0.000 HD
ENDBRANCH   6   9
TORSDOF 2
ENDMDL
MODEL 8
REMARK VINA RESULT:    -2.878      9.276     10.652
REMARK INTER + INTRA:          -3.171
REMARK INTER:                  -3.133
REMARK INTRA:                  -0.038
REMARK UNBOUND:                -0.041
REMARK  Name = 
REMARK  3 active torsions:
REMARK  status: ('A' for Active; 'I' for Inactive)
REMARK    1  A    between atoms: C_1  and  O_2
REMARK    2  A    between atoms: O_2  and  C_3
REMARK    3  A    between atoms: C_8  and  O_9
REMARK                            x       y       z     vdW  Elec       q    Type
REMARK                         _______ _______ _______ _____ _____    ______ ____
ROOT
ATOM      1  C   UNL     1     -10.882   3.473 -15.198  0.00  0.00    +0.000 A 
ATOM      2  C   UNL     1     -11.446   2.650 -14.224  0.00  0.00    +0.000 A 
ATOM      3  C   UNL     1     -12.026   3.214 -13.081  0.00  0.00    +0.000 A 
ATOM      4  C   UNL     1     -12.044   4.599 -12.907  0.00  0.00    +0.000 A 
ATOM      5  C   UNL     1     -11.483   5.429 -13.876  0.00  0.00    +0.000 A 
ATOM      6  C   UNL     1     -10.910   4.860 -15.006  0.00  0.00    +0.000 A 
ENDROOT
BRANCH   1   8
ATOM      7  C   UNL     1     -10.028   1.667 -16.484  0.00  0.00    +0.000 C 
ATOM      8  O   UNL     1     -10.283   3.061 -16.361  0.00  0.00    +0.000 OA
ENDBRANCH   1   8
BRANCH   6   9
ATOM      9  O   UNL     1     -10.364   5.696 -15.944  0.00  0.00    +0.000 OA
ATOM     10  H   UNL     1     -11.072   5.824 -16.604  0.00  0.00    +0.000 HD
ENDBRANCH   6   9
TORSDOF 2
ENDMDL
MODEL 9
REMARK VINA RESULT:    -2.847      4.503      6.608
REMARK INTER + INTRA:          -3.138
REMARK INTER:                  -3.100
REMARK INTRA:                  -0.038
REMARK UNBOUND:                -0.041
REMARK  Name = 
REMARK  3 active torsions:
REMARK  status: ('A' for Active; 'I' for Inactive)
REMARK    1  A    between atoms: C_1  and  O_2
REMARK    2  A    between atoms: O_2  and  C_3
REMARK    3  A    between atoms: C_8  and  O_9
REMARK                            x       y       z     vdW  Elec       q    Type
REMARK                         _______ _______ _______ _____ _____    ______ ____
ROOT
ATOM      1  C   UNL     1      -9.114   8.907 -19.084  0.00  0.00    +0.000 A 
ATOM      2  C   UNL     1      -9.494   7.565 -19.085  0.00  0.00    +0.000 A 
ATOM      3  C   UNL     1      -8.573   6.578 -19.458  0.00  0.00    +0.000 A 
ATOM      4  C   UNL     1      -7.274   6.926 -19.830  0.00  0.00    +0.000 A 
ATOM      5  C   UNL     1      -6.887   8.264 -19.831  0.00  0.00    +0.000 A 
ATOM      6  C   UNL     1      -7.807   9.237 -19.461  0.00  0.00    +0.000 A 
ENDROOT
BRANCH   1   8
ATOM      7  C   UNL     1     -11.306   9.727 -18.672  0.00  0.00    +0.000 C 
ATOM      8  O   UNL     1      -9.907   9.974 -18.745  0.00  0.00    +0.000 OA
ENDBRANCH   1   8
BRANCH   6   9
ATOM      9  O   UNL     1      -7.403  10.546 -19.470  0.00  0.00    +0.000 OA
ATOM     10  H   UNL     1      -7.973  10.977 -20.135  0.00  0.00    +0.000 HD
ENDBRANCH   6   9
TORSDOF 2
ENDMDL
