MODEL 1
REMARK VINA RESULT:    -3.981      0.000      0.000
REMARK INTER + INTRA:          -5.985
REMARK INTER:                  -5.377
REMARK INTRA:                  -0.608
REMARK UNBOUND:                -0.608
REMARK  Name = 
REMARK  10 active torsions:
REMARK  status: ('A' for Active; 'I' for Inactive)
REMARK    1  A    between atoms: C_1  and  C_2
REMARK    2  A    between atoms: C_5  and  N_8
REMARK    3  A    between atoms: N_8  and  C_9
REMARK    4  A    between atoms: N_8  and  C_13
REMARK    5  A    between atoms: C_9  and  C_10
REMARK    6  A    between atoms: C_10  and  C_11
REMARK    7  A    between atoms: C_10  and  O_12
REMARK    8  A    between atoms: C_13  and  C_14
REMARK    9  A    between atoms: C_14  and  C_15
REMARK   10  A    between atoms: C_14  and  O_16
REMARK                            x       y       z     vdW  Elec       q    Type
REMARK                         _______ _______ _______ _____ _____    ______ ____
ROOT
ATOM      1  N   UNL     1      11.593  18.199   3.178  0.00  0.00    +0.000 N 
ENDROOT
BRANCH   1   6
ATOM      2  C   UNL     1      17.247  17.118   2.750  0.00  0.00    +0.000 C 
ATOM      3  C   UNL     1      15.781  17.410   2.839  0.00  0.00    +0.000 A 
ATOM      4  C   UNL     1      15.318  18.545   3.496  0.00  0.00    +0.000 A 
ATOM      5  C   UNL     1      13.941  18.799   3.603  0.00  0.00    +0.000 A 
ATOM      6  C   UNL     1      12.964  17.930   3.084  0.00  0.00    +0.000 A 
ATOM      7  C   UNL     1      13.468  16.794   2.425  0.00  0.00    +0.000 A 
ATOM      8  C   UNL     1      14.843  16.529   2.309  0.00  0.00    +0.000 A 
ENDBRANCH   1   6
BRANCH   1   9
ATOM      9  C   UNL     1      11.048  18.876   4.379  0.00  0.00    +0.000 C 
BRANCH   9  10
ATOM     10  C   UNL     1      10.653  17.884   5.500  0.00  0.00    +0.000 C 
ATOM     11  C   UNL     1      11.732  17.816   6.573  0.00  0.00    +0.000 C 
BRANCH  10  12
ATOM     12  O   UNL     1       9.426  18.280   6.128  0.00  0.00    +0.000 OA
ATOM     13  H   UNL     1       9.410  19.250   6.174  0.00  0.00    +0.000 HD
ENDBRANCH  10  12
ENDBRANCH   9  10
ENDBRANCH   1   9
BRANCH   1  14
ATOM     14  C   UNL     1      10.600  17.413   2.400  0.00  0.00    +0.000 C 
BRANCH  14  15
ATOM     15  C   UNL     1       9.986  18.233   1.239  0.00  0.00    +0.000 C 
ATOM     16  C   UNL     1      10.801  18.156  -0.046  0.00  0.00    +0.000 C 
BRANCH  15  17
ATOM     17  O   UNL     1       8.655  17.814   0.945  0.00  0.00    +0.000 OA
ATOM     18  H   UNL     1       8.751  17.147   0.235  0.00  0.00    +0.000 HD
ENDBRANCH  15  17
ENDBRANCH  14  15
ENDBRANCH   1  14
TORSDOF 7
ENDMDL
MODEL 2
REMARK VINA RESULT:    -3.978      9.241     11.069
REMARK INTER + INTRA:          -5.981
REMARK INTER:                  -5.499
REMARK INTRA:                  -0.482
REMARK UNBOUND:                -0.608
REMARK  Name = 
REMARK  10 active torsions:
REMARK  status: ('A' for Active; 'I' for Inactive)
REMARK    1  A    between atoms: C_1  and  C_2
REMARK    2  A    between atoms: C_5  and  N_8
REMARK    3  A    between atoms: N_8  and  C_9
REMARK    4  A    between atoms: N_8  and  C_13
REMARK    5  A    between atoms: C_9  and  C_10
REMARK    6  A    between atoms: C_10  and  C_11
REMARK    7  A    between atoms: C_10  and  O_12
REMARK    8  A    between atoms: C_13  and  C_14
REMARK    9  A    between atoms: C_14  and  C_15
REMARK   10  A    between atoms: C_14  and  O_16
REMARK                            x       y       z     vdW  Elec       q    Type
REMARK                         _______ _______ _______ _____ _____    ______ ____
ROOT
ATOM      1  N   UNL     1      16.489   9.343   6.307  0.00  0.00    +0.000 N 
ENDROOT
BRANCH   1   6
ATOM      2  C   UNL     1      10.736   9.255   6.776  0.00  0.00    +0.000 C 
ATOM      3  C   UNL     1      12.230   9.287   6.677  0.00  0.00    +0.000 A 
ATOM      4  C   UNL     1      12.888  10.393   6.150  0.00  0.00    +0.000 A 
ATOM      5  C   UNL     1      14.287  10.406   6.032  0.00  0.00    +0.000 A 
ATOM      6  C   UNL     1      15.093   9.316   6.409  0.00  0.00    +0.000 A 
ATOM      7  C   UNL     1      14.394   8.216   6.940  0.00  0.00    +0.000 A 
ATOM      8  C   UNL     1      12.996   8.191   7.065  0.00  0.00    +0.000 A 
ENDBRANCH   1   6
BRANCH   1   9
ATOM      9  C   UNL     1      17.146  10.247   5.333  0.00  0.00    +0.000 C 
BRANCH   9  10
ATOM     10  C   UNL     1      17.912  11.408   6.014  0.00  0.00    +0.000 C 
ATOM     11  C   UNL     1      19.334  11.512   5.476  0.00  0.00    +0.000 C 
BRANCH  10  12
ATOM     12  O   UNL     1      17.256  12.663   5.782  0.00  0.00    +0.000 OA
ATOM     13  H   UNL     1      17.831  13.203   5.214  0.00  0.00    +0.000 HD
ENDBRANCH  10  12
ENDBRANCH   9  10
ENDBRANCH   1   9
BRANCH   1  14
ATOM     14  C   UNL     1      17.314   8.185   6.738  0.00  0.00    +0.000 C 
BRANCH  14  15
ATOM     15  C   UNL     1      18.262   7.694   5.618  0.00  0.00    +0.000 C 
ATOM     16  C   UNL     1      19.401   6.823   6.136  0.00  0.00    +0.000 C 
BRANCH  15  17
ATOM     17  O   UNL     1      17.560   6.955   4.620  0.00  0.00    +0.000 OA
ATOM     18  H   UNL     1      16.773   6.597   5.077  0.00  0.00    +0.000 HD
ENDBRANCH  15  17
ENDBRANCH  14  15
ENDBRANCH   1  14
TORSDOF 7
ENDMDL
MODEL 3
REMARK VINA RESULT:    -3.965      9.595     11.421
REMARK INTER + INTRA:          -5.964
REMARK INTER:                  -5.367
REMARK INTRA:                  -0.597
REMARK UNBOUND:                -0.608
REMARK  Name = 
REMARK  10 active torsions:
REMARK  status: ('A' for Active; 'I' for Inactive)
REMARK    1  A    between atoms: C_1  and  C_2
REMARK    2  A    between atoms: C_5  and  N_8
REMARK    3  A    between atoms: N_8  and  C_9
REMARK    4  A    between atoms: N_8  and  C_13
REMARK    5  A    between atoms: C_9  and  C_10
REMARK    6  A    between atoms: C_10  and  C_11
REMARK    7  A    between atoms: C_10  and  O_12
REMARK    8  A    between atoms: C_13  and  C_14
REMARK    9  A    between atoms: C_14  and  C_15
REMARK   10  A    between atoms: C_14  and  O_16
REMARK                            x       y       z     vdW  Elec       q    Type
REMARK                         _______ _______ _______ _____ _____    ______ ____
ROOT
ATOM      1  N   UNL     1      17.107   9.338   6.570  0.00  0.00    +0.000 N 
ENDROOT
BRANCH   1   6
ATOM      2  C   UNL     1      11.343   9.211   6.259  0.00  0.00    +0.000 C 
ATOM      3  C   UNL     1      12.840   9.234   6.317  0.00  0.00    +0.000 A 
ATOM      4  C   UNL     1      13.551   8.167   6.857  0.00  0.00    +0.000 A 
ATOM      5  C   UNL     1      14.952   8.207   6.936  0.00  0.00    +0.000 A 
ATOM      6  C   UNL     1      15.708   9.313   6.506  0.00  0.00    +0.000 A 
ATOM      7  C   UNL     1      14.957  10.372   5.965  0.00  0.00    +0.000 A 
ATOM      8  C   UNL     1      13.555  10.344   5.878  0.00  0.00    +0.000 A 
ENDBRANCH   1   6
BRANCH   1   9
ATOM      9  C   UNL     1      17.845   8.186   7.141  0.00  0.00    +0.000 C 
BRANCH   9  10
ATOM     10  C   UNL     1      18.729   7.462   6.096  0.00  0.00    +0.000 C 
ATOM     11  C   UNL     1      19.425   6.254   6.713  0.00  0.00    +0.000 C 
BRANCH  10  12
ATOM     12  O   UNL     1      17.944   7.004   4.986  0.00  0.00    +0.000 OA
ATOM     13  H   UNL     1      17.028   6.897   5.290  0.00  0.00    +0.000 HD
ENDBRANCH  10  12
ENDBRANCH   9  10
ENDBRANCH   1   9
BRANCH   1  14
ATOM     14  C   UNL     1      17.854  10.622   6.573  0.00  0.00    +0.000 C 
BRANCH  14  15
ATOM     15  C   UNL     1      18.514  10.917   5.205  0.00  0.00    +0.000 C 
ATOM     16  C   UNL     1      20.035  10.829   5.243  0.00  0.00    +0.000 C 
BRANCH  15  17
ATOM     17  O   UNL     1      18.045  10.029   4.191  0.00  0.00    +0.000 OA
ATOM     18  H   UNL     1      18.845   9.563   3.874  0.00  0.00    +0.000 HD
ENDBRANCH  15  17
ENDBRANCH  14  15
ENDBRANCH   1  14
TORSDOF 7
ENDMDL
MODEL 4
REMARK VINA RESULT:    -3.961      9.250     11.125
REMARK INTER + INTRA:          -5.958
REMARK INTER:                  -5.476
REMARK INTRA:                  -0.483
REMARK UNBOUND:                -0.608
REMARK  Name = 
REMARK  10 active torsions:
REMARK  status: ('A' for Active; 'I' for Inactive)
REMARK    1  A    between atoms: C_1  and  C_2
REMARK    2  A    between atoms: C_5  and  N_8
REMARK    3  A    between atoms: N_8  and  C_9
REMARK    4  A    between atoms: N_8  and  C_13
REMARK    5  A    between atoms: C_9  and  C_10
REMARK    6  A    between atoms: C_10  and  C_11
REMARK    7  A    between atoms: C_10  and  O_12
REMARK    8  A    between atoms: C_13  and  C_14
REMARK    9  A    between atoms: C_14  and  C_15
REMARK   10  A    between atoms: C_14  and  O_16
REMARK                            x       y       z     vdW  Elec       q    Type
REMARK                         _______ _______ _______ _____ _____    ______ ____
ROOT
ATOM      1  N   UNL     1      16.571   9.373   6.335  0.00  0.00    +0.000 N 
ENDROOT
BRANCH   1   6
ATOM      2  C   UNL     1      10.813   9.255   6.738  0.00  0.00    +0.000 C 
ATOM      3  C   UNL     1      12.306   9.277   6.610  0.00  0.00    +0.000 A 
ATOM      4  C   UNL     1      13.070   8.173   6.971  0.00  0.00    +0.000 A 
ATOM      5  C   UNL     1      14.471   8.210   6.877  0.00  0.00    +0.000 A 
ATOM      6  C   UNL     1      15.175   9.349   6.444  0.00  0.00    +0.000 A 
ATOM      7  C   UNL     1      14.370  10.446   6.086  0.00  0.00    +0.000 A 
ATOM      8  C   UNL     1      12.968  10.421   6.173  0.00  0.00    +0.000 A 
ENDBRANCH   1   6
BRANCH   1   9
ATOM      9  C   UNL     1      17.223  10.253   5.335  0.00  0.00    +0.000 C 
BRANCH   9  10
ATOM     10  C   UNL     1      18.004  11.422   5.985  0.00  0.00    +0.000 C 
ATOM     11  C   UNL     1      19.413  11.521   5.411  0.00  0.00    +0.000 C 
BRANCH  10  12
ATOM     12  O   UNL     1      17.342  12.673   5.756  0.00  0.00    +0.000 OA
ATOM     13  H   UNL     1      16.626  12.523   5.117  0.00  0.00    +0.000 HD
ENDBRANCH  10  12
ENDBRANCH   9  10
ENDBRANCH   1   9
BRANCH   1  14
ATOM     14  C   UNL     1      17.398   8.226   6.790  0.00  0.00    +0.000 C 
BRANCH  14  15
ATOM     15  C   UNL     1      18.318   7.687   5.669  0.00  0.00    +0.000 C 
ATOM     16  C   UNL     1      19.432   6.786   6.189  0.00  0.00    +0.000 C 
BRANCH  15  17
ATOM     17  O   UNL     1      17.582   6.958   4.688  0.00  0.00    +0.000 OA
ATOM     18  H   UNL     1      17.039   7.630   4.229  0.00  0.00    +0.000 HD
ENDBRANCH  15  17
ENDBRANCH  14  15
ENDBRANCH   1  14
TORSDOF 7
ENDMDL
MODEL 5
REMARK VINA RESULT:    -3.886      8.044      8.633
REMARK INTER + INTRA:          -5.856
REMARK INTER:                  -5.391
REMARK INTRA:                  -0.466
REMARK UNBOUND:                -0.608
REMARK  Name = 
REMARK  10 active torsions:
REMARK  status: ('A' for Active; 'I' for Inactive)
REMARK    1  A    between atoms: C_1  and  C_2
REMARK    2  A    between atoms: C_5  and  N_8
REMARK    3  A    between atoms: N_8  and  C_9
REMARK    4  A    between atoms: N_8  and  C_13
REMARK    5  A    between atoms: C_9  and  C_10
REMARK    6  A    between atoms: C_10  and  C_11
REMARK    7  A    between atoms: C_10  and  O_12
REMARK    8  A    between atoms: C_13  and  C_14
REMARK    9  A    between atoms: C_14  and  C_15
REMARK   10  A    between atoms: C_14  and  O_16
REMARK                            x       y       z     vdW  Elec       q    Type
REMARK                         _______ _______ _______ _____ _____    ______ ____
ROOT
ATOM      1  N   UNL     1      11.104   9.790   6.040  0.00  0.00    +0.000 N 
ENDROOT
BRANCH   1   6
ATOM      2  C   UNL     1      16.569   8.228   7.053  0.00  0.00    +0.000 C 
ATOM      3  C   UNL     1      15.150   8.644   6.813  0.00  0.00    +0.000 A 
ATOM      4  C   UNL     1      14.093   7.798   7.133  0.00  0.00    +0.000 A 
ATOM      5  C   UNL     1      12.766   8.181   6.878  0.00  0.00    +0.000 A 
ATOM      6  C   UNL     1      12.430   9.406   6.274  0.00  0.00    +0.000 A 
ATOM      7  C   UNL     1      13.523  10.237   5.965  0.00  0.00    +0.000 A 
ATOM      8  C   UNL     1      14.855   9.867   6.217  0.00  0.00    +0.000 A 
ENDBRANCH   1   6
BRANCH   1   9
ATOM      9  C   UNL     1      10.177   9.994   7.179  0.00  0.00    +0.000 C 
BRANCH   9  10
ATOM     10  C   UNL     1       9.629  11.440   7.255  0.00  0.00    +0.000 C 
ATOM     11  C   UNL     1      10.728  12.455   6.962  0.00  0.00    +0.000 C 
BRANCH  10  12
ATOM     12  O   UNL     1       8.574  11.641   6.305  0.00  0.00    +0.000 OA
ATOM     13  H   UNL     1       7.995  12.346   6.642  0.00  0.00    +0.000 HD
ENDBRANCH  10  12
ENDBRANCH   9  10
ENDBRANCH   1   9
BRANCH   1  14
ATOM     14  C   UNL     1      10.443   9.516   4.738  0.00  0.00    +0.000 C 
BRANCH  14  15
ATOM     15  C   UNL     1      10.876  10.517   3.640  0.00  0.00    +0.000 C 
ATOM     16  C   UNL     1      11.829   9.910   2.617  0.00  0.00    +0.000 C 
BRANCH  15  17
ATOM     17  O   UNL     1       9.754  11.048   2.937  0.00  0.00    +0.000 OA
ATOM     18  H   UNL     1      10.080  11.874   2.528  0.00  0.00    +0.000 HD
ENDBRANCH  15  17
ENDBRANCH  14  15
ENDBRANCH   1  14
TORSDOF 7
ENDMDL
MODEL 6
REMARK VINA RESULT:    -3.716      8.179      9.194
REMARK INTER + INTRA:          -5.626
REMARK INTER:                  -5.405
REMARK INTRA:                  -0.222
REMARK UNBOUND:                -0.608
REMARK  Name = 
REMARK  10 active torsions:
REMARK  status: ('A' for Active; 'I' for Inactive)
REMARK    1  A    between atoms: C_1  and  C_2
REMARK    2  A    between atoms: C_5  and  N_8
REMARK    3  A    between atoms: N_8  and  C_9
REMARK    4  A    between atoms: N_8  and  C_13
REMARK    5  A    between atoms: C_9  and  C_10
REMARK    6  A    between atoms: C_10  and  C_11
REMARK    7  A    between atoms: C_10  and  O_12
REMARK    8  A    between atoms: C_13  and  C_14
REMARK    9  A    between atoms: C_14  and  C_15
REMARK   10  A    between atoms: C_14  and  O_16
REMARK                            x       y       z     vdW  Elec       q    Type
REMARK                         _______ _______ _______ _____ _____    ______ ____
ROOT
ATOM      1  N   UNL     1      11.905   9.842   5.949  0.00  0.00    +0.000 N 
ENDROOT
BRANCH   1   6
ATOM      2  C   UNL     1      17.291   7.942   6.792  0.00  0.00    +0.000 C 
ATOM      3  C   UNL     1      15.894   8.424   6.550  0.00  0.00    +0.000 A 
ATOM      4  C   UNL     1      15.656   9.688   6.021  0.00  0.00    +0.000 A 
ATOM      5  C   UNL     1      14.344  10.148   5.825  0.00  0.00    +0.000 A 
ATOM      6  C   UNL     1      13.212   9.385   6.165  0.00  0.00    +0.000 A 
ATOM      7  C   UNL     1      13.489   8.112   6.696  0.00  0.00    +0.000 A 
ATOM      8  C   UNL     1      14.797   7.640   6.895  0.00  0.00    +0.000 A 
ENDBRANCH   1   6
BRANCH   1   9
ATOM      9  C   UNL     1      11.155   9.404   4.747  0.00  0.00    +0.000 C 
BRANCH   9  10
ATOM     10  C   UNL     1      11.218  10.434   3.592  0.00  0.00    +0.000 C 
ATOM     11  C   UNL     1      12.010   9.882   2.413  0.00  0.00    +0.000 C 
BRANCH  10  12
ATOM     12  O   UNL     1       9.902  10.767   3.127  0.00  0.00    +0.000 OA
ATOM     13  H   UNL     1       9.983  11.129   2.229  0.00  0.00    +0.000 HD
ENDBRANCH  10  12
ENDBRANCH   9  10
ENDBRANCH   1   9
BRANCH   1  14
ATOM     14  C   UNL     1      11.420  11.105   6.562  0.00  0.00    +0.000 C 
BRANCH  14  15
ATOM     15  C   UNL     1      10.027  10.939   7.216  0.00  0.00    +0.000 C 
ATOM     16  C   UNL     1       8.933  11.726   6.504  0.00  0.00    +0.000 C 
BRANCH  15  17
ATOM     17  O   UNL     1       9.627   9.571   7.264  0.00  0.00    +0.000 OA
ATOM     18  H   UNL     1       8.991   9.519   8.006  0.00  0.00    +0.000 HD
ENDBRANCH  15  17
ENDBRANCH  14  15
ENDBRANCH   1  14
TORSDOF 7
ENDMDL
MODEL 7
REMARK VINA RESULT:    -3.634      7.292      9.451
REMARK INTER + INTRA:          -5.516
REMARK INTER:                  -4.998
REMARK INTRA:                  -0.518
REMARK UNBOUND:                -0.608
REMARK  Name = 
REMARK  10 active torsions:
REMARK  status: ('A' for Active; 'I' for Inactive)
REMARK    1  A    between atoms: C_1  and  C_2
REMARK    2  A    between atoms: C_5  and  N_8
REMARK    3  A    between atoms: N_8  and  C_9
REMARK    4  A    between atoms: N_8  and  C_13
REMARK    5  A    between atoms: C_9  and  C_10
REMARK    6  A    between atoms: C_10  and  C_11
REMARK    7  A    between atoms: C_10  and  O_12
REMARK    8  A    between atoms: C_13  and  C_14
REMARK    9  A    between atoms: C_14  and  C_15
REMARK   10  A    between atoms: C_14  and  O_16
REMARK                            x       y       z     vdW  Elec       q    Type
REMARK                         _______ _______ _______ _____ _____    ______ ____
ROOT
ATOM      1  N   UNL     1      19.437  12.960   4.793  0.00  0.00    +0.000 N 
ENDROOT
BRANCH   1   6
ATOM      2  C   UNL     1      19.480  17.261   0.942  0.00  0.00    +0.000 C 
ATOM      3  C   UNL     1      19.481  16.160   1.958  0.00  0.00    +0.000 A 
ATOM      4  C   UNL     1      20.507  15.221   1.993  0.00  0.00    +0.000 A 
ATOM      5  C   UNL     1      20.487  14.174   2.928  0.00  0.00    +0.000 A 
ATOM      6  C   UNL     1      19.440  13.996   3.851  0.00  0.00    +0.000 A 
ATOM      7  C   UNL     1      18.421  14.964   3.788  0.00  0.00    +0.000 A 
ATOM      8  C   UNL     1      18.430  16.018   2.859  0.00  0.00    +0.000 A 
ENDBRANCH   1   6
BRANCH   1   9
ATOM      9  C   UNL     1      18.156  12.485   5.371  0.00  0.00    +0.000 C 
BRANCH   9  10
ATOM     10  C   UNL     1      17.588  11.247   4.635  0.00  0.00    +0.000 C 
ATOM     11  C   UNL     1      16.590  10.502   5.513  0.00  0.00    +0.000 C 
BRANCH  10  12
ATOM     12  O   UNL     1      16.918  11.630   3.426  0.00  0.00    +0.000 OA
ATOM     13  H   UNL     1      17.560  12.088   2.858  0.00  0.00    +0.000 HD
ENDBRANCH  10  12
ENDBRANCH   9  10
ENDBRANCH   1   9
BRANCH   1  14
ATOM     14  C   UNL     1      20.640  12.660   5.611  0.00  0.00    +0.000 C 
BRANCH  14  15
ATOM     15  C   UNL     1      21.274  11.298   5.240  0.00  0.00    +0.000 C 
ATOM     16  C   UNL     1      20.816  10.158   6.143  0.00  0.00    +0.000 C 
BRANCH  15  17
ATOM     17  O   UNL     1      20.989  10.934   3.890  0.00  0.00    +0.000 OA
ATOM     18  H   UNL     1      20.264  10.280   3.952  0.00  0.00    +0.000 HD
ENDBRANCH  15  17
ENDBRANCH  14  15
ENDBRANCH   1  14
TORSDOF 7
ENDMDL
MODEL 8
REMARK VINA RESULT:    -3.548      1.627      3.779
REMARK INTER + INTRA:          -5.401
REMARK INTER:                  -4.963
REMARK INTRA:                  -0.437
REMARK UNBOUND:                -0.608
REMARK  Name = 
REMARK  10 active torsions:
REMARK  status: ('A' for Active; 'I' for Inactive)
REMARK    1  A    between atoms: C_1  and  C_2
REMARK    2  A    between atoms: C_5  and  N_8
REMARK    3  A    between atoms: N_8  and  C_9
REMARK    4  A    between atoms: N_8  and  C_13
REMARK    5  A    between atoms: C_9  and  C_10
REMARK    6  A    between atoms: C_10  and  C_11
REMARK    7  A    between atoms: C_10  and  O_12
REMARK    8  A    between atoms: C_13  and  C_14
REMARK    9  A    between atoms: C_14  and  C_15
REMARK   10  A    between atoms: C_14  and  O_16
REMARK                            x       y       z     vdW  Elec       q    Type
REMARK                         _______ _______ _______ _____ _____    ______ ____
ROOT
ATOM      1  N   UNL     1      13.162  18.107   2.819  0.00  0.00    +0.000 N 
ENDROOT
BRANCH   1   6
ATOM      2  C   UNL     1      18.825  17.048   2.445  0.00  0.00    +0.000 C 
ATOM      3  C   UNL     1      17.357  17.322   2.567  0.00  0.00    +0.000 A 
ATOM      4  C   UNL     1      16.433  16.282   2.549  0.00  0.00    +0.000 A 
ATOM      5  C   UNL     1      15.056  16.547   2.634  0.00  0.00    +0.000 A 
ATOM      6  C   UNL     1      14.535  17.851   2.716  0.00  0.00    +0.000 A 
ATOM      7  C   UNL     1      15.498  18.876   2.734  0.00  0.00    +0.000 A 
ATOM      8  C   UNL     1      16.878  18.626   2.652  0.00  0.00    +0.000 A 
ENDBRANCH   1   6
BRANCH   1   9
ATOM      9  C   UNL     1      12.320  18.152   1.600  0.00  0.00    +0.000 C 
BRANCH   9  10
ATOM     10  C   UNL     1      11.273  17.013   1.550  0.00  0.00    +0.000 C 
ATOM     11  C   UNL     1       9.921  17.492   2.064  0.00  0.00    +0.000 C 
BRANCH  10  12
ATOM     12  O   UNL     1      11.095  16.535   0.210  0.00  0.00    +0.000 OA
ATOM     13  H   UNL     1      11.968  16.297  -0.144  0.00  0.00    +0.000 HD
ENDBRANCH  10  12
ENDBRANCH   9  10
ENDBRANCH   1   9
BRANCH   1  14
ATOM     14  C   UNL     1      12.600  18.822   3.993  0.00  0.00    +0.000 C 
BRANCH  14  15
ATOM     15  C   UNL     1      12.342  17.873   5.188  0.00  0.00    +0.000 C 
ATOM     16  C   UNL     1      11.030  18.160   5.910  0.00  0.00    +0.000 C 
BRANCH  15  17
ATOM     17  O   UNL     1      12.332  16.505   4.782  0.00  0.00    +0.000 OA
ATOM     18  H   UNL     1      12.059  16.522   3.842  0.00  0.00    +0.000 HD
ENDBRANCH  15  17
ENDBRANCH  14  15
ENDBRANCH   1  14
TORSDOF 7
ENDMDL
MODEL 9
REMARK VINA RESULT:    -3.495      1.597      2.132
REMARK INTER + INTRA:          -5.328
REMARK INTER:                  -4.960
REMARK INTRA:                  -0.368
REMARK UNBOUND:                -0.608
REMARK  Name = 
REMARK  10 active torsions:
REMARK  status: ('A' for Active; 'I' for Inactive)
REMARK    1  A    between atoms: C_1  and  C_2
REMARK    2  A    between atoms: C_5  and  N_8
REMARK    3  A    between atoms: N_8  and  C_9
REMARK    4  A    between atoms: N_8  and  C_13
REMARK    5  A    between atoms: C_9  and  C_10
REMARK    6  A    between atoms: C_10  and  C_11
REMARK    7  A    between atoms: C_10  and  O_12
REMARK    8  A    between atoms: C_13  and  C_14
REMARK    9  A    between atoms: C_14  and  C_15
REMARK   10  A    between atoms: C_14  and  O_16
REMARK                            x       y       z     vdW  Elec       q    Type
REMARK                         _______ _______ _______ _____ _____    ______ ____
ROOT
ATOM      1  N   UNL     1      12.858  18.517   2.926  0.00  0.00    +0.000 N 
ENDROOT
BRANCH   1   6
ATOM      2  C   UNL     1      18.298  16.619   2.554  0.00  0.00    +0.000 C 
ATOM      3  C   UNL     1      16.886  17.104   2.675  0.00  0.00    +0.000 A 
ATOM      4  C   UNL     1      15.815  16.272   2.365  0.00  0.00    +0.000 A 
ATOM      5  C   UNL     1      14.495  16.742   2.451  0.00  0.00    +0.000 A 
ATOM      6  C   UNL     1      14.179  18.061   2.824  0.00  0.00    +0.000 A 
ATOM      7  C   UNL     1      15.285  18.873   3.132  0.00  0.00    +0.000 A 
ATOM      8  C   UNL     1      16.611  18.416   3.052  0.00  0.00    +0.000 A 
ENDBRANCH   1   6
BRANCH   1   9
ATOM      9  C   UNL     1      12.198  18.589   4.251  0.00  0.00    +0.000 C 
BRANCH   9  10
ATOM     10  C   UNL     1      12.828  17.630   5.290  0.00  0.00    +0.000 C 
ATOM     11  C   UNL     1      12.620  18.148   6.708  0.00  0.00    +0.000 C 
BRANCH  10  12
ATOM     12  O   UNL     1      12.244  16.322   5.204  0.00  0.00    +0.000 OA
ATOM     13  H   UNL     1      12.411  15.862   6.043  0.00  0.00    +0.000 HD
ENDBRANCH  10  12
ENDBRANCH   9  10
ENDBRANCH   1   9
BRANCH   1  14
ATOM     14  C   UNL     1      11.930  18.450   1.768  0.00  0.00    +0.000 C 
BRANCH  14  15
ATOM     15  C   UNL     1      10.884  17.320   1.923  0.00  0.00    +0.000 C 
ATOM     16  C   UNL     1       9.446  17.813   1.807  0.00  0.00    +0.000 C 
BRANCH  15  17
ATOM     17  O   UNL     1      11.076  16.288   0.956  0.00  0.00    +0.000 OA
ATOM     18  H   UNL     1      11.202  15.471   1.480  0.00  0.00    +0.000 HD
ENDBRANCH  15  17
ENDBRANCH  14  15
ENDBRANCH   1  14
TORSDOF 7
ENDMDL
