MODEL 1
REMARK VINA RESULT:    -3.846      0.000      0.000
REMARK INTER + INTRA:          -5.768
REMARK INTER:                  -5.195
REMARK INTRA:                  -0.573
REMARK UNBOUND:                -0.573
REMARK  Name = 
REMARK  10 active torsions:
REMARK  status: ('A' for Active; 'I' for Inactive)
REMARK    1  A    between atoms: C_1  and  C_2
REMARK    2  A    between atoms: C_5  and  N_8
REMARK    3  A    between atoms: N_8  and  C_9
REMARK    4  A    between atoms: N_8  and  C_13
REMARK    5  A    between atoms: C_9  and  C_10
REMARK    6  A    between atoms: C_10  and  C_11
REMARK    7  A    between atoms: C_10  and  O_12
REMARK    8  A    between atoms: C_13  and  C_14
REMARK    9  A    between atoms: C_14  and  C_15
REMARK   10  A    between atoms: C_14  and  O_16
REMARK                            x       y       z     vdW  Elec       q    Type
REMARK                         _______ _______ _______ _____ _____    ______ ____
ROOT
ATOM      1  N   UNL     1       3.371  21.183 -16.127  0.00  0.00    +0.000 N 
ENDROOT
BRANCH   1   6
ATOM      2  C   UNL     1      -1.862  22.406 -14.019  0.00  0.00    +0.000 C 
ATOM      3  C   UNL     1      -0.495  22.107 -14.552  0.00  0.00    +0.000 A 
ATOM      4  C   UNL     1      -0.040  22.700 -15.725  0.00  0.00    +0.000 A 
ATOM      5  C   UNL     1       1.231  22.393 -16.237  0.00  0.00    +0.000 A 
ATOM      6  C   UNL     1       2.096  21.470 -15.622  0.00  0.00    +0.000 A 
ATOM      7  C   UNL     1       1.605  20.891 -14.438  0.00  0.00    +0.000 A 
ATOM      8  C   UNL     1       0.337  21.191 -13.914  0.00  0.00    +0.000 A 
ENDBRANCH   1   6
BRANCH   1   9
ATOM      9  C   UNL     1       4.566  21.344 -15.264  0.00  0.00    +0.000 C 
BRANCH   9  10
ATOM     10  C   UNL     1       5.875  20.902 -15.964  0.00  0.00    +0.000 C 
ATOM     11  C   UNL     1       7.094  21.477 -15.252  0.00  0.00    +0.000 C 
BRANCH  10  12
ATOM     12  O   UNL     1       5.998  19.473 -15.971  0.00  0.00    +0.000 OA
ATOM     13  H   UNL     1       6.923  19.249 -15.779  0.00  0.00    +0.000 HD
ENDBRANCH  10  12
ENDBRANCH   9  10
ENDBRANCH   1   9
BRANCH   1  14
ATOM     14  C   UNL     1       3.646  21.218 -17.587  0.00  0.00    +0.000 C 
BRANCH  14  15
ATOM     15  C   UNL     1       3.046  19.997 -18.324  0.00  0.00    +0.000 C 
ATOM     16  C   UNL     1       3.520  19.875 -19.767  0.00  0.00    +0.000 C 
BRANCH  15  17
ATOM     17  O   UNL     1       3.353  18.775 -17.654  0.00  0.00    +0.000 OA
ATOM     18  H   UNL     1       2.484  18.381 -17.437  0.00  0.00    +0.000 HD
ENDBRANCH  15  17
ENDBRANCH  14  15
ENDBRANCH   1  14
TORSDOF 7
ENDMDL
MODEL 2
REMARK VINA RESULT:    -3.777     20.407     21.672
REMARK INTER + INTRA:          -5.675
REMARK INTER:                  -5.341
REMARK INTRA:                  -0.334
REMARK UNBOUND:                -0.573
REMARK  Name = 
REMARK  10 active torsions:
REMARK  status: ('A' for Active; 'I' for Inactive)
REMARK    1  A    between atoms: C_1  and  C_2
REMARK    2  A    between atoms: C_5  and  N_8
REMARK    3  A    between atoms: N_8  and  C_9
REMARK    4  A    between atoms: N_8  and  C_13
REMARK    5  A    between atoms: C_9  and  C_10
REMARK    6  A    between atoms: C_10  and  C_11
REMARK    7  A    between atoms: C_10  and  O_12
REMARK    8  A    between atoms: C_13  and  C_14
REMARK    9  A    between atoms: C_14  and  C_15
REMARK   10  A    between atoms: C_14  and  O_16
REMARK                            x       y       z     vdW  Elec       q    Type
REMARK                         _______ _______ _______ _____ _____    ______ ____
ROOT
ATOM      1  N   UNL     1     -11.155   4.603 -16.969  0.00  0.00    +0.000 N 
ENDROOT
BRANCH   1   6
ATOM      2  C   UNL     1     -12.362   3.783 -11.384  0.00  0.00    +0.000 C 
ATOM      3  C   UNL     1     -12.025   4.000 -12.827  0.00  0.00    +0.000 A 
ATOM      4  C   UNL     1     -12.140   5.259 -13.406  0.00  0.00    +0.000 A 
ATOM      5  C   UNL     1     -11.851   5.451 -14.767  0.00  0.00    +0.000 A 
ATOM      6  C   UNL     1     -11.460   4.401 -15.617  0.00  0.00    +0.000 A 
ATOM      7  C   UNL     1     -11.352   3.143 -14.998  0.00  0.00    +0.000 A 
ATOM      8  C   UNL     1     -11.635   2.938 -13.637  0.00  0.00    +0.000 A 
ENDBRANCH   1   6
BRANCH   1   9
ATOM      9  C   UNL     1     -11.346   5.939 -17.583  0.00  0.00    +0.000 C 
BRANCH   9  10
ATOM     10  C   UNL     1     -10.009   6.651 -17.901  0.00  0.00    +0.000 C 
ATOM     11  C   UNL     1     -10.251   7.960 -18.644  0.00  0.00    +0.000 C 
BRANCH  10  12
ATOM     12  O   UNL     1      -9.287   6.951 -16.698  0.00  0.00    +0.000 OA
ATOM     13  H   UNL     1      -9.705   6.466 -15.967  0.00  0.00    +0.000 HD
ENDBRANCH  10  12
ENDBRANCH   9  10
ENDBRANCH   1   9
BRANCH   1  14
ATOM     14  C   UNL     1     -11.137   3.471 -17.931  0.00  0.00    +0.000 C 
BRANCH  14  15
ATOM     15  C   UNL     1      -9.790   2.709 -17.911  0.00  0.00    +0.000 C 
ATOM     16  C   UNL     1      -9.891   1.297 -18.476  0.00  0.00    +0.000 C 
BRANCH  15  17
ATOM     17  O   UNL     1      -8.780   3.405 -18.640  0.00  0.00    +0.000 OA
ATOM     18  H   UNL     1      -8.686   2.909 -19.478  0.00  0.00    +0.000 HD
ENDBRANCH  15  17
ENDBRANCH  14  15
ENDBRANCH   1  14
TORSDOF 7
ENDMDL
MODEL 3
REMARK VINA RESULT:    -3.684     19.885     21.316
REMARK INTER + INTRA:          -5.548
REMARK INTER:                  -5.016
REMARK INTRA:                  -0.533
REMARK UNBOUND:                -0.573
REMARK  Name = 
REMARK  10 active torsions:
REMARK  status: ('A' for Active; 'I' for Inactive)
REMARK    1  A    between atoms: C_1  and  C_2
REMARK    2  A    between atoms: C_5  and  N_8
REMARK    3  A    between atoms: N_8  and  C_9
REMARK    4  A    between atoms: N_8  and  C_13
REMARK    5  A    between atoms: C_9  and  C_10
REMARK    6  A    between atoms: C_10  and  C_11
REMARK    7  A    between atoms: C_10  and  O_12
REMARK    8  A    between atoms: C_13  and  C_14
REMARK    9  A    between atoms: C_14  and  C_15
REMARK   10  A    between atoms: C_14  and  O_16
REMARK                            x       y       z     vdW  Elec       q    Type
REMARK                         _______ _______ _______ _____ _____    ______ ____
ROOT
ATOM      1  N   UNL     1     -11.310   4.823 -16.190  0.00  0.00    +0.000 N 
ENDROOT
BRANCH   1   6
ATOM      2  C   UNL     1     -11.218   9.843 -19.039  0.00  0.00    +0.000 C 
ATOM      3  C   UNL     1     -11.251   8.529 -18.320  0.00  0.00    +0.000 A 
ATOM      4  C   UNL     1     -12.368   8.143 -17.587  0.00  0.00    +0.000 A 
ATOM      5  C   UNL     1     -12.382   6.924 -16.891  0.00  0.00    +0.000 A 
ATOM      6  C   UNL     1     -11.283   6.047 -16.871  0.00  0.00    +0.000 A 
ATOM      7  C   UNL     1     -10.171   6.468 -17.623  0.00  0.00    +0.000 A 
ATOM      8  C   UNL     1     -10.145   7.684 -18.326  0.00  0.00    +0.000 A 
ENDBRANCH   1   6
BRANCH   1   9
ATOM      9  C   UNL     1     -10.719   4.713 -14.834  0.00  0.00    +0.000 C 
BRANCH   9  10
ATOM     10  C   UNL     1     -11.784   4.503 -13.730  0.00  0.00    +0.000 C 
ATOM     11  C   UNL     1     -11.638   3.130 -13.085  0.00  0.00    +0.000 C 
BRANCH  10  12
ATOM     12  O   UNL     1     -11.660   5.494 -12.700  0.00  0.00    +0.000 OA
ATOM     13  H   UNL     1     -10.733   5.784 -12.672  0.00  0.00    +0.000 HD
ENDBRANCH  10  12
ENDBRANCH   9  10
ENDBRANCH   1   9
BRANCH   1  14
ATOM     14  C   UNL     1     -11.432   3.537 -16.923  0.00  0.00    +0.000 C 
BRANCH  14  15
ATOM     15  C   UNL     1     -10.290   2.554 -16.573  0.00  0.00    +0.000 C 
ATOM     16  C   UNL     1     -10.772   1.121 -16.375  0.00  0.00    +0.000 C 
BRANCH  15  17
ATOM     17  O   UNL     1      -9.277   2.544 -17.577  0.00  0.00    +0.000 OA
ATOM     18  H   UNL     1      -9.262   3.456 -17.931  0.00  0.00    +0.000 HD
ENDBRANCH  15  17
ENDBRANCH  14  15
ENDBRANCH   1  14
TORSDOF 7
ENDMDL
MODEL 4
REMARK VINA RESULT:    -3.594      0.363      3.026
REMARK INTER + INTRA:          -5.428
REMARK INTER:                  -5.047
REMARK INTRA:                  -0.381
REMARK UNBOUND:                -0.573
REMARK  Name = 
REMARK  10 active torsions:
REMARK  status: ('A' for Active; 'I' for Inactive)
REMARK    1  A    between atoms: C_1  and  C_2
REMARK    2  A    between atoms: C_5  and  N_8
REMARK    3  A    between atoms: N_8  and  C_9
REMARK    4  A    between atoms: N_8  and  C_13
REMARK    5  A    between atoms: C_9  and  C_10
REMARK    6  A    between atoms: C_10  and  C_11
REMARK    7  A    between atoms: C_10  and  O_12
REMARK    8  A    between atoms: C_13  and  C_14
REMARK    9  A    between atoms: C_14  and  C_15
REMARK   10  A    between atoms: C_14  and  O_16
REMARK                            x       y       z     vdW  Elec       q    Type
REMARK                         _______ _______ _______ _____ _____    ______ ____
ROOT
ATOM      1  N   UNL     1       3.613  21.364 -16.168  0.00  0.00    +0.000 N 
ENDROOT
BRANCH   1   6
ATOM      2  C   UNL     1      -1.801  22.244 -14.367  0.00  0.00    +0.000 C 
ATOM      3  C   UNL     1      -0.388  22.034 -14.819  0.00  0.00    +0.000 A 
ATOM      4  C   UNL     1       0.115  22.709 -15.926  0.00  0.00    +0.000 A 
ATOM      5  C   UNL     1       1.431  22.485 -16.363  0.00  0.00    +0.000 A 
ATOM      6  C   UNL     1       2.295  21.567 -15.739  0.00  0.00    +0.000 A 
ATOM      7  C   UNL     1       1.753  20.905 -14.622  0.00  0.00    +0.000 A 
ATOM      8  C   UNL     1       0.440  21.121 -14.173  0.00  0.00    +0.000 A 
ENDBRANCH   1   6
BRANCH   1   9
ATOM      9  C   UNL     1       3.896  21.104 -17.600  0.00  0.00    +0.000 C 
BRANCH   9  10
ATOM     10  C   UNL     1       3.017  19.973 -18.190  0.00  0.00    +0.000 C 
ATOM     11  C   UNL     1       3.227  19.848 -19.694  0.00  0.00    +0.000 C 
BRANCH  10  12
ATOM     12  O   UNL     1       3.334  18.709 -17.590  0.00  0.00    +0.000 OA
ATOM     13  H   UNL     1       2.585  18.109 -17.740  0.00  0.00    +0.000 HD
ENDBRANCH  10  12
ENDBRANCH   9  10
ENDBRANCH   1   9
BRANCH   1  14
ATOM     14  C   UNL     1       4.664  20.896 -15.229  0.00  0.00    +0.000 C 
BRANCH  14  15
ATOM     15  C   UNL     1       6.088  21.080 -15.807  0.00  0.00    +0.000 C 
ATOM     16  C   UNL     1       7.011  21.871 -14.888  0.00  0.00    +0.000 C 
BRANCH  15  17
ATOM     17  O   UNL     1       6.710  19.826 -16.085  0.00  0.00    +0.000 OA
ATOM     18  H   UNL     1       7.603  20.055 -16.414  0.00  0.00    +0.000 HD
ENDBRANCH  15  17
ENDBRANCH  14  15
ENDBRANCH   1  14
TORSDOF 7
ENDMDL
MODEL 5
REMARK VINA RESULT:    -3.526     19.776     21.159
REMARK INTER + INTRA:          -5.335
REMARK INTER:                  -4.691
REMARK INTRA:                  -0.644
REMARK UNBOUND:                -0.573
REMARK  Name = 
REMARK  10 active torsions:
REMARK  status: ('A' for Active; 'I' for Inactive)
REMARK    1  A    between atoms: C_1  and  C_2
REMARK    2  A    between atoms: C_5  and  N_8
REMARK    3  A    between atoms: N_8  and  C_9
REMARK    4  A    between atoms: N_8  and  C_13
REMARK    5  A    between atoms: C_9  and  C_10
REMARK    6  A    between atoms: C_10  and  C_11
REMARK    7  A    between atoms: C_10  and  O_12
REMARK    8  A    between atoms: C_13  and  C_14
REMARK    9  A    between atoms: C_14  and  C_15
REMARK   10  A    between atoms: C_14  and  O_16
REMARK                            x       y       z     vdW  Elec       q    Type
REMARK                         _______ _______ _______ _____ _____    ______ ____
ROOT
ATOM      1  N   UNL     1     -11.339   4.614 -17.060  0.00  0.00    +0.000 N 
ENDROOT
BRANCH   1   6
ATOM      2  C   UNL     1     -11.027  10.104 -18.819  0.00  0.00    +0.000 C 
ATOM      3  C   UNL     1     -11.103   8.687 -18.339  0.00  0.00    +0.000 A 
ATOM      4  C   UNL     1      -9.979   7.867 -18.350  0.00  0.00    +0.000 A 
ATOM      5  C   UNL     1     -10.063   6.531 -17.928  0.00  0.00    +0.000 A 
ATOM      6  C   UNL     1     -11.267   5.942 -17.499  0.00  0.00    +0.000 A 
ATOM      7  C   UNL     1     -12.382   6.800 -17.499  0.00  0.00    +0.000 A 
ATOM      8  C   UNL     1     -12.311   8.139 -17.917  0.00  0.00    +0.000 A 
ENDBRANCH   1   6
BRANCH   1   9
ATOM      9  C   UNL     1     -11.818   4.309 -15.691  0.00  0.00    +0.000 C 
BRANCH   9  10
ATOM     10  C   UNL     1     -11.041   5.082 -14.597  0.00  0.00    +0.000 C 
ATOM     11  C   UNL     1     -11.840   5.142 -13.300  0.00  0.00    +0.000 C 
BRANCH  10  12
ATOM     12  O   UNL     1      -9.784   4.451 -14.315  0.00  0.00    +0.000 OA
ATOM     13  H   UNL     1      -9.082   4.981 -14.728  0.00  0.00    +0.000 HD
ENDBRANCH  10  12
ENDBRANCH   9  10
ENDBRANCH   1   9
BRANCH   1  14
ATOM     14  C   UNL     1     -10.506   3.553 -17.682  0.00  0.00    +0.000 C 
BRANCH  14  15
ATOM     15  C   UNL     1     -10.548   2.231 -16.877  0.00  0.00    +0.000 C 
ATOM     16  C   UNL     1     -10.698   0.997 -17.758  0.00  0.00    +0.000 C 
BRANCH  15  17
ATOM     17  O   UNL     1      -9.378   2.064 -16.078  0.00  0.00    +0.000 OA
ATOM     18  H   UNL     1      -9.497   1.200 -15.634  0.00  0.00    +0.000 HD
ENDBRANCH  15  17
ENDBRANCH  14  15
ENDBRANCH   1  14
TORSDOF 7
ENDMDL
MODEL 6
REMARK VINA RESULT:    -3.517     20.942     22.276
REMARK INTER + INTRA:          -5.323
REMARK INTER:                  -4.799
REMARK INTRA:                  -0.524
REMARK UNBOUND:                -0.573
REMARK  Name = 
REMARK  10 active torsions:
REMARK  status: ('A' for Active; 'I' for Inactive)
REMARK    1  A    between atoms: C_1  and  C_2
REMARK    2  A    between atoms: C_5  and  N_8
REMARK    3  A    between atoms: N_8  and  C_9
REMARK    4  A    between atoms: N_8  and  C_13
REMARK    5  A    between atoms: C_9  and  C_10
REMARK    6  A    between atoms: C_10  and  C_11
REMARK    7  A    between atoms: C_10  and  O_12
REMARK    8  A    between atoms: C_13  and  C_14
REMARK    9  A    between atoms: C_14  and  C_15
REMARK   10  A    between atoms: C_14  and  O_16
REMARK                            x       y       z     vdW  Elec       q    Type
REMARK                         _______ _______ _______ _____ _____    ______ ____
ROOT
ATOM      1  N   UNL     1     -11.304   4.125 -16.534  0.00  0.00    +0.000 N 
ENDROOT
BRANCH   1   6
ATOM      2  C   UNL     1     -12.381   4.061 -10.862  0.00  0.00    +0.000 C 
ATOM      3  C   UNL     1     -12.077   4.083 -12.329  0.00  0.00    +0.000 A 
ATOM      4  C   UNL     1     -12.224   5.250 -13.072  0.00  0.00    +0.000 A 
ATOM      5  C   UNL     1     -11.967   5.257 -14.452  0.00  0.00    +0.000 A 
ATOM      6  C   UNL     1     -11.577   4.106 -15.160  0.00  0.00    +0.000 A 
ATOM      7  C   UNL     1     -11.437   2.945 -14.378  0.00  0.00    +0.000 A 
ATOM      8  C   UNL     1     -11.689   2.925 -12.996  0.00  0.00    +0.000 A 
ENDBRANCH   1   6
BRANCH   1   9
ATOM      9  C   UNL     1     -10.302   3.193 -17.105  0.00  0.00    +0.000 C 
BRANCH   9  10
ATOM     10  C   UNL     1     -10.949   2.008 -17.864  0.00  0.00    +0.000 C 
ATOM     11  C   UNL     1     -10.585   0.680 -17.212  0.00  0.00    +0.000 C 
BRANCH  10  12
ATOM     12  O   UNL     1     -12.379   2.122 -17.873  0.00  0.00    +0.000 OA
ATOM     13  H   UNL     1     -12.677   2.098 -18.797  0.00  0.00    +0.000 HD
ENDBRANCH  10  12
ENDBRANCH   9  10
ENDBRANCH   1   9
BRANCH   1  14
ATOM     14  C   UNL     1     -11.571   5.334 -17.354  0.00  0.00    +0.000 C 
BRANCH  14  15
ATOM     15  C   UNL     1     -10.269   6.072 -17.749  0.00  0.00    +0.000 C 
ATOM     16  C   UNL     1     -10.438   6.978 -18.963  0.00  0.00    +0.000 C 
BRANCH  15  17
ATOM     17  O   UNL     1      -9.765   6.863 -16.675  0.00  0.00    +0.000 OA
ATOM     18  H   UNL     1      -8.834   6.583 -16.570  0.00  0.00    +0.000 HD
ENDBRANCH  15  17
ENDBRANCH  14  15
ENDBRANCH   1  14
TORSDOF 7
ENDMDL
MODEL 7
REMARK VINA RESULT:    -3.344      4.923      7.841
REMARK INTER + INTRA:          -5.090
REMARK INTER:                  -4.646
REMARK INTRA:                  -0.444
REMARK UNBOUND:                -0.573
REMARK  Name = 
REMARK  10 active torsions:
REMARK  status: ('A' for Active; 'I' for Inactive)
REMARK    1  A    between atoms: C_1  and  C_2
REMARK    2  A    between atoms: C_5  and  N_8
REMARK    3  A    between atoms: N_8  and  C_9
REMARK    4  A    between atoms: N_8  and  C_13
REMARK    5  A    between atoms: C_9  and  C_10
REMARK    6  A    between atoms: C_10  and  C_11
REMARK    7  A    between atoms: C_10  and  O_12
REMARK    8  A    between atoms: C_13  and  C_14
REMARK    9  A    between atoms: C_14  and  C_15
REMARK   10  A    between atoms: C_14  and  O_16
REMARK                            x       y       z     vdW  Elec       q    Type
REMARK                         _______ _______ _______ _____ _____    ______ ____
ROOT
ATOM      1  N   UNL     1      -3.923  21.604 -15.315  0.00  0.00    +0.000 N 
ENDROOT
BRANCH   1   6
ATOM      2  C   UNL     1      -8.817  21.920 -12.270  0.00  0.00    +0.000 C 
ATOM      3  C   UNL     1      -7.543  21.815 -13.051  0.00  0.00    +0.000 A 
ATOM      4  C   UNL     1      -6.345  22.295 -12.531  0.00  0.00    +0.000 A 
ATOM      5  C   UNL     1      -5.159  22.222 -13.280  0.00  0.00    +0.000 A 
ATOM      6  C   UNL     1      -5.113  21.692 -14.582  0.00  0.00    +0.000 A 
ATOM      7  C   UNL     1      -6.341  21.215 -15.075  0.00  0.00    +0.000 A 
ATOM      8  C   UNL     1      -7.534  21.280 -14.336  0.00  0.00    +0.000 A 
ENDBRANCH   1   6
BRANCH   1   9
ATOM      9  C   UNL     1      -3.436  20.285 -15.788  0.00  0.00    +0.000 C 
BRANCH   9  10
ATOM     10  C   UNL     1      -3.277  20.220 -17.326  0.00  0.00    +0.000 C 
ATOM     11  C   UNL     1      -4.214  21.208 -18.013  0.00  0.00    +0.000 C 
BRANCH  10  12
ATOM     12  O   UNL     1      -1.934  20.535 -17.719  0.00  0.00    +0.000 OA
ATOM     13  H   UNL     1      -1.332  20.175 -17.047  0.00  0.00    +0.000 HD
ENDBRANCH  10  12
ENDBRANCH   9  10
ENDBRANCH   1   9
BRANCH   1  14
ATOM     14  C   UNL     1      -2.878  22.655 -15.214  0.00  0.00    +0.000 C 
BRANCH  14  15
ATOM     15  C   UNL     1      -1.623  22.161 -14.455  0.00  0.00    +0.000 C 
ATOM     16  C   UNL     1      -0.326  22.400 -15.219  0.00  0.00    +0.000 C 
BRANCH  15  17
ATOM     17  O   UNL     1      -1.503  22.781 -13.176  0.00  0.00    +0.000 OA
ATOM     18  H   UNL     1      -2.179  23.489 -13.173  0.00  0.00    +0.000 HD
ENDBRANCH  15  17
ENDBRANCH  14  15
ENDBRANCH   1  14
TORSDOF 7
ENDMDL
MODEL 8
REMARK VINA RESULT:    -3.337     18.977     20.343
REMARK INTER + INTRA:          -5.080
REMARK INTER:                  -4.640
REMARK INTRA:                  -0.441
REMARK UNBOUND:                -0.573
REMARK  Name = 
REMARK  10 active torsions:
REMARK  status: ('A' for Active; 'I' for Inactive)
REMARK    1  A    between atoms: C_1  and  C_2
REMARK    2  A    between atoms: C_5  and  N_8
REMARK    3  A    between atoms: N_8  and  C_9
REMARK    4  A    between atoms: N_8  and  C_13
REMARK    5  A    between atoms: C_9  and  C_10
REMARK    6  A    between atoms: C_10  and  C_11
REMARK    7  A    between atoms: C_10  and  O_12
REMARK    8  A    between atoms: C_13  and  C_14
REMARK    9  A    between atoms: C_14  and  C_15
REMARK   10  A    between atoms: C_14  and  O_16
REMARK                            x       y       z     vdW  Elec       q    Type
REMARK                         _______ _______ _______ _____ _____    ______ ____
ROOT
ATOM      1  N   UNL     1     -10.904   6.737 -17.744  0.00  0.00    +0.000 N 
ENDROOT
BRANCH   1   6
ATOM      2  C   UNL     1     -11.633   3.058 -13.355  0.00  0.00    +0.000 C 
ATOM      3  C   UNL     1     -11.419   4.013 -14.490  0.00  0.00    +0.000 A 
ATOM      4  C   UNL     1     -11.477   5.388 -14.288  0.00  0.00    +0.000 A 
ATOM      5  C   UNL     1     -11.306   6.277 -15.361  0.00  0.00    +0.000 A 
ATOM      6  C   UNL     1     -11.093   5.844 -16.682  0.00  0.00    +0.000 A 
ATOM      7  C   UNL     1     -11.038   4.448 -16.849  0.00  0.00    +0.000 A 
ATOM      8  C   UNL     1     -11.206   3.548 -15.784  0.00  0.00    +0.000 A 
ENDBRANCH   1   6
BRANCH   1   9
ATOM      9  C   UNL     1      -9.547   7.248 -18.053  0.00  0.00    +0.000 C 
BRANCH   9  10
ATOM     10  C   UNL     1      -8.938   6.605 -19.323  0.00  0.00    +0.000 C 
ATOM     11  C   UNL     1      -7.697   7.365 -19.777  0.00  0.00    +0.000 C 
BRANCH  10  12
ATOM     12  O   UNL     1      -8.560   5.243 -19.079  0.00  0.00    +0.000 OA
ATOM     13  H   UNL     1      -8.729   5.046 -18.142  0.00  0.00    +0.000 HD
ENDBRANCH  10  12
ENDBRANCH   9  10
ENDBRANCH   1   9
BRANCH   1  14
ATOM     14  C   UNL     1     -12.018   7.581 -18.247  0.00  0.00    +0.000 C 
BRANCH  14  15
ATOM     15  C   UNL     1     -11.630   9.078 -18.321  0.00  0.00    +0.000 C 
ATOM     16  C   UNL     1     -11.816   9.677 -19.710  0.00  0.00    +0.000 C 
BRANCH  15  17
ATOM     17  O   UNL     1     -12.382   9.863 -17.397  0.00  0.00    +0.000 OA
ATOM     18  H   UNL     1     -12.555   9.267 -16.640  0.00  0.00    +0.000 HD
ENDBRANCH  15  17
ENDBRANCH  14  15
ENDBRANCH   1  14
TORSDOF 7
ENDMDL
MODEL 9
REMARK VINA RESULT:    -3.216      1.824      5.031
REMARK INTER + INTRA:          -4.917
REMARK INTER:                  -4.465
REMARK INTRA:                  -0.452
REMARK UNBOUND:                -0.573
REMARK  Name = 
REMARK  10 active torsions:
REMARK  status: ('A' for Active; 'I' for Inactive)
REMARK    1  A    between atoms: C_1  and  C_2
REMARK    2  A    between atoms: C_5  and  N_8
REMARK    3  A    between atoms: N_8  and  C_9
REMARK    4  A    between atoms: N_8  and  C_13
REMARK    5  A    between atoms: C_9  and  C_10
REMARK    6  A    between atoms: C_10  and  C_11
REMARK    7  A    between atoms: C_10  and  O_12
REMARK    8  A    between atoms: C_13  and  C_14
REMARK    9  A    between atoms: C_14  and  C_15
REMARK   10  A    between atoms: C_14  and  O_16
REMARK                            x       y       z     vdW  Elec       q    Type
REMARK                         _______ _______ _______ _____ _____    ______ ____
ROOT
ATOM      1  N   UNL     1       4.007  21.906 -16.918  0.00  0.00    +0.000 N 
ENDROOT
BRANCH   1   6
ATOM      2  C   UNL     1       8.893  21.734 -13.848  0.00  0.00    +0.000 C 
ATOM      3  C   UNL     1       7.636  21.794 -14.661  0.00  0.00    +0.000 A 
ATOM      4  C   UNL     1       6.640  22.720 -14.369  0.00  0.00    +0.000 A 
ATOM      5  C   UNL     1       5.451  22.753 -15.115  0.00  0.00    +0.000 A 
ATOM      6  C   UNL     1       5.187  21.855 -16.165  0.00  0.00    +0.000 A 
ATOM      7  C   UNL     1       6.216  20.934 -16.434  0.00  0.00    +0.000 A 
ATOM      8  C   UNL     1       7.411  20.893 -15.697  0.00  0.00    +0.000 A 
ENDBRANCH   1   6
BRANCH   1   9
ATOM      9  C   UNL     1       2.703  22.112 -16.243  0.00  0.00    +0.000 C 
BRANCH   9  10
ATOM     10  C   UNL     1       2.590  21.339 -14.906  0.00  0.00    +0.000 C 
ATOM     11  C   UNL     1       1.973  22.214 -13.821  0.00  0.00    +0.000 C 
BRANCH  10  12
ATOM     12  O   UNL     1       1.770  20.171 -15.054  0.00  0.00    +0.000 OA
ATOM     13  H   UNL     1       2.270  19.408 -14.720  0.00  0.00    +0.000 HD
ENDBRANCH  10  12
ENDBRANCH   9  10
ENDBRANCH   1   9
BRANCH   1  14
ATOM     14  C   UNL     1       3.922  21.272 -18.259  0.00  0.00    +0.000 C 
BRANCH  14  15
ATOM     15  C   UNL     1       2.870  20.137 -18.303  0.00  0.00    +0.000 C 
ATOM     16  C   UNL     1       2.515  19.704 -19.720  0.00  0.00    +0.000 C 
BRANCH  15  17
ATOM     17  O   UNL     1       3.307  18.985 -17.585  0.00  0.00    +0.000 OA
ATOM     18  H   UNL     1       2.544  18.729 -17.029  0.00  0.00    +0.000 HD
ENDBRANCH  15  17
ENDBRANCH  14  15
ENDBRANCH   1  14
TORSDOF 7
ENDMDL
