MODEL 1
REMARK VINA RESULT:    -5.154      0.000      0.000
REMARK INTER + INTRA:          -7.492
REMARK INTER:                  -6.962
REMARK INTRA:                  -0.530
REMARK UNBOUND:                -0.530
REMARK  Name = 
REMARK  10 active torsions:
REMARK  status: ('A' for Active; 'I' for Inactive)
REMARK    1  A    between atoms: C_1  and  C_2
REMARK    2  A    between atoms: C_5  and  N_8
REMARK    3  A    between atoms: N_8  and  C_9
REMARK    4  A    between atoms: N_8  and  C_13
REMARK    5  A    between atoms: C_9  and  C_10
REMARK    6  A    between atoms: C_10  and  C_11
REMARK    7  A    between atoms: C_10  and  O_12
REMARK    8  A    between atoms: C_13  and  C_14
REMARK    9  A    between atoms: C_14  and  C_15
REMARK   10  A    between atoms: C_14  and  O_16
REMARK                            x       y       z     vdW  Elec       q    Type
REMARK                         _______ _______ _______ _____ _____    ______ ____
ROOT
ATOM      1  N   UNL     1      -0.523  31.502 -23.950  0.00  0.00    +0.000 N 
ENDROOT
BRANCH   1   6
ATOM      2  C   UNL     1      -2.397  32.907 -18.673  0.00  0.00    +0.000 C 
ATOM      3  C   UNL     1      -1.890  32.556 -20.038  0.00  0.00    +0.000 A 
ATOM      4  C   UNL     1      -2.228  33.326 -21.145  0.00  0.00    +0.000 A 
ATOM      5  C   UNL     1      -1.775  32.975 -22.428  0.00  0.00    +0.000 A 
ATOM      6  C   UNL     1      -0.988  31.835 -22.671  0.00  0.00    +0.000 A 
ATOM      7  C   UNL     1      -0.664  31.081 -21.528  0.00  0.00    +0.000 A 
ATOM      8  C   UNL     1      -1.108  31.422 -20.240  0.00  0.00    +0.000 A 
ENDBRANCH   1   6
BRANCH   1   9
ATOM      9  C   UNL     1       0.478  30.421 -24.118  0.00  0.00    +0.000 C 
BRANCH   9  10
ATOM     10  C   UNL     1      -0.159  29.070 -24.526  0.00  0.00    +0.000 C 
ATOM     11  C   UNL     1      -0.042  28.051 -23.399  0.00  0.00    +0.000 C 
BRANCH  10  12
ATOM     12  O   UNL     1      -1.551  29.231 -24.837  0.00  0.00    +0.000 OA
ATOM     13  H   UNL     1      -1.858  28.417 -25.269  0.00  0.00    +0.000 HD
ENDBRANCH  10  12
ENDBRANCH   9  10
ENDBRANCH   1   9
BRANCH   1  14
ATOM     14  C   UNL     1      -0.584  32.477 -25.068  0.00  0.00    +0.000 C 
BRANCH  14  15
ATOM     15  C   UNL     1      -1.978  32.511 -25.739  0.00  0.00    +0.000 C 
ATOM     16  C   UNL     1      -2.150  33.679 -26.704  0.00  0.00    +0.000 C 
BRANCH  15  17
ATOM     17  O   UNL     1      -2.249  31.305 -26.452  0.00  0.00    +0.000 OA
ATOM     18  H   UNL     1      -1.371  30.912 -26.626  0.00  0.00    +0.000 HD
ENDBRANCH  15  17
ENDBRANCH  14  15
ENDBRANCH   1  14
TORSDOF 7
ENDMDL
MODEL 2
REMARK VINA RESULT:    -3.821      1.499      2.019
REMARK INTER + INTRA:          -5.692
REMARK INTER:                  -5.530
REMARK INTRA:                  -0.162
REMARK UNBOUND:                -0.530
REMARK  Name = 
REMARK  10 active torsions:
REMARK  status: ('A' for Active; 'I' for Inactive)
REMARK    1  A    between atoms: C_1  and  C_2
REMARK    2  A    between atoms: C_5  and  N_8
REMARK    3  A    between atoms: N_8  and  C_9
REMARK    4  A    between atoms: N_8  and  C_13
REMARK    5  A    between atoms: C_9  and  C_10
REMARK    6  A    between atoms: C_10  and  C_11
REMARK    7  A    between atoms: C_10  and  O_12
REMARK    8  A    between atoms: C_13  and  C_14
REMARK    9  A    between atoms: C_14  and  C_15
REMARK   10  A    between atoms: C_14  and  O_16
REMARK                            x       y       z     vdW  Elec       q    Type
REMARK                         _______ _______ _______ _____ _____    ______ ____
ROOT
ATOM      1  N   UNL     1      -0.507  32.883 -23.870  0.00  0.00    +0.000 N 
ENDROOT
BRANCH   1   6
ATOM      2  C   UNL     1      -3.078  33.182 -18.709  0.00  0.00    +0.000 C 
ATOM      3  C   UNL     1      -2.423  33.083 -20.053  0.00  0.00    +0.000 A 
ATOM      4  C   UNL     1      -1.192  32.453 -20.203  0.00  0.00    +0.000 A 
ATOM      5  C   UNL     1      -0.569  32.389 -21.460  0.00  0.00    +0.000 A 
ATOM      6  C   UNL     1      -1.125  32.967 -22.616  0.00  0.00    +0.000 A 
ATOM      7  C   UNL     1      -2.370  33.594 -22.427  0.00  0.00    +0.000 A 
ATOM      8  C   UNL     1      -3.006  33.662 -21.176  0.00  0.00    +0.000 A 
ENDBRANCH   1   6
BRANCH   1   9
ATOM      9  C   UNL     1       0.298  31.689 -24.223  0.00  0.00    +0.000 C 
BRANCH   9  10
ATOM     10  C   UNL     1      -0.552  30.398 -24.317  0.00  0.00    +0.000 C 
ATOM     11  C   UNL     1      -1.929  30.693 -24.898  0.00  0.00    +0.000 C 
BRANCH  10  12
ATOM     12  O   UNL     1       0.084  29.423 -25.155  0.00  0.00    +0.000 OA
ATOM     13  H   UNL     1      -0.477  29.284 -25.936  0.00  0.00    +0.000 HD
ENDBRANCH  10  12
ENDBRANCH   9  10
ENDBRANCH   1   9
BRANCH   1  14
ATOM     14  C   UNL     1      -0.191  34.103 -24.655  0.00  0.00    +0.000 C 
BRANCH  14  15
ATOM     15  C   UNL     1      -1.071  34.227 -25.922  0.00  0.00    +0.000 C 
ATOM     16  C   UNL     1      -0.574  33.374 -27.083  0.00  0.00    +0.000 C 
BRANCH  15  17
ATOM     17  O   UNL     1      -2.427  33.870 -25.659  0.00  0.00    +0.000 OA
ATOM     18  H   UNL     1      -2.593  34.165 -24.741  0.00  0.00    +0.000 HD
ENDBRANCH  15  17
ENDBRANCH  14  15
ENDBRANCH   1  14
TORSDOF 7
ENDMDL
MODEL 3
REMARK VINA RESULT:    -3.637     10.512     12.892
REMARK INTER + INTRA:          -5.443
REMARK INTER:                  -5.186
REMARK INTRA:                  -0.258
REMARK UNBOUND:                -0.530
REMARK  Name = 
REMARK  10 active torsions:
REMARK  status: ('A' for Active; 'I' for Inactive)
REMARK    1  A    between atoms: C_1  and  C_2
REMARK    2  A    between atoms: C_5  and  N_8
REMARK    3  A    between atoms: N_8  and  C_9
REMARK    4  A    between atoms: N_8  and  C_13
REMARK    5  A    between atoms: C_9  and  C_10
REMARK    6  A    between atoms: C_10  and  C_11
REMARK    7  A    between atoms: C_10  and  O_12
REMARK    8  A    between atoms: C_13  and  C_14
REMARK    9  A    between atoms: C_14  and  C_15
REMARK   10  A    between atoms: C_14  and  O_16
REMARK                            x       y       z     vdW  Elec       q    Type
REMARK                         _______ _______ _______ _____ _____    ______ ____
ROOT
ATOM      1  N   UNL     1      -0.901  22.767 -33.039  0.00  0.00    +0.000 N 
ENDROOT
BRANCH   1   6
ATOM      2  C   UNL     1       0.699  23.638 -27.561  0.00  0.00    +0.000 C 
ATOM      3  C   UNL     1       0.261  23.405 -28.975  0.00  0.00    +0.000 A 
ATOM      4  C   UNL     1       0.451  22.171 -29.587  0.00  0.00    +0.000 A 
ATOM      5  C   UNL     1       0.066  21.968 -30.922  0.00  0.00    +0.000 A 
ATOM      6  C   UNL     1      -0.501  22.983 -31.714  0.00  0.00    +0.000 A 
ATOM      7  C   UNL     1      -0.680  24.216 -31.062  0.00  0.00    +0.000 A 
ATOM      8  C   UNL     1      -0.301  24.433 -29.726  0.00  0.00    +0.000 A 
ENDBRANCH   1   6
BRANCH   1   9
ATOM      9  C   UNL     1      -2.245  22.212 -33.329  0.00  0.00    +0.000 C 
BRANCH   9  10
ATOM     10  C   UNL     1      -3.307  22.633 -32.283  0.00  0.00    +0.000 C 
ATOM     11  C   UNL     1      -4.182  23.760 -32.818  0.00  0.00    +0.000 C 
BRANCH  10  12
ATOM     12  O   UNL     1      -4.159  21.531 -31.943  0.00  0.00    +0.000 OA
ATOM     13  H   UNL     1      -3.651  20.916 -31.390  0.00  0.00    +0.000 HD
ENDBRANCH  10  12
ENDBRANCH   9  10
ENDBRANCH   1   9
BRANCH   1  14
ATOM     14  C   UNL     1       0.098  22.584 -34.123  0.00  0.00    +0.000 C 
BRANCH  14  15
ATOM     15  C   UNL     1      -0.541  22.023 -35.417  0.00  0.00    +0.000 C 
ATOM     16  C   UNL     1      -0.222  22.856 -36.653  0.00  0.00    +0.000 C 
BRANCH  15  17
ATOM     17  O   UNL     1      -0.128  20.681 -35.670  0.00  0.00    +0.000 OA
ATOM     18  H   UNL     1      -0.691  20.379 -36.411  0.00  0.00    +0.000 HD
ENDBRANCH  15  17
ENDBRANCH  14  15
ENDBRANCH   1  14
TORSDOF 7
ENDMDL
MODEL 4
REMARK VINA RESULT:    -3.395     12.067     13.706
REMARK INTER + INTRA:          -5.116
REMARK INTER:                  -4.732
REMARK INTRA:                  -0.385
REMARK UNBOUND:                -0.530
REMARK  Name = 
REMARK  10 active torsions:
REMARK  status: ('A' for Active; 'I' for Inactive)
REMARK    1  A    between atoms: C_1  and  C_2
REMARK    2  A    between atoms: C_5  and  N_8
REMARK    3  A    between atoms: N_8  and  C_9
REMARK    4  A    between atoms: N_8  and  C_13
REMARK    5  A    between atoms: C_9  and  C_10
REMARK    6  A    between atoms: C_10  and  C_11
REMARK    7  A    between atoms: C_10  and  O_12
REMARK    8  A    between atoms: C_13  and  C_14
REMARK    9  A    between atoms: C_14  and  C_15
REMARK   10  A    between atoms: C_14  and  O_16
REMARK                            x       y       z     vdW  Elec       q    Type
REMARK                         _______ _______ _______ _____ _____    ______ ____
ROOT
ATOM      1  N   UNL     1      -5.175  30.614 -36.553  0.00  0.00    +0.000 N 
ENDROOT
BRANCH   1   6
ATOM      2  C   UNL     1       0.409  30.313 -35.122  0.00  0.00    +0.000 C 
ATOM      3  C   UNL     1      -1.043  30.367 -35.487  0.00  0.00    +0.000 A 
ATOM      4  C   UNL     1      -1.465  30.088 -36.782  0.00  0.00    +0.000 A 
ATOM      5  C   UNL     1      -2.824  30.170 -37.126  0.00  0.00    +0.000 A 
ATOM      6  C   UNL     1      -3.819  30.554 -36.209  0.00  0.00    +0.000 A 
ATOM      7  C   UNL     1      -3.357  30.826 -34.908  0.00  0.00    +0.000 A 
ATOM      8  C   UNL     1      -2.000  30.746 -34.551  0.00  0.00    +0.000 A 
ENDBRANCH   1   6
BRANCH   1   9
ATOM      9  C   UNL     1      -5.819  29.470 -37.242  0.00  0.00    +0.000 C 
BRANCH   9  10
ATOM     10  C   UNL     1      -5.470  28.107 -36.595  0.00  0.00    +0.000 C 
ATOM     11  C   UNL     1      -6.272  27.889 -35.317  0.00  0.00    +0.000 C 
BRANCH  10  12
ATOM     12  O   UNL     1      -5.758  27.024 -37.490  0.00  0.00    +0.000 OA
ATOM     13  H   UNL     1      -4.964  26.855 -38.025  0.00  0.00    +0.000 HD
ENDBRANCH  10  12
ENDBRANCH   9  10
ENDBRANCH   1   9
BRANCH   1  14
ATOM     14  C   UNL     1      -5.867  31.917 -36.728  0.00  0.00    +0.000 C 
BRANCH  14  15
ATOM     15  C   UNL     1      -6.533  32.405 -35.418  0.00  0.00    +0.000 C 
ATOM     16  C   UNL     1      -7.778  33.251 -35.658  0.00  0.00    +0.000 C 
BRANCH  15  17
ATOM     17  O   UNL     1      -6.895  31.314 -34.573  0.00  0.00    +0.000 OA
ATOM     18  H   UNL     1      -7.739  30.981 -34.939  0.00  0.00    +0.000 HD
ENDBRANCH  15  17
ENDBRANCH  14  15
ENDBRANCH   1  14
TORSDOF 7
ENDMDL
MODEL 5
REMARK VINA RESULT:    -3.393     11.237     14.154
REMARK INTER + INTRA:          -5.113
REMARK INTER:                  -5.059
REMARK INTRA:                  -0.054
REMARK UNBOUND:                -0.530
REMARK  Name = 
REMARK  10 active torsions:
REMARK  status: ('A' for Active; 'I' for Inactive)
REMARK    1  A    between atoms: C_1  and  C_2
REMARK    2  A    between atoms: C_5  and  N_8
REMARK    3  A    between atoms: N_8  and  C_9
REMARK    4  A    between atoms: N_8  and  C_13
REMARK    5  A    between atoms: C_9  and  C_10
REMARK    6  A    between atoms: C_10  and  C_11
REMARK    7  A    between atoms: C_10  and  O_12
REMARK    8  A    between atoms: C_13  and  C_14
REMARK    9  A    between atoms: C_14  and  C_15
REMARK   10  A    between atoms: C_14  and  O_16
REMARK                            x       y       z     vdW  Elec       q    Type
REMARK                         _______ _______ _______ _____ _____    ______ ____
ROOT
ATOM      1  N   UNL     1      -1.833  22.505 -32.579  0.00  0.00    +0.000 N 
ENDROOT
BRANCH   1   6
ATOM      2  C   UNL     1       0.501  22.964 -37.839  0.00  0.00    +0.000 C 
ATOM      3  C   UNL     1      -0.104  22.820 -36.477  0.00  0.00    +0.000 A 
ATOM      4  C   UNL     1      -1.484  22.818 -36.305  0.00  0.00    +0.000 A 
ATOM      5  C   UNL     1      -2.046  22.713 -35.022  0.00  0.00    +0.000 A 
ATOM      6  C   UNL     1      -1.266  22.629 -33.854  0.00  0.00    +0.000 A 
ATOM      7  C   UNL     1       0.125  22.632 -34.066  0.00  0.00    +0.000 A 
ATOM      8  C   UNL     1       0.699  22.735 -35.343  0.00  0.00    +0.000 A 
ENDBRANCH   1   6
BRANCH   1   9
ATOM      9  C   UNL     1      -0.964  22.291 -31.397  0.00  0.00    +0.000 C 
BRANCH   9  10
ATOM     10  C   UNL     1      -0.726  23.587 -30.584  0.00  0.00    +0.000 C 
ATOM     11  C   UNL     1      -0.426  24.762 -31.507  0.00  0.00    +0.000 C 
BRANCH  10  12
ATOM     12  O   UNL     1      -1.880  23.922 -29.800  0.00  0.00    +0.000 OA
ATOM     13  H   UNL     1      -1.611  24.575 -29.133  0.00  0.00    +0.000 HD
ENDBRANCH  10  12
ENDBRANCH   9  10
ENDBRANCH   1   9
BRANCH   1  14
ATOM     14  C   UNL     1      -3.244  22.074 -32.404  0.00  0.00    +0.000 C 
BRANCH  14  15
ATOM     15  C   UNL     1      -4.116  23.179 -31.760  0.00  0.00    +0.000 C 
ATOM     16  C   UNL     1      -4.834  24.049 -32.785  0.00  0.00    +0.000 C 
BRANCH  15  17
ATOM     17  O   UNL     1      -5.097  22.631 -30.881  0.00  0.00    +0.000 OA
ATOM     18  H   UNL     1      -5.627  22.026 -31.439  0.00  0.00    +0.000 HD
ENDBRANCH  15  17
ENDBRANCH  14  15
ENDBRANCH   1  14
TORSDOF 7
ENDMDL
MODEL 6
REMARK VINA RESULT:    -3.191     12.817     14.366
REMARK INTER + INTRA:          -4.841
REMARK INTER:                  -4.076
REMARK INTRA:                  -0.765
REMARK UNBOUND:                -0.530
REMARK  Name = 
REMARK  10 active torsions:
REMARK  status: ('A' for Active; 'I' for Inactive)
REMARK    1  A    between atoms: C_1  and  C_2
REMARK    2  A    between atoms: C_5  and  N_8
REMARK    3  A    between atoms: N_8  and  C_9
REMARK    4  A    between atoms: N_8  and  C_13
REMARK    5  A    between atoms: C_9  and  C_10
REMARK    6  A    between atoms: C_10  and  C_11
REMARK    7  A    between atoms: C_10  and  O_12
REMARK    8  A    between atoms: C_13  and  C_14
REMARK    9  A    between atoms: C_14  and  C_15
REMARK   10  A    between atoms: C_14  and  O_16
REMARK                            x       y       z     vdW  Elec       q    Type
REMARK                         _______ _______ _______ _____ _____    ______ ____
ROOT
ATOM      1  N   UNL     1      -4.185  31.319 -37.178  0.00  0.00    +0.000 N 
ENDROOT
BRANCH   1   6
ATOM      2  C   UNL     1      -6.760  26.926 -34.457  0.00  0.00    +0.000 C 
ATOM      3  C   UNL     1      -6.114  28.077 -35.167  0.00  0.00    +0.000 A 
ATOM      4  C   UNL     1      -5.895  28.038 -36.540  0.00  0.00    +0.000 A 
ATOM      5  C   UNL     1      -5.262  29.106 -37.195  0.00  0.00    +0.000 A 
ATOM      6  C   UNL     1      -4.798  30.248 -36.516  0.00  0.00    +0.000 A 
ATOM      7  C   UNL     1      -5.038  30.254 -35.130  0.00  0.00    +0.000 A 
ATOM      8  C   UNL     1      -5.673  29.193 -34.462  0.00  0.00    +0.000 A 
ENDBRANCH   1   6
BRANCH   1   9
ATOM      9  C   UNL     1      -4.843  31.942 -38.352  0.00  0.00    +0.000 C 
BRANCH   9  10
ATOM     10  C   UNL     1      -5.930  32.971 -37.954  0.00  0.00    +0.000 C 
ATOM     11  C   UNL     1      -7.326  32.386 -38.135  0.00  0.00    +0.000 C 
BRANCH  10  12
ATOM     12  O   UNL     1      -5.787  33.366 -36.583  0.00  0.00    +0.000 OA
ATOM     13  H   UNL     1      -5.485  34.289 -36.565  0.00  0.00    +0.000 HD
ENDBRANCH  10  12
ENDBRANCH   9  10
ENDBRANCH   1   9
BRANCH   1  14
ATOM     14  C   UNL     1      -2.717  31.533 -37.099  0.00  0.00    +0.000 C 
BRANCH  14  15
ATOM     15  C   UNL     1      -2.354  32.790 -36.272  0.00  0.00    +0.000 C 
ATOM     16  C   UNL     1      -2.088  34.018 -37.134  0.00  0.00    +0.000 C 
BRANCH  15  17
ATOM     17  O   UNL     1      -3.380  33.120 -35.337  0.00  0.00    +0.000 OA
ATOM     18  H   UNL     1      -3.252  32.499 -34.592  0.00  0.00    +0.000 HD
ENDBRANCH  15  17
ENDBRANCH  14  15
ENDBRANCH   1  14
TORSDOF 7
ENDMDL
MODEL 7
REMARK VINA RESULT:    -3.082     10.514     13.633
REMARK INTER + INTRA:          -4.693
REMARK INTER:                  -4.673
REMARK INTRA:                  -0.021
REMARK UNBOUND:                -0.530
REMARK  Name = 
REMARK  10 active torsions:
REMARK  status: ('A' for Active; 'I' for Inactive)
REMARK    1  A    between atoms: C_1  and  C_2
REMARK    2  A    between atoms: C_5  and  N_8
REMARK    3  A    between atoms: N_8  and  C_9
REMARK    4  A    between atoms: N_8  and  C_13
REMARK    5  A    between atoms: C_9  and  C_10
REMARK    6  A    between atoms: C_10  and  C_11
REMARK    7  A    between atoms: C_10  and  O_12
REMARK    8  A    between atoms: C_13  and  C_14
REMARK    9  A    between atoms: C_14  and  C_15
REMARK   10  A    between atoms: C_14  and  O_16
REMARK                            x       y       z     vdW  Elec       q    Type
REMARK                         _______ _______ _______ _____ _____    ______ ____
ROOT
ATOM      1  N   UNL     1      -0.573  22.932 -31.713  0.00  0.00    +0.000 N 
ENDROOT
BRANCH   1   6
ATOM      2  C   UNL     1      -3.396  22.415 -36.721  0.00  0.00    +0.000 C 
ATOM      3  C   UNL     1      -2.660  22.573 -35.427  0.00  0.00    +0.000 A 
ATOM      4  C   UNL     1      -1.293  22.326 -35.347  0.00  0.00    +0.000 A 
ATOM      5  C   UNL     1      -0.613  22.447 -34.125  0.00  0.00    +0.000 A 
ATOM      6  C   UNL     1      -1.260  22.794 -32.925  0.00  0.00    +0.000 A 
ATOM      7  C   UNL     1      -2.641  23.038 -33.043  0.00  0.00    +0.000 A 
ATOM      8  C   UNL     1      -3.333  22.923 -34.260  0.00  0.00    +0.000 A 
ENDBRANCH   1   6
BRANCH   1   9
ATOM      9  C   UNL     1      -0.766  24.145 -30.882  0.00  0.00    +0.000 C 
BRANCH   9  10
ATOM     10  C   UNL     1       0.511  25.015 -30.784  0.00  0.00    +0.000 C 
ATOM     11  C   UNL     1       0.434  26.203 -31.736  0.00  0.00    +0.000 C 
BRANCH  10  12
ATOM     12  O   UNL     1       0.687  25.522 -29.454  0.00  0.00    +0.000 OA
ATOM     13  H   UNL     1      -0.191  25.621 -29.050  0.00  0.00    +0.000 HD
ENDBRANCH  10  12
ENDBRANCH   9  10
ENDBRANCH   1   9
BRANCH   1  14
ATOM     14  C   UNL     1       0.693  22.196 -31.459  0.00  0.00    +0.000 C 
BRANCH  14  15
ATOM     15  C   UNL     1       0.627  21.350 -30.164  0.00  0.00    +0.000 C 
ATOM     16  C   UNL     1       0.699  22.190 -28.895  0.00  0.00    +0.000 C 
BRANCH  15  17
ATOM     17  O   UNL     1      -0.563  20.565 -30.107  0.00  0.00    +0.000 OA
ATOM     18  H   UNL     1      -1.291  21.215 -30.031  0.00  0.00    +0.000 HD
ENDBRANCH  15  17
ENDBRANCH  14  15
ENDBRANCH   1  14
TORSDOF 7
ENDMDL
MODEL 8
REMARK VINA RESULT:    -3.001     10.163     13.502
REMARK INTER + INTRA:          -4.584
REMARK INTER:                  -3.815
REMARK INTRA:                  -0.769
REMARK UNBOUND:                -0.530
REMARK  Name = 
REMARK  10 active torsions:
REMARK  status: ('A' for Active; 'I' for Inactive)
REMARK    1  A    between atoms: C_1  and  C_2
REMARK    2  A    between atoms: C_5  and  N_8
REMARK    3  A    between atoms: N_8  and  C_9
REMARK    4  A    between atoms: N_8  and  C_13
REMARK    5  A    between atoms: C_9  and  C_10
REMARK    6  A    between atoms: C_10  and  C_11
REMARK    7  A    between atoms: C_10  and  O_12
REMARK    8  A    between atoms: C_13  and  C_14
REMARK    9  A    between atoms: C_14  and  C_15
REMARK   10  A    between atoms: C_14  and  O_16
REMARK                            x       y       z     vdW  Elec       q    Type
REMARK                         _______ _______ _______ _____ _____    ______ ____
ROOT
ATOM      1  N   UNL     1      -0.939  31.795 -35.759  0.00  0.00    +0.000 N 
ENDROOT
BRANCH   1   6
ATOM      2  C   UNL     1      -5.678  28.913 -37.359  0.00  0.00    +0.000 C 
ATOM      3  C   UNL     1      -4.458  29.681 -36.954  0.00  0.00    +0.000 A 
ATOM      4  C   UNL     1      -3.346  29.747 -37.787  0.00  0.00    +0.000 A 
ATOM      5  C   UNL     1      -2.194  30.444 -37.389  0.00  0.00    +0.000 A 
ATOM      6  C   UNL     1      -2.084  31.085 -36.141  0.00  0.00    +0.000 A 
ATOM      7  C   UNL     1      -3.228  30.999 -35.326  0.00  0.00    +0.000 A 
ATOM      8  C   UNL     1      -4.387  30.307 -35.713  0.00  0.00    +0.000 A 
ENDBRANCH   1   6
BRANCH   1   9
ATOM      9  C   UNL     1      -0.435  32.904 -36.604  0.00  0.00    +0.000 C 
BRANCH   9  10
ATOM     10  C   UNL     1      -1.105  34.261 -36.274  0.00  0.00    +0.000 C 
ATOM     11  C   UNL     1      -2.391  34.442 -37.071  0.00  0.00    +0.000 C 
BRANCH  10  12
ATOM     12  O   UNL     1      -1.430  34.349 -34.880  0.00  0.00    +0.000 OA
ATOM     13  H   UNL     1      -2.165  33.739 -34.703  0.00  0.00    +0.000 HD
ENDBRANCH  10  12
ENDBRANCH   9  10
ENDBRANCH   1   9
BRANCH   1  14
ATOM     14  C   UNL     1       0.072  31.193 -34.852  0.00  0.00    +0.000 C 
BRANCH  14  15
ATOM     15  C   UNL     1      -0.336  31.310 -33.364  0.00  0.00    +0.000 C 
ATOM     16  C   UNL     1       0.423  30.348 -32.457  0.00  0.00    +0.000 C 
BRANCH  15  17
ATOM     17  O   UNL     1      -0.141  32.633 -32.866  0.00  0.00    +0.000 OA
ATOM     18  H   UNL     1       0.788  32.851 -33.085  0.00  0.00    +0.000 HD
ENDBRANCH  15  17
ENDBRANCH  14  15
ENDBRANCH   1  14
TORSDOF 7
ENDMDL
