MODEL 1
REMARK VINA RESULT:    -4.403      0.000      0.000
REMARK INTER + INTRA:          -6.551
REMARK INTER:                  -5.948
REMARK INTRA:                  -0.603
REMARK UNBOUND:                -0.603
REMARK  Name = 
REMARK  10 active torsions:
REMARK  status: ('A' for Active; 'I' for Inactive)
REMARK    1  A    between atoms: C_1  and  C_2
REMARK    2  A    between atoms: C_5  and  N_8
REMARK    3  A    between atoms: N_8  and  C_9
REMARK    4  A    between atoms: N_8  and  C_13
REMARK    5  A    between atoms: C_9  and  C_10
REMARK    6  A    between atoms: C_10  and  C_11
REMARK    7  A    between atoms: C_10  and  O_12
REMARK    8  A    between atoms: C_13  and  C_14
REMARK    9  A    between atoms: C_14  and  C_15
REMARK   10  A    between atoms: C_14  and  O_16
REMARK                            x       y       z     vdW  Elec       q    Type
REMARK                         _______ _______ _______ _____ _____    ______ ____
ROOT
ATOM      1  N   UNL     1       0.077  32.682 -23.860  0.00  0.00    +0.000 N 
ENDROOT
BRANCH   1   6
ATOM      2  C   UNL     1      -2.718  33.796 -18.933  0.00  0.00    +0.000 C 
ATOM      3  C   UNL     1      -1.988  33.531 -20.214  0.00  0.00    +0.000 A 
ATOM      4  C   UNL     1      -2.661  33.520 -21.431  0.00  0.00    +0.000 A 
ATOM      5  C   UNL     1      -1.976  33.241 -22.625  0.00  0.00    +0.000 A 
ATOM      6  C   UNL     1      -0.603  32.940 -22.663  0.00  0.00    +0.000 A 
ATOM      7  C   UNL     1       0.046  32.963 -21.415  0.00  0.00    +0.000 A 
ATOM      8  C   UNL     1      -0.626  33.242 -20.213  0.00  0.00    +0.000 A 
ENDBRANCH   1   6
BRANCH   1   9
ATOM      9  C   UNL     1      -0.141  33.552 -25.041  0.00  0.00    +0.000 C 
BRANCH   9  10
ATOM     10  C   UNL     1      -0.741  32.787 -26.247  0.00  0.00    +0.000 C 
ATOM     11  C   UNL     1      -2.264  32.808 -26.202  0.00  0.00    +0.000 C 
BRANCH  10  12
ATOM     12  O   UNL     1      -0.325  33.375 -27.487  0.00  0.00    +0.000 OA
ATOM     13  H   UNL     1       0.190  34.173 -27.285  0.00  0.00    +0.000 HD
ENDBRANCH  10  12
ENDBRANCH   9  10
ENDBRANCH   1   9
BRANCH   1  14
ATOM     14  C   UNL     1       0.601  31.327 -24.171  0.00  0.00    +0.000 C 
BRANCH  14  15
ATOM     15  C   UNL     1      -0.274  30.208 -23.556  0.00  0.00    +0.000 C 
ATOM     16  C   UNL     1      -1.242  29.586 -24.556  0.00  0.00    +0.000 C 
BRANCH  15  17
ATOM     17  O   UNL     1       0.522  29.161 -23.002  0.00  0.00    +0.000 OA
ATOM     18  H   UNL     1       1.171  28.940 -23.701  0.00  0.00    +0.000 HD
ENDBRANCH  15  17
ENDBRANCH  14  15
ENDBRANCH   1  14
TORSDOF 7
ENDMDL
MODEL 2
REMARK VINA RESULT:    -3.783     12.052     14.812
REMARK INTER + INTRA:          -5.714
REMARK INTER:                  -5.576
REMARK INTRA:                  -0.138
REMARK UNBOUND:                -0.603
REMARK  Name = 
REMARK  10 active torsions:
REMARK  status: ('A' for Active; 'I' for Inactive)
REMARK    1  A    between atoms: C_1  and  C_2
REMARK    2  A    between atoms: C_5  and  N_8
REMARK    3  A    between atoms: N_8  and  C_9
REMARK    4  A    between atoms: N_8  and  C_13
REMARK    5  A    between atoms: C_9  and  C_10
REMARK    6  A    between atoms: C_10  and  C_11
REMARK    7  A    between atoms: C_10  and  O_12
REMARK    8  A    between atoms: C_13  and  C_14
REMARK    9  A    between atoms: C_14  and  C_15
REMARK   10  A    between atoms: C_14  and  O_16
REMARK                            x       y       z     vdW  Elec       q    Type
REMARK                         _______ _______ _______ _____ _____    ______ ____
ROOT
ATOM      1  N   UNL     1      -1.954  22.485 -32.564  0.00  0.00    +0.000 N 
ENDROOT
BRANCH   1   6
ATOM      2  C   UNL     1       0.634  22.919 -37.706  0.00  0.00    +0.000 C 
ATOM      3  C   UNL     1      -0.034  22.782 -36.372  0.00  0.00    +0.000 A 
ATOM      4  C   UNL     1      -1.409  22.595 -36.277  0.00  0.00    +0.000 A 
ATOM      5  C   UNL     1      -2.033  22.497 -35.023  0.00  0.00    +0.000 A 
ATOM      6  C   UNL     1      -1.327  22.603 -33.811  0.00  0.00    +0.000 A 
ATOM      7  C   UNL     1       0.061  22.790 -33.945  0.00  0.00    +0.000 A 
ATOM      8  C   UNL     1       0.698  22.887 -35.193  0.00  0.00    +0.000 A 
ENDBRANCH   1   6
BRANCH   1   9
ATOM      9  C   UNL     1      -3.390  22.124 -32.484  0.00  0.00    +0.000 C 
BRANCH   9  10
ATOM     10  C   UNL     1      -4.232  23.179 -31.726  0.00  0.00    +0.000 C 
ATOM     11  C   UNL     1      -4.921  24.128 -32.699  0.00  0.00    +0.000 C 
BRANCH  10  12
ATOM     12  O   UNL     1      -5.245  22.551 -30.927  0.00  0.00    +0.000 OA
ATOM     13  H   UNL     1      -4.941  22.549 -30.004  0.00  0.00    +0.000 HD
ENDBRANCH  10  12
ENDBRANCH   9  10
ENDBRANCH   1   9
BRANCH   1  14
ATOM     14  C   UNL     1      -1.417  23.179 -31.365  0.00  0.00    +0.000 C 
BRANCH  14  15
ATOM     15  C   UNL     1      -0.104  22.536 -30.856  0.00  0.00    +0.000 C 
ATOM     16  C   UNL     1       0.658  23.423 -29.879  0.00  0.00    +0.000 C 
BRANCH  15  17
ATOM     17  O   UNL     1      -0.343  21.282 -30.220  0.00  0.00    +0.000 OA
ATOM     18  H   UNL     1       0.169  20.632 -30.743  0.00  0.00    +0.000 HD
ENDBRANCH  15  17
ENDBRANCH  14  15
ENDBRANCH   1  14
TORSDOF 7
ENDMDL
MODEL 3
REMARK VINA RESULT:    -3.756     11.287     13.710
REMARK INTER + INTRA:          -5.677
REMARK INTER:                  -5.350
REMARK INTRA:                  -0.327
REMARK UNBOUND:                -0.603
REMARK  Name = 
REMARK  10 active torsions:
REMARK  status: ('A' for Active; 'I' for Inactive)
REMARK    1  A    between atoms: C_1  and  C_2
REMARK    2  A    between atoms: C_5  and  N_8
REMARK    3  A    between atoms: N_8  and  C_9
REMARK    4  A    between atoms: N_8  and  C_13
REMARK    5  A    between atoms: C_9  and  C_10
REMARK    6  A    between atoms: C_10  and  C_11
REMARK    7  A    between atoms: C_10  and  O_12
REMARK    8  A    between atoms: C_13  and  C_14
REMARK    9  A    between atoms: C_14  and  C_15
REMARK   10  A    between atoms: C_14  and  O_16
REMARK                            x       y       z     vdW  Elec       q    Type
REMARK                         _______ _______ _______ _____ _____    ______ ____
ROOT
ATOM      1  N   UNL     1      -0.862  22.609 -33.316  0.00  0.00    +0.000 N 
ENDROOT
BRANCH   1   6
ATOM      2  C   UNL     1       0.679  23.837 -27.890  0.00  0.00    +0.000 C 
ATOM      3  C   UNL     1       0.257  23.511 -29.290  0.00  0.00    +0.000 A 
ATOM      4  C   UNL     1       0.512  22.259 -29.840  0.00  0.00    +0.000 A 
ATOM      5  C   UNL     1       0.141  21.969 -31.163  0.00  0.00    +0.000 A 
ATOM      6  C   UNL     1      -0.477  22.912 -32.004  0.00  0.00    +0.000 A 
ATOM      7  C   UNL     1      -0.722  24.166 -31.415  0.00  0.00    +0.000 A 
ATOM      8  C   UNL     1      -0.357  24.468 -30.092  0.00  0.00    +0.000 A 
ENDBRANCH   1   6
BRANCH   1   9
ATOM      9  C   UNL     1       0.092  22.804 -34.435  0.00  0.00    +0.000 C 
BRANCH   9  10
ATOM     10  C   UNL     1      -0.407  22.185 -35.763  0.00  0.00    +0.000 C 
ATOM     11  C   UNL     1       0.370  22.742 -36.950  0.00  0.00    +0.000 C 
BRANCH  10  12
ATOM     12  O   UNL     1      -0.249  20.759 -35.758  0.00  0.00    +0.000 OA
ATOM     13  H   UNL     1      -1.004  20.374 -35.282  0.00  0.00    +0.000 HD
ENDBRANCH  10  12
ENDBRANCH   9  10
ENDBRANCH   1   9
BRANCH   1  14
ATOM     14  C   UNL     1      -2.294  22.591 -33.713  0.00  0.00    +0.000 C 
BRANCH  14  15
ATOM     15  C   UNL     1      -3.209  22.076 -32.576  0.00  0.00    +0.000 C 
ATOM     16  C   UNL     1      -4.194  23.126 -32.076  0.00  0.00    +0.000 C 
BRANCH  15  17
ATOM     17  O   UNL     1      -3.953  20.927 -32.978  0.00  0.00    +0.000 OA
ATOM     18  H   UNL     1      -3.302  20.345 -33.418  0.00  0.00    +0.000 HD
ENDBRANCH  15  17
ENDBRANCH  14  15
ENDBRANCH   1  14
TORSDOF 7
ENDMDL
MODEL 4
REMARK VINA RESULT:    -3.638     11.144     13.630
REMARK INTER + INTRA:          -5.517
REMARK INTER:                  -5.291
REMARK INTRA:                  -0.226
REMARK UNBOUND:                -0.603
REMARK  Name = 
REMARK  10 active torsions:
REMARK  status: ('A' for Active; 'I' for Inactive)
REMARK    1  A    between atoms: C_1  and  C_2
REMARK    2  A    between atoms: C_5  and  N_8
REMARK    3  A    between atoms: N_8  and  C_9
REMARK    4  A    between atoms: N_8  and  C_13
REMARK    5  A    between atoms: C_9  and  C_10
REMARK    6  A    between atoms: C_10  and  C_11
REMARK    7  A    between atoms: C_10  and  O_12
REMARK    8  A    between atoms: C_13  and  C_14
REMARK    9  A    between atoms: C_14  and  C_15
REMARK   10  A    between atoms: C_14  and  O_16
REMARK                            x       y       z     vdW  Elec       q    Type
REMARK                         _______ _______ _______ _____ _____    ______ ____
ROOT
ATOM      1  N   UNL     1      -0.600  22.950 -33.315  0.00  0.00    +0.000 N 
ENDROOT
BRANCH   1   6
ATOM      2  C   UNL     1       0.699  23.771 -27.750  0.00  0.00    +0.000 C 
ATOM      3  C   UNL     1       0.339  23.552 -29.187  0.00  0.00    +0.000 A 
ATOM      4  C   UNL     1       0.535  22.315 -29.793  0.00  0.00    +0.000 A 
ATOM      5  C   UNL     1       0.223  22.124 -31.149  0.00  0.00    +0.000 A 
ATOM      6  C   UNL     1      -0.273  23.153 -31.968  0.00  0.00    +0.000 A 
ATOM      7  C   UNL     1      -0.461  24.389 -31.323  0.00  0.00    +0.000 A 
ATOM      8  C   UNL     1      -0.155  24.594 -29.967  0.00  0.00    +0.000 A 
ENDBRANCH   1   6
BRANCH   1   9
ATOM      9  C   UNL     1      -1.924  22.392 -33.682  0.00  0.00    +0.000 C 
BRANCH   9  10
ATOM     10  C   UNL     1      -3.029  22.746 -32.658  0.00  0.00    +0.000 C 
ATOM     11  C   UNL     1      -4.088  23.643 -33.286  0.00  0.00    +0.000 C 
BRANCH  10  12
ATOM     12  O   UNL     1      -3.680  21.562 -32.174  0.00  0.00    +0.000 OA
ATOM     13  H   UNL     1      -3.208  20.792 -32.531  0.00  0.00    +0.000 HD
ENDBRANCH  10  12
ENDBRANCH   9  10
ENDBRANCH   1   9
BRANCH   1  14
ATOM     14  C   UNL     1       0.456  22.783 -34.346  0.00  0.00    +0.000 C 
BRANCH  14  15
ATOM     15  C   UNL     1      -0.090  22.137 -35.642  0.00  0.00    +0.000 C 
ATOM     16  C   UNL     1       0.404  22.826 -36.909  0.00  0.00    +0.000 C 
BRANCH  15  17
ATOM     17  O   UNL     1       0.254  20.755 -35.727  0.00  0.00    +0.000 OA
ATOM     18  H   UNL     1      -0.407  20.367 -36.336  0.00  0.00    +0.000 HD
ENDBRANCH  15  17
ENDBRANCH  14  15
ENDBRANCH   1  14
TORSDOF 7
ENDMDL
MODEL 5
REMARK VINA RESULT:    -3.529      3.219      5.534
REMARK INTER + INTRA:          -5.371
REMARK INTER:                  -5.112
REMARK INTRA:                  -0.259
REMARK UNBOUND:                -0.603
REMARK  Name = 
REMARK  10 active torsions:
REMARK  status: ('A' for Active; 'I' for Inactive)
REMARK    1  A    between atoms: C_1  and  C_2
REMARK    2  A    between atoms: C_5  and  N_8
REMARK    3  A    between atoms: N_8  and  C_9
REMARK    4  A    between atoms: N_8  and  C_13
REMARK    5  A    between atoms: C_9  and  C_10
REMARK    6  A    between atoms: C_10  and  C_11
REMARK    7  A    between atoms: C_10  and  O_12
REMARK    8  A    between atoms: C_13  and  C_14
REMARK    9  A    between atoms: C_14  and  C_15
REMARK   10  A    between atoms: C_14  and  O_16
REMARK                            x       y       z     vdW  Elec       q    Type
REMARK                         _______ _______ _______ _____ _____    ______ ____
ROOT
ATOM      1  N   UNL     1      -1.639  33.950 -19.751  0.00  0.00    +0.000 N 
ENDROOT
BRANCH   1   6
ATOM      2  C   UNL     1      -7.016  34.227 -21.832  0.00  0.00    +0.000 C 
ATOM      3  C   UNL     1      -5.619  34.131 -21.300  0.00  0.00    +0.000 A 
ATOM      4  C   UNL     1      -5.383  33.778 -19.976  0.00  0.00    +0.000 A 
ATOM      5  C   UNL     1      -4.072  33.719 -19.473  0.00  0.00    +0.000 A 
ATOM      6  C   UNL     1      -2.944  34.029 -20.253  0.00  0.00    +0.000 A 
ATOM      7  C   UNL     1      -3.220  34.381 -21.587  0.00  0.00    +0.000 A 
ATOM      8  C   UNL     1      -4.526  34.441 -22.103  0.00  0.00    +0.000 A 
ENDBRANCH   1   6
BRANCH   1   9
ATOM      9  C   UNL     1      -0.632  33.098 -20.430  0.00  0.00    +0.000 C 
BRANCH   9  10
ATOM     10  C   UNL     1      -1.237  31.793 -21.001  0.00  0.00    +0.000 C 
ATOM     11  C   UNL     1      -0.830  31.594 -22.456  0.00  0.00    +0.000 C 
BRANCH  10  12
ATOM     12  O   UNL     1      -0.793  30.650 -20.255  0.00  0.00    +0.000 OA
ATOM     13  H   UNL     1      -0.223  30.965 -19.534  0.00  0.00    +0.000 HD
ENDBRANCH  10  12
ENDBRANCH   9  10
ENDBRANCH   1   9
BRANCH   1  14
ATOM     14  C   UNL     1      -1.343  34.252 -18.327  0.00  0.00    +0.000 C 
BRANCH  14  15
ATOM     15  C   UNL     1      -1.164  32.968 -17.482  0.00  0.00    +0.000 C 
ATOM     16  C   UNL     1      -0.326  33.187 -16.228  0.00  0.00    +0.000 C 
BRANCH  15  17
ATOM     17  O   UNL     1      -2.419  32.420 -17.084  0.00  0.00    +0.000 OA
ATOM     18  H   UNL     1      -2.511  31.595 -17.602  0.00  0.00    +0.000 HD
ENDBRANCH  15  17
ENDBRANCH  14  15
ENDBRANCH   1  14
TORSDOF 7
ENDMDL
MODEL 6
REMARK VINA RESULT:    -3.340     11.893     14.838
REMARK INTER + INTRA:          -5.115
REMARK INTER:                  -5.061
REMARK INTRA:                  -0.054
REMARK UNBOUND:                -0.603
REMARK  Name = 
REMARK  10 active torsions:
REMARK  status: ('A' for Active; 'I' for Inactive)
REMARK    1  A    between atoms: C_1  and  C_2
REMARK    2  A    between atoms: C_5  and  N_8
REMARK    3  A    between atoms: N_8  and  C_9
REMARK    4  A    between atoms: N_8  and  C_13
REMARK    5  A    between atoms: C_9  and  C_10
REMARK    6  A    between atoms: C_10  and  C_11
REMARK    7  A    between atoms: C_10  and  O_12
REMARK    8  A    between atoms: C_13  and  C_14
REMARK    9  A    between atoms: C_14  and  C_15
REMARK   10  A    between atoms: C_14  and  O_16
REMARK                            x       y       z     vdW  Elec       q    Type
REMARK                         _______ _______ _______ _____ _____    ______ ____
ROOT
ATOM      1  N   UNL     1      -1.886  22.475 -32.618  0.00  0.00    +0.000 N 
ENDROOT
BRANCH   1   6
ATOM      2  C   UNL     1       0.553  22.910 -37.833  0.00  0.00    +0.000 C 
ATOM      3  C   UNL     1      -0.081  22.773 -36.482  0.00  0.00    +0.000 A 
ATOM      4  C   UNL     1      -1.462  22.840 -36.331  0.00  0.00    +0.000 A 
ATOM      5  C   UNL     1      -2.049  22.740 -35.059  0.00  0.00    +0.000 A 
ATOM      6  C   UNL     1      -1.293  22.594 -33.881  0.00  0.00    +0.000 A 
ATOM      7  C   UNL     1       0.099  22.528 -34.072  0.00  0.00    +0.000 A 
ATOM      8  C   UNL     1       0.699  22.624 -35.339  0.00  0.00    +0.000 A 
ENDBRANCH   1   6
BRANCH   1   9
ATOM      9  C   UNL     1      -1.043  22.243 -31.420  0.00  0.00    +0.000 C 
BRANCH   9  10
ATOM     10  C   UNL     1      -0.735  23.545 -30.642  0.00  0.00    +0.000 C 
ATOM     11  C   UNL     1      -0.479  24.704 -31.598  0.00  0.00    +0.000 C 
BRANCH  10  12
ATOM     12  O   UNL     1      -1.829  23.906 -29.788  0.00  0.00    +0.000 OA
ATOM     13  H   UNL     1      -1.952  23.195 -29.138  0.00  0.00    +0.000 HD
ENDBRANCH  10  12
ENDBRANCH   9  10
ENDBRANCH   1   9
BRANCH   1  14
ATOM     14  C   UNL     1      -3.307  22.068 -32.470  0.00  0.00    +0.000 C 
BRANCH  14  15
ATOM     15  C   UNL     1      -4.155  23.153 -31.765  0.00  0.00    +0.000 C 
ATOM     16  C   UNL     1      -4.901  24.058 -32.738  0.00  0.00    +0.000 C 
BRANCH  15  17
ATOM     17  O   UNL     1      -5.111  22.578 -30.875  0.00  0.00    +0.000 OA
ATOM     18  H   UNL     1      -4.901  21.623 -30.861  0.00  0.00    +0.000 HD
ENDBRANCH  15  17
ENDBRANCH  14  15
ENDBRANCH   1  14
TORSDOF 7
ENDMDL
MODEL 7
REMARK VINA RESULT:    -3.267     12.023     13.903
REMARK INTER + INTRA:          -5.017
REMARK INTER:                  -4.214
REMARK INTRA:                  -0.802
REMARK UNBOUND:                -0.603
REMARK  Name = 
REMARK  10 active torsions:
REMARK  status: ('A' for Active; 'I' for Inactive)
REMARK    1  A    between atoms: C_1  and  C_2
REMARK    2  A    between atoms: C_5  and  N_8
REMARK    3  A    between atoms: N_8  and  C_9
REMARK    4  A    between atoms: N_8  and  C_13
REMARK    5  A    between atoms: C_9  and  C_10
REMARK    6  A    between atoms: C_10  and  C_11
REMARK    7  A    between atoms: C_10  and  O_12
REMARK    8  A    between atoms: C_13  and  C_14
REMARK    9  A    between atoms: C_14  and  C_15
REMARK   10  A    between atoms: C_14  and  O_16
REMARK                            x       y       z     vdW  Elec       q    Type
REMARK                         _______ _______ _______ _____ _____    ______ ____
ROOT
ATOM      1  N   UNL     1      -4.876  31.199 -36.711  0.00  0.00    +0.000 N 
ENDROOT
BRANCH   1   6
ATOM      2  C   UNL     1       0.237  32.422 -34.327  0.00  0.00    +0.000 C 
ATOM      3  C   UNL     1      -1.078  32.091 -34.963  0.00  0.00    +0.000 A 
ATOM      4  C   UNL     1      -1.634  32.924 -35.929  0.00  0.00    +0.000 A 
ATOM      5  C   UNL     1      -2.882  32.624 -36.500  0.00  0.00    +0.000 A 
ATOM      6  C   UNL     1      -3.642  31.502 -36.123  0.00  0.00    +0.000 A 
ATOM      7  C   UNL     1      -3.048  30.682 -35.146  0.00  0.00    +0.000 A 
ATOM      8  C   UNL     1      -1.800  30.968 -34.569  0.00  0.00    +0.000 A 
ENDBRANCH   1   6
BRANCH   1   9
ATOM      9  C   UNL     1      -4.966  30.148 -37.753  0.00  0.00    +0.000 C 
BRANCH   9  10
ATOM     10  C   UNL     1      -5.975  29.030 -37.394  0.00  0.00    +0.000 C 
ATOM     11  C   UNL     1      -5.682  27.758 -38.180  0.00  0.00    +0.000 C 
BRANCH  10  12
ATOM     12  O   UNL     1      -5.916  28.713 -35.996  0.00  0.00    +0.000 OA
ATOM     13  H   UNL     1      -5.152  28.130 -35.852  0.00  0.00    +0.000 HD
ENDBRANCH  10  12
ENDBRANCH   9  10
ENDBRANCH   1   9
BRANCH   1  14
ATOM     14  C   UNL     1      -5.985  32.188 -36.725  0.00  0.00    +0.000 C 
BRANCH  14  15
ATOM     15  C   UNL     1      -6.579  32.419 -35.315  0.00  0.00    +0.000 C 
ATOM     16  C   UNL     1      -7.897  33.185 -35.338  0.00  0.00    +0.000 C 
BRANCH  15  17
ATOM     17  O   UNL     1      -6.796  31.188 -34.626  0.00  0.00    +0.000 OA
ATOM     18  H   UNL     1      -7.766  31.063 -34.631  0.00  0.00    +0.000 HD
ENDBRANCH  15  17
ENDBRANCH  14  15
ENDBRANCH   1  14
TORSDOF 7
ENDMDL
MODEL 8
REMARK VINA RESULT:    -3.167     12.171     13.642
REMARK INTER + INTRA:          -4.881
REMARK INTER:                  -4.368
REMARK INTRA:                  -0.513
REMARK UNBOUND:                -0.603
REMARK  Name = 
REMARK  10 active torsions:
REMARK  status: ('A' for Active; 'I' for Inactive)
REMARK    1  A    between atoms: C_1  and  C_2
REMARK    2  A    between atoms: C_5  and  N_8
REMARK    3  A    between atoms: N_8  and  C_9
REMARK    4  A    between atoms: N_8  and  C_13
REMARK    5  A    between atoms: C_9  and  C_10
REMARK    6  A    between atoms: C_10  and  C_11
REMARK    7  A    between atoms: C_10  and  O_12
REMARK    8  A    between atoms: C_13  and  C_14
REMARK    9  A    between atoms: C_14  and  C_15
REMARK   10  A    between atoms: C_14  and  O_16
REMARK                            x       y       z     vdW  Elec       q    Type
REMARK                         _______ _______ _______ _____ _____    ______ ____
ROOT
ATOM      1  N   UNL     1      -4.327  30.711 -36.109  0.00  0.00    +0.000 N 
ENDROOT
BRANCH   1   6
ATOM      2  C   UNL     1       0.591  33.350 -34.632  0.00  0.00    +0.000 C 
ATOM      3  C   UNL     1      -0.697  32.677 -34.996  0.00  0.00    +0.000 A 
ATOM      4  C   UNL     1      -1.019  31.425 -34.483  0.00  0.00    +0.000 A 
ATOM      5  C   UNL     1      -2.214  30.785 -34.851  0.00  0.00    +0.000 A 
ATOM      6  C   UNL     1      -3.128  31.346 -35.761  0.00  0.00    +0.000 A 
ATOM      7  C   UNL     1      -2.771  32.613 -36.259  0.00  0.00    +0.000 A 
ATOM      8  C   UNL     1      -1.581  33.265 -35.897  0.00  0.00    +0.000 A 
ENDBRANCH   1   6
BRANCH   1   9
ATOM      9  C   UNL     1      -5.512  30.825 -35.225  0.00  0.00    +0.000 C 
BRANCH   9  10
ATOM     10  C   UNL     1      -6.301  32.139 -35.445  0.00  0.00    +0.000 C 
ATOM     11  C   UNL     1      -6.449  32.444 -36.931  0.00  0.00    +0.000 C 
BRANCH  10  12
ATOM     12  O   UNL     1      -7.614  32.053 -34.875  0.00  0.00    +0.000 OA
ATOM     13  H   UNL     1      -7.918  32.955 -34.680  0.00  0.00    +0.000 HD
ENDBRANCH  10  12
ENDBRANCH   9  10
ENDBRANCH   1   9
BRANCH   1  14
ATOM     14  C   UNL     1      -4.340  29.540 -37.023  0.00  0.00    +0.000 C 
BRANCH  14  15
ATOM     15  C   UNL     1      -5.678  28.765 -36.960  0.00  0.00    +0.000 C 
ATOM     16  C   UNL     1      -6.342  28.604 -38.323  0.00  0.00    +0.000 C 
BRANCH  15  17
ATOM     17  O   UNL     1      -5.509  27.466 -36.395  0.00  0.00    +0.000 OA
ATOM     18  H   UNL     1      -5.357  27.623 -35.441  0.00  0.00    +0.000 HD
ENDBRANCH  15  17
ENDBRANCH  14  15
ENDBRANCH   1  14
TORSDOF 7
ENDMDL
MODEL 9
REMARK VINA RESULT:    -2.929     12.183     14.532
REMARK INTER + INTRA:          -4.560
REMARK INTER:                  -3.941
REMARK INTRA:                  -0.620
REMARK UNBOUND:                -0.603
REMARK  Name = 
REMARK  10 active torsions:
REMARK  status: ('A' for Active; 'I' for Inactive)
REMARK    1  A    between atoms: C_1  and  C_2
REMARK    2  A    between atoms: C_5  and  N_8
REMARK    3  A    between atoms: N_8  and  C_9
REMARK    4  A    between atoms: N_8  and  C_13
REMARK    5  A    between atoms: C_9  and  C_10
REMARK    6  A    between atoms: C_10  and  C_11
REMARK    7  A    between atoms: C_10  and  O_12
REMARK    8  A    between atoms: C_13  and  C_14
REMARK    9  A    between atoms: C_14  and  C_15
REMARK   10  A    between atoms: C_14  and  O_16
REMARK                            x       y       z     vdW  Elec       q    Type
REMARK                         _______ _______ _______ _____ _____    ______ ____
ROOT
ATOM      1  N   UNL     1      -4.812  31.692 -37.006  0.00  0.00    +0.000 N 
ENDROOT
BRANCH   1   6
ATOM      2  C   UNL     1     -10.067  33.934 -36.175  0.00  0.00    +0.000 C 
ATOM      3  C   UNL     1      -8.693  33.376 -36.390  0.00  0.00    +0.000 A 
ATOM      4  C   UNL     1      -8.205  33.154 -37.674  0.00  0.00    +0.000 A 
ATOM      5  C   UNL     1      -6.929  32.602 -37.869  0.00  0.00    +0.000 A 
ATOM      6  C   UNL     1      -6.092  32.224 -36.804  0.00  0.00    +0.000 A 
ATOM      7  C   UNL     1      -6.617  32.464 -35.521  0.00  0.00    +0.000 A 
ATOM      8  C   UNL     1      -7.891  33.018 -35.311  0.00  0.00    +0.000 A 
ENDBRANCH   1   6
BRANCH   1   9
ATOM      9  C   UNL     1      -4.650  30.381 -37.678  0.00  0.00    +0.000 C 
BRANCH   9  10
ATOM     10  C   UNL     1      -5.808  29.400 -37.368  0.00  0.00    +0.000 C 
ATOM     11  C   UNL     1      -5.746  28.178 -38.277  0.00  0.00    +0.000 C 
BRANCH  10  12
ATOM     12  O   UNL     1      -5.749  28.947 -36.009  0.00  0.00    +0.000 OA
ATOM     13  H   UNL     1      -5.229  28.126 -35.988  0.00  0.00    +0.000 HD
ENDBRANCH  10  12
ENDBRANCH   9  10
ENDBRANCH   1   9
BRANCH   1  14
ATOM     14  C   UNL     1      -3.665  32.105 -36.157  0.00  0.00    +0.000 C 
BRANCH  14  15
ATOM     15  C   UNL     1      -3.109  30.931 -35.316  0.00  0.00    +0.000 C 
ATOM     16  C   UNL     1      -1.728  31.212 -34.734  0.00  0.00    +0.000 C 
BRANCH  15  17
ATOM     17  O   UNL     1      -3.982  30.594 -34.239  0.00  0.00    +0.000 OA
ATOM     18  H   UNL     1      -4.871  30.537 -34.643  0.00  0.00    +0.000 HD
ENDBRANCH  15  17
ENDBRANCH  14  15
ENDBRANCH   1  14
TORSDOF 7
ENDMDL
