MODEL 1
REMARK VINA RESULT:    -3.920      0.000      0.000
REMARK INTER + INTRA:          -4.308
REMARK INTER:                  -4.264
REMARK INTRA:                  -0.044
REMARK UNBOUND:                -0.044
REMARK  Name = 
REMARK  3 active torsions:
REMARK  status: ('A' for Active; 'I' for Inactive)
REMARK    1  A    between atoms: C_1  and  O_2
REMARK    2  A    between atoms: O_2  and  C_3
REMARK    3  A    between atoms: C_8  and  O_9
REMARK                            x       y       z     vdW  Elec       q    Type
REMARK                         _______ _______ _______ _____ _____    ______ ____
ROOT
ATOM      1  C   UNL     1       6.266  14.607   0.769  0.00  0.00    +0.000 A 
ATOM      2  C   UNL     1       5.376  14.900   1.802  0.00  0.00    +0.000 A 
ATOM      3  C   UNL     1       5.479  14.227   3.026  0.00  0.00    +0.000 A 
ATOM      4  C   UNL     1       6.468  13.261   3.222  0.00  0.00    +0.000 A 
ATOM      5  C   UNL     1       7.361  12.963   2.195  0.00  0.00    +0.000 A 
ATOM      6  C   UNL     1       7.251  13.636   0.984  0.00  0.00    +0.000 A 
ENDROOT
BRANCH   1   8
ATOM      7  C   UNL     1       5.017  15.430  -1.077  0.00  0.00    +0.000 C 
ATOM      8  O   UNL     1       6.282  15.184  -0.475  0.00  0.00    +0.000 OA
ENDBRANCH   1   8
BRANCH   6   9
ATOM      9  O   UNL     1       8.140  13.326  -0.010  0.00  0.00    +0.000 OA
ATOM     10  H   UNL     1       8.720  12.643   0.378  0.00  0.00    +0.000 HD
ENDBRANCH   6   9
TORSDOF 2
ENDMDL
MODEL 2
REMARK VINA RESULT:    -3.894      2.213      3.767
REMARK INTER + INTRA:          -4.280
REMARK INTER:                  -4.242
REMARK INTRA:                  -0.037
REMARK UNBOUND:                -0.044
REMARK  Name = 
REMARK  3 active torsions:
REMARK  status: ('A' for Active; 'I' for Inactive)
REMARK    1  A    between atoms: C_1  and  O_2
REMARK    2  A    between atoms: O_2  and  C_3
REMARK    3  A    between atoms: C_8  and  O_9
REMARK                            x       y       z     vdW  Elec       q    Type
REMARK                         _______ _______ _______ _____ _____    ______ ____
ROOT
ATOM      1  C   UNL     1       7.795  13.373   3.137  0.00  0.00    +0.000 A 
ATOM      2  C   UNL     1       6.412  13.394   2.967  0.00  0.00    +0.000 A 
ATOM      3  C   UNL     1       5.862  13.829   1.754  0.00  0.00    +0.000 A 
ATOM      4  C   UNL     1       6.691  14.243   0.710  0.00  0.00    +0.000 A 
ATOM      5  C   UNL     1       8.074  14.224   0.871  0.00  0.00    +0.000 A 
ATOM      6  C   UNL     1       8.610  13.792   2.078  0.00  0.00    +0.000 A 
ENDROOT
BRANCH   1   8
ATOM      7  C   UNL     1       7.670  12.575   5.371  0.00  0.00    +0.000 C 
ATOM      8  O   UNL     1       8.468  12.975   4.264  0.00  0.00    +0.000 OA
ENDBRANCH   1   8
BRANCH   6   9
ATOM      9  O   UNL     1       9.973  13.783   2.213  0.00  0.00    +0.000 OA
ATOM     10  H   UNL     1      10.283  14.521   1.655  0.00  0.00    +0.000 HD
ENDBRANCH   6   9
TORSDOF 2
ENDMDL
MODEL 3
REMARK VINA RESULT:    -3.734      2.214      3.959
REMARK INTER + INTRA:          -4.106
REMARK INTER:                  -4.054
REMARK INTRA:                  -0.052
REMARK UNBOUND:                -0.044
REMARK  Name = 
REMARK  3 active torsions:
REMARK  status: ('A' for Active; 'I' for Inactive)
REMARK    1  A    between atoms: C_1  and  O_2
REMARK    2  A    between atoms: O_2  and  C_3
REMARK    3  A    between atoms: C_8  and  O_9
REMARK                            x       y       z     vdW  Elec       q    Type
REMARK                         _______ _______ _______ _____ _____    ______ ____
ROOT
ATOM      1  C   UNL     1       7.536  13.380   2.388  0.00  0.00    +0.000 A 
ATOM      2  C   UNL     1       8.357  13.830   1.355  0.00  0.00    +0.000 A 
ATOM      3  C   UNL     1       7.796  14.482   0.249  0.00  0.00    +0.000 A 
ATOM      4  C   UNL     1       6.417  14.685   0.171  0.00  0.00    +0.000 A 
ATOM      5  C   UNL     1       5.590  14.239   1.200  0.00  0.00    +0.000 A 
ATOM      6  C   UNL     1       6.155  13.593   2.293  0.00  0.00    +0.000 A 
ENDROOT
BRANCH   1   8
ATOM      7  C   UNL     1       8.829  13.443   4.381  0.00  0.00    +0.000 C 
ATOM      8  O   UNL     1       7.945  12.730   3.524  0.00  0.00    +0.000 OA
ENDBRANCH   1   8
BRANCH   6   9
ATOM      9  O   UNL     1       5.322  13.164   3.291  0.00  0.00    +0.000 OA
ATOM     10  H   UNL     1       5.885  12.605   3.861  0.00  0.00    +0.000 HD
ENDBRANCH   6   9
TORSDOF 2
ENDMDL
MODEL 4
REMARK VINA RESULT:    -3.708      6.073      7.535
REMARK INTER + INTRA:          -4.077
REMARK INTER:                  -4.028
REMARK INTRA:                  -0.049
REMARK UNBOUND:                -0.044
REMARK  Name = 
REMARK  3 active torsions:
REMARK  status: ('A' for Active; 'I' for Inactive)
REMARK    1  A    between atoms: C_1  and  O_2
REMARK    2  A    between atoms: O_2  and  C_3
REMARK    3  A    between atoms: C_8  and  O_9
REMARK                            x       y       z     vdW  Elec       q    Type
REMARK                         _______ _______ _______ _____ _____    ______ ____
ROOT
ATOM      1  C   UNL     1       6.790  19.840  -4.239  0.00  0.00    +0.000 A 
ATOM      2  C   UNL     1       6.813  21.127  -3.702  0.00  0.00    +0.000 A 
ATOM      3  C   UNL     1       7.049  21.309  -2.333  0.00  0.00    +0.000 A 
ATOM      4  C   UNL     1       7.260  20.210  -1.499  0.00  0.00    +0.000 A 
ATOM      5  C   UNL     1       7.239  18.922  -2.028  0.00  0.00    +0.000 A 
ATOM      6  C   UNL     1       7.004  18.750  -3.387  0.00  0.00    +0.000 A 
ENDROOT
BRANCH   1   8
ATOM      7  C   UNL     1       7.372  20.189  -6.516  0.00  0.00    +0.000 C 
ATOM      8  O   UNL     1       6.571  19.514  -5.554  0.00  0.00    +0.000 OA
ENDBRANCH   1   8
BRANCH   6   9
ATOM      9  O   UNL     1       6.988  17.474  -3.884  0.00  0.00    +0.000 OA
ATOM     10  H   UNL     1       7.766  17.427  -4.471  0.00  0.00    +0.000 HD
ENDBRANCH   6   9
TORSDOF 2
ENDMDL
MODEL 5
REMARK VINA RESULT:    -3.696      5.088      7.401
REMARK INTER + INTRA:          -4.064
REMARK INTER:                  -4.020
REMARK INTRA:                  -0.045
REMARK UNBOUND:                -0.044
REMARK  Name = 
REMARK  3 active torsions:
REMARK  status: ('A' for Active; 'I' for Inactive)
REMARK    1  A    between atoms: C_1  and  O_2
REMARK    2  A    between atoms: O_2  and  C_3
REMARK    3  A    between atoms: C_8  and  O_9
REMARK                            x       y       z     vdW  Elec       q    Type
REMARK                         _______ _______ _______ _____ _____    ______ ____
ROOT
ATOM      1  C   UNL     1       7.044  19.148  -2.524  0.00  0.00    +0.000 A 
ATOM      2  C   UNL     1       7.006  20.541  -2.501  0.00  0.00    +0.000 A 
ATOM      3  C   UNL     1       6.836  21.256  -3.693  0.00  0.00    +0.000 A 
ATOM      4  C   UNL     1       6.704  20.584  -4.910  0.00  0.00    +0.000 A 
ATOM      5  C   UNL     1       6.740  19.192  -4.941  0.00  0.00    +0.000 A 
ATOM      6  C   UNL     1       6.910  18.491  -3.754  0.00  0.00    +0.000 A 
ENDROOT
BRANCH   1   8
ATOM      7  C   UNL     1       6.507  18.688  -0.256  0.00  0.00    +0.000 C 
ATOM      8  O   UNL     1       7.205  18.323  -1.440  0.00  0.00    +0.000 OA
ENDBRANCH   1   8
BRANCH   6   9
ATOM      9  O   UNL     1       6.942  17.123  -3.810  0.00  0.00    +0.000 OA
ATOM     10  H   UNL     1       6.140  16.875  -4.308  0.00  0.00    +0.000 HD
ENDBRANCH   6   9
TORSDOF 2
ENDMDL
MODEL 6
REMARK VINA RESULT:    -3.686      1.344      3.096
REMARK INTER + INTRA:          -4.053
REMARK INTER:                  -4.001
REMARK INTRA:                  -0.052
REMARK UNBOUND:                -0.044
REMARK  Name = 
REMARK  3 active torsions:
REMARK  status: ('A' for Active; 'I' for Inactive)
REMARK    1  A    between atoms: C_1  and  O_2
REMARK    2  A    between atoms: O_2  and  C_3
REMARK    3  A    between atoms: C_8  and  O_9
REMARK                            x       y       z     vdW  Elec       q    Type
REMARK                         _______ _______ _______ _____ _____    ______ ____
ROOT
ATOM      1  C   UNL     1       6.506  13.907   1.627  0.00  0.00    +0.000 A 
ATOM      2  C   UNL     1       5.513  14.784   2.061  0.00  0.00    +0.000 A 
ATOM      3  C   UNL     1       5.188  15.908   1.292  0.00  0.00    +0.000 A 
ATOM      4  C   UNL     1       5.853  16.160   0.090  0.00  0.00    +0.000 A 
ATOM      5  C   UNL     1       6.846  15.288  -0.350  0.00  0.00    +0.000 A 
ATOM      6  C   UNL     1       7.162  14.176   0.420  0.00  0.00    +0.000 A 
ENDROOT
BRANCH   1   8
ATOM      7  C   UNL     1       7.634  12.964   3.495  0.00  0.00    +0.000 C 
ATOM      8  O   UNL     1       6.926  12.773   2.275  0.00  0.00    +0.000 OA
ENDBRANCH   1   8
BRANCH   6   9
ATOM      9  O   UNL     1       8.142  13.333  -0.034  0.00  0.00    +0.000 OA
ATOM     10  H   UNL     1       8.236  12.661   0.668  0.00  0.00    +0.000 HD
ENDBRANCH   6   9
TORSDOF 2
ENDMDL
MODEL 7
REMARK VINA RESULT:    -3.478      6.926      9.202
REMARK INTER + INTRA:          -3.827
REMARK INTER:                  -3.775
REMARK INTRA:                  -0.052
REMARK UNBOUND:                -0.044
REMARK  Name = 
REMARK  3 active torsions:
REMARK  status: ('A' for Active; 'I' for Inactive)
REMARK    1  A    between atoms: C_1  and  O_2
REMARK    2  A    between atoms: O_2  and  C_3
REMARK    3  A    between atoms: C_8  and  O_9
REMARK                            x       y       z     vdW  Elec       q    Type
REMARK                         _______ _______ _______ _____ _____    ______ ____
ROOT
ATOM      1  C   UNL     1       7.715  20.606  -3.720  0.00  0.00    +0.000 A 
ATOM      2  C   UNL     1       9.094  20.584  -3.926  0.00  0.00    +0.000 A 
ATOM      3  C   UNL     1       9.607  20.592  -5.230  0.00  0.00    +0.000 A 
ATOM      4  C   UNL     1       8.746  20.621  -6.329  0.00  0.00    +0.000 A 
ATOM      5  C   UNL     1       7.368  20.643  -6.131  0.00  0.00    +0.000 A 
ATOM      6  C   UNL     1       6.868  20.635  -4.835  0.00  0.00    +0.000 A 
ENDROOT
BRANCH   1   8
ATOM      7  C   UNL     1       7.171  19.402  -1.745  0.00  0.00    +0.000 C 
ATOM      8  O   UNL     1       7.076  20.600  -2.506  0.00  0.00    +0.000 OA
ENDBRANCH   1   8
BRANCH   6   9
ATOM      9  O   UNL     1       5.509  20.657  -4.666  0.00  0.00    +0.000 OA
ATOM     10  H   UNL     1       5.311  21.565  -4.366  0.00  0.00    +0.000 HD
ENDBRANCH   6   9
TORSDOF 2
ENDMDL
MODEL 8
REMARK VINA RESULT:    -3.447      1.495      1.959
REMARK INTER + INTRA:          -3.794
REMARK INTER:                  -3.748
REMARK INTRA:                  -0.046
REMARK UNBOUND:                -0.044
REMARK  Name = 
REMARK  3 active torsions:
REMARK  status: ('A' for Active; 'I' for Inactive)
REMARK    1  A    between atoms: C_1  and  O_2
REMARK    2  A    between atoms: O_2  and  C_3
REMARK    3  A    between atoms: C_8  and  O_9
REMARK                            x       y       z     vdW  Elec       q    Type
REMARK                         _______ _______ _______ _____ _____    ______ ____
ROOT
ATOM      1  C   UNL     1       5.484  15.037   1.237  0.00  0.00    +0.000 A 
ATOM      2  C   UNL     1       5.102  16.268   1.766  0.00  0.00    +0.000 A 
ATOM      3  C   UNL     1       4.824  16.386   3.134  0.00  0.00    +0.000 A 
ATOM      4  C   UNL     1       4.925  15.276   3.975  0.00  0.00    +0.000 A 
ATOM      5  C   UNL     1       5.306  14.042   3.453  0.00  0.00    +0.000 A 
ATOM      6  C   UNL     1       5.580  13.935   2.095  0.00  0.00    +0.000 A 
ENDROOT
BRANCH   1   8
ATOM      7  C   UNL     1       4.910  15.334  -1.050  0.00  0.00    +0.000 C 
ATOM      8  O   UNL     1       5.785  14.776  -0.076  0.00  0.00    +0.000 OA
ENDBRANCH   1   8
BRANCH   6   9
ATOM      9  O   UNL     1       5.953  12.711   1.606  0.00  0.00    +0.000 OA
ATOM     10  H   UNL     1       6.916  12.785   1.462  0.00  0.00    +0.000 HD
ENDBRANCH   6   9
TORSDOF 2
ENDMDL
MODEL 9
REMARK VINA RESULT:    -3.415      2.186      3.552
REMARK INTER + INTRA:          -3.759
REMARK INTER:                  -3.706
REMARK INTRA:                  -0.053
REMARK UNBOUND:                -0.044
REMARK  Name = 
REMARK  3 active torsions:
REMARK  status: ('A' for Active; 'I' for Inactive)
REMARK    1  A    between atoms: C_1  and  O_2
REMARK    2  A    between atoms: O_2  and  C_3
REMARK    3  A    between atoms: C_8  and  O_9
REMARK                            x       y       z     vdW  Elec       q    Type
REMARK                         _______ _______ _______ _____ _____    ______ ____
ROOT
ATOM      1  C   UNL     1       5.309  14.768   2.708  0.00  0.00    +0.000 A 
ATOM      2  C   UNL     1       5.015  16.122   2.556  0.00  0.00    +0.000 A 
ATOM      3  C   UNL     1       5.013  16.699   1.280  0.00  0.00    +0.000 A 
ATOM      4  C   UNL     1       5.305  15.926   0.154  0.00  0.00    +0.000 A 
ATOM      5  C   UNL     1       5.599  14.572   0.298  0.00  0.00    +0.000 A 
ATOM      6  C   UNL     1       5.599  14.009   1.567  0.00  0.00    +0.000 A 
ENDROOT
BRANCH   1   8
ATOM      7  C   UNL     1       6.393  14.414   4.793  0.00  0.00    +0.000 C 
ATOM      8  O   UNL     1       5.347  14.074   3.891  0.00  0.00    +0.000 OA
ENDBRANCH   1   8
BRANCH   6   9
ATOM      9  O   UNL     1       5.891  12.676   1.683  0.00  0.00    +0.000 OA
ATOM     10  H   UNL     1       5.388  12.248   0.964  0.00  0.00    +0.000 HD
ENDBRANCH   6   9
TORSDOF 2
ENDMDL
