MODEL 1
REMARK VINA RESULT:    -5.402      0.000      0.000
REMARK INTER + INTRA:          -7.718
REMARK INTER:                  -7.296
REMARK INTRA:                  -0.421
REMARK UNBOUND:                -0.421
REMARK  Name = 
REMARK  10 active torsions:
REMARK  status: ('A' for Active; 'I' for Inactive)
REMARK    1  A    between atoms: C_1  and  C_2
REMARK    2  A    between atoms: C_5  and  N_8
REMARK    3  A    between atoms: N_8  and  C_9
REMARK    4  A    between atoms: N_8  and  C_13
REMARK    5  A    between atoms: C_9  and  C_10
REMARK    6  A    between atoms: C_10  and  C_11
REMARK    7  A    between atoms: C_10  and  O_12
REMARK    8  A    between atoms: C_13  and  C_14
REMARK    9  A    between atoms: C_14  and  C_15
REMARK   10  A    between atoms: C_14  and  O_16
REMARK                            x       y       z     vdW  Elec       q    Type
REMARK                         _______ _______ _______ _____ _____    ______ ____
ROOT
ATOM      1  N   UNL     1      12.568   6.479   6.911  0.00  0.00    +0.000 N 
ENDROOT
BRANCH   1   6
ATOM      2  C   UNL     1      16.532   4.273   3.341  0.00  0.00    +0.000 C 
ATOM      3  C   UNL     1      15.511   4.868   4.260  0.00  0.00    +0.000 A 
ATOM      4  C   UNL     1      15.817   5.138   5.590  0.00  0.00    +0.000 A 
ATOM      5  C   UNL     1      14.846   5.668   6.455  0.00  0.00    +0.000 A 
ATOM      6  C   UNL     1      13.526   5.932   6.047  0.00  0.00    +0.000 A 
ATOM      7  C   UNL     1      13.252   5.649   4.697  0.00  0.00    +0.000 A 
ATOM      8  C   UNL     1      14.214   5.120   3.820  0.00  0.00    +0.000 A 
ENDBRANCH   1   6
BRANCH   1   9
ATOM      9  C   UNL     1      12.671   6.255   8.373  0.00  0.00    +0.000 C 
BRANCH   9  10
ATOM     10  C   UNL     1      12.014   7.387   9.201  0.00  0.00    +0.000 C 
ATOM     11  C   UNL     1      12.036   7.057  10.688  0.00  0.00    +0.000 C 
BRANCH  10  12
ATOM     12  O   UNL     1      12.704   8.630   9.011  0.00  0.00    +0.000 OA
ATOM     13  H   UNL     1      12.122   9.347   9.314  0.00  0.00    +0.000 HD
ENDBRANCH  10  12
ENDBRANCH   9  10
ENDBRANCH   1   9
BRANCH   1  14
ATOM     14  C   UNL     1      11.208   6.830   6.427  0.00  0.00    +0.000 C 
BRANCH  14  15
ATOM     15  C   UNL     1      10.213   5.654   6.577  0.00  0.00    +0.000 C 
ATOM     16  C   UNL     1       8.972   6.018   7.384  0.00  0.00    +0.000 C 
BRANCH  15  17
ATOM     17  O   UNL     1       9.786   5.160   5.309  0.00  0.00    +0.000 OA
ATOM     18  H   UNL     1       8.935   4.710   5.486  0.00  0.00    +0.000 HD
ENDBRANCH  15  17
ENDBRANCH  14  15
ENDBRANCH   1  14
TORSDOF 7
ENDMDL
MODEL 2
REMARK VINA RESULT:    -5.357      1.113      3.143
REMARK INTER + INTRA:          -7.658
REMARK INTER:                  -7.211
REMARK INTRA:                  -0.447
REMARK UNBOUND:                -0.421
REMARK  Name = 
REMARK  10 active torsions:
REMARK  status: ('A' for Active; 'I' for Inactive)
REMARK    1  A    between atoms: C_1  and  C_2
REMARK    2  A    between atoms: C_5  and  N_8
REMARK    3  A    between atoms: N_8  and  C_9
REMARK    4  A    between atoms: N_8  and  C_13
REMARK    5  A    between atoms: C_9  and  C_10
REMARK    6  A    between atoms: C_10  and  C_11
REMARK    7  A    between atoms: C_10  and  O_12
REMARK    8  A    between atoms: C_13  and  C_14
REMARK    9  A    between atoms: C_14  and  C_15
REMARK   10  A    between atoms: C_14  and  O_16
REMARK                            x       y       z     vdW  Elec       q    Type
REMARK                         _______ _______ _______ _____ _____    ______ ____
ROOT
ATOM      1  N   UNL     1      13.215   6.717   6.133  0.00  0.00    +0.000 N 
ENDROOT
BRANCH   1   6
ATOM      2  C   UNL     1      16.632   3.793   2.513  0.00  0.00    +0.000 C 
ATOM      3  C   UNL     1      15.758   4.573   3.447  0.00  0.00    +0.000 A 
ATOM      4  C   UNL     1      16.063   4.665   4.801  0.00  0.00    +0.000 A 
ATOM      5  C   UNL     1      15.224   5.372   5.678  0.00  0.00    +0.000 A 
ATOM      6  C   UNL     1      14.037   5.997   5.257  0.00  0.00    +0.000 A 
ATOM      7  C   UNL     1      13.761   5.885   3.882  0.00  0.00    +0.000 A 
ATOM      8  C   UNL     1      14.593   5.183   2.994  0.00  0.00    +0.000 A 
ENDBRANCH   1   6
BRANCH   1   9
ATOM      9  C   UNL     1      11.770   6.872   5.839  0.00  0.00    +0.000 C 
BRANCH   9  10
ATOM     10  C   UNL     1      10.934   5.643   6.273  0.00  0.00    +0.000 C 
ATOM     11  C   UNL     1      10.139   5.944   7.538  0.00  0.00    +0.000 C 
BRANCH  10  12
ATOM     12  O   UNL     1      10.009   5.260   5.246  0.00  0.00    +0.000 OA
ATOM     13  H   UNL     1       9.147   5.659   5.454  0.00  0.00    +0.000 HD
ENDBRANCH  10  12
ENDBRANCH   9  10
ENDBRANCH   1   9
BRANCH   1  14
ATOM     14  C   UNL     1      13.779   7.742   7.049  0.00  0.00    +0.000 C 
BRANCH  14  15
ATOM     15  C   UNL     1      12.697   8.371   7.959  0.00  0.00    +0.000 C 
ATOM     16  C   UNL     1      12.832   7.964   9.421  0.00  0.00    +0.000 C 
BRANCH  15  17
ATOM     17  O   UNL     1      12.716   9.796   7.893  0.00  0.00    +0.000 OA
ATOM     18  H   UNL     1      13.587  10.054   8.257  0.00  0.00    +0.000 HD
ENDBRANCH  15  17
ENDBRANCH  14  15
ENDBRANCH   1  14
TORSDOF 7
ENDMDL
MODEL 3
REMARK VINA RESULT:    -5.331      2.891      3.255
REMARK INTER + INTRA:          -7.622
REMARK INTER:                  -7.020
REMARK INTRA:                  -0.603
REMARK UNBOUND:                -0.421
REMARK  Name = 
REMARK  10 active torsions:
REMARK  status: ('A' for Active; 'I' for Inactive)
REMARK    1  A    between atoms: C_1  and  C_2
REMARK    2  A    between atoms: C_5  and  N_8
REMARK    3  A    between atoms: N_8  and  C_9
REMARK    4  A    between atoms: N_8  and  C_13
REMARK    5  A    between atoms: C_9  and  C_10
REMARK    6  A    between atoms: C_10  and  C_11
REMARK    7  A    between atoms: C_10  and  O_12
REMARK    8  A    between atoms: C_13  and  C_14
REMARK    9  A    between atoms: C_14  and  C_15
REMARK   10  A    between atoms: C_14  and  O_16
REMARK                            x       y       z     vdW  Elec       q    Type
REMARK                         _______ _______ _______ _____ _____    ______ ____
ROOT
ATOM      1  N   UNL     1      11.229   6.930   7.971  0.00  0.00    +0.000 N 
ENDROOT
BRANCH   1   6
ATOM      2  C   UNL     1      14.705  10.033   4.562  0.00  0.00    +0.000 C 
ATOM      3  C   UNL     1      13.785   9.244   5.442  0.00  0.00    +0.000 A 
ATOM      4  C   UNL     1      13.697   9.509   6.804  0.00  0.00    +0.000 A 
ATOM      5  C   UNL     1      12.855   8.746   7.629  0.00  0.00    +0.000 A 
ATOM      6  C   UNL     1      12.082   7.675   7.146  0.00  0.00    +0.000 A 
ATOM      7  C   UNL     1      12.194   7.437   5.763  0.00  0.00    +0.000 A 
ATOM      8  C   UNL     1      13.031   8.193   4.927  0.00  0.00    +0.000 A 
ENDBRANCH   1   6
BRANCH   1   9
ATOM      9  C   UNL     1      11.364   7.012   9.445  0.00  0.00    +0.000 C 
BRANCH   9  10
ATOM     10  C   UNL     1      12.191   5.845  10.038  0.00  0.00    +0.000 C 
ATOM     11  C   UNL     1      13.565   6.325  10.489  0.00  0.00    +0.000 C 
BRANCH  10  12
ATOM     12  O   UNL     1      11.528   5.267  11.171  0.00  0.00    +0.000 OA
ATOM     13  H   UNL     1      11.450   5.952  11.856  0.00  0.00    +0.000 HD
ENDBRANCH  10  12
ENDBRANCH   9  10
ENDBRANCH   1   9
BRANCH   1  14
ATOM     14  C   UNL     1      10.553   5.705   7.472  0.00  0.00    +0.000 C 
BRANCH  14  15
ATOM     15  C   UNL     1       9.024   5.897   7.333  0.00  0.00    +0.000 C 
ATOM     16  C   UNL     1       8.614   6.489   5.990  0.00  0.00    +0.000 C 
BRANCH  15  17
ATOM     17  O   UNL     1       8.320   4.668   7.507  0.00  0.00    +0.000 OA
ATOM     18  H   UNL     1       8.672   4.291   8.339  0.00  0.00    +0.000 HD
ENDBRANCH  15  17
ENDBRANCH  14  15
ENDBRANCH   1  14
TORSDOF 7
ENDMDL
MODEL 4
REMARK VINA RESULT:    -5.178      1.639      2.338
REMARK INTER + INTRA:          -7.416
REMARK INTER:                  -6.868
REMARK INTRA:                  -0.548
REMARK UNBOUND:                -0.421
REMARK  Name = 
REMARK  10 active torsions:
REMARK  status: ('A' for Active; 'I' for Inactive)
REMARK    1  A    between atoms: C_1  and  C_2
REMARK    2  A    between atoms: C_5  and  N_8
REMARK    3  A    between atoms: N_8  and  C_9
REMARK    4  A    between atoms: N_8  and  C_13
REMARK    5  A    between atoms: C_9  and  C_10
REMARK    6  A    between atoms: C_10  and  C_11
REMARK    7  A    between atoms: C_10  and  O_12
REMARK    8  A    between atoms: C_13  and  C_14
REMARK    9  A    between atoms: C_14  and  C_15
REMARK   10  A    between atoms: C_14  and  O_16
REMARK                            x       y       z     vdW  Elec       q    Type
REMARK                         _______ _______ _______ _____ _____    ______ ____
ROOT
ATOM      1  N   UNL     1      13.726   6.754   7.084  0.00  0.00    +0.000 N 
ENDROOT
BRANCH   1   6
ATOM      2  C   UNL     1      16.068   3.650   2.817  0.00  0.00    +0.000 C 
ATOM      3  C   UNL     1      15.466   4.477   3.912  0.00  0.00    +0.000 A 
ATOM      4  C   UNL     1      16.225   4.870   5.009  0.00  0.00    +0.000 A 
ATOM      5  C   UNL     1      15.647   5.619   6.048  0.00  0.00    +0.000 A 
ATOM      6  C   UNL     1      14.291   5.990   6.055  0.00  0.00    +0.000 A 
ATOM      7  C   UNL     1      13.555   5.578   4.929  0.00  0.00    +0.000 A 
ATOM      8  C   UNL     1      14.121   4.830   3.883  0.00  0.00    +0.000 A 
ENDBRANCH   1   6
BRANCH   1   9
ATOM      9  C   UNL     1      14.439   7.947   7.601  0.00  0.00    +0.000 C 
BRANCH   9  10
ATOM     10  C   UNL     1      13.840   9.276   7.081  0.00  0.00    +0.000 C 
ATOM     11  C   UNL     1      13.409   9.147   5.625  0.00  0.00    +0.000 C 
BRANCH  10  12
ATOM     12  O   UNL     1      12.693   9.661   7.851  0.00  0.00    +0.000 OA
ATOM     13  H   UNL     1      12.183  10.305   7.332  0.00  0.00    +0.000 HD
ENDBRANCH  10  12
ENDBRANCH   9  10
ENDBRANCH   1   9
BRANCH   1  14
ATOM     14  C   UNL     1      12.729   6.170   8.017  0.00  0.00    +0.000 C 
BRANCH  14  15
ATOM     15  C   UNL     1      11.306   6.732   7.778  0.00  0.00    +0.000 C 
ATOM     16  C   UNL     1      10.275   5.648   7.487  0.00  0.00    +0.000 C 
BRANCH  15  17
ATOM     17  O   UNL     1      10.846   7.491   8.895  0.00  0.00    +0.000 OA
ATOM     18  H   UNL     1      10.454   8.299   8.506  0.00  0.00    +0.000 HD
ENDBRANCH  15  17
ENDBRANCH  14  15
ENDBRANCH   1  14
TORSDOF 7
ENDMDL
MODEL 5
REMARK VINA RESULT:    -5.175      1.873      3.230
REMARK INTER + INTRA:          -7.412
REMARK INTER:                  -6.835
REMARK INTRA:                  -0.577
REMARK UNBOUND:                -0.421
REMARK  Name = 
REMARK  10 active torsions:
REMARK  status: ('A' for Active; 'I' for Inactive)
REMARK    1  A    between atoms: C_1  and  C_2
REMARK    2  A    between atoms: C_5  and  N_8
REMARK    3  A    between atoms: N_8  and  C_9
REMARK    4  A    between atoms: N_8  and  C_13
REMARK    5  A    between atoms: C_9  and  C_10
REMARK    6  A    between atoms: C_10  and  C_11
REMARK    7  A    between atoms: C_10  and  O_12
REMARK    8  A    between atoms: C_13  and  C_14
REMARK    9  A    between atoms: C_14  and  C_15
REMARK   10  A    between atoms: C_14  and  O_16
REMARK                            x       y       z     vdW  Elec       q    Type
REMARK                         _______ _______ _______ _____ _____    ______ ____
ROOT
ATOM      1  N   UNL     1      13.560   6.940   6.494  0.00  0.00    +0.000 N 
ENDROOT
BRANCH   1   6
ATOM      2  C   UNL     1      16.186   3.303   2.860  0.00  0.00    +0.000 C 
ATOM      3  C   UNL     1      15.494   4.228   3.814  0.00  0.00    +0.000 A 
ATOM      4  C   UNL     1      14.248   4.767   3.510  0.00  0.00    +0.000 A 
ATOM      5  C   UNL     1      13.618   5.657   4.395  0.00  0.00    +0.000 A 
ATOM      6  C   UNL     1      14.203   6.068   5.607  0.00  0.00    +0.000 A 
ATOM      7  C   UNL     1      15.461   5.501   5.883  0.00  0.00    +0.000 A 
ATOM      8  C   UNL     1      16.101   4.609   5.007  0.00  0.00    +0.000 A 
ENDBRANCH   1   6
BRANCH   1   9
ATOM      9  C   UNL     1      12.897   6.409   7.709  0.00  0.00    +0.000 C 
BRANCH   9  10
ATOM     10  C   UNL     1      11.392   6.767   7.777  0.00  0.00    +0.000 C 
ATOM     11  C   UNL     1      10.532   5.509   7.775  0.00  0.00    +0.000 C 
BRANCH  10  12
ATOM     12  O   UNL     1      11.092   7.508   8.968  0.00  0.00    +0.000 OA
ATOM     13  H   UNL     1      10.129   7.629   9.013  0.00  0.00    +0.000 HD
ENDBRANCH  10  12
ENDBRANCH   9  10
ENDBRANCH   1   9
BRANCH   1  14
ATOM     14  C   UNL     1      13.070   8.269   6.046  0.00  0.00    +0.000 C 
BRANCH  14  15
ATOM     15  C   UNL     1      13.637   9.422   6.909  0.00  0.00    +0.000 C 
ATOM     16  C   UNL     1      14.141  10.599   6.081  0.00  0.00    +0.000 C 
BRANCH  15  17
ATOM     17  O   UNL     1      12.668   9.915   7.833  0.00  0.00    +0.000 OA
ATOM     18  H   UNL     1      12.655  10.883   7.693  0.00  0.00    +0.000 HD
ENDBRANCH  15  17
ENDBRANCH  14  15
ENDBRANCH   1  14
TORSDOF 7
ENDMDL
MODEL 6
REMARK VINA RESULT:    -5.174      2.720      5.203
REMARK INTER + INTRA:          -7.410
REMARK INTER:                  -6.906
REMARK INTRA:                  -0.504
REMARK UNBOUND:                -0.421
REMARK  Name = 
REMARK  10 active torsions:
REMARK  status: ('A' for Active; 'I' for Inactive)
REMARK    1  A    between atoms: C_1  and  C_2
REMARK    2  A    between atoms: C_5  and  N_8
REMARK    3  A    between atoms: N_8  and  C_9
REMARK    4  A    between atoms: N_8  and  C_13
REMARK    5  A    between atoms: C_9  and  C_10
REMARK    6  A    between atoms: C_10  and  C_11
REMARK    7  A    between atoms: C_10  and  O_12
REMARK    8  A    between atoms: C_13  and  C_14
REMARK    9  A    between atoms: C_14  and  C_15
REMARK   10  A    between atoms: C_14  and  O_16
REMARK                            x       y       z     vdW  Elec       q    Type
REMARK                         _______ _______ _______ _____ _____    ______ ____
ROOT
ATOM      1  N   UNL     1      11.989   6.101   7.932  0.00  0.00    +0.000 N 
ENDROOT
BRANCH   1   6
ATOM      2  C   UNL     1      14.679   6.178  13.039  0.00  0.00    +0.000 C 
ATOM      3  C   UNL     1      13.980   6.183  11.714  0.00  0.00    +0.000 A 
ATOM      4  C   UNL     1      12.594   6.099  11.637  0.00  0.00    +0.000 A 
ATOM      5  C   UNL     1      11.946   6.074  10.392  0.00  0.00    +0.000 A 
ATOM      6  C   UNL     1      12.643   6.106   9.170  0.00  0.00    +0.000 A 
ATOM      7  C   UNL     1      14.042   6.193   9.286  0.00  0.00    +0.000 A 
ATOM      8  C   UNL     1      14.703   6.221  10.525  0.00  0.00    +0.000 A 
ENDBRANCH   1   6
BRANCH   1   9
ATOM      9  C   UNL     1      10.697   5.389   7.776  0.00  0.00    +0.000 C 
BRANCH   9  10
ATOM     10  C   UNL     1       9.500   6.352   7.590  0.00  0.00    +0.000 C 
ATOM     11  C   UNL     1       8.697   5.990   6.345  0.00  0.00    +0.000 C 
BRANCH  10  12
ATOM     12  O   UNL     1       8.616   6.300   8.719  0.00  0.00    +0.000 OA
ATOM     13  H   UNL     1       9.013   6.821   9.436  0.00  0.00    +0.000 HD
ENDBRANCH  10  12
ENDBRANCH   9  10
ENDBRANCH   1   9
BRANCH   1  14
ATOM     14  C   UNL     1      12.735   6.322   6.667  0.00  0.00    +0.000 C 
BRANCH  14  15
ATOM     15  C   UNL     1      12.386   7.681   6.013  0.00  0.00    +0.000 C 
ATOM     16  C   UNL     1      13.616   8.495   5.628  0.00  0.00    +0.000 C 
BRANCH  15  17
ATOM     17  O   UNL     1      11.584   7.513   4.844  0.00  0.00    +0.000 OA
ATOM     18  H   UNL     1      11.951   6.723   4.398  0.00  0.00    +0.000 HD
ENDBRANCH  15  17
ENDBRANCH  14  15
ENDBRANCH   1  14
TORSDOF 7
ENDMDL
MODEL 7
REMARK VINA RESULT:    -5.167      0.979      3.106
REMARK INTER + INTRA:          -7.401
REMARK INTER:                  -6.928
REMARK INTRA:                  -0.472
REMARK UNBOUND:                -0.421
REMARK  Name = 
REMARK  10 active torsions:
REMARK  status: ('A' for Active; 'I' for Inactive)
REMARK    1  A    between atoms: C_1  and  C_2
REMARK    2  A    between atoms: C_5  and  N_8
REMARK    3  A    between atoms: N_8  and  C_9
REMARK    4  A    between atoms: N_8  and  C_13
REMARK    5  A    between atoms: C_9  and  C_10
REMARK    6  A    between atoms: C_10  and  C_11
REMARK    7  A    between atoms: C_10  and  O_12
REMARK    8  A    between atoms: C_13  and  C_14
REMARK    9  A    between atoms: C_14  and  C_15
REMARK   10  A    between atoms: C_14  and  O_16
REMARK                            x       y       z     vdW  Elec       q    Type
REMARK                         _______ _______ _______ _____ _____    ______ ____
ROOT
ATOM      1  N   UNL     1      12.571   6.337   7.090  0.00  0.00    +0.000 N 
ENDROOT
BRANCH   1   6
ATOM      2  C   UNL     1      16.574   4.335   3.443  0.00  0.00    +0.000 C 
ATOM      3  C   UNL     1      15.542   4.878   4.383  0.00  0.00    +0.000 A 
ATOM      4  C   UNL     1      15.847   5.119   5.719  0.00  0.00    +0.000 A 
ATOM      5  C   UNL     1      14.867   5.599   6.602  0.00  0.00    +0.000 A 
ATOM      6  C   UNL     1      13.539   5.840   6.208  0.00  0.00    +0.000 A 
ATOM      7  C   UNL     1      13.266   5.588   4.850  0.00  0.00    +0.000 A 
ATOM      8  C   UNL     1      14.238   5.109   3.956  0.00  0.00    +0.000 A 
ENDBRANCH   1   6
BRANCH   1   9
ATOM      9  C   UNL     1      11.243   6.753   6.579  0.00  0.00    +0.000 C 
BRANCH   9  10
ATOM     10  C   UNL     1      10.189   5.621   6.656  0.00  0.00    +0.000 C 
ATOM     11  C   UNL     1       8.935   6.092   7.383  0.00  0.00    +0.000 C 
BRANCH  10  12
ATOM     12  O   UNL     1       9.805   5.184   5.345  0.00  0.00    +0.000 OA
ATOM     13  H   UNL     1      10.594   4.829   4.902  0.00  0.00    +0.000 HD
ENDBRANCH  10  12
ENDBRANCH   9  10
ENDBRANCH   1   9
BRANCH   1  14
ATOM     14  C   UNL     1      12.955   6.940   8.392  0.00  0.00    +0.000 C 
BRANCH  14  15
ATOM     15  C   UNL     1      12.727   5.968   9.575  0.00  0.00    +0.000 C 
ATOM     16  C   UNL     1      13.597   6.283  10.786  0.00  0.00    +0.000 C 
BRANCH  15  17
ATOM     17  O   UNL     1      11.364   5.965   9.999  0.00  0.00    +0.000 OA
ATOM     18  H   UNL     1      10.897   5.411   9.342  0.00  0.00    +0.000 HD
ENDBRANCH  15  17
ENDBRANCH  14  15
ENDBRANCH   1  14
TORSDOF 7
ENDMDL
MODEL 8
REMARK VINA RESULT:    -5.109      2.537      3.747
REMARK INTER + INTRA:          -7.322
REMARK INTER:                  -6.788
REMARK INTRA:                  -0.534
REMARK UNBOUND:                -0.421
REMARK  Name = 
REMARK  10 active torsions:
REMARK  status: ('A' for Active; 'I' for Inactive)
REMARK    1  A    between atoms: C_1  and  C_2
REMARK    2  A    between atoms: C_5  and  N_8
REMARK    3  A    between atoms: N_8  and  C_9
REMARK    4  A    between atoms: N_8  and  C_13
REMARK    5  A    between atoms: C_9  and  C_10
REMARK    6  A    between atoms: C_10  and  C_11
REMARK    7  A    between atoms: C_10  and  O_12
REMARK    8  A    between atoms: C_13  and  C_14
REMARK    9  A    between atoms: C_14  and  C_15
REMARK   10  A    between atoms: C_14  and  O_16
REMARK                            x       y       z     vdW  Elec       q    Type
REMARK                         _______ _______ _______ _____ _____    ______ ____
ROOT
ATOM      1  N   UNL     1      14.319   6.782   4.583  0.00  0.00    +0.000 N 
ENDROOT
BRANCH   1   6
ATOM      2  C   UNL     1      17.004   2.988   1.160  0.00  0.00    +0.000 C 
ATOM      3  C   UNL     1      16.330   3.978   2.059  0.00  0.00    +0.000 A 
ATOM      4  C   UNL     1      15.815   3.590   3.291  0.00  0.00    +0.000 A 
ATOM      5  C   UNL     1      15.157   4.516   4.116  0.00  0.00    +0.000 A 
ATOM      6  C   UNL     1      14.959   5.859   3.747  0.00  0.00    +0.000 A 
ATOM      7  C   UNL     1      15.494   6.217   2.496  0.00  0.00    +0.000 A 
ATOM      8  C   UNL     1      16.156   5.301   1.662  0.00  0.00    +0.000 A 
ENDBRANCH   1   6
BRANCH   1   9
ATOM      9  C   UNL     1      14.612   8.230   4.455  0.00  0.00    +0.000 C 
BRANCH   9  10
ATOM     10  C   UNL     1      13.339   9.108   4.517  0.00  0.00    +0.000 C 
ATOM     11  C   UNL     1      13.647  10.545   4.114  0.00  0.00    +0.000 C 
BRANCH  10  12
ATOM     12  O   UNL     1      12.324   8.607   3.635  0.00  0.00    +0.000 OA
ATOM     13  H   UNL     1      12.466   9.001   2.758  0.00  0.00    +0.000 HD
ENDBRANCH  10  12
ENDBRANCH   9  10
ENDBRANCH   1   9
BRANCH   1  14
ATOM     14  C   UNL     1      13.763   6.372   5.898  0.00  0.00    +0.000 C 
BRANCH  14  15
ATOM     15  C   UNL     1      12.457   5.554   5.752  0.00  0.00    +0.000 C 
ATOM     16  C   UNL     1      11.822   5.194   7.089  0.00  0.00    +0.000 C 
BRANCH  15  17
ATOM     17  O   UNL     1      11.485   6.250   4.973  0.00  0.00    +0.000 OA
ATOM     18  H   UNL     1      11.864   7.140   4.832  0.00  0.00    +0.000 HD
ENDBRANCH  15  17
ENDBRANCH  14  15
ENDBRANCH   1  14
TORSDOF 7
ENDMDL
MODEL 9
REMARK VINA RESULT:    -5.053      1.877      2.341
REMARK INTER + INTRA:          -7.247
REMARK INTER:                  -6.733
REMARK INTRA:                  -0.514
REMARK UNBOUND:                -0.421
REMARK  Name = 
REMARK  10 active torsions:
REMARK  status: ('A' for Active; 'I' for Inactive)
REMARK    1  A    between atoms: C_1  and  C_2
REMARK    2  A    between atoms: C_5  and  N_8
REMARK    3  A    between atoms: N_8  and  C_9
REMARK    4  A    between atoms: N_8  and  C_13
REMARK    5  A    between atoms: C_9  and  C_10
REMARK    6  A    between atoms: C_10  and  C_11
REMARK    7  A    between atoms: C_10  and  O_12
REMARK    8  A    between atoms: C_13  and  C_14
REMARK    9  A    between atoms: C_14  and  C_15
REMARK   10  A    between atoms: C_14  and  O_16
REMARK                            x       y       z     vdW  Elec       q    Type
REMARK                         _______ _______ _______ _____ _____    ______ ____
ROOT
ATOM      1  N   UNL     1      12.093   6.321   7.912  0.00  0.00    +0.000 N 
ENDROOT
BRANCH   1   6
ATOM      2  C   UNL     1      14.141   7.543   2.654  0.00  0.00    +0.000 C 
ATOM      3  C   UNL     1      13.633   7.227   4.027  0.00  0.00    +0.000 A 
ATOM      4  C   UNL     1      13.498   5.910   4.454  0.00  0.00    +0.000 A 
ATOM      5  C   UNL     1      12.993   5.620   5.732  0.00  0.00    +0.000 A 
ATOM      6  C   UNL     1      12.578   6.618   6.631  0.00  0.00    +0.000 A 
ATOM      7  C   UNL     1      12.730   7.938   6.168  0.00  0.00    +0.000 A 
ATOM      8  C   UNL     1      13.236   8.242   4.893  0.00  0.00    +0.000 A 
ENDBRANCH   1   6
BRANCH   1   9
ATOM      9  C   UNL     1      13.019   6.297   9.070  0.00  0.00    +0.000 C 
BRANCH   9  10
ATOM     10  C   UNL     1      12.523   7.166  10.252  0.00  0.00    +0.000 C 
ATOM     11  C   UNL     1      12.481   6.356  11.543  0.00  0.00    +0.000 C 
BRANCH  10  12
ATOM     12  O   UNL     1      13.388   8.291  10.462  0.00  0.00    +0.000 OA
ATOM     13  H   UNL     1      13.806   8.191  11.333  0.00  0.00    +0.000 HD
ENDBRANCH  10  12
ENDBRANCH   9  10
ENDBRANCH   1   9
BRANCH   1  14
ATOM     14  C   UNL     1      10.839   5.548   8.099  0.00  0.00    +0.000 C 
BRANCH  14  15
ATOM     15  C   UNL     1       9.588   6.352   7.669  0.00  0.00    +0.000 C 
ATOM     16  C   UNL     1       8.983   5.865   6.358  0.00  0.00    +0.000 C 
BRANCH  15  17
ATOM     17  O   UNL     1       8.568   6.313   8.667  0.00  0.00    +0.000 OA
ATOM     18  H   UNL     1       9.043   6.403   9.517  0.00  0.00    +0.000 HD
ENDBRANCH  15  17
ENDBRANCH  14  15
ENDBRANCH   1  14
TORSDOF 7
ENDMDL
