MODEL 1
REMARK VINA RESULT:    -4.269      0.000      0.000
REMARK INTER + INTRA:          -4.694
REMARK INTER:                  -4.643
REMARK INTRA:                  -0.051
REMARK UNBOUND:                -0.051
REMARK  Name = 
REMARK  3 active torsions:
REMARK  status: ('A' for Active; 'I' for Inactive)
REMARK    1  A    between atoms: C_1  and  O_2
REMARK    2  A    between atoms: O_2  and  C_3
REMARK    3  A    between atoms: C_8  and  O_9
REMARK                            x       y       z     vdW  Elec       q    Type
REMARK                         _______ _______ _______ _____ _____    ______ ____
ROOT
ATOM      1  C   UNL     1      -1.305   0.245  20.884  0.00  0.00    +0.000 A 
ATOM      2  C   UNL     1      -2.374  -0.642  20.768  0.00  0.00    +0.000 A 
ATOM      3  C   UNL     1      -3.049  -0.768  19.547  0.00  0.00    +0.000 A 
ATOM      4  C   UNL     1      -2.660  -0.010  18.441  0.00  0.00    +0.000 A 
ATOM      5  C   UNL     1      -1.593   0.879  18.549  0.00  0.00    +0.000 A 
ATOM      6  C   UNL     1      -0.929   0.998  19.764  0.00  0.00    +0.000 A 
ENDROOT
BRANCH   1   8
ATOM      7  C   UNL     1      -1.270   0.859  23.179  0.00  0.00    +0.000 C 
ATOM      8  O   UNL     1      -0.557   0.471  22.011  0.00  0.00    +0.000 OA
ENDBRANCH   1   8
BRANCH   6   9
ATOM      9  O   UNL     1       0.117   1.878  19.846  0.00  0.00    +0.000 OA
ATOM     10  H   UNL     1       0.895   1.366  19.554  0.00  0.00    +0.000 HD
ENDBRANCH   6   9
TORSDOF 2
ENDMDL
MODEL 2
REMARK VINA RESULT:    -4.237     17.591     18.552
REMARK INTER + INTRA:          -4.659
REMARK INTER:                  -4.620
REMARK INTRA:                  -0.039
REMARK UNBOUND:                -0.051
REMARK  Name = 
REMARK  3 active torsions:
REMARK  status: ('A' for Active; 'I' for Inactive)
REMARK    1  A    between atoms: C_1  and  O_2
REMARK    2  A    between atoms: O_2  and  C_3
REMARK    3  A    between atoms: C_8  and  O_9
REMARK                            x       y       z     vdW  Elec       q    Type
REMARK                         _______ _______ _______ _____ _____    ______ ____
ROOT
ATOM      1  C   UNL     1      10.930   6.687   8.445  0.00  0.00    +0.000 A 
ATOM      2  C   UNL     1      12.083   6.613   7.665  0.00  0.00    +0.000 A 
ATOM      3  C   UNL     1      12.005   6.151   6.345  0.00  0.00    +0.000 A 
ATOM      4  C   UNL     1      10.779   5.762   5.802  0.00  0.00    +0.000 A 
ATOM      5  C   UNL     1       9.623   5.834   6.576  0.00  0.00    +0.000 A 
ATOM      6  C   UNL     1       9.709   6.293   7.884  0.00  0.00    +0.000 A 
ENDROOT
BRANCH   1   8
ATOM      7  C   UNL     1      12.069   7.090  10.492  0.00  0.00    +0.000 C 
ATOM      8  O   UNL     1      10.858   7.117   9.746  0.00  0.00    +0.000 OA
ENDBRANCH   1   8
BRANCH   6   9
ATOM      9  O   UNL     1       8.559   6.354   8.625  0.00  0.00    +0.000 OA
ATOM     10  H   UNL     1       8.233   5.435   8.653  0.00  0.00    +0.000 HD
ENDBRANCH   6   9
TORSDOF 2
ENDMDL
MODEL 3
REMARK VINA RESULT:    -4.185     17.435     18.915
REMARK INTER + INTRA:          -4.603
REMARK INTER:                  -4.554
REMARK INTRA:                  -0.049
REMARK UNBOUND:                -0.051
REMARK  Name = 
REMARK  3 active torsions:
REMARK  status: ('A' for Active; 'I' for Inactive)
REMARK    1  A    between atoms: C_1  and  O_2
REMARK    2  A    between atoms: O_2  and  C_3
REMARK    3  A    between atoms: C_8  and  O_9
REMARK                            x       y       z     vdW  Elec       q    Type
REMARK                         _______ _______ _______ _____ _____    ______ ____
ROOT
ATOM      1  C   UNL     1      11.264   6.598   7.345  0.00  0.00    +0.000 A 
ATOM      2  C   UNL     1      10.997   6.011   6.108  0.00  0.00    +0.000 A 
ATOM      3  C   UNL     1       9.711   5.536   5.822  0.00  0.00    +0.000 A 
ATOM      4  C   UNL     1       8.690   5.645   6.768  0.00  0.00    +0.000 A 
ATOM      5  C   UNL     1       8.948   6.231   8.005  0.00  0.00    +0.000 A 
ATOM      6  C   UNL     1      10.227   6.698   8.280  0.00  0.00    +0.000 A 
ENDROOT
BRANCH   1   8
ATOM      7  C   UNL     1      12.890   8.320   7.154  0.00  0.00    +0.000 C 
ATOM      8  O   UNL     1      12.470   7.103   7.759  0.00  0.00    +0.000 OA
ENDBRANCH   1   8
BRANCH   6   9
ATOM      9  O   UNL     1      10.457   7.270   9.503  0.00  0.00    +0.000 OA
ATOM     10  H   UNL     1      10.126   8.184   9.417  0.00  0.00    +0.000 HD
ENDBRANCH   6   9
TORSDOF 2
ENDMDL
MODEL 4
REMARK VINA RESULT:    -4.160     18.485     20.051
REMARK INTER + INTRA:          -4.575
REMARK INTER:                  -4.528
REMARK INTRA:                  -0.047
REMARK UNBOUND:                -0.051
REMARK  Name = 
REMARK  3 active torsions:
REMARK  status: ('A' for Active; 'I' for Inactive)
REMARK    1  A    between atoms: C_1  and  O_2
REMARK    2  A    between atoms: O_2  and  C_3
REMARK    3  A    between atoms: C_8  and  O_9
REMARK                            x       y       z     vdW  Elec       q    Type
REMARK                         _______ _______ _______ _____ _____    ______ ____
ROOT
ATOM      1  C   UNL     1      11.703   6.664   6.189  0.00  0.00    +0.000 A 
ATOM      2  C   UNL     1      12.246   7.351   7.274  0.00  0.00    +0.000 A 
ATOM      3  C   UNL     1      11.590   7.334   8.511  0.00  0.00    +0.000 A 
ATOM      4  C   UNL     1      10.393   6.633   8.669  0.00  0.00    +0.000 A 
ATOM      5  C   UNL     1       9.845   5.943   7.589  0.00  0.00    +0.000 A 
ATOM      6  C   UNL     1      10.502   5.966   6.366  0.00  0.00    +0.000 A 
ENDROOT
BRANCH   1   8
ATOM      7  C   UNL     1      12.653   7.824   4.345  0.00  0.00    +0.000 C 
ATOM      8  O   UNL     1      12.234   6.594   4.925  0.00  0.00    +0.000 OA
ENDBRANCH   1   8
BRANCH   6   9
ATOM      9  O   UNL     1       9.944   5.281   5.320  0.00  0.00    +0.000 OA
ATOM     10  H   UNL     1       9.166   4.833   5.703  0.00  0.00    +0.000 HD
ENDBRANCH   6   9
TORSDOF 2
ENDMDL
MODEL 5
REMARK VINA RESULT:    -4.147     17.973     19.327
REMARK INTER + INTRA:          -4.561
REMARK INTER:                  -4.509
REMARK INTRA:                  -0.052
REMARK UNBOUND:                -0.051
REMARK  Name = 
REMARK  3 active torsions:
REMARK  status: ('A' for Active; 'I' for Inactive)
REMARK    1  A    between atoms: C_1  and  O_2
REMARK    2  A    between atoms: O_2  and  C_3
REMARK    3  A    between atoms: C_8  and  O_9
REMARK                            x       y       z     vdW  Elec       q    Type
REMARK                         _______ _______ _______ _____ _____    ______ ____
ROOT
ATOM      1  C   UNL     1      11.336   6.684   7.260  0.00  0.00    +0.000 A 
ATOM      2  C   UNL     1      10.477   6.675   8.358  0.00  0.00    +0.000 A 
ATOM      3  C   UNL     1       9.159   6.226   8.211  0.00  0.00    +0.000 A 
ATOM      4  C   UNL     1       8.695   5.786   6.970  0.00  0.00    +0.000 A 
ATOM      5  C   UNL     1       9.547   5.791   5.868  0.00  0.00    +0.000 A 
ATOM      6  C   UNL     1      10.853   6.239   6.023  0.00  0.00    +0.000 A 
ENDROOT
BRANCH   1   8
ATOM      7  C   UNL     1      12.872   8.490   7.419  0.00  0.00    +0.000 C 
ATOM      8  O   UNL     1      12.645   7.095   7.257  0.00  0.00    +0.000 OA
ENDBRANCH   1   8
BRANCH   6   9
ATOM      9  O   UNL     1      11.672   6.235   4.926  0.00  0.00    +0.000 OA
ATOM     10  H   UNL     1      12.564   6.416   5.280  0.00  0.00    +0.000 HD
ENDBRANCH   6   9
TORSDOF 2
ENDMDL
MODEL 6
REMARK VINA RESULT:    -4.044     24.131     25.284
REMARK INTER + INTRA:          -4.449
REMARK INTER:                  -4.398
REMARK INTRA:                  -0.051
REMARK UNBOUND:                -0.051
REMARK  Name = 
REMARK  3 active torsions:
REMARK  status: ('A' for Active; 'I' for Inactive)
REMARK    1  A    between atoms: C_1  and  O_2
REMARK    2  A    between atoms: O_2  and  C_3
REMARK    3  A    between atoms: C_8  and  O_9
REMARK                            x       y       z     vdW  Elec       q    Type
REMARK                         _______ _______ _______ _____ _____    ______ ____
ROOT
ATOM      1  C   UNL     1      16.010   5.406   3.010  0.00  0.00    +0.000 A 
ATOM      2  C   UNL     1      17.266   5.188   2.446  0.00  0.00    +0.000 A 
ATOM      3  C   UNL     1      17.580   3.939   1.897  0.00  0.00    +0.000 A 
ATOM      4  C   UNL     1      16.643   2.904   1.910  0.00  0.00    +0.000 A 
ATOM      5  C   UNL     1      15.385   3.114   2.471  0.00  0.00    +0.000 A 
ATOM      6  C   UNL     1      15.082   4.356   3.014  0.00  0.00    +0.000 A 
ENDROOT
BRANCH   1   8
ATOM      7  C   UNL     1      15.325   7.659   2.697  0.00  0.00    +0.000 C 
ATOM      8  O   UNL     1      15.568   6.572   3.582  0.00  0.00    +0.000 OA
ENDBRANCH   1   8
BRANCH   6   9
ATOM      9  O   UNL     1      13.840   4.538   3.560  0.00  0.00    +0.000 OA
ATOM     10  H   UNL     1      13.224   4.465   2.806  0.00  0.00    +0.000 HD
ENDBRANCH   6   9
TORSDOF 2
ENDMDL
MODEL 7
REMARK VINA RESULT:    -3.919      1.506      2.171
REMARK INTER + INTRA:          -4.313
REMARK INTER:                  -4.270
REMARK INTRA:                  -0.043
REMARK UNBOUND:                -0.051
REMARK  Name = 
REMARK  3 active torsions:
REMARK  status: ('A' for Active; 'I' for Inactive)
REMARK    1  A    between atoms: C_1  and  O_2
REMARK    2  A    between atoms: O_2  and  C_3
REMARK    3  A    between atoms: C_8  and  O_9
REMARK                            x       y       z     vdW  Elec       q    Type
REMARK                         _______ _______ _______ _____ _____    ______ ____
ROOT
ATOM      1  C   UNL     1      -1.283  -1.113  20.038  0.00  0.00    +0.000 A 
ATOM      2  C   UNL     1      -2.297  -1.254  19.091  0.00  0.00    +0.000 A 
ATOM      3  C   UNL     1      -2.685  -0.155  18.314  0.00  0.00    +0.000 A 
ATOM      4  C   UNL     1      -2.064   1.084  18.479  0.00  0.00    +0.000 A 
ATOM      5  C   UNL     1      -1.050   1.232  19.423  0.00  0.00    +0.000 A 
ATOM      6  C   UNL     1      -0.672   0.138  20.190  0.00  0.00    +0.000 A 
ENDROOT
BRANCH   1   8
ATOM      7  C   UNL     1      -1.751  -3.046  21.339  0.00  0.00    +0.000 C 
ATOM      8  O   UNL     1      -0.803  -2.097  20.865  0.00  0.00    +0.000 OA
ENDBRANCH   1   8
BRANCH   6   9
ATOM      9  O   UNL     1       0.328   0.309  21.111  0.00  0.00    +0.000 OA
ATOM     10  H   UNL     1      -0.132   0.584  21.927  0.00  0.00    +0.000 HD
ENDBRANCH   6   9
TORSDOF 2
ENDMDL
MODEL 8
REMARK VINA RESULT:    -3.878     24.323     25.532
REMARK INTER + INTRA:          -4.269
REMARK INTER:                  -4.216
REMARK INTRA:                  -0.053
REMARK UNBOUND:                -0.051
REMARK  Name = 
REMARK  3 active torsions:
REMARK  status: ('A' for Active; 'I' for Inactive)
REMARK    1  A    between atoms: C_1  and  O_2
REMARK    2  A    between atoms: O_2  and  C_3
REMARK    3  A    between atoms: C_8  and  O_9
REMARK                            x       y       z     vdW  Elec       q    Type
REMARK                         _______ _______ _______ _____ _____    ______ ____
ROOT
ATOM      1  C   UNL     1      15.782   5.447   2.909  0.00  0.00    +0.000 A 
ATOM      2  C   UNL     1      15.058   4.319   3.294  0.00  0.00    +0.000 A 
ATOM      3  C   UNL     1      15.407   3.060   2.790  0.00  0.00    +0.000 A 
ATOM      4  C   UNL     1      16.475   2.923   1.902  0.00  0.00    +0.000 A 
ATOM      5  C   UNL     1      17.203   4.046   1.514  0.00  0.00    +0.000 A 
ATOM      6  C   UNL     1      16.850   5.291   2.018  0.00  0.00    +0.000 A 
ENDROOT
BRANCH   1   8
ATOM      7  C   UNL     1      14.345   7.340   2.873  0.00  0.00    +0.000 C 
ATOM      8  O   UNL     1      15.553   6.736   3.320  0.00  0.00    +0.000 OA
ENDBRANCH   1   8
BRANCH   6   9
ATOM      9  O   UNL     1      17.580   6.380   1.621  0.00  0.00    +0.000 OA
ATOM     10  H   UNL     1      17.436   7.044   2.322  0.00  0.00    +0.000 HD
ENDBRANCH   6   9
TORSDOF 2
ENDMDL
MODEL 9
REMARK VINA RESULT:    -3.857     18.370     19.812
REMARK INTER + INTRA:          -4.246
REMARK INTER:                  -4.199
REMARK INTRA:                  -0.047
REMARK UNBOUND:                -0.051
REMARK  Name = 
REMARK  3 active torsions:
REMARK  status: ('A' for Active; 'I' for Inactive)
REMARK    1  A    between atoms: C_1  and  O_2
REMARK    2  A    between atoms: O_2  and  C_3
REMARK    3  A    between atoms: C_8  and  O_9
REMARK                            x       y       z     vdW  Elec       q    Type
REMARK                         _______ _______ _______ _____ _____    ______ ____
ROOT
ATOM      1  C   UNL     1      10.900   5.794   6.697  0.00  0.00    +0.000 A 
ATOM      2  C   UNL     1      11.473   5.076   7.745  0.00  0.00    +0.000 A 
ATOM      3  C   UNL     1      12.833   5.236   8.042  0.00  0.00    +0.000 A 
ATOM      4  C   UNL     1      13.622   6.112   7.294  0.00  0.00    +0.000 A 
ATOM      5  C   UNL     1      13.056   6.834   6.245  0.00  0.00    +0.000 A 
ATOM      6  C   UNL     1      11.707   6.668   5.958  0.00  0.00    +0.000 A 
ENDROOT
BRANCH   1   8
ATOM      7  C   UNL     1       8.607   5.801   7.324  0.00  0.00    +0.000 C 
ATOM      8  O   UNL     1       9.589   5.736   6.296  0.00  0.00    +0.000 OA
ENDBRANCH   1   8
BRANCH   6   9
ATOM      9  O   UNL     1      11.173   7.388   4.923  0.00  0.00    +0.000 OA
ATOM     10  H   UNL     1      11.016   8.277   5.294  0.00  0.00    +0.000 HD
ENDBRANCH   6   9
TORSDOF 2
ENDMDL
