MODEL 1
REMARK VINA RESULT:    -3.651      0.000      0.000
REMARK INTER + INTRA:          -4.011
REMARK INTER:                  -3.971
REMARK INTRA:                  -0.040
REMARK UNBOUND:                -0.040
REMARK  Name = 
REMARK  3 active torsions:
REMARK  status: ('A' for Active; 'I' for Inactive)
REMARK    1  A    between atoms: C_1  and  O_2
REMARK    2  A    between atoms: O_2  and  C_3
REMARK    3  A    between atoms: C_8  and  O_9
REMARK                            x       y       z     vdW  Elec       q    Type
REMARK                         _______ _______ _______ _____ _____    ______ ____
ROOT
ATOM      1  C   UNL     1       4.098   2.241   8.813  0.00  0.00    +0.000 A 
ATOM      2  C   UNL     1       4.836   1.113   8.458  0.00  0.00    +0.000 A 
ATOM      3  C   UNL     1       6.236   1.163   8.460  0.00  0.00    +0.000 A 
ATOM      4  C   UNL     1       6.902   2.338   8.814  0.00  0.00    +0.000 A 
ATOM      5  C   UNL     1       6.171   3.469   9.171  0.00  0.00    +0.000 A 
ATOM      6  C   UNL     1       4.784   3.410   9.166  0.00  0.00    +0.000 A 
ENDROOT
BRANCH   1   8
ATOM      7  C   UNL     1       2.007   1.462   7.996  0.00  0.00    +0.000 C 
ATOM      8  O   UNL     1       2.730   2.336   8.855  0.00  0.00    +0.000 OA
ENDBRANCH   1   8
BRANCH   6   9
ATOM      9  O   UNL     1       4.088   4.536   9.519  0.00  0.00    +0.000 OA
ATOM     10  H   UNL     1       3.423   4.224  10.163  0.00  0.00    +0.000 HD
ENDBRANCH   6   9
TORSDOF 2
ENDMDL
MODEL 2
REMARK VINA RESULT:    -3.605     12.408     13.342
REMARK INTER + INTRA:          -3.961
REMARK INTER:                  -3.964
REMARK INTRA:                   0.003
REMARK UNBOUND:                -0.040
REMARK  Name = 
REMARK  3 active torsions:
REMARK  status: ('A' for Active; 'I' for Inactive)
REMARK    1  A    between atoms: C_1  and  O_2
REMARK    2  A    between atoms: O_2  and  C_3
REMARK    3  A    between atoms: C_8  and  O_9
REMARK                            x       y       z     vdW  Elec       q    Type
REMARK                         _______ _______ _______ _____ _____    ______ ____
ROOT
ATOM      1  C   UNL     1       4.656  13.931   3.122  0.00  0.00    +0.000 A 
ATOM      2  C   UNL     1       4.360  14.070   4.477  0.00  0.00    +0.000 A 
ATOM      3  C   UNL     1       4.993  15.064   5.234  0.00  0.00    +0.000 A 
ATOM      4  C   UNL     1       5.922  15.921   4.640  0.00  0.00    +0.000 A 
ATOM      5  C   UNL     1       6.223  15.789   3.287  0.00  0.00    +0.000 A 
ATOM      6  C   UNL     1       5.590  14.800   2.544  0.00  0.00    +0.000 A 
ENDROOT
BRANCH   1   8
ATOM      7  C   UNL     1       4.721  11.719   2.256  0.00  0.00    +0.000 C 
ATOM      8  O   UNL     1       4.116  13.007   2.264  0.00  0.00    +0.000 OA
ENDBRANCH   1   8
BRANCH   6   9
ATOM      9  O   UNL     1       5.902  14.689   1.216  0.00  0.00    +0.000 OA
ATOM     10  H   UNL     1       6.409  15.498   1.011  0.00  0.00    +0.000 HD
ENDBRANCH   6   9
TORSDOF 2
ENDMDL
MODEL 3
REMARK VINA RESULT:    -3.443     11.011     12.175
REMARK INTER + INTRA:          -3.785
REMARK INTER:                  -3.748
REMARK INTRA:                  -0.038
REMARK UNBOUND:                -0.040
REMARK  Name = 
REMARK  3 active torsions:
REMARK  status: ('A' for Active; 'I' for Inactive)
REMARK    1  A    between atoms: C_1  and  O_2
REMARK    2  A    between atoms: O_2  and  C_3
REMARK    3  A    between atoms: C_8  and  O_9
REMARK                            x       y       z     vdW  Elec       q    Type
REMARK                         _______ _______ _______ _____ _____    ______ ____
ROOT
ATOM      1  C   UNL     1       3.018  14.058   7.154  0.00  0.00    +0.000 A 
ATOM      2  C   UNL     1       1.827  14.782   7.154  0.00  0.00    +0.000 A 
ATOM      3  C   UNL     1       1.004  14.775   8.286  0.00  0.00    +0.000 A 
ATOM      4  C   UNL     1       1.366  14.045   9.420  0.00  0.00    +0.000 A 
ATOM      5  C   UNL     1       2.555  13.319   9.428  0.00  0.00    +0.000 A 
ATOM      6  C   UNL     1       3.365  13.332   8.300  0.00  0.00    +0.000 A 
ENDROOT
BRANCH   1   8
ATOM      7  C   UNL     1       3.662  14.798   4.989  0.00  0.00    +0.000 C 
ATOM      8  O   UNL     1       3.917  13.974   6.120  0.00  0.00    +0.000 OA
ENDBRANCH   1   8
BRANCH   6   9
ATOM      9  O   UNL     1       4.529  12.611   8.332  0.00  0.00    +0.000 OA
ATOM     10  H   UNL     1       5.178  13.204   8.757  0.00  0.00    +0.000 HD
ENDBRANCH   6   9
TORSDOF 2
ENDMDL
MODEL 4
REMARK VINA RESULT:    -3.369     16.793     17.742
REMARK INTER + INTRA:          -3.705
REMARK INTER:                  -3.654
REMARK INTRA:                  -0.050
REMARK UNBOUND:                -0.040
REMARK  Name = 
REMARK  3 active torsions:
REMARK  status: ('A' for Active; 'I' for Inactive)
REMARK    1  A    between atoms: C_1  and  O_2
REMARK    2  A    between atoms: O_2  and  C_3
REMARK    3  A    between atoms: C_8  and  O_9
REMARK                            x       y       z     vdW  Elec       q    Type
REMARK                         _______ _______ _______ _____ _____    ______ ____
ROOT
ATOM      1  C   UNL     1       1.342  16.656  -1.290  0.00  0.00    +0.000 A 
ATOM      2  C   UNL     1       0.471  17.550  -0.668  0.00  0.00    +0.000 A 
ATOM      3  C   UNL     1      -0.770  17.104  -0.196  0.00  0.00    +0.000 A 
ATOM      4  C   UNL     1      -1.144  15.767  -0.344  0.00  0.00    +0.000 A 
ATOM      5  C   UNL     1      -0.279  14.868  -0.963  0.00  0.00    +0.000 A 
ATOM      6  C   UNL     1       0.949  15.319  -1.429  0.00  0.00    +0.000 A 
ENDROOT
BRANCH   1   8
ATOM      7  C   UNL     1       3.606  17.228  -0.851  0.00  0.00    +0.000 C 
ATOM      8  O   UNL     1       2.581  16.953  -1.798  0.00  0.00    +0.000 OA
ENDBRANCH   1   8
BRANCH   6   9
ATOM      9  O   UNL     1       1.782  14.417  -2.035  0.00  0.00    +0.000 OA
ATOM     10  H   UNL     1       2.113  14.879  -2.829  0.00  0.00    +0.000 HD
ENDBRANCH   6   9
TORSDOF 2
ENDMDL
MODEL 5
REMARK VINA RESULT:    -3.356     20.563     21.465
REMARK INTER + INTRA:          -3.690
REMARK INTER:                  -3.637
REMARK INTRA:                  -0.053
REMARK UNBOUND:                -0.040
REMARK  Name = 
REMARK  3 active torsions:
REMARK  status: ('A' for Active; 'I' for Inactive)
REMARK    1  A    between atoms: C_1  and  O_2
REMARK    2  A    between atoms: O_2  and  C_3
REMARK    3  A    between atoms: C_8  and  O_9
REMARK                            x       y       z     vdW  Elec       q    Type
REMARK                         _______ _______ _______ _____ _____    ______ ____
ROOT
ATOM      1  C   UNL     1       8.583  17.842  -4.803  0.00  0.00    +0.000 A 
ATOM      2  C   UNL     1       7.887  17.526  -3.636  0.00  0.00    +0.000 A 
ATOM      3  C   UNL     1       6.559  17.941  -3.480  0.00  0.00    +0.000 A 
ATOM      4  C   UNL     1       5.922  18.671  -4.485  0.00  0.00    +0.000 A 
ATOM      5  C   UNL     1       6.610  18.990  -5.654  0.00  0.00    +0.000 A 
ATOM      6  C   UNL     1       7.928  18.575  -5.800  0.00  0.00    +0.000 A 
ENDROOT
BRANCH   1   8
ATOM      7  C   UNL     1      10.886  18.092  -4.272  0.00  0.00    +0.000 C 
ATOM      8  O   UNL     1       9.881  17.504  -5.090  0.00  0.00    +0.000 OA
ENDBRANCH   1   8
BRANCH   6   9
ATOM      9  O   UNL     1       8.583  18.901  -6.957  0.00  0.00    +0.000 OA
ATOM     10  H   UNL     1       9.531  18.813  -6.739  0.00  0.00    +0.000 HD
ENDBRANCH   6   9
TORSDOF 2
ENDMDL
MODEL 6
REMARK VINA RESULT:    -3.338     13.289     14.296
REMARK INTER + INTRA:          -3.671
REMARK INTER:                  -3.624
REMARK INTRA:                  -0.047
REMARK UNBOUND:                -0.040
REMARK  Name = 
REMARK  3 active torsions:
REMARK  status: ('A' for Active; 'I' for Inactive)
REMARK    1  A    between atoms: C_1  and  O_2
REMARK    2  A    between atoms: O_2  and  C_3
REMARK    3  A    between atoms: C_8  and  O_9
REMARK                            x       y       z     vdW  Elec       q    Type
REMARK                         _______ _______ _______ _____ _____    ______ ____
ROOT
ATOM      1  C   UNL     1       4.570  15.437   2.240  0.00  0.00    +0.000 A 
ATOM      2  C   UNL     1       3.888  16.126   3.242  0.00  0.00    +0.000 A 
ATOM      3  C   UNL     1       3.832  15.600   4.539  0.00  0.00    +0.000 A 
ATOM      4  C   UNL     1       4.455  14.387   4.838  0.00  0.00    +0.000 A 
ATOM      5  C   UNL     1       5.138  13.693   3.842  0.00  0.00    +0.000 A 
ATOM      6  C   UNL     1       5.189  14.222   2.559  0.00  0.00    +0.000 A 
ENDROOT
BRANCH   1   8
ATOM      7  C   UNL     1       3.526  16.289   0.283  0.00  0.00    +0.000 C 
ATOM      8  O   UNL     1       4.706  15.831   0.933  0.00  0.00    +0.000 OA
ENDBRANCH   1   8
BRANCH   6   9
ATOM      9  O   UNL     1       5.866  13.522   1.597  0.00  0.00    +0.000 OA
ATOM     10  H   UNL     1       5.218  13.397   0.878  0.00  0.00    +0.000 HD
ENDBRANCH   6   9
TORSDOF 2
ENDMDL
MODEL 7
REMARK VINA RESULT:    -3.304     10.983     11.987
REMARK INTER + INTRA:          -3.634
REMARK INTER:                  -3.597
REMARK INTRA:                  -0.038
REMARK UNBOUND:                -0.040
REMARK  Name = 
REMARK  3 active torsions:
REMARK  status: ('A' for Active; 'I' for Inactive)
REMARK    1  A    between atoms: C_1  and  O_2
REMARK    2  A    between atoms: O_2  and  C_3
REMARK    3  A    between atoms: C_8  and  O_9
REMARK                            x       y       z     vdW  Elec       q    Type
REMARK                         _______ _______ _______ _____ _____    ______ ____
ROOT
ATOM      1  C   UNL     1       2.606  14.264   7.571  0.00  0.00    +0.000 A 
ATOM      2  C   UNL     1       3.740  13.453   7.555  0.00  0.00    +0.000 A 
ATOM      3  C   UNL     1       4.036  12.643   8.659  0.00  0.00    +0.000 A 
ATOM      4  C   UNL     1       3.203  12.641   9.779  0.00  0.00    +0.000 A 
ATOM      5  C   UNL     1       2.068  13.448   9.802  0.00  0.00    +0.000 A 
ATOM      6  C   UNL     1       1.782  14.249   8.703  0.00  0.00    +0.000 A 
ENDROOT
BRANCH   1   8
ATOM      7  C   UNL     1       3.097  15.282   5.480  0.00  0.00    +0.000 C 
ATOM      8  O   UNL     1       2.195  15.103   6.566  0.00  0.00    +0.000 OA
ENDBRANCH   1   8
BRANCH   6   9
ATOM      9  O   UNL     1       0.661  15.033   8.749  0.00  0.00    +0.000 OA
ATOM     10  H   UNL     1       0.085  14.685   8.042  0.00  0.00    +0.000 HD
ENDBRANCH   6   9
TORSDOF 2
ENDMDL
MODEL 8
REMARK VINA RESULT:    -3.283     13.479     14.428
REMARK INTER + INTRA:          -3.612
REMARK INTER:                  -3.560
REMARK INTRA:                  -0.052
REMARK UNBOUND:                -0.040
REMARK  Name = 
REMARK  3 active torsions:
REMARK  status: ('A' for Active; 'I' for Inactive)
REMARK    1  A    between atoms: C_1  and  O_2
REMARK    2  A    between atoms: O_2  and  C_3
REMARK    3  A    between atoms: C_8  and  O_9
REMARK                            x       y       z     vdW  Elec       q    Type
REMARK                         _______ _______ _______ _____ _____    ______ ____
ROOT
ATOM      1  C   UNL     1       4.773  14.861   2.910  0.00  0.00    +0.000 A 
ATOM      2  C   UNL     1       4.028  15.529   1.939  0.00  0.00    +0.000 A 
ATOM      3  C   UNL     1       4.350  16.849   1.596  0.00  0.00    +0.000 A 
ATOM      4  C   UNL     1       5.413  17.504   2.220  0.00  0.00    +0.000 A 
ATOM      5  C   UNL     1       6.162  16.843   3.191  0.00  0.00    +0.000 A 
ATOM      6  C   UNL     1       5.836  15.534   3.526  0.00  0.00    +0.000 A 
ENDROOT
BRANCH   1   8
ATOM      7  C   UNL     1       4.667  12.552   2.361  0.00  0.00    +0.000 C 
ATOM      8  O   UNL     1       4.572  13.575   3.344  0.00  0.00    +0.000 OA
ENDBRANCH   1   8
BRANCH   6   9
ATOM      9  O   UNL     1       6.586  14.905   4.483  0.00  0.00    +0.000 OA
ATOM     10  H   UNL     1       7.445  14.733   4.052  0.00  0.00    +0.000 HD
ENDBRANCH   6   9
TORSDOF 2
ENDMDL
MODEL 9
REMARK VINA RESULT:    -2.209     16.918     17.486
REMARK INTER + INTRA:          -2.443
REMARK INTER:                  -2.391
REMARK INTRA:                  -0.053
REMARK UNBOUND:                -0.040
REMARK  Name = 
REMARK  3 active torsions:
REMARK  status: ('A' for Active; 'I' for Inactive)
REMARK    1  A    between atoms: C_1  and  O_2
REMARK    2  A    between atoms: O_2  and  C_3
REMARK    3  A    between atoms: C_8  and  O_9
REMARK                            x       y       z     vdW  Elec       q    Type
REMARK                         _______ _______ _______ _____ _____    ______ ____
ROOT
ATOM      1  C   UNL     1      -0.148  15.562  -0.903  0.00  0.00    +0.000 A 
ATOM      2  C   UNL     1      -0.669  16.727  -0.341  0.00  0.00    +0.000 A 
ATOM      3  C   UNL     1       0.095  17.900  -0.328  0.00  0.00    +0.000 A 
ATOM      4  C   UNL     1       1.380  17.914  -0.873  0.00  0.00    +0.000 A 
ATOM      5  C   UNL     1       1.908  16.755  -1.437  0.00  0.00    +0.000 A 
ATOM      6  C   UNL     1       1.143  15.595  -1.446  0.00  0.00    +0.000 A 
ENDROOT
BRANCH   1   8
ATOM      7  C   UNL     1      -1.941  14.289  -1.805  0.00  0.00    +0.000 C 
ATOM      8  O   UNL     1      -0.780  14.347  -0.985  0.00  0.00    +0.000 OA
ENDBRANCH   1   8
BRANCH   6   9
ATOM      9  O   UNL     1       1.683  14.468  -2.005  0.00  0.00    +0.000 OA
ATOM     10  H   UNL     1       1.210  13.728  -1.579  0.00  0.00    +0.000 HD
ENDBRANCH   6   9
TORSDOF 2
ENDMDL
