MODEL 1
REMARK VINA RESULT:    -4.121      0.000      0.000
REMARK INTER + INTRA:          -6.238
REMARK INTER:                  -5.567
REMARK INTRA:                  -0.671
REMARK UNBOUND:                -0.671
REMARK  Name = 
REMARK  10 active torsions:
REMARK  status: ('A' for Active; 'I' for Inactive)
REMARK    1  A    between atoms: C_1  and  C_2
REMARK    2  A    between atoms: C_5  and  N_8
REMARK    3  A    between atoms: N_8  and  C_9
REMARK    4  A    between atoms: N_8  and  C_13
REMARK    5  A    between atoms: C_9  and  C_10
REMARK    6  A    between atoms: C_10  and  C_11
REMARK    7  A    between atoms: C_10  and  O_12
REMARK    8  A    between atoms: C_13  and  C_14
REMARK    9  A    between atoms: C_14  and  C_15
REMARK   10  A    between atoms: C_14  and  O_16
REMARK                            x       y       z     vdW  Elec       q    Type
REMARK                         _______ _______ _______ _____ _____    ______ ____
ROOT
ATOM      1  N   UNL     1      -5.278  14.905 -12.876  0.00  0.00    +0.000 N 
ENDROOT
BRANCH   1   6
ATOM      2  C   UNL     1      -2.135  19.347 -14.804  0.00  0.00    +0.000 C 
ATOM      3  C   UNL     1      -2.971  18.208 -14.306  0.00  0.00    +0.000 A 
ATOM      4  C   UNL     1      -3.206  18.035 -12.946  0.00  0.00    +0.000 A 
ATOM      5  C   UNL     1      -3.965  16.948 -12.483  0.00  0.00    +0.000 A 
ATOM      6  C   UNL     1      -4.505  15.975 -13.343  0.00  0.00    +0.000 A 
ATOM      7  C   UNL     1      -4.250  16.183 -14.711  0.00  0.00    +0.000 A 
ATOM      8  C   UNL     1      -3.494  17.266 -15.188  0.00  0.00    +0.000 A 
ENDBRANCH   1   6
BRANCH   1   9
ATOM      9  C   UNL     1      -6.106  15.062 -11.656  0.00  0.00    +0.000 C 
BRANCH   9  10
ATOM     10  C   UNL     1      -5.449  14.440 -10.400  0.00  0.00    +0.000 C 
ATOM     11  C   UNL     1      -5.380  15.452  -9.263  0.00  0.00    +0.000 C 
BRANCH  10  12
ATOM     12  O   UNL     1      -6.193  13.304  -9.939  0.00  0.00    +0.000 OA
ATOM     13  H   UNL     1      -5.578  12.705  -9.484  0.00  0.00    +0.000 HD
ENDBRANCH  10  12
ENDBRANCH   9  10
ENDBRANCH   1   9
BRANCH   1  14
ATOM     14  C   UNL     1      -4.936  13.501 -13.221  0.00  0.00    +0.000 C 
BRANCH  14  15
ATOM     15  C   UNL     1      -6.196  12.638 -13.474  0.00  0.00    +0.000 C 
ATOM     16  C   UNL     1      -6.268  12.083 -14.891  0.00  0.00    +0.000 C 
BRANCH  15  17
ATOM     17  O   UNL     1      -6.273  11.540 -12.565  0.00  0.00    +0.000 OA
ATOM     18  H   UNL     1      -5.459  11.022 -12.724  0.00  0.00    +0.000 HD
ENDBRANCH  15  17
ENDBRANCH  14  15
ENDBRANCH   1  14
TORSDOF 7
ENDMDL
MODEL 2
REMARK VINA RESULT:    -3.952      1.729      3.596
REMARK INTER + INTRA:          -6.010
REMARK INTER:                  -5.175
REMARK INTRA:                  -0.835
REMARK UNBOUND:                -0.671
REMARK  Name = 
REMARK  10 active torsions:
REMARK  status: ('A' for Active; 'I' for Inactive)
REMARK    1  A    between atoms: C_1  and  C_2
REMARK    2  A    between atoms: C_5  and  N_8
REMARK    3  A    between atoms: N_8  and  C_9
REMARK    4  A    between atoms: N_8  and  C_13
REMARK    5  A    between atoms: C_9  and  C_10
REMARK    6  A    between atoms: C_10  and  C_11
REMARK    7  A    between atoms: C_10  and  O_12
REMARK    8  A    between atoms: C_13  and  C_14
REMARK    9  A    between atoms: C_14  and  C_15
REMARK   10  A    between atoms: C_14  and  O_16
REMARK                            x       y       z     vdW  Elec       q    Type
REMARK                         _______ _______ _______ _____ _____    ______ ____
ROOT
ATOM      1  N   UNL     1      -5.632  15.812 -12.061  0.00  0.00    +0.000 N 
ENDROOT
BRANCH   1   6
ATOM      2  C   UNL     1      -3.477  20.722 -14.200  0.00  0.00    +0.000 C 
ATOM      3  C   UNL     1      -4.035  19.437 -13.668  0.00  0.00    +0.000 A 
ATOM      4  C   UNL     1      -5.408  19.226 -13.608  0.00  0.00    +0.000 A 
ATOM      5  C   UNL     1      -5.926  18.032 -13.080  0.00  0.00    +0.000 A 
ATOM      6  C   UNL     1      -5.109  17.008 -12.568  0.00  0.00    +0.000 A 
ATOM      7  C   UNL     1      -3.726  17.255 -12.647  0.00  0.00    +0.000 A 
ATOM      8  C   UNL     1      -3.195  18.443 -13.174  0.00  0.00    +0.000 A 
ENDBRANCH   1   6
BRANCH   1   9
ATOM      9  C   UNL     1      -6.084  14.746 -12.987  0.00  0.00    +0.000 C 
BRANCH   9  10
ATOM     10  C   UNL     1      -4.958  13.747 -13.349  0.00  0.00    +0.000 C 
ATOM     11  C   UNL     1      -4.338  14.090 -14.699  0.00  0.00    +0.000 C 
BRANCH  10  12
ATOM     12  O   UNL     1      -3.915  13.768 -12.364  0.00  0.00    +0.000 OA
ATOM     13  H   UNL     1      -3.921  14.641 -11.937  0.00  0.00    +0.000 HD
ENDBRANCH  10  12
ENDBRANCH   9  10
ENDBRANCH   1   9
BRANCH   1  14
ATOM     14  C   UNL     1      -6.221  15.746 -10.699  0.00  0.00    +0.000 C 
BRANCH  14  15
ATOM     15  C   UNL     1      -5.138  15.654  -9.597  0.00  0.00    +0.000 C 
ATOM     16  C   UNL     1      -5.695  15.844  -8.191  0.00  0.00    +0.000 C 
BRANCH  15  17
ATOM     17  O   UNL     1      -4.453  14.403  -9.635  0.00  0.00    +0.000 OA
ATOM     18  H   UNL     1      -3.753  14.518 -10.310  0.00  0.00    +0.000 HD
ENDBRANCH  15  17
ENDBRANCH  14  15
ENDBRANCH   1  14
TORSDOF 7
ENDMDL
MODEL 3
REMARK VINA RESULT:    -3.932      1.941      4.294
REMARK INTER + INTRA:          -5.983
REMARK INTER:                  -5.405
REMARK INTRA:                  -0.577
REMARK UNBOUND:                -0.671
REMARK  Name = 
REMARK  10 active torsions:
REMARK  status: ('A' for Active; 'I' for Inactive)
REMARK    1  A    between atoms: C_1  and  C_2
REMARK    2  A    between atoms: C_5  and  N_8
REMARK    3  A    between atoms: N_8  and  C_9
REMARK    4  A    between atoms: N_8  and  C_13
REMARK    5  A    between atoms: C_9  and  C_10
REMARK    6  A    between atoms: C_10  and  C_11
REMARK    7  A    between atoms: C_10  and  O_12
REMARK    8  A    between atoms: C_13  and  C_14
REMARK    9  A    between atoms: C_14  and  C_15
REMARK   10  A    between atoms: C_14  and  O_16
REMARK                            x       y       z     vdW  Elec       q    Type
REMARK                         _______ _______ _______ _____ _____    ______ ____
ROOT
ATOM      1  N   UNL     1      -5.369  14.777 -13.551  0.00  0.00    +0.000 N 
ENDROOT
BRANCH   1   6
ATOM      2  C   UNL     1      -5.090  15.909  -7.897  0.00  0.00    +0.000 C 
ATOM      3  C   UNL     1      -5.172  15.593  -9.359  0.00  0.00    +0.000 A 
ATOM      4  C   UNL     1      -4.094  15.021 -10.028  0.00  0.00    +0.000 A 
ATOM      5  C   UNL     1      -4.166  14.754 -11.405  0.00  0.00    +0.000 A 
ATOM      6  C   UNL     1      -5.297  15.063 -12.182  0.00  0.00    +0.000 A 
ATOM      7  C   UNL     1      -6.368  15.638 -11.473  0.00  0.00    +0.000 A 
ATOM      8  C   UNL     1      -6.310  15.908 -10.096  0.00  0.00    +0.000 A 
ENDBRANCH   1   6
BRANCH   1   9
ATOM      9  C   UNL     1      -6.210  15.612 -14.442  0.00  0.00    +0.000 C 
BRANCH   9  10
ATOM     10  C   UNL     1      -5.417  16.761 -15.111  0.00  0.00    +0.000 C 
ATOM     11  C   UNL     1      -5.685  18.088 -14.411  0.00  0.00    +0.000 C 
BRANCH  10  12
ATOM     12  O   UNL     1      -4.006  16.510 -15.062  0.00  0.00    +0.000 OA
ATOM     13  H   UNL     1      -3.630  16.731 -15.931  0.00  0.00    +0.000 HD
ENDBRANCH  10  12
ENDBRANCH   9  10
ENDBRANCH   1   9
BRANCH   1  14
ATOM     14  C   UNL     1      -5.071  13.417 -14.069  0.00  0.00    +0.000 C 
BRANCH  14  15
ATOM     15  C   UNL     1      -6.206  12.411 -13.760  0.00  0.00    +0.000 C 
ATOM     16  C   UNL     1      -6.579  11.542 -14.954  0.00  0.00    +0.000 C 
BRANCH  15  17
ATOM     17  O   UNL     1      -5.866  11.549 -12.675  0.00  0.00    +0.000 OA
ATOM     18  H   UNL     1      -4.905  11.389 -12.771  0.00  0.00    +0.000 HD
ENDBRANCH  15  17
ENDBRANCH  14  15
ENDBRANCH   1  14
TORSDOF 7
ENDMDL
MODEL 4
REMARK VINA RESULT:    -3.897     20.629     22.392
REMARK INTER + INTRA:          -5.934
REMARK INTER:                  -5.366
REMARK INTRA:                  -0.569
REMARK UNBOUND:                -0.671
REMARK  Name = 
REMARK  10 active torsions:
REMARK  status: ('A' for Active; 'I' for Inactive)
REMARK    1  A    between atoms: C_1  and  C_2
REMARK    2  A    between atoms: C_5  and  N_8
REMARK    3  A    between atoms: N_8  and  C_9
REMARK    4  A    between atoms: N_8  and  C_13
REMARK    5  A    between atoms: C_9  and  C_10
REMARK    6  A    between atoms: C_10  and  C_11
REMARK    7  A    between atoms: C_10  and  O_12
REMARK    8  A    between atoms: C_13  and  C_14
REMARK    9  A    between atoms: C_14  and  C_15
REMARK   10  A    between atoms: C_14  and  O_16
REMARK                            x       y       z     vdW  Elec       q    Type
REMARK                         _______ _______ _______ _____ _____    ______ ____
ROOT
ATOM      1  N   UNL     1       7.545  21.885   4.325  0.00  0.00    +0.000 N 
ENDROOT
BRANCH   1   6
ATOM      2  C   UNL     1      11.924  24.203   1.361  0.00  0.00    +0.000 C 
ATOM      3  C   UNL     1      10.772  23.617   2.119  0.00  0.00    +0.000 A 
ATOM      4  C   UNL     1      10.422  24.102   3.375  0.00  0.00    +0.000 A 
ATOM      5  C   UNL     1       9.360  23.530   4.094  0.00  0.00    +0.000 A 
ATOM      6  C   UNL     1       8.615  22.439   3.611  0.00  0.00    +0.000 A 
ATOM      7  C   UNL     1       8.995  21.976   2.338  0.00  0.00    +0.000 A 
ATOM      8  C   UNL     1      10.053  22.541   1.607  0.00  0.00    +0.000 A 
ENDBRANCH   1   6
BRANCH   1   9
ATOM      9  C   UNL     1       7.754  21.373   5.700  0.00  0.00    +0.000 C 
BRANCH   9  10
ATOM     10  C   UNL     1       8.788  20.222   5.761  0.00  0.00    +0.000 C 
ATOM     11  C   UNL     1       9.949  20.581   6.682  0.00  0.00    +0.000 C 
BRANCH  10  12
ATOM     12  O   UNL     1       8.187  19.016   6.253  0.00  0.00    +0.000 OA
ATOM     13  H   UNL     1       7.977  18.452   5.490  0.00  0.00    +0.000 HD
ENDBRANCH  10  12
ENDBRANCH   9  10
ENDBRANCH   1   9
BRANCH   1  14
ATOM     14  C   UNL     1       6.360  21.326   3.624  0.00  0.00    +0.000 C 
BRANCH  14  15
ATOM     15  C   UNL     1       5.113  22.229   3.772  0.00  0.00    +0.000 C 
ATOM     16  C   UNL     1       4.802  23.034   2.516  0.00  0.00    +0.000 C 
BRANCH  15  17
ATOM     17  O   UNL     1       3.951  21.473   4.110  0.00  0.00    +0.000 OA
ATOM     18  H   UNL     1       4.170  20.551   3.865  0.00  0.00    +0.000 HD
ENDBRANCH  15  17
ENDBRANCH  14  15
ENDBRANCH   1  14
TORSDOF 7
ENDMDL
MODEL 5
REMARK VINA RESULT:    -3.793      3.372      5.728
REMARK INTER + INTRA:          -5.794
REMARK INTER:                  -5.397
REMARK INTRA:                  -0.397
REMARK UNBOUND:                -0.671
REMARK  Name = 
REMARK  10 active torsions:
REMARK  status: ('A' for Active; 'I' for Inactive)
REMARK    1  A    between atoms: C_1  and  C_2
REMARK    2  A    between atoms: C_5  and  N_8
REMARK    3  A    between atoms: N_8  and  C_9
REMARK    4  A    between atoms: N_8  and  C_13
REMARK    5  A    between atoms: C_9  and  C_10
REMARK    6  A    between atoms: C_10  and  C_11
REMARK    7  A    between atoms: C_10  and  O_12
REMARK    8  A    between atoms: C_13  and  C_14
REMARK    9  A    between atoms: C_14  and  C_15
REMARK   10  A    between atoms: C_14  and  O_16
REMARK                            x       y       z     vdW  Elec       q    Type
REMARK                         _______ _______ _______ _____ _____    ______ ____
ROOT
ATOM      1  N   UNL     1      -4.019  17.435 -14.319  0.00  0.00    +0.000 N 
ENDROOT
BRANCH   1   6
ATOM      2  C   UNL     1      -4.472  12.945 -10.718  0.00  0.00    +0.000 C 
ATOM      3  C   UNL     1      -4.330  14.107 -11.653  0.00  0.00    +0.000 A 
ATOM      4  C   UNL     1      -4.161  15.399 -11.167  0.00  0.00    +0.000 A 
ATOM      5  C   UNL     1      -4.059  16.488 -12.048  0.00  0.00    +0.000 A 
ATOM      6  C   UNL     1      -4.142  16.347 -13.445  0.00  0.00    +0.000 A 
ATOM      7  C   UNL     1      -4.310  15.027 -13.901  0.00  0.00    +0.000 A 
ATOM      8  C   UNL     1      -4.412  13.929 -13.031  0.00  0.00    +0.000 A 
ENDBRANCH   1   6
BRANCH   1   9
ATOM      9  C   UNL     1      -5.230  18.154 -14.786  0.00  0.00    +0.000 C 
BRANCH   9  10
ATOM     10  C   UNL     1      -5.581  19.375 -13.901  0.00  0.00    +0.000 C 
ATOM     11  C   UNL     1      -6.127  20.520 -14.746  0.00  0.00    +0.000 C 
BRANCH  10  12
ATOM     12  O   UNL     1      -6.572  19.033 -12.922  0.00  0.00    +0.000 OA
ATOM     13  H   UNL     1      -7.138  18.337 -13.297  0.00  0.00    +0.000 HD
ENDBRANCH  10  12
ENDBRANCH   9  10
ENDBRANCH   1   9
BRANCH   1  14
ATOM     14  C   UNL     1      -2.826  17.592 -15.189  0.00  0.00    +0.000 C 
BRANCH  14  15
ATOM     15  C   UNL     1      -1.932  18.776 -14.746  0.00  0.00    +0.000 C 
ATOM     16  C   UNL     1      -1.936  18.999 -13.239  0.00  0.00    +0.000 C 
BRANCH  15  17
ATOM     17  O   UNL     1      -0.579  18.599 -15.163  0.00  0.00    +0.000 OA
ATOM     18  H   UNL     1      -0.631  18.429 -16.125  0.00  0.00    +0.000 HD
ENDBRANCH  15  17
ENDBRANCH  14  15
ENDBRANCH   1  14
TORSDOF 7
ENDMDL
MODEL 6
REMARK VINA RESULT:    -3.785     20.349     22.456
REMARK INTER + INTRA:          -5.784
REMARK INTER:                  -5.206
REMARK INTRA:                  -0.578
REMARK UNBOUND:                -0.671
REMARK  Name = 
REMARK  10 active torsions:
REMARK  status: ('A' for Active; 'I' for Inactive)
REMARK    1  A    between atoms: C_1  and  C_2
REMARK    2  A    between atoms: C_5  and  N_8
REMARK    3  A    between atoms: N_8  and  C_9
REMARK    4  A    between atoms: N_8  and  C_13
REMARK    5  A    between atoms: C_9  and  C_10
REMARK    6  A    between atoms: C_10  and  C_11
REMARK    7  A    between atoms: C_10  and  O_12
REMARK    8  A    between atoms: C_13  and  C_14
REMARK    9  A    between atoms: C_14  and  C_15
REMARK   10  A    between atoms: C_14  and  O_16
REMARK                            x       y       z     vdW  Elec       q    Type
REMARK                         _______ _______ _______ _____ _____    ______ ____
ROOT
ATOM      1  N   UNL     1       7.979  22.492   4.707  0.00  0.00    +0.000 N 
ENDROOT
BRANCH   1   6
ATOM      2  C   UNL     1       3.282  23.064   1.399  0.00  0.00    +0.000 C 
ATOM      3  C   UNL     1       4.491  22.932   2.273  0.00  0.00    +0.000 A 
ATOM      4  C   UNL     1       5.602  23.747   2.085  0.00  0.00    +0.000 A 
ATOM      5  C   UNL     1       6.744  23.598   2.888  0.00  0.00    +0.000 A 
ATOM      6  C   UNL     1       6.844  22.622   3.896  0.00  0.00    +0.000 A 
ATOM      7  C   UNL     1       5.701  21.817   4.060  0.00  0.00    +0.000 A 
ATOM      8  C   UNL     1       4.552  21.957   3.265  0.00  0.00    +0.000 A 
ENDBRANCH   1   6
BRANCH   1   9
ATOM      9  C   UNL     1       7.930  21.647   5.924  0.00  0.00    +0.000 C 
BRANCH   9  10
ATOM     10  C   UNL     1       8.662  20.295   5.745  0.00  0.00    +0.000 C 
ATOM     11  C   UNL     1       9.697  20.086   6.845  0.00  0.00    +0.000 C 
BRANCH  10  12
ATOM     12  O   UNL     1       7.738  19.199   5.792  0.00  0.00    +0.000 OA
ATOM     13  H   UNL     1       7.344  19.099   4.909  0.00  0.00    +0.000 HD
ENDBRANCH  10  12
ENDBRANCH   9  10
ENDBRANCH   1   9
BRANCH   1  14
ATOM     14  C   UNL     1       9.046  23.525   4.706  0.00  0.00    +0.000 C 
BRANCH  14  15
ATOM     15  C   UNL     1      10.285  23.084   3.889  0.00  0.00    +0.000 C 
ATOM     16  C   UNL     1      11.453  22.641   4.763  0.00  0.00    +0.000 C 
BRANCH  15  17
ATOM     17  O   UNL     1       9.974  22.017   2.994  0.00  0.00    +0.000 OA
ATOM     18  H   UNL     1      10.489  22.209   2.184  0.00  0.00    +0.000 HD
ENDBRANCH  15  17
ENDBRANCH  14  15
ENDBRANCH   1  14
TORSDOF 7
ENDMDL
MODEL 7
REMARK VINA RESULT:    -3.711     20.648     22.702
REMARK INTER + INTRA:          -5.684
REMARK INTER:                  -5.005
REMARK INTRA:                  -0.679
REMARK UNBOUND:                -0.671
REMARK  Name = 
REMARK  10 active torsions:
REMARK  status: ('A' for Active; 'I' for Inactive)
REMARK    1  A    between atoms: C_1  and  C_2
REMARK    2  A    between atoms: C_5  and  N_8
REMARK    3  A    between atoms: N_8  and  C_9
REMARK    4  A    between atoms: N_8  and  C_13
REMARK    5  A    between atoms: C_9  and  C_10
REMARK    6  A    between atoms: C_10  and  C_11
REMARK    7  A    between atoms: C_10  and  O_12
REMARK    8  A    between atoms: C_13  and  C_14
REMARK    9  A    between atoms: C_14  and  C_15
REMARK   10  A    between atoms: C_14  and  O_16
REMARK                            x       y       z     vdW  Elec       q    Type
REMARK                         _______ _______ _______ _____ _____    ______ ____
ROOT
ATOM      1  N   UNL     1       8.333  22.152   4.969  0.00  0.00    +0.000 N 
ENDROOT
BRANCH   1   6
ATOM      2  C   UNL     1       3.612  23.032   1.765  0.00  0.00    +0.000 C 
ATOM      3  C   UNL     1       4.827  22.819   2.614  0.00  0.00    +0.000 A 
ATOM      4  C   UNL     1       5.950  23.627   2.470  0.00  0.00    +0.000 A 
ATOM      5  C   UNL     1       7.098  23.403   3.247  0.00  0.00    +0.000 A 
ATOM      6  C   UNL     1       7.192  22.357   4.183  0.00  0.00    +0.000 A 
ATOM      7  C   UNL     1       6.037  21.562   4.304  0.00  0.00    +0.000 A 
ATOM      8  C   UNL     1       4.882  21.776   3.534  0.00  0.00    +0.000 A 
ENDBRANCH   1   6
BRANCH   1   9
ATOM      9  C   UNL     1       8.197  21.885   6.421  0.00  0.00    +0.000 C 
BRANCH   9  10
ATOM     10  C   UNL     1       8.802  20.522   6.840  0.00  0.00    +0.000 C 
ATOM     11  C   UNL     1       8.457  19.438   5.827  0.00  0.00    +0.000 C 
BRANCH  10  12
ATOM     12  O   UNL     1      10.231  20.602   6.936  0.00  0.00    +0.000 OA
ATOM     13  H   UNL     1      10.499  21.508   6.706  0.00  0.00    +0.000 HD
ENDBRANCH  10  12
ENDBRANCH   9  10
ENDBRANCH   1   9
BRANCH   1  14
ATOM     14  C   UNL     1       9.658  22.677   4.552  0.00  0.00    +0.000 C 
BRANCH  14  15
ATOM     15  C   UNL     1      10.396  21.708   3.597  0.00  0.00    +0.000 C 
ATOM     16  C   UNL     1      11.162  22.424   2.491  0.00  0.00    +0.000 C 
BRANCH  15  17
ATOM     17  O   UNL     1      11.314  20.872   4.300  0.00  0.00    +0.000 OA
ATOM     18  H   UNL     1      11.598  20.202   3.646  0.00  0.00    +0.000 HD
ENDBRANCH  15  17
ENDBRANCH  14  15
ENDBRANCH   1  14
TORSDOF 7
ENDMDL
MODEL 8
REMARK VINA RESULT:    -3.688     20.193     22.325
REMARK INTER + INTRA:          -5.652
REMARK INTER:                  -5.377
REMARK INTRA:                  -0.275
REMARK UNBOUND:                -0.671
REMARK  Name = 
REMARK  10 active torsions:
REMARK  status: ('A' for Active; 'I' for Inactive)
REMARK    1  A    between atoms: C_1  and  C_2
REMARK    2  A    between atoms: C_5  and  N_8
REMARK    3  A    between atoms: N_8  and  C_9
REMARK    4  A    between atoms: N_8  and  C_13
REMARK    5  A    between atoms: C_9  and  C_10
REMARK    6  A    between atoms: C_10  and  C_11
REMARK    7  A    between atoms: C_10  and  O_12
REMARK    8  A    between atoms: C_13  and  C_14
REMARK    9  A    between atoms: C_14  and  C_15
REMARK   10  A    between atoms: C_14  and  O_16
REMARK                            x       y       z     vdW  Elec       q    Type
REMARK                         _______ _______ _______ _____ _____    ______ ____
ROOT
ATOM      1  N   UNL     1       7.973  22.603   4.866  0.00  0.00    +0.000 N 
ENDROOT
BRANCH   1   6
ATOM      2  C   UNL     1       3.322  23.041   1.474  0.00  0.00    +0.000 C 
ATOM      3  C   UNL     1       4.517  22.940   2.372  0.00  0.00    +0.000 A 
ATOM      4  C   UNL     1       5.539  23.881   2.309  0.00  0.00    +0.000 A 
ATOM      5  C   UNL     1       6.671  23.765   3.132  0.00  0.00    +0.000 A 
ATOM      6  C   UNL     1       6.850  22.701   4.035  0.00  0.00    +0.000 A 
ATOM      7  C   UNL     1       5.797  21.770   4.073  0.00  0.00    +0.000 A 
ATOM      8  C   UNL     1       4.658  21.875   3.257  0.00  0.00    +0.000 A 
ENDBRANCH   1   6
BRANCH   1   9
ATOM      9  C   UNL     1       9.319  22.932   4.340  0.00  0.00    +0.000 C 
BRANCH   9  10
ATOM     10  C   UNL     1       9.776  21.970   3.216  0.00  0.00    +0.000 C 
ATOM     11  C   UNL     1       9.891  22.703   1.885  0.00  0.00    +0.000 C 
BRANCH  10  12
ATOM     12  O   UNL     1      11.055  21.395   3.519  0.00  0.00    +0.000 OA
ATOM     13  H   UNL     1      11.397  20.979   2.710  0.00  0.00    +0.000 HD
ENDBRANCH  10  12
ENDBRANCH   9  10
ENDBRANCH   1   9
BRANCH   1  14
ATOM     14  C   UNL     1       7.968  21.722   6.062  0.00  0.00    +0.000 C 
BRANCH  14  15
ATOM     15  C   UNL     1       8.653  20.361   5.788  0.00  0.00    +0.000 C 
ATOM     16  C   UNL     1       9.762  20.036   6.782  0.00  0.00    +0.000 C 
BRANCH  15  17
ATOM     17  O   UNL     1       7.715  19.286   5.807  0.00  0.00    +0.000 OA
ATOM     18  H   UNL     1       7.052  19.540   6.480  0.00  0.00    +0.000 HD
ENDBRANCH  15  17
ENDBRANCH  14  15
ENDBRANCH   1  14
TORSDOF 7
ENDMDL
MODEL 9
REMARK VINA RESULT:    -3.686     20.260     22.124
REMARK INTER + INTRA:          -5.650
REMARK INTER:                  -5.062
REMARK INTRA:                  -0.589
REMARK UNBOUND:                -0.671
REMARK  Name = 
REMARK  10 active torsions:
REMARK  status: ('A' for Active; 'I' for Inactive)
REMARK    1  A    between atoms: C_1  and  C_2
REMARK    2  A    between atoms: C_5  and  N_8
REMARK    3  A    between atoms: N_8  and  C_9
REMARK    4  A    between atoms: N_8  and  C_13
REMARK    5  A    between atoms: C_9  and  C_10
REMARK    6  A    between atoms: C_10  and  C_11
REMARK    7  A    between atoms: C_10  and  O_12
REMARK    8  A    between atoms: C_13  and  C_14
REMARK    9  A    between atoms: C_14  and  C_15
REMARK   10  A    between atoms: C_14  and  O_16
REMARK                            x       y       z     vdW  Elec       q    Type
REMARK                         _______ _______ _______ _____ _____    ______ ____
ROOT
ATOM      1  N   UNL     1       7.487  22.066   3.937  0.00  0.00    +0.000 N 
ENDROOT
BRANCH   1   6
ATOM      2  C   UNL     1      11.131  24.048  -0.078  0.00  0.00    +0.000 C 
ATOM      3  C   UNL     1      10.174  23.520   0.946  0.00  0.00    +0.000 A 
ATOM      4  C   UNL     1       9.003  24.206   1.251  0.00  0.00    +0.000 A 
ATOM      5  C   UNL     1       8.124  23.722   2.233  0.00  0.00    +0.000 A 
ATOM      6  C   UNL     1       8.378  22.553   2.972  0.00  0.00    +0.000 A 
ATOM      7  C   UNL     1       9.569  21.884   2.637  0.00  0.00    +0.000 A 
ATOM      8  C   UNL     1      10.456  22.356   1.655  0.00  0.00    +0.000 A 
ENDBRANCH   1   6
BRANCH   1   9
ATOM      9  C   UNL     1       6.250  21.363   3.520  0.00  0.00    +0.000 C 
BRANCH   9  10
ATOM     10  C   UNL     1       4.965  22.155   3.864  0.00  0.00    +0.000 C 
ATOM     11  C   UNL     1       4.498  22.980   2.671  0.00  0.00    +0.000 C 
BRANCH  10  12
ATOM     12  O   UNL     1       3.899  21.270   4.237  0.00  0.00    +0.000 OA
ATOM     13  H   UNL     1       3.068  21.773   4.211  0.00  0.00    +0.000 HD
ENDBRANCH  10  12
ENDBRANCH   9  10
ENDBRANCH   1   9
BRANCH   1  14
ATOM     14  C   UNL     1       7.447  22.641   5.307  0.00  0.00    +0.000 C 
BRANCH  14  15
ATOM     15  C   UNL     1       8.448  21.946   6.262  0.00  0.00    +0.000 C 
ATOM     16  C   UNL     1       8.604  20.455   5.986  0.00  0.00    +0.000 C 
BRANCH  15  17
ATOM     17  O   UNL     1       9.741  22.545   6.197  0.00  0.00    +0.000 OA
ATOM     18  H   UNL     1       9.571  23.496   6.042  0.00  0.00    +0.000 HD
ENDBRANCH  15  17
ENDBRANCH  14  15
ENDBRANCH   1  14
TORSDOF 7
ENDMDL
