MODEL 1
REMARK VINA RESULT:    -3.927      0.000      0.000
REMARK INTER + INTRA:          -4.324
REMARK INTER:                  -4.272
REMARK INTRA:                  -0.053
REMARK UNBOUND:                -0.053
REMARK  Name = 
REMARK  3 active torsions:
REMARK  status: ('A' for Active; 'I' for Inactive)
REMARK    1  A    between atoms: C_1  and  O_2
REMARK    2  A    between atoms: O_2  and  C_3
REMARK    3  A    between atoms: C_8  and  O_9
REMARK                            x       y       z     vdW  Elec       q    Type
REMARK                         _______ _______ _______ _____ _____    ______ ____
ROOT
ATOM      1  C   UNL     1       3.791  10.277   3.987  0.00  0.00    +0.000 A 
ATOM      2  C   UNL     1       5.033  10.893   3.841  0.00  0.00    +0.000 A 
ATOM      3  C   UNL     1       6.118  10.167   3.333  0.00  0.00    +0.000 A 
ATOM      4  C   UNL     1       5.966   8.827   2.970  0.00  0.00    +0.000 A 
ATOM      5  C   UNL     1       4.728   8.206   3.113  0.00  0.00    +0.000 A 
ATOM      6  C   UNL     1       3.657   8.933   3.618  0.00  0.00    +0.000 A 
ENDROOT
BRANCH   1   8
ATOM      7  C   UNL     1       2.674  11.284   5.827  0.00  0.00    +0.000 C 
ATOM      8  O   UNL     1       2.647  10.863   4.469  0.00  0.00    +0.000 OA
ENDBRANCH   1   8
BRANCH   6   9
ATOM      9  O   UNL     1       2.450   8.300   3.748  0.00  0.00    +0.000 OA
ATOM     10  H   UNL     1       2.639   7.515   4.296  0.00  0.00    +0.000 HD
ENDBRANCH   6   9
TORSDOF 2
ENDMDL
MODEL 2
REMARK VINA RESULT:    -3.762     19.308     20.659
REMARK INTER + INTRA:          -4.145
REMARK INTER:                  -4.097
REMARK INTRA:                  -0.048
REMARK UNBOUND:                -0.053
REMARK  Name = 
REMARK  3 active torsions:
REMARK  status: ('A' for Active; 'I' for Inactive)
REMARK    1  A    between atoms: C_1  and  O_2
REMARK    2  A    between atoms: O_2  and  C_3
REMARK    3  A    between atoms: C_8  and  O_9
REMARK                            x       y       z     vdW  Elec       q    Type
REMARK                         _______ _______ _______ _____ _____    ______ ____
ROOT
ATOM      1  C   UNL     1      16.340  -6.564   8.202  0.00  0.00    +0.000 A 
ATOM      2  C   UNL     1      17.164  -6.049   7.203  0.00  0.00    +0.000 A 
ATOM      3  C   UNL     1      17.360  -4.665   7.102  0.00  0.00    +0.000 A 
ATOM      4  C   UNL     1      16.735  -3.795   7.996  0.00  0.00    +0.000 A 
ATOM      5  C   UNL     1      15.910  -4.302   8.997  0.00  0.00    +0.000 A 
ATOM      6  C   UNL     1      15.721  -5.675   9.090  0.00  0.00    +0.000 A 
ENDROOT
BRANCH   1   8
ATOM      7  C   UNL     1      17.169  -8.777   8.452  0.00  0.00    +0.000 C 
ATOM      8  O   UNL     1      16.058  -7.889   8.418  0.00  0.00    +0.000 OA
ENDBRANCH   1   8
BRANCH   6   9
ATOM      9  O   UNL     1      14.906  -6.150  10.082  0.00  0.00    +0.000 OA
ATOM     10  H   UNL     1      15.162  -5.645  10.877  0.00  0.00    +0.000 HD
ENDBRANCH   6   9
TORSDOF 2
ENDMDL
MODEL 3
REMARK VINA RESULT:    -3.722     18.614     19.830
REMARK INTER + INTRA:          -4.102
REMARK INTER:                  -4.157
REMARK INTRA:                   0.056
REMARK UNBOUND:                -0.053
REMARK  Name = 
REMARK  3 active torsions:
REMARK  status: ('A' for Active; 'I' for Inactive)
REMARK    1  A    between atoms: C_1  and  O_2
REMARK    2  A    between atoms: O_2  and  C_3
REMARK    3  A    between atoms: C_8  and  O_9
REMARK                            x       y       z     vdW  Elec       q    Type
REMARK                         _______ _______ _______ _____ _____    ______ ____
ROOT
ATOM      1  C   UNL     1      16.509  -4.390   8.113  0.00  0.00    +0.000 A 
ATOM      2  C   UNL     1      17.164  -5.263   7.246  0.00  0.00    +0.000 A 
ATOM      3  C   UNL     1      17.132  -6.643   7.487  0.00  0.00    +0.000 A 
ATOM      4  C   UNL     1      16.448  -7.153   8.591  0.00  0.00    +0.000 A 
ATOM      5  C   UNL     1      15.790  -6.287   9.462  0.00  0.00    +0.000 A 
ATOM      6  C   UNL     1      15.827  -4.920   9.216  0.00  0.00    +0.000 A 
ENDROOT
BRANCH   1   8
ATOM      7  C   UNL     1      17.490  -2.294   8.654  0.00  0.00    +0.000 C 
ATOM      8  O   UNL     1      16.457  -3.023   8.002  0.00  0.00    +0.000 OA
ENDBRANCH   1   8
BRANCH   6   9
ATOM      9  O   UNL     1      15.174  -4.089  10.086  0.00  0.00    +0.000 OA
ATOM     10  H   UNL     1      15.000  -3.278   9.571  0.00  0.00    +0.000 HD
ENDBRANCH   6   9
TORSDOF 2
ENDMDL
MODEL 4
REMARK VINA RESULT:    -3.639     19.123     20.007
REMARK INTER + INTRA:          -4.011
REMARK INTER:                  -3.958
REMARK INTRA:                  -0.053
REMARK UNBOUND:                -0.053
REMARK  Name = 
REMARK  3 active torsions:
REMARK  status: ('A' for Active; 'I' for Inactive)
REMARK    1  A    between atoms: C_1  and  O_2
REMARK    2  A    between atoms: O_2  and  C_3
REMARK    3  A    between atoms: C_8  and  O_9
REMARK                            x       y       z     vdW  Elec       q    Type
REMARK                         _______ _______ _______ _____ _____    ______ ____
ROOT
ATOM      1  C   UNL     1      16.473  -4.938   9.649  0.00  0.00    +0.000 A 
ATOM      2  C   UNL     1      16.867  -3.667  10.065  0.00  0.00    +0.000 A 
ATOM      3  C   UNL     1      17.199  -2.692   9.116  0.00  0.00    +0.000 A 
ATOM      4  C   UNL     1      17.140  -2.983   7.752  0.00  0.00    +0.000 A 
ATOM      5  C   UNL     1      16.747  -4.251   7.328  0.00  0.00    +0.000 A 
ATOM      6  C   UNL     1      16.419  -5.211   8.276  0.00  0.00    +0.000 A 
ENDROOT
BRANCH   1   8
ATOM      7  C   UNL     1      17.149  -6.520  11.288  0.00  0.00    +0.000 C 
ATOM      8  O   UNL     1      16.121  -5.985  10.462  0.00  0.00    +0.000 OA
ENDBRANCH   1   8
BRANCH   6   9
ATOM      9  O   UNL     1      16.036  -6.450   7.836  0.00  0.00    +0.000 OA
ATOM     10  H   UNL     1      15.391  -6.761   8.500  0.00  0.00    +0.000 HD
ENDBRANCH   6   9
TORSDOF 2
ENDMDL
MODEL 5
REMARK VINA RESULT:    -3.575     18.836     20.036
REMARK INTER + INTRA:          -3.941
REMARK INTER:                  -3.898
REMARK INTRA:                  -0.043
REMARK UNBOUND:                -0.053
REMARK  Name = 
REMARK  3 active torsions:
REMARK  status: ('A' for Active; 'I' for Inactive)
REMARK    1  A    between atoms: C_1  and  O_2
REMARK    2  A    between atoms: O_2  and  C_3
REMARK    3  A    between atoms: C_8  and  O_9
REMARK                            x       y       z     vdW  Elec       q    Type
REMARK                         _______ _______ _______ _____ _____    ______ ____
ROOT
ATOM      1  C   UNL     1      16.513  -4.462   8.336  0.00  0.00    +0.000 A 
ATOM      2  C   UNL     1      15.927  -4.673   9.583  0.00  0.00    +0.000 A 
ATOM      3  C   UNL     1      15.755  -5.977  10.064  0.00  0.00    +0.000 A 
ATOM      4  C   UNL     1      16.166  -7.072   9.302  0.00  0.00    +0.000 A 
ATOM      5  C   UNL     1      16.752  -6.870   8.055  0.00  0.00    +0.000 A 
ATOM      6  C   UNL     1      16.919  -5.573   7.586  0.00  0.00    +0.000 A 
ENDROOT
BRANCH   1   8
ATOM      7  C   UNL     1      17.118  -2.180   8.604  0.00  0.00    +0.000 C 
ATOM      8  O   UNL     1      16.742  -3.247   7.742  0.00  0.00    +0.000 OA
ENDBRANCH   1   8
BRANCH   6   9
ATOM      9  O   UNL     1      17.498  -5.399   6.357  0.00  0.00    +0.000 OA
ATOM     10  H   UNL     1      17.213  -6.174   5.836  0.00  0.00    +0.000 HD
ENDBRANCH   6   9
TORSDOF 2
ENDMDL
MODEL 6
REMARK VINA RESULT:    -3.546     19.655     20.986
REMARK INTER + INTRA:          -3.910
REMARK INTER:                  -3.881
REMARK INTRA:                  -0.029
REMARK UNBOUND:                -0.053
REMARK  Name = 
REMARK  3 active torsions:
REMARK  status: ('A' for Active; 'I' for Inactive)
REMARK    1  A    between atoms: C_1  and  O_2
REMARK    2  A    between atoms: O_2  and  C_3
REMARK    3  A    between atoms: C_8  and  O_9
REMARK                            x       y       z     vdW  Elec       q    Type
REMARK                         _______ _______ _______ _____ _____    ______ ____
ROOT
ATOM      1  C   UNL     1      16.320  -6.757   8.677  0.00  0.00    +0.000 A 
ATOM      2  C   UNL     1      15.888  -6.157   9.859  0.00  0.00    +0.000 A 
ATOM      3  C   UNL     1      15.912  -4.762   9.985  0.00  0.00    +0.000 A 
ATOM      4  C   UNL     1      16.367  -3.964   8.933  0.00  0.00    +0.000 A 
ATOM      5  C   UNL     1      16.800  -4.557   7.749  0.00  0.00    +0.000 A 
ATOM      6  C   UNL     1      16.773  -5.941   7.633  0.00  0.00    +0.000 A 
ENDROOT
BRANCH   1   8
ATOM      7  C   UNL     1      17.435  -8.833   8.982  0.00  0.00    +0.000 C 
ATOM      8  O   UNL     1      16.353  -8.104   8.417  0.00  0.00    +0.000 OA
ENDBRANCH   1   8
BRANCH   6   9
ATOM      9  O   UNL     1      17.204  -6.500   6.460  0.00  0.00    +0.000 OA
ATOM     10  H   UNL     1      17.526  -7.387   6.711  0.00  0.00    +0.000 HD
ENDBRANCH   6   9
TORSDOF 2
ENDMDL
MODEL 7
REMARK VINA RESULT:    -3.515     19.961     20.479
REMARK INTER + INTRA:          -3.876
REMARK INTER:                  -3.833
REMARK INTRA:                  -0.042
REMARK UNBOUND:                -0.053
REMARK  Name = 
REMARK  3 active torsions:
REMARK  status: ('A' for Active; 'I' for Inactive)
REMARK    1  A    between atoms: C_1  and  O_2
REMARK    2  A    between atoms: O_2  and  C_3
REMARK    3  A    between atoms: C_8  and  O_9
REMARK                            x       y       z     vdW  Elec       q    Type
REMARK                         _______ _______ _______ _____ _____    ______ ____
ROOT
ATOM      1  C   UNL     1      16.936  -5.555   7.831  0.00  0.00    +0.000 A 
ATOM      2  C   UNL     1      17.172  -4.351   8.493  0.00  0.00    +0.000 A 
ATOM      3  C   UNL     1      16.639  -4.139   9.771  0.00  0.00    +0.000 A 
ATOM      4  C   UNL     1      15.868  -5.126  10.389  0.00  0.00    +0.000 A 
ATOM      5  C   UNL     1      15.627  -6.331   9.733  0.00  0.00    +0.000 A 
ATOM      6  C   UNL     1      16.160  -6.533   8.466  0.00  0.00    +0.000 A 
ENDROOT
BRANCH   1   8
ATOM      7  C   UNL     1      17.498  -4.843   5.635  0.00  0.00    +0.000 C 
ATOM      8  O   UNL     1      17.392  -5.897   6.583  0.00  0.00    +0.000 OA
ENDBRANCH   1   8
BRANCH   6   9
ATOM      9  O   UNL     1      15.910  -7.725   7.842  0.00  0.00    +0.000 OA
ATOM     10  H   UNL     1      15.260  -7.510   7.146  0.00  0.00    +0.000 HD
ENDBRANCH   6   9
TORSDOF 2
ENDMDL
MODEL 8
REMARK VINA RESULT:    -3.470     11.934     12.685
REMARK INTER + INTRA:          -3.827
REMARK INTER:                  -3.786
REMARK INTRA:                  -0.042
REMARK UNBOUND:                -0.053
REMARK  Name = 
REMARK  3 active torsions:
REMARK  status: ('A' for Active; 'I' for Inactive)
REMARK    1  A    between atoms: C_1  and  O_2
REMARK    2  A    between atoms: O_2  and  C_3
REMARK    3  A    between atoms: C_8  and  O_9
REMARK                            x       y       z     vdW  Elec       q    Type
REMARK                         _______ _______ _______ _____ _____    ______ ____
ROOT
ATOM      1  C   UNL     1      13.424  10.088  11.088  0.00  0.00    +0.000 A 
ATOM      2  C   UNL     1      12.846  11.005  11.965  0.00  0.00    +0.000 A 
ATOM      3  C   UNL     1      13.461  11.284  13.192  0.00  0.00    +0.000 A 
ATOM      4  C   UNL     1      14.653  10.649  13.546  0.00  0.00    +0.000 A 
ATOM      5  C   UNL     1      15.237   9.732  12.675  0.00  0.00    +0.000 A 
ATOM      6  C   UNL     1      14.620   9.461  11.461  0.00  0.00    +0.000 A 
ENDROOT
BRANCH   1   8
ATOM      7  C   UNL     1      12.217  10.714   9.139  0.00  0.00    +0.000 C 
ATOM      8  O   UNL     1      12.935   9.720   9.861  0.00  0.00    +0.000 OA
ENDBRANCH   1   8
BRANCH   6   9
ATOM      9  O   UNL     1      15.213   8.557  10.621  0.00  0.00    +0.000 OA
ATOM     10  H   UNL     1      15.702   9.101   9.975  0.00  0.00    +0.000 HD
ENDBRANCH   6   9
TORSDOF 2
ENDMDL
