MODEL 1
REMARK VINA RESULT:    -3.614      0.000      0.000
REMARK INTER + INTRA:          -5.630
REMARK INTER:                  -4.882
REMARK INTRA:                  -0.748
REMARK UNBOUND:                -0.748
REMARK  Name = 
REMARK  10 active torsions:
REMARK  status: ('A' for Active; 'I' for Inactive)
REMARK    1  A    between atoms: C_1  and  C_2
REMARK    2  A    between atoms: C_5  and  N_8
REMARK    3  A    between atoms: N_8  and  C_9
REMARK    4  A    between atoms: N_8  and  C_13
REMARK    5  A    between atoms: C_9  and  C_10
REMARK    6  A    between atoms: C_10  and  C_11
REMARK    7  A    between atoms: C_10  and  O_12
REMARK    8  A    between atoms: C_13  and  C_14
REMARK    9  A    between atoms: C_14  and  C_15
REMARK   10  A    between atoms: C_14  and  O_16
REMARK                            x       y       z     vdW  Elec       q    Type
REMARK                         _______ _______ _______ _____ _____    ______ ____
ROOT
ATOM      1  N   UNL     1      17.252  19.079   5.205  0.00  0.00    +0.000 N 
ENDROOT
BRANCH   1   6
ATOM      2  C   UNL     1      11.570  19.798   5.932  0.00  0.00    +0.000 C 
ATOM      3  C   UNL     1      13.047  19.613   5.768  0.00  0.00    +0.000 A 
ATOM      4  C   UNL     1      13.885  20.703   5.557  0.00  0.00    +0.000 A 
ATOM      5  C   UNL     1      15.265  20.521   5.374  0.00  0.00    +0.000 A 
ATOM      6  C   UNL     1      15.872  19.252   5.369  0.00  0.00    +0.000 A 
ATOM      7  C   UNL     1      14.995  18.173   5.587  0.00  0.00    +0.000 A 
ATOM      8  C   UNL     1      13.613  18.341   5.774  0.00  0.00    +0.000 A 
ENDBRANCH   1   6
BRANCH   1   9
ATOM      9  C   UNL     1      18.044  18.391   6.253  0.00  0.00    +0.000 C 
BRANCH   9  10
ATOM     10  C   UNL     1      18.634  17.043   5.771  0.00  0.00    +0.000 C 
ATOM     11  C   UNL     1      18.741  16.051   6.923  0.00  0.00    +0.000 C 
BRANCH  10  12
ATOM     12  O   UNL     1      17.811  16.455   4.754  0.00  0.00    +0.000 OA
ATOM     13  H   UNL     1      18.224  16.630   3.892  0.00  0.00    +0.000 HD
ENDBRANCH  10  12
ENDBRANCH   9  10
ENDBRANCH   1   9
BRANCH   1  14
ATOM     14  C   UNL     1      18.037  19.967   4.311  0.00  0.00    +0.000 C 
BRANCH  14  15
ATOM     15  C   UNL     1      17.789  19.658   2.815  0.00  0.00    +0.000 C 
ATOM     16  C   UNL     1      18.605  20.539   1.877  0.00  0.00    +0.000 C 
BRANCH  15  17
ATOM     17  O   UNL     1      18.076  18.296   2.503  0.00  0.00    +0.000 OA
ATOM     18  H   UNL     1      18.831  18.333   1.881  0.00  0.00    +0.000 HD
ENDBRANCH  15  17
ENDBRANCH  14  15
ENDBRANCH   1  14
TORSDOF 7
ENDMDL
MODEL 2
REMARK VINA RESULT:    -3.594      6.224      7.346
REMARK INTER + INTRA:          -5.603
REMARK INTER:                  -5.172
REMARK INTRA:                  -0.431
REMARK UNBOUND:                -0.748
REMARK  Name = 
REMARK  10 active torsions:
REMARK  status: ('A' for Active; 'I' for Inactive)
REMARK    1  A    between atoms: C_1  and  C_2
REMARK    2  A    between atoms: C_5  and  N_8
REMARK    3  A    between atoms: N_8  and  C_9
REMARK    4  A    between atoms: N_8  and  C_13
REMARK    5  A    between atoms: C_9  and  C_10
REMARK    6  A    between atoms: C_10  and  C_11
REMARK    7  A    between atoms: C_10  and  O_12
REMARK    8  A    between atoms: C_13  and  C_14
REMARK    9  A    between atoms: C_14  and  C_15
REMARK   10  A    between atoms: C_14  and  O_16
REMARK                            x       y       z     vdW  Elec       q    Type
REMARK                         _______ _______ _______ _____ _____    ______ ____
ROOT
ATOM      1  N   UNL     1      16.881  19.623  -2.003  0.00  0.00    +0.000 N 
ENDROOT
BRANCH   1   6
ATOM      2  C   UNL     1      11.922  22.492  -1.288  0.00  0.00    +0.000 C 
ATOM      3  C   UNL     1      13.212  21.746  -1.449  0.00  0.00    +0.000 A 
ATOM      4  C   UNL     1      14.417  22.426  -1.588  0.00  0.00    +0.000 A 
ATOM      5  C   UNL     1      15.619  21.722  -1.769  0.00  0.00    +0.000 A 
ATOM      6  C   UNL     1      15.676  20.319  -1.842  0.00  0.00    +0.000 A 
ATOM      7  C   UNL     1      14.439  19.665  -1.695  0.00  0.00    +0.000 A 
ATOM      8  C   UNL     1      13.230  20.356  -1.512  0.00  0.00    +0.000 A 
ENDBRANCH   1   6
BRANCH   1   9
ATOM      9  C   UNL     1      18.173  20.306  -1.752  0.00  0.00    +0.000 C 
BRANCH   9  10
ATOM     10  C   UNL     1      18.644  20.178  -0.282  0.00  0.00    +0.000 C 
ATOM     11  C   UNL     1      18.635  21.534   0.413  0.00  0.00    +0.000 C 
BRANCH  10  12
ATOM     12  O   UNL     1      17.789  19.294   0.457  0.00  0.00    +0.000 OA
ATOM     13  H   UNL     1      16.887  19.385   0.107  0.00  0.00    +0.000 HD
ENDBRANCH  10  12
ENDBRANCH   9  10
ENDBRANCH   1   9
BRANCH   1  14
ATOM     14  C   UNL     1      16.967  18.427  -2.880  0.00  0.00    +0.000 C 
BRANCH  14  15
ATOM     15  C   UNL     1      17.945  18.637  -4.060  0.00  0.00    +0.000 C 
ATOM     16  C   UNL     1      19.136  17.687  -4.028  0.00  0.00    +0.000 C 
BRANCH  15  17
ATOM     17  O   UNL     1      17.292  18.484  -5.320  0.00  0.00    +0.000 OA
ATOM     18  H   UNL     1      17.824  17.819  -5.802  0.00  0.00    +0.000 HD
ENDBRANCH  15  17
ENDBRANCH  14  15
ENDBRANCH   1  14
TORSDOF 7
ENDMDL
MODEL 3
REMARK VINA RESULT:    -3.423      5.942      7.679
REMARK INTER + INTRA:          -5.372
REMARK INTER:                  -4.904
REMARK INTRA:                  -0.468
REMARK UNBOUND:                -0.748
REMARK  Name = 
REMARK  10 active torsions:
REMARK  status: ('A' for Active; 'I' for Inactive)
REMARK    1  A    between atoms: C_1  and  C_2
REMARK    2  A    between atoms: C_5  and  N_8
REMARK    3  A    between atoms: N_8  and  C_9
REMARK    4  A    between atoms: N_8  and  C_13
REMARK    5  A    between atoms: C_9  and  C_10
REMARK    6  A    between atoms: C_10  and  C_11
REMARK    7  A    between atoms: C_10  and  O_12
REMARK    8  A    between atoms: C_13  and  C_14
REMARK    9  A    between atoms: C_14  and  C_15
REMARK   10  A    between atoms: C_14  and  O_16
REMARK                            x       y       z     vdW  Elec       q    Type
REMARK                         _______ _______ _______ _____ _____    ______ ____
ROOT
ATOM      1  N   UNL     1      17.411  20.399  -1.971  0.00  0.00    +0.000 N 
ENDROOT
BRANCH   1   6
ATOM      2  C   UNL     1      12.013  22.319  -1.266  0.00  0.00    +0.000 C 
ATOM      3  C   UNL     1      13.411  21.823  -1.474  0.00  0.00    +0.000 A 
ATOM      4  C   UNL     1      13.680  20.461  -1.555  0.00  0.00    +0.000 A 
ATOM      5  C   UNL     1      14.997  20.000  -1.719  0.00  0.00    +0.000 A 
ATOM      6  C   UNL     1      16.103  20.865  -1.787  0.00  0.00    +0.000 A 
ATOM      7  C   UNL     1      15.793  22.235  -1.704  0.00  0.00    +0.000 A 
ATOM      8  C   UNL     1      14.481  22.709  -1.542  0.00  0.00    +0.000 A 
ENDBRANCH   1   6
BRANCH   1   9
ATOM      9  C   UNL     1      17.650  19.094  -2.634  0.00  0.00    +0.000 C 
BRANCH   9  10
ATOM     10  C   UNL     1      17.742  19.212  -4.175  0.00  0.00    +0.000 C 
ATOM     11  C   UNL     1      19.113  18.769  -4.674  0.00  0.00    +0.000 C 
BRANCH  10  12
ATOM     12  O   UNL     1      16.751  18.396  -4.814  0.00  0.00    +0.000 OA
ATOM     13  H   UNL     1      16.796  18.561  -5.771  0.00  0.00    +0.000 HD
ENDBRANCH  10  12
ENDBRANCH   9  10
ENDBRANCH   1   9
BRANCH   1  14
ATOM     14  C   UNL     1      18.525  20.875  -1.111  0.00  0.00    +0.000 C 
BRANCH  14  15
ATOM     15  C   UNL     1      18.289  20.549   0.384  0.00  0.00    +0.000 C 
ATOM     16  C   UNL     1      19.465  19.829   1.033  0.00  0.00    +0.000 C 
BRANCH  15  17
ATOM     17  O   UNL     1      18.018  21.726   1.143  0.00  0.00    +0.000 OA
ATOM     18  H   UNL     1      18.865  22.216   1.162  0.00  0.00    +0.000 HD
ENDBRANCH  15  17
ENDBRANCH  14  15
ENDBRANCH   1  14
TORSDOF 7
ENDMDL
MODEL 4
REMARK VINA RESULT:    -3.414      0.628      3.288
REMARK INTER + INTRA:          -5.360
REMARK INTER:                  -4.727
REMARK INTRA:                  -0.633
REMARK UNBOUND:                -0.748
REMARK  Name = 
REMARK  10 active torsions:
REMARK  status: ('A' for Active; 'I' for Inactive)
REMARK    1  A    between atoms: C_1  and  C_2
REMARK    2  A    between atoms: C_5  and  N_8
REMARK    3  A    between atoms: N_8  and  C_9
REMARK    4  A    between atoms: N_8  and  C_13
REMARK    5  A    between atoms: C_9  and  C_10
REMARK    6  A    between atoms: C_10  and  C_11
REMARK    7  A    between atoms: C_10  and  O_12
REMARK    8  A    between atoms: C_13  and  C_14
REMARK    9  A    between atoms: C_14  and  C_15
REMARK   10  A    between atoms: C_14  and  O_16
REMARK                            x       y       z     vdW  Elec       q    Type
REMARK                         _______ _______ _______ _____ _____    ______ ____
ROOT
ATOM      1  N   UNL     1      17.544  19.143   5.872  0.00  0.00    +0.000 N 
ENDROOT
BRANCH   1   6
ATOM      2  C   UNL     1      11.833  19.942   5.594  0.00  0.00    +0.000 C 
ATOM      3  C   UNL     1      13.315  19.731   5.641  0.00  0.00    +0.000 A 
ATOM      4  C   UNL     1      13.850  18.469   5.876  0.00  0.00    +0.000 A 
ATOM      5  C   UNL     1      15.240  18.282   5.950  0.00  0.00    +0.000 A 
ATOM      6  C   UNL     1      16.158  19.339   5.817  0.00  0.00    +0.000 A 
ATOM      7  C   UNL     1      15.582  20.601   5.579  0.00  0.00    +0.000 A 
ATOM      8  C   UNL     1      14.194  20.801   5.501  0.00  0.00    +0.000 A 
ENDBRANCH   1   6
BRANCH   1   9
ATOM      9  C   UNL     1      18.380  19.411   4.678  0.00  0.00    +0.000 C 
BRANCH   9  10
ATOM     10  C   UNL     1      17.687  19.001   3.355  0.00  0.00    +0.000 C 
ATOM     11  C   UNL     1      17.972  20.015   2.254  0.00  0.00    +0.000 C 
BRANCH  10  12
ATOM     12  O   UNL     1      18.149  17.719   2.908  0.00  0.00    +0.000 OA
ATOM     13  H   UNL     1      17.506  17.374   2.266  0.00  0.00    +0.000 HD
ENDBRANCH  10  12
ENDBRANCH   9  10
ENDBRANCH   1   9
BRANCH   1  14
ATOM     14  C   UNL     1      18.151  18.220   6.865  0.00  0.00    +0.000 C 
BRANCH  14  15
ATOM     15  C   UNL     1      18.840  17.008   6.192  0.00  0.00    +0.000 C 
ATOM     16  C   UNL     1      19.656  16.166   7.165  0.00  0.00    +0.000 C 
BRANCH  15  17
ATOM     17  O   UNL     1      17.895  16.152   5.552  0.00  0.00    +0.000 OA
ATOM     18  H   UNL     1      17.107  16.167   6.132  0.00  0.00    +0.000 HD
ENDBRANCH  15  17
ENDBRANCH  14  15
ENDBRANCH   1  14
TORSDOF 7
ENDMDL
MODEL 5
REMARK VINA RESULT:    -3.376      7.623      8.851
REMARK INTER + INTRA:          -5.309
REMARK INTER:                  -4.899
REMARK INTRA:                  -0.409
REMARK UNBOUND:                -0.748
REMARK  Name = 
REMARK  10 active torsions:
REMARK  status: ('A' for Active; 'I' for Inactive)
REMARK    1  A    between atoms: C_1  and  C_2
REMARK    2  A    between atoms: C_5  and  N_8
REMARK    3  A    between atoms: N_8  and  C_9
REMARK    4  A    between atoms: N_8  and  C_13
REMARK    5  A    between atoms: C_9  and  C_10
REMARK    6  A    between atoms: C_10  and  C_11
REMARK    7  A    between atoms: C_10  and  O_12
REMARK    8  A    between atoms: C_13  and  C_14
REMARK    9  A    between atoms: C_14  and  C_15
REMARK   10  A    between atoms: C_14  and  O_16
REMARK                            x       y       z     vdW  Elec       q    Type
REMARK                         _______ _______ _______ _____ _____    ______ ____
ROOT
ATOM      1  N   UNL     1      16.766  20.915  -2.591  0.00  0.00    +0.000 N 
ENDROOT
BRANCH   1   6
ATOM      2  C   UNL     1      11.589  22.638  -0.705  0.00  0.00    +0.000 C 
ATOM      3  C   UNL     1      12.925  22.195  -1.218  0.00  0.00    +0.000 A 
ATOM      4  C   UNL     1      13.168  20.859  -1.519  0.00  0.00    +0.000 A 
ATOM      5  C   UNL     1      14.432  20.445  -1.971  0.00  0.00    +0.000 A 
ATOM      6  C   UNL     1      15.514  21.331  -2.121  0.00  0.00    +0.000 A 
ATOM      7  C   UNL     1      15.232  22.674  -1.810  0.00  0.00    +0.000 A 
ATOM      8  C   UNL     1      13.972  23.101  -1.360  0.00  0.00    +0.000 A 
ENDBRANCH   1   6
BRANCH   1   9
ATOM      9  C   UNL     1      17.400  21.611  -3.736  0.00  0.00    +0.000 C 
BRANCH   9  10
ATOM     10  C   UNL     1      16.377  22.051  -4.812  0.00  0.00    +0.000 C 
ATOM     11  C   UNL     1      17.074  22.743  -5.977  0.00  0.00    +0.000 C 
BRANCH  10  12
ATOM     12  O   UNL     1      15.658  20.922  -5.331  0.00  0.00    +0.000 OA
ATOM     13  H   UNL     1      14.887  20.769  -4.761  0.00  0.00    +0.000 HD
ENDBRANCH  10  12
ENDBRANCH   9  10
ENDBRANCH   1   9
BRANCH   1  14
ATOM     14  C   UNL     1      17.257  19.533  -2.352  0.00  0.00    +0.000 C 
BRANCH  14  15
ATOM     15  C   UNL     1      17.708  18.838  -3.659  0.00  0.00    +0.000 C 
ATOM     16  C   UNL     1      18.669  17.680  -3.422  0.00  0.00    +0.000 C 
BRANCH  15  17
ATOM     17  O   UNL     1      16.596  18.344  -4.404  0.00  0.00    +0.000 OA
ATOM     18  H   UNL     1      16.966  17.638  -4.972  0.00  0.00    +0.000 HD
ENDBRANCH  15  17
ENDBRANCH  14  15
ENDBRANCH   1  14
TORSDOF 7
ENDMDL
MODEL 6
REMARK VINA RESULT:    -3.343      2.983      5.423
REMARK INTER + INTRA:          -5.264
REMARK INTER:                  -4.667
REMARK INTRA:                  -0.598
REMARK UNBOUND:                -0.748
REMARK  Name = 
REMARK  10 active torsions:
REMARK  status: ('A' for Active; 'I' for Inactive)
REMARK    1  A    between atoms: C_1  and  C_2
REMARK    2  A    between atoms: C_5  and  N_8
REMARK    3  A    between atoms: N_8  and  C_9
REMARK    4  A    between atoms: N_8  and  C_13
REMARK    5  A    between atoms: C_9  and  C_10
REMARK    6  A    between atoms: C_10  and  C_11
REMARK    7  A    between atoms: C_10  and  O_12
REMARK    8  A    between atoms: C_13  and  C_14
REMARK    9  A    between atoms: C_14  and  C_15
REMARK   10  A    between atoms: C_14  and  O_16
REMARK                            x       y       z     vdW  Elec       q    Type
REMARK                         _______ _______ _______ _____ _____    ______ ____
ROOT
ATOM      1  N   UNL     1      15.466  20.501   6.678  0.00  0.00    +0.000 N 
ENDROOT
BRANCH   1   6
ATOM      2  C   UNL     1      18.653  16.489   4.018  0.00  0.00    +0.000 C 
ATOM      3  C   UNL     1      17.805  17.520   4.699  0.00  0.00    +0.000 A 
ATOM      4  C   UNL     1      17.491  18.718   4.067  0.00  0.00    +0.000 A 
ATOM      5  C   UNL     1      16.721  19.693   4.722  0.00  0.00    +0.000 A 
ATOM      6  C   UNL     1      16.250  19.533   6.038  0.00  0.00    +0.000 A 
ATOM      7  C   UNL     1      16.585  18.309   6.646  0.00  0.00    +0.000 A 
ATOM      8  C   UNL     1      17.353  17.325   6.001  0.00  0.00    +0.000 A 
ENDBRANCH   1   6
BRANCH   1   9
ATOM      9  C   UNL     1      16.113  21.643   7.370  0.00  0.00    +0.000 C 
BRANCH   9  10
ATOM     10  C   UNL     1      16.031  22.959   6.559  0.00  0.00    +0.000 C 
ATOM     11  C   UNL     1      17.298  23.173   5.738  0.00  0.00    +0.000 C 
BRANCH  10  12
ATOM     12  O   UNL     1      14.916  22.940   5.657  0.00  0.00    +0.000 OA
ATOM     13  H   UNL     1      15.251  23.098   4.759  0.00  0.00    +0.000 HD
ENDBRANCH  10  12
ENDBRANCH   9  10
ENDBRANCH   1   9
BRANCH   1  14
ATOM     14  C   UNL     1      14.087  20.194   7.136  0.00  0.00    +0.000 C 
BRANCH  14  15
ATOM     15  C   UNL     1      13.184  19.701   5.980  0.00  0.00    +0.000 C 
ATOM     16  C   UNL     1      12.807  18.229   6.099  0.00  0.00    +0.000 C 
BRANCH  15  17
ATOM     17  O   UNL     1      11.979  20.460   5.892  0.00  0.00    +0.000 OA
ATOM     18  H   UNL     1      11.337  19.865   5.454  0.00  0.00    +0.000 HD
ENDBRANCH  15  17
ENDBRANCH  14  15
ENDBRANCH   1  14
TORSDOF 7
ENDMDL
MODEL 7
REMARK VINA RESULT:    -3.302      7.835      8.698
REMARK INTER + INTRA:          -5.209
REMARK INTER:                  -4.506
REMARK INTRA:                  -0.703
REMARK UNBOUND:                -0.748
REMARK  Name = 
REMARK  10 active torsions:
REMARK  status: ('A' for Active; 'I' for Inactive)
REMARK    1  A    between atoms: C_1  and  C_2
REMARK    2  A    between atoms: C_5  and  N_8
REMARK    3  A    between atoms: N_8  and  C_9
REMARK    4  A    between atoms: N_8  and  C_13
REMARK    5  A    between atoms: C_9  and  C_10
REMARK    6  A    between atoms: C_10  and  C_11
REMARK    7  A    between atoms: C_10  and  O_12
REMARK    8  A    between atoms: C_13  and  C_14
REMARK    9  A    between atoms: C_14  and  C_15
REMARK   10  A    between atoms: C_14  and  O_16
REMARK                            x       y       z     vdW  Elec       q    Type
REMARK                         _______ _______ _______ _____ _____    ______ ____
ROOT
ATOM      1  N   UNL     1      16.930  21.028  -3.231  0.00  0.00    +0.000 N 
ENDROOT
BRANCH   1   6
ATOM      2  C   UNL     1      11.865  22.431  -0.842  0.00  0.00    +0.000 C 
ATOM      3  C   UNL     1      13.168  22.066  -1.484  0.00  0.00    +0.000 A 
ATOM      4  C   UNL     1      13.573  20.738  -1.574  0.00  0.00    +0.000 A 
ATOM      5  C   UNL     1      14.810  20.404  -2.150  0.00  0.00    +0.000 A 
ATOM      6  C   UNL     1      15.707  21.370  -2.640  0.00  0.00    +0.000 A 
ATOM      7  C   UNL     1      15.264  22.701  -2.535  0.00  0.00    +0.000 A 
ATOM      8  C   UNL     1      14.029  23.049  -1.963  0.00  0.00    +0.000 A 
ENDBRANCH   1   6
BRANCH   1   9
ATOM      9  C   UNL     1      17.658  19.815  -2.786  0.00  0.00    +0.000 C 
BRANCH   9  10
ATOM     10  C   UNL     1      17.962  18.838  -3.947  0.00  0.00    +0.000 C 
ATOM     11  C   UNL     1      18.611  17.560  -3.428  0.00  0.00    +0.000 C 
BRANCH  10  12
ATOM     12  O   UNL     1      16.761  18.475  -4.643  0.00  0.00    +0.000 OA
ATOM     13  H   UNL     1      16.675  17.508  -4.611  0.00  0.00    +0.000 HD
ENDBRANCH  10  12
ENDBRANCH   9  10
ENDBRANCH   1   9
BRANCH   1  14
ATOM     14  C   UNL     1      17.773  22.052  -3.900  0.00  0.00    +0.000 C 
BRANCH  14  15
ATOM     15  C   UNL     1      17.534  22.098  -5.428  0.00  0.00    +0.000 C 
ATOM     16  C   UNL     1      18.748  21.662  -6.239  0.00  0.00    +0.000 C 
BRANCH  15  17
ATOM     17  O   UNL     1      16.429  21.282  -5.813  0.00  0.00    +0.000 OA
ATOM     18  H   UNL     1      16.829  20.449  -6.134  0.00  0.00    +0.000 HD
ENDBRANCH  15  17
ENDBRANCH  14  15
ENDBRANCH   1  14
TORSDOF 7
ENDMDL
MODEL 8
REMARK VINA RESULT:    -3.233     20.935     22.848
REMARK INTER + INTRA:          -5.116
REMARK INTER:                  -4.553
REMARK INTRA:                  -0.563
REMARK UNBOUND:                -0.748
REMARK  Name = 
REMARK  10 active torsions:
REMARK  status: ('A' for Active; 'I' for Inactive)
REMARK    1  A    between atoms: C_1  and  C_2
REMARK    2  A    between atoms: C_5  and  N_8
REMARK    3  A    between atoms: N_8  and  C_9
REMARK    4  A    between atoms: N_8  and  C_13
REMARK    5  A    between atoms: C_9  and  C_10
REMARK    6  A    between atoms: C_10  and  C_11
REMARK    7  A    between atoms: C_10  and  O_12
REMARK    8  A    between atoms: C_13  and  C_14
REMARK    9  A    between atoms: C_14  and  C_15
REMARK   10  A    between atoms: C_14  and  O_16
REMARK                            x       y       z     vdW  Elec       q    Type
REMARK                         _______ _______ _______ _____ _____    ______ ____
ROOT
ATOM      1  N   UNL     1       1.036  21.638 -11.953  0.00  0.00    +0.000 N 
ENDROOT
BRANCH   1   6
ATOM      2  C   UNL     1       2.148  16.187 -13.495  0.00  0.00    +0.000 C 
ATOM      3  C   UNL     1       1.847  17.604 -13.116  0.00  0.00    +0.000 A 
ATOM      4  C   UNL     1       2.711  18.637 -13.465  0.00  0.00    +0.000 A 
ATOM      5  C   UNL     1       2.438  19.960 -13.081  0.00  0.00    +0.000 A 
ATOM      6  C   UNL     1       1.312  20.314 -12.316  0.00  0.00    +0.000 A 
ATOM      7  C   UNL     1       0.459  19.245 -11.983  0.00  0.00    +0.000 A 
ATOM      8  C   UNL     1       0.719  17.918 -12.363  0.00  0.00    +0.000 A 
ENDBRANCH   1   6
BRANCH   1   9
ATOM      9  C   UNL     1       2.078  22.460 -11.293  0.00  0.00    +0.000 C 
BRANCH   9  10
ATOM     10  C   UNL     1       2.905  21.661 -10.256  0.00  0.00    +0.000 C 
ATOM     11  C   UNL     1       4.389  21.988 -10.374  0.00  0.00    +0.000 C 
BRANCH  10  12
ATOM     12  O   UNL     1       2.488  21.967  -8.918  0.00  0.00    +0.000 OA
ATOM     13  H   UNL     1       2.732  21.219  -8.348  0.00  0.00    +0.000 HD
ENDBRANCH  10  12
ENDBRANCH   9  10
ENDBRANCH   1   9
BRANCH   1  14
ATOM     14  C   UNL     1      -0.358  22.099 -11.730  0.00  0.00    +0.000 C 
BRANCH  14  15
ATOM     15  C   UNL     1      -0.625  22.457 -10.248  0.00  0.00    +0.000 C 
ATOM     16  C   UNL     1      -1.991  23.094 -10.022  0.00  0.00    +0.000 C 
BRANCH  15  17
ATOM     17  O   UNL     1      -0.526  21.311  -9.403  0.00  0.00    +0.000 OA
ATOM     18  H   UNL     1       0.430  21.106  -9.367  0.00  0.00    +0.000 HD
ENDBRANCH  15  17
ENDBRANCH  14  15
ENDBRANCH   1  14
TORSDOF 7
ENDMDL
MODEL 9
REMARK VINA RESULT:    -3.208      9.118     12.676
REMARK INTER + INTRA:          -5.082
REMARK INTER:                  -4.323
REMARK INTRA:                  -0.759
REMARK UNBOUND:                -0.748
REMARK  Name = 
REMARK  10 active torsions:
REMARK  status: ('A' for Active; 'I' for Inactive)
REMARK    1  A    between atoms: C_1  and  C_2
REMARK    2  A    between atoms: C_5  and  N_8
REMARK    3  A    between atoms: N_8  and  C_9
REMARK    4  A    between atoms: N_8  and  C_13
REMARK    5  A    between atoms: C_9  and  C_10
REMARK    6  A    between atoms: C_10  and  C_11
REMARK    7  A    between atoms: C_10  and  O_12
REMARK    8  A    between atoms: C_13  and  C_14
REMARK    9  A    between atoms: C_14  and  C_15
REMARK   10  A    between atoms: C_14  and  O_16
REMARK                            x       y       z     vdW  Elec       q    Type
REMARK                         _______ _______ _______ _____ _____    ______ ____
ROOT
ATOM      1  N   UNL     1      18.776  19.663  -5.519  0.00  0.00    +0.000 N 
ENDROOT
BRANCH   1   6
ATOM      2  C   UNL     1      19.270  18.029 -11.034  0.00  0.00    +0.000 C 
ATOM      3  C   UNL     1      19.117  18.453  -9.605  0.00  0.00    +0.000 A 
ATOM      4  C   UNL     1      19.104  19.799  -9.257  0.00  0.00    +0.000 A 
ATOM      5  C   UNL     1      18.991  20.190  -7.913  0.00  0.00    +0.000 A 
ATOM      6  C   UNL     1      18.909  19.266  -6.856  0.00  0.00    +0.000 A 
ATOM      7  C   UNL     1      18.922  17.914  -7.245  0.00  0.00    +0.000 A 
ATOM      8  C   UNL     1      19.033  17.510  -8.585  0.00  0.00    +0.000 A 
ENDBRANCH   1   6
BRANCH   1   9
ATOM      9  C   UNL     1      18.905  21.094  -5.152  0.00  0.00    +0.000 C 
BRANCH   9  10
ATOM     10  C   UNL     1      17.536  21.799  -4.993  0.00  0.00    +0.000 C 
ATOM     11  C   UNL     1      17.517  23.127  -5.741  0.00  0.00    +0.000 C 
BRANCH  10  12
ATOM     12  O   UNL     1      16.474  20.984  -5.509  0.00  0.00    +0.000 OA
ATOM     13  H   UNL     1      16.640  20.836  -6.455  0.00  0.00    +0.000 HD
ENDBRANCH  10  12
ENDBRANCH   9  10
ENDBRANCH   1   9
BRANCH   1  14
ATOM     14  C   UNL     1      19.017  18.709  -4.406  0.00  0.00    +0.000 C 
BRANCH  14  15
ATOM     15  C   UNL     1      17.702  18.274  -3.716  0.00  0.00    +0.000 C 
ATOM     16  C   UNL     1      17.393  19.072  -2.455  0.00  0.00    +0.000 C 
BRANCH  15  17
ATOM     17  O   UNL     1      16.583  18.386  -4.594  0.00  0.00    +0.000 OA
ATOM     18  H   UNL     1      16.564  17.541  -5.089  0.00  0.00    +0.000 HD
ENDBRANCH  15  17
ENDBRANCH  14  15
ENDBRANCH   1  14
TORSDOF 7
ENDMDL
