MODEL 1
REMARK VINA RESULT:    -4.606      0.000      0.000
REMARK INTER + INTRA:          -6.695
REMARK INTER:                  -6.222
REMARK INTRA:                  -0.473
REMARK UNBOUND:                -0.473
REMARK  Name = 
REMARK  10 active torsions:
REMARK  status: ('A' for Active; 'I' for Inactive)
REMARK    1  A    between atoms: C_1  and  C_2
REMARK    2  A    between atoms: C_5  and  N_8
REMARK    3  A    between atoms: N_8  and  C_9
REMARK    4  A    between atoms: N_8  and  C_13
REMARK    5  A    between atoms: C_9  and  C_10
REMARK    6  A    between atoms: C_10  and  C_11
REMARK    7  A    between atoms: C_10  and  O_12
REMARK    8  A    between atoms: C_13  and  C_14
REMARK    9  A    between atoms: C_14  and  C_15
REMARK   10  A    between atoms: C_14  and  O_16
REMARK                            x       y       z     vdW  Elec       q    Type
REMARK                         _______ _______ _______ _____ _____    ______ ____
ROOT
ATOM      1  N   UNL     1      -3.307  18.808  -6.030  0.00  0.00    +0.000 N 
ENDROOT
BRANCH   1   6
ATOM      2  C   UNL     1       0.367  20.758 -10.034  0.00  0.00    +0.000 C 
ATOM      3  C   UNL     1      -0.590  20.275  -8.987  0.00  0.00    +0.000 A 
ATOM      4  C   UNL     1      -0.136  19.877  -7.734  0.00  0.00    +0.000 A 
ATOM      5  C   UNL     1      -1.034  19.397  -6.766  0.00  0.00    +0.000 A 
ATOM      6  C   UNL     1      -2.414  19.269  -7.006  0.00  0.00    +0.000 A 
ATOM      7  C   UNL     1      -2.838  19.683  -8.282  0.00  0.00    +0.000 A 
ATOM      8  C   UNL     1      -1.951  20.166  -9.258  0.00  0.00    +0.000 A 
ENDBRANCH   1   6
BRANCH   1   9
ATOM      9  C   UNL     1      -3.368  17.363  -5.702  0.00  0.00    +0.000 C 
BRANCH   9  10
ATOM     10  C   UNL     1      -4.748  16.932  -5.146  0.00  0.00    +0.000 C 
ATOM     11  C   UNL     1      -5.548  16.176  -6.200  0.00  0.00    +0.000 C 
BRANCH  10  12
ATOM     12  O   UNL     1      -4.598  16.078  -4.004  0.00  0.00    +0.000 OA
ATOM     13  H   UNL     1      -4.699  15.158  -4.300  0.00  0.00    +0.000 HD
ENDBRANCH  10  12
ENDBRANCH   9  10
ENDBRANCH   1   9
BRANCH   1  14
ATOM     14  C   UNL     1      -4.524  19.581  -5.674  0.00  0.00    +0.000 C 
BRANCH  14  15
ATOM     15  C   UNL     1      -4.182  20.968  -5.078  0.00  0.00    +0.000 C 
ATOM     16  C   UNL     1      -4.700  22.127  -5.920  0.00  0.00    +0.000 C 
BRANCH  15  17
ATOM     17  O   UNL     1      -4.699  21.116  -3.756  0.00  0.00    +0.000 OA
ATOM     18  H   UNL     1      -4.870  20.203  -3.448  0.00  0.00    +0.000 HD
ENDBRANCH  15  17
ENDBRANCH  14  15
ENDBRANCH   1  14
TORSDOF 7
ENDMDL
MODEL 2
REMARK VINA RESULT:    -4.457      1.019      3.470
REMARK INTER + INTRA:          -6.493
REMARK INTER:                  -5.857
REMARK INTRA:                  -0.636
REMARK UNBOUND:                -0.473
REMARK  Name = 
REMARK  10 active torsions:
REMARK  status: ('A' for Active; 'I' for Inactive)
REMARK    1  A    between atoms: C_1  and  C_2
REMARK    2  A    between atoms: C_5  and  N_8
REMARK    3  A    between atoms: N_8  and  C_9
REMARK    4  A    between atoms: N_8  and  C_13
REMARK    5  A    between atoms: C_9  and  C_10
REMARK    6  A    between atoms: C_10  and  C_11
REMARK    7  A    between atoms: C_10  and  O_12
REMARK    8  A    between atoms: C_13  and  C_14
REMARK    9  A    between atoms: C_14  and  C_15
REMARK   10  A    between atoms: C_14  and  O_16
REMARK                            x       y       z     vdW  Elec       q    Type
REMARK                         _______ _______ _______ _____ _____    ______ ____
ROOT
ATOM      1  N   UNL     1      -2.952  19.548  -6.182  0.00  0.00    +0.000 N 
ENDROOT
BRANCH   1   6
ATOM      2  C   UNL     1       0.373  20.824 -10.726  0.00  0.00    +0.000 C 
ATOM      3  C   UNL     1      -0.482  20.469  -9.548  0.00  0.00    +0.000 A 
ATOM      4  C   UNL     1      -1.812  20.099  -9.717  0.00  0.00    +0.000 A 
ATOM      5  C   UNL     1      -2.618  19.796  -8.607  0.00  0.00    +0.000 A 
ATOM      6  C   UNL     1      -2.149  19.870  -7.283  0.00  0.00    +0.000 A 
ATOM      7  C   UNL     1      -0.799  20.245  -7.150  0.00  0.00    +0.000 A 
ATOM      8  C   UNL     1       0.018  20.549  -8.252  0.00  0.00    +0.000 A 
ENDBRANCH   1   6
BRANCH   1   9
ATOM      9  C   UNL     1      -3.495  20.624  -5.319  0.00  0.00    +0.000 C 
BRANCH   9  10
ATOM     10  C   UNL     1      -4.458  21.572  -6.075  0.00  0.00    +0.000 C 
ATOM     11  C   UNL     1      -5.692  20.821  -6.560  0.00  0.00    +0.000 C 
BRANCH  10  12
ATOM     12  O   UNL     1      -4.895  22.644  -5.228  0.00  0.00    +0.000 OA
ATOM     13  H   UNL     1      -5.808  22.868  -5.473  0.00  0.00    +0.000 HD
ENDBRANCH  10  12
ENDBRANCH   9  10
ENDBRANCH   1   9
BRANCH   1  14
ATOM     14  C   UNL     1      -2.877  18.210  -5.541  0.00  0.00    +0.000 C 
BRANCH  14  15
ATOM     15  C   UNL     1      -4.256  17.508  -5.492  0.00  0.00    +0.000 C 
ATOM     16  C   UNL     1      -4.643  16.855  -6.814  0.00  0.00    +0.000 C 
BRANCH  15  17
ATOM     17  O   UNL     1      -4.302  16.508  -4.476  0.00  0.00    +0.000 OA
ATOM     18  H   UNL     1      -3.705  16.834  -3.773  0.00  0.00    +0.000 HD
ENDBRANCH  15  17
ENDBRANCH  14  15
ENDBRANCH   1  14
TORSDOF 7
ENDMDL
MODEL 3
REMARK VINA RESULT:    -4.411      1.840      2.187
REMARK INTER + INTRA:          -6.431
REMARK INTER:                  -5.856
REMARK INTRA:                  -0.575
REMARK UNBOUND:                -0.473
REMARK  Name = 
REMARK  10 active torsions:
REMARK  status: ('A' for Active; 'I' for Inactive)
REMARK    1  A    between atoms: C_1  and  C_2
REMARK    2  A    between atoms: C_5  and  N_8
REMARK    3  A    between atoms: N_8  and  C_9
REMARK    4  A    between atoms: N_8  and  C_13
REMARK    5  A    between atoms: C_9  and  C_10
REMARK    6  A    between atoms: C_10  and  C_11
REMARK    7  A    between atoms: C_10  and  O_12
REMARK    8  A    between atoms: C_13  and  C_14
REMARK    9  A    between atoms: C_14  and  C_15
REMARK   10  A    between atoms: C_14  and  O_16
REMARK                            x       y       z     vdW  Elec       q    Type
REMARK                         _______ _______ _______ _____ _____    ______ ____
ROOT
ATOM      1  N   UNL     1      -2.585  20.075  -5.784  0.00  0.00    +0.000 N 
ENDROOT
BRANCH   1   6
ATOM      2  C   UNL     1       0.397  23.599  -9.249  0.00  0.00    +0.000 C 
ATOM      3  C   UNL     1      -0.357  22.669  -8.349  0.00  0.00    +0.000 A 
ATOM      4  C   UNL     1      -1.168  21.668  -8.874  0.00  0.00    +0.000 A 
ATOM      5  C   UNL     1      -1.897  20.819  -8.025  0.00  0.00    +0.000 A 
ATOM      6  C   UNL     1      -1.872  20.938  -6.624  0.00  0.00    +0.000 A 
ATOM      7  C   UNL     1      -1.040  21.959  -6.129  0.00  0.00    +0.000 A 
ATOM      8  C   UNL     1      -0.305  22.815  -6.966  0.00  0.00    +0.000 A 
ENDBRANCH   1   6
BRANCH   1   9
ATOM      9  C   UNL     1      -2.525  18.609  -6.000  0.00  0.00    +0.000 C 
BRANCH   9  10
ATOM     10  C   UNL     1      -3.784  17.873  -5.477  0.00  0.00    +0.000 C 
ATOM     11  C   UNL     1      -4.576  17.265  -6.627  0.00  0.00    +0.000 C 
BRANCH  10  12
ATOM     12  O   UNL     1      -3.425  16.816  -4.576  0.00  0.00    +0.000 OA
ATOM     13  H   UNL     1      -3.809  15.990  -4.914  0.00  0.00    +0.000 HD
ENDBRANCH  10  12
ENDBRANCH   9  10
ENDBRANCH   1   9
BRANCH   1  14
ATOM     14  C   UNL     1      -3.774  20.546  -5.027  0.00  0.00    +0.000 C 
BRANCH  14  15
ATOM     15  C   UNL     1      -4.574  21.618  -5.805  0.00  0.00    +0.000 C 
ATOM     16  C   UNL     1      -5.654  21.026  -6.703  0.00  0.00    +0.000 C 
BRANCH  15  17
ATOM     17  O   UNL     1      -5.195  22.554  -4.925  0.00  0.00    +0.000 OA
ATOM     18  H   UNL     1      -5.820  23.054  -5.488  0.00  0.00    +0.000 HD
ENDBRANCH  15  17
ENDBRANCH  14  15
ENDBRANCH   1  14
TORSDOF 7
ENDMDL
MODEL 4
REMARK VINA RESULT:    -4.407      2.985      5.372
REMARK INTER + INTRA:          -6.425
REMARK INTER:                  -6.057
REMARK INTRA:                  -0.368
REMARK UNBOUND:                -0.473
REMARK  Name = 
REMARK  10 active torsions:
REMARK  status: ('A' for Active; 'I' for Inactive)
REMARK    1  A    between atoms: C_1  and  C_2
REMARK    2  A    between atoms: C_5  and  N_8
REMARK    3  A    between atoms: N_8  and  C_9
REMARK    4  A    between atoms: N_8  and  C_13
REMARK    5  A    between atoms: C_9  and  C_10
REMARK    6  A    between atoms: C_10  and  C_11
REMARK    7  A    between atoms: C_10  and  O_12
REMARK    8  A    between atoms: C_13  and  C_14
REMARK    9  A    between atoms: C_14  and  C_15
REMARK   10  A    between atoms: C_14  and  O_16
REMARK                            x       y       z     vdW  Elec       q    Type
REMARK                         _______ _______ _______ _____ _____    ______ ____
ROOT
ATOM      1  N   UNL     1      -1.181  21.326  -6.969  0.00  0.00    +0.000 N 
ENDROOT
BRANCH   1   6
ATOM      2  C   UNL     1      -4.303  16.844  -5.100  0.00  0.00    +0.000 C 
ATOM      3  C   UNL     1      -3.481  18.008  -5.563  0.00  0.00    +0.000 A 
ATOM      4  C   UNL     1      -3.937  19.313  -5.404  0.00  0.00    +0.000 A 
ATOM      5  C   UNL     1      -3.176  20.398  -5.867  0.00  0.00    +0.000 A 
ATOM      6  C   UNL     1      -1.944  20.238  -6.527  0.00  0.00    +0.000 A 
ATOM      7  C   UNL     1      -1.514  18.906  -6.669  0.00  0.00    +0.000 A 
ATOM      8  C   UNL     1      -2.264  17.811  -6.209  0.00  0.00    +0.000 A 
ENDBRANCH   1   6
BRANCH   1   9
ATOM      9  C   UNL     1       0.015  21.101  -7.816  0.00  0.00    +0.000 C 
BRANCH   9  10
ATOM     10  C   UNL     1      -0.303  21.155  -9.331  0.00  0.00    +0.000 C 
ATOM     11  C   UNL     1       0.050  22.518  -9.913  0.00  0.00    +0.000 C 
BRANCH  10  12
ATOM     12  O   UNL     1       0.439  20.159 -10.049  0.00  0.00    +0.000 OA
ATOM     13  H   UNL     1       0.982  19.669  -9.409  0.00  0.00    +0.000 HD
ENDBRANCH  10  12
ENDBRANCH   9  10
ENDBRANCH   1   9
BRANCH   1  14
ATOM     14  C   UNL     1      -1.196  22.621  -6.242  0.00  0.00    +0.000 C 
BRANCH  14  15
ATOM     15  C   UNL     1      -1.990  23.710  -7.003  0.00  0.00    +0.000 C 
ATOM     16  C   UNL     1      -3.027  23.136  -7.961  0.00  0.00    +0.000 C 
BRANCH  15  17
ATOM     17  O   UNL     1      -2.658  24.598  -6.108  0.00  0.00    +0.000 OA
ATOM     18  H   UNL     1      -1.990  24.824  -5.430  0.00  0.00    +0.000 HD
ENDBRANCH  15  17
ENDBRANCH  14  15
ENDBRANCH   1  14
TORSDOF 7
ENDMDL
MODEL 5
REMARK VINA RESULT:    -4.403      3.057      4.410
REMARK INTER + INTRA:          -6.421
REMARK INTER:                  -5.643
REMARK INTRA:                  -0.777
REMARK UNBOUND:                -0.473
REMARK  Name = 
REMARK  10 active torsions:
REMARK  status: ('A' for Active; 'I' for Inactive)
REMARK    1  A    between atoms: C_1  and  C_2
REMARK    2  A    between atoms: C_5  and  N_8
REMARK    3  A    between atoms: N_8  and  C_9
REMARK    4  A    between atoms: N_8  and  C_13
REMARK    5  A    between atoms: C_9  and  C_10
REMARK    6  A    between atoms: C_10  and  C_11
REMARK    7  A    between atoms: C_10  and  O_12
REMARK    8  A    between atoms: C_13  and  C_14
REMARK    9  A    between atoms: C_14  and  C_15
REMARK   10  A    between atoms: C_14  and  O_16
REMARK                            x       y       z     vdW  Elec       q    Type
REMARK                         _______ _______ _______ _____ _____    ______ ____
ROOT
ATOM      1  N   UNL     1      -4.046  21.475  -7.745  0.00  0.00    +0.000 N 
ENDROOT
BRANCH   1   6
ATOM      2  C   UNL     1      -0.270  17.346  -6.325  0.00  0.00    +0.000 C 
ATOM      3  C   UNL     1      -1.263  18.413  -6.672  0.00  0.00    +0.000 A 
ATOM      4  C   UNL     1      -2.382  18.123  -7.445  0.00  0.00    +0.000 A 
ATOM      5  C   UNL     1      -3.293  19.133  -7.793  0.00  0.00    +0.000 A 
ATOM      6  C   UNL     1      -3.123  20.476  -7.411  0.00  0.00    +0.000 A 
ATOM      7  C   UNL     1      -1.982  20.732  -6.629  0.00  0.00    +0.000 A 
ATOM      8  C   UNL     1      -1.064  19.731  -6.272  0.00  0.00    +0.000 A 
ENDBRANCH   1   6
BRANCH   1   9
ATOM      9  C   UNL     1      -5.421  21.432  -7.192  0.00  0.00    +0.000 C 
BRANCH   9  10
ATOM     10  C   UNL     1      -5.561  22.224  -5.869  0.00  0.00    +0.000 C 
ATOM     11  C   UNL     1      -5.322  21.321  -4.665  0.00  0.00    +0.000 C 
BRANCH  10  12
ATOM     12  O   UNL     1      -4.615  23.301  -5.811  0.00  0.00    +0.000 OA
ATOM     13  H   UNL     1      -3.913  23.120  -6.458  0.00  0.00    +0.000 HD
ENDBRANCH  10  12
ENDBRANCH   9  10
ENDBRANCH   1   9
BRANCH   1  14
ATOM     14  C   UNL     1      -3.899  22.273  -8.989  0.00  0.00    +0.000 C 
BRANCH  14  15
ATOM     15  C   UNL     1      -2.738  23.293  -8.895  0.00  0.00    +0.000 C 
ATOM     16  C   UNL     1      -2.446  23.993 -10.217  0.00  0.00    +0.000 C 
BRANCH  15  17
ATOM     17  O   UNL     1      -2.994  24.294  -7.912  0.00  0.00    +0.000 OA
ATOM     18  H   UNL     1      -2.376  25.022  -8.126  0.00  0.00    +0.000 HD
ENDBRANCH  15  17
ENDBRANCH  14  15
ENDBRANCH   1  14
TORSDOF 7
ENDMDL
MODEL 6
REMARK VINA RESULT:    -4.383      2.441      5.503
REMARK INTER + INTRA:          -6.394
REMARK INTER:                  -6.161
REMARK INTRA:                  -0.232
REMARK UNBOUND:                -0.473
REMARK  Name = 
REMARK  10 active torsions:
REMARK  status: ('A' for Active; 'I' for Inactive)
REMARK    1  A    between atoms: C_1  and  C_2
REMARK    2  A    between atoms: C_5  and  N_8
REMARK    3  A    between atoms: N_8  and  C_9
REMARK    4  A    between atoms: N_8  and  C_13
REMARK    5  A    between atoms: C_9  and  C_10
REMARK    6  A    between atoms: C_10  and  C_11
REMARK    7  A    between atoms: C_10  and  O_12
REMARK    8  A    between atoms: C_13  and  C_14
REMARK    9  A    between atoms: C_14  and  C_15
REMARK   10  A    between atoms: C_14  and  O_16
REMARK                            x       y       z     vdW  Elec       q    Type
REMARK                         _______ _______ _______ _____ _____    ______ ____
ROOT
ATOM      1  N   UNL     1      -2.570  20.832  -7.567  0.00  0.00    +0.000 N 
ENDROOT
BRANCH   1   6
ATOM      2  C   UNL     1      -5.027  16.395  -4.809  0.00  0.00    +0.000 C 
ATOM      3  C   UNL     1      -4.399  17.538  -5.546  0.00  0.00    +0.000 A 
ATOM      4  C   UNL     1      -3.099  17.446  -6.033  0.00  0.00    +0.000 A 
ATOM      5  C   UNL     1      -2.505  18.531  -6.697  0.00  0.00    +0.000 A 
ATOM      6  C   UNL     1      -3.162  19.760  -6.887  0.00  0.00    +0.000 A 
ATOM      7  C   UNL     1      -4.475  19.816  -6.384  0.00  0.00    +0.000 A 
ATOM      8  C   UNL     1      -5.082  18.738  -5.720  0.00  0.00    +0.000 A 
ENDBRANCH   1   6
BRANCH   1   9
ATOM      9  C   UNL     1      -3.319  22.098  -7.755  0.00  0.00    +0.000 C 
BRANCH   9  10
ATOM     10  C   UNL     1      -3.169  23.067  -6.557  0.00  0.00    +0.000 C 
ATOM     11  C   UNL     1      -2.532  24.381  -6.996  0.00  0.00    +0.000 C 
BRANCH  10  12
ATOM     12  O   UNL     1      -4.445  23.366  -5.974  0.00  0.00    +0.000 OA
ATOM     13  H   UNL     1      -4.337  24.135  -5.390  0.00  0.00    +0.000 HD
ENDBRANCH  10  12
ENDBRANCH   9  10
ENDBRANCH   1   9
BRANCH   1  14
ATOM     14  C   UNL     1      -1.463  20.612  -8.532  0.00  0.00    +0.000 C 
BRANCH  14  15
ATOM     15  C   UNL     1      -0.072  20.757  -7.869  0.00  0.00    +0.000 C 
ATOM     16  C   UNL     1      -0.145  21.226  -6.421  0.00  0.00    +0.000 C 
BRANCH  15  17
ATOM     17  O   UNL     1       0.658  19.532  -7.901  0.00  0.00    +0.000 OA
ATOM     18  H   UNL     1       0.025  18.870  -8.245  0.00  0.00    +0.000 HD
ENDBRANCH  15  17
ENDBRANCH  14  15
ENDBRANCH   1  14
TORSDOF 7
ENDMDL
MODEL 7
REMARK VINA RESULT:    -4.319      2.383      4.725
REMARK INTER + INTRA:          -6.307
REMARK INTER:                  -5.802
REMARK INTRA:                  -0.504
REMARK UNBOUND:                -0.473
REMARK  Name = 
REMARK  10 active torsions:
REMARK  status: ('A' for Active; 'I' for Inactive)
REMARK    1  A    between atoms: C_1  and  C_2
REMARK    2  A    between atoms: C_5  and  N_8
REMARK    3  A    between atoms: N_8  and  C_9
REMARK    4  A    between atoms: N_8  and  C_13
REMARK    5  A    between atoms: C_9  and  C_10
REMARK    6  A    between atoms: C_10  and  C_11
REMARK    7  A    between atoms: C_10  and  O_12
REMARK    8  A    between atoms: C_13  and  C_14
REMARK    9  A    between atoms: C_14  and  C_15
REMARK   10  A    between atoms: C_14  and  O_16
REMARK                            x       y       z     vdW  Elec       q    Type
REMARK                         _______ _______ _______ _____ _____    ______ ____
ROOT
ATOM      1  N   UNL     1      -2.531  20.697  -6.909  0.00  0.00    +0.000 N 
ENDROOT
BRANCH   1   6
ATOM      2  C   UNL     1      -5.692  15.897  -6.369  0.00  0.00    +0.000 C 
ATOM      3  C   UNL     1      -4.891  17.153  -6.521  0.00  0.00    +0.000 A 
ATOM      4  C   UNL     1      -4.067  17.347  -7.625  0.00  0.00    +0.000 A 
ATOM      5  C   UNL     1      -3.296  18.514  -7.747  0.00  0.00    +0.000 A 
ATOM      6  C   UNL     1      -3.288  19.527  -6.772  0.00  0.00    +0.000 A 
ATOM      7  C   UNL     1      -4.134  19.299  -5.670  0.00  0.00    +0.000 A 
ATOM      8  C   UNL     1      -4.913  18.138  -5.537  0.00  0.00    +0.000 A 
ENDBRANCH   1   6
BRANCH   1   9
ATOM      9  C   UNL     1      -1.334  20.912  -6.061  0.00  0.00    +0.000 C 
BRANCH   9  10
ATOM     10  C   UNL     1      -0.285  19.782  -6.206  0.00  0.00    +0.000 C 
ATOM     11  C   UNL     1       0.453  19.892  -7.535  0.00  0.00    +0.000 C 
BRANCH  10  12
ATOM     12  O   UNL     1       0.686  19.843  -5.152  0.00  0.00    +0.000 OA
ATOM     13  H   UNL     1       0.408  20.531  -4.525  0.00  0.00    +0.000 HD
ENDBRANCH  10  12
ENDBRANCH   9  10
ENDBRANCH   1   9
BRANCH   1  14
ATOM     14  C   UNL     1      -3.124  21.935  -7.476  0.00  0.00    +0.000 C 
BRANCH  14  15
ATOM     15  C   UNL     1      -3.158  23.091  -6.448  0.00  0.00    +0.000 C 
ATOM     16  C   UNL     1      -2.680  24.419  -7.022  0.00  0.00    +0.000 C 
BRANCH  15  17
ATOM     17  O   UNL     1      -4.468  23.286  -5.917  0.00  0.00    +0.000 OA
ATOM     18  H   UNL     1      -4.507  22.714  -5.124  0.00  0.00    +0.000 HD
ENDBRANCH  15  17
ENDBRANCH  14  15
ENDBRANCH   1  14
TORSDOF 7
ENDMDL
MODEL 8
REMARK VINA RESULT:    -4.292      3.121      5.425
REMARK INTER + INTRA:          -6.270
REMARK INTER:                  -5.669
REMARK INTRA:                  -0.601
REMARK UNBOUND:                -0.473
REMARK  Name = 
REMARK  10 active torsions:
REMARK  status: ('A' for Active; 'I' for Inactive)
REMARK    1  A    between atoms: C_1  and  C_2
REMARK    2  A    between atoms: C_5  and  N_8
REMARK    3  A    between atoms: N_8  and  C_9
REMARK    4  A    between atoms: N_8  and  C_13
REMARK    5  A    between atoms: C_9  and  C_10
REMARK    6  A    between atoms: C_10  and  C_11
REMARK    7  A    between atoms: C_10  and  O_12
REMARK    8  A    between atoms: C_13  and  C_14
REMARK    9  A    between atoms: C_14  and  C_15
REMARK   10  A    between atoms: C_14  and  O_16
REMARK                            x       y       z     vdW  Elec       q    Type
REMARK                         _______ _______ _______ _____ _____    ______ ____
ROOT
ATOM      1  N   UNL     1      -2.462  21.891  -8.661  0.00  0.00    +0.000 N 
ENDROOT
BRANCH   1   6
ATOM      2  C   UNL     1      -0.079  17.232  -6.223  0.00  0.00    +0.000 C 
ATOM      3  C   UNL     1      -0.693  18.432  -6.878  0.00  0.00    +0.000 A 
ATOM      4  C   UNL     1       0.068  19.564  -7.151  0.00  0.00    +0.000 A 
ATOM      5  C   UNL     1      -0.519  20.697  -7.738  0.00  0.00    +0.000 A 
ATOM      6  C   UNL     1      -1.887  20.766  -8.058  0.00  0.00    +0.000 A 
ATOM      7  C   UNL     1      -2.625  19.602  -7.770  0.00  0.00    +0.000 A 
ATOM      8  C   UNL     1      -2.050  18.462  -7.186  0.00  0.00    +0.000 A 
ENDBRANCH   1   6
BRANCH   1   9
ATOM      9  C   UNL     1      -3.659  22.527  -8.059  0.00  0.00    +0.000 C 
BRANCH   9  10
ATOM     10  C   UNL     1      -3.373  23.149  -6.671  0.00  0.00    +0.000 C 
ATOM     11  C   UNL     1      -2.645  24.481  -6.809  0.00  0.00    +0.000 C 
BRANCH  10  12
ATOM     12  O   UNL     1      -4.592  23.382  -5.951  0.00  0.00    +0.000 OA
ATOM     13  H   UNL     1      -4.381  23.912  -5.164  0.00  0.00    +0.000 HD
ENDBRANCH  10  12
ENDBRANCH   9  10
ENDBRANCH   1   9
BRANCH   1  14
ATOM     14  C   UNL     1      -2.264  22.175 -10.106  0.00  0.00    +0.000 C 
BRANCH  14  15
ATOM     15  C   UNL     1      -1.462  23.478 -10.340  0.00  0.00    +0.000 C 
ATOM     16  C   UNL     1       0.010  23.229 -10.649  0.00  0.00    +0.000 C 
BRANCH  15  17
ATOM     17  O   UNL     1      -2.012  24.251 -11.406  0.00  0.00    +0.000 OA
ATOM     18  H   UNL     1      -2.790  24.699 -11.017  0.00  0.00    +0.000 HD
ENDBRANCH  15  17
ENDBRANCH  14  15
ENDBRANCH   1  14
TORSDOF 7
ENDMDL
MODEL 9
REMARK VINA RESULT:    -4.254      2.745      3.760
REMARK INTER + INTRA:          -6.219
REMARK INTER:                  -5.705
REMARK INTRA:                  -0.513
REMARK UNBOUND:                -0.473
REMARK  Name = 
REMARK  10 active torsions:
REMARK  status: ('A' for Active; 'I' for Inactive)
REMARK    1  A    between atoms: C_1  and  C_2
REMARK    2  A    between atoms: C_5  and  N_8
REMARK    3  A    between atoms: N_8  and  C_9
REMARK    4  A    between atoms: N_8  and  C_13
REMARK    5  A    between atoms: C_9  and  C_10
REMARK    6  A    between atoms: C_10  and  C_11
REMARK    7  A    between atoms: C_10  and  O_12
REMARK    8  A    between atoms: C_13  and  C_14
REMARK    9  A    between atoms: C_14  and  C_15
REMARK   10  A    between atoms: C_14  and  O_16
REMARK                            x       y       z     vdW  Elec       q    Type
REMARK                         _______ _______ _______ _____ _____    ______ ____
ROOT
ATOM      1  N   UNL     1      -1.962  20.931  -6.896  0.00  0.00    +0.000 N 
ENDROOT
BRANCH   1   6
ATOM      2  C   UNL     1       0.225  24.214 -11.112  0.00  0.00    +0.000 C 
ATOM      3  C   UNL     1      -0.324  23.346 -10.021  0.00  0.00    +0.000 A 
ATOM      4  C   UNL     1      -1.266  22.360 -10.298  0.00  0.00    +0.000 A 
ATOM      5  C   UNL     1      -1.799  21.569  -9.267  0.00  0.00    +0.000 A 
ATOM      6  C   UNL     1      -1.441  21.736  -7.917  0.00  0.00    +0.000 A 
ATOM      7  C   UNL     1      -0.485  22.740  -7.674  0.00  0.00    +0.000 A 
ATOM      8  C   UNL     1       0.058  23.536  -8.696  0.00  0.00    +0.000 A 
ENDBRANCH   1   6
BRANCH   1   9
ATOM      9  C   UNL     1      -1.887  19.454  -7.003  0.00  0.00    +0.000 C 
BRANCH   9  10
ATOM     10  C   UNL     1      -0.431  18.927  -7.022  0.00  0.00    +0.000 C 
ATOM     11  C   UNL     1       0.375  19.509  -5.867  0.00  0.00    +0.000 C 
BRANCH  10  12
ATOM     12  O   UNL     1      -0.399  17.497  -6.909  0.00  0.00    +0.000 OA
ATOM     13  H   UNL     1      -1.263  17.154  -7.192  0.00  0.00    +0.000 HD
ENDBRANCH  10  12
ENDBRANCH   9  10
ENDBRANCH   1   9
BRANCH   1  14
ATOM     14  C   UNL     1      -3.014  21.438  -5.979  0.00  0.00    +0.000 C 
BRANCH  14  15
ATOM     15  C   UNL     1      -4.070  22.296  -6.717  0.00  0.00    +0.000 C 
ATOM     16  C   UNL     1      -5.259  21.484  -7.217  0.00  0.00    +0.000 C 
BRANCH  15  17
ATOM     17  O   UNL     1      -4.568  23.346  -5.890  0.00  0.00    +0.000 OA
ATOM     18  H   UNL     1      -5.255  22.925  -5.335  0.00  0.00    +0.000 HD
ENDBRANCH  15  17
ENDBRANCH  14  15
ENDBRANCH   1  14
TORSDOF 7
ENDMDL
