MODEL 1
REMARK VINA RESULT:    -5.402      0.000      0.000
REMARK INTER + INTRA:          -7.734
REMARK INTER:                  -7.297
REMARK INTRA:                  -0.437
REMARK UNBOUND:                -0.437
REMARK  Name = 
REMARK  10 active torsions:
REMARK  status: ('A' for Active; 'I' for Inactive)
REMARK    1  A    between atoms: C_1  and  C_2
REMARK    2  A    between atoms: C_5  and  N_8
REMARK    3  A    between atoms: N_8  and  C_9
REMARK    4  A    between atoms: N_8  and  C_13
REMARK    5  A    between atoms: C_9  and  C_10
REMARK    6  A    between atoms: C_10  and  C_11
REMARK    7  A    between atoms: C_10  and  O_12
REMARK    8  A    between atoms: C_13  and  C_14
REMARK    9  A    between atoms: C_14  and  C_15
REMARK   10  A    between atoms: C_14  and  O_16
REMARK                            x       y       z     vdW  Elec       q    Type
REMARK                         _______ _______ _______ _____ _____    ______ ____
ROOT
ATOM      1  N   UNL     1      12.504   3.204   8.309  0.00  0.00    +0.000 N 
ENDROOT
BRANCH   1   6
ATOM      2  C   UNL     1      17.844   1.677   9.884  0.00  0.00    +0.000 C 
ATOM      3  C   UNL     1      16.453   2.049   9.470  0.00  0.00    +0.000 A 
ATOM      4  C   UNL     1      16.176   2.433   8.162  0.00  0.00    +0.000 A 
ATOM      5  C   UNL     1      14.876   2.809   7.787  0.00  0.00    +0.000 A 
ATOM      6  C   UNL     1      13.802   2.845   8.695  0.00  0.00    +0.000 A 
ATOM      7  C   UNL     1      14.118   2.450  10.007  0.00  0.00    +0.000 A 
ATOM      8  C   UNL     1      15.413   2.068  10.395  0.00  0.00    +0.000 A 
ENDBRANCH   1   6
BRANCH   1   9
ATOM      9  C   UNL     1      11.823   2.468   7.217  0.00  0.00    +0.000 C 
BRANCH   9  10
ATOM     10  C   UNL     1      11.394   3.389   6.049  0.00  0.00    +0.000 C 
ATOM     11  C   UNL     1      12.559   3.643   5.099  0.00  0.00    +0.000 C 
BRANCH  10  12
ATOM     12  O   UNL     1      10.326   2.800   5.294  0.00  0.00    +0.000 OA
ATOM     13  H   UNL     1      10.180   3.345   4.503  0.00  0.00    +0.000 HD
ENDBRANCH  10  12
ENDBRANCH   9  10
ENDBRANCH   1   9
BRANCH   1  14
ATOM     14  C   UNL     1      11.973   4.567   8.569  0.00  0.00    +0.000 C 
BRANCH  14  15
ATOM     15  C   UNL     1      11.332   4.686   9.972  0.00  0.00    +0.000 C 
ATOM     16  C   UNL     1      11.369   6.104  10.530  0.00  0.00    +0.000 C 
BRANCH  15  17
ATOM     17  O   UNL     1       9.974   4.248   9.970  0.00  0.00    +0.000 OA
ATOM     18  H   UNL     1       9.981   3.404   9.474  0.00  0.00    +0.000 HD
ENDBRANCH  15  17
ENDBRANCH  14  15
ENDBRANCH   1  14
TORSDOF 7
ENDMDL
MODEL 2
REMARK VINA RESULT:    -5.343      0.373      3.317
REMARK INTER + INTRA:          -7.654
REMARK INTER:                  -7.318
REMARK INTRA:                  -0.336
REMARK UNBOUND:                -0.437
REMARK  Name = 
REMARK  10 active torsions:
REMARK  status: ('A' for Active; 'I' for Inactive)
REMARK    1  A    between atoms: C_1  and  C_2
REMARK    2  A    between atoms: C_5  and  N_8
REMARK    3  A    between atoms: N_8  and  C_9
REMARK    4  A    between atoms: N_8  and  C_13
REMARK    5  A    between atoms: C_9  and  C_10
REMARK    6  A    between atoms: C_10  and  C_11
REMARK    7  A    between atoms: C_10  and  O_12
REMARK    8  A    between atoms: C_13  and  C_14
REMARK    9  A    between atoms: C_14  and  C_15
REMARK   10  A    between atoms: C_14  and  O_16
REMARK                            x       y       z     vdW  Elec       q    Type
REMARK                         _______ _______ _______ _____ _____    ______ ____
ROOT
ATOM      1  N   UNL     1      12.686   3.430   8.079  0.00  0.00    +0.000 N 
ENDROOT
BRANCH   1   6
ATOM      2  C   UNL     1      17.722   1.346   9.983  0.00  0.00    +0.000 C 
ATOM      3  C   UNL     1      16.408   1.863   9.482  0.00  0.00    +0.000 A 
ATOM      4  C   UNL     1      16.270   2.316   8.174  0.00  0.00    +0.000 A 
ATOM      5  C   UNL     1      15.044   2.828   7.719  0.00  0.00    +0.000 A 
ATOM      6  C   UNL     1      13.911   2.936   8.545  0.00  0.00    +0.000 A 
ATOM      7  C   UNL     1      14.086   2.467   9.860  0.00  0.00    +0.000 A 
ATOM      8  C   UNL     1      15.306   1.951  10.327  0.00  0.00    +0.000 A 
ENDBRANCH   1   6
BRANCH   1   9
ATOM      9  C   UNL     1      12.093   4.644   8.689  0.00  0.00    +0.000 C 
BRANCH   9  10
ATOM     10  C   UNL     1      11.364   4.351  10.023  0.00  0.00    +0.000 C 
ATOM     11  C   UNL     1      11.691   5.412  11.068  0.00  0.00    +0.000 C 
BRANCH  10  12
ATOM     12  O   UNL     1       9.941   4.333   9.838  0.00  0.00    +0.000 OA
ATOM     13  H   UNL     1       9.642   5.249   9.712  0.00  0.00    +0.000 HD
ENDBRANCH  10  12
ENDBRANCH   9  10
ENDBRANCH   1   9
BRANCH   1  14
ATOM     14  C   UNL     1      11.718   2.548   7.378  0.00  0.00    +0.000 C 
BRANCH  14  15
ATOM     15  C   UNL     1      11.318   3.105   5.991  0.00  0.00    +0.000 C 
ATOM     16  C   UNL     1      12.448   3.042   4.971  0.00  0.00    +0.000 C 
BRANCH  15  17
ATOM     17  O   UNL     1      10.194   2.412   5.449  0.00  0.00    +0.000 OA
ATOM     18  H   UNL     1      10.215   2.610   4.490  0.00  0.00    +0.000 HD
ENDBRANCH  15  17
ENDBRANCH  14  15
ENDBRANCH   1  14
TORSDOF 7
ENDMDL
MODEL 3
REMARK VINA RESULT:    -5.285     14.369     15.760
REMARK INTER + INTRA:          -7.576
REMARK INTER:                  -7.257
REMARK INTRA:                  -0.319
REMARK UNBOUND:                -0.437
REMARK  Name = 
REMARK  10 active torsions:
REMARK  status: ('A' for Active; 'I' for Inactive)
REMARK    1  A    between atoms: C_1  and  C_2
REMARK    2  A    between atoms: C_5  and  N_8
REMARK    3  A    between atoms: N_8  and  C_9
REMARK    4  A    between atoms: N_8  and  C_13
REMARK    5  A    between atoms: C_9  and  C_10
REMARK    6  A    between atoms: C_10  and  C_11
REMARK    7  A    between atoms: C_10  and  O_12
REMARK    8  A    between atoms: C_13  and  C_14
REMARK    9  A    between atoms: C_14  and  C_15
REMARK   10  A    between atoms: C_14  and  O_16
REMARK                            x       y       z     vdW  Elec       q    Type
REMARK                         _______ _______ _______ _____ _____    ______ ____
ROOT
ATOM      1  N   UNL     1      19.176  10.242  -4.220  0.00  0.00    +0.000 N 
ENDROOT
BRANCH   1   6
ATOM      2  C   UNL     1      23.030  10.384   0.076  0.00  0.00    +0.000 C 
ATOM      3  C   UNL     1      22.011  10.347  -1.022  0.00  0.00    +0.000 A 
ATOM      4  C   UNL     1      21.563   9.137  -1.541  0.00  0.00    +0.000 A 
ATOM      5  C   UNL     1      20.631   9.109  -2.590  0.00  0.00    +0.000 A 
ATOM      6  C   UNL     1      20.120  10.277  -3.186  0.00  0.00    +0.000 A 
ATOM      7  C   UNL     1      20.594  11.482  -2.635  0.00  0.00    +0.000 A 
ATOM      8  C   UNL     1      21.524  11.524  -1.584  0.00  0.00    +0.000 A 
ENDBRANCH   1   6
BRANCH   1   9
ATOM      9  C   UNL     1      19.604   9.947  -5.608  0.00  0.00    +0.000 C 
BRANCH   9  10
ATOM     10  C   UNL     1      21.129  10.119  -5.816  0.00  0.00    +0.000 C 
ATOM     11  C   UNL     1      21.682   9.029  -6.726  0.00  0.00    +0.000 C 
BRANCH  10  12
ATOM     12  O   UNL     1      21.427  11.389  -6.412  0.00  0.00    +0.000 OA
ATOM     13  H   UNL     1      20.599  11.760  -6.760  0.00  0.00    +0.000 HD
ENDBRANCH  10  12
ENDBRANCH   9  10
ENDBRANCH   1   9
BRANCH   1  14
ATOM     14  C   UNL     1      17.884  10.966  -4.106  0.00  0.00    +0.000 C 
BRANCH  14  15
ATOM     15  C   UNL     1      16.679   9.999  -4.007  0.00  0.00    +0.000 C 
ATOM     16  C   UNL     1      15.944   9.819  -5.330  0.00  0.00    +0.000 C 
BRANCH  15  17
ATOM     17  O   UNL     1      17.076   8.709  -3.543  0.00  0.00    +0.000 OA
ATOM     18  H   UNL     1      17.573   8.878  -2.718  0.00  0.00    +0.000 HD
ENDBRANCH  15  17
ENDBRANCH  14  15
ENDBRANCH   1  14
TORSDOF 7
ENDMDL
MODEL 4
REMARK VINA RESULT:    -5.185     14.466     15.869
REMARK INTER + INTRA:          -7.441
REMARK INTER:                  -7.208
REMARK INTRA:                  -0.233
REMARK UNBOUND:                -0.437
REMARK  Name = 
REMARK  10 active torsions:
REMARK  status: ('A' for Active; 'I' for Inactive)
REMARK    1  A    between atoms: C_1  and  C_2
REMARK    2  A    between atoms: C_5  and  N_8
REMARK    3  A    between atoms: N_8  and  C_9
REMARK    4  A    between atoms: N_8  and  C_13
REMARK    5  A    between atoms: C_9  and  C_10
REMARK    6  A    between atoms: C_10  and  C_11
REMARK    7  A    between atoms: C_10  and  O_12
REMARK    8  A    between atoms: C_13  and  C_14
REMARK    9  A    between atoms: C_14  and  C_15
REMARK   10  A    between atoms: C_14  and  O_16
REMARK                            x       y       z     vdW  Elec       q    Type
REMARK                         _______ _______ _______ _____ _____    ______ ____
ROOT
ATOM      1  N   UNL     1      19.132  10.204  -4.074  0.00  0.00    +0.000 N 
ENDROOT
BRANCH   1   6
ATOM      2  C   UNL     1      23.114  10.300   0.105  0.00  0.00    +0.000 C 
ATOM      3  C   UNL     1      22.063  10.275  -0.962  0.00  0.00    +0.000 A 
ATOM      4  C   UNL     1      21.587   9.071  -1.469  0.00  0.00    +0.000 A 
ATOM      5  C   UNL     1      20.623   9.054  -2.490  0.00  0.00    +0.000 A 
ATOM      6  C   UNL     1      20.107  10.228  -3.069  0.00  0.00    +0.000 A 
ATOM      7  C   UNL     1      20.610  11.427  -2.531  0.00  0.00    +0.000 A 
ATOM      8  C   UNL     1      21.572  11.458  -1.508  0.00  0.00    +0.000 A 
ENDBRANCH   1   6
BRANCH   1   9
ATOM      9  C   UNL     1      17.728   9.865  -3.740  0.00  0.00    +0.000 C 
BRANCH   9  10
ATOM     10  C   UNL     1      16.702  10.734  -4.506  0.00  0.00    +0.000 C 
ATOM     11  C   UNL     1      15.818   9.873  -5.400  0.00  0.00    +0.000 C 
BRANCH  10  12
ATOM     12  O   UNL     1      15.852  11.449  -3.597  0.00  0.00    +0.000 OA
ATOM     13  H   UNL     1      15.053  11.717  -4.080  0.00  0.00    +0.000 HD
ENDBRANCH  10  12
ENDBRANCH   9  10
ENDBRANCH   1   9
BRANCH   1  14
ATOM     14  C   UNL     1      19.501  10.002  -5.499  0.00  0.00    +0.000 C 
BRANCH  14  15
ATOM     15  C   UNL     1      21.031  10.066  -5.721  0.00  0.00    +0.000 C 
ATOM     16  C   UNL     1      21.534   9.040  -6.730  0.00  0.00    +0.000 C 
BRANCH  15  17
ATOM     17  O   UNL     1      21.446  11.358  -6.161  0.00  0.00    +0.000 OA
ATOM     18  H   UNL     1      21.617  11.862  -5.339  0.00  0.00    +0.000 HD
ENDBRANCH  15  17
ENDBRANCH  14  15
ENDBRANCH   1  14
TORSDOF 7
ENDMDL
MODEL 5
REMARK VINA RESULT:    -5.156      1.690      3.767
REMARK INTER + INTRA:          -7.402
REMARK INTER:                  -6.978
REMARK INTRA:                  -0.423
REMARK UNBOUND:                -0.437
REMARK  Name = 
REMARK  10 active torsions:
REMARK  status: ('A' for Active; 'I' for Inactive)
REMARK    1  A    between atoms: C_1  and  C_2
REMARK    2  A    between atoms: C_5  and  N_8
REMARK    3  A    between atoms: N_8  and  C_9
REMARK    4  A    between atoms: N_8  and  C_13
REMARK    5  A    between atoms: C_9  and  C_10
REMARK    6  A    between atoms: C_10  and  C_11
REMARK    7  A    between atoms: C_10  and  O_12
REMARK    8  A    between atoms: C_13  and  C_14
REMARK    9  A    between atoms: C_14  and  C_15
REMARK   10  A    between atoms: C_14  and  O_16
REMARK                            x       y       z     vdW  Elec       q    Type
REMARK                         _______ _______ _______ _____ _____    ______ ____
ROOT
ATOM      1  N   UNL     1      13.463   3.352   7.684  0.00  0.00    +0.000 N 
ENDROOT
BRANCH   1   6
ATOM      2  C   UNL     1      17.883   0.966  10.530  0.00  0.00    +0.000 C 
ATOM      3  C   UNL     1      16.744   1.608   9.799  0.00  0.00    +0.000 A 
ATOM      4  C   UNL     1      15.508   1.781  10.413  0.00  0.00    +0.000 A 
ATOM      5  C   UNL     1      14.435   2.356   9.713  0.00  0.00    +0.000 A 
ATOM      6  C   UNL     1      14.532   2.762   8.370  0.00  0.00    +0.000 A 
ATOM      7  C   UNL     1      15.796   2.574   7.781  0.00  0.00    +0.000 A 
ATOM      8  C   UNL     1      16.879   2.002   8.471  0.00  0.00    +0.000 A 
ENDBRANCH   1   6
BRANCH   1   9
ATOM      9  C   UNL     1      12.074   2.904   7.945  0.00  0.00    +0.000 C 
BRANCH   9  10
ATOM     10  C   UNL     1      11.292   3.879   8.860  0.00  0.00    +0.000 C 
ATOM     11  C   UNL     1      10.888   3.198  10.162  0.00  0.00    +0.000 C 
BRANCH  10  12
ATOM     12  O   UNL     1      12.087   5.027   9.187  0.00  0.00    +0.000 OA
ATOM     13  H   UNL     1      13.022   4.769   9.141  0.00  0.00    +0.000 HD
ENDBRANCH  10  12
ENDBRANCH   9  10
ENDBRANCH   1   9
BRANCH   1  14
ATOM     14  C   UNL     1      13.667   4.023   6.374  0.00  0.00    +0.000 C 
BRANCH  14  15
ATOM     15  C   UNL     1      13.416   3.067   5.183  0.00  0.00    +0.000 C 
ATOM     16  C   UNL     1      12.381   3.597   4.197  0.00  0.00    +0.000 C 
BRANCH  15  17
ATOM     17  O   UNL     1      14.617   2.799   4.460  0.00  0.00    +0.000 OA
ATOM     18  H   UNL     1      14.904   1.915   4.767  0.00  0.00    +0.000 HD
ENDBRANCH  15  17
ENDBRANCH  14  15
ENDBRANCH   1  14
TORSDOF 7
ENDMDL
MODEL 6
REMARK VINA RESULT:    -5.145      1.745      2.484
REMARK INTER + INTRA:          -7.386
REMARK INTER:                  -6.970
REMARK INTRA:                  -0.416
REMARK UNBOUND:                -0.437
REMARK  Name = 
REMARK  10 active torsions:
REMARK  status: ('A' for Active; 'I' for Inactive)
REMARK    1  A    between atoms: C_1  and  C_2
REMARK    2  A    between atoms: C_5  and  N_8
REMARK    3  A    between atoms: N_8  and  C_9
REMARK    4  A    between atoms: N_8  and  C_13
REMARK    5  A    between atoms: C_9  and  C_10
REMARK    6  A    between atoms: C_10  and  C_11
REMARK    7  A    between atoms: C_10  and  O_12
REMARK    8  A    between atoms: C_13  and  C_14
REMARK    9  A    between atoms: C_14  and  C_15
REMARK   10  A    between atoms: C_14  and  O_16
REMARK                            x       y       z     vdW  Elec       q    Type
REMARK                         _______ _______ _______ _____ _____    ______ ____
ROOT
ATOM      1  N   UNL     1      14.112   3.203   7.882  0.00  0.00    +0.000 N 
ENDROOT
BRANCH   1   6
ATOM      2  C   UNL     1      18.012   0.252  10.949  0.00  0.00    +0.000 C 
ATOM      3  C   UNL     1      17.011   1.039  10.160  0.00  0.00    +0.000 A 
ATOM      4  C   UNL     1      15.795   1.414  10.722  0.00  0.00    +0.000 A 
ATOM      5  C   UNL     1      14.847   2.126   9.968  0.00  0.00    +0.000 A 
ATOM      6  C   UNL     1      15.053   2.476   8.622  0.00  0.00    +0.000 A 
ATOM      7  C   UNL     1      16.294   2.083   8.087  0.00  0.00    +0.000 A 
ATOM      8  C   UNL     1      17.251   1.373   8.830  0.00  0.00    +0.000 A 
ENDBRANCH   1   6
BRANCH   1   9
ATOM      9  C   UNL     1      14.484   3.779   6.567  0.00  0.00    +0.000 C 
BRANCH   9  10
ATOM     10  C   UNL     1      13.853   3.015   5.377  0.00  0.00    +0.000 C 
ATOM     11  C   UNL     1      12.761   3.845   4.713  0.00  0.00    +0.000 C 
BRANCH  10  12
ATOM     12  O   UNL     1      14.841   2.704   4.384  0.00  0.00    +0.000 OA
ATOM     13  H   UNL     1      15.671   3.141   4.637  0.00  0.00    +0.000 HD
ENDBRANCH  10  12
ENDBRANCH   9  10
ENDBRANCH   1   9
BRANCH   1  14
ATOM     14  C   UNL     1      12.950   3.853   8.542  0.00  0.00    +0.000 C 
BRANCH  14  15
ATOM     15  C   UNL     1      11.759   2.881   8.718  0.00  0.00    +0.000 C 
ATOM     16  C   UNL     1      10.878   3.222   9.914  0.00  0.00    +0.000 C 
BRANCH  15  17
ATOM     17  O   UNL     1      10.932   2.846   7.556  0.00  0.00    +0.000 OA
ATOM     18  H   UNL     1      11.496   3.187   6.833  0.00  0.00    +0.000 HD
ENDBRANCH  15  17
ENDBRANCH  14  15
ENDBRANCH   1  14
TORSDOF 7
ENDMDL
MODEL 7
REMARK VINA RESULT:    -5.109      2.115      4.532
REMARK INTER + INTRA:          -7.338
REMARK INTER:                  -7.014
REMARK INTRA:                  -0.324
REMARK UNBOUND:                -0.437
REMARK  Name = 
REMARK  10 active torsions:
REMARK  status: ('A' for Active; 'I' for Inactive)
REMARK    1  A    between atoms: C_1  and  C_2
REMARK    2  A    between atoms: C_5  and  N_8
REMARK    3  A    between atoms: N_8  and  C_9
REMARK    4  A    between atoms: N_8  and  C_13
REMARK    5  A    between atoms: C_9  and  C_10
REMARK    6  A    between atoms: C_10  and  C_11
REMARK    7  A    between atoms: C_10  and  O_12
REMARK    8  A    between atoms: C_13  and  C_14
REMARK    9  A    between atoms: C_14  and  C_15
REMARK   10  A    between atoms: C_14  and  O_16
REMARK                            x       y       z     vdW  Elec       q    Type
REMARK                         _______ _______ _______ _____ _____    ______ ____
ROOT
ATOM      1  N   UNL     1      12.609   3.877   9.139  0.00  0.00    +0.000 N 
ENDROOT
BRANCH   1   6
ATOM      2  C   UNL     1      11.958   2.770   3.511  0.00  0.00    +0.000 C 
ATOM      3  C   UNL     1      12.109   3.076   4.969  0.00  0.00    +0.000 A 
ATOM      4  C   UNL     1      13.070   3.978   5.414  0.00  0.00    +0.000 A 
ATOM      5  C   UNL     1      13.228   4.238   6.785  0.00  0.00    +0.000 A 
ATOM      6  C   UNL     1      12.459   3.599   7.775  0.00  0.00    +0.000 A 
ATOM      7  C   UNL     1      11.497   2.694   7.289  0.00  0.00    +0.000 A 
ATOM      8  C   UNL     1      11.327   2.427   5.920  0.00  0.00    +0.000 A 
ENDBRANCH   1   6
BRANCH   1   9
ATOM      9  C   UNL     1      12.794   2.770  10.108  0.00  0.00    +0.000 C 
BRANCH   9  10
ATOM     10  C   UNL     1      14.261   2.626  10.581  0.00  0.00    +0.000 C 
ATOM     11  C   UNL     1      14.484   1.281  11.263  0.00  0.00    +0.000 C 
BRANCH  10  12
ATOM     12  O   UNL     1      15.170   2.721   9.476  0.00  0.00    +0.000 OA
ATOM     13  H   UNL     1      14.869   2.108   8.785  0.00  0.00    +0.000 HD
ENDBRANCH  10  12
ENDBRANCH   9  10
ENDBRANCH   1   9
BRANCH   1  14
ATOM     14  C   UNL     1      12.097   5.142   9.726  0.00  0.00    +0.000 C 
BRANCH  14  15
ATOM     15  C   UNL     1      10.903   4.901  10.681  0.00  0.00    +0.000 C 
ATOM     16  C   UNL     1      10.350   6.186  11.287  0.00  0.00    +0.000 C 
BRANCH  15  17
ATOM     17  O   UNL     1       9.831   4.225  10.025  0.00  0.00    +0.000 OA
ATOM     18  H   UNL     1      10.008   4.338   9.070  0.00  0.00    +0.000 HD
ENDBRANCH  15  17
ENDBRANCH  14  15
ENDBRANCH   1  14
TORSDOF 7
ENDMDL
MODEL 8
REMARK VINA RESULT:    -4.895      2.621      4.494
REMARK INTER + INTRA:          -7.048
REMARK INTER:                  -6.808
REMARK INTRA:                  -0.241
REMARK UNBOUND:                -0.437
REMARK  Name = 
REMARK  10 active torsions:
REMARK  status: ('A' for Active; 'I' for Inactive)
REMARK    1  A    between atoms: C_1  and  C_2
REMARK    2  A    between atoms: C_5  and  N_8
REMARK    3  A    between atoms: N_8  and  C_9
REMARK    4  A    between atoms: N_8  and  C_13
REMARK    5  A    between atoms: C_9  and  C_10
REMARK    6  A    between atoms: C_10  and  C_11
REMARK    7  A    between atoms: C_10  and  O_12
REMARK    8  A    between atoms: C_13  and  C_14
REMARK    9  A    between atoms: C_14  and  C_15
REMARK   10  A    between atoms: C_14  and  O_16
REMARK                            x       y       z     vdW  Elec       q    Type
REMARK                         _______ _______ _______ _____ _____    ______ ____
ROOT
ATOM      1  N   UNL     1      11.891   3.612   9.439  0.00  0.00    +0.000 N 
ENDROOT
BRANCH   1   6
ATOM      2  C   UNL     1      14.212   3.378   4.158  0.00  0.00    +0.000 C 
ATOM      3  C   UNL     1      13.616   3.463   5.531  0.00  0.00    +0.000 A 
ATOM      4  C   UNL     1      14.362   3.124   6.655  0.00  0.00    +0.000 A 
ATOM      5  C   UNL     1      13.790   3.176   7.936  0.00  0.00    +0.000 A 
ATOM      6  C   UNL     1      12.450   3.543   8.157  0.00  0.00    +0.000 A 
ATOM      7  C   UNL     1      11.727   3.881   6.998  0.00  0.00    +0.000 A 
ATOM      8  C   UNL     1      12.287   3.835   5.711  0.00  0.00    +0.000 A 
ENDBRANCH   1   6
BRANCH   1   9
ATOM      9  C   UNL     1      10.599   4.308   9.651  0.00  0.00    +0.000 C 
BRANCH   9  10
ATOM     10  C   UNL     1      10.627   5.267  10.866  0.00  0.00    +0.000 C 
ATOM     11  C   UNL     1      11.364   6.557  10.526  0.00  0.00    +0.000 C 
BRANCH  10  12
ATOM     12  O   UNL     1       9.297   5.611  11.280  0.00  0.00    +0.000 OA
ATOM     13  H   UNL     1       8.747   5.700  10.484  0.00  0.00    +0.000 HD
ENDBRANCH  10  12
ENDBRANCH   9  10
ENDBRANCH   1   9
BRANCH   1  14
ATOM     14  C   UNL     1      12.736   3.480  10.654  0.00  0.00    +0.000 C 
BRANCH  14  15
ATOM     15  C   UNL     1      12.634   2.071  11.286  0.00  0.00    +0.000 C 
ATOM     16  C   UNL     1      11.327   1.360  10.960  0.00  0.00    +0.000 C 
BRANCH  15  17
ATOM     17  O   UNL     1      13.710   1.229  10.874  0.00  0.00    +0.000 OA
ATOM     18  H   UNL     1      13.416   0.841  10.025  0.00  0.00    +0.000 HD
ENDBRANCH  15  17
ENDBRANCH  14  15
ENDBRANCH   1  14
TORSDOF 7
ENDMDL
MODEL 9
REMARK VINA RESULT:    -4.819      2.047      5.031
REMARK INTER + INTRA:          -6.946
REMARK INTER:                  -6.605
REMARK INTRA:                  -0.341
REMARK UNBOUND:                -0.437
REMARK  Name = 
REMARK  10 active torsions:
REMARK  status: ('A' for Active; 'I' for Inactive)
REMARK    1  A    between atoms: C_1  and  C_2
REMARK    2  A    between atoms: C_5  and  N_8
REMARK    3  A    between atoms: N_8  and  C_9
REMARK    4  A    between atoms: N_8  and  C_13
REMARK    5  A    between atoms: C_9  and  C_10
REMARK    6  A    between atoms: C_10  and  C_11
REMARK    7  A    between atoms: C_10  and  O_12
REMARK    8  A    between atoms: C_13  and  C_14
REMARK    9  A    between atoms: C_14  and  C_15
REMARK   10  A    between atoms: C_14  and  O_16
REMARK                            x       y       z     vdW  Elec       q    Type
REMARK                         _______ _______ _______ _____ _____    ______ ____
ROOT
ATOM      1  N   UNL     1      12.226   3.517   9.270  0.00  0.00    +0.000 N 
ENDROOT
BRANCH   1   6
ATOM      2  C   UNL     1      12.105   3.151   3.510  0.00  0.00    +0.000 C 
ATOM      3  C   UNL     1      12.155   3.229   5.005  0.00  0.00    +0.000 A 
ATOM      4  C   UNL     1      11.337   2.423   5.790  0.00  0.00    +0.000 A 
ATOM      5  C   UNL     1      11.366   2.522   7.191  0.00  0.00    +0.000 A 
ATOM      6  C   UNL     1      12.188   3.437   7.872  0.00  0.00    +0.000 A 
ATOM      7  C   UNL     1      13.003   4.234   7.047  0.00  0.00    +0.000 A 
ATOM      8  C   UNL     1      12.985   4.144   5.646  0.00  0.00    +0.000 A 
ENDBRANCH   1   6
BRANCH   1   9
ATOM      9  C   UNL     1      12.203   4.839   9.940  0.00  0.00    +0.000 C 
BRANCH   9  10
ATOM     10  C   UNL     1      10.934   5.052  10.802  0.00  0.00    +0.000 C 
ATOM     11  C   UNL     1      10.583   6.532  10.898  0.00  0.00    +0.000 C 
BRANCH  10  12
ATOM     12  O   UNL     1       9.809   4.364  10.241  0.00  0.00    +0.000 OA
ATOM     13  H   UNL     1       9.570   3.637  10.840  0.00  0.00    +0.000 HD
ENDBRANCH  10  12
ENDBRANCH   9  10
ENDBRANCH   1   9
BRANCH   1  14
ATOM     14  C   UNL     1      12.790   2.412  10.088  0.00  0.00    +0.000 C 
BRANCH  14  15
ATOM     15  C   UNL     1      14.331   2.497  10.201  0.00  0.00    +0.000 C 
ATOM     16  C   UNL     1      14.903   1.593  11.287  0.00  0.00    +0.000 C 
BRANCH  15  17
ATOM     17  O   UNL     1      14.969   2.165   8.969  0.00  0.00    +0.000 OA
ATOM     18  H   UNL     1      15.616   1.468   9.198  0.00  0.00    +0.000 HD
ENDBRANCH  15  17
ENDBRANCH  14  15
ENDBRANCH   1  14
TORSDOF 7
ENDMDL
