MODEL 1
REMARK VINA RESULT:    -3.605      0.000      0.000
REMARK INTER + INTRA:          -3.973
REMARK INTER:                  -3.921
REMARK INTRA:                  -0.052
REMARK UNBOUND:                -0.052
REMARK  Name = 
REMARK  3 active torsions:
REMARK  status: ('A' for Active; 'I' for Inactive)
REMARK    1  A    between atoms: C_1  and  O_2
REMARK    2  A    between atoms: O_2  and  C_3
REMARK    3  A    between atoms: C_8  and  O_9
REMARK                            x       y       z     vdW  Elec       q    Type
REMARK                         _______ _______ _______ _____ _____    ______ ____
ROOT
ATOM      1  C   UNL     1      -0.183  21.775  -7.843  0.00  0.00    +0.000 A 
ATOM      2  C   UNL     1      -0.321  22.119  -6.499  0.00  0.00    +0.000 A 
ATOM      3  C   UNL     1      -0.101  21.157  -5.505  0.00  0.00    +0.000 A 
ATOM      4  C   UNL     1       0.255  19.852  -5.849  0.00  0.00    +0.000 A 
ATOM      5  C   UNL     1       0.395  19.501  -7.190  0.00  0.00    +0.000 A 
ATOM      6  C   UNL     1       0.175  20.461  -8.169  0.00  0.00    +0.000 A 
ENDROOT
BRANCH   1   8
ATOM      7  C   UNL     1       0.506  23.729  -9.007  0.00  0.00    +0.000 C 
ATOM      8  O   UNL     1      -0.367  22.610  -8.916  0.00  0.00    +0.000 OA
ENDBRANCH   1   8
BRANCH   6   9
ATOM      9  O   UNL     1       0.318  20.093  -9.480  0.00  0.00    +0.000 OA
ATOM     10  H   UNL     1      -0.006  20.859  -9.990  0.00  0.00    +0.000 HD
ENDBRANCH   6   9
TORSDOF 2
ENDMDL
MODEL 2
REMARK VINA RESULT:    -3.486      2.902      3.512
REMARK INTER + INTRA:          -3.844
REMARK INTER:                  -3.796
REMARK INTRA:                  -0.048
REMARK UNBOUND:                -0.052
REMARK  Name = 
REMARK  3 active torsions:
REMARK  status: ('A' for Active; 'I' for Inactive)
REMARK    1  A    between atoms: C_1  and  O_2
REMARK    2  A    between atoms: O_2  and  C_3
REMARK    3  A    between atoms: C_8  and  O_9
REMARK                            x       y       z     vdW  Elec       q    Type
REMARK                         _______ _______ _______ _____ _____    ______ ____
ROOT
ATOM      1  C   UNL     1      -0.896  19.146  -6.633  0.00  0.00    +0.000 A 
ATOM      2  C   UNL     1      -1.947  19.991  -6.279  0.00  0.00    +0.000 A 
ATOM      3  C   UNL     1      -3.114  19.457  -5.717  0.00  0.00    +0.000 A 
ATOM      4  C   UNL     1      -3.234  18.082  -5.508  0.00  0.00    +0.000 A 
ATOM      5  C   UNL     1      -2.188  17.232  -5.858  0.00  0.00    +0.000 A 
ATOM      6  C   UNL     1      -1.034  17.770  -6.416  0.00  0.00    +0.000 A 
ENDROOT
BRANCH   1   8
ATOM      7  C   UNL     1       0.226  20.418  -8.297  0.00  0.00    +0.000 C 
ATOM      8  O   UNL     1       0.298  19.528  -7.190  0.00  0.00    +0.000 OA
ENDBRANCH   1   8
BRANCH   6   9
ATOM      9  O   UNL     1      -0.020  16.915  -6.752  0.00  0.00    +0.000 OA
ATOM     10  H   UNL     1       0.300  17.236  -7.617  0.00  0.00    +0.000 HD
ENDBRANCH   6   9
TORSDOF 2
ENDMDL
MODEL 3
REMARK VINA RESULT:    -3.453      2.935      4.194
REMARK INTER + INTRA:          -3.808
REMARK INTER:                  -3.760
REMARK INTRA:                  -0.048
REMARK UNBOUND:                -0.052
REMARK  Name = 
REMARK  3 active torsions:
REMARK  status: ('A' for Active; 'I' for Inactive)
REMARK    1  A    between atoms: C_1  and  O_2
REMARK    2  A    between atoms: O_2  and  C_3
REMARK    3  A    between atoms: C_8  and  O_9
REMARK                            x       y       z     vdW  Elec       q    Type
REMARK                         _______ _______ _______ _____ _____    ______ ____
ROOT
ATOM      1  C   UNL     1      -1.831  18.640  -6.318  0.00  0.00    +0.000 A 
ATOM      2  C   UNL     1      -2.322  19.901  -5.982  0.00  0.00    +0.000 A 
ATOM      3  C   UNL     1      -1.464  21.007  -5.975  0.00  0.00    +0.000 A 
ATOM      4  C   UNL     1      -0.114  20.858  -6.301  0.00  0.00    +0.000 A 
ATOM      5  C   UNL     1       0.384  19.602  -6.638  0.00  0.00    +0.000 A 
ATOM      6  C   UNL     1      -0.475  18.510  -6.643  0.00  0.00    +0.000 A 
ENDROOT
BRANCH   1   8
ATOM      7  C   UNL     1      -3.363  17.183  -5.233  0.00  0.00    +0.000 C 
ATOM      8  O   UNL     1      -2.554  17.475  -6.365  0.00  0.00    +0.000 OA
ENDBRANCH   1   8
BRANCH   6   9
ATOM      9  O   UNL     1       0.037  17.285  -6.977  0.00  0.00    +0.000 OA
ATOM     10  H   UNL     1       0.930  17.476  -7.323  0.00  0.00    +0.000 HD
ENDBRANCH   6   9
TORSDOF 2
ENDMDL
MODEL 4
REMARK VINA RESULT:    -3.427      1.081      2.302
REMARK INTER + INTRA:          -3.780
REMARK INTER:                  -3.737
REMARK INTRA:                  -0.043
REMARK UNBOUND:                -0.052
REMARK  Name = 
REMARK  3 active torsions:
REMARK  status: ('A' for Active; 'I' for Inactive)
REMARK    1  A    between atoms: C_1  and  O_2
REMARK    2  A    between atoms: O_2  and  C_3
REMARK    3  A    between atoms: C_8  and  O_9
REMARK                            x       y       z     vdW  Elec       q    Type
REMARK                         _______ _______ _______ _____ _____    ______ ____
ROOT
ATOM      1  C   UNL     1      -0.313  21.568  -7.905  0.00  0.00    +0.000 A 
ATOM      2  C   UNL     1       0.123  20.270  -8.167  0.00  0.00    +0.000 A 
ATOM      3  C   UNL     1       0.441  19.412  -7.107  0.00  0.00    +0.000 A 
ATOM      4  C   UNL     1       0.325  19.846  -5.785  0.00  0.00    +0.000 A 
ATOM      5  C   UNL     1      -0.110  21.141  -5.516  0.00  0.00    +0.000 A 
ATOM      6  C   UNL     1      -0.423  21.986  -6.573  0.00  0.00    +0.000 A 
ENDROOT
BRANCH   1   8
ATOM      7  C   UNL     1       0.108  22.525 -10.039  0.00  0.00    +0.000 C 
ATOM      8  O   UNL     1      -0.655  22.513  -8.839  0.00  0.00    +0.000 OA
ENDBRANCH   1   8
BRANCH   6   9
ATOM      9  O   UNL     1      -0.848  23.255  -6.283  0.00  0.00    +0.000 OA
ATOM     10  H   UNL     1      -0.067  23.820  -6.434  0.00  0.00    +0.000 HD
ENDBRANCH   6   9
TORSDOF 2
ENDMDL
MODEL 5
REMARK VINA RESULT:    -3.424      3.687      4.398
REMARK INTER + INTRA:          -3.776
REMARK INTER:                  -3.737
REMARK INTRA:                  -0.039
REMARK UNBOUND:                -0.052
REMARK  Name = 
REMARK  3 active torsions:
REMARK  status: ('A' for Active; 'I' for Inactive)
REMARK    1  A    between atoms: C_1  and  O_2
REMARK    2  A    between atoms: O_2  and  C_3
REMARK    3  A    between atoms: C_8  and  O_9
REMARK                            x       y       z     vdW  Elec       q    Type
REMARK                         _______ _______ _______ _____ _____    ______ ____
ROOT
ATOM      1  C   UNL     1      -2.597  19.181  -5.794  0.00  0.00    +0.000 A 
ATOM      2  C   UNL     1      -1.615  20.122  -6.099  0.00  0.00    +0.000 A 
ATOM      3  C   UNL     1      -0.332  19.700  -6.470  0.00  0.00    +0.000 A 
ATOM      4  C   UNL     1      -0.026  18.339  -6.536  0.00  0.00    +0.000 A 
ATOM      5  C   UNL     1      -1.002  17.392  -6.234  0.00  0.00    +0.000 A 
ATOM      6  C   UNL     1      -2.272  17.820  -5.866  0.00  0.00    +0.000 A 
ENDROOT
BRANCH   1   8
ATOM      7  C   UNL     1      -4.144  20.753  -4.911  0.00  0.00    +0.000 C 
ATOM      8  O   UNL     1      -3.888  19.449  -5.417  0.00  0.00    +0.000 OA
ENDBRANCH   1   8
BRANCH   6   9
ATOM      9  O   UNL     1      -3.214  16.871  -5.573  0.00  0.00    +0.000 OA
ATOM     10  H   UNL     1      -4.041  17.213  -5.965  0.00  0.00    +0.000 HD
ENDBRANCH   6   9
TORSDOF 2
ENDMDL
MODEL 6
REMARK VINA RESULT:    -3.415      2.811      3.832
REMARK INTER + INTRA:          -3.766
REMARK INTER:                  -3.725
REMARK INTRA:                  -0.042
REMARK UNBOUND:                -0.052
REMARK  Name = 
REMARK  3 active torsions:
REMARK  status: ('A' for Active; 'I' for Inactive)
REMARK    1  A    between atoms: C_1  and  O_2
REMARK    2  A    between atoms: O_2  and  C_3
REMARK    3  A    between atoms: C_8  and  O_9
REMARK                            x       y       z     vdW  Elec       q    Type
REMARK                         _______ _______ _______ _____ _____    ______ ____
ROOT
ATOM      1  C   UNL     1      -2.096  20.102  -5.945  0.00  0.00    +0.000 A 
ATOM      2  C   UNL     1      -2.449  18.771  -6.159  0.00  0.00    +0.000 A 
ATOM      3  C   UNL     1      -1.457  17.817  -6.419  0.00  0.00    +0.000 A 
ATOM      4  C   UNL     1      -0.112  18.190  -6.467  0.00  0.00    +0.000 A 
ATOM      5  C   UNL     1       0.248  19.518  -6.254  0.00  0.00    +0.000 A 
ATOM      6  C   UNL     1      -0.742  20.457  -5.997  0.00  0.00    +0.000 A 
ENDROOT
BRANCH   1   8
ATOM      7  C   UNL     1      -4.131  20.815  -4.946  0.00  0.00    +0.000 C 
ATOM      8  O   UNL     1      -2.957  21.137  -5.682  0.00  0.00    +0.000 OA
ENDBRANCH   1   8
BRANCH   6   9
ATOM      9  O   UNL     1      -0.364  21.757  -5.791  0.00  0.00    +0.000 OA
ATOM     10  H   UNL     1      -0.635  22.227  -6.602  0.00  0.00    +0.000 HD
ENDBRANCH   6   9
TORSDOF 2
ENDMDL
MODEL 7
REMARK VINA RESULT:    -3.404     15.062     16.192
REMARK INTER + INTRA:          -3.755
REMARK INTER:                  -3.702
REMARK INTRA:                  -0.053
REMARK UNBOUND:                -0.052
REMARK  Name = 
REMARK  3 active torsions:
REMARK  status: ('A' for Active; 'I' for Inactive)
REMARK    1  A    between atoms: C_1  and  O_2
REMARK    2  A    between atoms: O_2  and  C_3
REMARK    3  A    between atoms: C_8  and  O_9
REMARK                            x       y       z     vdW  Elec       q    Type
REMARK                         _______ _______ _______ _____ _____    ______ ____
ROOT
ATOM      1  C   UNL     1       7.830  21.182   6.666  0.00  0.00    +0.000 A 
ATOM      2  C   UNL     1       9.109  21.475   7.136  0.00  0.00    +0.000 A 
ATOM      3  C   UNL     1      10.012  22.169   6.320  0.00  0.00    +0.000 A 
ATOM      4  C   UNL     1       9.641  22.570   5.035  0.00  0.00    +0.000 A 
ATOM      5  C   UNL     1       8.364  22.281   4.559  0.00  0.00    +0.000 A 
ATOM      6  C   UNL     1       7.475  21.592   5.375  0.00  0.00    +0.000 A 
ENDROOT
BRANCH   1   8
ATOM      7  C   UNL     1       7.089  19.137   7.623  0.00  0.00    +0.000 C 
ATOM      8  O   UNL     1       6.848  20.512   7.352  0.00  0.00    +0.000 OA
ENDBRANCH   1   8
BRANCH   6   9
ATOM      9  O   UNL     1       6.226  21.320   4.885  0.00  0.00    +0.000 OA
ATOM     10  H   UNL     1       5.616  21.792   5.484  0.00  0.00    +0.000 HD
ENDBRANCH   6   9
TORSDOF 2
ENDMDL
MODEL 8
REMARK VINA RESULT:    -3.332      2.541      3.243
REMARK INTER + INTRA:          -3.676
REMARK INTER:                  -3.633
REMARK INTRA:                  -0.043
REMARK UNBOUND:                -0.052
REMARK  Name = 
REMARK  3 active torsions:
REMARK  status: ('A' for Active; 'I' for Inactive)
REMARK    1  A    between atoms: C_1  and  O_2
REMARK    2  A    between atoms: O_2  and  C_3
REMARK    3  A    between atoms: C_8  and  O_9
REMARK                            x       y       z     vdW  Elec       q    Type
REMARK                         _______ _______ _______ _____ _____    ______ ____
ROOT
ATOM      1  C   UNL     1      -0.834  20.466  -6.021  0.00  0.00    +0.000 A 
ATOM      2  C   UNL     1       0.156  19.522  -6.285  0.00  0.00    +0.000 A 
ATOM      3  C   UNL     1      -0.190  18.176  -6.463  0.00  0.00    +0.000 A 
ATOM      4  C   UNL     1      -1.523  17.771  -6.378  0.00  0.00    +0.000 A 
ATOM      5  C   UNL     1      -2.519  18.709  -6.114  0.00  0.00    +0.000 A 
ATOM      6  C   UNL     1      -2.166  20.041  -5.938  0.00  0.00    +0.000 A 
ENDROOT
BRANCH   1   8
ATOM      7  C   UNL     1      -0.352  22.586  -6.981  0.00  0.00    +0.000 C 
ATOM      8  O   UNL     1      -0.641  21.810  -5.824  0.00  0.00    +0.000 OA
ENDBRANCH   1   8
BRANCH   6   9
ATOM      9  O   UNL     1      -3.162  20.945  -5.680  0.00  0.00    +0.000 OA
ATOM     10  H   UNL     1      -3.921  20.637  -6.211  0.00  0.00    +0.000 HD
ENDBRANCH   6   9
TORSDOF 2
ENDMDL
MODEL 9
REMARK VINA RESULT:    -3.259     14.760     15.697
REMARK INTER + INTRA:          -3.597
REMARK INTER:                  -3.545
REMARK INTRA:                  -0.052
REMARK UNBOUND:                -0.052
REMARK  Name = 
REMARK  3 active torsions:
REMARK  status: ('A' for Active; 'I' for Inactive)
REMARK    1  A    between atoms: C_1  and  O_2
REMARK    2  A    between atoms: O_2  and  C_3
REMARK    3  A    between atoms: C_8  and  O_9
REMARK                            x       y       z     vdW  Elec       q    Type
REMARK                         _______ _______ _______ _____ _____    ______ ____
ROOT
ATOM      1  C   UNL     1       8.463  22.189   5.313  0.00  0.00    +0.000 A 
ATOM      2  C   UNL     1       9.529  22.131   6.209  0.00  0.00    +0.000 A 
ATOM      3  C   UNL     1       9.455  21.297   7.332  0.00  0.00    +0.000 A 
ATOM      4  C   UNL     1       8.318  20.520   7.562  0.00  0.00    +0.000 A 
ATOM      5  C   UNL     1       7.249  20.571   6.671  0.00  0.00    +0.000 A 
ATOM      6  C   UNL     1       7.331  21.402   5.561  0.00  0.00    +0.000 A 
ENDROOT
BRANCH   1   8
ATOM      7  C   UNL     1       8.446  24.367   4.364  0.00  0.00    +0.000 C 
ATOM      8  O   UNL     1       8.397  22.958   4.179  0.00  0.00    +0.000 OA
ENDBRANCH   1   8
BRANCH   6   9
ATOM      9  O   UNL     1       6.267  21.436   4.699  0.00  0.00    +0.000 OA
ATOM     10  H   UNL     1       6.604  21.898   3.907  0.00  0.00    +0.000 HD
ENDBRANCH   6   9
TORSDOF 2
ENDMDL
