MODEL 1
REMARK VINA RESULT:    -3.614      0.000      0.000
REMARK INTER + INTRA:          -3.983
REMARK INTER:                  -3.931
REMARK INTRA:                  -0.052
REMARK UNBOUND:                -0.052
REMARK  Name = 
REMARK  3 active torsions:
REMARK  status: ('A' for Active; 'I' for Inactive)
REMARK    1  A    between atoms: C_1  and  O_2
REMARK    2  A    between atoms: O_2  and  C_3
REMARK    3  A    between atoms: C_8  and  O_9
REMARK                            x       y       z     vdW  Elec       q    Type
REMARK                         _______ _______ _______ _____ _____    ______ ____
ROOT
ATOM      1  C   UNL     1      -0.159  21.807  -7.887  0.00  0.00    +0.000 A 
ATOM      2  C   UNL     1      -0.338  22.149  -6.547  0.00  0.00    +0.000 A 
ATOM      3  C   UNL     1      -0.143  21.187  -5.548  0.00  0.00    +0.000 A 
ATOM      4  C   UNL     1       0.230  19.884  -5.883  0.00  0.00    +0.000 A 
ATOM      5  C   UNL     1       0.412  19.535  -7.219  0.00  0.00    +0.000 A 
ATOM      6  C   UNL     1       0.216  20.495  -8.204  0.00  0.00    +0.000 A 
ENDROOT
BRANCH   1   8
ATOM      7  C   UNL     1       0.525  23.788  -9.007  0.00  0.00    +0.000 C 
ATOM      8  O   UNL     1      -0.315  22.641  -8.965  0.00  0.00    +0.000 OA
ENDBRANCH   1   8
BRANCH   6   9
ATOM      9  O   UNL     1       0.400  20.129  -9.510  0.00  0.00    +0.000 OA
ATOM     10  H   UNL     1       0.629  19.181  -9.472  0.00  0.00    +0.000 HD
ENDBRANCH   6   9
TORSDOF 2
ENDMDL
MODEL 2
REMARK VINA RESULT:    -3.491      2.916      3.548
REMARK INTER + INTRA:          -3.848
REMARK INTER:                  -3.800
REMARK INTRA:                  -0.048
REMARK UNBOUND:                -0.052
REMARK  Name = 
REMARK  3 active torsions:
REMARK  status: ('A' for Active; 'I' for Inactive)
REMARK    1  A    between atoms: C_1  and  O_2
REMARK    2  A    between atoms: O_2  and  C_3
REMARK    3  A    between atoms: C_8  and  O_9
REMARK                            x       y       z     vdW  Elec       q    Type
REMARK                         _______ _______ _______ _____ _____    ______ ____
ROOT
ATOM      1  C   UNL     1      -0.881  19.146  -6.610  0.00  0.00    +0.000 A 
ATOM      2  C   UNL     1      -1.930  19.991  -6.251  0.00  0.00    +0.000 A 
ATOM      3  C   UNL     1      -3.104  19.457  -5.705  0.00  0.00    +0.000 A 
ATOM      4  C   UNL     1      -3.233  18.079  -5.516  0.00  0.00    +0.000 A 
ATOM      5  C   UNL     1      -2.189  17.229  -5.871  0.00  0.00    +0.000 A 
ATOM      6  C   UNL     1      -1.028  17.767  -6.412  0.00  0.00    +0.000 A 
ENDROOT
BRANCH   1   8
ATOM      7  C   UNL     1       0.260  20.417  -8.262  0.00  0.00    +0.000 C 
ATOM      8  O   UNL     1       0.320  19.529  -7.153  0.00  0.00    +0.000 OA
ENDBRANCH   1   8
BRANCH   6   9
ATOM      9  O   UNL     1      -0.016  16.911  -6.753  0.00  0.00    +0.000 OA
ATOM     10  H   UNL     1       0.785  17.469  -6.773  0.00  0.00    +0.000 HD
ENDBRANCH   6   9
TORSDOF 2
ENDMDL
MODEL 3
REMARK VINA RESULT:    -3.489      3.042      4.289
REMARK INTER + INTRA:          -3.847
REMARK INTER:                  -3.797
REMARK INTRA:                  -0.049
REMARK UNBOUND:                -0.052
REMARK  Name = 
REMARK  3 active torsions:
REMARK  status: ('A' for Active; 'I' for Inactive)
REMARK    1  A    between atoms: C_1  and  O_2
REMARK    2  A    between atoms: O_2  and  C_3
REMARK    3  A    between atoms: C_8  and  O_9
REMARK                            x       y       z     vdW  Elec       q    Type
REMARK                         _______ _______ _______ _____ _____    ______ ____
ROOT
ATOM      1  C   UNL     1      -1.923  18.610  -6.287  0.00  0.00    +0.000 A 
ATOM      2  C   UNL     1      -2.371  19.891  -5.969  0.00  0.00    +0.000 A 
ATOM      3  C   UNL     1      -1.457  20.948  -5.873  0.00  0.00    +0.000 A 
ATOM      4  C   UNL     1      -0.096  20.729  -6.092  0.00  0.00    +0.000 A 
ATOM      5  C   UNL     1       0.360  19.451  -6.410  0.00  0.00    +0.000 A 
ATOM      6  C   UNL     1      -0.554  18.409  -6.503  0.00  0.00    +0.000 A 
ENDROOT
BRANCH   1   8
ATOM      7  C   UNL     1      -3.574  17.194  -5.329  0.00  0.00    +0.000 C 
ATOM      8  O   UNL     1      -2.701  17.487  -6.414  0.00  0.00    +0.000 OA
ENDBRANCH   1   8
BRANCH   6   9
ATOM      9  O   UNL     1      -0.082  17.162  -6.817  0.00  0.00    +0.000 OA
ATOM     10  H   UNL     1       0.890  17.253  -6.802  0.00  0.00    +0.000 HD
ENDBRANCH   6   9
TORSDOF 2
ENDMDL
MODEL 4
REMARK VINA RESULT:    -3.415      3.747      4.466
REMARK INTER + INTRA:          -3.766
REMARK INTER:                  -3.725
REMARK INTRA:                  -0.041
REMARK UNBOUND:                -0.052
REMARK  Name = 
REMARK  3 active torsions:
REMARK  status: ('A' for Active; 'I' for Inactive)
REMARK    1  A    between atoms: C_1  and  O_2
REMARK    2  A    between atoms: O_2  and  C_3
REMARK    3  A    between atoms: C_8  and  O_9
REMARK                            x       y       z     vdW  Elec       q    Type
REMARK                         _______ _______ _______ _____ _____    ______ ____
ROOT
ATOM      1  C   UNL     1      -2.680  19.170  -5.916  0.00  0.00    +0.000 A 
ATOM      2  C   UNL     1      -1.698  20.109  -6.229  0.00  0.00    +0.000 A 
ATOM      3  C   UNL     1      -0.400  19.686  -6.542  0.00  0.00    +0.000 A 
ATOM      4  C   UNL     1      -0.079  18.327  -6.542  0.00  0.00    +0.000 A 
ATOM      5  C   UNL     1      -1.055  17.383  -6.230  0.00  0.00    +0.000 A 
ATOM      6  C   UNL     1      -2.339  17.812  -5.921  0.00  0.00    +0.000 A 
ENDROOT
BRANCH   1   8
ATOM      7  C   UNL     1      -4.234  20.682  -4.944  0.00  0.00    +0.000 C 
ATOM      8  O   UNL     1      -3.985  19.440  -5.590  0.00  0.00    +0.000 OA
ENDBRANCH   1   8
BRANCH   6   9
ATOM      9  O   UNL     1      -3.282  16.866  -5.617  0.00  0.00    +0.000 OA
ATOM     10  H   UNL     1      -3.495  17.020  -4.677  0.00  0.00    +0.000 HD
ENDBRANCH   6   9
TORSDOF 2
ENDMDL
MODEL 5
REMARK VINA RESULT:    -3.411      1.102      2.311
REMARK INTER + INTRA:          -3.762
REMARK INTER:                  -3.717
REMARK INTRA:                  -0.045
REMARK UNBOUND:                -0.052
REMARK  Name = 
REMARK  3 active torsions:
REMARK  status: ('A' for Active; 'I' for Inactive)
REMARK    1  A    between atoms: C_1  and  O_2
REMARK    2  A    between atoms: O_2  and  C_3
REMARK    3  A    between atoms: C_8  and  O_9
REMARK                            x       y       z     vdW  Elec       q    Type
REMARK                         _______ _______ _______ _____ _____    ______ ____
ROOT
ATOM      1  C   UNL     1      -0.399  21.578  -7.931  0.00  0.00    +0.000 A 
ATOM      2  C   UNL     1       0.053  20.291  -8.218  0.00  0.00    +0.000 A 
ATOM      3  C   UNL     1       0.391  19.420  -7.175  0.00  0.00    +0.000 A 
ATOM      4  C   UNL     1       0.280  19.830  -5.845  0.00  0.00    +0.000 A 
ATOM      5  C   UNL     1      -0.171  21.115  -5.551  0.00  0.00    +0.000 A 
ATOM      6  C   UNL     1      -0.504  21.973  -6.591  0.00  0.00    +0.000 A 
ENDROOT
BRANCH   1   8
ATOM      7  C   UNL     1       0.065  22.656  -9.998  0.00  0.00    +0.000 C 
ATOM      8  O   UNL     1      -0.762  22.533  -8.847  0.00  0.00    +0.000 OA
ENDBRANCH   1   8
BRANCH   6   9
ATOM      9  O   UNL     1      -0.944  23.231  -6.277  0.00  0.00    +0.000 OA
ATOM     10  H   UNL     1      -1.083  23.668  -7.139  0.00  0.00    +0.000 HD
ENDBRANCH   6   9
TORSDOF 2
ENDMDL
MODEL 6
REMARK VINA RESULT:    -3.408      2.818      3.854
REMARK INTER + INTRA:          -3.758
REMARK INTER:                  -3.716
REMARK INTRA:                  -0.043
REMARK UNBOUND:                -0.052
REMARK  Name = 
REMARK  3 active torsions:
REMARK  status: ('A' for Active; 'I' for Inactive)
REMARK    1  A    between atoms: C_1  and  O_2
REMARK    2  A    between atoms: O_2  and  C_3
REMARK    3  A    between atoms: C_8  and  O_9
REMARK                            x       y       z     vdW  Elec       q    Type
REMARK                         _______ _______ _______ _____ _____    ______ ____
ROOT
ATOM      1  C   UNL     1      -2.051  20.059  -5.979  0.00  0.00    +0.000 A 
ATOM      2  C   UNL     1      -2.408  18.732  -6.215  0.00  0.00    +0.000 A 
ATOM      3  C   UNL     1      -1.417  17.772  -6.454  0.00  0.00    +0.000 A 
ATOM      4  C   UNL     1      -0.068  18.134  -6.457  0.00  0.00    +0.000 A 
ATOM      5  C   UNL     1       0.297  19.457  -6.222  0.00  0.00    +0.000 A 
ATOM      6  C   UNL     1      -0.694  20.403  -5.987  0.00  0.00    +0.000 A 
ENDROOT
BRANCH   1   8
ATOM      7  C   UNL     1      -4.083  20.791  -4.988  0.00  0.00    +0.000 C 
ATOM      8  O   UNL     1      -2.911  21.099  -5.733  0.00  0.00    +0.000 OA
ENDBRANCH   1   8
BRANCH   6   9
ATOM      9  O   UNL     1      -0.310  21.697  -5.758  0.00  0.00    +0.000 OA
ATOM     10  H   UNL     1      -0.793  22.221  -6.426  0.00  0.00    +0.000 HD
ENDBRANCH   6   9
TORSDOF 2
ENDMDL
MODEL 7
REMARK VINA RESULT:    -3.406     15.115     16.219
REMARK INTER + INTRA:          -3.756
REMARK INTER:                  -3.704
REMARK INTRA:                  -0.053
REMARK UNBOUND:                -0.052
REMARK  Name = 
REMARK  3 active torsions:
REMARK  status: ('A' for Active; 'I' for Inactive)
REMARK    1  A    between atoms: C_1  and  O_2
REMARK    2  A    between atoms: O_2  and  C_3
REMARK    3  A    between atoms: C_8  and  O_9
REMARK                            x       y       z     vdW  Elec       q    Type
REMARK                         _______ _______ _______ _____ _____    ______ ____
ROOT
ATOM      1  C   UNL     1       7.831  21.178   6.663  0.00  0.00    +0.000 A 
ATOM      2  C   UNL     1       9.113  21.455   7.135  0.00  0.00    +0.000 A 
ATOM      3  C   UNL     1      10.023  22.145   6.325  0.00  0.00    +0.000 A 
ATOM      4  C   UNL     1       9.657  22.559   5.043  0.00  0.00    +0.000 A 
ATOM      5  C   UNL     1       8.378  22.287   4.564  0.00  0.00    +0.000 A 
ATOM      6  C   UNL     1       7.481  21.602   5.374  0.00  0.00    +0.000 A 
ENDROOT
BRANCH   1   8
ATOM      7  C   UNL     1       7.080  19.141   7.629  0.00  0.00    +0.000 C 
ATOM      8  O   UNL     1       6.842  20.514   7.343  0.00  0.00    +0.000 OA
ENDBRANCH   1   8
BRANCH   6   9
ATOM      9  O   UNL     1       6.230  21.345   4.882  0.00  0.00    +0.000 OA
ATOM     10  H   UNL     1       6.315  20.489   4.421  0.00  0.00    +0.000 HD
ENDBRANCH   6   9
TORSDOF 2
ENDMDL
MODEL 8
REMARK VINA RESULT:    -3.257     14.904     15.813
REMARK INTER + INTRA:          -3.595
REMARK INTER:                  -3.543
REMARK INTRA:                  -0.051
REMARK UNBOUND:                -0.052
REMARK  Name = 
REMARK  3 active torsions:
REMARK  status: ('A' for Active; 'I' for Inactive)
REMARK    1  A    between atoms: C_1  and  O_2
REMARK    2  A    between atoms: O_2  and  C_3
REMARK    3  A    between atoms: C_8  and  O_9
REMARK                            x       y       z     vdW  Elec       q    Type
REMARK                         _______ _______ _______ _____ _____    ______ ____
ROOT
ATOM      1  C   UNL     1       8.487  22.163   5.362  0.00  0.00    +0.000 A 
ATOM      2  C   UNL     1       9.597  22.142   6.206  0.00  0.00    +0.000 A 
ATOM      3  C   UNL     1       9.589  21.338   7.353  0.00  0.00    +0.000 A 
ATOM      4  C   UNL     1       8.475  20.555   7.660  0.00  0.00    +0.000 A 
ATOM      5  C   UNL     1       7.362  20.570   6.822  0.00  0.00    +0.000 A 
ATOM      6  C   UNL     1       7.379  21.371   5.687  0.00  0.00    +0.000 A 
ENDROOT
BRANCH   1   8
ATOM      7  C   UNL     1       8.518  24.307   4.338  0.00  0.00    +0.000 C 
ATOM      8  O   UNL     1       8.356  22.899   4.212  0.00  0.00    +0.000 OA
ENDBRANCH   1   8
BRANCH   6   9
ATOM      9  O   UNL     1       6.274  21.369   4.879  0.00  0.00    +0.000 OA
ATOM     10  H   UNL     1       5.552  21.703   5.444  0.00  0.00    +0.000 HD
ENDBRANCH   6   9
TORSDOF 2
ENDMDL
MODEL 9
REMARK VINA RESULT:    -3.186      3.264      4.600
REMARK INTER + INTRA:          -3.517
REMARK INTER:                  -3.471
REMARK INTRA:                  -0.046
REMARK UNBOUND:                -0.052
REMARK  Name = 
REMARK  3 active torsions:
REMARK  status: ('A' for Active; 'I' for Inactive)
REMARK    1  A    between atoms: C_1  and  O_2
REMARK    2  A    between atoms: O_2  and  C_3
REMARK    3  A    between atoms: C_8  and  O_9
REMARK                            x       y       z     vdW  Elec       q    Type
REMARK                         _______ _______ _______ _____ _____    ______ ____
ROOT
ATOM      1  C   UNL     1      -2.401  18.971  -6.231  0.00  0.00    +0.000 A 
ATOM      2  C   UNL     1      -1.430  17.996  -6.453  0.00  0.00    +0.000 A 
ATOM      3  C   UNL     1      -0.072  18.337  -6.404  0.00  0.00    +0.000 A 
ATOM      4  C   UNL     1       0.318  19.650  -6.135  0.00  0.00    +0.000 A 
ATOM      5  C   UNL     1      -0.647  20.629  -5.912  0.00  0.00    +0.000 A 
ATOM      6  C   UNL     1      -1.991  20.282  -5.962  0.00  0.00    +0.000 A 
ENDROOT
BRANCH   1   8
ATOM      7  C   UNL     1      -4.249  17.629  -5.572  0.00  0.00    +0.000 C 
ATOM      8  O   UNL     1      -3.760  18.781  -6.249  0.00  0.00    +0.000 OA
ENDBRANCH   1   8
BRANCH   6   9
ATOM      9  O   UNL     1      -2.921  21.262  -5.740  0.00  0.00    +0.000 OA
ATOM     10  H   UNL     1      -3.750  20.908  -6.114  0.00  0.00    +0.000 HD
ENDBRANCH   6   9
TORSDOF 2
ENDMDL
