MODEL 1
REMARK VINA RESULT:    -4.028      0.000      0.000
REMARK INTER + INTRA:          -6.025
REMARK INTER:                  -5.442
REMARK INTRA:                  -0.584
REMARK UNBOUND:                -0.584
REMARK  Name = 
REMARK  10 active torsions:
REMARK  status: ('A' for Active; 'I' for Inactive)
REMARK    1  A    between atoms: C_1  and  C_2
REMARK    2  A    between atoms: C_5  and  N_8
REMARK    3  A    between atoms: N_8  and  C_9
REMARK    4  A    between atoms: N_8  and  C_13
REMARK    5  A    between atoms: C_9  and  C_10
REMARK    6  A    between atoms: C_10  and  C_11
REMARK    7  A    between atoms: C_10  and  O_12
REMARK    8  A    between atoms: C_13  and  C_14
REMARK    9  A    between atoms: C_14  and  C_15
REMARK   10  A    between atoms: C_14  and  O_16
REMARK                            x       y       z     vdW  Elec       q    Type
REMARK                         _______ _______ _______ _____ _____    ______ ____
ROOT
ATOM      1  N   UNL     1      15.274  10.347  12.718  0.00  0.00    +0.000 N 
ENDROOT
BRANCH   1   6
ATOM      2  C   UNL     1      15.548   8.641  18.227  0.00  0.00    +0.000 C 
ATOM      3  C   UNL     1      15.498   9.097  16.801  0.00  0.00    +0.000 A 
ATOM      4  C   UNL     1      14.766  10.223  16.437  0.00  0.00    +0.000 A 
ATOM      5  C   UNL     1      14.698  10.629  15.094  0.00  0.00    +0.000 A 
ATOM      6  C   UNL     1      15.330   9.925  14.053  0.00  0.00    +0.000 A 
ATOM      7  C   UNL     1      16.062   8.794  14.458  0.00  0.00    +0.000 A 
ATOM      8  C   UNL     1      16.140   8.378  15.797  0.00  0.00    +0.000 A 
ENDBRANCH   1   6
BRANCH   1   9
ATOM      9  C   UNL     1      16.502  10.351  11.888  0.00  0.00    +0.000 C 
BRANCH   9  10
ATOM     10  C   UNL     1      16.220  10.679  10.401  0.00  0.00    +0.000 C 
ATOM     11  C   UNL     1      17.498  11.098   9.683  0.00  0.00    +0.000 C 
BRANCH  10  12
ATOM     12  O   UNL     1      15.679   9.541   9.716  0.00  0.00    +0.000 OA
ATOM     13  H   UNL     1      14.976   9.163  10.270  0.00  0.00    +0.000 HD
ENDBRANCH  10  12
ENDBRANCH   9  10
ENDBRANCH   1   9
BRANCH   1  14
ATOM     14  C   UNL     1      14.195  11.250  12.242  0.00  0.00    +0.000 C 
BRANCH  14  15
ATOM     15  C   UNL     1      12.978  10.467  11.693  0.00  0.00    +0.000 C 
ATOM     16  C   UNL     1      12.447  11.030  10.380  0.00  0.00    +0.000 C 
BRANCH  15  17
ATOM     17  O   UNL     1      13.285   9.089  11.491  0.00  0.00    +0.000 OA
ATOM     18  H   UNL     1      13.100   8.924  10.545  0.00  0.00    +0.000 HD
ENDBRANCH  15  17
ENDBRANCH  14  15
ENDBRANCH   1  14
TORSDOF 7
ENDMDL
MODEL 2
REMARK VINA RESULT:    -3.752      5.562      9.030
REMARK INTER + INTRA:          -5.652
REMARK INTER:                  -5.150
REMARK INTRA:                  -0.502
REMARK UNBOUND:                -0.584
REMARK  Name = 
REMARK  10 active torsions:
REMARK  status: ('A' for Active; 'I' for Inactive)
REMARK    1  A    between atoms: C_1  and  C_2
REMARK    2  A    between atoms: C_5  and  N_8
REMARK    3  A    between atoms: N_8  and  C_9
REMARK    4  A    between atoms: N_8  and  C_13
REMARK    5  A    between atoms: C_9  and  C_10
REMARK    6  A    between atoms: C_10  and  C_11
REMARK    7  A    between atoms: C_10  and  O_12
REMARK    8  A    between atoms: C_13  and  C_14
REMARK    9  A    between atoms: C_14  and  C_15
REMARK   10  A    between atoms: C_14  and  O_16
REMARK                            x       y       z     vdW  Elec       q    Type
REMARK                         _______ _______ _______ _____ _____    ______ ____
ROOT
ATOM      1  N   UNL     1      16.538   7.675  20.601  0.00  0.00    +0.000 N 
ENDROOT
BRANCH   1   6
ATOM      2  C   UNL     1      15.898   8.688  14.954  0.00  0.00    +0.000 C 
ATOM      3  C   UNL     1      16.049   8.405  16.417  0.00  0.00    +0.000 A 
ATOM      4  C   UNL     1      15.222   9.020  17.352  0.00  0.00    +0.000 A 
ATOM      5  C   UNL     1      15.387   8.774  18.725  0.00  0.00    +0.000 A 
ATOM      6  C   UNL     1      16.391   7.930  19.232  0.00  0.00    +0.000 A 
ATOM      7  C   UNL     1      17.207   7.325  18.259  0.00  0.00    +0.000 A 
ATOM      8  C   UNL     1      17.051   7.560  16.883  0.00  0.00    +0.000 A 
ENDBRANCH   1   6
BRANCH   1   9
ATOM      9  C   UNL     1      15.998   6.424  21.186  0.00  0.00    +0.000 C 
BRANCH   9  10
ATOM     10  C   UNL     1      17.086   5.344  21.402  0.00  0.00    +0.000 C 
ATOM     11  C   UNL     1      17.147   4.916  22.863  0.00  0.00    +0.000 C 
BRANCH  10  12
ATOM     12  O   UNL     1      16.819   4.179  20.609  0.00  0.00    +0.000 OA
ATOM     13  H   UNL     1      16.086   4.386  20.005  0.00  0.00    +0.000 HD
ENDBRANCH  10  12
ENDBRANCH   9  10
ENDBRANCH   1   9
BRANCH   1  14
ATOM     14  C   UNL     1      16.742   8.780  21.572  0.00  0.00    +0.000 C 
BRANCH  14  15
ATOM     15  C   UNL     1      15.540   8.945  22.532  0.00  0.00    +0.000 C 
ATOM     16  C   UNL     1      15.941   9.441  23.916  0.00  0.00    +0.000 C 
BRANCH  15  17
ATOM     17  O   UNL     1      14.565   9.844  22.006  0.00  0.00    +0.000 OA
ATOM     18  H   UNL     1      14.636   9.754  21.035  0.00  0.00    +0.000 HD
ENDBRANCH  15  17
ENDBRANCH  14  15
ENDBRANCH   1  14
TORSDOF 7
ENDMDL
MODEL 3
REMARK VINA RESULT:    -3.635      6.050      9.749
REMARK INTER + INTRA:          -5.493
REMARK INTER:                  -4.913
REMARK INTRA:                  -0.580
REMARK UNBOUND:                -0.584
REMARK  Name = 
REMARK  10 active torsions:
REMARK  status: ('A' for Active; 'I' for Inactive)
REMARK    1  A    between atoms: C_1  and  C_2
REMARK    2  A    between atoms: C_5  and  N_8
REMARK    3  A    between atoms: N_8  and  C_9
REMARK    4  A    between atoms: N_8  and  C_13
REMARK    5  A    between atoms: C_9  and  C_10
REMARK    6  A    between atoms: C_10  and  C_11
REMARK    7  A    between atoms: C_10  and  O_12
REMARK    8  A    between atoms: C_13  and  C_14
REMARK    9  A    between atoms: C_14  and  C_15
REMARK   10  A    between atoms: C_14  and  O_16
REMARK                            x       y       z     vdW  Elec       q    Type
REMARK                         _______ _______ _______ _____ _____    ______ ____
ROOT
ATOM      1  N   UNL     1      16.229   7.716  21.203  0.00  0.00    +0.000 N 
ENDROOT
BRANCH   1   6
ATOM      2  C   UNL     1      16.359   8.345  15.466  0.00  0.00    +0.000 C 
ATOM      3  C   UNL     1      16.309   8.163  16.952  0.00  0.00    +0.000 A 
ATOM      4  C   UNL     1      15.406   8.880  17.729  0.00  0.00    +0.000 A 
ATOM      5  C   UNL     1      15.384   8.728  19.125  0.00  0.00    +0.000 A 
ATOM      6  C   UNL     1      16.269   7.878  19.812  0.00  0.00    +0.000 A 
ATOM      7  C   UNL     1      17.167   7.167  18.995  0.00  0.00    +0.000 A 
ATOM      8  C   UNL     1      17.199   7.309  17.597  0.00  0.00    +0.000 A 
ENDBRANCH   1   6
BRANCH   1   9
ATOM      9  C   UNL     1      15.649   8.779  22.058  0.00  0.00    +0.000 C 
BRANCH   9  10
ATOM     10  C   UNL     1      15.648   8.407  23.561  0.00  0.00    +0.000 C 
ATOM     11  C   UNL     1      15.661   9.657  24.433  0.00  0.00    +0.000 C 
BRANCH  10  12
ATOM     12  O   UNL     1      14.484   7.640  23.901  0.00  0.00    +0.000 OA
ATOM     13  H   UNL     1      13.821   8.247  24.270  0.00  0.00    +0.000 HD
ENDBRANCH  10  12
ENDBRANCH   9  10
ENDBRANCH   1   9
BRANCH   1  14
ATOM     14  C   UNL     1      17.168   6.799  21.898  0.00  0.00    +0.000 C 
BRANCH  14  15
ATOM     15  C   UNL     1      16.580   5.376  22.062  0.00  0.00    +0.000 C 
ATOM     16  C   UNL     1      16.934   4.732  23.397  0.00  0.00    +0.000 C 
BRANCH  15  17
ATOM     17  O   UNL     1      15.159   5.375  21.934  0.00  0.00    +0.000 OA
ATOM     18  H   UNL     1      14.824   5.546  22.837  0.00  0.00    +0.000 HD
ENDBRANCH  15  17
ENDBRANCH  14  15
ENDBRANCH   1  14
TORSDOF 7
ENDMDL
MODEL 4
REMARK VINA RESULT:    -3.445      0.956      2.755
REMARK INTER + INTRA:          -5.238
REMARK INTER:                  -5.201
REMARK INTRA:                  -0.036
REMARK UNBOUND:                -0.584
REMARK  Name = 
REMARK  10 active torsions:
REMARK  status: ('A' for Active; 'I' for Inactive)
REMARK    1  A    between atoms: C_1  and  C_2
REMARK    2  A    between atoms: C_5  and  N_8
REMARK    3  A    between atoms: N_8  and  C_9
REMARK    4  A    between atoms: N_8  and  C_13
REMARK    5  A    between atoms: C_9  and  C_10
REMARK    6  A    between atoms: C_10  and  C_11
REMARK    7  A    between atoms: C_10  and  O_12
REMARK    8  A    between atoms: C_13  and  C_14
REMARK    9  A    between atoms: C_14  and  C_15
REMARK   10  A    between atoms: C_14  and  O_16
REMARK                            x       y       z     vdW  Elec       q    Type
REMARK                         _______ _______ _______ _____ _____    ______ ____
ROOT
ATOM      1  N   UNL     1      15.049  10.527  13.062  0.00  0.00    +0.000 N 
ENDROOT
BRANCH   1   6
ATOM      2  C   UNL     1      15.766   8.727  18.501  0.00  0.00    +0.000 C 
ATOM      3  C   UNL     1      15.602   9.205  17.090  0.00  0.00    +0.000 A 
ATOM      4  C   UNL     1      14.965  10.410  16.814  0.00  0.00    +0.000 A 
ATOM      5  C   UNL     1      14.788  10.839  15.489  0.00  0.00    +0.000 A 
ATOM      6  C   UNL     1      15.212  10.084  14.381  0.00  0.00    +0.000 A 
ATOM      7  C   UNL     1      15.853   8.872  14.697  0.00  0.00    +0.000 A 
ATOM      8  C   UNL     1      16.039   8.432  16.019  0.00  0.00    +0.000 A 
ENDBRANCH   1   6
BRANCH   1   9
ATOM      9  C   UNL     1      13.913  10.033  12.247  0.00  0.00    +0.000 C 
BRANCH   9  10
ATOM     10  C   UNL     1      12.997  11.175  11.742  0.00  0.00    +0.000 C 
ATOM     11  C   UNL     1      12.562  10.928  10.302  0.00  0.00    +0.000 C 
BRANCH  10  12
ATOM     12  O   UNL     1      11.817  11.284  12.550  0.00  0.00    +0.000 OA
ATOM     13  H   UNL     1      12.059  11.733  13.377  0.00  0.00    +0.000 HD
ENDBRANCH  10  12
ENDBRANCH   9  10
ENDBRANCH   1   9
BRANCH   1  14
ATOM     14  C   UNL     1      16.198  11.050  12.280  0.00  0.00    +0.000 C 
BRANCH  14  15
ATOM     15  C   UNL     1      16.259  10.448  10.856  0.00  0.00    +0.000 C 
ATOM     16  C   UNL     1      17.411  10.994  10.021  0.00  0.00    +0.000 C 
BRANCH  15  17
ATOM     17  O   UNL     1      16.373   9.026  10.889  0.00  0.00    +0.000 OA
ATOM     18  H   UNL     1      16.460   8.757   9.952  0.00  0.00    +0.000 HD
ENDBRANCH  15  17
ENDBRANCH  14  15
ENDBRANCH   1  14
TORSDOF 7
ENDMDL
MODEL 5
REMARK VINA RESULT:    -3.436      2.998      7.339
REMARK INTER + INTRA:          -5.224
REMARK INTER:                  -4.856
REMARK INTRA:                  -0.368
REMARK UNBOUND:                -0.584
REMARK  Name = 
REMARK  10 active torsions:
REMARK  status: ('A' for Active; 'I' for Inactive)
REMARK    1  A    between atoms: C_1  and  C_2
REMARK    2  A    between atoms: C_5  and  N_8
REMARK    3  A    between atoms: N_8  and  C_9
REMARK    4  A    between atoms: N_8  and  C_13
REMARK    5  A    between atoms: C_9  and  C_10
REMARK    6  A    between atoms: C_10  and  C_11
REMARK    7  A    between atoms: C_10  and  O_12
REMARK    8  A    between atoms: C_13  and  C_14
REMARK    9  A    between atoms: C_14  and  C_15
REMARK   10  A    between atoms: C_14  and  O_16
REMARK                            x       y       z     vdW  Elec       q    Type
REMARK                         _______ _______ _______ _____ _____    ______ ____
ROOT
ATOM      1  N   UNL     1      15.253  10.894   9.273  0.00  0.00    +0.000 N 
ENDROOT
BRANCH   1   6
ATOM      2  C   UNL     1      17.065  10.513   3.805  0.00  0.00    +0.000 C 
ATOM      3  C   UNL     1      16.597  10.637   5.223  0.00  0.00    +0.000 A 
ATOM      4  C   UNL     1      17.498  10.573   6.281  0.00  0.00    +0.000 A 
ATOM      5  C   UNL     1      17.050  10.660   7.609  0.00  0.00    +0.000 A 
ATOM      6  C   UNL     1      15.691  10.789   7.947  0.00  0.00    +0.000 A 
ATOM      7  C   UNL     1      14.809  10.851   6.853  0.00  0.00    +0.000 A 
ATOM      8  C   UNL     1      15.244  10.768   5.520  0.00  0.00    +0.000 A 
ENDBRANCH   1   6
BRANCH   1   9
ATOM      9  C   UNL     1      13.852  11.284   9.565  0.00  0.00    +0.000 C 
BRANCH   9  10
ATOM     10  C   UNL     1      13.002  10.108  10.106  0.00  0.00    +0.000 C 
ATOM     11  C   UNL     1      12.352  10.472  11.436  0.00  0.00    +0.000 C 
BRANCH  10  12
ATOM     12  O   UNL     1      11.961   9.758   9.184  0.00  0.00    +0.000 OA
ATOM     13  H   UNL     1      11.659  10.572   8.748  0.00  0.00    +0.000 HD
ENDBRANCH  10  12
ENDBRANCH   9  10
ENDBRANCH   1   9
BRANCH   1  14
ATOM     14  C   UNL     1      16.211  11.131  10.383  0.00  0.00    +0.000 C 
BRANCH  14  15
ATOM     15  C   UNL     1      16.369   9.891  11.294  0.00  0.00    +0.000 C 
ATOM     16  C   UNL     1      15.799  10.097  12.693  0.00  0.00    +0.000 C 
BRANCH  15  17
ATOM     17  O   UNL     1      15.746   8.738  10.729  0.00  0.00    +0.000 OA
ATOM     18  H   UNL     1      15.928   8.798   9.769  0.00  0.00    +0.000 HD
ENDBRANCH  15  17
ENDBRANCH  14  15
ENDBRANCH   1  14
TORSDOF 7
ENDMDL
MODEL 6
REMARK VINA RESULT:    -3.402      5.538      8.720
REMARK INTER + INTRA:          -5.178
REMARK INTER:                  -4.504
REMARK INTRA:                  -0.674
REMARK UNBOUND:                -0.584
REMARK  Name = 
REMARK  10 active torsions:
REMARK  status: ('A' for Active; 'I' for Inactive)
REMARK    1  A    between atoms: C_1  and  C_2
REMARK    2  A    between atoms: C_5  and  N_8
REMARK    3  A    between atoms: N_8  and  C_9
REMARK    4  A    between atoms: N_8  and  C_13
REMARK    5  A    between atoms: C_9  and  C_10
REMARK    6  A    between atoms: C_10  and  C_11
REMARK    7  A    between atoms: C_10  and  O_12
REMARK    8  A    between atoms: C_13  and  C_14
REMARK    9  A    between atoms: C_14  and  C_15
REMARK   10  A    between atoms: C_14  and  O_16
REMARK                            x       y       z     vdW  Elec       q    Type
REMARK                         _______ _______ _______ _____ _____    ______ ____
ROOT
ATOM      1  N   UNL     1      16.652   8.631  20.461  0.00  0.00    +0.000 N 
ENDROOT
BRANCH   1   6
ATOM      2  C   UNL     1      15.964   8.532  14.730  0.00  0.00    +0.000 C 
ATOM      3  C   UNL     1      16.151   8.581  16.215  0.00  0.00    +0.000 A 
ATOM      4  C   UNL     1      17.332   8.137  16.802  0.00  0.00    +0.000 A 
ATOM      5  C   UNL     1      17.490   8.158  18.197  0.00  0.00    +0.000 A 
ATOM      6  C   UNL     1      16.480   8.596  19.072  0.00  0.00    +0.000 A 
ATOM      7  C   UNL     1      15.301   9.039  18.444  0.00  0.00    +0.000 A 
ATOM      8  C   UNL     1      15.130   9.026  17.050  0.00  0.00    +0.000 A 
ENDBRANCH   1   6
BRANCH   1   9
ATOM      9  C   UNL     1      16.690   9.932  21.172  0.00  0.00    +0.000 C 
BRANCH   9  10
ATOM     10  C   UNL     1      15.389  10.224  21.959  0.00  0.00    +0.000 C 
ATOM     11  C   UNL     1      14.550  11.282  21.251  0.00  0.00    +0.000 C 
BRANCH  10  12
ATOM     12  O   UNL     1      14.591   9.040  22.092  0.00  0.00    +0.000 OA
ATOM     13  H   UNL     1      15.172   8.315  22.377  0.00  0.00    +0.000 HD
ENDBRANCH  10  12
ENDBRANCH   9  10
ENDBRANCH   1   9
BRANCH   1  14
ATOM     14  C   UNL     1      17.294   7.505  21.186  0.00  0.00    +0.000 C 
BRANCH  14  15
ATOM     15  C   UNL     1      16.348   6.288  21.330  0.00  0.00    +0.000 C 
ATOM     16  C   UNL     1      17.083   4.953  21.319  0.00  0.00    +0.000 C 
BRANCH  15  17
ATOM     17  O   UNL     1      15.578   6.359  22.529  0.00  0.00    +0.000 OA
ATOM     18  H   UNL     1      14.663   6.147  22.255  0.00  0.00    +0.000 HD
ENDBRANCH  15  17
ENDBRANCH  14  15
ENDBRANCH   1  14
TORSDOF 7
ENDMDL
MODEL 7
REMARK VINA RESULT:    -3.296      5.405      8.504
REMARK INTER + INTRA:          -5.036
REMARK INTER:                  -4.366
REMARK INTRA:                  -0.670
REMARK UNBOUND:                -0.584
REMARK  Name = 
REMARK  10 active torsions:
REMARK  status: ('A' for Active; 'I' for Inactive)
REMARK    1  A    between atoms: C_1  and  C_2
REMARK    2  A    between atoms: C_5  and  N_8
REMARK    3  A    between atoms: N_8  and  C_9
REMARK    4  A    between atoms: N_8  and  C_13
REMARK    5  A    between atoms: C_9  and  C_10
REMARK    6  A    between atoms: C_10  and  C_11
REMARK    7  A    between atoms: C_10  and  O_12
REMARK    8  A    between atoms: C_13  and  C_14
REMARK    9  A    between atoms: C_14  and  C_15
REMARK   10  A    between atoms: C_14  and  O_16
REMARK                            x       y       z     vdW  Elec       q    Type
REMARK                         _______ _______ _______ _____ _____    ______ ____
ROOT
ATOM      1  N   UNL     1      16.430   8.213  19.673  0.00  0.00    +0.000 N 
ENDROOT
BRANCH   1   6
ATOM      2  C   UNL     1      15.568   9.195  14.050  0.00  0.00    +0.000 C 
ATOM      3  C   UNL     1      15.809   8.958  15.509  0.00  0.00    +0.000 A 
ATOM      4  C   UNL     1      16.728   8.005  15.936  0.00  0.00    +0.000 A 
ATOM      5  C   UNL     1      16.928   7.765  17.305  0.00  0.00    +0.000 A 
ATOM      6  C   UNL     1      16.212   8.442  18.309  0.00  0.00    +0.000 A 
ATOM      7  C   UNL     1      15.293   9.400  17.841  0.00  0.00    +0.000 A 
ATOM      8  C   UNL     1      15.085   9.651  16.475  0.00  0.00    +0.000 A 
ENDBRANCH   1   6
BRANCH   1   9
ATOM      9  C   UNL     1      17.288   7.084  20.109  0.00  0.00    +0.000 C 
BRANCH   9  10
ATOM     10  C   UNL     1      16.725   6.347  21.349  0.00  0.00    +0.000 C 
ATOM     11  C   UNL     1      16.752   4.837  21.143  0.00  0.00    +0.000 C 
BRANCH  10  12
ATOM     12  O   UNL     1      17.495   6.650  22.521  0.00  0.00    +0.000 OA
ATOM     13  H   UNL     1      18.434   6.655  22.271  0.00  0.00    +0.000 HD
ENDBRANCH  10  12
ENDBRANCH   9  10
ENDBRANCH   1   9
BRANCH   1  14
ATOM     14  C   UNL     1      15.473   8.701  20.698  0.00  0.00    +0.000 C 
BRANCH  14  15
ATOM     15  C   UNL     1      16.012   9.936  21.460  0.00  0.00    +0.000 C 
ATOM     16  C   UNL     1      14.967  11.030  21.644  0.00  0.00    +0.000 C 
BRANCH  15  17
ATOM     17  O   UNL     1      16.514   9.583  22.747  0.00  0.00    +0.000 OA
ATOM     18  H   UNL     1      16.713   8.627  22.688  0.00  0.00    +0.000 HD
ENDBRANCH  15  17
ENDBRANCH  14  15
ENDBRANCH   1  14
TORSDOF 7
ENDMDL
MODEL 8
REMARK VINA RESULT:    -3.280      4.731      7.640
REMARK INTER + INTRA:          -5.013
REMARK INTER:                  -4.547
REMARK INTRA:                  -0.467
REMARK UNBOUND:                -0.584
REMARK  Name = 
REMARK  10 active torsions:
REMARK  status: ('A' for Active; 'I' for Inactive)
REMARK    1  A    between atoms: C_1  and  C_2
REMARK    2  A    between atoms: C_5  and  N_8
REMARK    3  A    between atoms: N_8  and  C_9
REMARK    4  A    between atoms: N_8  and  C_13
REMARK    5  A    between atoms: C_9  and  C_10
REMARK    6  A    between atoms: C_10  and  C_11
REMARK    7  A    between atoms: C_10  and  O_12
REMARK    8  A    between atoms: C_13  and  C_14
REMARK    9  A    between atoms: C_14  and  C_15
REMARK   10  A    between atoms: C_14  and  O_16
REMARK                            x       y       z     vdW  Elec       q    Type
REMARK                         _______ _______ _______ _____ _____    ______ ____
ROOT
ATOM      1  N   UNL     1      16.654   8.207  19.099  0.00  0.00    +0.000 N 
ENDROOT
BRANCH   1   6
ATOM      2  C   UNL     1      16.804   4.620  23.620  0.00  0.00    +0.000 C 
ATOM      3  C   UNL     1      16.746   5.538  22.438  0.00  0.00    +0.000 A 
ATOM      4  C   UNL     1      17.498   5.281  21.296  0.00  0.00    +0.000 A 
ATOM      5  C   UNL     1      17.462   6.161  20.203  0.00  0.00    +0.000 A 
ATOM      6  C   UNL     1      16.700   7.343  20.201  0.00  0.00    +0.000 A 
ATOM      7  C   UNL     1      15.951   7.570  21.370  0.00  0.00    +0.000 A 
ATOM      8  C   UNL     1      15.975   6.697  22.470  0.00  0.00    +0.000 A 
ENDBRANCH   1   6
BRANCH   1   9
ATOM      9  C   UNL     1      15.571   9.214  18.989  0.00  0.00    +0.000 C 
BRANCH   9  10
ATOM     10  C   UNL     1      16.030  10.635  19.398  0.00  0.00    +0.000 C 
ATOM     11  C   UNL     1      15.191  11.167  20.554  0.00  0.00    +0.000 C 
BRANCH  10  12
ATOM     12  O   UNL     1      17.404  10.634  19.810  0.00  0.00    +0.000 OA
ATOM     13  H   UNL     1      17.464  11.097  20.662  0.00  0.00    +0.000 HD
ENDBRANCH  10  12
ENDBRANCH   9  10
ENDBRANCH   1   9
BRANCH   1  14
ATOM     14  C   UNL     1      17.307   7.848  17.814  0.00  0.00    +0.000 C 
BRANCH  14  15
ATOM     15  C   UNL     1      16.582   8.471  16.597  0.00  0.00    +0.000 C 
ATOM     16  C   UNL     1      17.479   9.378  15.764  0.00  0.00    +0.000 C 
BRANCH  15  17
ATOM     17  O   UNL     1      16.045   7.469  15.734  0.00  0.00    +0.000 OA
ATOM     18  H   UNL     1      16.773   6.829  15.606  0.00  0.00    +0.000 HD
ENDBRANCH  15  17
ENDBRANCH  14  15
ENDBRANCH   1  14
TORSDOF 7
ENDMDL
MODEL 9
REMARK VINA RESULT:    -3.029     23.723     25.765
REMARK INTER + INTRA:          -4.675
REMARK INTER:                  -4.375
REMARK INTRA:                  -0.300
REMARK UNBOUND:                -0.584
REMARK  Name = 
REMARK  10 active torsions:
REMARK  status: ('A' for Active; 'I' for Inactive)
REMARK    1  A    between atoms: C_1  and  C_2
REMARK    2  A    between atoms: C_5  and  N_8
REMARK    3  A    between atoms: N_8  and  C_9
REMARK    4  A    between atoms: N_8  and  C_13
REMARK    5  A    between atoms: C_9  and  C_10
REMARK    6  A    between atoms: C_10  and  C_11
REMARK    7  A    between atoms: C_10  and  O_12
REMARK    8  A    between atoms: C_13  and  C_14
REMARK    9  A    between atoms: C_14  and  C_15
REMARK   10  A    between atoms: C_14  and  O_16
REMARK                            x       y       z     vdW  Elec       q    Type
REMARK                         _______ _______ _______ _____ _____    ______ ____
ROOT
ATOM      1  N   UNL     1       2.693  -9.935  22.273  0.00  0.00    +0.000 N 
ENDROOT
BRANCH   1   6
ATOM      2  C   UNL     1      -3.025 -10.232  21.541  0.00  0.00    +0.000 C 
ATOM      3  C   UNL     1      -1.539 -10.175  21.716  0.00  0.00    +0.000 A 
ATOM      4  C   UNL     1      -0.920 -10.821  22.781  0.00  0.00    +0.000 A 
ATOM      5  C   UNL     1       0.471 -10.739  22.957  0.00  0.00    +0.000 A 
ATOM      6  C   UNL     1       1.305  -9.996  22.102  0.00  0.00    +0.000 A 
ATOM      7  C   UNL     1       0.645  -9.358  21.036  0.00  0.00    +0.000 A 
ATOM      8  C   UNL     1      -0.745  -9.433  20.846  0.00  0.00    +0.000 A 
ENDBRANCH   1   6
BRANCH   1   9
ATOM      9  C   UNL     1       3.550  -9.372  21.201  0.00  0.00    +0.000 C 
BRANCH   9  10
ATOM     10  C   UNL     1       4.747  -8.560  21.754  0.00  0.00    +0.000 C 
ATOM     11  C   UNL     1       6.071  -9.180  21.325  0.00  0.00    +0.000 C 
BRANCH  10  12
ATOM     12  O   UNL     1       4.714  -7.207  21.278  0.00  0.00    +0.000 OA
ATOM     13  H   UNL     1       3.814  -6.864  21.406  0.00  0.00    +0.000 HD
ENDBRANCH  10  12
ENDBRANCH   9  10
ENDBRANCH   1   9
BRANCH   1  14
ATOM     14  C   UNL     1       3.392 -10.841  23.220  0.00  0.00    +0.000 C 
BRANCH  14  15
ATOM     15  C   UNL     1       3.557 -10.207  24.622  0.00  0.00    +0.000 C 
ATOM     16  C   UNL     1       5.013 -10.092  25.060  0.00  0.00    +0.000 C 
BRANCH  15  17
ATOM     17  O   UNL     1       2.974  -8.907  24.684  0.00  0.00    +0.000 OA
ATOM     18  H   UNL     1       2.008  -9.061  24.640  0.00  0.00    +0.000 HD
ENDBRANCH  15  17
ENDBRANCH  14  15
ENDBRANCH   1  14
TORSDOF 7
ENDMDL
