MODEL 1
REMARK VINA RESULT:    -4.229      0.000      0.000
REMARK INTER + INTRA:          -6.342
REMARK INTER:                  -5.712
REMARK INTRA:                  -0.630
REMARK UNBOUND:                -0.630
REMARK  Name = 
REMARK  10 active torsions:
REMARK  status: ('A' for Active; 'I' for Inactive)
REMARK    1  A    between atoms: C_1  and  C_2
REMARK    2  A    between atoms: C_5  and  N_8
REMARK    3  A    between atoms: N_8  and  C_9
REMARK    4  A    between atoms: N_8  and  C_13
REMARK    5  A    between atoms: C_9  and  C_10
REMARK    6  A    between atoms: C_10  and  C_11
REMARK    7  A    between atoms: C_10  and  O_12
REMARK    8  A    between atoms: C_13  and  C_14
REMARK    9  A    between atoms: C_14  and  C_15
REMARK   10  A    between atoms: C_14  and  O_16
REMARK                            x       y       z     vdW  Elec       q    Type
REMARK                         _______ _______ _______ _____ _____    ______ ____
ROOT
ATOM      1  N   UNL     1      -5.603  -0.038 -20.313  0.00  0.00    +0.000 N 
ENDROOT
BRANCH   1   6
ATOM      2  C   UNL     1      -2.109   2.886 -23.858  0.00  0.00    +0.000 C 
ATOM      3  C   UNL     1      -3.011   2.144 -22.920  0.00  0.00    +0.000 A 
ATOM      4  C   UNL     1      -2.528   1.095 -22.144  0.00  0.00    +0.000 A 
ATOM      5  C   UNL     1      -3.384   0.383 -21.289  0.00  0.00    +0.000 A 
ATOM      6  C   UNL     1      -4.758   0.663 -21.182  0.00  0.00    +0.000 A 
ATOM      7  C   UNL     1      -5.212   1.731 -21.979  0.00  0.00    +0.000 A 
ATOM      8  C   UNL     1      -4.366   2.452 -22.837  0.00  0.00    +0.000 A 
ENDBRANCH   1   6
BRANCH   1   9
ATOM      9  C   UNL     1      -5.223  -0.217 -18.891  0.00  0.00    +0.000 C 
BRANCH   9  10
ATOM     10  C   UNL     1      -5.574   1.011 -18.016  0.00  0.00    +0.000 C 
ATOM     11  C   UNL     1      -4.618   2.166 -18.288  0.00  0.00    +0.000 C 
BRANCH  10  12
ATOM     12  O   UNL     1      -6.908   1.467 -18.282  0.00  0.00    +0.000 OA
ATOM     13  H   UNL     1      -6.903   2.439 -18.266  0.00  0.00    +0.000 HD
ENDBRANCH  10  12
ENDBRANCH   9  10
ENDBRANCH   1   9
BRANCH   1  14
ATOM     14  C   UNL     1      -6.584  -1.028 -20.826  0.00  0.00    +0.000 C 
BRANCH  14  15
ATOM     15  C   UNL     1      -8.033  -0.485 -20.795  0.00  0.00    +0.000 C 
ATOM     16  C   UNL     1      -8.971  -1.224 -21.741  0.00  0.00    +0.000 C 
BRANCH  15  17
ATOM     17  O   UNL     1      -8.591  -0.545 -19.483  0.00  0.00    +0.000 OA
ATOM     18  H   UNL     1      -8.589   0.380 -19.165  0.00  0.00    +0.000 HD
ENDBRANCH  15  17
ENDBRANCH  14  15
ENDBRANCH   1  14
TORSDOF 7
ENDMDL
MODEL 2
REMARK VINA RESULT:    -4.097      1.577      2.137
REMARK INTER + INTRA:          -6.164
REMARK INTER:                  -5.597
REMARK INTRA:                  -0.567
REMARK UNBOUND:                -0.630
REMARK  Name = 
REMARK  10 active torsions:
REMARK  status: ('A' for Active; 'I' for Inactive)
REMARK    1  A    between atoms: C_1  and  C_2
REMARK    2  A    between atoms: C_5  and  N_8
REMARK    3  A    between atoms: N_8  and  C_9
REMARK    4  A    between atoms: N_8  and  C_13
REMARK    5  A    between atoms: C_9  and  C_10
REMARK    6  A    between atoms: C_10  and  C_11
REMARK    7  A    between atoms: C_10  and  O_12
REMARK    8  A    between atoms: C_13  and  C_14
REMARK    9  A    between atoms: C_14  and  C_15
REMARK   10  A    between atoms: C_14  and  O_16
REMARK                            x       y       z     vdW  Elec       q    Type
REMARK                         _______ _______ _______ _____ _____    ______ ____
ROOT
ATOM      1  N   UNL     1      -5.061  -0.149 -20.530  0.00  0.00    +0.000 N 
ENDROOT
BRANCH   1   6
ATOM      2  C   UNL     1      -0.147   0.281 -23.529  0.00  0.00    +0.000 C 
ATOM      3  C   UNL     1      -1.435   0.168 -22.773  0.00  0.00    +0.000 A 
ATOM      4  C   UNL     1      -2.147   1.303 -22.401  0.00  0.00    +0.000 A 
ATOM      5  C   UNL     1      -3.338   1.192 -21.665  0.00  0.00    +0.000 A 
ATOM      6  C   UNL     1      -3.862  -0.045 -21.246  0.00  0.00    +0.000 A 
ATOM      7  C   UNL     1      -3.117  -1.171 -21.642  0.00  0.00    +0.000 A 
ATOM      8  C   UNL     1      -1.926  -1.074 -22.379  0.00  0.00    +0.000 A 
ENDBRANCH   1   6
BRANCH   1   9
ATOM      9  C   UNL     1      -5.034  -0.346 -19.060  0.00  0.00    +0.000 C 
BRANCH   9  10
ATOM     10  C   UNL     1      -5.648   0.845 -18.284  0.00  0.00    +0.000 C 
ATOM     11  C   UNL     1      -4.901   2.138 -18.588  0.00  0.00    +0.000 C 
BRANCH  10  12
ATOM     12  O   UNL     1      -7.025   1.035 -18.638  0.00  0.00    +0.000 OA
ATOM     13  H   UNL     1      -7.354   0.206 -19.026  0.00  0.00    +0.000 HD
ENDBRANCH  10  12
ENDBRANCH   9  10
ENDBRANCH   1   9
BRANCH   1  14
ATOM     14  C   UNL     1      -6.319  -0.577 -21.194  0.00  0.00    +0.000 C 
BRANCH  14  15
ATOM     15  C   UNL     1      -6.870   0.505 -22.154  0.00  0.00    +0.000 C 
ATOM     16  C   UNL     1      -8.311   0.250 -22.581  0.00  0.00    +0.000 C 
BRANCH  15  17
ATOM     17  O   UNL     1      -6.804   1.807 -21.574  0.00  0.00    +0.000 OA
ATOM     18  H   UNL     1      -5.852   2.028 -21.556  0.00  0.00    +0.000 HD
ENDBRANCH  15  17
ENDBRANCH  14  15
ENDBRANCH   1  14
TORSDOF 7
ENDMDL
MODEL 3
REMARK VINA RESULT:    -3.760      1.315      3.604
REMARK INTER + INTRA:          -5.709
REMARK INTER:                  -5.276
REMARK INTRA:                  -0.433
REMARK UNBOUND:                -0.630
REMARK  Name = 
REMARK  10 active torsions:
REMARK  status: ('A' for Active; 'I' for Inactive)
REMARK    1  A    between atoms: C_1  and  C_2
REMARK    2  A    between atoms: C_5  and  N_8
REMARK    3  A    between atoms: N_8  and  C_9
REMARK    4  A    between atoms: N_8  and  C_13
REMARK    5  A    between atoms: C_9  and  C_10
REMARK    6  A    between atoms: C_10  and  C_11
REMARK    7  A    between atoms: C_10  and  O_12
REMARK    8  A    between atoms: C_13  and  C_14
REMARK    9  A    between atoms: C_14  and  C_15
REMARK   10  A    between atoms: C_14  and  O_16
REMARK                            x       y       z     vdW  Elec       q    Type
REMARK                         _______ _______ _______ _____ _____    ______ ____
ROOT
ATOM      1  N   UNL     1      -6.338  -0.431 -20.034  0.00  0.00    +0.000 N 
ENDROOT
BRANCH   1   6
ATOM      2  C   UNL     1      -1.734   0.533 -23.380  0.00  0.00    +0.000 C 
ATOM      3  C   UNL     1      -2.936   0.266 -22.528  0.00  0.00    +0.000 A 
ATOM      4  C   UNL     1      -4.108   0.996 -22.696  0.00  0.00    +0.000 A 
ATOM      5  C   UNL     1      -5.222   0.762 -21.874  0.00  0.00    +0.000 A 
ATOM      6  C   UNL     1      -5.217  -0.189 -20.837  0.00  0.00    +0.000 A 
ATOM      7  C   UNL     1      -4.017  -0.910 -20.697  0.00  0.00    +0.000 A 
ATOM      8  C   UNL     1      -2.896  -0.687 -21.514  0.00  0.00    +0.000 A 
ENDBRANCH   1   6
BRANCH   1   9
ATOM      9  C   UNL     1      -7.471  -1.229 -20.560  0.00  0.00    +0.000 C 
BRANCH   9  10
ATOM     10  C   UNL     1      -8.812  -0.454 -20.539  0.00  0.00    +0.000 C 
ATOM     11  C   UNL     1      -9.305  -0.179 -21.955  0.00  0.00    +0.000 C 
BRANCH  10  12
ATOM     12  O   UNL     1      -9.827  -1.200 -19.853  0.00  0.00    +0.000 OA
ATOM     13  H   UNL     1     -10.693  -0.870 -20.145  0.00  0.00    +0.000 HD
ENDBRANCH  10  12
ENDBRANCH   9  10
ENDBRANCH   1   9
BRANCH   1  14
ATOM     14  C   UNL     1      -6.680   0.465 -18.899  0.00  0.00    +0.000 C 
BRANCH  14  15
ATOM     15  C   UNL     1      -5.421   1.081 -18.241  0.00  0.00    +0.000 C 
ATOM     16  C   UNL     1      -5.193   2.537 -18.629  0.00  0.00    +0.000 C 
BRANCH  15  17
ATOM     17  O   UNL     1      -5.481   1.007 -16.818  0.00  0.00    +0.000 OA
ATOM     18  H   UNL     1      -6.160   1.662 -16.559  0.00  0.00    +0.000 HD
ENDBRANCH  15  17
ENDBRANCH  14  15
ENDBRANCH   1  14
TORSDOF 7
ENDMDL
MODEL 4
REMARK VINA RESULT:    -3.729      1.896      3.485
REMARK INTER + INTRA:          -5.668
REMARK INTER:                  -5.140
REMARK INTRA:                  -0.527
REMARK UNBOUND:                -0.630
REMARK  Name = 
REMARK  10 active torsions:
REMARK  status: ('A' for Active; 'I' for Inactive)
REMARK    1  A    between atoms: C_1  and  C_2
REMARK    2  A    between atoms: C_5  and  N_8
REMARK    3  A    between atoms: N_8  and  C_9
REMARK    4  A    between atoms: N_8  and  C_13
REMARK    5  A    between atoms: C_9  and  C_10
REMARK    6  A    between atoms: C_10  and  C_11
REMARK    7  A    between atoms: C_10  and  O_12
REMARK    8  A    between atoms: C_13  and  C_14
REMARK    9  A    between atoms: C_14  and  C_15
REMARK   10  A    between atoms: C_14  and  O_16
REMARK                            x       y       z     vdW  Elec       q    Type
REMARK                         _______ _______ _______ _____ _____    ______ ____
ROOT
ATOM      1  N   UNL     1      -4.754   0.523 -21.105  0.00  0.00    +0.000 N 
ENDROOT
BRANCH   1   6
ATOM      2  C   UNL     1       0.389  -0.431 -23.548  0.00  0.00    +0.000 C 
ATOM      3  C   UNL     1      -0.934  -0.180 -22.892  0.00  0.00    +0.000 A 
ATOM      4  C   UNL     1      -1.684  -1.229 -22.371  0.00  0.00    +0.000 A 
ATOM      5  C   UNL     1      -2.938  -0.992 -21.784  0.00  0.00    +0.000 A 
ATOM      6  C   UNL     1      -3.512   0.290 -21.709  0.00  0.00    +0.000 A 
ATOM      7  C   UNL     1      -2.726   1.327 -22.243  0.00  0.00    +0.000 A 
ATOM      8  C   UNL     1      -1.470   1.104 -22.831  0.00  0.00    +0.000 A 
ENDBRANCH   1   6
BRANCH   1   9
ATOM      9  C   UNL     1      -6.000   0.411 -21.900  0.00  0.00    +0.000 C 
BRANCH   9  10
ATOM     10  C   UNL     1      -6.547   1.786 -22.356  0.00  0.00    +0.000 C 
ATOM     11  C   UNL     1      -6.015   2.155 -23.735  0.00  0.00    +0.000 C 
BRANCH  10  12
ATOM     12  O   UNL     1      -7.980   1.774 -22.421  0.00  0.00    +0.000 OA
ATOM     13  H   UNL     1      -8.254   0.961 -22.877  0.00  0.00    +0.000 HD
ENDBRANCH  10  12
ENDBRANCH   9  10
ENDBRANCH   1   9
BRANCH   1  14
ATOM     14  C   UNL     1      -4.869   1.352 -19.878  0.00  0.00    +0.000 C 
BRANCH  14  15
ATOM     15  C   UNL     1      -5.778   0.694 -18.811  0.00  0.00    +0.000 C 
ATOM     16  C   UNL     1      -5.477  -0.784 -18.596  0.00  0.00    +0.000 C 
BRANCH  15  17
ATOM     17  O   UNL     1      -5.675   1.355 -17.551  0.00  0.00    +0.000 OA
ATOM     18  H   UNL     1      -6.541   1.211 -17.119  0.00  0.00    +0.000 HD
ENDBRANCH  15  17
ENDBRANCH  14  15
ENDBRANCH   1  14
TORSDOF 7
ENDMDL
MODEL 5
REMARK VINA RESULT:    -3.709      2.320      4.636
REMARK INTER + INTRA:          -5.640
REMARK INTER:                  -5.115
REMARK INTRA:                  -0.525
REMARK UNBOUND:                -0.630
REMARK  Name = 
REMARK  10 active torsions:
REMARK  status: ('A' for Active; 'I' for Inactive)
REMARK    1  A    between atoms: C_1  and  C_2
REMARK    2  A    between atoms: C_5  and  N_8
REMARK    3  A    between atoms: N_8  and  C_9
REMARK    4  A    between atoms: N_8  and  C_13
REMARK    5  A    between atoms: C_9  and  C_10
REMARK    6  A    between atoms: C_10  and  C_11
REMARK    7  A    between atoms: C_10  and  O_12
REMARK    8  A    between atoms: C_13  and  C_14
REMARK    9  A    between atoms: C_14  and  C_15
REMARK   10  A    between atoms: C_14  and  O_16
REMARK                            x       y       z     vdW  Elec       q    Type
REMARK                         _______ _______ _______ _____ _____    ______ ____
ROOT
ATOM      1  N   UNL     1      -4.512   0.610 -20.832  0.00  0.00    +0.000 N 
ENDROOT
BRANCH   1   6
ATOM      2  C   UNL     1      -9.553   0.939 -23.626  0.00  0.00    +0.000 C 
ATOM      3  C   UNL     1      -8.236   0.840 -22.920  0.00  0.00    +0.000 A 
ATOM      4  C   UNL     1      -7.998  -0.167 -21.989  0.00  0.00    +0.000 A 
ATOM      5  C   UNL     1      -6.772  -0.237 -21.308  0.00  0.00    +0.000 A 
ATOM      6  C   UNL     1      -5.739   0.698 -21.501  0.00  0.00    +0.000 A 
ATOM      7  C   UNL     1      -6.013   1.700 -22.449  0.00  0.00    +0.000 A 
ATOM      8  C   UNL     1      -7.234   1.781 -23.140  0.00  0.00    +0.000 A 
ENDBRANCH   1   6
BRANCH   1   9
ATOM      9  C   UNL     1      -3.794  -0.686 -20.762  0.00  0.00    +0.000 C 
BRANCH   9  10
ATOM     10  C   UNL     1      -2.731  -0.844 -21.877  0.00  0.00    +0.000 C 
ATOM     11  C   UNL     1      -3.383  -1.219 -23.202  0.00  0.00    +0.000 C 
BRANCH  10  12
ATOM     12  O   UNL     1      -2.003   0.377 -22.070  0.00  0.00    +0.000 OA
ATOM     13  H   UNL     1      -2.612   1.035 -22.445  0.00  0.00    +0.000 HD
ENDBRANCH  10  12
ENDBRANCH   9  10
ENDBRANCH   1   9
BRANCH   1  14
ATOM     14  C   UNL     1      -4.139   1.587 -19.777  0.00  0.00    +0.000 C 
BRANCH  14  15
ATOM     15  C   UNL     1      -5.342   1.965 -18.880  0.00  0.00    +0.000 C 
ATOM     16  C   UNL     1      -5.568   0.984 -17.735  0.00  0.00    +0.000 C 
BRANCH  15  17
ATOM     17  O   UNL     1      -5.193   3.269 -18.320  0.00  0.00    +0.000 OA
ATOM     18  H   UNL     1      -5.124   3.124 -17.355  0.00  0.00    +0.000 HD
ENDBRANCH  15  17
ENDBRANCH  14  15
ENDBRANCH   1  14
TORSDOF 7
ENDMDL
MODEL 6
REMARK VINA RESULT:    -3.544      2.290      4.690
REMARK INTER + INTRA:          -5.418
REMARK INTER:                  -4.912
REMARK INTRA:                  -0.505
REMARK UNBOUND:                -0.630
REMARK  Name = 
REMARK  10 active torsions:
REMARK  status: ('A' for Active; 'I' for Inactive)
REMARK    1  A    between atoms: C_1  and  C_2
REMARK    2  A    between atoms: C_5  and  N_8
REMARK    3  A    between atoms: N_8  and  C_9
REMARK    4  A    between atoms: N_8  and  C_13
REMARK    5  A    between atoms: C_9  and  C_10
REMARK    6  A    between atoms: C_10  and  C_11
REMARK    7  A    between atoms: C_10  and  O_12
REMARK    8  A    between atoms: C_13  and  C_14
REMARK    9  A    between atoms: C_14  and  C_15
REMARK   10  A    between atoms: C_14  and  O_16
REMARK                            x       y       z     vdW  Elec       q    Type
REMARK                         _______ _______ _______ _____ _____    ______ ____
ROOT
ATOM      1  N   UNL     1      -5.068   0.118 -20.502  0.00  0.00    +0.000 N 
ENDROOT
BRANCH   1   6
ATOM      2  C   UNL     1     -10.427  -0.442 -22.576  0.00  0.00    +0.000 C 
ATOM      3  C   UNL     1      -9.044  -0.279 -22.022  0.00  0.00    +0.000 A 
ATOM      4  C   UNL     1      -8.148   0.620 -22.590  0.00  0.00    +0.000 A 
ATOM      5  C   UNL     1      -6.844   0.746 -22.085  0.00  0.00    +0.000 A 
ATOM      6  C   UNL     1      -6.364  -0.027 -21.013  0.00  0.00    +0.000 A 
ATOM      7  C   UNL     1      -7.298  -0.924 -20.462  0.00  0.00    +0.000 A 
ATOM      8  C   UNL     1      -8.606  -1.059 -20.956  0.00  0.00    +0.000 A 
ENDBRANCH   1   6
BRANCH   1   9
ATOM      9  C   UNL     1      -4.618   1.430 -19.977  0.00  0.00    +0.000 C 
BRANCH   9  10
ATOM     10  C   UNL     1      -5.475   1.925 -18.787  0.00  0.00    +0.000 C 
ATOM     11  C   UNL     1      -5.443   0.924 -17.638  0.00  0.00    +0.000 C 
BRANCH  10  12
ATOM     12  O   UNL     1      -4.993   3.183 -18.294  0.00  0.00    +0.000 OA
ATOM     13  H   UNL     1      -4.929   3.123 -17.326  0.00  0.00    +0.000 HD
ENDBRANCH  10  12
ENDBRANCH   9  10
ENDBRANCH   1   9
BRANCH   1  14
ATOM     14  C   UNL     1      -3.973  -0.800 -20.911  0.00  0.00    +0.000 C 
BRANCH  14  15
ATOM     15  C   UNL     1      -3.426  -0.466 -22.319  0.00  0.00    +0.000 C 
ATOM     16  C   UNL     1      -1.930  -0.723 -22.458  0.00  0.00    +0.000 C 
BRANCH  15  17
ATOM     17  O   UNL     1      -4.098  -1.209 -23.335  0.00  0.00    +0.000 OA
ATOM     18  H   UNL     1      -5.044  -1.181 -23.086  0.00  0.00    +0.000 HD
ENDBRANCH  15  17
ENDBRANCH  14  15
ENDBRANCH   1  14
TORSDOF 7
ENDMDL
MODEL 7
REMARK VINA RESULT:    -3.527      3.001      5.273
REMARK INTER + INTRA:          -5.394
REMARK INTER:                  -4.932
REMARK INTRA:                  -0.462
REMARK UNBOUND:                -0.630
REMARK  Name = 
REMARK  10 active torsions:
REMARK  status: ('A' for Active; 'I' for Inactive)
REMARK    1  A    between atoms: C_1  and  C_2
REMARK    2  A    between atoms: C_5  and  N_8
REMARK    3  A    between atoms: N_8  and  C_9
REMARK    4  A    between atoms: N_8  and  C_13
REMARK    5  A    between atoms: C_9  and  C_10
REMARK    6  A    between atoms: C_10  and  C_11
REMARK    7  A    between atoms: C_10  and  O_12
REMARK    8  A    between atoms: C_13  and  C_14
REMARK    9  A    between atoms: C_14  and  C_15
REMARK   10  A    between atoms: C_14  and  O_16
REMARK                            x       y       z     vdW  Elec       q    Type
REMARK                         _______ _______ _______ _____ _____    ______ ____
ROOT
ATOM      1  N   UNL     1      -4.639   2.131 -22.363  0.00  0.00    +0.000 N 
ENDROOT
BRANCH   1   6
ATOM      2  C   UNL     1      -5.927  -0.830 -17.577  0.00  0.00    +0.000 C 
ATOM      3  C   UNL     1      -5.570  -0.057 -18.810  0.00  0.00    +0.000 A 
ATOM      4  C   UNL     1      -5.827   1.307 -18.898  0.00  0.00    +0.000 A 
ATOM      5  C   UNL     1      -5.518   2.020 -20.067  0.00  0.00    +0.000 A 
ATOM      6  C   UNL     1      -4.963   1.410 -21.207  0.00  0.00    +0.000 A 
ATOM      7  C   UNL     1      -4.714   0.031 -21.082  0.00  0.00    +0.000 A 
ATOM      8  C   UNL     1      -5.017  -0.694 -19.917  0.00  0.00    +0.000 A 
ENDBRANCH   1   6
BRANCH   1   9
ATOM      9  C   UNL     1      -3.543   1.667 -23.246  0.00  0.00    +0.000 C 
BRANCH   9  10
ATOM     10  C   UNL     1      -2.151   2.167 -22.789  0.00  0.00    +0.000 C 
ATOM     11  C   UNL     1      -1.095   1.083 -22.970  0.00  0.00    +0.000 C 
BRANCH  10  12
ATOM     12  O   UNL     1      -1.743   3.316 -23.545  0.00  0.00    +0.000 OA
ATOM     13  H   UNL     1      -2.231   3.313 -24.385  0.00  0.00    +0.000 HD
ENDBRANCH  10  12
ENDBRANCH   9  10
ENDBRANCH   1   9
BRANCH   1  14
ATOM     14  C   UNL     1      -4.974   3.573 -22.489  0.00  0.00    +0.000 C 
BRANCH  14  15
ATOM     15  C   UNL     1      -6.014   3.836 -23.604  0.00  0.00    +0.000 C 
ATOM     16  C   UNL     1      -7.049   2.725 -23.733  0.00  0.00    +0.000 C 
BRANCH  15  17
ATOM     17  O   UNL     1      -6.709   5.065 -23.397  0.00  0.00    +0.000 OA
ATOM     18  H   UNL     1      -6.024   5.760 -23.480  0.00  0.00    +0.000 HD
ENDBRANCH  15  17
ENDBRANCH  14  15
ENDBRANCH   1  14
TORSDOF 7
ENDMDL
MODEL 8
REMARK VINA RESULT:    -3.492     19.196     21.634
REMARK INTER + INTRA:          -5.347
REMARK INTER:                  -4.814
REMARK INTRA:                  -0.533
REMARK UNBOUND:                -0.630
REMARK  Name = 
REMARK  10 active torsions:
REMARK  status: ('A' for Active; 'I' for Inactive)
REMARK    1  A    between atoms: C_1  and  C_2
REMARK    2  A    between atoms: C_5  and  N_8
REMARK    3  A    between atoms: N_8  and  C_9
REMARK    4  A    between atoms: N_8  and  C_13
REMARK    5  A    between atoms: C_9  and  C_10
REMARK    6  A    between atoms: C_10  and  C_11
REMARK    7  A    between atoms: C_10  and  O_12
REMARK    8  A    between atoms: C_13  and  C_14
REMARK    9  A    between atoms: C_14  and  C_15
REMARK   10  A    between atoms: C_14  and  O_16
REMARK                            x       y       z     vdW  Elec       q    Type
REMARK                         _______ _______ _______ _____ _____    ______ ____
ROOT
ATOM      1  N   UNL     1       7.351  17.874 -19.813  0.00  0.00    +0.000 N 
ENDROOT
BRANCH   1   6
ATOM      2  C   UNL     1      11.612  14.050 -20.557  0.00  0.00    +0.000 C 
ATOM      3  C   UNL     1      10.503  15.044 -20.389  0.00  0.00    +0.000 A 
ATOM      4  C   UNL     1      10.770  16.407 -20.316  0.00  0.00    +0.000 A 
ATOM      5  C   UNL     1       9.730  17.332 -20.128  0.00  0.00    +0.000 A 
ATOM      6  C   UNL     1       8.386  16.945 -19.981  0.00  0.00    +0.000 A 
ATOM      7  C   UNL     1       8.152  15.560 -20.062  0.00  0.00    +0.000 A 
ATOM      8  C   UNL     1       9.183  14.625 -20.251  0.00  0.00    +0.000 A 
ENDBRANCH   1   6
BRANCH   1   9
ATOM      9  C   UNL     1       5.946  17.478 -20.075  0.00  0.00    +0.000 C 
BRANCH   9  10
ATOM     10  C   UNL     1       5.080  17.455 -18.792  0.00  0.00    +0.000 C 
ATOM     11  C   UNL     1       3.638  17.082 -19.114  0.00  0.00    +0.000 C 
BRANCH  10  12
ATOM     12  O   UNL     1       5.585  16.502 -17.846  0.00  0.00    +0.000 OA
ATOM     13  H   UNL     1       6.500  16.287 -18.095  0.00  0.00    +0.000 HD
ENDBRANCH  10  12
ENDBRANCH   9  10
ENDBRANCH   1   9
BRANCH   1  14
ATOM     14  C   UNL     1       7.611  19.335 -19.882  0.00  0.00    +0.000 C 
BRANCH  14  15
ATOM     15  C   UNL     1       7.750  19.971 -18.478  0.00  0.00    +0.000 C 
ATOM     16  C   UNL     1       8.956  20.894 -18.354  0.00  0.00    +0.000 C 
BRANCH  15  17
ATOM     17  O   UNL     1       6.586  20.715 -18.118  0.00  0.00    +0.000 OA
ATOM     18  H   UNL     1       6.531  21.434 -18.780  0.00  0.00    +0.000 HD
ENDBRANCH  15  17
ENDBRANCH  14  15
ENDBRANCH   1  14
TORSDOF 7
ENDMDL
MODEL 9
REMARK VINA RESULT:    -3.369     19.169     20.816
REMARK INTER + INTRA:          -5.181
REMARK INTER:                  -4.676
REMARK INTRA:                  -0.505
REMARK UNBOUND:                -0.630
REMARK  Name = 
REMARK  10 active torsions:
REMARK  status: ('A' for Active; 'I' for Inactive)
REMARK    1  A    between atoms: C_1  and  C_2
REMARK    2  A    between atoms: C_5  and  N_8
REMARK    3  A    between atoms: N_8  and  C_9
REMARK    4  A    between atoms: N_8  and  C_13
REMARK    5  A    between atoms: C_9  and  C_10
REMARK    6  A    between atoms: C_10  and  C_11
REMARK    7  A    between atoms: C_10  and  O_12
REMARK    8  A    between atoms: C_13  and  C_14
REMARK    9  A    between atoms: C_14  and  C_15
REMARK   10  A    between atoms: C_14  and  O_16
REMARK                            x       y       z     vdW  Elec       q    Type
REMARK                         _______ _______ _______ _____ _____    ______ ____
ROOT
ATOM      1  N   UNL     1       6.906  17.272 -20.061  0.00  0.00    +0.000 N 
ENDROOT
BRANCH   1   6
ATOM      2  C   UNL     1      11.615  13.980 -20.623  0.00  0.00    +0.000 C 
ATOM      3  C   UNL     1      10.394  14.839 -20.502  0.00  0.00    +0.000 A 
ATOM      4  C   UNL     1      10.499  16.189 -20.181  0.00  0.00    +0.000 A 
ATOM      5  C   UNL     1       9.349  16.982 -20.039  0.00  0.00    +0.000 A 
ATOM      6  C   UNL     1       8.048  16.470 -20.185  0.00  0.00    +0.000 A 
ATOM      7  C   UNL     1       7.979  15.103 -20.511  0.00  0.00    +0.000 A 
ATOM      8  C   UNL     1       9.121  14.298 -20.658  0.00  0.00    +0.000 A 
ENDBRANCH   1   6
BRANCH   1   9
ATOM      9  C   UNL     1       6.824  18.565 -20.782  0.00  0.00    +0.000 C 
BRANCH   9  10
ATOM     10  C   UNL     1       6.417  18.400 -22.267  0.00  0.00    +0.000 C 
ATOM     11  C   UNL     1       7.647  18.300 -23.161  0.00  0.00    +0.000 C 
BRANCH  10  12
ATOM     12  O   UNL     1       5.632  17.215 -22.457  0.00  0.00    +0.000 OA
ATOM     13  H   UNL     1       5.811  16.875 -23.349  0.00  0.00    +0.000 HD
ENDBRANCH  10  12
ENDBRANCH   9  10
ENDBRANCH   1   9
BRANCH   1  14
ATOM     14  C   UNL     1       6.009  17.156 -18.883  0.00  0.00    +0.000 C 
BRANCH  14  15
ATOM     15  C   UNL     1       4.659  17.881 -19.102  0.00  0.00    +0.000 C 
ATOM     16  C   UNL     1       3.451  17.003 -18.799  0.00  0.00    +0.000 C 
BRANCH  15  17
ATOM     17  O   UNL     1       4.559  19.061 -18.307  0.00  0.00    +0.000 OA
ATOM     18  H   UNL     1       3.696  19.454 -18.546  0.00  0.00    +0.000 HD
ENDBRANCH  15  17
ENDBRANCH  14  15
ENDBRANCH   1  14
TORSDOF 7
ENDMDL
