MODEL 1
REMARK VINA RESULT:    -5.370      0.000      0.000
REMARK INTER + INTRA:          -7.684
REMARK INTER:                  -7.253
REMARK INTRA:                  -0.431
REMARK UNBOUND:                -0.431
REMARK  Name = 
REMARK  10 active torsions:
REMARK  status: ('A' for Active; 'I' for Inactive)
REMARK    1  A    between atoms: C_1  and  C_2
REMARK    2  A    between atoms: C_5  and  N_8
REMARK    3  A    between atoms: N_8  and  C_9
REMARK    4  A    between atoms: N_8  and  C_13
REMARK    5  A    between atoms: C_9  and  C_10
REMARK    6  A    between atoms: C_10  and  C_11
REMARK    7  A    between atoms: C_10  and  O_12
REMARK    8  A    between atoms: C_13  and  C_14
REMARK    9  A    between atoms: C_14  and  C_15
REMARK   10  A    between atoms: C_14  and  O_16
REMARK                            x       y       z     vdW  Elec       q    Type
REMARK                         _______ _______ _______ _____ _____    ______ ____
ROOT
ATOM      1  N   UNL     1      12.864   6.122   6.938  0.00  0.00    +0.000 N 
ENDROOT
BRANCH   1   6
ATOM      2  C   UNL     1      16.787   4.354   3.090  0.00  0.00    +0.000 C 
ATOM      3  C   UNL     1      15.765   4.789   4.095  0.00  0.00    +0.000 A 
ATOM      4  C   UNL     1      14.429   4.934   3.739  0.00  0.00    +0.000 A 
ATOM      5  C   UNL     1      13.481   5.371   4.678  0.00  0.00    +0.000 A 
ATOM      6  C   UNL     1      13.818   5.705   6.002  0.00  0.00    +0.000 A 
ATOM      7  C   UNL     1      15.177   5.544   6.328  0.00  0.00    +0.000 A 
ATOM      8  C   UNL     1      16.136   5.106   5.399  0.00  0.00    +0.000 A 
ENDBRANCH   1   6
BRANCH   1   9
ATOM      9  C   UNL     1      11.544   6.622   6.483  0.00  0.00    +0.000 C 
BRANCH   9  10
ATOM     10  C   UNL     1      10.431   5.550   6.577  0.00  0.00    +0.000 C 
ATOM     11  C   UNL     1       9.258   6.054   7.410  0.00  0.00    +0.000 C 
BRANCH  10  12
ATOM     12  O   UNL     1       9.936   5.205   5.276  0.00  0.00    +0.000 OA
ATOM     13  H   UNL     1       9.056   5.602   5.173  0.00  0.00    +0.000 HD
ENDBRANCH  10  12
ENDBRANCH   9  10
ENDBRANCH   1   9
BRANCH   1  14
ATOM     14  C   UNL     1      13.264   6.565   8.299  0.00  0.00    +0.000 C 
BRANCH  14  15
ATOM     15  C   UNL     1      12.246   7.555   8.913  0.00  0.00    +0.000 C 
ATOM     16  C   UNL     1      11.858   7.205  10.345  0.00  0.00    +0.000 C 
BRANCH  15  17
ATOM     17  O   UNL     1      12.741   8.893   8.905  0.00  0.00    +0.000 OA
ATOM     18  H   UNL     1      13.097   9.037   9.805  0.00  0.00    +0.000 HD
ENDBRANCH  15  17
ENDBRANCH  14  15
ENDBRANCH   1  14
TORSDOF 7
ENDMDL
MODEL 2
REMARK VINA RESULT:    -5.368      0.386      3.255
REMARK INTER + INTRA:          -7.682
REMARK INTER:                  -7.253
REMARK INTRA:                  -0.429
REMARK UNBOUND:                -0.431
REMARK  Name = 
REMARK  10 active torsions:
REMARK  status: ('A' for Active; 'I' for Inactive)
REMARK    1  A    between atoms: C_1  and  C_2
REMARK    2  A    between atoms: C_5  and  N_8
REMARK    3  A    between atoms: N_8  and  C_9
REMARK    4  A    between atoms: N_8  and  C_13
REMARK    5  A    between atoms: C_9  and  C_10
REMARK    6  A    between atoms: C_10  and  C_11
REMARK    7  A    between atoms: C_10  and  O_12
REMARK    8  A    between atoms: C_13  and  C_14
REMARK    9  A    between atoms: C_14  and  C_15
REMARK   10  A    between atoms: C_14  and  O_16
REMARK                            x       y       z     vdW  Elec       q    Type
REMARK                         _______ _______ _______ _____ _____    ______ ____
ROOT
ATOM      1  N   UNL     1      12.581   6.476   6.942  0.00  0.00    +0.000 N 
ENDROOT
BRANCH   1   6
ATOM      2  C   UNL     1      16.602   4.321   3.404  0.00  0.00    +0.000 C 
ATOM      3  C   UNL     1      15.566   4.903   4.316  0.00  0.00    +0.000 A 
ATOM      4  C   UNL     1      15.849   5.147   5.656  0.00  0.00    +0.000 A 
ATOM      5  C   UNL     1      14.864   5.665   6.513  0.00  0.00    +0.000 A 
ATOM      6  C   UNL     1      13.552   5.941   6.086  0.00  0.00    +0.000 A 
ATOM      7  C   UNL     1      13.303   5.685   4.726  0.00  0.00    +0.000 A 
ATOM      8  C   UNL     1      14.279   5.169   3.857  0.00  0.00    +0.000 A 
ENDBRANCH   1   6
BRANCH   1   9
ATOM      9  C   UNL     1      12.660   6.229   8.402  0.00  0.00    +0.000 C 
BRANCH   9  10
ATOM     10  C   UNL     1      12.028   7.370   9.238  0.00  0.00    +0.000 C 
ATOM     11  C   UNL     1      12.084   7.049  10.727  0.00  0.00    +0.000 C 
BRANCH  10  12
ATOM     12  O   UNL     1      12.719   8.608   9.024  0.00  0.00    +0.000 OA
ATOM     13  H   UNL     1      12.482   9.214   9.745  0.00  0.00    +0.000 HD
ENDBRANCH  10  12
ENDBRANCH   9  10
ENDBRANCH   1   9
BRANCH   1  14
ATOM     14  C   UNL     1      11.229   6.835   6.442  0.00  0.00    +0.000 C 
BRANCH  14  15
ATOM     15  C   UNL     1      10.224   5.667   6.583  0.00  0.00    +0.000 C 
ATOM     16  C   UNL     1       8.978   6.040   7.376  0.00  0.00    +0.000 C 
BRANCH  15  17
ATOM     17  O   UNL     1       9.807   5.174   5.310  0.00  0.00    +0.000 OA
ATOM     18  H   UNL     1       8.829   5.165   5.351  0.00  0.00    +0.000 HD
ENDBRANCH  15  17
ENDBRANCH  14  15
ENDBRANCH   1  14
TORSDOF 7
ENDMDL
MODEL 3
REMARK VINA RESULT:    -5.358      0.970      1.532
REMARK INTER + INTRA:          -7.668
REMARK INTER:                  -7.212
REMARK INTRA:                  -0.456
REMARK UNBOUND:                -0.431
REMARK  Name = 
REMARK  10 active torsions:
REMARK  status: ('A' for Active; 'I' for Inactive)
REMARK    1  A    between atoms: C_1  and  C_2
REMARK    2  A    between atoms: C_5  and  N_8
REMARK    3  A    between atoms: N_8  and  C_9
REMARK    4  A    between atoms: N_8  and  C_13
REMARK    5  A    between atoms: C_9  and  C_10
REMARK    6  A    between atoms: C_10  and  C_11
REMARK    7  A    between atoms: C_10  and  O_12
REMARK    8  A    between atoms: C_13  and  C_14
REMARK    9  A    between atoms: C_14  and  C_15
REMARK   10  A    between atoms: C_14  and  O_16
REMARK                            x       y       z     vdW  Elec       q    Type
REMARK                         _______ _______ _______ _____ _____    ______ ____
ROOT
ATOM      1  N   UNL     1      13.212   6.708   6.186  0.00  0.00    +0.000 N 
ENDROOT
BRANCH   1   6
ATOM      2  C   UNL     1      16.595   3.794   2.526  0.00  0.00    +0.000 C 
ATOM      3  C   UNL     1      15.730   4.571   3.470  0.00  0.00    +0.000 A 
ATOM      4  C   UNL     1      16.068   4.694   4.814  0.00  0.00    +0.000 A 
ATOM      5  C   UNL     1      15.238   5.398   5.700  0.00  0.00    +0.000 A 
ATOM      6  C   UNL     1      14.026   5.991   5.300  0.00  0.00    +0.000 A 
ATOM      7  C   UNL     1      13.716   5.848   3.935  0.00  0.00    +0.000 A 
ATOM      8  C   UNL     1      14.539   5.148   3.037  0.00  0.00    +0.000 A 
ENDBRANCH   1   6
BRANCH   1   9
ATOM      9  C   UNL     1      11.763   6.856   5.909  0.00  0.00    +0.000 C 
BRANCH   9  10
ATOM     10  C   UNL     1      10.941   5.614   6.333  0.00  0.00    +0.000 C 
ATOM     11  C   UNL     1      10.139   5.897   7.598  0.00  0.00    +0.000 C 
BRANCH  10  12
ATOM     12  O   UNL     1      10.023   5.228   5.302  0.00  0.00    +0.000 OA
ATOM     13  H   UNL     1       9.128   5.476   5.587  0.00  0.00    +0.000 HD
ENDBRANCH  10  12
ENDBRANCH   9  10
ENDBRANCH   1   9
BRANCH   1  14
ATOM     14  C   UNL     1      13.783   7.737   7.093  0.00  0.00    +0.000 C 
BRANCH  14  15
ATOM     15  C   UNL     1      12.710   8.363   8.016  0.00  0.00    +0.000 C 
ATOM     16  C   UNL     1      12.908   8.017   9.487  0.00  0.00    +0.000 C 
BRANCH  15  17
ATOM     17  O   UNL     1      12.676   9.784   7.896  0.00  0.00    +0.000 OA
ATOM     18  H   UNL     1      12.444  10.107   8.790  0.00  0.00    +0.000 HD
ENDBRANCH  15  17
ENDBRANCH  14  15
ENDBRANCH   1  14
TORSDOF 7
ENDMDL
MODEL 4
REMARK VINA RESULT:    -5.218      1.587      3.354
REMARK INTER + INTRA:          -7.479
REMARK INTER:                  -6.744
REMARK INTRA:                  -0.735
REMARK UNBOUND:                -0.431
REMARK  Name = 
REMARK  10 active torsions:
REMARK  status: ('A' for Active; 'I' for Inactive)
REMARK    1  A    between atoms: C_1  and  C_2
REMARK    2  A    between atoms: C_5  and  N_8
REMARK    3  A    between atoms: N_8  and  C_9
REMARK    4  A    between atoms: N_8  and  C_13
REMARK    5  A    between atoms: C_9  and  C_10
REMARK    6  A    between atoms: C_10  and  C_11
REMARK    7  A    between atoms: C_10  and  O_12
REMARK    8  A    between atoms: C_13  and  C_14
REMARK    9  A    between atoms: C_14  and  C_15
REMARK   10  A    between atoms: C_14  and  O_16
REMARK                            x       y       z     vdW  Elec       q    Type
REMARK                         _______ _______ _______ _____ _____    ______ ____
ROOT
ATOM      1  N   UNL     1      12.315   6.176   7.496  0.00  0.00    +0.000 N 
ENDROOT
BRANCH   1   6
ATOM      2  C   UNL     1      16.418   4.614   3.747  0.00  0.00    +0.000 C 
ATOM      3  C   UNL     1      15.358   5.043   4.715  0.00  0.00    +0.000 A 
ATOM      4  C   UNL     1      15.657   5.247   6.058  0.00  0.00    +0.000 A 
ATOM      5  C   UNL     1      14.653   5.621   6.966  0.00  0.00    +0.000 A 
ATOM      6  C   UNL     1      13.307   5.785   6.589  0.00  0.00    +0.000 A 
ATOM      7  C   UNL     1      13.042   5.572   5.224  0.00  0.00    +0.000 A 
ATOM      8  C   UNL     1      14.037   5.201   4.304  0.00  0.00    +0.000 A 
ENDBRANCH   1   6
BRANCH   1   9
ATOM      9  C   UNL     1      12.669   7.004   8.674  0.00  0.00    +0.000 C 
BRANCH   9  10
ATOM     10  C   UNL     1      12.641   6.205  10.000  0.00  0.00    +0.000 C 
ATOM     11  C   UNL     1      13.967   6.330  10.740  0.00  0.00    +0.000 C 
BRANCH  10  12
ATOM     12  O   UNL     1      11.602   6.682  10.867  0.00  0.00    +0.000 OA
ATOM     13  H   UNL     1      11.414   7.606  10.631  0.00  0.00    +0.000 HD
ENDBRANCH  10  12
ENDBRANCH   9  10
ENDBRANCH   1   9
BRANCH   1  14
ATOM     14  C   UNL     1      11.050   5.409   7.630  0.00  0.00    +0.000 C 
BRANCH  14  15
ATOM     15  C   UNL     1       9.805   6.329   7.626  0.00  0.00    +0.000 C 
ATOM     16  C   UNL     1       8.734   5.884   6.637  0.00  0.00    +0.000 C 
BRANCH  15  17
ATOM     17  O   UNL     1       9.207   6.412   8.918  0.00  0.00    +0.000 OA
ATOM     18  H   UNL     1       9.202   7.366   9.134  0.00  0.00    +0.000 HD
ENDBRANCH  15  17
ENDBRANCH  14  15
ENDBRANCH   1  14
TORSDOF 7
ENDMDL
MODEL 5
REMARK VINA RESULT:    -5.195      2.675      4.148
REMARK INTER + INTRA:          -7.448
REMARK INTER:                  -6.839
REMARK INTRA:                  -0.608
REMARK UNBOUND:                -0.431
REMARK  Name = 
REMARK  10 active torsions:
REMARK  status: ('A' for Active; 'I' for Inactive)
REMARK    1  A    between atoms: C_1  and  C_2
REMARK    2  A    between atoms: C_5  and  N_8
REMARK    3  A    between atoms: N_8  and  C_9
REMARK    4  A    between atoms: N_8  and  C_13
REMARK    5  A    between atoms: C_9  and  C_10
REMARK    6  A    between atoms: C_10  and  C_11
REMARK    7  A    between atoms: C_10  and  O_12
REMARK    8  A    between atoms: C_13  and  C_14
REMARK    9  A    between atoms: C_14  and  C_15
REMARK   10  A    between atoms: C_14  and  O_16
REMARK                            x       y       z     vdW  Elec       q    Type
REMARK                         _______ _______ _______ _____ _____    ______ ____
ROOT
ATOM      1  N   UNL     1      14.489   7.178   4.154  0.00  0.00    +0.000 N 
ENDROOT
BRANCH   1   6
ATOM      2  C   UNL     1      17.069   2.876   1.297  0.00  0.00    +0.000 C 
ATOM      3  C   UNL     1      16.421   3.997   2.050  0.00  0.00    +0.000 A 
ATOM      4  C   UNL     1      15.759   3.762   3.251  0.00  0.00    +0.000 A 
ATOM      5  C   UNL     1      15.127   4.812   3.938  0.00  0.00    +0.000 A 
ATOM      6  C   UNL     1      15.104   6.132   3.454  0.00  0.00    +0.000 A 
ATOM      7  C   UNL     1      15.785   6.333   2.239  0.00  0.00    +0.000 A 
ATOM      8  C   UNL     1      16.422   5.293   1.543  0.00  0.00    +0.000 A 
ENDBRANCH   1   6
BRANCH   1   9
ATOM      9  C   UNL     1      14.993   8.565   4.012  0.00  0.00    +0.000 C 
BRANCH   9  10
ATOM     10  C   UNL     1      13.915   9.544   3.484  0.00  0.00    +0.000 C 
ATOM     11  C   UNL     1      13.085   8.898   2.381  0.00  0.00    +0.000 C 
BRANCH  10  12
ATOM     12  O   UNL     1      13.024   9.944   4.534  0.00  0.00    +0.000 OA
ATOM     13  H   UNL     1      12.193   9.453   4.428  0.00  0.00    +0.000 HD
ENDBRANCH  10  12
ENDBRANCH   9  10
ENDBRANCH   1   9
BRANCH   1  14
ATOM     14  C   UNL     1      13.709   6.921   5.392  0.00  0.00    +0.000 C 
BRANCH  14  15
ATOM     15  C   UNL     1      12.286   6.393   5.087  0.00  0.00    +0.000 C 
ATOM     16  C   UNL     1      11.766   5.427   6.145  0.00  0.00    +0.000 C 
BRANCH  15  17
ATOM     17  O   UNL     1      11.345   7.458   4.961  0.00  0.00    +0.000 OA
ATOM     18  H   UNL     1      10.727   7.166   4.261  0.00  0.00    +0.000 HD
ENDBRANCH  15  17
ENDBRANCH  14  15
ENDBRANCH   1  14
TORSDOF 7
ENDMDL
MODEL 6
REMARK VINA RESULT:    -5.132      1.552      3.110
REMARK INTER + INTRA:          -7.364
REMARK INTER:                  -6.931
REMARK INTRA:                  -0.432
REMARK UNBOUND:                -0.431
REMARK  Name = 
REMARK  10 active torsions:
REMARK  status: ('A' for Active; 'I' for Inactive)
REMARK    1  A    between atoms: C_1  and  C_2
REMARK    2  A    between atoms: C_5  and  N_8
REMARK    3  A    between atoms: N_8  and  C_9
REMARK    4  A    between atoms: N_8  and  C_13
REMARK    5  A    between atoms: C_9  and  C_10
REMARK    6  A    between atoms: C_10  and  C_11
REMARK    7  A    between atoms: C_10  and  O_12
REMARK    8  A    between atoms: C_13  and  C_14
REMARK    9  A    between atoms: C_14  and  C_15
REMARK   10  A    between atoms: C_14  and  O_16
REMARK                            x       y       z     vdW  Elec       q    Type
REMARK                         _______ _______ _______ _____ _____    ______ ____
ROOT
ATOM      1  N   UNL     1      13.612   6.788   7.151  0.00  0.00    +0.000 N 
ENDROOT
BRANCH   1   6
ATOM      2  C   UNL     1      15.970   3.632   2.930  0.00  0.00    +0.000 C 
ATOM      3  C   UNL     1      15.364   4.472   4.013  0.00  0.00    +0.000 A 
ATOM      4  C   UNL     1      16.110   4.851   5.124  0.00  0.00    +0.000 A 
ATOM      5  C   UNL     1      15.529   5.613   6.151  0.00  0.00    +0.000 A 
ATOM      6  C   UNL     1      14.180   6.011   6.133  0.00  0.00    +0.000 A 
ATOM      7  C   UNL     1      13.457   5.612   4.994  0.00  0.00    +0.000 A 
ATOM      8  C   UNL     1      14.027   4.852   3.959  0.00  0.00    +0.000 A 
ENDBRANCH   1   6
BRANCH   1   9
ATOM      9  C   UNL     1      14.351   7.951   7.699  0.00  0.00    +0.000 C 
BRANCH   9  10
ATOM     10  C   UNL     1      13.835   9.303   7.148  0.00  0.00    +0.000 C 
ATOM     11  C   UNL     1      13.416   9.173   5.689  0.00  0.00    +0.000 C 
BRANCH  10  12
ATOM     12  O   UNL     1      12.701   9.764   7.896  0.00  0.00    +0.000 OA
ATOM     13  H   UNL     1      12.177  10.345   7.321  0.00  0.00    +0.000 HD
ENDBRANCH  10  12
ENDBRANCH   9  10
ENDBRANCH   1   9
BRANCH   1  14
ATOM     14  C   UNL     1      12.567   6.233   8.048  0.00  0.00    +0.000 C 
BRANCH  14  15
ATOM     15  C   UNL     1      11.165   6.813   7.741  0.00  0.00    +0.000 C 
ATOM     16  C   UNL     1      10.256   5.830   7.012  0.00  0.00    +0.000 C 
BRANCH  15  17
ATOM     17  O   UNL     1      10.497   7.235   8.929  0.00  0.00    +0.000 OA
ATOM     18  H   UNL     1      10.205   6.407   9.362  0.00  0.00    +0.000 HD
ENDBRANCH  15  17
ENDBRANCH  14  15
ENDBRANCH   1  14
TORSDOF 7
ENDMDL
MODEL 7
REMARK VINA RESULT:    -5.120      2.818      5.009
REMARK INTER + INTRA:          -7.347
REMARK INTER:                  -6.868
REMARK INTRA:                  -0.479
REMARK UNBOUND:                -0.431
REMARK  Name = 
REMARK  10 active torsions:
REMARK  status: ('A' for Active; 'I' for Inactive)
REMARK    1  A    between atoms: C_1  and  C_2
REMARK    2  A    between atoms: C_5  and  N_8
REMARK    3  A    between atoms: N_8  and  C_9
REMARK    4  A    between atoms: N_8  and  C_13
REMARK    5  A    between atoms: C_9  and  C_10
REMARK    6  A    between atoms: C_10  and  C_11
REMARK    7  A    between atoms: C_10  and  O_12
REMARK    8  A    between atoms: C_13  and  C_14
REMARK    9  A    between atoms: C_14  and  C_15
REMARK   10  A    between atoms: C_14  and  O_16
REMARK                            x       y       z     vdW  Elec       q    Type
REMARK                         _______ _______ _______ _____ _____    ______ ____
ROOT
ATOM      1  N   UNL     1      12.143   6.136   7.913  0.00  0.00    +0.000 N 
ENDROOT
BRANCH   1   6
ATOM      2  C   UNL     1      14.865   6.184  13.005  0.00  0.00    +0.000 C 
ATOM      3  C   UNL     1      14.158   6.196  11.684  0.00  0.00    +0.000 A 
ATOM      4  C   UNL     1      12.771   6.117  11.615  0.00  0.00    +0.000 A 
ATOM      5  C   UNL     1      12.115   6.099  10.374  0.00  0.00    +0.000 A 
ATOM      6  C   UNL     1      12.805   6.135   9.148  0.00  0.00    +0.000 A 
ATOM      7  C   UNL     1      14.205   6.216   9.255  0.00  0.00    +0.000 A 
ATOM      8  C   UNL     1      14.874   6.237  10.491  0.00  0.00    +0.000 A 
ENDBRANCH   1   6
BRANCH   1   9
ATOM      9  C   UNL     1      10.868   5.397   7.753  0.00  0.00    +0.000 C 
BRANCH   9  10
ATOM     10  C   UNL     1       9.641   6.334   7.644  0.00  0.00    +0.000 C 
ATOM     11  C   UNL     1       8.722   5.900   6.508  0.00  0.00    +0.000 C 
BRANCH  10  12
ATOM     12  O   UNL     1       8.879   6.327   8.859  0.00  0.00    +0.000 OA
ATOM     13  H   UNL     1       8.294   7.103   8.852  0.00  0.00    +0.000 HD
ENDBRANCH  10  12
ENDBRANCH   9  10
ENDBRANCH   1   9
BRANCH   1  14
ATOM     14  C   UNL     1      12.877   6.398   6.649  0.00  0.00    +0.000 C 
BRANCH  14  15
ATOM     15  C   UNL     1      12.456   7.737   5.996  0.00  0.00    +0.000 C 
ATOM     16  C   UNL     1      13.638   8.548   5.477  0.00  0.00    +0.000 C 
BRANCH  15  17
ATOM     17  O   UNL     1      11.550   7.534   4.913  0.00  0.00    +0.000 OA
ATOM     18  H   UNL     1      12.111   7.526   4.112  0.00  0.00    +0.000 HD
ENDBRANCH  15  17
ENDBRANCH  14  15
ENDBRANCH   1  14
TORSDOF 7
ENDMDL
MODEL 8
REMARK VINA RESULT:    -5.111      2.899      4.306
REMARK INTER + INTRA:          -7.335
REMARK INTER:                  -6.825
REMARK INTRA:                  -0.510
REMARK UNBOUND:                -0.431
REMARK  Name = 
REMARK  10 active torsions:
REMARK  status: ('A' for Active; 'I' for Inactive)
REMARK    1  A    between atoms: C_1  and  C_2
REMARK    2  A    between atoms: C_5  and  N_8
REMARK    3  A    between atoms: N_8  and  C_9
REMARK    4  A    between atoms: N_8  and  C_13
REMARK    5  A    between atoms: C_9  and  C_10
REMARK    6  A    between atoms: C_10  and  C_11
REMARK    7  A    between atoms: C_10  and  O_12
REMARK    8  A    between atoms: C_13  and  C_14
REMARK    9  A    between atoms: C_14  and  C_15
REMARK   10  A    between atoms: C_14  and  O_16
REMARK                            x       y       z     vdW  Elec       q    Type
REMARK                         _______ _______ _______ _____ _____    ______ ____
ROOT
ATOM      1  N   UNL     1      12.101   6.845   7.683  0.00  0.00    +0.000 N 
ENDROOT
BRANCH   1   6
ATOM      2  C   UNL     1      13.836  10.136   3.269  0.00  0.00    +0.000 C 
ATOM      3  C   UNL     1      13.407   9.270   4.413  0.00  0.00    +0.000 A 
ATOM      4  C   UNL     1      12.698   8.094   4.193  0.00  0.00    +0.000 A 
ATOM      5  C   UNL     1      12.273   7.301   5.271  0.00  0.00    +0.000 A 
ATOM      6  C   UNL     1      12.511   7.650   6.613  0.00  0.00    +0.000 A 
ATOM      7  C   UNL     1      13.232   8.844   6.798  0.00  0.00    +0.000 A 
ATOM      8  C   UNL     1      13.665   9.645   5.729  0.00  0.00    +0.000 A 
ENDBRANCH   1   6
BRANCH   1   9
ATOM      9  C   UNL     1      13.001   6.633   8.841  0.00  0.00    +0.000 C 
BRANCH   9  10
ATOM     10  C   UNL     1      12.556   7.418  10.099  0.00  0.00    +0.000 C 
ATOM     11  C   UNL     1      12.350   6.480  11.283  0.00  0.00    +0.000 C 
BRANCH  10  12
ATOM     12  O   UNL     1      13.539   8.394  10.472  0.00  0.00    +0.000 OA
ATOM     13  H   UNL     1      13.710   8.301  11.424  0.00  0.00    +0.000 HD
ENDBRANCH  10  12
ENDBRANCH   9  10
ENDBRANCH   1   9
BRANCH   1  14
ATOM     14  C   UNL     1      11.056   5.804   7.505  0.00  0.00    +0.000 C 
BRANCH  14  15
ATOM     15  C   UNL     1       9.629   6.367   7.710  0.00  0.00    +0.000 C 
ATOM     16  C   UNL     1       8.547   5.509   7.064  0.00  0.00    +0.000 C 
BRANCH  15  17
ATOM     17  O   UNL     1       9.312   6.511   9.093  0.00  0.00    +0.000 OA
ATOM     18  H   UNL     1       8.797   7.341   9.150  0.00  0.00    +0.000 HD
ENDBRANCH  15  17
ENDBRANCH  14  15
ENDBRANCH   1  14
TORSDOF 7
ENDMDL
MODEL 9
REMARK VINA RESULT:    -5.111      2.446      5.222
REMARK INTER + INTRA:          -7.334
REMARK INTER:                  -6.969
REMARK INTRA:                  -0.365
REMARK UNBOUND:                -0.431
REMARK  Name = 
REMARK  10 active torsions:
REMARK  status: ('A' for Active; 'I' for Inactive)
REMARK    1  A    between atoms: C_1  and  C_2
REMARK    2  A    between atoms: C_5  and  N_8
REMARK    3  A    between atoms: N_8  and  C_9
REMARK    4  A    between atoms: N_8  and  C_13
REMARK    5  A    between atoms: C_9  and  C_10
REMARK    6  A    between atoms: C_10  and  C_11
REMARK    7  A    between atoms: C_10  and  O_12
REMARK    8  A    between atoms: C_13  and  C_14
REMARK    9  A    between atoms: C_14  and  C_15
REMARK   10  A    between atoms: C_14  and  O_16
REMARK                            x       y       z     vdW  Elec       q    Type
REMARK                         _______ _______ _______ _____ _____    ______ ____
ROOT
ATOM      1  N   UNL     1      11.905   6.337   8.066  0.00  0.00    +0.000 N 
ENDROOT
BRANCH   1   6
ATOM      2  C   UNL     1      14.761   5.931  13.066  0.00  0.00    +0.000 C 
ATOM      3  C   UNL     1      14.018   6.061  11.772  0.00  0.00    +0.000 A 
ATOM      4  C   UNL     1      12.634   5.930  11.726  0.00  0.00    +0.000 A 
ATOM      5  C   UNL     1      11.946   6.023  10.506  0.00  0.00    +0.000 A 
ATOM      6  C   UNL     1      12.600   6.226   9.277  0.00  0.00    +0.000 A 
ATOM      7  C   UNL     1      13.998   6.356   9.361  0.00  0.00    +0.000 A 
ATOM      8  C   UNL     1      14.699   6.267  10.575  0.00  0.00    +0.000 A 
ENDBRANCH   1   6
BRANCH   1   9
ATOM      9  C   UNL     1      12.021   7.572   7.253  0.00  0.00    +0.000 C 
BRANCH   9  10
ATOM     10  C   UNL     1      12.537   7.299   5.818  0.00  0.00    +0.000 C 
ATOM     11  C   UNL     1      13.083   5.882   5.696  0.00  0.00    +0.000 C 
BRANCH  10  12
ATOM     12  O   UNL     1      11.485   7.455   4.855  0.00  0.00    +0.000 OA
ATOM     13  H   UNL     1      10.829   8.071   5.222  0.00  0.00    +0.000 HD
ENDBRANCH  10  12
ENDBRANCH   9  10
ENDBRANCH   1   9
BRANCH   1  14
ATOM     14  C   UNL     1      10.689   5.526   7.799  0.00  0.00    +0.000 C 
BRANCH  14  15
ATOM     15  C   UNL     1       9.431   6.406   7.604  0.00  0.00    +0.000 C 
ATOM     16  C   UNL     1       8.622   6.030   6.369  0.00  0.00    +0.000 C 
BRANCH  15  17
ATOM     17  O   UNL     1       8.564   6.345   8.736  0.00  0.00    +0.000 OA
ATOM     18  H   UNL     1       9.100   6.678   9.483  0.00  0.00    +0.000 HD
ENDBRANCH  15  17
ENDBRANCH  14  15
ENDBRANCH   1  14
TORSDOF 7
ENDMDL
