MODEL 1
REMARK VINA RESULT:    -5.470      0.000      0.000
REMARK INTER + INTRA:          -7.980
REMARK INTER:                  -7.389
REMARK INTRA:                  -0.591
REMARK UNBOUND:                -0.591
REMARK  Name = 
REMARK  10 active torsions:
REMARK  status: ('A' for Active; 'I' for Inactive)
REMARK    1  A    between atoms: C_1  and  C_2
REMARK    2  A    between atoms: C_5  and  N_8
REMARK    3  A    between atoms: N_8  and  C_9
REMARK    4  A    between atoms: N_8  and  C_13
REMARK    5  A    between atoms: C_9  and  C_10
REMARK    6  A    between atoms: C_10  and  C_11
REMARK    7  A    between atoms: C_10  and  O_12
REMARK    8  A    between atoms: C_13  and  C_14
REMARK    9  A    between atoms: C_14  and  C_15
REMARK   10  A    between atoms: C_14  and  O_16
REMARK                            x       y       z     vdW  Elec       q    Type
REMARK                         _______ _______ _______ _____ _____    ______ ____
ROOT
ATOM      1  N   UNL     1       6.951  14.953   5.990  0.00  0.00    +0.000 N 
ENDROOT
BRANCH   1   6
ATOM      2  C   UNL     1      12.159  16.984   7.432  0.00  0.00    +0.000 C 
ATOM      3  C   UNL     1      10.801  16.457   7.082  0.00  0.00    +0.000 A 
ATOM      4  C   UNL     1      10.578  15.090   6.951  0.00  0.00    +0.000 A 
ATOM      5  C   UNL     1       9.310  14.603   6.593  0.00  0.00    +0.000 A 
ATOM      6  C   UNL     1       8.217  15.447   6.327  0.00  0.00    +0.000 A 
ATOM      7  C   UNL     1       8.478  16.822   6.472  0.00  0.00    +0.000 A 
ATOM      8  C   UNL     1       9.741  17.323   6.831  0.00  0.00    +0.000 A 
ENDBRANCH   1   6
BRANCH   1   9
ATOM      9  C   UNL     1       6.448  15.082   4.601  0.00  0.00    +0.000 C 
BRANCH   9  10
ATOM     10  C   UNL     1       7.051  14.025   3.644  0.00  0.00    +0.000 C 
ATOM     11  C   UNL     1       6.038  12.930   3.333  0.00  0.00    +0.000 C 
BRANCH  10  12
ATOM     12  O   UNL     1       7.454  14.623   2.404  0.00  0.00    +0.000 OA
ATOM     13  H   UNL     1       8.251  14.163   2.093  0.00  0.00    +0.000 HD
ENDBRANCH  10  12
ENDBRANCH   9  10
ENDBRANCH   1   9
BRANCH   1  14
ATOM     14  C   UNL     1       5.897  14.771   7.021  0.00  0.00    +0.000 C 
BRANCH  14  15
ATOM     15  C   UNL     1       5.553  13.280   7.248  0.00  0.00    +0.000 C 
ATOM     16  C   UNL     1       4.275  12.844   6.541  0.00  0.00    +0.000 C 
BRANCH  15  17
ATOM     17  O   UNL     1       6.610  12.423   6.818  0.00  0.00    +0.000 OA
ATOM     18  H   UNL     1       6.667  12.559   5.851  0.00  0.00    +0.000 HD
ENDBRANCH  15  17
ENDBRANCH  14  15
ENDBRANCH   1  14
TORSDOF 7
ENDMDL
MODEL 2
REMARK VINA RESULT:    -5.079      1.188      3.161
REMARK INTER + INTRA:          -7.451
REMARK INTER:                  -6.972
REMARK INTRA:                  -0.479
REMARK UNBOUND:                -0.591
REMARK  Name = 
REMARK  10 active torsions:
REMARK  status: ('A' for Active; 'I' for Inactive)
REMARK    1  A    between atoms: C_1  and  C_2
REMARK    2  A    between atoms: C_5  and  N_8
REMARK    3  A    between atoms: N_8  and  C_9
REMARK    4  A    between atoms: N_8  and  C_13
REMARK    5  A    between atoms: C_9  and  C_10
REMARK    6  A    between atoms: C_10  and  C_11
REMARK    7  A    between atoms: C_10  and  O_12
REMARK    8  A    between atoms: C_13  and  C_14
REMARK    9  A    between atoms: C_14  and  C_15
REMARK   10  A    between atoms: C_14  and  O_16
REMARK                            x       y       z     vdW  Elec       q    Type
REMARK                         _______ _______ _______ _____ _____    ______ ____
ROOT
ATOM      1  N   UNL     1       6.873  15.243   6.105  0.00  0.00    +0.000 N 
ENDROOT
BRANCH   1   6
ATOM      2  C   UNL     1      12.332  16.449   7.545  0.00  0.00    +0.000 C 
ATOM      3  C   UNL     1      10.922  16.134   7.148  0.00  0.00    +0.000 A 
ATOM      4  C   UNL     1      10.025  17.149   6.832  0.00  0.00    +0.000 A 
ATOM      5  C   UNL     1       8.697  16.849   6.489  0.00  0.00    +0.000 A 
ATOM      6  C   UNL     1       8.194  15.536   6.467  0.00  0.00    +0.000 A 
ATOM      7  C   UNL     1       9.129  14.535   6.790  0.00  0.00    +0.000 A 
ATOM      8  C   UNL     1      10.461  14.821   7.132  0.00  0.00    +0.000 A 
ENDBRANCH   1   6
BRANCH   1   9
ATOM      9  C   UNL     1       5.999  14.485   7.033  0.00  0.00    +0.000 C 
BRANCH   9  10
ATOM     10  C   UNL     1       4.506  14.873   6.902  0.00  0.00    +0.000 C 
ATOM     11  C   UNL     1       3.641  13.639   6.668  0.00  0.00    +0.000 C 
BRANCH  10  12
ATOM     12  O   UNL     1       4.037  15.525   8.090  0.00  0.00    +0.000 OA
ATOM     13  H   UNL     1       4.317  14.996   8.855  0.00  0.00    +0.000 HD
ENDBRANCH  10  12
ENDBRANCH   9  10
ENDBRANCH   1   9
BRANCH   1  14
ATOM     14  C   UNL     1       6.458  15.199   4.680  0.00  0.00    +0.000 C 
BRANCH  14  15
ATOM     15  C   UNL     1       6.928  13.903   3.975  0.00  0.00    +0.000 C 
ATOM     16  C   UNL     1       5.784  12.950   3.648  0.00  0.00    +0.000 C 
BRANCH  15  17
ATOM     17  O   UNL     1       7.627  14.187   2.763  0.00  0.00    +0.000 OA
ATOM     18  H   UNL     1       8.430  14.670   3.042  0.00  0.00    +0.000 HD
ENDBRANCH  15  17
ENDBRANCH  14  15
ENDBRANCH   1  14
TORSDOF 7
ENDMDL
MODEL 3
REMARK VINA RESULT:    -4.742      1.641      5.068
REMARK INTER + INTRA:          -6.996
REMARK INTER:                  -6.452
REMARK INTRA:                  -0.544
REMARK UNBOUND:                -0.591
REMARK  Name = 
REMARK  10 active torsions:
REMARK  status: ('A' for Active; 'I' for Inactive)
REMARK    1  A    between atoms: C_1  and  C_2
REMARK    2  A    between atoms: C_5  and  N_8
REMARK    3  A    between atoms: N_8  and  C_9
REMARK    4  A    between atoms: N_8  and  C_13
REMARK    5  A    between atoms: C_9  and  C_10
REMARK    6  A    between atoms: C_10  and  C_11
REMARK    7  A    between atoms: C_10  and  O_12
REMARK    8  A    between atoms: C_13  and  C_14
REMARK    9  A    between atoms: C_14  and  C_15
REMARK   10  A    between atoms: C_14  and  O_16
REMARK                            x       y       z     vdW  Elec       q    Type
REMARK                         _______ _______ _______ _____ _____    ______ ____
ROOT
ATOM      1  N   UNL     1       7.394  14.659   6.238  0.00  0.00    +0.000 N 
ENDROOT
BRANCH   1   6
ATOM      2  C   UNL     1       2.035  13.572   8.089  0.00  0.00    +0.000 C 
ATOM      3  C   UNL     1       3.417  13.856   7.585  0.00  0.00    +0.000 A 
ATOM      4  C   UNL     1       4.267  12.822   7.208  0.00  0.00    +0.000 A 
ATOM      5  C   UNL     1       5.572  13.092   6.765  0.00  0.00    +0.000 A 
ATOM      6  C   UNL     1       6.098  14.395   6.699  0.00  0.00    +0.000 A 
ATOM      7  C   UNL     1       5.211  15.416   7.086  0.00  0.00    +0.000 A 
ATOM      8  C   UNL     1       3.903  15.159   7.529  0.00  0.00    +0.000 A 
ENDBRANCH   1   6
BRANCH   1   9
ATOM      9  C   UNL     1       7.926  13.933   5.060  0.00  0.00    +0.000 C 
BRANCH   9  10
ATOM     10  C   UNL     1       7.279  14.390   3.730  0.00  0.00    +0.000 C 
ATOM     11  C   UNL     1       6.222  13.395   3.267  0.00  0.00    +0.000 C 
BRANCH  10  12
ATOM     12  O   UNL     1       6.649  15.671   3.877  0.00  0.00    +0.000 OA
ATOM     13  H   UNL     1       6.824  16.187   3.073  0.00  0.00    +0.000 HD
ENDBRANCH  10  12
ENDBRANCH   9  10
ENDBRANCH   1   9
BRANCH   1  14
ATOM     14  C   UNL     1       8.428  15.234   7.136  0.00  0.00    +0.000 C 
BRANCH  14  15
ATOM     15  C   UNL     1       8.633  16.749   6.897  0.00  0.00    +0.000 C 
ATOM     16  C   UNL     1      10.099  17.166   6.915  0.00  0.00    +0.000 C 
BRANCH  15  17
ATOM     17  O   UNL     1       8.070  17.167   5.655  0.00  0.00    +0.000 OA
ATOM     18  H   UNL     1       7.951  18.134   5.744  0.00  0.00    +0.000 HD
ENDBRANCH  15  17
ENDBRANCH  14  15
ENDBRANCH   1  14
TORSDOF 7
ENDMDL
MODEL 4
REMARK VINA RESULT:    -4.576      1.942      2.362
REMARK INTER + INTRA:          -6.772
REMARK INTER:                  -6.441
REMARK INTRA:                  -0.331
REMARK UNBOUND:                -0.591
REMARK  Name = 
REMARK  10 active torsions:
REMARK  status: ('A' for Active; 'I' for Inactive)
REMARK    1  A    between atoms: C_1  and  C_2
REMARK    2  A    between atoms: C_5  and  N_8
REMARK    3  A    between atoms: N_8  and  C_9
REMARK    4  A    between atoms: N_8  and  C_13
REMARK    5  A    between atoms: C_9  and  C_10
REMARK    6  A    between atoms: C_10  and  C_11
REMARK    7  A    between atoms: C_10  and  O_12
REMARK    8  A    between atoms: C_13  and  C_14
REMARK    9  A    between atoms: C_14  and  C_15
REMARK   10  A    between atoms: C_14  and  O_16
REMARK                            x       y       z     vdW  Elec       q    Type
REMARK                         _______ _______ _______ _____ _____    ______ ____
ROOT
ATOM      1  N   UNL     1       8.310  15.450   6.436  0.00  0.00    +0.000 N 
ENDROOT
BRANCH   1   6
ATOM      2  C   UNL     1      12.811  18.787   7.825  0.00  0.00    +0.000 C 
ATOM      3  C   UNL     1      11.639  17.917   7.489  0.00  0.00    +0.000 A 
ATOM      4  C   UNL     1      11.799  16.552   7.277  0.00  0.00    +0.000 A 
ATOM      5  C   UNL     1      10.702  15.747   6.932  0.00  0.00    +0.000 A 
ATOM      6  C   UNL     1       9.404  16.262   6.760  0.00  0.00    +0.000 A 
ATOM      7  C   UNL     1       9.278  17.645   6.984  0.00  0.00    +0.000 A 
ATOM      8  C   UNL     1      10.368  18.461   7.332  0.00  0.00    +0.000 A 
ENDBRANCH   1   6
BRANCH   1   9
ATOM      9  C   UNL     1       6.934  15.886   6.774  0.00  0.00    +0.000 C 
BRANCH   9  10
ATOM     10  C   UNL     1       5.978  15.855   5.556  0.00  0.00    +0.000 C 
ATOM     11  C   UNL     1       4.569  15.459   5.980  0.00  0.00    +0.000 C 
BRANCH  10  12
ATOM     12  O   UNL     1       5.908  17.141   4.925  0.00  0.00    +0.000 OA
ATOM     13  H   UNL     1       6.621  17.192   4.267  0.00  0.00    +0.000 HD
ENDBRANCH  10  12
ENDBRANCH   9  10
ENDBRANCH   1   9
BRANCH   1  14
ATOM     14  C   UNL     1       8.471  13.986   6.239  0.00  0.00    +0.000 C 
BRANCH  14  15
ATOM     15  C   UNL     1       7.753  13.167   7.339  0.00  0.00    +0.000 C 
ATOM     16  C   UNL     1       6.470  12.504   6.851  0.00  0.00    +0.000 C 
BRANCH  15  17
ATOM     17  O   UNL     1       8.598  12.151   7.876  0.00  0.00    +0.000 OA
ATOM     18  H   UNL     1       8.084  11.323   7.790  0.00  0.00    +0.000 HD
ENDBRANCH  15  17
ENDBRANCH  14  15
ENDBRANCH   1  14
TORSDOF 7
ENDMDL
MODEL 5
REMARK VINA RESULT:    -4.493      1.964      5.416
REMARK INTER + INTRA:          -6.659
REMARK INTER:                  -6.372
REMARK INTRA:                  -0.288
REMARK UNBOUND:                -0.591
REMARK  Name = 
REMARK  10 active torsions:
REMARK  status: ('A' for Active; 'I' for Inactive)
REMARK    1  A    between atoms: C_1  and  C_2
REMARK    2  A    between atoms: C_5  and  N_8
REMARK    3  A    between atoms: N_8  and  C_9
REMARK    4  A    between atoms: N_8  and  C_13
REMARK    5  A    between atoms: C_9  and  C_10
REMARK    6  A    between atoms: C_10  and  C_11
REMARK    7  A    between atoms: C_10  and  O_12
REMARK    8  A    between atoms: C_13  and  C_14
REMARK    9  A    between atoms: C_14  and  C_15
REMARK   10  A    between atoms: C_14  and  O_16
REMARK                            x       y       z     vdW  Elec       q    Type
REMARK                         _______ _______ _______ _____ _____    ______ ____
ROOT
ATOM      1  N   UNL     1       7.198  13.746   5.709  0.00  0.00    +0.000 N 
ENDROOT
BRANCH   1   6
ATOM      2  C   UNL     1       1.793  13.985   7.721  0.00  0.00    +0.000 C 
ATOM      3  C   UNL     1       3.186  13.919   7.176  0.00  0.00    +0.000 A 
ATOM      4  C   UNL     1       3.891  12.720   7.159  0.00  0.00    +0.000 A 
ATOM      5  C   UNL     1       5.208  12.669   6.675  0.00  0.00    +0.000 A 
ATOM      6  C   UNL     1       5.892  13.807   6.209  0.00  0.00    +0.000 A 
ATOM      7  C   UNL     1       5.149  15.001   6.239  0.00  0.00    +0.000 A 
ATOM      8  C   UNL     1       3.830  15.065   6.719  0.00  0.00    +0.000 A 
ENDBRANCH   1   6
BRANCH   1   9
ATOM      9  C   UNL     1       8.353  13.901   6.627  0.00  0.00    +0.000 C 
BRANCH   9  10
ATOM     10  C   UNL     1       8.931  15.337   6.627  0.00  0.00    +0.000 C 
ATOM     11  C   UNL     1       8.416  16.132   7.821  0.00  0.00    +0.000 C 
BRANCH  10  12
ATOM     12  O   UNL     1      10.364  15.315   6.692  0.00  0.00    +0.000 OA
ATOM     13  H   UNL     1      10.622  15.219   7.624  0.00  0.00    +0.000 HD
ENDBRANCH  10  12
ENDBRANCH   9  10
ENDBRANCH   1   9
BRANCH   1  14
ATOM     14  C   UNL     1       7.491  14.040   4.283  0.00  0.00    +0.000 C 
BRANCH  14  15
ATOM     15  C   UNL     1       6.340  13.596   3.347  0.00  0.00    +0.000 C 
ATOM     16  C   UNL     1       6.583  13.955   1.886  0.00  0.00    +0.000 C 
BRANCH  15  17
ATOM     17  O   UNL     1       6.112  12.190   3.424  0.00  0.00    +0.000 OA
ATOM     18  H   UNL     1       5.776  12.037   4.331  0.00  0.00    +0.000 HD
ENDBRANCH  15  17
ENDBRANCH  14  15
ENDBRANCH   1  14
TORSDOF 7
ENDMDL
MODEL 6
REMARK VINA RESULT:    -4.445      2.064      5.354
REMARK INTER + INTRA:          -6.595
REMARK INTER:                  -6.047
REMARK INTRA:                  -0.548
REMARK UNBOUND:                -0.591
REMARK  Name = 
REMARK  10 active torsions:
REMARK  status: ('A' for Active; 'I' for Inactive)
REMARK    1  A    between atoms: C_1  and  C_2
REMARK    2  A    between atoms: C_5  and  N_8
REMARK    3  A    between atoms: N_8  and  C_9
REMARK    4  A    between atoms: N_8  and  C_13
REMARK    5  A    between atoms: C_9  and  C_10
REMARK    6  A    between atoms: C_10  and  C_11
REMARK    7  A    between atoms: C_10  and  O_12
REMARK    8  A    between atoms: C_13  and  C_14
REMARK    9  A    between atoms: C_14  and  C_15
REMARK   10  A    between atoms: C_14  and  O_16
REMARK                            x       y       z     vdW  Elec       q    Type
REMARK                         _______ _______ _______ _____ _____    ______ ____
ROOT
ATOM      1  N   UNL     1       7.391  15.168   6.699  0.00  0.00    +0.000 N 
ENDROOT
BRANCH   1   6
ATOM      2  C   UNL     1       4.537  12.129   2.706  0.00  0.00    +0.000 C 
ATOM      3  C   UNL     1       5.264  12.937   3.736  0.00  0.00    +0.000 A 
ATOM      4  C   UNL     1       6.429  13.625   3.414  0.00  0.00    +0.000 A 
ATOM      5  C   UNL     1       7.122  14.357   4.391  0.00  0.00    +0.000 A 
ATOM      6  C   UNL     1       6.706  14.420   5.733  0.00  0.00    +0.000 A 
ATOM      7  C   UNL     1       5.523  13.715   6.023  0.00  0.00    +0.000 A 
ATOM      8  C   UNL     1       4.819  12.981   5.055  0.00  0.00    +0.000 A 
ENDBRANCH   1   6
BRANCH   1   9
ATOM      9  C   UNL     1       7.942  16.501   6.354  0.00  0.00    +0.000 C 
BRANCH   9  10
ATOM     10  C   UNL     1       8.842  17.085   7.470  0.00  0.00    +0.000 C 
ATOM     11  C   UNL     1      10.292  17.176   7.009  0.00  0.00    +0.000 C 
BRANCH  10  12
ATOM     12  O   UNL     1       8.411  18.402   7.843  0.00  0.00    +0.000 OA
ATOM     13  H   UNL     1       8.357  18.438   8.812  0.00  0.00    +0.000 HD
ENDBRANCH  10  12
ENDBRANCH   9  10
ENDBRANCH   1   9
BRANCH   1  14
ATOM     14  C   UNL     1       8.031  14.512   7.868  0.00  0.00    +0.000 C 
BRANCH  14  15
ATOM     15  C   UNL     1       8.921  13.316   7.452  0.00  0.00    +0.000 C 
ATOM     16  C   UNL     1      10.366  13.452   7.919  0.00  0.00    +0.000 C 
BRANCH  15  17
ATOM     17  O   UNL     1       8.410  12.080   7.951  0.00  0.00    +0.000 OA
ATOM     18  H   UNL     1       8.954  11.882   8.740  0.00  0.00    +0.000 HD
ENDBRANCH  15  17
ENDBRANCH  14  15
ENDBRANCH   1  14
TORSDOF 7
ENDMDL
MODEL 7
REMARK VINA RESULT:    -4.434      1.552      2.198
REMARK INTER + INTRA:          -6.580
REMARK INTER:                  -6.212
REMARK INTRA:                  -0.368
REMARK UNBOUND:                -0.591
REMARK  Name = 
REMARK  10 active torsions:
REMARK  status: ('A' for Active; 'I' for Inactive)
REMARK    1  A    between atoms: C_1  and  C_2
REMARK    2  A    between atoms: C_5  and  N_8
REMARK    3  A    between atoms: N_8  and  C_9
REMARK    4  A    between atoms: N_8  and  C_13
REMARK    5  A    between atoms: C_9  and  C_10
REMARK    6  A    between atoms: C_10  and  C_11
REMARK    7  A    between atoms: C_10  and  O_12
REMARK    8  A    between atoms: C_13  and  C_14
REMARK    9  A    between atoms: C_14  and  C_15
REMARK   10  A    between atoms: C_14  and  O_16
REMARK                            x       y       z     vdW  Elec       q    Type
REMARK                         _______ _______ _______ _____ _____    ______ ____
ROOT
ATOM      1  N   UNL     1       5.976  14.511   5.952  0.00  0.00    +0.000 N 
ENDROOT
BRANCH   1   6
ATOM      2  C   UNL     1      11.304  13.904   8.091  0.00  0.00    +0.000 C 
ATOM      3  C   UNL     1       9.928  14.050   7.515  0.00  0.00    +0.000 A 
ATOM      4  C   UNL     1       9.566  15.195   6.813  0.00  0.00    +0.000 A 
ATOM      5  C   UNL     1       8.266  15.339   6.301  0.00  0.00    +0.000 A 
ATOM      6  C   UNL     1       7.264  14.369   6.482  0.00  0.00    +0.000 A 
ATOM      7  C   UNL     1       7.667  13.224   7.195  0.00  0.00    +0.000 A 
ATOM      8  C   UNL     1       8.964  13.066   7.710  0.00  0.00    +0.000 A 
ENDBRANCH   1   6
BRANCH   1   9
ATOM      9  C   UNL     1       5.793  14.778   4.505  0.00  0.00    +0.000 C 
BRANCH   9  10
ATOM     10  C   UNL     1       6.617  13.822   3.609  0.00  0.00    +0.000 C 
ATOM     11  C   UNL     1       5.712  12.817   2.907  0.00  0.00    +0.000 C 
BRANCH  10  12
ATOM     12  O   UNL     1       7.336  14.550   2.604  0.00  0.00    +0.000 OA
ATOM     13  H   UNL     1       7.971  13.942   2.188  0.00  0.00    +0.000 HD
ENDBRANCH  10  12
ENDBRANCH   9  10
ENDBRANCH   1   9
BRANCH   1  14
ATOM     14  C   UNL     1       4.831  14.910   6.811  0.00  0.00    +0.000 C 
BRANCH  14  15
ATOM     15  C   UNL     1       3.992  13.692   7.267  0.00  0.00    +0.000 C 
ATOM     16  C   UNL     1       2.693  14.086   7.962  0.00  0.00    +0.000 C 
BRANCH  15  17
ATOM     17  O   UNL     1       3.666  12.836   6.174  0.00  0.00    +0.000 OA
ATOM     18  H   UNL     1       3.010  12.206   6.533  0.00  0.00    +0.000 HD
ENDBRANCH  15  17
ENDBRANCH  14  15
ENDBRANCH   1  14
TORSDOF 7
ENDMDL
MODEL 8
REMARK VINA RESULT:    -4.433      2.738      4.871
REMARK INTER + INTRA:          -6.579
REMARK INTER:                  -6.316
REMARK INTRA:                  -0.263
REMARK UNBOUND:                -0.591
REMARK  Name = 
REMARK  10 active torsions:
REMARK  status: ('A' for Active; 'I' for Inactive)
REMARK    1  A    between atoms: C_1  and  C_2
REMARK    2  A    between atoms: C_5  and  N_8
REMARK    3  A    between atoms: N_8  and  C_9
REMARK    4  A    between atoms: N_8  and  C_13
REMARK    5  A    between atoms: C_9  and  C_10
REMARK    6  A    between atoms: C_10  and  C_11
REMARK    7  A    between atoms: C_10  and  O_12
REMARK    8  A    between atoms: C_13  and  C_14
REMARK    9  A    between atoms: C_14  and  C_15
REMARK   10  A    between atoms: C_14  and  O_16
REMARK                            x       y       z     vdW  Elec       q    Type
REMARK                         _______ _______ _______ _____ _____    ______ ____
ROOT
ATOM      1  N   UNL     1       5.736  13.449   7.082  0.00  0.00    +0.000 N 
ENDROOT
BRANCH   1   6
ATOM      2  C   UNL     1       6.956  13.997   1.466  0.00  0.00    +0.000 C 
ATOM      3  C   UNL     1       6.618  13.867   2.920  0.00  0.00    +0.000 A 
ATOM      4  C   UNL     1       7.011  14.838   3.835  0.00  0.00    +0.000 A 
ATOM      5  C   UNL     1       6.717  14.695   5.201  0.00  0.00    +0.000 A 
ATOM      6  C   UNL     1       6.043  13.576   5.722  0.00  0.00    +0.000 A 
ATOM      7  C   UNL     1       5.659  12.615   4.768  0.00  0.00    +0.000 A 
ATOM      8  C   UNL     1       5.945  12.746   3.399  0.00  0.00    +0.000 A 
ENDBRANCH   1   6
BRANCH   1   9
ATOM      9  C   UNL     1       6.823  13.416   8.090  0.00  0.00    +0.000 C 
BRANCH   9  10
ATOM     10  C   UNL     1       8.160  12.890   7.513  0.00  0.00    +0.000 C 
ATOM     11  C   UNL     1       9.298  13.864   7.796  0.00  0.00    +0.000 C 
BRANCH  10  12
ATOM     12  O   UNL     1       8.506  11.623   8.089  0.00  0.00    +0.000 OA
ATOM     13  H   UNL     1       7.847  11.412   8.771  0.00  0.00    +0.000 HD
ENDBRANCH  10  12
ENDBRANCH   9  10
ENDBRANCH   1   9
BRANCH   1  14
ATOM     14  C   UNL     1       4.453  12.848   7.529  0.00  0.00    +0.000 C 
BRANCH  14  15
ATOM     15  C   UNL     1       3.359  13.916   7.767  0.00  0.00    +0.000 C 
ATOM     16  C   UNL     1       3.914  15.333   7.858  0.00  0.00    +0.000 C 
BRANCH  15  17
ATOM     17  O   UNL     1       2.368  13.895   6.741  0.00  0.00    +0.000 OA
ATOM     18  H   UNL     1       2.556  13.084   6.225  0.00  0.00    +0.000 HD
ENDBRANCH  15  17
ENDBRANCH  14  15
ENDBRANCH   1  14
TORSDOF 7
ENDMDL
MODEL 9
REMARK VINA RESULT:    -4.247      1.799      5.247
REMARK INTER + INTRA:          -6.328
REMARK INTER:                  -5.919
REMARK INTRA:                  -0.409
REMARK UNBOUND:                -0.591
REMARK  Name = 
REMARK  10 active torsions:
REMARK  status: ('A' for Active; 'I' for Inactive)
REMARK    1  A    between atoms: C_1  and  C_2
REMARK    2  A    between atoms: C_5  and  N_8
REMARK    3  A    between atoms: N_8  and  C_9
REMARK    4  A    between atoms: N_8  and  C_13
REMARK    5  A    between atoms: C_9  and  C_10
REMARK    6  A    between atoms: C_10  and  C_11
REMARK    7  A    between atoms: C_10  and  O_12
REMARK    8  A    between atoms: C_13  and  C_14
REMARK    9  A    between atoms: C_14  and  C_15
REMARK   10  A    between atoms: C_14  and  O_16
REMARK                            x       y       z     vdW  Elec       q    Type
REMARK                         _______ _______ _______ _____ _____    ______ ____
ROOT
ATOM      1  N   UNL     1       6.568  14.237   6.237  0.00  0.00    +0.000 N 
ENDROOT
BRANCH   1   6
ATOM      2  C   UNL     1       1.160  13.435   8.091  0.00  0.00    +0.000 C 
ATOM      3  C   UNL     1       2.557  13.634   7.588  0.00  0.00    +0.000 A 
ATOM      4  C   UNL     1       3.521  12.644   7.744  0.00  0.00    +0.000 A 
ATOM      5  C   UNL     1       4.836  12.848   7.297  0.00  0.00    +0.000 A 
ATOM      6  C   UNL     1       5.259  14.048   6.698  0.00  0.00    +0.000 A 
ATOM      7  C   UNL     1       4.258  15.026   6.554  0.00  0.00    +0.000 A 
ATOM      8  C   UNL     1       2.939  14.834   6.995  0.00  0.00    +0.000 A 
ENDBRANCH   1   6
BRANCH   1   9
ATOM      9  C   UNL     1       6.808  14.704   4.850  0.00  0.00    +0.000 C 
BRANCH   9  10
ATOM     10  C   UNL     1       6.965  13.539   3.843  0.00  0.00    +0.000 C 
ATOM     11  C   UNL     1       5.631  12.845   3.599  0.00  0.00    +0.000 C 
BRANCH  10  12
ATOM     12  O   UNL     1       7.458  14.012   2.581  0.00  0.00    +0.000 OA
ATOM     13  H   UNL     1       7.531  14.979   2.630  0.00  0.00    +0.000 HD
ENDBRANCH  10  12
ENDBRANCH   9  10
ENDBRANCH   1   9
BRANCH   1  14
ATOM     14  C   UNL     1       7.714  13.530   6.864  0.00  0.00    +0.000 C 
BRANCH  14  15
ATOM     15  C   UNL     1       9.029  14.339   6.757  0.00  0.00    +0.000 C 
ATOM     16  C   UNL     1       9.086  15.520   7.719  0.00  0.00    +0.000 C 
BRANCH  15  17
ATOM     17  O   UNL     1      10.173  13.520   6.996  0.00  0.00    +0.000 OA
ATOM     18  H   UNL     1      10.234  12.937   6.212  0.00  0.00    +0.000 HD
ENDBRANCH  15  17
ENDBRANCH  14  15
ENDBRANCH   1  14
TORSDOF 7
ENDMDL
