MODEL 1
REMARK VINA RESULT:    -4.389      0.000      0.000
REMARK INTER + INTRA:          -4.819
REMARK INTER:                  -4.774
REMARK INTRA:                  -0.046
REMARK UNBOUND:                -0.046
REMARK  Name = 
REMARK  3 active torsions:
REMARK  status: ('A' for Active; 'I' for Inactive)
REMARK    1  A    between atoms: C_1  and  O_2
REMARK    2  A    between atoms: O_2  and  C_3
REMARK    3  A    between atoms: C_8  and  O_9
REMARK                            x       y       z     vdW  Elec       q    Type
REMARK                         _______ _______ _______ _____ _____    ______ ____
ROOT
ATOM      1  C   UNL     1       3.607  14.017  -2.595  0.00  0.00    +0.000 A 
ATOM      2  C   UNL     1       2.910  13.307  -1.618  0.00  0.00    +0.000 A 
ATOM      3  C   UNL     1       2.893  11.907  -1.649  0.00  0.00    +0.000 A 
ATOM      4  C   UNL     1       3.570  11.213  -2.653  0.00  0.00    +0.000 A 
ATOM      5  C   UNL     1       4.269  11.915  -3.633  0.00  0.00    +0.000 A 
ATOM      6  C   UNL     1       4.280  13.303  -3.594  0.00  0.00    +0.000 A 
ENDROOT
BRANCH   1   8
ATOM      7  C   UNL     1       2.515  16.123  -2.465  0.00  0.00    +0.000 C 
ATOM      8  O   UNL     1       3.708  15.382  -2.688  0.00  0.00    +0.000 OA
ENDBRANCH   1   8
BRANCH   6   9
ATOM      9  O   UNL     1       4.974  13.971  -4.568  0.00  0.00    +0.000 OA
ATOM     10  H   UNL     1       4.373  14.685  -4.856  0.00  0.00    +0.000 HD
ENDBRANCH   6   9
TORSDOF 2
ENDMDL
MODEL 2
REMARK VINA RESULT:    -4.303     11.243     11.974
REMARK INTER + INTRA:          -4.726
REMARK INTER:                  -4.685
REMARK INTRA:                  -0.041
REMARK UNBOUND:                -0.046
REMARK  Name = 
REMARK  3 active torsions:
REMARK  status: ('A' for Active; 'I' for Inactive)
REMARK    1  A    between atoms: C_1  and  O_2
REMARK    2  A    between atoms: O_2  and  C_3
REMARK    3  A    between atoms: C_8  and  O_9
REMARK                            x       y       z     vdW  Elec       q    Type
REMARK                         _______ _______ _______ _____ _____    ______ ____
ROOT
ATOM      1  C   UNL     1      -0.512  15.811 -13.300  0.00  0.00    +0.000 A 
ATOM      2  C   UNL     1       0.322  14.705 -13.458  0.00  0.00    +0.000 A 
ATOM      3  C   UNL     1       1.449  14.791 -14.284  0.00  0.00    +0.000 A 
ATOM      4  C   UNL     1       1.747  15.979 -14.954  0.00  0.00    +0.000 A 
ATOM      5  C   UNL     1       0.918  17.089 -14.802  0.00  0.00    +0.000 A 
ATOM      6  C   UNL     1      -0.198  16.994 -13.980  0.00  0.00    +0.000 A 
ENDROOT
BRANCH   1   8
ATOM      7  C   UNL     1      -1.449  15.956 -11.121  0.00  0.00    +0.000 C 
ATOM      8  O   UNL     1      -1.644  15.870 -12.528  0.00  0.00    +0.000 OA
ENDBRANCH   1   8
BRANCH   6   9
ATOM      9  O   UNL     1      -0.997  18.098 -13.846  0.00  0.00    +0.000 OA
ATOM     10  H   UNL     1      -1.549  17.911 -13.063  0.00  0.00    +0.000 HD
ENDBRANCH   6   9
TORSDOF 2
ENDMDL
MODEL 3
REMARK VINA RESULT:    -4.296      2.198      3.001
REMARK INTER + INTRA:          -4.718
REMARK INTER:                  -4.675
REMARK INTRA:                  -0.043
REMARK UNBOUND:                -0.046
REMARK  Name = 
REMARK  3 active torsions:
REMARK  status: ('A' for Active; 'I' for Inactive)
REMARK    1  A    between atoms: C_1  and  O_2
REMARK    2  A    between atoms: O_2  and  C_3
REMARK    3  A    between atoms: C_8  and  O_9
REMARK                            x       y       z     vdW  Elec       q    Type
REMARK                         _______ _______ _______ _____ _____    ______ ____
ROOT
ATOM      1  C   UNL     1       3.579  13.819  -1.216  0.00  0.00    +0.000 A 
ATOM      2  C   UNL     1       4.276  14.814  -1.901  0.00  0.00    +0.000 A 
ATOM      3  C   UNL     1       4.623  14.626  -3.245  0.00  0.00    +0.000 A 
ATOM      4  C   UNL     1       4.278  13.446  -3.907  0.00  0.00    +0.000 A 
ATOM      5  C   UNL     1       3.582  12.448  -3.229  0.00  0.00    +0.000 A 
ATOM      6  C   UNL     1       3.242  12.643  -1.897  0.00  0.00    +0.000 A 
ENDROOT
BRANCH   1   8
ATOM      7  C   UNL     1       4.059  14.510   1.006  0.00  0.00    +0.000 C 
ATOM      8  O   UNL     1       3.177  13.867   0.094  0.00  0.00    +0.000 OA
ENDBRANCH   1   8
BRANCH   6   9
ATOM      9  O   UNL     1       2.558  11.647  -1.252  0.00  0.00    +0.000 OA
ATOM     10  H   UNL     1       1.946  12.114  -0.652  0.00  0.00    +0.000 HD
ENDBRANCH   6   9
TORSDOF 2
ENDMDL
MODEL 4
REMARK VINA RESULT:    -4.195     10.904     11.598
REMARK INTER + INTRA:          -4.608
REMARK INTER:                  -4.565
REMARK INTRA:                  -0.044
REMARK UNBOUND:                -0.046
REMARK  Name = 
REMARK  3 active torsions:
REMARK  status: ('A' for Active; 'I' for Inactive)
REMARK    1  A    between atoms: C_1  and  O_2
REMARK    2  A    between atoms: O_2  and  C_3
REMARK    3  A    between atoms: C_8  and  O_9
REMARK                            x       y       z     vdW  Elec       q    Type
REMARK                         _______ _______ _______ _____ _____    ______ ____
ROOT
ATOM      1  C   UNL     1       0.010  15.367 -13.008  0.00  0.00    +0.000 A 
ATOM      2  C   UNL     1      -0.791  14.618 -13.870  0.00  0.00    +0.000 A 
ATOM      3  C   UNL     1      -0.358  14.356 -15.176  0.00  0.00    +0.000 A 
ATOM      4  C   UNL     1       0.872  14.840 -15.625  0.00  0.00    +0.000 A 
ATOM      5  C   UNL     1       1.677  15.589 -14.770  0.00  0.00    +0.000 A 
ATOM      6  C   UNL     1       1.240  15.845 -13.476  0.00  0.00    +0.000 A 
ENDROOT
BRANCH   1   8
ATOM      7  C   UNL     1      -1.642  16.029 -11.433  0.00  0.00    +0.000 C 
ATOM      8  O   UNL     1      -0.286  15.700 -11.711  0.00  0.00    +0.000 OA
ENDBRANCH   1   8
BRANCH   6   9
ATOM      9  O   UNL     1       2.049  16.583 -12.655  0.00  0.00    +0.000 OA
ATOM     10  H   UNL     1       1.434  17.086 -12.087  0.00  0.00    +0.000 HD
ENDBRANCH   6   9
TORSDOF 2
ENDMDL
MODEL 5
REMARK VINA RESULT:    -4.186     10.550     11.153
REMARK INTER + INTRA:          -4.599
REMARK INTER:                  -4.556
REMARK INTRA:                  -0.043
REMARK UNBOUND:                -0.046
REMARK  Name = 
REMARK  3 active torsions:
REMARK  status: ('A' for Active; 'I' for Inactive)
REMARK    1  A    between atoms: C_1  and  O_2
REMARK    2  A    between atoms: O_2  and  C_3
REMARK    3  A    between atoms: C_8  and  O_9
REMARK                            x       y       z     vdW  Elec       q    Type
REMARK                         _______ _______ _______ _____ _____    ______ ____
ROOT
ATOM      1  C   UNL     1      -0.779  15.783 -12.165  0.00  0.00    +0.000 A 
ATOM      2  C   UNL     1       0.614  15.725 -12.173  0.00  0.00    +0.000 A 
ATOM      3  C   UNL     1       1.279  15.021 -13.185  0.00  0.00    +0.000 A 
ATOM      4  C   UNL     1       0.556  14.374 -14.189  0.00  0.00    +0.000 A 
ATOM      5  C   UNL     1      -0.836  14.428 -14.188  0.00  0.00    +0.000 A 
ATOM      6  C   UNL     1      -1.487  15.128 -13.180  0.00  0.00    +0.000 A 
ENDROOT
BRANCH   1   8
ATOM      7  C   UNL     1      -1.681  15.811  -9.966  0.00  0.00    +0.000 C 
ATOM      8  O   UNL     1      -1.558  16.432 -11.240  0.00  0.00    +0.000 OA
ENDBRANCH   1   8
BRANCH   6   9
ATOM      9  O   UNL     1      -2.855  15.168 -13.200  0.00  0.00    +0.000 OA
ATOM     10  H   UNL     1      -3.095  15.825 -12.520  0.00  0.00    +0.000 HD
ENDBRANCH   6   9
TORSDOF 2
ENDMDL
MODEL 6
REMARK VINA RESULT:    -4.170      1.408      2.428
REMARK INTER + INTRA:          -4.582
REMARK INTER:                  -4.542
REMARK INTRA:                  -0.040
REMARK UNBOUND:                -0.046
REMARK  Name = 
REMARK  3 active torsions:
REMARK  status: ('A' for Active; 'I' for Inactive)
REMARK    1  A    between atoms: C_1  and  O_2
REMARK    2  A    between atoms: O_2  and  C_3
REMARK    3  A    between atoms: C_8  and  O_9
REMARK                            x       y       z     vdW  Elec       q    Type
REMARK                         _______ _______ _______ _____ _____    ______ ____
ROOT
ATOM      1  C   UNL     1       3.806  13.865  -2.332  0.00  0.00    +0.000 A 
ATOM      2  C   UNL     1       4.238  13.415  -3.579  0.00  0.00    +0.000 A 
ATOM      3  C   UNL     1       4.168  12.052  -3.894  0.00  0.00    +0.000 A 
ATOM      4  C   UNL     1       3.669  11.136  -2.966  0.00  0.00    +0.000 A 
ATOM      5  C   UNL     1       3.236  11.578  -1.718  0.00  0.00    +0.000 A 
ATOM      6  C   UNL     1       3.309  12.931  -1.414  0.00  0.00    +0.000 A 
ENDROOT
BRANCH   1   8
ATOM      7  C   UNL     1       4.765  16.033  -2.497  0.00  0.00    +0.000 C 
ATOM      8  O   UNL     1       3.817  15.163  -1.890  0.00  0.00    +0.000 OA
ENDBRANCH   1   8
BRANCH   6   9
ATOM      9  O   UNL     1       2.877  13.341  -0.181  0.00  0.00    +0.000 OA
ATOM     10  H   UNL     1       3.521  12.961   0.447  0.00  0.00    +0.000 HD
ENDBRANCH   6   9
TORSDOF 2
ENDMDL
MODEL 7
REMARK VINA RESULT:    -4.064      1.353      3.124
REMARK INTER + INTRA:          -4.466
REMARK INTER:                  -4.414
REMARK INTRA:                  -0.052
REMARK UNBOUND:                -0.046
REMARK  Name = 
REMARK  3 active torsions:
REMARK  status: ('A' for Active; 'I' for Inactive)
REMARK    1  A    between atoms: C_1  and  O_2
REMARK    2  A    between atoms: O_2  and  C_3
REMARK    3  A    between atoms: C_8  and  O_9
REMARK                            x       y       z     vdW  Elec       q    Type
REMARK                         _______ _______ _______ _____ _____    ______ ____
ROOT
ATOM      1  C   UNL     1       3.475  13.201  -2.732  0.00  0.00    +0.000 A 
ATOM      2  C   UNL     1       2.671  13.524  -1.640  0.00  0.00    +0.000 A 
ATOM      3  C   UNL     1       2.673  14.829  -1.131  0.00  0.00    +0.000 A 
ATOM      4  C   UNL     1       3.477  15.812  -1.710  0.00  0.00    +0.000 A 
ATOM      5  C   UNL     1       4.283  15.497  -2.801  0.00  0.00    +0.000 A 
ATOM      6  C   UNL     1       4.274  14.201  -3.299  0.00  0.00    +0.000 A 
ENDROOT
BRANCH   1   8
ATOM      7  C   UNL     1       4.029  10.900  -2.512  0.00  0.00    +0.000 C 
ATOM      8  O   UNL     1       3.573  11.970  -3.331  0.00  0.00    +0.000 OA
ENDBRANCH   1   8
BRANCH   6   9
ATOM      9  O   UNL     1       5.075  13.915  -4.373  0.00  0.00    +0.000 OA
ATOM     10  H   UNL     1       4.700  13.097  -4.752  0.00  0.00    +0.000 HD
ENDBRANCH   6   9
TORSDOF 2
ENDMDL
MODEL 8
REMARK VINA RESULT:    -4.019      2.020      3.683
REMARK INTER + INTRA:          -4.417
REMARK INTER:                  -4.375
REMARK INTRA:                  -0.041
REMARK UNBOUND:                -0.046
REMARK  Name = 
REMARK  3 active torsions:
REMARK  status: ('A' for Active; 'I' for Inactive)
REMARK    1  A    between atoms: C_1  and  O_2
REMARK    2  A    between atoms: O_2  and  C_3
REMARK    3  A    between atoms: C_8  and  O_9
REMARK                            x       y       z     vdW  Elec       q    Type
REMARK                         _______ _______ _______ _____ _____    ______ ____
ROOT
ATOM      1  C   UNL     1       2.983  13.206  -1.948  0.00  0.00    +0.000 A 
ATOM      2  C   UNL     1       3.918  13.229  -0.914  0.00  0.00    +0.000 A 
ATOM      3  C   UNL     1       3.679  14.002   0.229  0.00  0.00    +0.000 A 
ATOM      4  C   UNL     1       2.507  14.754   0.342  0.00  0.00    +0.000 A 
ATOM      5  C   UNL     1       1.568  14.735  -0.686  0.00  0.00    +0.000 A 
ATOM      6  C   UNL     1       1.814  13.965  -1.816  0.00  0.00    +0.000 A 
ENDROOT
BRANCH   1   8
ATOM      7  C   UNL     1       3.798  11.269  -3.057  0.00  0.00    +0.000 C 
ATOM      8  O   UNL     1       3.085  12.498  -3.119  0.00  0.00    +0.000 OA
ENDBRANCH   1   8
BRANCH   6   9
ATOM      9  O   UNL     1       0.875  13.963  -2.813  0.00  0.00    +0.000 OA
ATOM     10  H   UNL     1       0.029  14.137  -2.359  0.00  0.00    +0.000 HD
ENDBRANCH   6   9
TORSDOF 2
ENDMDL
MODEL 9
REMARK VINA RESULT:    -4.017      2.117      3.745
REMARK INTER + INTRA:          -4.414
REMARK INTER:                  -4.367
REMARK INTRA:                  -0.047
REMARK UNBOUND:                -0.046
REMARK  Name = 
REMARK  3 active torsions:
REMARK  status: ('A' for Active; 'I' for Inactive)
REMARK    1  A    between atoms: C_1  and  O_2
REMARK    2  A    between atoms: O_2  and  C_3
REMARK    3  A    between atoms: C_8  and  O_9
REMARK                            x       y       z     vdW  Elec       q    Type
REMARK                         _______ _______ _______ _____ _____    ______ ____
ROOT
ATOM      1  C   UNL     1       2.624  13.589  -1.970  0.00  0.00    +0.000 A 
ATOM      2  C   UNL     1       1.529  14.320  -2.429  0.00  0.00    +0.000 A 
ATOM      3  C   UNL     1       0.912  15.257  -1.590  0.00  0.00    +0.000 A 
ATOM      4  C   UNL     1       1.384  15.466  -0.293  0.00  0.00    +0.000 A 
ATOM      5  C   UNL     1       2.478  14.740   0.173  0.00  0.00    +0.000 A 
ATOM      6  C   UNL     1       3.084  13.812  -0.666  0.00  0.00    +0.000 A 
ENDROOT
BRANCH   1   8
ATOM      7  C   UNL     1       4.173  13.125  -3.710  0.00  0.00    +0.000 C 
ATOM      8  O   UNL     1       3.322  12.644  -2.677  0.00  0.00    +0.000 OA
ENDBRANCH   1   8
BRANCH   6   9
ATOM      9  O   UNL     1       4.157  13.111  -0.185  0.00  0.00    +0.000 OA
ATOM     10  H   UNL     1       4.749  13.789   0.191  0.00  0.00    +0.000 HD
ENDBRANCH   6   9
TORSDOF 2
ENDMDL
