MODEL 1
REMARK VINA RESULT:    -4.623      0.000      0.000
REMARK INTER + INTRA:          -6.722
REMARK INTER:                  -6.244
REMARK INTRA:                  -0.478
REMARK UNBOUND:                -0.478
REMARK  Name = 
REMARK  10 active torsions:
REMARK  status: ('A' for Active; 'I' for Inactive)
REMARK    1  A    between atoms: C_1  and  C_2
REMARK    2  A    between atoms: C_5  and  N_8
REMARK    3  A    between atoms: N_8  and  C_9
REMARK    4  A    between atoms: N_8  and  C_13
REMARK    5  A    between atoms: C_9  and  C_10
REMARK    6  A    between atoms: C_10  and  C_11
REMARK    7  A    between atoms: C_10  and  O_12
REMARK    8  A    between atoms: C_13  and  C_14
REMARK    9  A    between atoms: C_14  and  C_15
REMARK   10  A    between atoms: C_14  and  O_16
REMARK                            x       y       z     vdW  Elec       q    Type
REMARK                         _______ _______ _______ _____ _____    ______ ____
ROOT
ATOM      1  N   UNL     1      -3.401  18.784  -5.951  0.00  0.00    +0.000 N 
ENDROOT
BRANCH   1   6
ATOM      2  C   UNL     1       0.239  20.780  -9.962  0.00  0.00    +0.000 C 
ATOM      3  C   UNL     1      -0.710  20.286  -8.914  0.00  0.00    +0.000 A 
ATOM      4  C   UNL     1      -0.253  19.921  -7.652  0.00  0.00    +0.000 A 
ATOM      5  C   UNL     1      -1.142  19.430  -6.682  0.00  0.00    +0.000 A 
ATOM      6  C   UNL     1      -2.516  19.257  -6.928  0.00  0.00    +0.000 A 
ATOM      7  C   UNL     1      -2.943  19.637  -8.214  0.00  0.00    +0.000 A 
ATOM      8  C   UNL     1      -2.065  20.132  -9.192  0.00  0.00    +0.000 A 
ENDBRANCH   1   6
BRANCH   1   9
ATOM      9  C   UNL     1      -3.454  17.337  -5.632  0.00  0.00    +0.000 C 
BRANCH   9  10
ATOM     10  C   UNL     1      -4.833  16.892  -5.088  0.00  0.00    +0.000 C 
ATOM     11  C   UNL     1      -5.618  16.131  -6.150  0.00  0.00    +0.000 C 
BRANCH  10  12
ATOM     12  O   UNL     1      -4.685  16.036  -3.947  0.00  0.00    +0.000 OA
ATOM     13  H   UNL     1      -3.740  15.839  -3.839  0.00  0.00    +0.000 HD
ENDBRANCH  10  12
ENDBRANCH   9  10
ENDBRANCH   1   9
BRANCH   1  14
ATOM     14  C   UNL     1      -4.620  19.549  -5.583  0.00  0.00    +0.000 C 
BRANCH  14  15
ATOM     15  C   UNL     1      -4.283  20.949  -5.017  0.00  0.00    +0.000 C 
ATOM     16  C   UNL     1      -4.836  22.088  -5.865  0.00  0.00    +0.000 C 
BRANCH  15  17
ATOM     17  O   UNL     1      -4.773  21.111  -3.686  0.00  0.00    +0.000 OA
ATOM     18  H   UNL     1      -4.225  21.824  -3.300  0.00  0.00    +0.000 HD
ENDBRANCH  15  17
ENDBRANCH  14  15
ENDBRANCH   1  14
TORSDOF 7
ENDMDL
MODEL 2
REMARK VINA RESULT:    -4.441      1.040      3.273
REMARK INTER + INTRA:          -6.476
REMARK INTER:                  -5.837
REMARK INTRA:                  -0.639
REMARK UNBOUND:                -0.478
REMARK  Name = 
REMARK  10 active torsions:
REMARK  status: ('A' for Active; 'I' for Inactive)
REMARK    1  A    between atoms: C_1  and  C_2
REMARK    2  A    between atoms: C_5  and  N_8
REMARK    3  A    between atoms: N_8  and  C_9
REMARK    4  A    between atoms: N_8  and  C_13
REMARK    5  A    between atoms: C_9  and  C_10
REMARK    6  A    between atoms: C_10  and  C_11
REMARK    7  A    between atoms: C_10  and  O_12
REMARK    8  A    between atoms: C_13  and  C_14
REMARK    9  A    between atoms: C_14  and  C_15
REMARK   10  A    between atoms: C_14  and  O_16
REMARK                            x       y       z     vdW  Elec       q    Type
REMARK                         _______ _______ _______ _____ _____    ______ ____
ROOT
ATOM      1  N   UNL     1      -2.946  19.522  -6.164  0.00  0.00    +0.000 N 
ENDROOT
BRANCH   1   6
ATOM      2  C   UNL     1       0.400  20.812 -10.689  0.00  0.00    +0.000 C 
ATOM      3  C   UNL     1      -0.476  20.501  -9.514  0.00  0.00    +0.000 A 
ATOM      4  C   UNL     1       0.016  20.578  -8.215  0.00  0.00    +0.000 A 
ATOM      5  C   UNL     1      -0.800  20.257  -7.119  0.00  0.00    +0.000 A 
ATOM      6  C   UNL     1      -2.131  19.823  -7.262  0.00  0.00    +0.000 A 
ATOM      7  C   UNL     1      -2.596  19.759  -8.589  0.00  0.00    +0.000 A 
ATOM      8  C   UNL     1      -1.790  20.080  -9.694  0.00  0.00    +0.000 A 
ENDBRANCH   1   6
BRANCH   1   9
ATOM      9  C   UNL     1      -3.462  20.612  -5.301  0.00  0.00    +0.000 C 
BRANCH   9  10
ATOM     10  C   UNL     1      -4.427  21.564  -6.050  0.00  0.00    +0.000 C 
ATOM     11  C   UNL     1      -5.629  20.803  -6.596  0.00  0.00    +0.000 C 
BRANCH  10  12
ATOM     12  O   UNL     1      -4.912  22.595  -5.179  0.00  0.00    +0.000 OA
ATOM     13  H   UNL     1      -5.884  22.576  -5.202  0.00  0.00    +0.000 HD
ENDBRANCH  10  12
ENDBRANCH   9  10
ENDBRANCH   1   9
BRANCH   1  14
ATOM     14  C   UNL     1      -2.909  18.183  -5.523  0.00  0.00    +0.000 C 
BRANCH  14  15
ATOM     15  C   UNL     1      -4.310  17.529  -5.454  0.00  0.00    +0.000 C 
ATOM     16  C   UNL     1      -4.749  16.912  -6.776  0.00  0.00    +0.000 C 
BRANCH  15  17
ATOM     17  O   UNL     1      -4.370  16.516  -4.452  0.00  0.00    +0.000 OA
ATOM     18  H   UNL     1      -5.170  15.994  -4.667  0.00  0.00    +0.000 HD
ENDBRANCH  15  17
ENDBRANCH  14  15
ENDBRANCH   1  14
TORSDOF 7
ENDMDL
MODEL 3
REMARK VINA RESULT:    -4.421      2.473      5.117
REMARK INTER + INTRA:          -6.449
REMARK INTER:                  -5.929
REMARK INTRA:                  -0.520
REMARK UNBOUND:                -0.478
REMARK  Name = 
REMARK  10 active torsions:
REMARK  status: ('A' for Active; 'I' for Inactive)
REMARK    1  A    between atoms: C_1  and  C_2
REMARK    2  A    between atoms: C_5  and  N_8
REMARK    3  A    between atoms: N_8  and  C_9
REMARK    4  A    between atoms: N_8  and  C_13
REMARK    5  A    between atoms: C_9  and  C_10
REMARK    6  A    between atoms: C_10  and  C_11
REMARK    7  A    between atoms: C_10  and  O_12
REMARK    8  A    between atoms: C_13  and  C_14
REMARK    9  A    between atoms: C_14  and  C_15
REMARK   10  A    between atoms: C_14  and  O_16
REMARK                            x       y       z     vdW  Elec       q    Type
REMARK                         _______ _______ _______ _____ _____    ______ ____
ROOT
ATOM      1  N   UNL     1      -2.733  20.591  -7.180  0.00  0.00    +0.000 N 
ENDROOT
BRANCH   1   6
ATOM      2  C   UNL     1      -5.022  16.023  -4.492  0.00  0.00    +0.000 C 
ATOM      3  C   UNL     1      -4.430  17.197  -5.211  0.00  0.00    +0.000 A 
ATOM      4  C   UNL     1      -3.054  17.316  -5.373  0.00  0.00    +0.000 A 
ATOM      5  C   UNL     1      -2.503  18.433  -6.021  0.00  0.00    +0.000 A 
ATOM      6  C   UNL     1      -3.288  19.489  -6.517  0.00  0.00    +0.000 A 
ATOM      7  C   UNL     1      -4.675  19.335  -6.338  0.00  0.00    +0.000 A 
ATOM      8  C   UNL     1      -5.240  18.222  -5.692  0.00  0.00    +0.000 A 
ENDBRANCH   1   6
BRANCH   1   9
ATOM      9  C   UNL     1      -1.272  20.836  -7.121  0.00  0.00    +0.000 C 
BRANCH   9  10
ATOM     10  C   UNL     1      -0.618  20.903  -8.522  0.00  0.00    +0.000 C 
ATOM     11  C   UNL     1      -0.060  22.295  -8.797  0.00  0.00    +0.000 C 
BRANCH  10  12
ATOM     12  O   UNL     1       0.460  19.963  -8.633  0.00  0.00    +0.000 OA
ATOM     13  H   UNL     1       1.296  20.458  -8.601  0.00  0.00    +0.000 HD
ENDBRANCH  10  12
ENDBRANCH   9  10
ENDBRANCH   1   9
BRANCH   1  14
ATOM     14  C   UNL     1      -3.554  21.786  -7.506  0.00  0.00    +0.000 C 
BRANCH  14  15
ATOM     15  C   UNL     1      -3.439  22.886  -6.423  0.00  0.00    +0.000 C 
ATOM     16  C   UNL     1      -2.789  24.166  -6.936  0.00  0.00    +0.000 C 
BRANCH  15  17
ATOM     17  O   UNL     1      -4.714  23.225  -5.879  0.00  0.00    +0.000 OA
ATOM     18  H   UNL     1      -5.326  22.543  -6.224  0.00  0.00    +0.000 HD
ENDBRANCH  15  17
ENDBRANCH  14  15
ENDBRANCH   1  14
TORSDOF 7
ENDMDL
MODEL 4
REMARK VINA RESULT:    -4.399      1.186      3.579
REMARK INTER + INTRA:          -6.419
REMARK INTER:                  -5.814
REMARK INTRA:                  -0.605
REMARK UNBOUND:                -0.478
REMARK  Name = 
REMARK  10 active torsions:
REMARK  status: ('A' for Active; 'I' for Inactive)
REMARK    1  A    between atoms: C_1  and  C_2
REMARK    2  A    between atoms: C_5  and  N_8
REMARK    3  A    between atoms: N_8  and  C_9
REMARK    4  A    between atoms: N_8  and  C_13
REMARK    5  A    between atoms: C_9  and  C_10
REMARK    6  A    between atoms: C_10  and  C_11
REMARK    7  A    between atoms: C_10  and  O_12
REMARK    8  A    between atoms: C_13  and  C_14
REMARK    9  A    between atoms: C_14  and  C_15
REMARK   10  A    between atoms: C_14  and  O_16
REMARK                            x       y       z     vdW  Elec       q    Type
REMARK                         _______ _______ _______ _____ _____    ______ ____
ROOT
ATOM      1  N   UNL     1      -2.881  19.673  -6.257  0.00  0.00    +0.000 N 
ENDROOT
BRANCH   1   6
ATOM      2  C   UNL     1       0.309  20.778 -10.940  0.00  0.00    +0.000 C 
ATOM      3  C   UNL     1      -0.512  20.467  -9.726  0.00  0.00    +0.000 A 
ATOM      4  C   UNL     1      -1.852  20.114  -9.841  0.00  0.00    +0.000 A 
ATOM      5  C   UNL     1      -2.624  19.853  -8.697  0.00  0.00    +0.000 A 
ATOM      6  C   UNL     1      -2.110  19.953  -7.392  0.00  0.00    +0.000 A 
ATOM      7  C   UNL     1      -0.751  20.311  -7.314  0.00  0.00    +0.000 A 
ATOM      8  C   UNL     1       0.033  20.572  -8.449  0.00  0.00    +0.000 A 
ENDBRANCH   1   6
BRANCH   1   9
ATOM      9  C   UNL     1      -3.444  20.781  -5.448  0.00  0.00    +0.000 C 
BRANCH   9  10
ATOM     10  C   UNL     1      -4.380  21.705  -6.265  0.00  0.00    +0.000 C 
ATOM     11  C   UNL     1      -5.692  21.001  -6.591  0.00  0.00    +0.000 C 
BRANCH  10  12
ATOM     12  O   UNL     1      -4.687  22.901  -5.536  0.00  0.00    +0.000 OA
ATOM     13  H   UNL     1      -4.883  22.652  -4.617  0.00  0.00    +0.000 HD
ENDBRANCH  10  12
ENDBRANCH   9  10
ENDBRANCH   1   9
BRANCH   1  14
ATOM     14  C   UNL     1      -2.748  18.380  -5.538  0.00  0.00    +0.000 C 
BRANCH  14  15
ATOM     15  C   UNL     1      -4.077  17.586  -5.513  0.00  0.00    +0.000 C 
ATOM     16  C   UNL     1      -4.441  16.984  -6.865  0.00  0.00    +0.000 C 
BRANCH  15  17
ATOM     17  O   UNL     1      -4.043  16.530  -4.554  0.00  0.00    +0.000 OA
ATOM     18  H   UNL     1      -4.489  16.893  -3.763  0.00  0.00    +0.000 HD
ENDBRANCH  15  17
ENDBRANCH  14  15
ENDBRANCH   1  14
TORSDOF 7
ENDMDL
MODEL 5
REMARK VINA RESULT:    -4.361      2.500      5.601
REMARK INTER + INTRA:          -6.369
REMARK INTER:                  -6.045
REMARK INTRA:                  -0.323
REMARK UNBOUND:                -0.478
REMARK  Name = 
REMARK  10 active torsions:
REMARK  status: ('A' for Active; 'I' for Inactive)
REMARK    1  A    between atoms: C_1  and  C_2
REMARK    2  A    between atoms: C_5  and  N_8
REMARK    3  A    between atoms: N_8  and  C_9
REMARK    4  A    between atoms: N_8  and  C_13
REMARK    5  A    between atoms: C_9  and  C_10
REMARK    6  A    between atoms: C_10  and  C_11
REMARK    7  A    between atoms: C_10  and  O_12
REMARK    8  A    between atoms: C_13  and  C_14
REMARK    9  A    between atoms: C_14  and  C_15
REMARK   10  A    between atoms: C_14  and  O_16
REMARK                            x       y       z     vdW  Elec       q    Type
REMARK                         _______ _______ _______ _____ _____    ______ ____
ROOT
ATOM      1  N   UNL     1      -2.696  20.944  -7.792  0.00  0.00    +0.000 N 
ENDROOT
BRANCH   1   6
ATOM      2  C   UNL     1      -4.963  16.521  -4.856  0.00  0.00    +0.000 C 
ATOM      3  C   UNL     1      -4.378  17.683  -5.598  0.00  0.00    +0.000 A 
ATOM      4  C   UNL     1      -5.181  18.512  -6.375  0.00  0.00    +0.000 A 
ATOM      5  C   UNL     1      -4.622  19.582  -7.092  0.00  0.00    +0.000 A 
ATOM      6  C   UNL     1      -3.244  19.863  -7.089  0.00  0.00    +0.000 A 
ATOM      7  C   UNL     1      -2.463  19.006  -6.292  0.00  0.00    +0.000 A 
ATOM      8  C   UNL     1      -3.009  17.934  -5.568  0.00  0.00    +0.000 A 
ENDBRANCH   1   6
BRANCH   1   9
ATOM      9  C   UNL     1      -3.428  22.232  -7.864  0.00  0.00    +0.000 C 
BRANCH   9  10
ATOM     10  C   UNL     1      -3.300  23.068  -6.568  0.00  0.00    +0.000 C 
ATOM     11  C   UNL     1      -2.668  24.425  -6.855  0.00  0.00    +0.000 C 
BRANCH  10  12
ATOM     12  O   UNL     1      -4.585  23.294  -5.972  0.00  0.00    +0.000 OA
ATOM     13  H   UNL     1      -5.158  23.709  -6.639  0.00  0.00    +0.000 HD
ENDBRANCH  10  12
ENDBRANCH   9  10
ENDBRANCH   1   9
BRANCH   1  14
ATOM     14  C   UNL     1      -1.696  20.733  -8.870  0.00  0.00    +0.000 C 
BRANCH  14  15
ATOM     15  C   UNL     1      -0.243  20.860  -8.351  0.00  0.00    +0.000 C 
ATOM     16  C   UNL     1      -0.133  21.673  -7.067  0.00  0.00    +0.000 C 
BRANCH  15  17
ATOM     17  O   UNL     1       0.346  19.581  -8.116  0.00  0.00    +0.000 OA
ATOM     18  H   UNL     1      -0.117  18.974  -8.727  0.00  0.00    +0.000 HD
ENDBRANCH  15  17
ENDBRANCH  14  15
ENDBRANCH   1  14
TORSDOF 7
ENDMDL
MODEL 6
REMARK VINA RESULT:    -4.353      2.988      4.437
REMARK INTER + INTRA:          -6.358
REMARK INTER:                  -5.618
REMARK INTRA:                  -0.740
REMARK UNBOUND:                -0.478
REMARK  Name = 
REMARK  10 active torsions:
REMARK  status: ('A' for Active; 'I' for Inactive)
REMARK    1  A    between atoms: C_1  and  C_2
REMARK    2  A    between atoms: C_5  and  N_8
REMARK    3  A    between atoms: N_8  and  C_9
REMARK    4  A    between atoms: N_8  and  C_13
REMARK    5  A    between atoms: C_9  and  C_10
REMARK    6  A    between atoms: C_10  and  C_11
REMARK    7  A    between atoms: C_10  and  O_12
REMARK    8  A    between atoms: C_13  and  C_14
REMARK    9  A    between atoms: C_14  and  C_15
REMARK   10  A    between atoms: C_14  and  O_16
REMARK                            x       y       z     vdW  Elec       q    Type
REMARK                         _______ _______ _______ _____ _____    ______ ____
ROOT
ATOM      1  N   UNL     1      -3.951  21.427  -7.797  0.00  0.00    +0.000 N 
ENDROOT
BRANCH   1   6
ATOM      2  C   UNL     1      -0.303  17.216  -6.286  0.00  0.00    +0.000 C 
ATOM      3  C   UNL     1      -1.261  18.306  -6.656  0.00  0.00    +0.000 A 
ATOM      4  C   UNL     1      -2.433  18.022  -7.350  0.00  0.00    +0.000 A 
ATOM      5  C   UNL     1      -3.313  19.052  -7.721  0.00  0.00    +0.000 A 
ATOM      6  C   UNL     1      -3.060  20.407  -7.442  0.00  0.00    +0.000 A 
ATOM      7  C   UNL     1      -1.868  20.657  -6.738  0.00  0.00    +0.000 A 
ATOM      8  C   UNL     1      -0.980  19.636  -6.359  0.00  0.00    +0.000 A 
ENDBRANCH   1   6
BRANCH   1   9
ATOM      9  C   UNL     1      -5.340  21.416  -7.277  0.00  0.00    +0.000 C 
BRANCH   9  10
ATOM     10  C   UNL     1      -5.480  22.158  -5.926  0.00  0.00    +0.000 C 
ATOM     11  C   UNL     1      -5.165  21.230  -4.758  0.00  0.00    +0.000 C 
BRANCH  10  12
ATOM     12  O   UNL     1      -4.585  23.277  -5.858  0.00  0.00    +0.000 OA
ATOM     13  H   UNL     1      -3.823  23.088  -6.430  0.00  0.00    +0.000 HD
ENDBRANCH  10  12
ENDBRANCH   9  10
ENDBRANCH   1   9
BRANCH   1  14
ATOM     14  C   UNL     1      -3.756  22.221  -9.037  0.00  0.00    +0.000 C 
BRANCH  14  15
ATOM     15  C   UNL     1      -2.648  23.290  -8.878  0.00  0.00    +0.000 C 
ATOM     16  C   UNL     1      -2.324  24.017 -10.178  0.00  0.00    +0.000 C 
BRANCH  15  17
ATOM     17  O   UNL     1      -2.996  24.268  -7.900  0.00  0.00    +0.000 OA
ATOM     18  H   UNL     1      -2.404  25.027  -8.079  0.00  0.00    +0.000 HD
ENDBRANCH  15  17
ENDBRANCH  14  15
ENDBRANCH   1  14
TORSDOF 7
ENDMDL
MODEL 7
REMARK VINA RESULT:    -4.351      1.865      3.551
REMARK INTER + INTRA:          -6.355
REMARK INTER:                  -5.800
REMARK INTRA:                  -0.555
REMARK UNBOUND:                -0.478
REMARK  Name = 
REMARK  10 active torsions:
REMARK  status: ('A' for Active; 'I' for Inactive)
REMARK    1  A    between atoms: C_1  and  C_2
REMARK    2  A    between atoms: C_5  and  N_8
REMARK    3  A    between atoms: N_8  and  C_9
REMARK    4  A    between atoms: N_8  and  C_13
REMARK    5  A    between atoms: C_9  and  C_10
REMARK    6  A    between atoms: C_10  and  C_11
REMARK    7  A    between atoms: C_10  and  O_12
REMARK    8  A    between atoms: C_13  and  C_14
REMARK    9  A    between atoms: C_14  and  C_15
REMARK   10  A    between atoms: C_14  and  O_16
REMARK                            x       y       z     vdW  Elec       q    Type
REMARK                         _______ _______ _______ _____ _____    ______ ____
ROOT
ATOM      1  N   UNL     1      -2.566  19.939  -6.200  0.00  0.00    +0.000 N 
ENDROOT
BRANCH   1   6
ATOM      2  C   UNL     1       0.490  23.874  -9.115  0.00  0.00    +0.000 C 
ATOM      3  C   UNL     1      -0.323  22.868  -8.359  0.00  0.00    +0.000 A 
ATOM      4  C   UNL     1      -0.329  22.855  -6.969  0.00  0.00    +0.000 A 
ATOM      5  C   UNL     1      -1.069  21.891  -6.265  0.00  0.00    +0.000 A 
ATOM      6  C   UNL     1      -1.815  20.886  -6.907  0.00  0.00    +0.000 A 
ATOM      7  C   UNL     1      -1.787  20.931  -8.313  0.00  0.00    +0.000 A 
ATOM      8  C   UNL     1      -1.053  21.891  -9.029  0.00  0.00    +0.000 A 
ENDBRANCH   1   6
BRANCH   1   9
ATOM      9  C   UNL     1      -3.463  20.372  -5.101  0.00  0.00    +0.000 C 
BRANCH   9  10
ATOM     10  C   UNL     1      -4.596  21.309  -5.585  0.00  0.00    +0.000 C 
ATOM     11  C   UNL     1      -5.628  20.539  -6.401  0.00  0.00    +0.000 C 
BRANCH  10  12
ATOM     12  O   UNL     1      -5.271  21.917  -4.475  0.00  0.00    +0.000 OA
ATOM     13  H   UNL     1      -4.700  21.834  -3.694  0.00  0.00    +0.000 HD
ENDBRANCH  10  12
ENDBRANCH   9  10
ENDBRANCH   1   9
BRANCH   1  14
ATOM     14  C   UNL     1      -2.149  18.515  -6.140  0.00  0.00    +0.000 C 
BRANCH  14  15
ATOM     15  C   UNL     1      -3.156  17.643  -5.351  0.00  0.00    +0.000 C 
ATOM     16  C   UNL     1      -4.215  16.999  -6.238  0.00  0.00    +0.000 C 
BRANCH  15  17
ATOM     17  O   UNL     1      -2.499  16.607  -4.624  0.00  0.00    +0.000 OA
ATOM     18  H   UNL     1      -2.344  15.897  -5.279  0.00  0.00    +0.000 HD
ENDBRANCH  15  17
ENDBRANCH  14  15
ENDBRANCH   1  14
TORSDOF 7
ENDMDL
MODEL 8
REMARK VINA RESULT:    -4.336      1.815      1.954
REMARK INTER + INTRA:          -6.335
REMARK INTER:                  -5.790
REMARK INTRA:                  -0.545
REMARK UNBOUND:                -0.478
REMARK  Name = 
REMARK  10 active torsions:
REMARK  status: ('A' for Active; 'I' for Inactive)
REMARK    1  A    between atoms: C_1  and  C_2
REMARK    2  A    between atoms: C_5  and  N_8
REMARK    3  A    between atoms: N_8  and  C_9
REMARK    4  A    between atoms: N_8  and  C_13
REMARK    5  A    between atoms: C_9  and  C_10
REMARK    6  A    between atoms: C_10  and  C_11
REMARK    7  A    between atoms: C_10  and  O_12
REMARK    8  A    between atoms: C_13  and  C_14
REMARK    9  A    between atoms: C_14  and  C_15
REMARK   10  A    between atoms: C_14  and  O_16
REMARK                            x       y       z     vdW  Elec       q    Type
REMARK                         _______ _______ _______ _____ _____    ______ ____
ROOT
ATOM      1  N   UNL     1      -2.569  20.036  -5.854  0.00  0.00    +0.000 N 
ENDROOT
BRANCH   1   6
ATOM      2  C   UNL     1       0.292  23.566  -9.415  0.00  0.00    +0.000 C 
ATOM      3  C   UNL     1      -0.471  22.664  -8.493  0.00  0.00    +0.000 A 
ATOM      4  C   UNL     1      -0.447  22.864  -7.117  0.00  0.00    +0.000 A 
ATOM      5  C   UNL     1      -1.139  21.997  -6.256  0.00  0.00    +0.000 A 
ATOM      6  C   UNL     1      -1.865  20.885  -6.717  0.00  0.00    +0.000 A 
ATOM      7  C   UNL     1      -1.869  20.715  -8.114  0.00  0.00    +0.000 A 
ATOM      8  C   UNL     1      -1.183  21.575  -8.987  0.00  0.00    +0.000 A 
ENDBRANCH   1   6
BRANCH   1   9
ATOM      9  C   UNL     1      -2.460  18.565  -6.005  0.00  0.00    +0.000 C 
BRANCH   9  10
ATOM     10  C   UNL     1      -3.732  17.817  -5.533  0.00  0.00    +0.000 C 
ATOM     11  C   UNL     1      -4.442  17.156  -6.708  0.00  0.00    +0.000 C 
BRANCH  10  12
ATOM     12  O   UNL     1      -3.405  16.797  -4.580  0.00  0.00    +0.000 OA
ATOM     13  H   UNL     1      -3.560  15.933  -4.998  0.00  0.00    +0.000 HD
ENDBRANCH  10  12
ENDBRANCH   9  10
ENDBRANCH   1   9
BRANCH   1  14
ATOM     14  C   UNL     1      -3.787  20.502  -5.142  0.00  0.00    +0.000 C 
BRANCH  14  15
ATOM     15  C   UNL     1      -4.594  21.528  -5.974  0.00  0.00    +0.000 C 
ATOM     16  C   UNL     1      -5.692  20.887  -6.814  0.00  0.00    +0.000 C 
BRANCH  15  17
ATOM     17  O   UNL     1      -5.194  22.523  -5.146  0.00  0.00    +0.000 OA
ATOM     18  H   UNL     1      -6.129  22.248  -5.059  0.00  0.00    +0.000 HD
ENDBRANCH  15  17
ENDBRANCH  14  15
ENDBRANCH   1  14
TORSDOF 7
ENDMDL
MODEL 9
REMARK VINA RESULT:    -4.306      3.031      3.816
REMARK INTER + INTRA:          -6.294
REMARK INTER:                  -5.916
REMARK INTRA:                  -0.378
REMARK UNBOUND:                -0.478
REMARK  Name = 
REMARK  10 active torsions:
REMARK  status: ('A' for Active; 'I' for Inactive)
REMARK    1  A    between atoms: C_1  and  C_2
REMARK    2  A    between atoms: C_5  and  N_8
REMARK    3  A    between atoms: N_8  and  C_9
REMARK    4  A    between atoms: N_8  and  C_13
REMARK    5  A    between atoms: C_9  and  C_10
REMARK    6  A    between atoms: C_10  and  C_11
REMARK    7  A    between atoms: C_10  and  O_12
REMARK    8  A    between atoms: C_13  and  C_14
REMARK    9  A    between atoms: C_14  and  C_15
REMARK   10  A    between atoms: C_14  and  O_16
REMARK                            x       y       z     vdW  Elec       q    Type
REMARK                         _______ _______ _______ _____ _____    ______ ____
ROOT
ATOM      1  N   UNL     1      -1.964  20.922  -6.876  0.00  0.00    +0.000 N 
ENDROOT
BRANCH   1   6
ATOM      2  C   UNL     1       0.280  24.299 -10.985  0.00  0.00    +0.000 C 
ATOM      3  C   UNL     1      -0.284  23.406  -9.922  0.00  0.00    +0.000 A 
ATOM      4  C   UNL     1      -1.220  22.427 -10.234  0.00  0.00    +0.000 A 
ATOM      5  C   UNL     1      -1.768  21.613  -9.229  0.00  0.00    +0.000 A 
ATOM      6  C   UNL     1      -1.429  21.750  -7.870  0.00  0.00    +0.000 A 
ATOM      7  C   UNL     1      -0.478  22.749  -7.592  0.00  0.00    +0.000 A 
ATOM      8  C   UNL     1       0.079  23.568  -8.588  0.00  0.00    +0.000 A 
ENDBRANCH   1   6
BRANCH   1   9
ATOM      9  C   UNL     1      -1.873  19.448  -7.007  0.00  0.00    +0.000 C 
BRANCH   9  10
ATOM     10  C   UNL     1      -0.482  18.895  -6.610  0.00  0.00    +0.000 C 
ATOM     11  C   UNL     1      -0.547  17.396  -6.343  0.00  0.00    +0.000 C 
BRANCH  10  12
ATOM     12  O   UNL     1       0.477  19.119  -7.653  0.00  0.00    +0.000 OA
ATOM     13  H   UNL     1       0.646  18.270  -8.095  0.00  0.00    +0.000 HD
ENDBRANCH  10  12
ENDBRANCH   9  10
ENDBRANCH   1   9
BRANCH   1  14
ATOM     14  C   UNL     1      -3.041  21.403  -5.972  0.00  0.00    +0.000 C 
BRANCH  14  15
ATOM     15  C   UNL     1      -4.081  22.275  -6.715  0.00  0.00    +0.000 C 
ATOM     16  C   UNL     1      -5.290  21.483  -7.201  0.00  0.00    +0.000 C 
BRANCH  15  17
ATOM     17  O   UNL     1      -4.554  23.344  -5.897  0.00  0.00    +0.000 OA
ATOM     18  H   UNL     1      -5.511  23.408  -6.092  0.00  0.00    +0.000 HD
ENDBRANCH  15  17
ENDBRANCH  14  15
ENDBRANCH   1  14
TORSDOF 7
ENDMDL
