MODEL 1
REMARK VINA RESULT:    -3.981      0.000      0.000
REMARK INTER + INTRA:          -4.376
REMARK INTER:                  -4.331
REMARK INTRA:                  -0.046
REMARK UNBOUND:                -0.046
REMARK  Name = 
REMARK  3 active torsions:
REMARK  status: ('A' for Active; 'I' for Inactive)
REMARK    1  A    between atoms: C_1  and  O_2
REMARK    2  A    between atoms: O_2  and  C_3
REMARK    3  A    between atoms: C_8  and  O_9
REMARK                            x       y       z     vdW  Elec       q    Type
REMARK                         _______ _______ _______ _____ _____    ______ ____
ROOT
ATOM      1  C   UNL     1       3.652  10.123   4.163  0.00  0.00    +0.000 A 
ATOM      2  C   UNL     1       4.862  10.810   4.082  0.00  0.00    +0.000 A 
ATOM      3  C   UNL     1       5.974  10.200   3.486  0.00  0.00    +0.000 A 
ATOM      4  C   UNL     1       5.880   8.905   2.972  0.00  0.00    +0.000 A 
ATOM      5  C   UNL     1       4.673   8.213   3.049  0.00  0.00    +0.000 A 
ATOM      6  C   UNL     1       3.576   8.826   3.642  0.00  0.00    +0.000 A 
ENDROOT
BRANCH   1   8
ATOM      7  C   UNL     1       2.608  11.284   5.955  0.00  0.00    +0.000 C 
ATOM      8  O   UNL     1       2.488  10.594   4.717  0.00  0.00    +0.000 OA
ENDBRANCH   1   8
BRANCH   6   9
ATOM      9  O   UNL     1       2.401   8.125   3.706  0.00  0.00    +0.000 OA
ATOM     10  H   UNL     1       2.116   8.033   2.777  0.00  0.00    +0.000 HD
ENDBRANCH   6   9
TORSDOF 2
ENDMDL
MODEL 2
REMARK VINA RESULT:    -3.775     19.372     20.643
REMARK INTER + INTRA:          -4.152
REMARK INTER:                  -4.106
REMARK INTRA:                  -0.046
REMARK UNBOUND:                -0.046
REMARK  Name = 
REMARK  3 active torsions:
REMARK  status: ('A' for Active; 'I' for Inactive)
REMARK    1  A    between atoms: C_1  and  O_2
REMARK    2  A    between atoms: O_2  and  C_3
REMARK    3  A    between atoms: C_8  and  O_9
REMARK                            x       y       z     vdW  Elec       q    Type
REMARK                         _______ _______ _______ _____ _____    ______ ____
ROOT
ATOM      1  C   UNL     1      16.328  -6.562   8.291  0.00  0.00    +0.000 A 
ATOM      2  C   UNL     1      17.158  -6.068   7.285  0.00  0.00    +0.000 A 
ATOM      3  C   UNL     1      17.345  -4.687   7.149  0.00  0.00    +0.000 A 
ATOM      4  C   UNL     1      16.705  -3.797   8.013  0.00  0.00    +0.000 A 
ATOM      5  C   UNL     1      15.875  -4.283   9.020  0.00  0.00    +0.000 A 
ATOM      6  C   UNL     1      15.694  -5.654   9.148  0.00  0.00    +0.000 A 
ENDROOT
BRANCH   1   8
ATOM      7  C   UNL     1      17.159  -8.778   8.512  0.00  0.00    +0.000 C 
ATOM      8  O   UNL     1      16.053  -7.883   8.539  0.00  0.00    +0.000 OA
ENDBRANCH   1   8
BRANCH   6   9
ATOM      9  O   UNL     1      14.873  -6.108  10.146  0.00  0.00    +0.000 OA
ATOM     10  H   UNL     1      13.987  -6.150   9.738  0.00  0.00    +0.000 HD
ENDBRANCH   6   9
TORSDOF 2
ENDMDL
MODEL 3
REMARK VINA RESULT:    -3.721     18.585     19.736
REMARK INTER + INTRA:          -4.093
REMARK INTER:                  -4.072
REMARK INTRA:                  -0.021
REMARK UNBOUND:                -0.046
REMARK  Name = 
REMARK  3 active torsions:
REMARK  status: ('A' for Active; 'I' for Inactive)
REMARK    1  A    between atoms: C_1  and  O_2
REMARK    2  A    between atoms: O_2  and  C_3
REMARK    3  A    between atoms: C_8  and  O_9
REMARK                            x       y       z     vdW  Elec       q    Type
REMARK                         _______ _______ _______ _____ _____    ______ ____
ROOT
ATOM      1  C   UNL     1      16.450  -4.298   8.165  0.00  0.00    +0.000 A 
ATOM      2  C   UNL     1      17.159  -5.105   7.275  0.00  0.00    +0.000 A 
ATOM      3  C   UNL     1      17.129  -6.498   7.418  0.00  0.00    +0.000 A 
ATOM      4  C   UNL     1      16.393  -7.088   8.446  0.00  0.00    +0.000 A 
ATOM      5  C   UNL     1      15.681  -6.289   9.339  0.00  0.00    +0.000 A 
ATOM      6  C   UNL     1      15.718  -4.908   9.190  0.00  0.00    +0.000 A 
ENDROOT
BRANCH   1   8
ATOM      7  C   UNL     1      17.498  -2.237   8.712  0.00  0.00    +0.000 C 
ATOM      8  O   UNL     1      16.391  -2.928   8.146  0.00  0.00    +0.000 OA
ENDBRANCH   1   8
BRANCH   6   9
ATOM      9  O   UNL     1      15.011  -4.144  10.080  0.00  0.00    +0.000 OA
ATOM     10  H   UNL     1      14.165  -4.618  10.197  0.00  0.00    +0.000 HD
ENDBRANCH   6   9
TORSDOF 2
ENDMDL
MODEL 4
REMARK VINA RESULT:    -3.638     19.103     19.983
REMARK INTER + INTRA:          -4.003
REMARK INTER:                  -3.951
REMARK INTRA:                  -0.052
REMARK UNBOUND:                -0.046
REMARK  Name = 
REMARK  3 active torsions:
REMARK  status: ('A' for Active; 'I' for Inactive)
REMARK    1  A    between atoms: C_1  and  O_2
REMARK    2  A    between atoms: O_2  and  C_3
REMARK    3  A    between atoms: C_8  and  O_9
REMARK                            x       y       z     vdW  Elec       q    Type
REMARK                         _______ _______ _______ _____ _____    ______ ____
ROOT
ATOM      1  C   UNL     1      16.492  -4.944   9.631  0.00  0.00    +0.000 A 
ATOM      2  C   UNL     1      16.866  -3.679  10.084  0.00  0.00    +0.000 A 
ATOM      3  C   UNL     1      17.195  -2.675   9.164  0.00  0.00    +0.000 A 
ATOM      4  C   UNL     1      17.154  -2.932   7.792  0.00  0.00    +0.000 A 
ATOM      5  C   UNL     1      16.781  -4.193   7.332  0.00  0.00    +0.000 A 
ATOM      6  C   UNL     1      16.456  -5.182   8.252  0.00  0.00    +0.000 A 
ENDROOT
BRANCH   1   8
ATOM      7  C   UNL     1      17.129  -6.470  11.337  0.00  0.00    +0.000 C 
ATOM      8  O   UNL     1      16.146  -6.016  10.414  0.00  0.00    +0.000 OA
ENDBRANCH   1   8
BRANCH   6   9
ATOM      9  O   UNL     1      16.094  -6.414   7.776  0.00  0.00    +0.000 OA
ATOM     10  H   UNL     1      16.696  -6.577   7.025  0.00  0.00    +0.000 HD
ENDBRANCH   6   9
TORSDOF 2
ENDMDL
MODEL 5
REMARK VINA RESULT:    -3.568     18.899     19.949
REMARK INTER + INTRA:          -3.926
REMARK INTER:                  -3.889
REMARK INTRA:                  -0.037
REMARK UNBOUND:                -0.046
REMARK  Name = 
REMARK  3 active torsions:
REMARK  status: ('A' for Active; 'I' for Inactive)
REMARK    1  A    between atoms: C_1  and  O_2
REMARK    2  A    between atoms: O_2  and  C_3
REMARK    3  A    between atoms: C_8  and  O_9
REMARK                            x       y       z     vdW  Elec       q    Type
REMARK                         _______ _______ _______ _____ _____    ______ ____
ROOT
ATOM      1  C   UNL     1      16.760  -4.705   7.835  0.00  0.00    +0.000 A 
ATOM      2  C   UNL     1      16.737  -6.089   8.001  0.00  0.00    +0.000 A 
ATOM      3  C   UNL     1      16.334  -6.640   9.223  0.00  0.00    +0.000 A 
ATOM      4  C   UNL     1      15.955  -5.813  10.282  0.00  0.00    +0.000 A 
ATOM      5  C   UNL     1      15.975  -4.429  10.124  0.00  0.00    +0.000 A 
ATOM      6  C   UNL     1      16.376  -3.891   8.908  0.00  0.00    +0.000 A 
ENDROOT
BRANCH   1   8
ATOM      7  C   UNL     1      17.498  -4.827   5.579  0.00  0.00    +0.000 C 
ATOM      8  O   UNL     1      17.131  -4.030   6.699  0.00  0.00    +0.000 OA
ENDBRANCH   1   8
BRANCH   6   9
ATOM      9  O   UNL     1      16.388  -2.528   8.776  0.00  0.00    +0.000 OA
ATOM     10  H   UNL     1      17.247  -2.326   8.359  0.00  0.00    +0.000 HD
ENDBRANCH   6   9
TORSDOF 2
ENDMDL
MODEL 6
REMARK VINA RESULT:    -3.520     19.758     21.010
REMARK INTER + INTRA:          -3.874
REMARK INTER:                  -3.831
REMARK INTRA:                  -0.043
REMARK UNBOUND:                -0.046
REMARK  Name = 
REMARK  3 active torsions:
REMARK  status: ('A' for Active; 'I' for Inactive)
REMARK    1  A    between atoms: C_1  and  O_2
REMARK    2  A    between atoms: O_2  and  C_3
REMARK    3  A    between atoms: C_8  and  O_9
REMARK                            x       y       z     vdW  Elec       q    Type
REMARK                         _______ _______ _______ _____ _____    ______ ____
ROOT
ATOM      1  C   UNL     1      16.346  -6.825   8.610  0.00  0.00    +0.000 A 
ATOM      2  C   UNL     1      15.900  -6.279   9.813  0.00  0.00    +0.000 A 
ATOM      3  C   UNL     1      15.896  -4.890   9.992  0.00  0.00    +0.000 A 
ATOM      4  C   UNL     1      16.338  -4.043   8.974  0.00  0.00    +0.000 A 
ATOM      5  C   UNL     1      16.785  -4.581   7.769  0.00  0.00    +0.000 A 
ATOM      6  C   UNL     1      16.786  -5.960   7.600  0.00  0.00    +0.000 A 
ENDROOT
BRANCH   1   8
ATOM      7  C   UNL     1      17.451  -8.907   8.907  0.00  0.00    +0.000 C 
ATOM      8  O   UNL     1      16.406  -8.159   8.298  0.00  0.00    +0.000 OA
ENDBRANCH   1   8
BRANCH   6   9
ATOM      9  O   UNL     1      17.230  -6.465   6.407  0.00  0.00    +0.000 OA
ATOM     10  H   UNL     1      17.605  -7.338   6.631  0.00  0.00    +0.000 HD
ENDBRANCH   6   9
TORSDOF 2
ENDMDL
MODEL 7
REMARK VINA RESULT:    -3.468     11.861     12.656
REMARK INTER + INTRA:          -3.818
REMARK INTER:                  -3.777
REMARK INTRA:                  -0.041
REMARK UNBOUND:                -0.046
REMARK  Name = 
REMARK  3 active torsions:
REMARK  status: ('A' for Active; 'I' for Inactive)
REMARK    1  A    between atoms: C_1  and  O_2
REMARK    2  A    between atoms: O_2  and  C_3
REMARK    3  A    between atoms: C_8  and  O_9
REMARK                            x       y       z     vdW  Elec       q    Type
REMARK                         _______ _______ _______ _____ _____    ______ ____
ROOT
ATOM      1  C   UNL     1      13.415  10.074  11.006  0.00  0.00    +0.000 A 
ATOM      2  C   UNL     1      12.804  10.989  11.862  0.00  0.00    +0.000 A 
ATOM      3  C   UNL     1      13.385  11.283  13.102  0.00  0.00    +0.000 A 
ATOM      4  C   UNL     1      14.575  10.664  13.490  0.00  0.00    +0.000 A 
ATOM      5  C   UNL     1      15.191   9.749  12.640  0.00  0.00    +0.000 A 
ATOM      6  C   UNL     1      14.608   9.463  11.412  0.00  0.00    +0.000 A 
ENDROOT
BRANCH   1   8
ATOM      7  C   UNL     1      12.216  10.661   9.039  0.00  0.00    +0.000 C 
ATOM      8  O   UNL     1      12.961   9.692   9.769  0.00  0.00    +0.000 OA
ENDBRANCH   1   8
BRANCH   6   9
ATOM      9  O   UNL     1      15.232   8.560  10.594  0.00  0.00    +0.000 OA
ATOM     10  H   UNL     1      15.288   7.742  11.124  0.00  0.00    +0.000 HD
ENDBRANCH   6   9
TORSDOF 2
ENDMDL
MODEL 8
REMARK VINA RESULT:    -3.367     13.355     14.142
REMARK INTER + INTRA:          -3.707
REMARK INTER:                  -3.664
REMARK INTRA:                  -0.043
REMARK UNBOUND:                -0.046
REMARK  Name = 
REMARK  3 active torsions:
REMARK  status: ('A' for Active; 'I' for Inactive)
REMARK    1  A    between atoms: C_1  and  O_2
REMARK    2  A    between atoms: O_2  and  C_3
REMARK    3  A    between atoms: C_8  and  O_9
REMARK                            x       y       z     vdW  Elec       q    Type
REMARK                         _______ _______ _______ _____ _____    ______ ____
ROOT
ATOM      1  C   UNL     1      15.491   9.743  12.623  0.00  0.00    +0.000 A 
ATOM      2  C   UNL     1      15.036  10.662  13.568  0.00  0.00    +0.000 A 
ATOM      3  C   UNL     1      13.793  11.283  13.397  0.00  0.00    +0.000 A 
ATOM      4  C   UNL     1      13.002  10.990  12.285  0.00  0.00    +0.000 A 
ATOM      5  C   UNL     1      13.449  10.073  11.337  0.00  0.00    +0.000 A 
ATOM      6  C   UNL     1      14.684   9.462  11.513  0.00  0.00    +0.000 A 
ENDROOT
BRANCH   1   8
ATOM      7  C   UNL     1      17.131   8.641  13.942  0.00  0.00    +0.000 C 
ATOM      8  O   UNL     1      16.682   9.063  12.660  0.00  0.00    +0.000 OA
ENDBRANCH   1   8
BRANCH   6   9
ATOM      9  O   UNL     1      15.102   8.564  10.568  0.00  0.00    +0.000 OA
ATOM     10  H   UNL     1      15.605   7.893  11.068  0.00  0.00    +0.000 HD
ENDBRANCH   6   9
TORSDOF 2
ENDMDL
