MODEL 1
REMARK VINA RESULT:    -4.370      0.000      0.000
REMARK INTER + INTRA:          -4.799
REMARK INTER:                  -4.754
REMARK INTRA:                  -0.045
REMARK UNBOUND:                -0.045
REMARK  Name = 
REMARK  3 active torsions:
REMARK  status: ('A' for Active; 'I' for Inactive)
REMARK    1  A    between atoms: C_1  and  O_2
REMARK    2  A    between atoms: O_2  and  C_3
REMARK    3  A    between atoms: C_8  and  O_9
REMARK                            x       y       z     vdW  Elec       q    Type
REMARK                         _______ _______ _______ _____ _____    ______ ____
ROOT
ATOM      1  C   UNL     1       3.578  14.047  -2.597  0.00  0.00    +0.000 A 
ATOM      2  C   UNL     1       2.869  13.342  -1.625  0.00  0.00    +0.000 A 
ATOM      3  C   UNL     1       2.863  11.942  -1.642  0.00  0.00    +0.000 A 
ATOM      4  C   UNL     1       3.563  11.242  -2.627  0.00  0.00    +0.000 A 
ATOM      5  C   UNL     1       4.274  11.940  -3.601  0.00  0.00    +0.000 A 
ATOM      6  C   UNL     1       4.274  13.329  -3.577  0.00  0.00    +0.000 A 
ENDROOT
BRANCH   1   8
ATOM      7  C   UNL     1       2.472  16.148  -2.494  0.00  0.00    +0.000 C 
ATOM      8  O   UNL     1       3.671  15.412  -2.703  0.00  0.00    +0.000 OA
ENDBRANCH   1   8
BRANCH   6   9
ATOM      9  O   UNL     1       4.980  13.992  -4.545  0.00  0.00    +0.000 OA
ATOM     10  H   UNL     1       4.787  13.507  -5.370  0.00  0.00    +0.000 HD
ENDBRANCH   6   9
TORSDOF 2
ENDMDL
MODEL 2
REMARK VINA RESULT:    -4.294      2.208      3.011
REMARK INTER + INTRA:          -4.715
REMARK INTER:                  -4.672
REMARK INTRA:                  -0.043
REMARK UNBOUND:                -0.045
REMARK  Name = 
REMARK  3 active torsions:
REMARK  status: ('A' for Active; 'I' for Inactive)
REMARK    1  A    between atoms: C_1  and  O_2
REMARK    2  A    between atoms: O_2  and  C_3
REMARK    3  A    between atoms: C_8  and  O_9
REMARK                            x       y       z     vdW  Elec       q    Type
REMARK                         _______ _______ _______ _____ _____    ______ ____
ROOT
ATOM      1  C   UNL     1       3.529  13.820  -1.198  0.00  0.00    +0.000 A 
ATOM      2  C   UNL     1       4.221  14.829  -1.866  0.00  0.00    +0.000 A 
ATOM      3  C   UNL     1       4.593  14.654  -3.205  0.00  0.00    +0.000 A 
ATOM      4  C   UNL     1       4.277  13.473  -3.879  0.00  0.00    +0.000 A 
ATOM      5  C   UNL     1       3.586  12.460  -3.218  0.00  0.00    +0.000 A 
ATOM      6  C   UNL     1       3.221  12.642  -1.890  0.00  0.00    +0.000 A 
ENDROOT
BRANCH   1   8
ATOM      7  C   UNL     1       3.966  14.498   1.037  0.00  0.00    +0.000 C 
ATOM      8  O   UNL     1       3.105  13.854   0.106  0.00  0.00    +0.000 OA
ENDBRANCH   1   8
BRANCH   6   9
ATOM      9  O   UNL     1       2.542  11.632  -1.262  0.00  0.00    +0.000 OA
ATOM     10  H   UNL     1       3.223  10.961  -1.063  0.00  0.00    +0.000 HD
ENDBRANCH   6   9
TORSDOF 2
ENDMDL
MODEL 3
REMARK VINA RESULT:    -4.289     11.210     11.928
REMARK INTER + INTRA:          -4.711
REMARK INTER:                  -4.666
REMARK INTRA:                  -0.045
REMARK UNBOUND:                -0.045
REMARK  Name = 
REMARK  3 active torsions:
REMARK  status: ('A' for Active; 'I' for Inactive)
REMARK    1  A    between atoms: C_1  and  O_2
REMARK    2  A    between atoms: O_2  and  C_3
REMARK    3  A    between atoms: C_8  and  O_9
REMARK                            x       y       z     vdW  Elec       q    Type
REMARK                         _______ _______ _______ _____ _____    ______ ____
ROOT
ATOM      1  C   UNL     1      -0.506  15.786 -13.295  0.00  0.00    +0.000 A 
ATOM      2  C   UNL     1       0.297  14.652 -13.412  0.00  0.00    +0.000 A 
ATOM      3  C   UNL     1       1.449  14.690 -14.208  0.00  0.00    +0.000 A 
ATOM      4  C   UNL     1       1.802  15.856 -14.888  0.00  0.00    +0.000 A 
ATOM      5  C   UNL     1       1.006  16.994 -14.776  0.00  0.00    +0.000 A 
ATOM      6  C   UNL     1      -0.135  16.948 -13.985  0.00  0.00    +0.000 A 
ENDROOT
BRANCH   1   8
ATOM      7  C   UNL     1      -1.499  15.973 -11.145  0.00  0.00    +0.000 C 
ATOM      8  O   UNL     1      -1.656  15.893 -12.556  0.00  0.00    +0.000 OA
ENDBRANCH   1   8
BRANCH   6   9
ATOM      9  O   UNL     1      -0.903  18.078 -13.891  0.00  0.00    +0.000 OA
ATOM     10  H   UNL     1      -1.145  18.291 -14.812  0.00  0.00    +0.000 HD
ENDBRANCH   6   9
TORSDOF 2
ENDMDL
MODEL 4
REMARK VINA RESULT:    -4.257      1.467      2.475
REMARK INTER + INTRA:          -4.675
REMARK INTER:                  -4.624
REMARK INTRA:                  -0.051
REMARK UNBOUND:                -0.045
REMARK  Name = 
REMARK  3 active torsions:
REMARK  status: ('A' for Active; 'I' for Inactive)
REMARK    1  A    between atoms: C_1  and  O_2
REMARK    2  A    between atoms: O_2  and  C_3
REMARK    3  A    between atoms: C_8  and  O_9
REMARK                            x       y       z     vdW  Elec       q    Type
REMARK                         _______ _______ _______ _____ _____    ______ ____
ROOT
ATOM      1  C   UNL     1       3.822  13.870  -2.385  0.00  0.00    +0.000 A 
ATOM      2  C   UNL     1       4.259  13.462  -3.644  0.00  0.00    +0.000 A 
ATOM      3  C   UNL     1       4.213  12.107  -3.996  0.00  0.00    +0.000 A 
ATOM      4  C   UNL     1       3.731  11.158  -3.092  0.00  0.00    +0.000 A 
ATOM      5  C   UNL     1       3.292  11.558  -1.832  0.00  0.00    +0.000 A 
ATOM      6  C   UNL     1       3.342  12.904  -1.492  0.00  0.00    +0.000 A 
ENDROOT
BRANCH   1   8
ATOM      7  C   UNL     1       5.077  15.738  -1.621  0.00  0.00    +0.000 C 
ATOM      8  O   UNL     1       3.811  15.157  -1.908  0.00  0.00    +0.000 OA
ENDBRANCH   1   8
BRANCH   6   9
ATOM      9  O   UNL     1       2.906  13.273  -0.248  0.00  0.00    +0.000 OA
ATOM     10  H   UNL     1       3.459  12.761   0.372  0.00  0.00    +0.000 HD
ENDBRANCH   6   9
TORSDOF 2
ENDMDL
MODEL 5
REMARK VINA RESULT:    -4.256     10.683     11.275
REMARK INTER + INTRA:          -4.674
REMARK INTER:                  -4.622
REMARK INTRA:                  -0.052
REMARK UNBOUND:                -0.045
REMARK  Name = 
REMARK  3 active torsions:
REMARK  status: ('A' for Active; 'I' for Inactive)
REMARK    1  A    between atoms: C_1  and  O_2
REMARK    2  A    between atoms: O_2  and  C_3
REMARK    3  A    between atoms: C_8  and  O_9
REMARK                            x       y       z     vdW  Elec       q    Type
REMARK                         _______ _______ _______ _____ _____    ______ ____
ROOT
ATOM      1  C   UNL     1      -0.664  15.650 -12.823  0.00  0.00    +0.000 A 
ATOM      2  C   UNL     1      -1.526  14.952 -13.669  0.00  0.00    +0.000 A 
ATOM      3  C   UNL     1      -1.005  14.115 -14.663  0.00  0.00    +0.000 A 
ATOM      4  C   UNL     1       0.376  13.972 -14.816  0.00  0.00    +0.000 A 
ATOM      5  C   UNL     1       1.243  14.666 -13.975  0.00  0.00    +0.000 A 
ATOM      6  C   UNL     1       0.717  15.495 -12.992  0.00  0.00    +0.000 A 
ENDROOT
BRANCH   1   8
ATOM      7  C   UNL     1      -1.751  15.925 -10.728  0.00  0.00    +0.000 C 
ATOM      8  O   UNL     1      -1.033  16.501 -11.813  0.00  0.00    +0.000 OA
ENDBRANCH   1   8
BRANCH   6   9
ATOM      9  O   UNL     1       1.590  16.166 -12.178  0.00  0.00    +0.000 OA
ATOM     10  H   UNL     1       2.289  15.517 -11.974  0.00  0.00    +0.000 HD
ENDBRANCH   6   9
TORSDOF 2
ENDMDL
MODEL 6
REMARK VINA RESULT:    -4.171     10.609     11.202
REMARK INTER + INTRA:          -4.582
REMARK INTER:                  -4.544
REMARK INTRA:                  -0.038
REMARK UNBOUND:                -0.045
REMARK  Name = 
REMARK  3 active torsions:
REMARK  status: ('A' for Active; 'I' for Inactive)
REMARK    1  A    between atoms: C_1  and  O_2
REMARK    2  A    between atoms: O_2  and  C_3
REMARK    3  A    between atoms: C_8  and  O_9
REMARK                            x       y       z     vdW  Elec       q    Type
REMARK                         _______ _______ _______ _____ _____    ______ ____
ROOT
ATOM      1  C   UNL     1      -0.820  15.797 -12.241  0.00  0.00    +0.000 A 
ATOM      2  C   UNL     1       0.573  15.742 -12.215  0.00  0.00    +0.000 A 
ATOM      3  C   UNL     1       1.262  15.000 -13.184  0.00  0.00    +0.000 A 
ATOM      4  C   UNL     1       0.563  14.312 -14.178  0.00  0.00    +0.000 A 
ATOM      5  C   UNL     1      -0.829  14.363 -14.210  0.00  0.00    +0.000 A 
ATOM      6  C   UNL     1      -1.503  15.100 -13.245  0.00  0.00    +0.000 A 
ENDROOT
BRANCH   1   8
ATOM      7  C   UNL     1      -1.795  15.893 -10.076  0.00  0.00    +0.000 C 
ATOM      8  O   UNL     1      -1.620  16.479 -11.360  0.00  0.00    +0.000 OA
ENDBRANCH   1   8
BRANCH   6   9
ATOM      9  O   UNL     1      -2.871  15.135 -13.297  0.00  0.00    +0.000 OA
ATOM     10  H   UNL     1      -3.098  16.084 -13.252  0.00  0.00    +0.000 HD
ENDBRANCH   6   9
TORSDOF 2
ENDMDL
MODEL 7
REMARK VINA RESULT:    -4.066      1.351      3.116
REMARK INTER + INTRA:          -4.468
REMARK INTER:                  -4.415
REMARK INTRA:                  -0.052
REMARK UNBOUND:                -0.045
REMARK  Name = 
REMARK  3 active torsions:
REMARK  status: ('A' for Active; 'I' for Inactive)
REMARK    1  A    between atoms: C_1  and  O_2
REMARK    2  A    between atoms: O_2  and  C_3
REMARK    3  A    between atoms: C_8  and  O_9
REMARK                            x       y       z     vdW  Elec       q    Type
REMARK                         _______ _______ _______ _____ _____    ______ ____
ROOT
ATOM      1  C   UNL     1       3.462  13.198  -2.741  0.00  0.00    +0.000 A 
ATOM      2  C   UNL     1       2.655  13.509  -1.647  0.00  0.00    +0.000 A 
ATOM      3  C   UNL     1       2.664  14.806  -1.117  0.00  0.00    +0.000 A 
ATOM      4  C   UNL     1       3.477  15.793  -1.676  0.00  0.00    +0.000 A 
ATOM      5  C   UNL     1       4.286  15.491  -2.770  0.00  0.00    +0.000 A 
ATOM      6  C   UNL     1       4.271  14.202  -3.288  0.00  0.00    +0.000 A 
ENDROOT
BRANCH   1   8
ATOM      7  C   UNL     1       4.029  10.898  -2.563  0.00  0.00    +0.000 C 
ATOM      8  O   UNL     1       3.555  11.977  -3.359  0.00  0.00    +0.000 OA
ENDBRANCH   1   8
BRANCH   6   9
ATOM      9  O   UNL     1       5.074  13.928  -4.363  0.00  0.00    +0.000 OA
ATOM     10  H   UNL     1       4.823  13.025  -4.637  0.00  0.00    +0.000 HD
ENDBRANCH   6   9
TORSDOF 2
ENDMDL
MODEL 8
REMARK VINA RESULT:    -4.013      2.105      3.838
REMARK INTER + INTRA:          -4.410
REMARK INTER:                  -4.381
REMARK INTRA:                  -0.030
REMARK UNBOUND:                -0.045
REMARK  Name = 
REMARK  3 active torsions:
REMARK  status: ('A' for Active; 'I' for Inactive)
REMARK    1  A    between atoms: C_1  and  O_2
REMARK    2  A    between atoms: O_2  and  C_3
REMARK    3  A    between atoms: C_8  and  O_9
REMARK                            x       y       z     vdW  Elec       q    Type
REMARK                         _______ _______ _______ _____ _____    ______ ____
ROOT
ATOM      1  C   UNL     1       3.771  13.640  -2.580  0.00  0.00    +0.000 A 
ATOM      2  C   UNL     1       4.444  14.609  -3.323  0.00  0.00    +0.000 A 
ATOM      3  C   UNL     1       5.015  15.713  -2.678  0.00  0.00    +0.000 A 
ATOM      4  C   UNL     1       4.916  15.853  -1.292  0.00  0.00    +0.000 A 
ATOM      5  C   UNL     1       4.246  14.888  -0.543  0.00  0.00    +0.000 A 
ATOM      6  C   UNL     1       3.682  13.797  -1.192  0.00  0.00    +0.000 A 
ENDROOT
BRANCH   1   8
ATOM      7  C   UNL     1       4.022  11.426  -3.406  0.00  0.00    +0.000 C 
ATOM      8  O   UNL     1       3.166  12.513  -3.077  0.00  0.00    +0.000 OA
ENDBRANCH   1   8
BRANCH   6   9
ATOM      9  O   UNL     1       3.028  12.862  -0.434  0.00  0.00    +0.000 OA
ATOM     10  H   UNL     1       2.230  13.320  -0.109  0.00  0.00    +0.000 HD
ENDBRANCH   6   9
TORSDOF 2
ENDMDL
MODEL 9
REMARK VINA RESULT:    -3.907      2.201      3.892
REMARK INTER + INTRA:          -4.295
REMARK INTER:                  -4.257
REMARK INTRA:                  -0.038
REMARK UNBOUND:                -0.045
REMARK  Name = 
REMARK  3 active torsions:
REMARK  status: ('A' for Active; 'I' for Inactive)
REMARK    1  A    between atoms: C_1  and  O_2
REMARK    2  A    between atoms: O_2  and  C_3
REMARK    3  A    between atoms: C_8  and  O_9
REMARK                            x       y       z     vdW  Elec       q    Type
REMARK                         _______ _______ _______ _____ _____    ______ ____
ROOT
ATOM      1  C   UNL     1       2.986  13.087  -1.594  0.00  0.00    +0.000 A 
ATOM      2  C   UNL     1       1.948  13.482  -2.438  0.00  0.00    +0.000 A 
ATOM      3  C   UNL     1       1.157  14.588  -2.104  0.00  0.00    +0.000 A 
ATOM      4  C   UNL     1       1.399  15.302  -0.929  0.00  0.00    +0.000 A 
ATOM      5  C   UNL     1       2.434  14.915  -0.081  0.00  0.00    +0.000 A 
ATOM      6  C   UNL     1       3.213  13.816  -0.420  0.00  0.00    +0.000 A 
ENDROOT
BRANCH   1   8
ATOM      7  C   UNL     1       3.792  11.413  -3.075  0.00  0.00    +0.000 C 
ATOM      8  O   UNL     1       3.836  12.029  -1.794  0.00  0.00    +0.000 OA
ENDBRANCH   1   8
BRANCH   6   9
ATOM      9  O   UNL     1       4.224  13.454   0.429  0.00  0.00    +0.000 OA
ATOM     10  H   UNL     1       3.986  12.556   0.731  0.00  0.00    +0.000 HD
ENDBRANCH   6   9
TORSDOF 2
ENDMDL
