MODEL 1
REMARK VINA RESULT:    -3.923      0.000      0.000
REMARK INTER + INTRA:          -4.310
REMARK INTER:                  -4.267
REMARK INTRA:                  -0.043
REMARK UNBOUND:                -0.043
REMARK  Name = 
REMARK  3 active torsions:
REMARK  status: ('A' for Active; 'I' for Inactive)
REMARK    1  A    between atoms: C_1  and  O_2
REMARK    2  A    between atoms: O_2  and  C_3
REMARK    3  A    between atoms: C_8  and  O_9
REMARK                            x       y       z     vdW  Elec       q    Type
REMARK                         _______ _______ _______ _____ _____    ______ ____
ROOT
ATOM      1  C   UNL     1       6.216  14.605   0.787  0.00  0.00    +0.000 A 
ATOM      2  C   UNL     1       5.310  14.907   1.802  0.00  0.00    +0.000 A 
ATOM      3  C   UNL     1       5.404  14.257   3.040  0.00  0.00    +0.000 A 
ATOM      4  C   UNL     1       6.400  13.305   3.265  0.00  0.00    +0.000 A 
ATOM      5  C   UNL     1       7.309  12.998   2.255  0.00  0.00    +0.000 A 
ATOM      6  C   UNL     1       7.208  13.647   1.031  0.00  0.00    +0.000 A 
ENDROOT
BRANCH   1   8
ATOM      7  C   UNL     1       4.981  15.444  -1.063  0.00  0.00    +0.000 C 
ATOM      8  O   UNL     1       6.242  15.159  -0.468  0.00  0.00    +0.000 OA
ENDBRANCH   1   8
BRANCH   6   9
ATOM      9  O   UNL     1       8.113  13.329   0.054  0.00  0.00    +0.000 OA
ATOM     10  H   UNL     1       8.772  14.049   0.081  0.00  0.00    +0.000 HD
ENDBRANCH   6   9
TORSDOF 2
ENDMDL
MODEL 2
REMARK VINA RESULT:    -3.872      2.022      3.429
REMARK INTER + INTRA:          -4.255
REMARK INTER:                  -4.202
REMARK INTRA:                  -0.053
REMARK UNBOUND:                -0.043
REMARK  Name = 
REMARK  3 active torsions:
REMARK  status: ('A' for Active; 'I' for Inactive)
REMARK    1  A    between atoms: C_1  and  O_2
REMARK    2  A    between atoms: O_2  and  C_3
REMARK    3  A    between atoms: C_8  and  O_9
REMARK                            x       y       z     vdW  Elec       q    Type
REMARK                         _______ _______ _______ _____ _____    ______ ____
ROOT
ATOM      1  C   UNL     1       7.259  13.380   2.186  0.00  0.00    +0.000 A 
ATOM      2  C   UNL     1       5.948  13.563   1.748  0.00  0.00    +0.000 A 
ATOM      3  C   UNL     1       5.690  14.359   0.626  0.00  0.00    +0.000 A 
ATOM      4  C   UNL     1       6.739  14.975  -0.061  0.00  0.00    +0.000 A 
ATOM      5  C   UNL     1       8.051  14.796   0.370  0.00  0.00    +0.000 A 
ATOM      6  C   UNL     1       8.297  14.005   1.485  0.00  0.00    +0.000 A 
ENDROOT
BRANCH   1   8
ATOM      7  C   UNL     1       7.258  13.103   4.546  0.00  0.00    +0.000 C 
ATOM      8  O   UNL     1       7.657  12.631   3.265  0.00  0.00    +0.000 OA
ENDBRANCH   1   8
BRANCH   6   9
ATOM      9  O   UNL     1       9.596  13.844   1.889  0.00  0.00    +0.000 OA
ATOM     10  H   UNL     1       9.955  14.751   1.935  0.00  0.00    +0.000 HD
ENDBRANCH   6   9
TORSDOF 2
ENDMDL
MODEL 3
REMARK VINA RESULT:    -3.761      2.230      3.981
REMARK INTER + INTRA:          -4.134
REMARK INTER:                  -4.084
REMARK INTRA:                  -0.051
REMARK UNBOUND:                -0.043
REMARK  Name = 
REMARK  3 active torsions:
REMARK  status: ('A' for Active; 'I' for Inactive)
REMARK    1  A    between atoms: C_1  and  O_2
REMARK    2  A    between atoms: O_2  and  C_3
REMARK    3  A    between atoms: C_8  and  O_9
REMARK                            x       y       z     vdW  Elec       q    Type
REMARK                         _______ _______ _______ _____ _____    ______ ____
ROOT
ATOM      1  C   UNL     1       7.469  13.369   2.482  0.00  0.00    +0.000 A 
ATOM      2  C   UNL     1       8.318  13.808   1.467  0.00  0.00    +0.000 A 
ATOM      3  C   UNL     1       7.789  14.457   0.344  0.00  0.00    +0.000 A 
ATOM      4  C   UNL     1       6.413  14.667   0.231  0.00  0.00    +0.000 A 
ATOM      5  C   UNL     1       5.559  14.231   1.241  0.00  0.00    +0.000 A 
ATOM      6  C   UNL     1       6.092  13.589   2.351  0.00  0.00    +0.000 A 
ENDROOT
BRANCH   1   8
ATOM      7  C   UNL     1       8.808  13.383   4.445  0.00  0.00    +0.000 C 
ATOM      8  O   UNL     1       7.846  12.722   3.632  0.00  0.00    +0.000 OA
ENDBRANCH   1   8
BRANCH   6   9
ATOM      9  O   UNL     1       5.232  13.169   3.331  0.00  0.00    +0.000 OA
ATOM     10  H   UNL     1       5.811  12.864   4.055  0.00  0.00    +0.000 HD
ENDBRANCH   6   9
TORSDOF 2
ENDMDL
MODEL 4
REMARK VINA RESULT:    -3.715      5.049      7.369
REMARK INTER + INTRA:          -4.084
REMARK INTER:                  -4.032
REMARK INTRA:                  -0.052
REMARK UNBOUND:                -0.043
REMARK  Name = 
REMARK  3 active torsions:
REMARK  status: ('A' for Active; 'I' for Inactive)
REMARK    1  A    between atoms: C_1  and  O_2
REMARK    2  A    between atoms: O_2  and  C_3
REMARK    3  A    between atoms: C_8  and  O_9
REMARK                            x       y       z     vdW  Elec       q    Type
REMARK                         _______ _______ _______ _____ _____    ______ ____
ROOT
ATOM      1  C   UNL     1       7.113  19.136  -2.498  0.00  0.00    +0.000 A 
ATOM      2  C   UNL     1       7.066  20.529  -2.467  0.00  0.00    +0.000 A 
ATOM      3  C   UNL     1       6.822  21.247  -3.645  0.00  0.00    +0.000 A 
ATOM      4  C   UNL     1       6.626  20.578  -4.854  0.00  0.00    +0.000 A 
ATOM      5  C   UNL     1       6.671  19.186  -4.893  0.00  0.00    +0.000 A 
ATOM      6  C   UNL     1       6.914  18.482  -3.720  0.00  0.00    +0.000 A 
ENDROOT
BRANCH   1   8
ATOM      7  C   UNL     1       6.386  18.353  -0.375  0.00  0.00    +0.000 C 
ATOM      8  O   UNL     1       7.342  18.308  -1.428  0.00  0.00    +0.000 OA
ENDBRANCH   1   8
BRANCH   6   9
ATOM      9  O   UNL     1       6.954  17.115  -3.783  0.00  0.00    +0.000 OA
ATOM     10  H   UNL     1       6.227  16.818  -3.203  0.00  0.00    +0.000 HD
ENDBRANCH   6   9
TORSDOF 2
ENDMDL
MODEL 5
REMARK VINA RESULT:    -3.704      6.092      7.534
REMARK INTER + INTRA:          -4.072
REMARK INTER:                  -4.022
REMARK INTRA:                  -0.050
REMARK UNBOUND:                -0.043
REMARK  Name = 
REMARK  3 active torsions:
REMARK  status: ('A' for Active; 'I' for Inactive)
REMARK    1  A    between atoms: C_1  and  O_2
REMARK    2  A    between atoms: O_2  and  C_3
REMARK    3  A    between atoms: C_8  and  O_9
REMARK                            x       y       z     vdW  Elec       q    Type
REMARK                         _______ _______ _______ _____ _____    ______ ____
ROOT
ATOM      1  C   UNL     1       6.775  19.885  -4.178  0.00  0.00    +0.000 A 
ATOM      2  C   UNL     1       6.802  21.165  -3.626  0.00  0.00    +0.000 A 
ATOM      3  C   UNL     1       7.072  21.333  -2.262  0.00  0.00    +0.000 A 
ATOM      4  C   UNL     1       7.314  20.225  -1.447  0.00  0.00    +0.000 A 
ATOM      5  C   UNL     1       7.289  18.944  -1.991  0.00  0.00    +0.000 A 
ATOM      6  C   UNL     1       7.021  18.787  -3.345  0.00  0.00    +0.000 A 
ENDROOT
BRANCH   1   8
ATOM      7  C   UNL     1       7.351  20.205  -6.462  0.00  0.00    +0.000 C 
ATOM      8  O   UNL     1       6.525  19.573  -5.491  0.00  0.00    +0.000 OA
ENDBRANCH   1   8
BRANCH   6   9
ATOM      9  O   UNL     1       7.002  17.517  -3.858  0.00  0.00    +0.000 OA
ATOM     10  H   UNL     1       6.302  17.534  -4.538  0.00  0.00    +0.000 HD
ENDBRANCH   6   9
TORSDOF 2
ENDMDL
MODEL 6
REMARK VINA RESULT:    -3.687      1.344      3.096
REMARK INTER + INTRA:          -4.054
REMARK INTER:                  -4.003
REMARK INTRA:                  -0.051
REMARK UNBOUND:                -0.043
REMARK  Name = 
REMARK  3 active torsions:
REMARK  status: ('A' for Active; 'I' for Inactive)
REMARK    1  A    between atoms: C_1  and  O_2
REMARK    2  A    between atoms: O_2  and  C_3
REMARK    3  A    between atoms: C_8  and  O_9
REMARK                            x       y       z     vdW  Elec       q    Type
REMARK                         _______ _______ _______ _____ _____    ______ ____
ROOT
ATOM      1  C   UNL     1       6.493  13.907   1.638  0.00  0.00    +0.000 A 
ATOM      2  C   UNL     1       5.499  14.785   2.068  0.00  0.00    +0.000 A 
ATOM      3  C   UNL     1       5.176  15.908   1.296  0.00  0.00    +0.000 A 
ATOM      4  C   UNL     1       5.843  16.157   0.096  0.00  0.00    +0.000 A 
ATOM      5  C   UNL     1       6.837  15.284  -0.341  0.00  0.00    +0.000 A 
ATOM      6  C   UNL     1       7.151  14.173   0.431  0.00  0.00    +0.000 A 
ENDROOT
BRANCH   1   8
ATOM      7  C   UNL     1       7.650  12.968   3.489  0.00  0.00    +0.000 C 
ATOM      8  O   UNL     1       6.912  12.774   2.289  0.00  0.00    +0.000 OA
ENDBRANCH   1   8
BRANCH   6   9
ATOM      9  O   UNL     1       8.131  13.329  -0.019  0.00  0.00    +0.000 OA
ATOM     10  H   UNL     1       8.544  13.804  -0.766  0.00  0.00    +0.000 HD
ENDBRANCH   6   9
TORSDOF 2
ENDMDL
MODEL 7
REMARK VINA RESULT:    -3.602      1.740      3.384
REMARK INTER + INTRA:          -3.962
REMARK INTER:                  -3.917
REMARK INTRA:                  -0.044
REMARK UNBOUND:                -0.043
REMARK  Name = 
REMARK  3 active torsions:
REMARK  status: ('A' for Active; 'I' for Inactive)
REMARK    1  A    between atoms: C_1  and  O_2
REMARK    2  A    between atoms: O_2  and  C_3
REMARK    3  A    between atoms: C_8  and  O_9
REMARK                            x       y       z     vdW  Elec       q    Type
REMARK                         _______ _______ _______ _____ _____    ______ ____
ROOT
ATOM      1  C   UNL     1       8.231  13.753   2.250  0.00  0.00    +0.000 A 
ATOM      2  C   UNL     1       7.195  13.262   3.044  0.00  0.00    +0.000 A 
ATOM      3  C   UNL     1       5.871  13.341   2.595  0.00  0.00    +0.000 A 
ATOM      4  C   UNL     1       5.578  13.909   1.354  0.00  0.00    +0.000 A 
ATOM      5  C   UNL     1       6.607  14.401   0.554  0.00  0.00    +0.000 A 
ATOM      6  C   UNL     1       7.917  14.319   1.008  0.00  0.00    +0.000 A 
ENDROOT
BRANCH   1   8
ATOM      7  C   UNL     1       9.906  14.031   3.913  0.00  0.00    +0.000 C 
ATOM      8  O   UNL     1       9.567  13.742   2.562  0.00  0.00    +0.000 OA
ENDBRANCH   1   8
BRANCH   6   9
ATOM      9  O   UNL     1       8.912  14.809   0.204  0.00  0.00    +0.000 OA
ATOM     10  H   UNL     1       9.422  14.022  -0.067  0.00  0.00    +0.000 HD
ENDBRANCH   6   9
TORSDOF 2
ENDMDL
MODEL 8
REMARK VINA RESULT:    -3.493      6.140      8.513
REMARK INTER + INTRA:          -3.842
REMARK INTER:                  -3.805
REMARK INTRA:                  -0.038
REMARK UNBOUND:                -0.043
REMARK  Name = 
REMARK  3 active torsions:
REMARK  status: ('A' for Active; 'I' for Inactive)
REMARK    1  A    between atoms: C_1  and  O_2
REMARK    2  A    between atoms: O_2  and  C_3
REMARK    3  A    between atoms: C_8  and  O_9
REMARK                            x       y       z     vdW  Elec       q    Type
REMARK                         _______ _______ _______ _____ _____    ______ ____
ROOT
ATOM      1  C   UNL     1       7.338  19.396  -3.694  0.00  0.00    +0.000 A 
ATOM      2  C   UNL     1       8.432  20.259  -3.664  0.00  0.00    +0.000 A 
ATOM      3  C   UNL     1       8.811  20.949  -4.822  0.00  0.00    +0.000 A 
ATOM      4  C   UNL     1       8.100  20.779  -6.012  0.00  0.00    +0.000 A 
ATOM      5  C   UNL     1       7.005  19.918  -6.049  0.00  0.00    +0.000 A 
ATOM      6  C   UNL     1       6.637  19.238  -4.896  0.00  0.00    +0.000 A 
ENDROOT
BRANCH   1   8
ATOM      7  C   UNL     1       7.358  18.992  -1.352  0.00  0.00    +0.000 C 
ATOM      8  O   UNL     1       6.857  18.658  -2.641  0.00  0.00    +0.000 OA
ENDBRANCH   1   8
BRANCH   6   9
ATOM      9  O   UNL     1       5.558  18.397  -4.958  0.00  0.00    +0.000 OA
ATOM     10  H   UNL     1       5.321  18.228  -4.026  0.00  0.00    +0.000 HD
ENDBRANCH   6   9
TORSDOF 2
ENDMDL
MODEL 9
REMARK VINA RESULT:    -3.437      2.036      3.509
REMARK INTER + INTRA:          -3.781
REMARK INTER:                  -3.729
REMARK INTRA:                  -0.052
REMARK UNBOUND:                -0.043
REMARK  Name = 
REMARK  3 active torsions:
REMARK  status: ('A' for Active; 'I' for Inactive)
REMARK    1  A    between atoms: C_1  and  O_2
REMARK    2  A    between atoms: O_2  and  C_3
REMARK    3  A    between atoms: C_8  and  O_9
REMARK                            x       y       z     vdW  Elec       q    Type
REMARK                         _______ _______ _______ _____ _____    ______ ____
ROOT
ATOM      1  C   UNL     1       5.348  15.243   2.204  0.00  0.00    +0.000 A 
ATOM      2  C   UNL     1       5.064  16.546   1.796  0.00  0.00    +0.000 A 
ATOM      3  C   UNL     1       4.953  16.844   0.432  0.00  0.00    +0.000 A 
ATOM      4  C   UNL     1       5.126  15.844  -0.527  0.00  0.00    +0.000 A 
ATOM      5  C   UNL     1       5.410  14.540  -0.127  0.00  0.00    +0.000 A 
ATOM      6  C   UNL     1       5.518  14.254   1.228  0.00  0.00    +0.000 A 
ENDROOT
BRANCH   1   8
ATOM      7  C   UNL     1       4.302  14.783   4.287  0.00  0.00    +0.000 C 
ATOM      8  O   UNL     1       5.486  14.810   3.498  0.00  0.00    +0.000 OA
ENDBRANCH   1   8
BRANCH   6   9
ATOM      9  O   UNL     1       5.798  12.965   1.596  0.00  0.00    +0.000 OA
ATOM     10  H   UNL     1       6.767  12.885   1.503  0.00  0.00    +0.000 HD
ENDBRANCH   6   9
TORSDOF 2
ENDMDL
