MODEL 1
REMARK VINA RESULT:    -4.101      0.000      0.000
REMARK INTER + INTRA:          -5.677
REMARK INTER:                  -5.540
REMARK INTRA:                  -0.137
REMARK UNBOUND:                -0.137
REMARK  Name = 
REMARK  10 active torsions:
REMARK  status: ('A' for Active; 'I' for Inactive)
REMARK    1  A    between atoms: C_1  and  C_2
REMARK    2  A    between atoms: C_5  and  N_8
REMARK    3  A    between atoms: N_8  and  C_9
REMARK    4  A    between atoms: N_8  and  C_13
REMARK    5  A    between atoms: C_9  and  C_10
REMARK    6  A    between atoms: C_10  and  C_11
REMARK    7  A    between atoms: C_10  and  O_12
REMARK    8  A    between atoms: C_13  and  C_14
REMARK    9  A    between atoms: C_14  and  C_15
REMARK   10  A    between atoms: C_14  and  O_16
REMARK                            x       y       z     vdW  Elec       q    Type
REMARK                         _______ _______ _______ _____ _____    ______ ____
ROOT
ATOM      1  N   UNL     1      15.132  10.724  11.520  0.00  0.00    +0.000 N 
ENDROOT
BRANCH   1   6
ATOM      2  C   UNL     1      15.188   9.311  17.117  0.00  0.00    +0.000 C 
ATOM      3  C   UNL     1      15.194   9.692  15.668  0.00  0.00    +0.000 A 
ATOM      4  C   UNL     1      14.477  10.794  15.216  0.00  0.00    +0.000 A 
ATOM      5  C   UNL     1      14.462  11.129  13.852  0.00  0.00    +0.000 A 
ATOM      6  C   UNL     1      15.136  10.373  12.876  0.00  0.00    +0.000 A 
ATOM      7  C   UNL     1      15.852   9.267  13.369  0.00  0.00    +0.000 A 
ATOM      8  C   UNL     1      15.877   8.923  14.730  0.00  0.00    +0.000 A 
ENDBRANCH   1   6
BRANCH   1   9
ATOM      9  C   UNL     1      13.901  11.263  10.895  0.00  0.00    +0.000 C 
BRANCH   9  10
ATOM     10  C   UNL     1      12.848  10.167  10.599  0.00  0.00    +0.000 C 
ATOM     11  C   UNL     1      12.060  10.494   9.336  0.00  0.00    +0.000 C 
BRANCH  10  12
ATOM     12  O   UNL     1      13.473   8.889  10.414  0.00  0.00    +0.000 OA
ATOM     13  H   UNL     1      12.789   8.204  10.494  0.00  0.00    +0.000 HD
ENDBRANCH  10  12
ENDBRANCH   9  10
ENDBRANCH   1   9
BRANCH   1  14
ATOM     14  C   UNL     1      16.105  10.128  10.569  0.00  0.00    +0.000 C 
BRANCH  14  15
ATOM     15  C   UNL     1      16.085  10.834   9.192  0.00  0.00    +0.000 C 
ATOM     16  C   UNL     1      17.475  11.189   8.679  0.00  0.00    +0.000 C 
BRANCH  15  17
ATOM     17  O   UNL     1      15.438  10.037   8.201  0.00  0.00    +0.000 OA
ATOM     18  H   UNL     1      14.562  10.454   8.073  0.00  0.00    +0.000 HD
ENDBRANCH  15  17
ENDBRANCH  14  15
ENDBRANCH   1  14
TORSDOF 7
ENDMDL
MODEL 2
REMARK VINA RESULT:    -3.943      6.752     10.419
REMARK INTER + INTRA:          -5.463
REMARK INTER:                  -4.889
REMARK INTRA:                  -0.573
REMARK UNBOUND:                -0.137
REMARK  Name = 
REMARK  10 active torsions:
REMARK  status: ('A' for Active; 'I' for Inactive)
REMARK    1  A    between atoms: C_1  and  C_2
REMARK    2  A    between atoms: C_5  and  N_8
REMARK    3  A    between atoms: N_8  and  C_9
REMARK    4  A    between atoms: N_8  and  C_13
REMARK    5  A    between atoms: C_9  and  C_10
REMARK    6  A    between atoms: C_10  and  C_11
REMARK    7  A    between atoms: C_10  and  O_12
REMARK    8  A    between atoms: C_13  and  C_14
REMARK    9  A    between atoms: C_14  and  C_15
REMARK   10  A    between atoms: C_14  and  O_16
REMARK                            x       y       z     vdW  Elec       q    Type
REMARK                         _______ _______ _______ _____ _____    ______ ____
ROOT
ATOM      1  N   UNL     1      16.207   7.854  20.956  0.00  0.00    +0.000 N 
ENDROOT
BRANCH   1   6
ATOM      2  C   UNL     1      16.187   8.436  15.212  0.00  0.00    +0.000 C 
ATOM      3  C   UNL     1      16.176   8.266  16.701  0.00  0.00    +0.000 A 
ATOM      4  C   UNL     1      15.280   8.974  17.494  0.00  0.00    +0.000 A 
ATOM      5  C   UNL     1      15.294   8.833  18.891  0.00  0.00    +0.000 A 
ATOM      6  C   UNL     1      16.211   8.004  19.563  0.00  0.00    +0.000 A 
ATOM      7  C   UNL     1      17.101   7.303  18.730  0.00  0.00    +0.000 A 
ATOM      8  C   UNL     1      17.096   7.433  17.331  0.00  0.00    +0.000 A 
ENDBRANCH   1   6
BRANCH   1   9
ATOM      9  C   UNL     1      15.629   8.914  21.817  0.00  0.00    +0.000 C 
BRANCH   9  10
ATOM     10  C   UNL     1      15.731   8.583  23.326  0.00  0.00    +0.000 C 
ATOM     11  C   UNL     1      15.786   9.857  24.160  0.00  0.00    +0.000 C 
BRANCH  10  12
ATOM     12  O   UNL     1      14.601   7.815  23.762  0.00  0.00    +0.000 OA
ATOM     13  H   UNL     1      14.766   7.529  24.676  0.00  0.00    +0.000 HD
ENDBRANCH  10  12
ENDBRANCH   9  10
ENDBRANCH   1   9
BRANCH   1  14
ATOM     14  C   UNL     1      17.179   6.959  21.635  0.00  0.00    +0.000 C 
BRANCH  14  15
ATOM     15  C   UNL     1      16.615   5.532  21.841  0.00  0.00    +0.000 C 
ATOM     16  C   UNL     1      17.083   4.884  23.138  0.00  0.00    +0.000 C 
BRANCH  15  17
ATOM     17  O   UNL     1      15.188   5.524  21.832  0.00  0.00    +0.000 OA
ATOM     18  H   UNL     1      14.941   4.577  21.820  0.00  0.00    +0.000 HD
ENDBRANCH  15  17
ENDBRANCH  14  15
ENDBRANCH   1  14
TORSDOF 7
ENDMDL
MODEL 3
REMARK VINA RESULT:    -3.803      6.904     10.213
REMARK INTER + INTRA:          -5.274
REMARK INTER:                  -4.610
REMARK INTRA:                  -0.664
REMARK UNBOUND:                -0.137
REMARK  Name = 
REMARK  10 active torsions:
REMARK  status: ('A' for Active; 'I' for Inactive)
REMARK    1  A    between atoms: C_1  and  C_2
REMARK    2  A    between atoms: C_5  and  N_8
REMARK    3  A    between atoms: N_8  and  C_9
REMARK    4  A    between atoms: N_8  and  C_13
REMARK    5  A    between atoms: C_9  and  C_10
REMARK    6  A    between atoms: C_10  and  C_11
REMARK    7  A    between atoms: C_10  and  O_12
REMARK    8  A    between atoms: C_13  and  C_14
REMARK    9  A    between atoms: C_14  and  C_15
REMARK   10  A    between atoms: C_14  and  O_16
REMARK                            x       y       z     vdW  Elec       q    Type
REMARK                         _______ _______ _______ _____ _____    ______ ____
ROOT
ATOM      1  N   UNL     1      16.340   8.364  20.830  0.00  0.00    +0.000 N 
ENDROOT
BRANCH   1   6
ATOM      2  C   UNL     1      16.470   8.260  15.059  0.00  0.00    +0.000 C 
ATOM      3  C   UNL     1      16.425   8.265  16.557  0.00  0.00    +0.000 A 
ATOM      4  C   UNL     1      15.349   8.823  17.238  0.00  0.00    +0.000 A 
ATOM      5  C   UNL     1      15.327   8.851  18.642  0.00  0.00    +0.000 A 
ATOM      6  C   UNL     1      16.378   8.350  19.430  0.00  0.00    +0.000 A 
ATOM      7  C   UNL     1      17.449   7.791  18.708  0.00  0.00    +0.000 A 
ATOM      8  C   UNL     1      17.483   7.755  17.304  0.00  0.00    +0.000 A 
ENDBRANCH   1   6
BRANCH   1   9
ATOM      9  C   UNL     1      16.832   7.195  21.599  0.00  0.00    +0.000 C 
BRANCH   9  10
ATOM     10  C   UNL     1      15.971   5.926  21.378  0.00  0.00    +0.000 C 
ATOM     11  C   UNL     1      16.851   4.710  21.115  0.00  0.00    +0.000 C 
BRANCH  10  12
ATOM     12  O   UNL     1      15.160   5.649  22.527  0.00  0.00    +0.000 OA
ATOM     13  H   UNL     1      15.678   5.095  23.135  0.00  0.00    +0.000 HD
ENDBRANCH  10  12
ENDBRANCH   9  10
ENDBRANCH   1   9
BRANCH   1  14
ATOM     14  C   UNL     1      15.393   9.241  21.565  0.00  0.00    +0.000 C 
BRANCH  14  15
ATOM     15  C   UNL     1      15.536   9.098  23.100  0.00  0.00    +0.000 C 
ATOM     16  C   UNL     1      15.662  10.436  23.817  0.00  0.00    +0.000 C 
BRANCH  15  17
ATOM     17  O   UNL     1      14.432   8.394  23.668  0.00  0.00    +0.000 OA
ATOM     18  H   UNL     1      13.671   9.004  23.579  0.00  0.00    +0.000 HD
ENDBRANCH  15  17
ENDBRANCH  14  15
ENDBRANCH   1  14
TORSDOF 7
ENDMDL
MODEL 4
REMARK VINA RESULT:    -3.749      6.377      9.251
REMARK INTER + INTRA:          -5.201
REMARK INTER:                  -4.748
REMARK INTRA:                  -0.454
REMARK UNBOUND:                -0.137
REMARK  Name = 
REMARK  10 active torsions:
REMARK  status: ('A' for Active; 'I' for Inactive)
REMARK    1  A    between atoms: C_1  and  C_2
REMARK    2  A    between atoms: C_5  and  N_8
REMARK    3  A    between atoms: N_8  and  C_9
REMARK    4  A    between atoms: N_8  and  C_13
REMARK    5  A    between atoms: C_9  and  C_10
REMARK    6  A    between atoms: C_10  and  C_11
REMARK    7  A    between atoms: C_10  and  O_12
REMARK    8  A    between atoms: C_13  and  C_14
REMARK    9  A    between atoms: C_14  and  C_15
REMARK   10  A    between atoms: C_14  and  O_16
REMARK                            x       y       z     vdW  Elec       q    Type
REMARK                         _______ _______ _______ _____ _____    ______ ____
ROOT
ATOM      1  N   UNL     1      16.519   7.917  19.915  0.00  0.00    +0.000 N 
ENDROOT
BRANCH   1   6
ATOM      2  C   UNL     1      16.506   4.292  24.408  0.00  0.00    +0.000 C 
ATOM      3  C   UNL     1      16.486   5.225  23.235  0.00  0.00    +0.000 A 
ATOM      4  C   UNL     1      17.025   4.844  22.011  0.00  0.00    +0.000 A 
ATOM      5  C   UNL     1      17.032   5.733  20.924  0.00  0.00    +0.000 A 
ATOM      6  C   UNL     1      16.527   7.043  21.009  0.00  0.00    +0.000 A 
ATOM      7  C   UNL     1      15.988   7.393  22.260  0.00  0.00    +0.000 A 
ATOM      8  C   UNL     1      15.974   6.513  23.355  0.00  0.00    +0.000 A 
ENDBRANCH   1   6
BRANCH   1   9
ATOM      9  C   UNL     1      15.356   8.808  19.684  0.00  0.00    +0.000 C 
BRANCH   9  10
ATOM     10  C   UNL     1      15.550  10.219  20.292  0.00  0.00    +0.000 C 
ATOM     11  C   UNL     1      15.579  11.283  19.202  0.00  0.00    +0.000 C 
BRANCH  10  12
ATOM     12  O   UNL     1      14.486  10.539  21.198  0.00  0.00    +0.000 OA
ATOM     13  H   UNL     1      14.698  10.149  22.062  0.00  0.00    +0.000 HD
ENDBRANCH  10  12
ENDBRANCH   9  10
ENDBRANCH   1   9
BRANCH   1  14
ATOM     14  C   UNL     1      17.352   7.654  18.713  0.00  0.00    +0.000 C 
BRANCH  14  15
ATOM     15  C   UNL     1      16.633   8.057  17.404  0.00  0.00    +0.000 C 
ATOM     16  C   UNL     1      17.473   8.965  16.513  0.00  0.00    +0.000 C 
BRANCH  15  17
ATOM     17  O   UNL     1      16.254   6.915  16.637  0.00  0.00    +0.000 OA
ATOM     18  H   UNL     1      15.467   6.555  17.094  0.00  0.00    +0.000 HD
ENDBRANCH  15  17
ENDBRANCH  14  15
ENDBRANCH   1  14
TORSDOF 7
ENDMDL
MODEL 5
REMARK VINA RESULT:    -3.326     25.505     27.398
REMARK INTER + INTRA:          -4.630
REMARK INTER:                  -4.431
REMARK INTRA:                  -0.199
REMARK UNBOUND:                -0.137
REMARK  Name = 
REMARK  10 active torsions:
REMARK  status: ('A' for Active; 'I' for Inactive)
REMARK    1  A    between atoms: C_1  and  C_2
REMARK    2  A    between atoms: C_5  and  N_8
REMARK    3  A    between atoms: N_8  and  C_9
REMARK    4  A    between atoms: N_8  and  C_13
REMARK    5  A    between atoms: C_9  and  C_10
REMARK    6  A    between atoms: C_10  and  C_11
REMARK    7  A    between atoms: C_10  and  O_12
REMARK    8  A    between atoms: C_13  and  C_14
REMARK    9  A    between atoms: C_14  and  C_15
REMARK   10  A    between atoms: C_14  and  O_16
REMARK                            x       y       z     vdW  Elec       q    Type
REMARK                         _______ _______ _______ _____ _____    ______ ____
ROOT
ATOM      1  N   UNL     1      -0.354 -10.480  22.461  0.00  0.00    +0.000 N 
ENDROOT
BRANCH   1   6
ATOM      2  C   UNL     1       5.356  -9.961  21.786  0.00  0.00    +0.000 C 
ATOM      3  C   UNL     1       3.873 -10.072  21.967  0.00  0.00    +0.000 A 
ATOM      4  C   UNL     1       3.327 -10.418  23.198  0.00  0.00    +0.000 A 
ATOM      5  C   UNL     1       1.937 -10.549  23.354  0.00  0.00    +0.000 A 
ATOM      6  C   UNL     1       1.032 -10.366  22.294  0.00  0.00    +0.000 A 
ATOM      7  C   UNL     1       1.618 -10.015  21.064  0.00  0.00    +0.000 A 
ATOM      8  C   UNL     1       3.006  -9.879  20.895  0.00  0.00    +0.000 A 
ENDBRANCH   1   6
BRANCH   1   9
ATOM      9  C   UNL     1      -0.916 -10.841  23.785  0.00  0.00    +0.000 C 
BRANCH   9  10
ATOM     10  C   UNL     1      -2.078  -9.913  24.217  0.00  0.00    +0.000 C 
ATOM     11  C   UNL     1      -3.160 -10.699  24.949  0.00  0.00    +0.000 C 
BRANCH  10  12
ATOM     12  O   UNL     1      -1.611  -8.878  25.093  0.00  0.00    +0.000 OA
ATOM     13  H   UNL     1      -1.222  -8.175  24.548  0.00  0.00    +0.000 HD
ENDBRANCH  10  12
ENDBRANCH   9  10
ENDBRANCH   1   9
BRANCH   1  14
ATOM     14  C   UNL     1      -1.248 -10.756  21.307  0.00  0.00    +0.000 C 
BRANCH  14  15
ATOM     15  C   UNL     1      -2.207  -9.577  21.016  0.00  0.00    +0.000 C 
ATOM     16  C   UNL     1      -1.524  -8.404  20.322  0.00  0.00    +0.000 C 
BRANCH  15  17
ATOM     17  O   UNL     1      -3.313  -9.983  20.211  0.00  0.00    +0.000 OA
ATOM     18  H   UNL     1      -3.631 -10.813  20.619  0.00  0.00    +0.000 HD
ENDBRANCH  15  17
ENDBRANCH  14  15
ENDBRANCH   1  14
TORSDOF 7
ENDMDL
MODEL 6
REMARK VINA RESULT:    -3.316      2.028      2.652
REMARK INTER + INTRA:          -4.616
REMARK INTER:                  -4.949
REMARK INTRA:                   0.333
REMARK UNBOUND:                -0.137
REMARK  Name = 
REMARK  10 active torsions:
REMARK  status: ('A' for Active; 'I' for Inactive)
REMARK    1  A    between atoms: C_1  and  C_2
REMARK    2  A    between atoms: C_5  and  N_8
REMARK    3  A    between atoms: N_8  and  C_9
REMARK    4  A    between atoms: N_8  and  C_13
REMARK    5  A    between atoms: C_9  and  C_10
REMARK    6  A    between atoms: C_10  and  C_11
REMARK    7  A    between atoms: C_10  and  O_12
REMARK    8  A    between atoms: C_13  and  C_14
REMARK    9  A    between atoms: C_14  and  C_15
REMARK   10  A    between atoms: C_14  and  O_16
REMARK                            x       y       z     vdW  Elec       q    Type
REMARK                         _______ _______ _______ _____ _____    ______ ____
ROOT
ATOM      1  N   UNL     1      15.315  10.588  13.625  0.00  0.00    +0.000 N 
ENDROOT
BRANCH   1   6
ATOM      2  C   UNL     1      15.662   9.309  19.244  0.00  0.00    +0.000 C 
ATOM      3  C   UNL     1      15.597   9.637  17.784  0.00  0.00    +0.000 A 
ATOM      4  C   UNL     1      15.706  10.952  17.342  0.00  0.00    +0.000 A 
ATOM      5  C   UNL     1      15.614  11.257  15.974  0.00  0.00    +0.000 A 
ATOM      6  C   UNL     1      15.386  10.279  14.990  0.00  0.00    +0.000 A 
ATOM      7  C   UNL     1      15.283   8.961  15.472  0.00  0.00    +0.000 A 
ATOM      8  C   UNL     1      15.375   8.642  16.837  0.00  0.00    +0.000 A 
ENDBRANCH   1   6
BRANCH   1   9
ATOM      9  C   UNL     1      14.416   9.816  12.734  0.00  0.00    +0.000 C 
BRANCH   9  10
ATOM     10  C   UNL     1      13.558  10.721  11.817  0.00  0.00    +0.000 C 
ATOM     11  C   UNL     1      13.424  10.115  10.425  0.00  0.00    +0.000 C 
BRANCH  10  12
ATOM     12  O   UNL     1      12.240  10.897  12.354  0.00  0.00    +0.000 OA
ATOM     13  H   UNL     1      11.643  10.283  11.895  0.00  0.00    +0.000 HD
ENDBRANCH  10  12
ENDBRANCH   9  10
ENDBRANCH   1   9
BRANCH   1  14
ATOM     14  C   UNL     1      16.431  11.284  12.935  0.00  0.00    +0.000 C 
BRANCH  14  15
ATOM     15  C   UNL     1      17.417  10.292  12.271  0.00  0.00    +0.000 C 
ATOM     16  C   UNL     1      17.446   8.929  12.953  0.00  0.00    +0.000 C 
BRANCH  15  17
ATOM     17  O   UNL     1      17.112  10.090  10.892  0.00  0.00    +0.000 OA
ATOM     18  H   UNL     1      17.961   9.828  10.482  0.00  0.00    +0.000 HD
ENDBRANCH  15  17
ENDBRANCH  14  15
ENDBRANCH   1  14
TORSDOF 7
ENDMDL
MODEL 7
REMARK VINA RESULT:    -3.313     24.299     26.367
REMARK INTER + INTRA:          -4.612
REMARK INTER:                  -4.391
REMARK INTRA:                  -0.220
REMARK UNBOUND:                -0.137
REMARK  Name = 
REMARK  10 active torsions:
REMARK  status: ('A' for Active; 'I' for Inactive)
REMARK    1  A    between atoms: C_1  and  C_2
REMARK    2  A    between atoms: C_5  and  N_8
REMARK    3  A    between atoms: N_8  and  C_9
REMARK    4  A    between atoms: N_8  and  C_13
REMARK    5  A    between atoms: C_9  and  C_10
REMARK    6  A    between atoms: C_10  and  C_11
REMARK    7  A    between atoms: C_10  and  O_12
REMARK    8  A    between atoms: C_13  and  C_14
REMARK    9  A    between atoms: C_14  and  C_15
REMARK   10  A    between atoms: C_14  and  O_16
REMARK                            x       y       z     vdW  Elec       q    Type
REMARK                         _______ _______ _______ _____ _____    ______ ____
ROOT
ATOM      1  N   UNL     1       2.669  -9.933  22.248  0.00  0.00    +0.000 N 
ENDROOT
BRANCH   1   6
ATOM      2  C   UNL     1      -3.036 -10.366  21.477  0.00  0.00    +0.000 C 
ATOM      3  C   UNL     1      -1.552 -10.275  21.664  0.00  0.00    +0.000 A 
ATOM      4  C   UNL     1      -0.936 -10.840  22.775  0.00  0.00    +0.000 A 
ATOM      5  C   UNL     1       0.452 -10.726  22.960  0.00  0.00    +0.000 A 
ATOM      6  C   UNL     1       1.284 -10.027  22.067  0.00  0.00    +0.000 A 
ATOM      7  C   UNL     1       0.627  -9.470  20.954  0.00  0.00    +0.000 A 
ATOM      8  C   UNL     1      -0.759  -9.580  20.756  0.00  0.00    +0.000 A 
ENDBRANCH   1   6
BRANCH   1   9
ATOM      9  C   UNL     1       3.517  -9.326  21.194  0.00  0.00    +0.000 C 
BRANCH   9  10
ATOM     10  C   UNL     1       4.731  -8.556  21.771  0.00  0.00    +0.000 C 
ATOM     11  C   UNL     1       6.041  -9.213  21.354  0.00  0.00    +0.000 C 
BRANCH  10  12
ATOM     12  O   UNL     1       4.747  -7.199  21.306  0.00  0.00    +0.000 OA
ATOM     13  H   UNL     1       4.625  -6.616  22.074  0.00  0.00    +0.000 HD
ENDBRANCH  10  12
ENDBRANCH   9  10
ENDBRANCH   1   9
BRANCH   1  14
ATOM     14  C   UNL     1       3.386 -10.841  23.180  0.00  0.00    +0.000 C 
BRANCH  14  15
ATOM     15  C   UNL     1       3.535 -10.229  24.594  0.00  0.00    +0.000 C 
ATOM     16  C   UNL     1       4.987 -10.039  25.015  0.00  0.00    +0.000 C 
BRANCH  15  17
ATOM     17  O   UNL     1       2.877  -8.967  24.693  0.00  0.00    +0.000 OA
ATOM     18  H   UNL     1       3.474  -8.335  24.244  0.00  0.00    +0.000 HD
ENDBRANCH  15  17
ENDBRANCH  14  15
ENDBRANCH   1  14
TORSDOF 7
ENDMDL
MODEL 8
REMARK VINA RESULT:    -3.130      2.279      5.352
REMARK INTER + INTRA:          -4.365
REMARK INTER:                  -4.464
REMARK INTRA:                   0.099
REMARK UNBOUND:                -0.137
REMARK  Name = 
REMARK  10 active torsions:
REMARK  status: ('A' for Active; 'I' for Inactive)
REMARK    1  A    between atoms: C_1  and  C_2
REMARK    2  A    between atoms: C_5  and  N_8
REMARK    3  A    between atoms: N_8  and  C_9
REMARK    4  A    between atoms: N_8  and  C_13
REMARK    5  A    between atoms: C_9  and  C_10
REMARK    6  A    between atoms: C_10  and  C_11
REMARK    7  A    between atoms: C_10  and  O_12
REMARK    8  A    between atoms: C_13  and  C_14
REMARK    9  A    between atoms: C_14  and  C_15
REMARK   10  A    between atoms: C_14  and  O_16
REMARK                            x       y       z     vdW  Elec       q    Type
REMARK                         _______ _______ _______ _____ _____    ______ ____
ROOT
ATOM      1  N   UNL     1      15.524  10.687  13.809  0.00  0.00    +0.000 N 
ENDROOT
BRANCH   1   6
ATOM      2  C   UNL     1      12.158  10.708   9.118  0.00  0.00    +0.000 C 
ATOM      3  C   UNL     1      13.029  10.727  10.337  0.00  0.00    +0.000 A 
ATOM      4  C   UNL     1      14.411  10.843  10.226  0.00  0.00    +0.000 A 
ATOM      5  C   UNL     1      15.224  10.831  11.371  0.00  0.00    +0.000 A 
ATOM      6  C   UNL     1      14.708  10.679  12.670  0.00  0.00    +0.000 A 
ATOM      7  C   UNL     1      13.308  10.566  12.745  0.00  0.00    +0.000 A 
ATOM      8  C   UNL     1      12.482  10.579  11.608  0.00  0.00    +0.000 A 
ENDBRANCH   1   6
BRANCH   1   9
ATOM      9  C   UNL     1      15.030  11.284  15.073  0.00  0.00    +0.000 C 
BRANCH   9  10
ATOM     10  C   UNL     1      15.340  10.408  16.311  0.00  0.00    +0.000 C 
ATOM     11  C   UNL     1      15.453  11.262  17.569  0.00  0.00    +0.000 C 
BRANCH  10  12
ATOM     12  O   UNL     1      14.308   9.435  16.526  0.00  0.00    +0.000 OA
ATOM     13  H   UNL     1      14.170   9.348  17.484  0.00  0.00    +0.000 HD
ENDBRANCH  10  12
ENDBRANCH   9  10
ENDBRANCH   1   9
BRANCH   1  14
ATOM     14  C   UNL     1      17.002  10.598  13.696  0.00  0.00    +0.000 C 
BRANCH  14  15
ATOM     15  C   UNL     1      17.497   9.133  13.637  0.00  0.00    +0.000 C 
ATOM     16  C   UNL     1      16.807   8.226  14.650  0.00  0.00    +0.000 C 
BRANCH  15  17
ATOM     17  O   UNL     1      17.315   8.567  12.341  0.00  0.00    +0.000 OA
ATOM     18  H   UNL     1      18.198   8.607  11.921  0.00  0.00    +0.000 HD
ENDBRANCH  15  17
ENDBRANCH  14  15
ENDBRANCH   1  14
TORSDOF 7
ENDMDL
MODEL 9
REMARK VINA RESULT:    -3.096      3.385      6.253
REMARK INTER + INTRA:          -4.319
REMARK INTER:                  -4.417
REMARK INTRA:                   0.098
REMARK UNBOUND:                -0.137
REMARK  Name = 
REMARK  10 active torsions:
REMARK  status: ('A' for Active; 'I' for Inactive)
REMARK    1  A    between atoms: C_1  and  C_2
REMARK    2  A    between atoms: C_5  and  N_8
REMARK    3  A    between atoms: N_8  and  C_9
REMARK    4  A    between atoms: N_8  and  C_13
REMARK    5  A    between atoms: C_9  and  C_10
REMARK    6  A    between atoms: C_10  and  C_11
REMARK    7  A    between atoms: C_10  and  O_12
REMARK    8  A    between atoms: C_13  and  C_14
REMARK    9  A    between atoms: C_14  and  C_15
REMARK   10  A    between atoms: C_14  and  O_16
REMARK                            x       y       z     vdW  Elec       q    Type
REMARK                         _______ _______ _______ _____ _____    ______ ____
ROOT
ATOM      1  N   UNL     1      16.803   9.749  15.303  0.00  0.00    +0.000 N 
ENDROOT
BRANCH   1   6
ATOM      2  C   UNL     1      13.713  10.202  10.448  0.00  0.00    +0.000 C 
ATOM      3  C   UNL     1      14.503  10.063  11.713  0.00  0.00    +0.000 A 
ATOM      4  C   UNL     1      14.070  10.658  12.894  0.00  0.00    +0.000 A 
ATOM      5  C   UNL     1      14.830  10.549  14.070  0.00  0.00    +0.000 A 
ATOM      6  C   UNL     1      16.060   9.869  14.122  0.00  0.00    +0.000 A 
ATOM      7  C   UNL     1      16.465   9.280  12.911  0.00  0.00    +0.000 A 
ATOM      8  C   UNL     1      15.714   9.378  11.728  0.00  0.00    +0.000 A 
ENDBRANCH   1   6
BRANCH   1   9
ATOM      9  C   UNL     1      17.410  10.950  15.925  0.00  0.00    +0.000 C 
BRANCH   9  10
ATOM     10  C   UNL     1      16.799  11.284  17.309  0.00  0.00    +0.000 C 
ATOM     11  C   UNL     1      15.276  11.260  17.252  0.00  0.00    +0.000 C 
BRANCH  10  12
ATOM     12  O   UNL     1      17.221  10.337  18.300  0.00  0.00    +0.000 OA
ATOM     13  H   UNL     1      17.855   9.728  17.884  0.00  0.00    +0.000 HD
ENDBRANCH  10  12
ENDBRANCH   9  10
ENDBRANCH   1   9
BRANCH   1  14
ATOM     14  C   UNL     1      17.435   8.461  15.686  0.00  0.00    +0.000 C 
BRANCH  14  15
ATOM     15  C   UNL     1      16.497   7.583  16.549  0.00  0.00    +0.000 C 
ATOM     16  C   UNL     1      17.105   7.197  17.892  0.00  0.00    +0.000 C 
BRANCH  15  17
ATOM     17  O   UNL     1      15.251   8.231  16.799  0.00  0.00    +0.000 OA
ATOM     18  H   UNL     1      14.576   7.642  16.404  0.00  0.00    +0.000 HD
ENDBRANCH  15  17
ENDBRANCH  14  15
ENDBRANCH   1  14
TORSDOF 7
ENDMDL
