MODEL 1
REMARK VINA RESULT:    -4.212      0.000      0.000
REMARK INTER + INTRA:          -6.310
REMARK INTER:                  -5.690
REMARK INTRA:                  -0.620
REMARK UNBOUND:                -0.620
REMARK  Name = 
REMARK  10 active torsions:
REMARK  status: ('A' for Active; 'I' for Inactive)
REMARK    1  A    between atoms: C_1  and  C_2
REMARK    2  A    between atoms: C_5  and  N_8
REMARK    3  A    between atoms: N_8  and  C_9
REMARK    4  A    between atoms: N_8  and  C_13
REMARK    5  A    between atoms: C_9  and  C_10
REMARK    6  A    between atoms: C_10  and  C_11
REMARK    7  A    between atoms: C_10  and  O_12
REMARK    8  A    between atoms: C_13  and  C_14
REMARK    9  A    between atoms: C_14  and  C_15
REMARK   10  A    between atoms: C_14  and  O_16
REMARK                            x       y       z     vdW  Elec       q    Type
REMARK                         _______ _______ _______ _____ _____    ______ ____
ROOT
ATOM      1  N   UNL     1      -5.565  -0.085 -20.346  0.00  0.00    +0.000 N 
ENDROOT
BRANCH   1   6
ATOM      2  C   UNL     1      -2.064   2.882 -23.850  0.00  0.00    +0.000 C 
ATOM      3  C   UNL     1      -2.967   2.128 -22.922  0.00  0.00    +0.000 A 
ATOM      4  C   UNL     1      -2.486   1.070 -22.158  0.00  0.00    +0.000 A 
ATOM      5  C   UNL     1      -3.344   0.348 -21.313  0.00  0.00    +0.000 A 
ATOM      6  C   UNL     1      -4.718   0.627 -21.206  0.00  0.00    +0.000 A 
ATOM      7  C   UNL     1      -5.170   1.704 -21.991  0.00  0.00    +0.000 A 
ATOM      8  C   UNL     1      -4.322   2.436 -22.838  0.00  0.00    +0.000 A 
ENDBRANCH   1   6
BRANCH   1   9
ATOM      9  C   UNL     1      -5.196  -0.264 -18.921  0.00  0.00    +0.000 C 
BRANCH   9  10
ATOM     10  C   UNL     1      -5.590   0.948 -18.043  0.00  0.00    +0.000 C 
ATOM     11  C   UNL     1      -4.668   2.134 -18.305  0.00  0.00    +0.000 C 
BRANCH  10  12
ATOM     12  O   UNL     1      -6.936   1.364 -18.312  0.00  0.00    +0.000 OA
ATOM     13  H   UNL     1      -7.215   0.957 -19.149  0.00  0.00    +0.000 HD
ENDBRANCH  10  12
ENDBRANCH   9  10
ENDBRANCH   1   9
BRANCH   1  14
ATOM     14  C   UNL     1      -6.532  -1.082 -20.872  0.00  0.00    +0.000 C 
BRANCH  14  15
ATOM     15  C   UNL     1      -7.992  -0.574 -20.800  0.00  0.00    +0.000 C 
ATOM     16  C   UNL     1      -8.907  -1.230 -21.827  0.00  0.00    +0.000 C 
BRANCH  15  17
ATOM     17  O   UNL     1      -8.559  -0.781 -19.507  0.00  0.00    +0.000 OA
ATOM     18  H   UNL     1      -7.904  -1.329 -19.029  0.00  0.00    +0.000 HD
ENDBRANCH  15  17
ENDBRANCH  14  15
ENDBRANCH   1  14
TORSDOF 7
ENDMDL
MODEL 2
REMARK VINA RESULT:    -4.016      1.543      2.154
REMARK INTER + INTRA:          -6.045
REMARK INTER:                  -5.550
REMARK INTRA:                  -0.495
REMARK UNBOUND:                -0.620
REMARK  Name = 
REMARK  10 active torsions:
REMARK  status: ('A' for Active; 'I' for Inactive)
REMARK    1  A    between atoms: C_1  and  C_2
REMARK    2  A    between atoms: C_5  and  N_8
REMARK    3  A    between atoms: N_8  and  C_9
REMARK    4  A    between atoms: N_8  and  C_13
REMARK    5  A    between atoms: C_9  and  C_10
REMARK    6  A    between atoms: C_10  and  C_11
REMARK    7  A    between atoms: C_10  and  O_12
REMARK    8  A    between atoms: C_13  and  C_14
REMARK    9  A    between atoms: C_14  and  C_15
REMARK   10  A    between atoms: C_14  and  O_16
REMARK                            x       y       z     vdW  Elec       q    Type
REMARK                         _______ _______ _______ _____ _____    ______ ____
ROOT
ATOM      1  N   UNL     1      -5.940   0.856 -21.256  0.00  0.00    +0.000 N 
ENDROOT
BRANCH   1   6
ATOM      2  C   UNL     1      -0.977   2.794 -23.480  0.00  0.00    +0.000 C 
ATOM      3  C   UNL     1      -2.268   2.276 -22.922  0.00  0.00    +0.000 A 
ATOM      4  C   UNL     1      -3.473   2.914 -23.199  0.00  0.00    +0.000 A 
ATOM      5  C   UNL     1      -4.676   2.441 -22.649  0.00  0.00    +0.000 A 
ATOM      6  C   UNL     1      -4.734   1.333 -21.785  0.00  0.00    +0.000 A 
ATOM      7  C   UNL     1      -3.498   0.712 -21.529  0.00  0.00    +0.000 A 
ATOM      8  C   UNL     1      -2.288   1.173 -22.074  0.00  0.00    +0.000 A 
ENDBRANCH   1   6
BRANCH   1   9
ATOM      9  C   UNL     1      -6.210   0.969 -19.802  0.00  0.00    +0.000 C 
BRANCH   9  10
ATOM     10  C   UNL     1      -6.850  -0.311 -19.210  0.00  0.00    +0.000 C 
ATOM     11  C   UNL     1      -6.016  -0.853 -18.055  0.00  0.00    +0.000 C 
BRANCH  10  12
ATOM     12  O   UNL     1      -8.171  -0.046 -18.718  0.00  0.00    +0.000 OA
ATOM     13  H   UNL     1      -8.757   0.080 -19.482  0.00  0.00    +0.000 HD
ENDBRANCH  10  12
ENDBRANCH   9  10
ENDBRANCH   1   9
BRANCH   1  14
ATOM     14  C   UNL     1      -6.727  -0.190 -21.958  0.00  0.00    +0.000 C 
BRANCH  14  15
ATOM     15  C   UNL     1      -7.980   0.392 -22.656  0.00  0.00    +0.000 C 
ATOM     16  C   UNL     1      -9.284  -0.206 -22.143  0.00  0.00    +0.000 C 
BRANCH  15  17
ATOM     17  O   UNL     1      -8.055   1.809 -22.509  0.00  0.00    +0.000 OA
ATOM     18  H   UNL     1      -7.137   2.125 -22.627  0.00  0.00    +0.000 HD
ENDBRANCH  15  17
ENDBRANCH  14  15
ENDBRANCH   1  14
TORSDOF 7
ENDMDL
MODEL 3
REMARK VINA RESULT:    -3.853      1.497      3.175
REMARK INTER + INTRA:          -5.824
REMARK INTER:                  -5.240
REMARK INTRA:                  -0.585
REMARK UNBOUND:                -0.620
REMARK  Name = 
REMARK  10 active torsions:
REMARK  status: ('A' for Active; 'I' for Inactive)
REMARK    1  A    between atoms: C_1  and  C_2
REMARK    2  A    between atoms: C_5  and  N_8
REMARK    3  A    between atoms: N_8  and  C_9
REMARK    4  A    between atoms: N_8  and  C_13
REMARK    5  A    between atoms: C_9  and  C_10
REMARK    6  A    between atoms: C_10  and  C_11
REMARK    7  A    between atoms: C_10  and  O_12
REMARK    8  A    between atoms: C_13  and  C_14
REMARK    9  A    between atoms: C_14  and  C_15
REMARK   10  A    between atoms: C_14  and  O_16
REMARK                            x       y       z     vdW  Elec       q    Type
REMARK                         _______ _______ _______ _____ _____    ______ ____
ROOT
ATOM      1  N   UNL     1      -5.504   0.559 -21.147  0.00  0.00    +0.000 N 
ENDROOT
BRANCH   1   6
ATOM      2  C   UNL     1      -1.141   3.325 -23.723  0.00  0.00    +0.000 C 
ATOM      3  C   UNL     1      -2.277   2.594 -23.076  0.00  0.00    +0.000 A 
ATOM      4  C   UNL     1      -3.569   3.109 -23.110  0.00  0.00    +0.000 A 
ATOM      5  C   UNL     1      -4.625   2.434 -22.475  0.00  0.00    +0.000 A 
ATOM      6  C   UNL     1      -4.443   1.236 -21.761  0.00  0.00    +0.000 A 
ATOM      7  C   UNL     1      -3.125   0.745 -21.749  0.00  0.00    +0.000 A 
ATOM      8  C   UNL     1      -2.060   1.408 -22.382  0.00  0.00    +0.000 A 
ENDBRANCH   1   6
BRANCH   1   9
ATOM      9  C   UNL     1      -6.492  -0.179 -21.971  0.00  0.00    +0.000 C 
BRANCH   9  10
ATOM     10  C   UNL     1      -7.686   0.704 -22.410  0.00  0.00    +0.000 C 
ATOM     11  C   UNL     1      -7.918   0.599 -23.913  0.00  0.00    +0.000 C 
BRANCH  10  12
ATOM     12  O   UNL     1      -8.893   0.304 -21.745  0.00  0.00    +0.000 OA
ATOM     13  H   UNL     1      -8.967  -0.662 -21.811  0.00  0.00    +0.000 HD
ENDBRANCH  10  12
ENDBRANCH   9  10
ENDBRANCH   1   9
BRANCH   1  14
ATOM     14  C   UNL     1      -5.984   0.947 -19.796  0.00  0.00    +0.000 C 
BRANCH  14  15
ATOM     15  C   UNL     1      -6.707  -0.218 -19.076  0.00  0.00    +0.000 C 
ATOM     16  C   UNL     1      -6.006  -0.659 -17.797  0.00  0.00    +0.000 C 
BRANCH  15  17
ATOM     17  O   UNL     1      -8.053   0.119 -18.748  0.00  0.00    +0.000 OA
ATOM     18  H   UNL     1      -8.441   0.454 -19.582  0.00  0.00    +0.000 HD
ENDBRANCH  15  17
ENDBRANCH  14  15
ENDBRANCH   1  14
TORSDOF 7
ENDMDL
MODEL 4
REMARK VINA RESULT:    -3.817      3.014      5.694
REMARK INTER + INTRA:          -5.775
REMARK INTER:                  -5.321
REMARK INTRA:                  -0.454
REMARK UNBOUND:                -0.620
REMARK  Name = 
REMARK  10 active torsions:
REMARK  status: ('A' for Active; 'I' for Inactive)
REMARK    1  A    between atoms: C_1  and  C_2
REMARK    2  A    between atoms: C_5  and  N_8
REMARK    3  A    between atoms: N_8  and  C_9
REMARK    4  A    between atoms: N_8  and  C_13
REMARK    5  A    between atoms: C_9  and  C_10
REMARK    6  A    between atoms: C_10  and  C_11
REMARK    7  A    between atoms: C_10  and  O_12
REMARK    8  A    between atoms: C_13  and  C_14
REMARK    9  A    between atoms: C_14  and  C_15
REMARK   10  A    between atoms: C_14  and  O_16
REMARK                            x       y       z     vdW  Elec       q    Type
REMARK                         _______ _______ _______ _____ _____    ______ ____
ROOT
ATOM      1  N   UNL     1      -4.820   2.683 -22.560  0.00  0.00    +0.000 N 
ENDROOT
BRANCH   1   6
ATOM      2  C   UNL     1      -6.002  -0.683 -18.022  0.00  0.00    +0.000 C 
ATOM      3  C   UNL     1      -5.671   0.187 -19.195  0.00  0.00    +0.000 A 
ATOM      4  C   UNL     1      -5.575   1.568 -19.055  0.00  0.00    +0.000 A 
ATOM      5  C   UNL     1      -5.294   2.382 -20.165  0.00  0.00    +0.000 A 
ATOM      6  C   UNL     1      -5.119   1.867 -21.462  0.00  0.00    +0.000 A 
ATOM      7  C   UNL     1      -5.221   0.468 -21.565  0.00  0.00    +0.000 A 
ATOM      8  C   UNL     1      -5.500  -0.358 -20.464  0.00  0.00    +0.000 A 
ENDBRANCH   1   6
BRANCH   1   9
ATOM      9  C   UNL     1      -5.857   3.579 -23.125  0.00  0.00    +0.000 C 
BRANCH   9  10
ATOM     10  C   UNL     1      -5.550   5.078 -22.886  0.00  0.00    +0.000 C 
ATOM     11  C   UNL     1      -6.531   5.963 -23.645  0.00  0.00    +0.000 C 
BRANCH  10  12
ATOM     12  O   UNL     1      -5.640   5.406 -21.493  0.00  0.00    +0.000 OA
ATOM     13  H   UNL     1      -6.399   6.001 -21.372  0.00  0.00    +0.000 HD
ENDBRANCH  10  12
ENDBRANCH   9  10
ENDBRANCH   1   9
BRANCH   1  14
ATOM     14  C   UNL     1      -3.714   2.343 -23.492  0.00  0.00    +0.000 C 
BRANCH  14  15
ATOM     15  C   UNL     1      -2.325   2.671 -22.894  0.00  0.00    +0.000 C 
ATOM     16  C   UNL     1      -1.350   1.501 -22.964  0.00  0.00    +0.000 C 
BRANCH  15  17
ATOM     17  O   UNL     1      -1.721   3.788 -23.546  0.00  0.00    +0.000 OA
ATOM     18  H   UNL     1      -2.180   4.571 -23.181  0.00  0.00    +0.000 HD
ENDBRANCH  15  17
ENDBRANCH  14  15
ENDBRANCH   1  14
TORSDOF 7
ENDMDL
MODEL 5
REMARK VINA RESULT:    -3.798      2.305      4.696
REMARK INTER + INTRA:          -5.750
REMARK INTER:                  -5.251
REMARK INTRA:                  -0.499
REMARK UNBOUND:                -0.620
REMARK  Name = 
REMARK  10 active torsions:
REMARK  status: ('A' for Active; 'I' for Inactive)
REMARK    1  A    between atoms: C_1  and  C_2
REMARK    2  A    between atoms: C_5  and  N_8
REMARK    3  A    between atoms: N_8  and  C_9
REMARK    4  A    between atoms: N_8  and  C_13
REMARK    5  A    between atoms: C_9  and  C_10
REMARK    6  A    between atoms: C_10  and  C_11
REMARK    7  A    between atoms: C_10  and  O_12
REMARK    8  A    between atoms: C_13  and  C_14
REMARK    9  A    between atoms: C_14  and  C_15
REMARK   10  A    between atoms: C_14  and  O_16
REMARK                            x       y       z     vdW  Elec       q    Type
REMARK                         _______ _______ _______ _____ _____    ______ ____
ROOT
ATOM      1  N   UNL     1      -4.428   0.574 -20.785  0.00  0.00    +0.000 N 
ENDROOT
BRANCH   1   6
ATOM      2  C   UNL     1      -9.475   0.965 -23.562  0.00  0.00    +0.000 C 
ATOM      3  C   UNL     1      -8.175   0.877 -22.822  0.00  0.00    +0.000 A 
ATOM      4  C   UNL     1      -7.173   1.821 -23.023  0.00  0.00    +0.000 A 
ATOM      5  C   UNL     1      -5.945   1.716 -22.350  0.00  0.00    +0.000 A 
ATOM      6  C   UNL     1      -5.648   0.661 -21.468  0.00  0.00    +0.000 A 
ATOM      7  C   UNL     1      -6.684  -0.273 -21.288  0.00  0.00    +0.000 A 
ATOM      8  C   UNL     1      -7.917  -0.179 -21.953  0.00  0.00    +0.000 A 
ENDBRANCH   1   6
BRANCH   1   9
ATOM      9  C   UNL     1      -3.708  -0.720 -20.712  0.00  0.00    +0.000 C 
BRANCH   9  10
ATOM     10  C   UNL     1      -2.640  -0.876 -21.822  0.00  0.00    +0.000 C 
ATOM     11  C   UNL     1      -3.288  -1.229 -23.156  0.00  0.00    +0.000 C 
BRANCH  10  12
ATOM     12  O   UNL     1      -1.897   0.338 -21.996  0.00  0.00    +0.000 OA
ATOM     13  H   UNL     1      -0.957   0.107 -22.083  0.00  0.00    +0.000 HD
ENDBRANCH  10  12
ENDBRANCH   9  10
ENDBRANCH   1   9
BRANCH   1  14
ATOM     14  C   UNL     1      -4.070   1.548 -19.723  0.00  0.00    +0.000 C 
BRANCH  14  15
ATOM     15  C   UNL     1      -5.276   1.894 -18.817  0.00  0.00    +0.000 C 
ATOM     16  C   UNL     1      -5.509   0.870 -17.712  0.00  0.00    +0.000 C 
BRANCH  15  17
ATOM     17  O   UNL     1      -5.127   3.176 -18.207  0.00  0.00    +0.000 OA
ATOM     18  H   UNL     1      -4.192   3.420 -18.358  0.00  0.00    +0.000 HD
ENDBRANCH  15  17
ENDBRANCH  14  15
ENDBRANCH   1  14
TORSDOF 7
ENDMDL
MODEL 6
REMARK VINA RESULT:    -3.792      1.411      3.388
REMARK INTER + INTRA:          -5.741
REMARK INTER:                  -5.402
REMARK INTRA:                  -0.340
REMARK UNBOUND:                -0.620
REMARK  Name = 
REMARK  10 active torsions:
REMARK  status: ('A' for Active; 'I' for Inactive)
REMARK    1  A    between atoms: C_1  and  C_2
REMARK    2  A    between atoms: C_5  and  N_8
REMARK    3  A    between atoms: N_8  and  C_9
REMARK    4  A    between atoms: N_8  and  C_13
REMARK    5  A    between atoms: C_9  and  C_10
REMARK    6  A    between atoms: C_10  and  C_11
REMARK    7  A    between atoms: C_10  and  O_12
REMARK    8  A    between atoms: C_13  and  C_14
REMARK    9  A    between atoms: C_14  and  C_15
REMARK   10  A    between atoms: C_14  and  O_16
REMARK                            x       y       z     vdW  Elec       q    Type
REMARK                         _______ _______ _______ _____ _____    ______ ____
ROOT
ATOM      1  N   UNL     1      -5.269   0.204 -20.415  0.00  0.00    +0.000 N 
ENDROOT
BRANCH   1   6
ATOM      2  C   UNL     1      -0.336  -0.147 -23.395  0.00  0.00    +0.000 C 
ATOM      3  C   UNL     1      -1.603  -0.052 -22.601  0.00  0.00    +0.000 A 
ATOM      4  C   UNL     1      -2.193  -1.189 -22.059  0.00  0.00    +0.000 A 
ATOM      5  C   UNL     1      -3.397  -1.098 -21.341  0.00  0.00    +0.000 A 
ATOM      6  C   UNL     1      -4.079   0.117 -21.149  0.00  0.00    +0.000 A 
ATOM      7  C   UNL     1      -3.452   1.246 -21.709  0.00  0.00    +0.000 A 
ATOM      8  C   UNL     1      -2.248   1.169 -22.428  0.00  0.00    +0.000 A 
ENDBRANCH   1   6
BRANCH   1   9
ATOM      9  C   UNL     1      -6.244  -0.912 -20.447  0.00  0.00    +0.000 C 
BRANCH   9  10
ATOM     10  C   UNL     1      -7.713  -0.425 -20.505  0.00  0.00    +0.000 C 
ATOM     11  C   UNL     1      -8.491  -1.164 -21.587  0.00  0.00    +0.000 C 
BRANCH  10  12
ATOM     12  O   UNL     1      -8.377  -0.642 -19.252  0.00  0.00    +0.000 OA
ATOM     13  H   UNL     1      -8.283  -1.581 -19.021  0.00  0.00    +0.000 HD
ENDBRANCH  10  12
ENDBRANCH   9  10
ENDBRANCH   1   9
BRANCH   1  14
ATOM     14  C   UNL     1      -5.838   1.519 -20.025  0.00  0.00    +0.000 C 
BRANCH  14  15
ATOM     15  C   UNL     1      -5.553   1.862 -18.543  0.00  0.00    +0.000 C 
ATOM     16  C   UNL     1      -5.560   0.640 -17.633  0.00  0.00    +0.000 C 
BRANCH  15  17
ATOM     17  O   UNL     1      -4.299   2.523 -18.386  0.00  0.00    +0.000 OA
ATOM     18  H   UNL     1      -4.523   3.417 -18.057  0.00  0.00    +0.000 HD
ENDBRANCH  15  17
ENDBRANCH  14  15
ENDBRANCH   1  14
TORSDOF 7
ENDMDL
MODEL 7
REMARK VINA RESULT:    -3.637      2.973      5.518
REMARK INTER + INTRA:          -5.532
REMARK INTER:                  -5.312
REMARK INTRA:                  -0.220
REMARK UNBOUND:                -0.620
REMARK  Name = 
REMARK  10 active torsions:
REMARK  status: ('A' for Active; 'I' for Inactive)
REMARK    1  A    between atoms: C_1  and  C_2
REMARK    2  A    between atoms: C_5  and  N_8
REMARK    3  A    between atoms: N_8  and  C_9
REMARK    4  A    between atoms: N_8  and  C_13
REMARK    5  A    between atoms: C_9  and  C_10
REMARK    6  A    between atoms: C_10  and  C_11
REMARK    7  A    between atoms: C_10  and  O_12
REMARK    8  A    between atoms: C_13  and  C_14
REMARK    9  A    between atoms: C_14  and  C_15
REMARK   10  A    between atoms: C_14  and  O_16
REMARK                            x       y       z     vdW  Elec       q    Type
REMARK                         _______ _______ _______ _____ _____    ______ ____
ROOT
ATOM      1  N   UNL     1      -4.434   2.273 -22.218  0.00  0.00    +0.000 N 
ENDROOT
BRANCH   1   6
ATOM      2  C   UNL     1      -5.998  -0.856 -17.625  0.00  0.00    +0.000 C 
ATOM      3  C   UNL     1      -5.616  -0.045 -18.825  0.00  0.00    +0.000 A 
ATOM      4  C   UNL     1      -5.146  -0.658 -19.982  0.00  0.00    +0.000 A 
ATOM      5  C   UNL     1      -4.760   0.109 -21.093  0.00  0.00    +0.000 A 
ATOM      6  C   UNL     1      -4.802   1.515 -21.099  0.00  0.00    +0.000 A 
ATOM      7  C   UNL     1      -5.284   2.101 -19.914  0.00  0.00    +0.000 A 
ATOM      8  C   UNL     1      -5.675   1.345 -18.796  0.00  0.00    +0.000 A 
ENDBRANCH   1   6
BRANCH   1   9
ATOM      9  C   UNL     1      -5.152   3.531 -22.532  0.00  0.00    +0.000 C 
BRANCH   9  10
ATOM     10  C   UNL     1      -6.194   3.362 -23.664  0.00  0.00    +0.000 C 
ATOM     11  C   UNL     1      -7.182   2.249 -23.334  0.00  0.00    +0.000 C 
BRANCH  10  12
ATOM     12  O   UNL     1      -6.939   4.571 -23.865  0.00  0.00    +0.000 OA
ATOM     13  H   UNL     1      -7.876   4.335 -23.967  0.00  0.00    +0.000 HD
ENDBRANCH  10  12
ENDBRANCH   9  10
ENDBRANCH   1   9
BRANCH   1  14
ATOM     14  C   UNL     1      -3.730   1.652 -23.369  0.00  0.00    +0.000 C 
BRANCH  14  15
ATOM     15  C   UNL     1      -2.199   1.870 -23.304  0.00  0.00    +0.000 C 
ATOM     16  C   UNL     1      -1.794   3.331 -23.463  0.00  0.00    +0.000 C 
BRANCH  15  17
ATOM     17  O   UNL     1      -1.650   1.391 -22.077  0.00  0.00    +0.000 OA
ATOM     18  H   UNL     1      -1.357   2.193 -21.600  0.00  0.00    +0.000 HD
ENDBRANCH  15  17
ENDBRANCH  14  15
ENDBRANCH   1  14
TORSDOF 7
ENDMDL
MODEL 8
REMARK VINA RESULT:    -3.542      2.297      4.704
REMARK INTER + INTRA:          -5.404
REMARK INTER:                  -4.896
REMARK INTRA:                  -0.508
REMARK UNBOUND:                -0.620
REMARK  Name = 
REMARK  10 active torsions:
REMARK  status: ('A' for Active; 'I' for Inactive)
REMARK    1  A    between atoms: C_1  and  C_2
REMARK    2  A    between atoms: C_5  and  N_8
REMARK    3  A    between atoms: N_8  and  C_9
REMARK    4  A    between atoms: N_8  and  C_13
REMARK    5  A    between atoms: C_9  and  C_10
REMARK    6  A    between atoms: C_10  and  C_11
REMARK    7  A    between atoms: C_10  and  O_12
REMARK    8  A    between atoms: C_13  and  C_14
REMARK    9  A    between atoms: C_14  and  C_15
REMARK   10  A    between atoms: C_14  and  O_16
REMARK                            x       y       z     vdW  Elec       q    Type
REMARK                         _______ _______ _______ _____ _____    ______ ____
ROOT
ATOM      1  N   UNL     1      -5.122   0.096 -20.440  0.00  0.00    +0.000 N 
ENDROOT
BRANCH   1   6
ATOM      2  C   UNL     1     -10.443  -0.257 -22.652  0.00  0.00    +0.000 C 
ATOM      3  C   UNL     1      -9.070  -0.147 -22.062  0.00  0.00    +0.000 A 
ATOM      4  C   UNL     1      -8.121   0.706 -22.615  0.00  0.00    +0.000 A 
ATOM      5  C   UNL     1      -6.826   0.782 -22.077  0.00  0.00    +0.000 A 
ATOM      6  C   UNL     1      -6.409   0.001 -20.984  0.00  0.00    +0.000 A 
ATOM      7  C   UNL     1      -7.395  -0.848 -20.449  0.00  0.00    +0.000 A 
ATOM      8  C   UNL     1      -8.694  -0.933 -20.976  0.00  0.00    +0.000 A 
ENDBRANCH   1   6
BRANCH   1   9
ATOM      9  C   UNL     1      -4.637   1.390 -19.900  0.00  0.00    +0.000 C 
BRANCH   9  10
ATOM     10  C   UNL     1      -5.535   1.941 -18.765  0.00  0.00    +0.000 C 
ATOM     11  C   UNL     1      -5.549   0.992 -17.572  0.00  0.00    +0.000 C 
BRANCH  10  12
ATOM     12  O   UNL     1      -5.066   3.218 -18.312  0.00  0.00    +0.000 OA
ATOM     13  H   UNL     1      -4.135   3.307 -18.574  0.00  0.00    +0.000 HD
ENDBRANCH  10  12
ENDBRANCH   9  10
ENDBRANCH   1   9
BRANCH   1  14
ATOM     14  C   UNL     1      -4.053  -0.861 -20.823  0.00  0.00    +0.000 C 
BRANCH  14  15
ATOM     15  C   UNL     1      -3.139  -0.300 -21.939  0.00  0.00    +0.000 C 
ATOM     16  C   UNL     1      -1.824  -1.059 -22.075  0.00  0.00    +0.000 C 
BRANCH  15  17
ATOM     17  O   UNL     1      -3.789  -0.311 -23.208  0.00  0.00    +0.000 OA
ATOM     18  H   UNL     1      -4.612   0.202 -23.075  0.00  0.00    +0.000 HD
ENDBRANCH  15  17
ENDBRANCH  14  15
ENDBRANCH   1  14
TORSDOF 7
ENDMDL
MODEL 9
REMARK VINA RESULT:    -3.474     19.150     21.580
REMARK INTER + INTRA:          -5.312
REMARK INTER:                  -4.802
REMARK INTRA:                  -0.510
REMARK UNBOUND:                -0.620
REMARK  Name = 
REMARK  10 active torsions:
REMARK  status: ('A' for Active; 'I' for Inactive)
REMARK    1  A    between atoms: C_1  and  C_2
REMARK    2  A    between atoms: C_5  and  N_8
REMARK    3  A    between atoms: N_8  and  C_9
REMARK    4  A    between atoms: N_8  and  C_13
REMARK    5  A    between atoms: C_9  and  C_10
REMARK    6  A    between atoms: C_10  and  C_11
REMARK    7  A    between atoms: C_10  and  O_12
REMARK    8  A    between atoms: C_13  and  C_14
REMARK    9  A    between atoms: C_14  and  C_15
REMARK   10  A    between atoms: C_14  and  O_16
REMARK                            x       y       z     vdW  Elec       q    Type
REMARK                         _______ _______ _______ _____ _____    ______ ____
ROOT
ATOM      1  N   UNL     1       7.171  17.924 -19.846  0.00  0.00    +0.000 N 
ENDROOT
BRANCH   1   6
ATOM      2  C   UNL     1      11.430  14.159 -20.852  0.00  0.00    +0.000 C 
ATOM      3  C   UNL     1      10.322  15.139 -20.616  0.00  0.00    +0.000 A 
ATOM      4  C   UNL     1      10.591  16.492 -20.436  0.00  0.00    +0.000 A 
ATOM      5  C   UNL     1       9.552  17.402 -20.185  0.00  0.00    +0.000 A 
ATOM      6  C   UNL     1       8.205  17.009 -20.077  0.00  0.00    +0.000 A 
ATOM      7  C   UNL     1       7.970  15.634 -20.266  0.00  0.00    +0.000 A 
ATOM      8  C   UNL     1       9.000  14.714 -20.520  0.00  0.00    +0.000 A 
ENDBRANCH   1   6
BRANCH   1   9
ATOM      9  C   UNL     1       5.759  17.516 -20.041  0.00  0.00    +0.000 C 
BRANCH   9  10
ATOM     10  C   UNL     1       4.986  17.374 -18.707  0.00  0.00    +0.000 C 
ATOM     11  C   UNL     1       3.518  17.049 -18.960  0.00  0.00    +0.000 C 
BRANCH  10  12
ATOM     12  O   UNL     1       5.540  16.327 -17.899  0.00  0.00    +0.000 OA
ATOM     13  H   UNL     1       5.743  15.575 -18.479  0.00  0.00    +0.000 HD
ENDBRANCH  10  12
ENDBRANCH   9  10
ENDBRANCH   1   9
BRANCH   1  14
ATOM     14  C   UNL     1       7.412  19.389 -19.910  0.00  0.00    +0.000 C 
BRANCH  14  15
ATOM     15  C   UNL     1       7.598  20.012 -18.506  0.00  0.00    +0.000 C 
ATOM     16  C   UNL     1       8.837  20.894 -18.401  0.00  0.00    +0.000 C 
BRANCH  15  17
ATOM     17  O   UNL     1       6.467  20.791 -18.121  0.00  0.00    +0.000 OA
ATOM     18  H   UNL     1       6.756  21.721 -18.216  0.00  0.00    +0.000 HD
ENDBRANCH  15  17
ENDBRANCH  14  15
ENDBRANCH   1  14
TORSDOF 7
ENDMDL
