MODEL 1
REMARK VINA RESULT:    -4.267      0.000      0.000
REMARK INTER + INTRA:          -4.691
REMARK INTER:                  -4.641
REMARK INTRA:                  -0.050
REMARK UNBOUND:                -0.050
REMARK  Name = 
REMARK  3 active torsions:
REMARK  status: ('A' for Active; 'I' for Inactive)
REMARK    1  A    between atoms: C_1  and  O_2
REMARK    2  A    between atoms: O_2  and  C_3
REMARK    3  A    between atoms: C_8  and  O_9
REMARK                            x       y       z     vdW  Elec       q    Type
REMARK                         _______ _______ _______ _____ _____    ______ ____
ROOT
ATOM      1  C   UNL     1      -1.334   0.230  20.886  0.00  0.00    +0.000 A 
ATOM      2  C   UNL     1      -2.415  -0.643  20.766  0.00  0.00    +0.000 A 
ATOM      3  C   UNL     1      -3.073  -0.777  19.537  0.00  0.00    +0.000 A 
ATOM      4  C   UNL     1      -2.655  -0.041  18.426  0.00  0.00    +0.000 A 
ATOM      5  C   UNL     1      -1.575   0.832  18.538  0.00  0.00    +0.000 A 
ATOM      6  C   UNL     1      -0.929   0.959  19.761  0.00  0.00    +0.000 A 
ENDROOT
BRANCH   1   8
ATOM      7  C   UNL     1      -1.331   0.832  23.184  0.00  0.00    +0.000 C 
ATOM      8  O   UNL     1      -0.600   0.461  22.022  0.00  0.00    +0.000 OA
ENDBRANCH   1   8
BRANCH   6   9
ATOM      9  O   UNL     1       0.129   1.824  19.846  0.00  0.00    +0.000 OA
ATOM     10  H   UNL     1       0.797   1.348  20.375  0.00  0.00    +0.000 HD
ENDBRANCH   6   9
TORSDOF 2
ENDMDL
MODEL 2
REMARK VINA RESULT:    -4.239     17.618     18.579
REMARK INTER + INTRA:          -4.661
REMARK INTER:                  -4.622
REMARK INTRA:                  -0.039
REMARK UNBOUND:                -0.050
REMARK  Name = 
REMARK  3 active torsions:
REMARK  status: ('A' for Active; 'I' for Inactive)
REMARK    1  A    between atoms: C_1  and  O_2
REMARK    2  A    between atoms: O_2  and  C_3
REMARK    3  A    between atoms: C_8  and  O_9
REMARK                            x       y       z     vdW  Elec       q    Type
REMARK                         _______ _______ _______ _____ _____    ______ ____
ROOT
ATOM      1  C   UNL     1      10.935   6.682   8.442  0.00  0.00    +0.000 A 
ATOM      2  C   UNL     1      12.087   6.613   7.660  0.00  0.00    +0.000 A 
ATOM      3  C   UNL     1      12.008   6.166   6.336  0.00  0.00    +0.000 A 
ATOM      4  C   UNL     1      10.781   5.786   5.789  0.00  0.00    +0.000 A 
ATOM      5  C   UNL     1       9.625   5.852   6.563  0.00  0.00    +0.000 A 
ATOM      6  C   UNL     1       9.713   6.297   7.877  0.00  0.00    +0.000 A 
ENDROOT
BRANCH   1   8
ATOM      7  C   UNL     1      12.079   7.079  10.487  0.00  0.00    +0.000 C 
ATOM      8  O   UNL     1      10.864   7.098   9.748  0.00  0.00    +0.000 OA
ENDBRANCH   1   8
BRANCH   6   9
ATOM      9  O   UNL     1       8.563   6.354   8.618  0.00  0.00    +0.000 OA
ATOM     10  H   UNL     1       8.700   7.100   9.232  0.00  0.00    +0.000 HD
ENDBRANCH   6   9
TORSDOF 2
ENDMDL
MODEL 3
REMARK VINA RESULT:    -4.176     17.426     18.925
REMARK INTER + INTRA:          -4.592
REMARK INTER:                  -4.539
REMARK INTRA:                  -0.053
REMARK UNBOUND:                -0.050
REMARK  Name = 
REMARK  3 active torsions:
REMARK  status: ('A' for Active; 'I' for Inactive)
REMARK    1  A    between atoms: C_1  and  O_2
REMARK    2  A    between atoms: O_2  and  C_3
REMARK    3  A    between atoms: C_8  and  O_9
REMARK                            x       y       z     vdW  Elec       q    Type
REMARK                         _______ _______ _______ _____ _____    ______ ____
ROOT
ATOM      1  C   UNL     1      11.279   6.679   7.438  0.00  0.00    +0.000 A 
ATOM      2  C   UNL     1      11.058   6.148   6.168  0.00  0.00    +0.000 A 
ATOM      3  C   UNL     1       9.788   5.669   5.821  0.00  0.00    +0.000 A 
ATOM      4  C   UNL     1       8.738   5.718   6.741  0.00  0.00    +0.000 A 
ATOM      5  C   UNL     1       8.952   6.247   8.011  0.00  0.00    +0.000 A 
ATOM      6  C   UNL     1      10.214   6.719   8.346  0.00  0.00    +0.000 A 
ENDROOT
BRANCH   1   8
ATOM      7  C   UNL     1      12.950   8.361   7.284  0.00  0.00    +0.000 C 
ATOM      8  O   UNL     1      12.465   7.181   7.912  0.00  0.00    +0.000 OA
ENDBRANCH   1   8
BRANCH   6   9
ATOM      9  O   UNL     1      10.400   7.235   9.601  0.00  0.00    +0.000 OA
ATOM     10  H   UNL     1      10.203   6.493  10.206  0.00  0.00    +0.000 HD
ENDBRANCH   6   9
TORSDOF 2
ENDMDL
MODEL 4
REMARK VINA RESULT:    -4.159     18.494     20.081
REMARK INTER + INTRA:          -4.574
REMARK INTER:                  -4.528
REMARK INTRA:                  -0.046
REMARK UNBOUND:                -0.050
REMARK  Name = 
REMARK  3 active torsions:
REMARK  status: ('A' for Active; 'I' for Inactive)
REMARK    1  A    between atoms: C_1  and  O_2
REMARK    2  A    between atoms: O_2  and  C_3
REMARK    3  A    between atoms: C_8  and  O_9
REMARK                            x       y       z     vdW  Elec       q    Type
REMARK                         _______ _______ _______ _____ _____    ______ ____
ROOT
ATOM      1  C   UNL     1      11.699   6.689   6.184  0.00  0.00    +0.000 A 
ATOM      2  C   UNL     1      12.254   7.371   7.266  0.00  0.00    +0.000 A 
ATOM      3  C   UNL     1      11.611   7.352   8.509  0.00  0.00    +0.000 A 
ATOM      4  C   UNL     1      10.412   6.655   8.676  0.00  0.00    +0.000 A 
ATOM      5  C   UNL     1       9.852   5.971   7.600  0.00  0.00    +0.000 A 
ATOM      6  C   UNL     1      10.497   5.995   6.370  0.00  0.00    +0.000 A 
ENDROOT
BRANCH   1   8
ATOM      7  C   UNL     1      12.704   7.839   4.363  0.00  0.00    +0.000 C 
ATOM      8  O   UNL     1      12.217   6.622   4.915  0.00  0.00    +0.000 OA
ENDBRANCH   1   8
BRANCH   6   9
ATOM      9  O   UNL     1       9.926   5.316   5.327  0.00  0.00    +0.000 OA
ATOM     10  H   UNL     1      10.450   4.496   5.248  0.00  0.00    +0.000 HD
ENDBRANCH   6   9
TORSDOF 2
ENDMDL
MODEL 5
REMARK VINA RESULT:    -4.144     18.017     19.372
REMARK INTER + INTRA:          -4.557
REMARK INTER:                  -4.505
REMARK INTRA:                  -0.052
REMARK UNBOUND:                -0.050
REMARK  Name = 
REMARK  3 active torsions:
REMARK  status: ('A' for Active; 'I' for Inactive)
REMARK    1  A    between atoms: C_1  and  O_2
REMARK    2  A    between atoms: O_2  and  C_3
REMARK    3  A    between atoms: C_8  and  O_9
REMARK                            x       y       z     vdW  Elec       q    Type
REMARK                         _______ _______ _______ _____ _____    ______ ____
ROOT
ATOM      1  C   UNL     1      11.350   6.698   7.245  0.00  0.00    +0.000 A 
ATOM      2  C   UNL     1      10.480   6.682   8.334  0.00  0.00    +0.000 A 
ATOM      3  C   UNL     1       9.165   6.225   8.173  0.00  0.00    +0.000 A 
ATOM      4  C   UNL     1       8.717   5.784   6.927  0.00  0.00    +0.000 A 
ATOM      5  C   UNL     1       9.581   5.796   5.834  0.00  0.00    +0.000 A 
ATOM      6  C   UNL     1      10.882   6.251   6.002  0.00  0.00    +0.000 A 
ENDROOT
BRANCH   1   8
ATOM      7  C   UNL     1      12.873   8.511   7.442  0.00  0.00    +0.000 C 
ATOM      8  O   UNL     1      12.656   7.117   7.256  0.00  0.00    +0.000 OA
ENDBRANCH   1   8
BRANCH   6   9
ATOM      9  O   UNL     1      11.712   6.254   4.913  0.00  0.00    +0.000 OA
ATOM     10  H   UNL     1      12.318   7.004   5.064  0.00  0.00    +0.000 HD
ENDBRANCH   6   9
TORSDOF 2
ENDMDL
MODEL 6
REMARK VINA RESULT:    -4.122      2.176      2.862
REMARK INTER + INTRA:          -4.534
REMARK INTER:                  -4.481
REMARK INTRA:                  -0.052
REMARK UNBOUND:                -0.050
REMARK  Name = 
REMARK  3 active torsions:
REMARK  status: ('A' for Active; 'I' for Inactive)
REMARK    1  A    between atoms: C_1  and  O_2
REMARK    2  A    between atoms: O_2  and  C_3
REMARK    3  A    between atoms: C_8  and  O_9
REMARK                            x       y       z     vdW  Elec       q    Type
REMARK                         _______ _______ _______ _____ _____    ______ ____
ROOT
ATOM      1  C   UNL     1      -0.819  -0.831  20.298  0.00  0.00    +0.000 A 
ATOM      2  C   UNL     1      -0.600   0.539  20.427  0.00  0.00    +0.000 A 
ATOM      3  C   UNL     1      -1.206   1.432  19.535  0.00  0.00    +0.000 A 
ATOM      4  C   UNL     1      -2.031   0.960  18.512  0.00  0.00    +0.000 A 
ATOM      5  C   UNL     1      -2.255  -0.408  18.377  0.00  0.00    +0.000 A 
ATOM      6  C   UNL     1      -1.650  -1.286  19.266  0.00  0.00    +0.000 A 
ENDROOT
BRANCH   1   8
ATOM      7  C   UNL     1       1.107  -2.042  20.985  0.00  0.00    +0.000 C 
ATOM      8  O   UNL     1      -0.293  -1.816  21.096  0.00  0.00    +0.000 OA
ENDBRANCH   1   8
BRANCH   6   9
ATOM      9  O   UNL     1      -1.886  -2.626  19.113  0.00  0.00    +0.000 OA
ATOM     10  H   UNL     1      -1.422  -2.868  18.289  0.00  0.00    +0.000 HD
ENDBRANCH   6   9
TORSDOF 2
ENDMDL
MODEL 7
REMARK VINA RESULT:    -3.885      2.105      2.924
REMARK INTER + INTRA:          -4.275
REMARK INTER:                  -4.223
REMARK INTRA:                  -0.053
REMARK UNBOUND:                -0.050
REMARK  Name = 
REMARK  3 active torsions:
REMARK  status: ('A' for Active; 'I' for Inactive)
REMARK    1  A    between atoms: C_1  and  O_2
REMARK    2  A    between atoms: O_2  and  C_3
REMARK    3  A    between atoms: C_8  and  O_9
REMARK                            x       y       z     vdW  Elec       q    Type
REMARK                         _______ _______ _______ _____ _____    ______ ____
ROOT
ATOM      1  C   UNL     1      -2.129  -0.809  20.784  0.00  0.00    +0.000 A 
ATOM      2  C   UNL     1      -1.844   0.148  21.757  0.00  0.00    +0.000 A 
ATOM      3  C   UNL     1      -1.095   1.284  21.423  0.00  0.00    +0.000 A 
ATOM      4  C   UNL     1      -0.628   1.466  20.120  0.00  0.00    +0.000 A 
ATOM      5  C   UNL     1      -0.909   0.515  19.142  0.00  0.00    +0.000 A 
ATOM      6  C   UNL     1      -1.653  -0.608  19.482  0.00  0.00    +0.000 A 
ENDROOT
BRANCH   1   8
ATOM      7  C   UNL     1      -4.231  -1.810  21.262  0.00  0.00    +0.000 C 
ATOM      8  O   UNL     1      -2.848  -1.963  20.967  0.00  0.00    +0.000 OA
ENDBRANCH   1   8
BRANCH   6   9
ATOM      9  O   UNL     1      -1.916  -1.530  18.504  0.00  0.00    +0.000 OA
ATOM     10  H   UNL     1      -2.415  -1.036  17.825  0.00  0.00    +0.000 HD
ENDBRANCH   6   9
TORSDOF 2
ENDMDL
MODEL 8
REMARK VINA RESULT:    -3.814     18.377     19.838
REMARK INTER + INTRA:          -4.199
REMARK INTER:                  -4.159
REMARK INTRA:                  -0.040
REMARK UNBOUND:                -0.050
REMARK  Name = 
REMARK  3 active torsions:
REMARK  status: ('A' for Active; 'I' for Inactive)
REMARK    1  A    between atoms: C_1  and  O_2
REMARK    2  A    between atoms: O_2  and  C_3
REMARK    3  A    between atoms: C_8  and  O_9
REMARK                            x       y       z     vdW  Elec       q    Type
REMARK                         _______ _______ _______ _____ _____    ______ ____
ROOT
ATOM      1  C   UNL     1      10.867   5.982   6.731  0.00  0.00    +0.000 A 
ATOM      2  C   UNL     1      11.382   5.246   7.797  0.00  0.00    +0.000 A 
ATOM      3  C   UNL     1      12.760   5.253   8.051  0.00  0.00    +0.000 A 
ATOM      4  C   UNL     1      13.625   5.993   7.242  0.00  0.00    +0.000 A 
ATOM      5  C   UNL     1      13.117   6.731   6.175  0.00  0.00    +0.000 A 
ATOM      6  C   UNL     1      11.749   6.718   5.931  0.00  0.00    +0.000 A 
ENDROOT
BRANCH   1   8
ATOM      7  C   UNL     1       8.589   5.845   7.395  0.00  0.00    +0.000 C 
ATOM      8  O   UNL     1       9.547   6.066   6.367  0.00  0.00    +0.000 OA
ENDBRANCH   1   8
BRANCH   6   9
ATOM      9  O   UNL     1      11.274   7.451   4.876  0.00  0.00    +0.000 OA
ATOM     10  H   UNL     1      12.033   7.531   4.267  0.00  0.00    +0.000 HD
ENDBRANCH   6   9
TORSDOF 2
ENDMDL
MODEL 9
REMARK VINA RESULT:    -3.805      1.127      2.317
REMARK INTER + INTRA:          -4.189
REMARK INTER:                  -4.151
REMARK INTRA:                  -0.038
REMARK UNBOUND:                -0.050
REMARK  Name = 
REMARK  3 active torsions:
REMARK  status: ('A' for Active; 'I' for Inactive)
REMARK    1  A    between atoms: C_1  and  O_2
REMARK    2  A    between atoms: O_2  and  C_3
REMARK    3  A    between atoms: C_8  and  O_9
REMARK                            x       y       z     vdW  Elec       q    Type
REMARK                         _______ _______ _______ _____ _____    ______ ____
ROOT
ATOM      1  C   UNL     1      -1.247   0.509  20.777  0.00  0.00    +0.000 A 
ATOM      2  C   UNL     1      -1.017   1.201  19.589  0.00  0.00    +0.000 A 
ATOM      3  C   UNL     1      -1.739   0.870  18.435  0.00  0.00    +0.000 A 
ATOM      4  C   UNL     1      -2.691  -0.151  18.464  0.00  0.00    +0.000 A 
ATOM      5  C   UNL     1      -2.927  -0.846  19.647  0.00  0.00    +0.000 A 
ATOM      6  C   UNL     1      -2.206  -0.512  20.787  0.00  0.00    +0.000 A 
ENDROOT
BRANCH   1   8
ATOM      7  C   UNL     1       0.205   1.881  22.062  0.00  0.00    +0.000 C 
ATOM      8  O   UNL     1      -0.617   0.723  21.976  0.00  0.00    +0.000 OA
ENDBRANCH   1   8
BRANCH   6   9
ATOM      9  O   UNL     1      -2.456  -1.211  21.938  0.00  0.00    +0.000 OA
ATOM     10  H   UNL     1      -3.235  -0.773  22.330  0.00  0.00    +0.000 HD
ENDBRANCH   6   9
TORSDOF 2
ENDMDL
