MODEL 1
REMARK VINA RESULT:    -5.487      0.000      0.000
REMARK INTER + INTRA:          -6.021
REMARK INTER:                  -5.968
REMARK INTRA:                  -0.053
REMARK UNBOUND:                -0.053
REMARK  Name = 
REMARK  3 active torsions:
REMARK  status: ('A' for Active; 'I' for Inactive)
REMARK    1  A    between atoms: C_1  and  O_2
REMARK    2  A    between atoms: O_2  and  C_3
REMARK    3  A    between atoms: C_8  and  O_9
REMARK                            x       y       z     vdW  Elec       q    Type
REMARK                         _______ _______ _______ _____ _____    ______ ____
ROOT
ATOM      1  C   UNL     1       7.354   8.759  -0.749  0.00  0.00    +0.000 A 
ATOM      2  C   UNL     1       5.966   8.634  -0.783  0.00  0.00    +0.000 A 
ATOM      3  C   UNL     1       5.164   9.546  -0.086  0.00  0.00    +0.000 A 
ATOM      4  C   UNL     1       5.745  10.583   0.647  0.00  0.00    +0.000 A 
ATOM      5  C   UNL     1       7.131  10.714   0.686  0.00  0.00    +0.000 A 
ATOM      6  C   UNL     1       7.918   9.805  -0.009  0.00  0.00    +0.000 A 
ENDROOT
BRANCH   1   8
ATOM      7  C   UNL     1       8.351   6.607  -0.898  0.00  0.00    +0.000 C 
ATOM      8  O   UNL     1       8.257   7.942  -1.380  0.00  0.00    +0.000 OA
ENDBRANCH   1   8
BRANCH   6   9
ATOM      9  O   UNL     1       9.279   9.954   0.045  0.00  0.00    +0.000 OA
ATOM     10  H   UNL     1       9.622   9.051   0.186  0.00  0.00    +0.000 HD
ENDBRANCH   6   9
TORSDOF 2
ENDMDL
MODEL 2
REMARK VINA RESULT:    -5.403      1.381      3.006
REMARK INTER + INTRA:          -5.930
REMARK INTER:                  -5.894
REMARK INTRA:                  -0.036
REMARK UNBOUND:                -0.053
REMARK  Name = 
REMARK  3 active torsions:
REMARK  status: ('A' for Active; 'I' for Inactive)
REMARK    1  A    between atoms: C_1  and  O_2
REMARK    2  A    between atoms: O_2  and  C_3
REMARK    3  A    between atoms: C_8  and  O_9
REMARK                            x       y       z     vdW  Elec       q    Type
REMARK                         _______ _______ _______ _____ _____    ______ ____
ROOT
ATOM      1  C   UNL     1       6.910   9.717   0.024  0.00  0.00    +0.000 A 
ATOM      2  C   UNL     1       5.897   8.826  -0.326  0.00  0.00    +0.000 A 
ATOM      3  C   UNL     1       6.199   7.681  -1.074  0.00  0.00    +0.000 A 
ATOM      4  C   UNL     1       7.512   7.424  -1.475  0.00  0.00    +0.000 A 
ATOM      5  C   UNL     1       8.530   8.309  -1.128  0.00  0.00    +0.000 A 
ATOM      6  C   UNL     1       8.220   9.442  -0.386  0.00  0.00    +0.000 A 
ENDROOT
BRANCH   1   8
ATOM      7  C   UNL     1       6.601  10.722   2.155  0.00  0.00    +0.000 C 
ATOM      8  O   UNL     1       6.760  10.871   0.750  0.00  0.00    +0.000 OA
ENDBRANCH   1   8
BRANCH   6   9
ATOM      9  O   UNL     1       9.238  10.298  -0.058  0.00  0.00    +0.000 OA
ATOM     10  H   UNL     1       8.802  11.161   0.079  0.00  0.00    +0.000 HD
ENDBRANCH   6   9
TORSDOF 2
ENDMDL
MODEL 3
REMARK VINA RESULT:    -5.141      1.024      2.259
REMARK INTER + INTRA:          -5.645
REMARK INTER:                  -5.750
REMARK INTRA:                   0.105
REMARK UNBOUND:                -0.053
REMARK  Name = 
REMARK  3 active torsions:
REMARK  status: ('A' for Active; 'I' for Inactive)
REMARK    1  A    between atoms: C_1  and  O_2
REMARK    2  A    between atoms: O_2  and  C_3
REMARK    3  A    between atoms: C_8  and  O_9
REMARK                            x       y       z     vdW  Elec       q    Type
REMARK                         _______ _______ _______ _____ _____    ______ ____
ROOT
ATOM      1  C   UNL     1       7.488   8.666  -0.732  0.00  0.00    +0.000 A 
ATOM      2  C   UNL     1       8.145   9.703  -0.071  0.00  0.00    +0.000 A 
ATOM      3  C   UNL     1       7.409  10.648   0.654  0.00  0.00    +0.000 A 
ATOM      4  C   UNL     1       6.017  10.562   0.720  0.00  0.00    +0.000 A 
ATOM      5  C   UNL     1       5.353   9.529   0.063  0.00  0.00    +0.000 A 
ATOM      6  C   UNL     1       6.091   8.596  -0.654  0.00  0.00    +0.000 A 
ENDROOT
BRANCH   1   8
ATOM      7  C   UNL     1       8.354   6.454  -0.801  0.00  0.00    +0.000 C 
ATOM      8  O   UNL     1       8.077   7.676  -1.476  0.00  0.00    +0.000 OA
ENDBRANCH   1   8
BRANCH   6   9
ATOM      9  O   UNL     1       5.416   7.590  -1.292  0.00  0.00    +0.000 OA
ATOM     10  H   UNL     1       5.960   7.384  -2.076  0.00  0.00    +0.000 HD
ENDBRANCH   6   9
TORSDOF 2
ENDMDL
MODEL 4
REMARK VINA RESULT:    -4.958      9.435      9.905
REMARK INTER + INTRA:          -5.445
REMARK INTER:                  -5.399
REMARK INTRA:                  -0.046
REMARK UNBOUND:                -0.053
REMARK  Name = 
REMARK  3 active torsions:
REMARK  status: ('A' for Active; 'I' for Inactive)
REMARK    1  A    between atoms: C_1  and  O_2
REMARK    2  A    between atoms: O_2  and  C_3
REMARK    3  A    between atoms: C_8  and  O_9
REMARK                            x       y       z     vdW  Elec       q    Type
REMARK                         _______ _______ _______ _____ _____    ______ ____
ROOT
ATOM      1  C   UNL     1      11.743   2.459   5.163  0.00  0.00    +0.000 A 
ATOM      2  C   UNL     1      11.427   2.974   6.419  0.00  0.00    +0.000 A 
ATOM      3  C   UNL     1      12.210   3.993   6.976  0.00  0.00    +0.000 A 
ATOM      4  C   UNL     1      13.309   4.500   6.280  0.00  0.00    +0.000 A 
ATOM      5  C   UNL     1      13.631   3.992   5.024  0.00  0.00    +0.000 A 
ATOM      6  C   UNL     1      12.850   2.981   4.480  0.00  0.00    +0.000 A 
ENDROOT
BRANCH   1   8
ATOM      7  C   UNL     1       9.649   1.555   4.495  0.00  0.00    +0.000 C 
ATOM      8  O   UNL     1      11.069   1.465   4.500  0.00  0.00    +0.000 OA
ENDBRANCH   1   8
BRANCH   6   9
ATOM      9  O   UNL     1      13.186   2.497   3.244  0.00  0.00    +0.000 OA
ATOM     10  H   UNL     1      12.375   2.594   2.710  0.00  0.00    +0.000 HD
ENDBRANCH   6   9
TORSDOF 2
ENDMDL
MODEL 5
REMARK VINA RESULT:    -4.839      9.933     11.191
REMARK INTER + INTRA:          -5.316
REMARK INTER:                  -5.277
REMARK INTRA:                  -0.039
REMARK UNBOUND:                -0.053
REMARK  Name = 
REMARK  3 active torsions:
REMARK  status: ('A' for Active; 'I' for Inactive)
REMARK    1  A    between atoms: C_1  and  O_2
REMARK    2  A    between atoms: O_2  and  C_3
REMARK    3  A    between atoms: C_8  and  O_9
REMARK                            x       y       z     vdW  Elec       q    Type
REMARK                         _______ _______ _______ _____ _____    ______ ____
ROOT
ATOM      1  C   UNL     1      14.146   3.162   6.687  0.00  0.00    +0.000 A 
ATOM      2  C   UNL     1      13.083   3.555   7.499  0.00  0.00    +0.000 A 
ATOM      3  C   UNL     1      11.859   3.916   6.923  0.00  0.00    +0.000 A 
ATOM      4  C   UNL     1      11.693   3.887   5.537  0.00  0.00    +0.000 A 
ATOM      5  C   UNL     1      12.750   3.495   4.719  0.00  0.00    +0.000 A 
ATOM      6  C   UNL     1      13.961   3.139   5.299  0.00  0.00    +0.000 A 
ENDROOT
BRANCH   1   8
ATOM      7  C   UNL     1      15.513   2.403   8.477  0.00  0.00    +0.000 C 
ATOM      8  O   UNL     1      15.395   2.785   7.112  0.00  0.00    +0.000 OA
ENDBRANCH   1   8
BRANCH   6   9
ATOM      9  O   UNL     1      14.985   2.758   4.475  0.00  0.00    +0.000 OA
ATOM     10  H   UNL     1      14.709   3.048   3.585  0.00  0.00    +0.000 HD
ENDBRANCH   6   9
TORSDOF 2
ENDMDL
MODEL 6
REMARK VINA RESULT:    -4.711      9.553     10.566
REMARK INTER + INTRA:          -5.177
REMARK INTER:                  -5.125
REMARK INTRA:                  -0.052
REMARK UNBOUND:                -0.053
REMARK  Name = 
REMARK  3 active torsions:
REMARK  status: ('A' for Active; 'I' for Inactive)
REMARK    1  A    between atoms: C_1  and  O_2
REMARK    2  A    between atoms: O_2  and  C_3
REMARK    3  A    between atoms: C_8  and  O_9
REMARK                            x       y       z     vdW  Elec       q    Type
REMARK                         _______ _______ _______ _____ _____    ______ ____
ROOT
ATOM      1  C   UNL     1      11.732   2.923   5.632  0.00  0.00    +0.000 A 
ATOM      2  C   UNL     1      12.595   3.501   4.702  0.00  0.00    +0.000 A 
ATOM      3  C   UNL     1      13.861   3.945   5.103  0.00  0.00    +0.000 A 
ATOM      4  C   UNL     1      14.269   3.813   6.432  0.00  0.00    +0.000 A 
ATOM      5  C   UNL     1      13.413   3.236   7.367  0.00  0.00    +0.000 A 
ATOM      6  C   UNL     1      12.159   2.800   6.961  0.00  0.00    +0.000 A 
ENDROOT
BRANCH   1   8
ATOM      7  C   UNL     1      10.381   1.275   4.582  0.00  0.00    +0.000 C 
ATOM      8  O   UNL     1      10.470   2.447   5.382  0.00  0.00    +0.000 OA
ENDBRANCH   1   8
BRANCH   6   9
ATOM      9  O   UNL     1      11.335   2.236   7.898  0.00  0.00    +0.000 OA
ATOM     10  H   UNL     1      10.477   2.131   7.445  0.00  0.00    +0.000 HD
ENDBRANCH   6   9
TORSDOF 2
ENDMDL
MODEL 7
REMARK VINA RESULT:    -4.695      9.585     10.862
REMARK INTER + INTRA:          -5.159
REMARK INTER:                  -5.111
REMARK INTRA:                  -0.048
REMARK UNBOUND:                -0.053
REMARK  Name = 
REMARK  3 active torsions:
REMARK  status: ('A' for Active; 'I' for Inactive)
REMARK    1  A    between atoms: C_1  and  O_2
REMARK    2  A    between atoms: O_2  and  C_3
REMARK    3  A    between atoms: C_8  and  O_9
REMARK                            x       y       z     vdW  Elec       q    Type
REMARK                         _______ _______ _______ _____ _____    ______ ____
ROOT
ATOM      1  C   UNL     1      12.174   3.040   6.936  0.00  0.00    +0.000 A 
ATOM      2  C   UNL     1      13.524   3.389   6.925  0.00  0.00    +0.000 A 
ATOM      3  C   UNL     1      14.202   3.521   5.706  0.00  0.00    +0.000 A 
ATOM      4  C   UNL     1      13.536   3.304   4.499  0.00  0.00    +0.000 A 
ATOM      5  C   UNL     1      12.187   2.956   4.502  0.00  0.00    +0.000 A 
ATOM      6  C   UNL     1      11.522   2.827   5.715  0.00  0.00    +0.000 A 
ENDROOT
BRANCH   1   8
ATOM      7  C   UNL     1      11.440   3.914   9.021  0.00  0.00    +0.000 C 
ATOM      8  O   UNL     1      11.388   2.876   8.049  0.00  0.00    +0.000 OA
ENDBRANCH   1   8
BRANCH   6   9
ATOM      9  O   UNL     1      10.197   2.484   5.693  0.00  0.00    +0.000 OA
ATOM     10  H   UNL     1      10.192   1.510   5.748  0.00  0.00    +0.000 HD
ENDBRANCH   6   9
TORSDOF 2
ENDMDL
MODEL 8
REMARK VINA RESULT:    -4.648     16.834     17.872
REMARK INTER + INTRA:          -5.108
REMARK INTER:                  -5.056
REMARK INTRA:                  -0.052
REMARK UNBOUND:                -0.053
REMARK  Name = 
REMARK  3 active torsions:
REMARK  status: ('A' for Active; 'I' for Inactive)
REMARK    1  A    between atoms: C_1  and  O_2
REMARK    2  A    between atoms: O_2  and  C_3
REMARK    3  A    between atoms: C_8  and  O_9
REMARK                            x       y       z     vdW  Elec       q    Type
REMARK                         _______ _______ _______ _____ _____    ______ ____
ROOT
ATOM      1  C   UNL     1       6.981  -6.774   7.903  0.00  0.00    +0.000 A 
ATOM      2  C   UNL     1       8.347  -6.952   8.121  0.00  0.00    +0.000 A 
ATOM      3  C   UNL     1       9.086  -5.958   8.775  0.00  0.00    +0.000 A 
ATOM      4  C   UNL     1       8.465  -4.786   9.211  0.00  0.00    +0.000 A 
ATOM      5  C   UNL     1       7.101  -4.602   8.998  0.00  0.00    +0.000 A 
ATOM      6  C   UNL     1       6.376  -5.592   8.348  0.00  0.00    +0.000 A 
ENDROOT
BRANCH   1   8
ATOM      7  C   UNL     1       5.970  -8.925   7.905  0.00  0.00    +0.000 C 
ATOM      8  O   UNL     1       6.137  -7.658   7.279  0.00  0.00    +0.000 OA
ENDBRANCH   1   8
BRANCH   6   9
ATOM      9  O   UNL     1       5.037  -5.388   8.150  0.00  0.00    +0.000 OA
ATOM     10  H   UNL     1       4.988  -4.796   7.376  0.00  0.00    +0.000 HD
ENDBRANCH   6   9
TORSDOF 2
ENDMDL
