MODEL 1
REMARK VINA RESULT:    -4.915      0.000      0.000
REMARK INTER + INTRA:          -7.170
REMARK INTER:                  -6.639
REMARK INTRA:                  -0.530
REMARK UNBOUND:                -0.530
REMARK  Name = 
REMARK  10 active torsions:
REMARK  status: ('A' for Active; 'I' for Inactive)
REMARK    1  A    between atoms: C_1  and  C_2
REMARK    2  A    between atoms: C_5  and  N_8
REMARK    3  A    between atoms: N_8  and  C_9
REMARK    4  A    between atoms: N_8  and  C_13
REMARK    5  A    between atoms: C_9  and  C_10
REMARK    6  A    between atoms: C_10  and  C_11
REMARK    7  A    between atoms: C_10  and  O_12
REMARK    8  A    between atoms: C_13  and  C_14
REMARK    9  A    between atoms: C_14  and  C_15
REMARK   10  A    between atoms: C_14  and  O_16
REMARK                            x       y       z     vdW  Elec       q    Type
REMARK                         _______ _______ _______ _____ _____    ______ ____
ROOT
ATOM      1  N   UNL     1       3.483  16.311  -0.143  0.00  0.00    +0.000 N 
ENDROOT
BRANCH   1   6
ATOM      2  C   UNL     1       4.637  14.844   5.321  0.00  0.00    +0.000 C 
ATOM      3  C   UNL     1       4.362  15.229   3.899  0.00  0.00    +0.000 A 
ATOM      4  C   UNL     1       4.052  16.542   3.562  0.00  0.00    +0.000 A 
ATOM      5  C   UNL     1       3.766  16.892   2.232  0.00  0.00    +0.000 A 
ATOM      6  C   UNL     1       3.750  15.953   1.185  0.00  0.00    +0.000 A 
ATOM      7  C   UNL     1       4.070  14.635   1.562  0.00  0.00    +0.000 A 
ATOM      8  C   UNL     1       4.360  14.273   2.888  0.00  0.00    +0.000 A 
ENDBRANCH   1   6
BRANCH   1   9
ATOM      9  C   UNL     1       4.477  17.094  -0.916  0.00  0.00    +0.000 C 
BRANCH   9  10
ATOM     10  C   UNL     1       4.322  16.916  -2.446  0.00  0.00    +0.000 C 
ATOM     11  C   UNL     1       5.386  17.708  -3.197  0.00  0.00    +0.000 C 
BRANCH  10  12
ATOM     12  O   UNL     1       4.449  15.537  -2.819  0.00  0.00    +0.000 OA
ATOM     13  H   UNL     1       4.848  15.499  -3.704  0.00  0.00    +0.000 HD
ENDBRANCH  10  12
ENDBRANCH   9  10
ENDBRANCH   1   9
BRANCH   1  14
ATOM     14  C   UNL     1       2.090  16.397  -0.650  0.00  0.00    +0.000 C 
BRANCH  14  15
ATOM     15  C   UNL     1       1.494  15.003  -0.960  0.00  0.00    +0.000 C 
ATOM     16  C   UNL     1      -0.025  14.959  -0.838  0.00  0.00    +0.000 C 
BRANCH  15  17
ATOM     17  O   UNL     1       1.845  14.559  -2.270  0.00  0.00    +0.000 OA
ATOM     18  H   UNL     1       2.475  13.825  -2.128  0.00  0.00    +0.000 HD
ENDBRANCH  15  17
ENDBRANCH  14  15
ENDBRANCH   1  14
TORSDOF 7
ENDMDL
MODEL 2
REMARK VINA RESULT:    -4.865      4.523      6.064
REMARK INTER + INTRA:          -7.102
REMARK INTER:                  -6.307
REMARK INTRA:                  -0.795
REMARK UNBOUND:                -0.530
REMARK  Name = 
REMARK  10 active torsions:
REMARK  status: ('A' for Active; 'I' for Inactive)
REMARK    1  A    between atoms: C_1  and  C_2
REMARK    2  A    between atoms: C_5  and  N_8
REMARK    3  A    between atoms: N_8  and  C_9
REMARK    4  A    between atoms: N_8  and  C_13
REMARK    5  A    between atoms: C_9  and  C_10
REMARK    6  A    between atoms: C_10  and  C_11
REMARK    7  A    between atoms: C_10  and  O_12
REMARK    8  A    between atoms: C_13  and  C_14
REMARK    9  A    between atoms: C_14  and  C_15
REMARK   10  A    between atoms: C_14  and  O_16
REMARK                            x       y       z     vdW  Elec       q    Type
REMARK                         _______ _______ _______ _____ _____    ______ ____
ROOT
ATOM      1  N   UNL     1       4.408  15.188   4.646  0.00  0.00    +0.000 N 
ENDROOT
BRANCH   1   6
ATOM      2  C   UNL     1       1.464  13.805   9.416  0.00  0.00    +0.000 C 
ATOM      3  C   UNL     1       2.242  14.180   8.192  0.00  0.00    +0.000 A 
ATOM      4  C   UNL     1       1.806  15.201   7.353  0.00  0.00    +0.000 A 
ATOM      5  C   UNL     1       2.523  15.528   6.191  0.00  0.00    +0.000 A 
ATOM      6  C   UNL     1       3.687  14.843   5.797  0.00  0.00    +0.000 A 
ATOM      7  C   UNL     1       4.099  13.819   6.669  0.00  0.00    +0.000 A 
ATOM      8  C   UNL     1       3.393  13.483   7.835  0.00  0.00    +0.000 A 
ENDBRANCH   1   6
BRANCH   1   9
ATOM      9  C   UNL     1       5.050  16.520   4.542  0.00  0.00    +0.000 C 
BRANCH   9  10
ATOM     10  C   UNL     1       6.484  16.543   5.124  0.00  0.00    +0.000 C 
ATOM     11  C   UNL     1       6.476  17.007   6.576  0.00  0.00    +0.000 C 
BRANCH  10  12
ATOM     12  O   UNL     1       7.079  15.238   5.078  0.00  0.00    +0.000 OA
ATOM     13  H   UNL     1       6.496  14.625   5.556  0.00  0.00    +0.000 HD
ENDBRANCH  10  12
ENDBRANCH   9  10
ENDBRANCH   1   9
BRANCH   1  14
ATOM     14  C   UNL     1       4.149  14.516   3.347  0.00  0.00    +0.000 C 
BRANCH  14  15
ATOM     15  C   UNL     1       5.143  13.361   3.077  0.00  0.00    +0.000 C 
ATOM     16  C   UNL     1       4.556  12.256   2.208  0.00  0.00    +0.000 C 
BRANCH  15  17
ATOM     17  O   UNL     1       6.337  13.828   2.452  0.00  0.00    +0.000 OA
ATOM     18  H   UNL     1       6.670  14.536   3.040  0.00  0.00    +0.000 HD
ENDBRANCH  15  17
ENDBRANCH  14  15
ENDBRANCH   1  14
TORSDOF 7
ENDMDL
MODEL 3
REMARK VINA RESULT:    -4.513      4.247      6.174
REMARK INTER + INTRA:          -6.626
REMARK INTER:                  -6.007
REMARK INTRA:                  -0.619
REMARK UNBOUND:                -0.530
REMARK  Name = 
REMARK  10 active torsions:
REMARK  status: ('A' for Active; 'I' for Inactive)
REMARK    1  A    between atoms: C_1  and  C_2
REMARK    2  A    between atoms: C_5  and  N_8
REMARK    3  A    between atoms: N_8  and  C_9
REMARK    4  A    between atoms: N_8  and  C_13
REMARK    5  A    between atoms: C_9  and  C_10
REMARK    6  A    between atoms: C_10  and  C_11
REMARK    7  A    between atoms: C_10  and  O_12
REMARK    8  A    between atoms: C_13  and  C_14
REMARK    9  A    between atoms: C_14  and  C_15
REMARK   10  A    between atoms: C_14  and  O_16
REMARK                            x       y       z     vdW  Elec       q    Type
REMARK                         _______ _______ _______ _____ _____    ______ ____
ROOT
ATOM      1  N   UNL     1       5.125  15.617   4.633  0.00  0.00    +0.000 N 
ENDROOT
BRANCH   1   6
ATOM      2  C   UNL     1       1.912  14.081   9.177  0.00  0.00    +0.000 C 
ATOM      3  C   UNL     1       2.733  14.501   7.996  0.00  0.00    +0.000 A 
ATOM      4  C   UNL     1       2.372  14.128   6.706  0.00  0.00    +0.000 A 
ATOM      5  C   UNL     1       3.161  14.499   5.605  0.00  0.00    +0.000 A 
ATOM      6  C   UNL     1       4.353  15.234   5.737  0.00  0.00    +0.000 A 
ATOM      7  C   UNL     1       4.686  15.596   7.055  0.00  0.00    +0.000 A 
ATOM      8  C   UNL     1       3.905  15.234   8.164  0.00  0.00    +0.000 A 
ENDBRANCH   1   6
BRANCH   1   9
ATOM      9  C   UNL     1       4.697  15.249   3.262  0.00  0.00    +0.000 C 
BRANCH   9  10
ATOM     10  C   UNL     1       5.571  14.132   2.640  0.00  0.00    +0.000 C 
ATOM     11  C   UNL     1       4.797  12.822   2.547  0.00  0.00    +0.000 C 
BRANCH  10  12
ATOM     12  O   UNL     1       6.000  14.490   1.319  0.00  0.00    +0.000 OA
ATOM     13  H   UNL     1       6.214  15.437   1.318  0.00  0.00    +0.000 HD
ENDBRANCH  10  12
ENDBRANCH   9  10
ENDBRANCH   1   9
BRANCH   1  14
ATOM     14  C   UNL     1       6.573  15.919   4.775  0.00  0.00    +0.000 C 
BRANCH  14  15
ATOM     15  C   UNL     1       6.930  17.329   4.245  0.00  0.00    +0.000 C 
ATOM     16  C   UNL     1       5.968  18.410   4.722  0.00  0.00    +0.000 C 
BRANCH  15  17
ATOM     17  O   UNL     1       8.251  17.715   4.624  0.00  0.00    +0.000 OA
ATOM     18  H   UNL     1       8.701  17.932   3.783  0.00  0.00    +0.000 HD
ENDBRANCH  15  17
ENDBRANCH  14  15
ENDBRANCH   1  14
TORSDOF 7
ENDMDL
MODEL 4
REMARK VINA RESULT:    -4.346      1.487      4.844
REMARK INTER + INTRA:          -6.401
REMARK INTER:                  -6.076
REMARK INTRA:                  -0.325
REMARK UNBOUND:                -0.530
REMARK  Name = 
REMARK  10 active torsions:
REMARK  status: ('A' for Active; 'I' for Inactive)
REMARK    1  A    between atoms: C_1  and  C_2
REMARK    2  A    between atoms: C_5  and  N_8
REMARK    3  A    between atoms: N_8  and  C_9
REMARK    4  A    between atoms: N_8  and  C_13
REMARK    5  A    between atoms: C_9  and  C_10
REMARK    6  A    between atoms: C_10  and  C_11
REMARK    7  A    between atoms: C_10  and  O_12
REMARK    8  A    between atoms: C_13  and  C_14
REMARK    9  A    between atoms: C_14  and  C_15
REMARK   10  A    between atoms: C_14  and  O_16
REMARK                            x       y       z     vdW  Elec       q    Type
REMARK                         _______ _______ _______ _____ _____    ______ ____
ROOT
ATOM      1  N   UNL     1       2.932  16.565  -0.315  0.00  0.00    +0.000 N 
ENDROOT
BRANCH   1   6
ATOM      2  C   UNL     1       7.085  19.140  -3.389  0.00  0.00    +0.000 C 
ATOM      3  C   UNL     1       6.025  18.459  -2.578  0.00  0.00    +0.000 A 
ATOM      4  C   UNL     1       5.454  17.265  -3.006  0.00  0.00    +0.000 A 
ATOM      5  C   UNL     1       4.440  16.647  -2.257  0.00  0.00    +0.000 A 
ATOM      6  C   UNL     1       3.930  17.196  -1.066  0.00  0.00    +0.000 A 
ATOM      7  C   UNL     1       4.532  18.403  -0.663  0.00  0.00    +0.000 A 
ATOM      8  C   UNL     1       5.549  19.030  -1.401  0.00  0.00    +0.000 A 
ENDBRANCH   1   6
BRANCH   1   9
ATOM      9  C   UNL     1       3.294  15.520   0.674  0.00  0.00    +0.000 C 
BRANCH   9  10
ATOM     10  C   UNL     1       4.561  15.878   1.488  0.00  0.00    +0.000 C 
ATOM     11  C   UNL     1       4.275  15.843   2.985  0.00  0.00    +0.000 C 
BRANCH  10  12
ATOM     12  O   UNL     1       5.625  14.955   1.217  0.00  0.00    +0.000 OA
ATOM     13  H   UNL     1       5.896  15.071   0.292  0.00  0.00    +0.000 HD
ENDBRANCH  10  12
ENDBRANCH   9  10
ENDBRANCH   1   9
BRANCH   1  14
ATOM     14  C   UNL     1       1.527  16.510  -0.794  0.00  0.00    +0.000 C 
BRANCH  14  15
ATOM     15  C   UNL     1       1.072  15.065  -1.108  0.00  0.00    +0.000 C 
ATOM     16  C   UNL     1      -0.443  14.898  -1.100  0.00  0.00    +0.000 C 
BRANCH  15  17
ATOM     17  O   UNL     1       1.559  14.622  -2.374  0.00  0.00    +0.000 OA
ATOM     18  H   UNL     1       0.771  14.277  -2.841  0.00  0.00    +0.000 HD
ENDBRANCH  15  17
ENDBRANCH  14  15
ENDBRANCH   1  14
TORSDOF 7
ENDMDL
MODEL 5
REMARK VINA RESULT:    -4.266      3.471      4.959
REMARK INTER + INTRA:          -6.292
REMARK INTER:                  -5.633
REMARK INTRA:                  -0.659
REMARK UNBOUND:                -0.530
REMARK  Name = 
REMARK  10 active torsions:
REMARK  status: ('A' for Active; 'I' for Inactive)
REMARK    1  A    between atoms: C_1  and  C_2
REMARK    2  A    between atoms: C_5  and  N_8
REMARK    3  A    between atoms: N_8  and  C_9
REMARK    4  A    between atoms: N_8  and  C_13
REMARK    5  A    between atoms: C_9  and  C_10
REMARK    6  A    between atoms: C_10  and  C_11
REMARK    7  A    between atoms: C_10  and  O_12
REMARK    8  A    between atoms: C_13  and  C_14
REMARK    9  A    between atoms: C_14  and  C_15
REMARK   10  A    between atoms: C_14  and  O_16
REMARK                            x       y       z     vdW  Elec       q    Type
REMARK                         _______ _______ _______ _____ _____    ______ ____
ROOT
ATOM      1  N   UNL     1       4.775  15.597   4.004  0.00  0.00    +0.000 N 
ENDROOT
BRANCH   1   6
ATOM      2  C   UNL     1       1.248  14.589   8.462  0.00  0.00    +0.000 C 
ATOM      3  C   UNL     1       2.147  14.839   7.290  0.00  0.00    +0.000 A 
ATOM      4  C   UNL     1       3.137  13.927   6.941  0.00  0.00    +0.000 A 
ATOM      5  C   UNL     1       3.996  14.181   5.859  0.00  0.00    +0.000 A 
ATOM      6  C   UNL     1       3.928  15.359   5.093  0.00  0.00    +0.000 A 
ATOM      7  C   UNL     1       2.914  16.258   5.473  0.00  0.00    +0.000 A 
ATOM      8  C   UNL     1       2.047  16.015   6.551  0.00  0.00    +0.000 A 
ENDBRANCH   1   6
BRANCH   1   9
ATOM      9  C   UNL     1       5.925  14.697   3.746  0.00  0.00    +0.000 C 
BRANCH   9  10
ATOM     10  C   UNL     1       5.708  13.783   2.515  0.00  0.00    +0.000 C 
ATOM     11  C   UNL     1       4.249  13.355   2.404  0.00  0.00    +0.000 C 
BRANCH  10  12
ATOM     12  O   UNL     1       6.065  14.461   1.302  0.00  0.00    +0.000 OA
ATOM     13  H   UNL     1       5.366  14.296   0.648  0.00  0.00    +0.000 HD
ENDBRANCH  10  12
ENDBRANCH   9  10
ENDBRANCH   1   9
BRANCH   1  14
ATOM     14  C   UNL     1       4.895  16.951   3.405  0.00  0.00    +0.000 C 
BRANCH  14  15
ATOM     15  C   UNL     1       4.049  17.097   2.117  0.00  0.00    +0.000 C 
ATOM     16  C   UNL     1       3.341  18.443   2.015  0.00  0.00    +0.000 C 
BRANCH  15  17
ATOM     17  O   UNL     1       4.841  16.924   0.943  0.00  0.00    +0.000 OA
ATOM     18  H   UNL     1       5.678  16.529   1.259  0.00  0.00    +0.000 HD
ENDBRANCH  15  17
ENDBRANCH  14  15
ENDBRANCH   1  14
TORSDOF 7
ENDMDL
MODEL 6
REMARK VINA RESULT:    -4.265      1.538      5.502
REMARK INTER + INTRA:          -6.291
REMARK INTER:                  -5.823
REMARK INTRA:                  -0.468
REMARK UNBOUND:                -0.530
REMARK  Name = 
REMARK  10 active torsions:
REMARK  status: ('A' for Active; 'I' for Inactive)
REMARK    1  A    between atoms: C_1  and  C_2
REMARK    2  A    between atoms: C_5  and  N_8
REMARK    3  A    between atoms: N_8  and  C_9
REMARK    4  A    between atoms: N_8  and  C_13
REMARK    5  A    between atoms: C_9  and  C_10
REMARK    6  A    between atoms: C_10  and  C_11
REMARK    7  A    between atoms: C_10  and  O_12
REMARK    8  A    between atoms: C_13  and  C_14
REMARK    9  A    between atoms: C_14  and  C_15
REMARK   10  A    between atoms: C_14  and  O_16
REMARK                            x       y       z     vdW  Elec       q    Type
REMARK                         _______ _______ _______ _____ _____    ______ ____
ROOT
ATOM      1  N   UNL     1       3.369  17.037  -0.743  0.00  0.00    +0.000 N 
ENDROOT
BRANCH   1   6
ATOM      2  C   UNL     1       7.605  19.105  -4.077  0.00  0.00    +0.000 C 
ATOM      3  C   UNL     1       6.522  18.555  -3.199  0.00  0.00    +0.000 A 
ATOM      4  C   UNL     1       5.814  17.415  -3.567  0.00  0.00    +0.000 A 
ATOM      5  C   UNL     1       4.781  16.921  -2.755  0.00  0.00    +0.000 A 
ATOM      6  C   UNL     1       4.388  17.546  -1.557  0.00  0.00    +0.000 A 
ATOM      7  C   UNL     1       5.127  18.694  -1.216  0.00  0.00    +0.000 A 
ATOM      8  C   UNL     1       6.165  19.198  -2.018  0.00  0.00    +0.000 A 
ENDBRANCH   1   6
BRANCH   1   9
ATOM      9  C   UNL     1       2.051  16.694  -1.328  0.00  0.00    +0.000 C 
BRANCH   9  10
ATOM     10  C   UNL     1       1.743  15.178  -1.267  0.00  0.00    +0.000 C 
ATOM     11  C   UNL     1       0.277  14.932  -0.931  0.00  0.00    +0.000 C 
BRANCH  10  12
ATOM     12  O   UNL     1       2.023  14.545  -2.524  0.00  0.00    +0.000 OA
ATOM     13  H   UNL     1       2.821  14.955  -2.896  0.00  0.00    +0.000 HD
ENDBRANCH  10  12
ENDBRANCH   9  10
ENDBRANCH   1   9
BRANCH   1  14
ATOM     14  C   UNL     1       3.356  17.291   0.721  0.00  0.00    +0.000 C 
BRANCH  14  15
ATOM     15  C   UNL     1       4.371  16.401   1.478  0.00  0.00    +0.000 C 
ATOM     16  C   UNL     1       4.095  16.317   2.974  0.00  0.00    +0.000 C 
BRANCH  15  17
ATOM     17  O   UNL     1       4.398  15.073   0.958  0.00  0.00    +0.000 OA
ATOM     18  H   UNL     1       5.205  15.034   0.407  0.00  0.00    +0.000 HD
ENDBRANCH  15  17
ENDBRANCH  14  15
ENDBRANCH   1  14
TORSDOF 7
ENDMDL
MODEL 7
REMARK VINA RESULT:    -4.265      4.073      6.610
REMARK INTER + INTRA:          -6.291
REMARK INTER:                  -5.867
REMARK INTRA:                  -0.424
REMARK UNBOUND:                -0.530
REMARK  Name = 
REMARK  10 active torsions:
REMARK  status: ('A' for Active; 'I' for Inactive)
REMARK    1  A    between atoms: C_1  and  C_2
REMARK    2  A    between atoms: C_5  and  N_8
REMARK    3  A    between atoms: N_8  and  C_9
REMARK    4  A    between atoms: N_8  and  C_13
REMARK    5  A    between atoms: C_9  and  C_10
REMARK    6  A    between atoms: C_10  and  C_11
REMARK    7  A    between atoms: C_10  and  O_12
REMARK    8  A    between atoms: C_13  and  C_14
REMARK    9  A    between atoms: C_14  and  C_15
REMARK   10  A    between atoms: C_14  and  O_16
REMARK                            x       y       z     vdW  Elec       q    Type
REMARK                         _______ _______ _______ _____ _____    ______ ____
ROOT
ATOM      1  N   UNL     1       7.288  18.269  -4.109  0.00  0.00    +0.000 N 
ENDROOT
BRANCH   1   6
ATOM      2  C   UNL     1       3.189  17.666  -0.089  0.00  0.00    +0.000 C 
ATOM      3  C   UNL     1       4.268  17.808  -1.119  0.00  0.00    +0.000 A 
ATOM      4  C   UNL     1       5.159  18.875  -1.076  0.00  0.00    +0.000 A 
ATOM      5  C   UNL     1       6.150  19.020  -2.061  0.00  0.00    +0.000 A 
ATOM      6  C   UNL     1       6.285  18.130  -3.141  0.00  0.00    +0.000 A 
ATOM      7  C   UNL     1       5.368  17.062  -3.151  0.00  0.00    +0.000 A 
ATOM      8  C   UNL     1       4.374  16.904  -2.172  0.00  0.00    +0.000 A 
ENDBRANCH   1   6
BRANCH   1   9
ATOM      9  C   UNL     1       8.449  17.347  -4.115  0.00  0.00    +0.000 C 
BRANCH   9  10
ATOM     10  C   UNL     1       9.680  17.938  -4.845  0.00  0.00    +0.000 C 
ATOM     11  C   UNL     1      10.832  18.167  -3.873  0.00  0.00    +0.000 C 
BRANCH  10  12
ATOM     12  O   UNL     1      10.139  17.054  -5.877  0.00  0.00    +0.000 OA
ATOM     13  H   UNL     1      10.466  16.242  -5.455  0.00  0.00    +0.000 HD
ENDBRANCH  10  12
ENDBRANCH   9  10
ENDBRANCH   1   9
BRANCH   1  14
ATOM     14  C   UNL     1       7.516  19.565  -4.798  0.00  0.00    +0.000 C 
BRANCH  14  15
ATOM     15  C   UNL     1       6.725  19.669  -6.124  0.00  0.00    +0.000 C 
ATOM     16  C   UNL     1       7.594  20.071  -7.311  0.00  0.00    +0.000 C 
BRANCH  15  17
ATOM     17  O   UNL     1       6.076  18.441  -6.449  0.00  0.00    +0.000 OA
ATOM     18  H   UNL     1       5.240  18.705  -6.883  0.00  0.00    +0.000 HD
ENDBRANCH  15  17
ENDBRANCH  14  15
ENDBRANCH   1  14
TORSDOF 7
ENDMDL
MODEL 8
REMARK VINA RESULT:    -4.207      4.123      6.290
REMARK INTER + INTRA:          -6.213
REMARK INTER:                  -5.708
REMARK INTRA:                  -0.505
REMARK UNBOUND:                -0.530
REMARK  Name = 
REMARK  10 active torsions:
REMARK  status: ('A' for Active; 'I' for Inactive)
REMARK    1  A    between atoms: C_1  and  C_2
REMARK    2  A    between atoms: C_5  and  N_8
REMARK    3  A    between atoms: N_8  and  C_9
REMARK    4  A    between atoms: N_8  and  C_13
REMARK    5  A    between atoms: C_9  and  C_10
REMARK    6  A    between atoms: C_10  and  C_11
REMARK    7  A    between atoms: C_10  and  O_12
REMARK    8  A    between atoms: C_13  and  C_14
REMARK    9  A    between atoms: C_14  and  C_15
REMARK   10  A    between atoms: C_14  and  O_16
REMARK                            x       y       z     vdW  Elec       q    Type
REMARK                         _______ _______ _______ _____ _____    ______ ____
ROOT
ATOM      1  N   UNL     1       4.184  15.214   4.465  0.00  0.00    +0.000 N 
ENDROOT
BRANCH   1   6
ATOM      2  C   UNL     1       8.373  19.164   4.042  0.00  0.00    +0.000 C 
ATOM      3  C   UNL     1       7.296  18.127   4.132  0.00  0.00    +0.000 A 
ATOM      4  C   UNL     1       6.088  18.292   3.463  0.00  0.00    +0.000 A 
ATOM      5  C   UNL     1       5.070  17.330   3.575  0.00  0.00    +0.000 A 
ATOM      6  C   UNL     1       5.196  16.179   4.373  0.00  0.00    +0.000 A 
ATOM      7  C   UNL     1       6.431  16.044   5.033  0.00  0.00    +0.000 A 
ATOM      8  C   UNL     1       7.458  16.997   4.928  0.00  0.00    +0.000 A 
ENDBRANCH   1   6
BRANCH   1   9
ATOM      9  C   UNL     1       3.096  15.372   5.460  0.00  0.00    +0.000 C 
BRANCH   9  10
ATOM     10  C   UNL     1       2.926  14.127   6.365  0.00  0.00    +0.000 C 
ATOM     11  C   UNL     1       3.757  14.260   7.636  0.00  0.00    +0.000 C 
BRANCH  10  12
ATOM     12  O   UNL     1       1.555  13.951   6.747  0.00  0.00    +0.000 OA
ATOM     13  H   UNL     1       1.410  13.007   6.924  0.00  0.00    +0.000 HD
ENDBRANCH  10  12
ENDBRANCH   9  10
ENDBRANCH   1   9
BRANCH   1  14
ATOM     14  C   UNL     1       4.403  13.823   3.993  0.00  0.00    +0.000 C 
BRANCH  14  15
ATOM     15  C   UNL     1       4.532  13.741   2.453  0.00  0.00    +0.000 C 
ATOM     16  C   UNL     1       5.959  13.946   1.959  0.00  0.00    +0.000 C 
BRANCH  15  17
ATOM     17  O   UNL     1       4.066  12.490   1.951  0.00  0.00    +0.000 OA
ATOM     18  H   UNL     1       4.867  11.933   1.877  0.00  0.00    +0.000 HD
ENDBRANCH  15  17
ENDBRANCH  14  15
ENDBRANCH   1  14
TORSDOF 7
ENDMDL
MODEL 9
REMARK VINA RESULT:    -4.118      1.382      3.255
REMARK INTER + INTRA:          -6.093
REMARK INTER:                  -5.473
REMARK INTRA:                  -0.620
REMARK UNBOUND:                -0.530
REMARK  Name = 
REMARK  10 active torsions:
REMARK  status: ('A' for Active; 'I' for Inactive)
REMARK    1  A    between atoms: C_1  and  C_2
REMARK    2  A    between atoms: C_5  and  N_8
REMARK    3  A    between atoms: N_8  and  C_9
REMARK    4  A    between atoms: N_8  and  C_13
REMARK    5  A    between atoms: C_9  and  C_10
REMARK    6  A    between atoms: C_10  and  C_11
REMARK    7  A    between atoms: C_10  and  O_12
REMARK    8  A    between atoms: C_13  and  C_14
REMARK    9  A    between atoms: C_14  and  C_15
REMARK   10  A    between atoms: C_14  and  O_16
REMARK                            x       y       z     vdW  Elec       q    Type
REMARK                         _______ _______ _______ _____ _____    ______ ____
ROOT
ATOM      1  N   UNL     1       3.359  16.677  -0.281  0.00  0.00    +0.000 N 
ENDROOT
BRANCH   1   6
ATOM      2  C   UNL     1       6.264  15.535   4.576  0.00  0.00    +0.000 C 
ATOM      3  C   UNL     1       5.530  15.825   3.302  0.00  0.00    +0.000 A 
ATOM      4  C   UNL     1       5.529  17.103   2.754  0.00  0.00    +0.000 A 
ATOM      5  C   UNL     1       4.814  17.376   1.576  0.00  0.00    +0.000 A 
ATOM      6  C   UNL     1       4.053  16.403   0.904  0.00  0.00    +0.000 A 
ATOM      7  C   UNL     1       4.079  15.122   1.485  0.00  0.00    +0.000 A 
ATOM      8  C   UNL     1       4.791  14.835   2.662  0.00  0.00    +0.000 A 
ENDBRANCH   1   6
BRANCH   1   9
ATOM      9  C   UNL     1       1.877  16.715  -0.283  0.00  0.00    +0.000 C 
BRANCH   9  10
ATOM     10  C   UNL     1       1.257  15.882  -1.431  0.00  0.00    +0.000 C 
ATOM     11  C   UNL     1       0.148  14.975  -0.910  0.00  0.00    +0.000 C 
BRANCH  10  12
ATOM     12  O   UNL     1       0.696  16.733  -2.440  0.00  0.00    +0.000 OA
ATOM     13  H   UNL     1       0.388  17.548  -2.009  0.00  0.00    +0.000 HD
ENDBRANCH  10  12
ENDBRANCH   9  10
ENDBRANCH   1   9
BRANCH   1  14
ATOM     14  C   UNL     1       3.979  16.434  -1.609  0.00  0.00    +0.000 C 
BRANCH  14  15
ATOM     15  C   UNL     1       4.389  17.751  -2.312  0.00  0.00    +0.000 C 
ATOM     16  C   UNL     1       5.520  17.567  -3.317  0.00  0.00    +0.000 C 
BRANCH  15  17
ATOM     17  O   UNL     1       3.287  18.350  -2.992  0.00  0.00    +0.000 OA
ATOM     18  H   UNL     1       2.638  18.555  -2.289  0.00  0.00    +0.000 HD
ENDBRANCH  15  17
ENDBRANCH  14  15
ENDBRANCH   1  14
TORSDOF 7
ENDMDL
