MODEL 1
REMARK VINA RESULT:    -5.404      0.000      0.000
REMARK INTER + INTRA:          -7.729
REMARK INTER:                  -7.299
REMARK INTRA:                  -0.430
REMARK UNBOUND:                -0.430
REMARK  Name = 
REMARK  10 active torsions:
REMARK  status: ('A' for Active; 'I' for Inactive)
REMARK    1  A    between atoms: C_1  and  C_2
REMARK    2  A    between atoms: C_5  and  N_8
REMARK    3  A    between atoms: N_8  and  C_9
REMARK    4  A    between atoms: N_8  and  C_13
REMARK    5  A    between atoms: C_9  and  C_10
REMARK    6  A    between atoms: C_10  and  C_11
REMARK    7  A    between atoms: C_10  and  O_12
REMARK    8  A    between atoms: C_13  and  C_14
REMARK    9  A    between atoms: C_14  and  C_15
REMARK   10  A    between atoms: C_14  and  O_16
REMARK                            x       y       z     vdW  Elec       q    Type
REMARK                         _______ _______ _______ _____ _____    ______ ____
ROOT
ATOM      1  N   UNL     1      12.437   3.216   8.335  0.00  0.00    +0.000 N 
ENDROOT
BRANCH   1   6
ATOM      2  C   UNL     1      17.763   1.647   9.916  0.00  0.00    +0.000 C 
ATOM      3  C   UNL     1      16.376   2.031   9.501  0.00  0.00    +0.000 A 
ATOM      4  C   UNL     1      16.105   2.423   8.194  0.00  0.00    +0.000 A 
ATOM      5  C   UNL     1      14.808   2.810   7.818  0.00  0.00    +0.000 A 
ATOM      6  C   UNL     1      13.732   2.848   8.722  0.00  0.00    +0.000 A 
ATOM      7  C   UNL     1      14.042   2.443  10.034  0.00  0.00    +0.000 A 
ATOM      8  C   UNL     1      15.334   2.051  10.423  0.00  0.00    +0.000 A 
ENDBRANCH   1   6
BRANCH   1   9
ATOM      9  C   UNL     1      11.748   2.479   7.249  0.00  0.00    +0.000 C 
BRANCH   9  10
ATOM     10  C   UNL     1      11.394   3.381   6.042  0.00  0.00    +0.000 C 
ATOM     11  C   UNL     1      12.588   3.533   5.107  0.00  0.00    +0.000 C 
BRANCH  10  12
ATOM     12  O   UNL     1      10.306   2.828   5.287  0.00  0.00    +0.000 OA
ATOM     13  H   UNL     1       9.901   3.546   4.773  0.00  0.00    +0.000 HD
ENDBRANCH  10  12
ENDBRANCH   9  10
ENDBRANCH   1   9
BRANCH   1  14
ATOM     14  C   UNL     1      11.921   4.586   8.585  0.00  0.00    +0.000 C 
BRANCH  14  15
ATOM     15  C   UNL     1      11.285   4.724   9.990  0.00  0.00    +0.000 C 
ATOM     16  C   UNL     1      11.375   6.137  10.553  0.00  0.00    +0.000 C 
BRANCH  15  17
ATOM     17  O   UNL     1       9.912   4.336   9.987  0.00  0.00    +0.000 OA
ATOM     18  H   UNL     1       9.925   3.361   9.910  0.00  0.00    +0.000 HD
ENDBRANCH  15  17
ENDBRANCH  14  15
ENDBRANCH   1  14
TORSDOF 7
ENDMDL
MODEL 2
REMARK VINA RESULT:    -5.333      0.404      3.332
REMARK INTER + INTRA:          -7.633
REMARK INTER:                  -7.268
REMARK INTRA:                  -0.365
REMARK UNBOUND:                -0.430
REMARK  Name = 
REMARK  10 active torsions:
REMARK  status: ('A' for Active; 'I' for Inactive)
REMARK    1  A    between atoms: C_1  and  C_2
REMARK    2  A    between atoms: C_5  and  N_8
REMARK    3  A    between atoms: N_8  and  C_9
REMARK    4  A    between atoms: N_8  and  C_13
REMARK    5  A    between atoms: C_9  and  C_10
REMARK    6  A    between atoms: C_10  and  C_11
REMARK    7  A    between atoms: C_10  and  O_12
REMARK    8  A    between atoms: C_13  and  C_14
REMARK    9  A    between atoms: C_14  and  C_15
REMARK   10  A    between atoms: C_14  and  O_16
REMARK                            x       y       z     vdW  Elec       q    Type
REMARK                         _______ _______ _______ _____ _____    ______ ____
ROOT
ATOM      1  N   UNL     1      12.682   3.422   8.108  0.00  0.00    +0.000 N 
ENDROOT
BRANCH   1   6
ATOM      2  C   UNL     1      17.750   1.347   9.935  0.00  0.00    +0.000 C 
ATOM      3  C   UNL     1      16.428   1.862   9.454  0.00  0.00    +0.000 A 
ATOM      4  C   UNL     1      16.271   2.322   8.151  0.00  0.00    +0.000 A 
ATOM      5  C   UNL     1      15.038   2.832   7.715  0.00  0.00    +0.000 A 
ATOM      6  C   UNL     1      13.915   2.930   8.555  0.00  0.00    +0.000 A 
ATOM      7  C   UNL     1      14.108   2.455   9.865  0.00  0.00    +0.000 A 
ATOM      8  C   UNL     1      15.336   1.940  10.314  0.00  0.00    +0.000 A 
ENDBRANCH   1   6
BRANCH   1   9
ATOM      9  C   UNL     1      12.077   4.611   8.755  0.00  0.00    +0.000 C 
BRANCH   9  10
ATOM     10  C   UNL     1      11.316   4.263  10.058  0.00  0.00    +0.000 C 
ATOM     11  C   UNL     1      11.690   5.224  11.181  0.00  0.00    +0.000 C 
BRANCH  10  12
ATOM     12  O   UNL     1       9.897   4.340   9.862  0.00  0.00    +0.000 OA
ATOM     13  H   UNL     1       9.465   4.142  10.710  0.00  0.00    +0.000 HD
ENDBRANCH  10  12
ENDBRANCH   9  10
ENDBRANCH   1   9
BRANCH   1  14
ATOM     14  C   UNL     1      11.722   2.548   7.385  0.00  0.00    +0.000 C 
BRANCH  14  15
ATOM     15  C   UNL     1      11.312   3.139   6.015  0.00  0.00    +0.000 C 
ATOM     16  C   UNL     1      12.440   3.115   4.990  0.00  0.00    +0.000 C 
BRANCH  15  17
ATOM     17  O   UNL     1      10.194   2.450   5.457  0.00  0.00    +0.000 OA
ATOM     18  H   UNL     1       9.941   1.790   6.133  0.00  0.00    +0.000 HD
ENDBRANCH  15  17
ENDBRANCH  14  15
ENDBRANCH   1  14
TORSDOF 7
ENDMDL
MODEL 3
REMARK VINA RESULT:    -5.297     14.396     15.787
REMARK INTER + INTRA:          -7.585
REMARK INTER:                  -7.270
REMARK INTRA:                  -0.315
REMARK UNBOUND:                -0.430
REMARK  Name = 
REMARK  10 active torsions:
REMARK  status: ('A' for Active; 'I' for Inactive)
REMARK    1  A    between atoms: C_1  and  C_2
REMARK    2  A    between atoms: C_5  and  N_8
REMARK    3  A    between atoms: N_8  and  C_9
REMARK    4  A    between atoms: N_8  and  C_13
REMARK    5  A    between atoms: C_9  and  C_10
REMARK    6  A    between atoms: C_10  and  C_11
REMARK    7  A    between atoms: C_10  and  O_12
REMARK    8  A    between atoms: C_13  and  C_14
REMARK    9  A    between atoms: C_14  and  C_15
REMARK   10  A    between atoms: C_14  and  O_16
REMARK                            x       y       z     vdW  Elec       q    Type
REMARK                         _______ _______ _______ _____ _____    ______ ____
ROOT
ATOM      1  N   UNL     1      19.182  10.239  -4.212  0.00  0.00    +0.000 N 
ENDROOT
BRANCH   1   6
ATOM      2  C   UNL     1      23.038  10.339   0.083  0.00  0.00    +0.000 C 
ATOM      3  C   UNL     1      22.019  10.314  -1.015  0.00  0.00    +0.000 A 
ATOM      4  C   UNL     1      21.565   9.108  -1.540  0.00  0.00    +0.000 A 
ATOM      5  C   UNL     1      20.632   9.091  -2.589  0.00  0.00    +0.000 A 
ATOM      6  C   UNL     1      20.127  10.264  -3.179  0.00  0.00    +0.000 A 
ATOM      7  C   UNL     1      20.607  11.464  -2.622  0.00  0.00    +0.000 A 
ATOM      8  C   UNL     1      21.538  11.495  -1.571  0.00  0.00    +0.000 A 
ENDBRANCH   1   6
BRANCH   1   9
ATOM      9  C   UNL     1      19.610   9.961  -5.604  0.00  0.00    +0.000 C 
BRANCH   9  10
ATOM     10  C   UNL     1      21.137  10.121  -5.806  0.00  0.00    +0.000 C 
ATOM     11  C   UNL     1      21.684   9.026  -6.714  0.00  0.00    +0.000 C 
BRANCH  10  12
ATOM     12  O   UNL     1      21.447  11.389  -6.403  0.00  0.00    +0.000 OA
ATOM     13  H   UNL     1      21.701  12.001  -5.693  0.00  0.00    +0.000 HD
ENDBRANCH  10  12
ENDBRANCH   9  10
ENDBRANCH   1   9
BRANCH   1  14
ATOM     14  C   UNL     1      17.888  10.959  -4.089  0.00  0.00    +0.000 C 
BRANCH  14  15
ATOM     15  C   UNL     1      16.686   9.988  -3.999  0.00  0.00    +0.000 C 
ATOM     16  C   UNL     1      15.966   9.801  -5.329  0.00  0.00    +0.000 C 
BRANCH  15  17
ATOM     17  O   UNL     1      17.081   8.702  -3.525  0.00  0.00    +0.000 OA
ATOM     18  H   UNL     1      16.879   8.712  -2.568  0.00  0.00    +0.000 HD
ENDBRANCH  15  17
ENDBRANCH  14  15
ENDBRANCH   1  14
TORSDOF 7
ENDMDL
MODEL 4
REMARK VINA RESULT:    -5.152      2.027      4.538
REMARK INTER + INTRA:          -7.389
REMARK INTER:                  -6.998
REMARK INTRA:                  -0.391
REMARK UNBOUND:                -0.430
REMARK  Name = 
REMARK  10 active torsions:
REMARK  status: ('A' for Active; 'I' for Inactive)
REMARK    1  A    between atoms: C_1  and  C_2
REMARK    2  A    between atoms: C_5  and  N_8
REMARK    3  A    between atoms: N_8  and  C_9
REMARK    4  A    between atoms: N_8  and  C_13
REMARK    5  A    between atoms: C_9  and  C_10
REMARK    6  A    between atoms: C_10  and  C_11
REMARK    7  A    between atoms: C_10  and  O_12
REMARK    8  A    between atoms: C_13  and  C_14
REMARK    9  A    between atoms: C_14  and  C_15
REMARK   10  A    between atoms: C_14  and  O_16
REMARK                            x       y       z     vdW  Elec       q    Type
REMARK                         _______ _______ _______ _____ _____    ______ ____
ROOT
ATOM      1  N   UNL     1      12.651   3.801   9.056  0.00  0.00    +0.000 N 
ENDROOT
BRANCH   1   6
ATOM      2  C   UNL     1      11.811   2.723   3.447  0.00  0.00    +0.000 C 
ATOM      3  C   UNL     1      12.011   3.021   4.901  0.00  0.00    +0.000 A 
ATOM      4  C   UNL     1      12.962   3.947   5.317  0.00  0.00    +0.000 A 
ATOM      5  C   UNL     1      13.166   4.199   6.683  0.00  0.00    +0.000 A 
ATOM      6  C   UNL     1      12.456   3.530   7.696  0.00  0.00    +0.000 A 
ATOM      7  C   UNL     1      11.501   2.603   7.239  0.00  0.00    +0.000 A 
ATOM      8  C   UNL     1      11.285   2.342   5.876  0.00  0.00    +0.000 A 
ENDBRANCH   1   6
BRANCH   1   9
ATOM      9  C   UNL     1      12.837   2.688  10.017  0.00  0.00    +0.000 C 
BRANCH   9  10
ATOM     10  C   UNL     1      14.306   2.532  10.478  0.00  0.00    +0.000 C 
ATOM     11  C   UNL     1      14.512   1.210  11.207  0.00  0.00    +0.000 C 
BRANCH  10  12
ATOM     12  O   UNL     1      15.204   2.567   9.360  0.00  0.00    +0.000 OA
ATOM     13  H   UNL     1      14.672   2.630   8.549  0.00  0.00    +0.000 HD
ENDBRANCH  10  12
ENDBRANCH   9  10
ENDBRANCH   1   9
BRANCH   1  14
ATOM     14  C   UNL     1      12.186   5.076   9.660  0.00  0.00    +0.000 C 
BRANCH  14  15
ATOM     15  C   UNL     1      10.971   4.870  10.596  0.00  0.00    +0.000 C 
ATOM     16  C   UNL     1      10.522   6.152  11.287  0.00  0.00    +0.000 C 
BRANCH  15  17
ATOM     17  O   UNL     1       9.851   4.330   9.896  0.00  0.00    +0.000 OA
ATOM     18  H   UNL     1       9.498   3.632  10.483  0.00  0.00    +0.000 HD
ENDBRANCH  15  17
ENDBRANCH  14  15
ENDBRANCH   1  14
TORSDOF 7
ENDMDL
MODEL 5
REMARK VINA RESULT:    -5.111      1.749      2.482
REMARK INTER + INTRA:          -7.333
REMARK INTER:                  -6.901
REMARK INTRA:                  -0.432
REMARK UNBOUND:                -0.430
REMARK  Name = 
REMARK  10 active torsions:
REMARK  status: ('A' for Active; 'I' for Inactive)
REMARK    1  A    between atoms: C_1  and  C_2
REMARK    2  A    between atoms: C_5  and  N_8
REMARK    3  A    between atoms: N_8  and  C_9
REMARK    4  A    between atoms: N_8  and  C_13
REMARK    5  A    between atoms: C_9  and  C_10
REMARK    6  A    between atoms: C_10  and  C_11
REMARK    7  A    between atoms: C_10  and  O_12
REMARK    8  A    between atoms: C_13  and  C_14
REMARK    9  A    between atoms: C_14  and  C_15
REMARK   10  A    between atoms: C_14  and  O_16
REMARK                            x       y       z     vdW  Elec       q    Type
REMARK                         _______ _______ _______ _____ _____    ______ ____
ROOT
ATOM      1  N   UNL     1      14.066   3.192   8.006  0.00  0.00    +0.000 N 
ENDROOT
BRANCH   1   6
ATOM      2  C   UNL     1      18.006   0.155  10.935  0.00  0.00    +0.000 C 
ATOM      3  C   UNL     1      16.995   0.964  10.182  0.00  0.00    +0.000 A 
ATOM      4  C   UNL     1      15.801   1.351  10.781  0.00  0.00    +0.000 A 
ATOM      5  C   UNL     1      14.843   2.084  10.061  0.00  0.00    +0.000 A 
ATOM      6  C   UNL     1      15.016   2.444   8.712  0.00  0.00    +0.000 A 
ATOM      7  C   UNL     1      16.236   2.038   8.140  0.00  0.00    +0.000 A 
ATOM      8  C   UNL     1      17.203   1.306   8.850  0.00  0.00    +0.000 A 
ENDBRANCH   1   6
BRANCH   1   9
ATOM      9  C   UNL     1      14.414   3.787   6.693  0.00  0.00    +0.000 C 
BRANCH   9  10
ATOM     10  C   UNL     1      13.787   3.022   5.502  0.00  0.00    +0.000 C 
ATOM     11  C   UNL     1      12.716   3.862   4.818  0.00  0.00    +0.000 C 
BRANCH  10  12
ATOM     12  O   UNL     1      14.782   2.688   4.524  0.00  0.00    +0.000 OA
ATOM     13  H   UNL     1      14.326   2.444   3.702  0.00  0.00    +0.000 HD
ENDBRANCH  10  12
ENDBRANCH   9  10
ENDBRANCH   1   9
BRANCH   1  14
ATOM     14  C   UNL     1      12.926   3.841   8.703  0.00  0.00    +0.000 C 
BRANCH  14  15
ATOM     15  C   UNL     1      11.716   2.888   8.856  0.00  0.00    +0.000 C 
ATOM     16  C   UNL     1      10.792   3.272  10.005  0.00  0.00    +0.000 C 
BRANCH  15  17
ATOM     17  O   UNL     1      10.936   2.830   7.662  0.00  0.00    +0.000 OA
ATOM     18  H   UNL     1      11.189   3.628   7.156  0.00  0.00    +0.000 HD
ENDBRANCH  15  17
ENDBRANCH  14  15
ENDBRANCH   1  14
TORSDOF 7
ENDMDL
MODEL 6
REMARK VINA RESULT:    -5.107     14.554     15.953
REMARK INTER + INTRA:          -7.329
REMARK INTER:                  -7.108
REMARK INTRA:                  -0.221
REMARK UNBOUND:                -0.430
REMARK  Name = 
REMARK  10 active torsions:
REMARK  status: ('A' for Active; 'I' for Inactive)
REMARK    1  A    between atoms: C_1  and  C_2
REMARK    2  A    between atoms: C_5  and  N_8
REMARK    3  A    between atoms: N_8  and  C_9
REMARK    4  A    between atoms: N_8  and  C_13
REMARK    5  A    between atoms: C_9  and  C_10
REMARK    6  A    between atoms: C_10  and  C_11
REMARK    7  A    between atoms: C_10  and  O_12
REMARK    8  A    between atoms: C_13  and  C_14
REMARK    9  A    between atoms: C_14  and  C_15
REMARK   10  A    between atoms: C_14  and  O_16
REMARK                            x       y       z     vdW  Elec       q    Type
REMARK                         _______ _______ _______ _____ _____    ______ ____
ROOT
ATOM      1  N   UNL     1      19.149  10.227  -4.082  0.00  0.00    +0.000 N 
ENDROOT
BRANCH   1   6
ATOM      2  C   UNL     1      23.193  10.474   0.030  0.00  0.00    +0.000 C 
ATOM      3  C   UNL     1      22.126  10.410  -1.019  0.00  0.00    +0.000 A 
ATOM      4  C   UNL     1      21.662   9.188  -1.494  0.00  0.00    +0.000 A 
ATOM      5  C   UNL     1      20.683   9.135  -2.499  0.00  0.00    +0.000 A 
ATOM      6  C   UNL     1      20.139  10.288  -3.094  0.00  0.00    +0.000 A 
ATOM      7  C   UNL     1      20.630  11.506  -2.588  0.00  0.00    +0.000 A 
ATOM      8  C   UNL     1      21.607  11.573  -1.582  0.00  0.00    +0.000 A 
ENDBRANCH   1   6
BRANCH   1   9
ATOM      9  C   UNL     1      17.748   9.911  -3.713  0.00  0.00    +0.000 C 
BRANCH   9  10
ATOM     10  C   UNL     1      16.717  10.789  -4.465  0.00  0.00    +0.000 C 
ATOM     11  C   UNL     1      15.832   9.938  -5.367  0.00  0.00    +0.000 C 
BRANCH  10  12
ATOM     12  O   UNL     1      15.869  11.490  -3.544  0.00  0.00    +0.000 OA
ATOM     13  H   UNL     1      15.206  11.980  -4.058  0.00  0.00    +0.000 HD
ENDBRANCH  10  12
ENDBRANCH   9  10
ENDBRANCH   1   9
BRANCH   1  14
ATOM     14  C   UNL     1      19.495   9.962  -5.502  0.00  0.00    +0.000 C 
BRANCH  14  15
ATOM     15  C   UNL     1      21.023   9.988  -5.746  0.00  0.00    +0.000 C 
ATOM     16  C   UNL     1      21.495   8.909  -6.713  0.00  0.00    +0.000 C 
BRANCH  15  17
ATOM     17  O   UNL     1      21.457  11.251  -6.248  0.00  0.00    +0.000 OA
ATOM     18  H   UNL     1      21.919  11.045  -7.085  0.00  0.00    +0.000 HD
ENDBRANCH  15  17
ENDBRANCH  14  15
ENDBRANCH   1  14
TORSDOF 7
ENDMDL
MODEL 7
REMARK VINA RESULT:    -4.985     15.134     16.836
REMARK INTER + INTRA:          -7.163
REMARK INTER:                  -6.675
REMARK INTRA:                  -0.488
REMARK UNBOUND:                -0.430
REMARK  Name = 
REMARK  10 active torsions:
REMARK  status: ('A' for Active; 'I' for Inactive)
REMARK    1  A    between atoms: C_1  and  C_2
REMARK    2  A    between atoms: C_5  and  N_8
REMARK    3  A    between atoms: N_8  and  C_9
REMARK    4  A    between atoms: N_8  and  C_13
REMARK    5  A    between atoms: C_9  and  C_10
REMARK    6  A    between atoms: C_10  and  C_11
REMARK    7  A    between atoms: C_10  and  O_12
REMARK    8  A    between atoms: C_13  and  C_14
REMARK    9  A    between atoms: C_14  and  C_15
REMARK   10  A    between atoms: C_14  and  O_16
REMARK                            x       y       z     vdW  Elec       q    Type
REMARK                         _______ _______ _______ _____ _____    ______ ____
ROOT
ATOM      1  N   UNL     1      20.374  10.159  -4.930  0.00  0.00    +0.000 N 
ENDROOT
BRANCH   1   6
ATOM      2  C   UNL     1      24.045  10.888  -0.535  0.00  0.00    +0.000 C 
ATOM      3  C   UNL     1      23.082  10.721  -1.670  0.00  0.00    +0.000 A 
ATOM      4  C   UNL     1      21.870  10.064  -1.487  0.00  0.00    +0.000 A 
ATOM      5  C   UNL     1      20.984   9.884  -2.562  0.00  0.00    +0.000 A 
ATOM      6  C   UNL     1      21.270  10.325  -3.867  0.00  0.00    +0.000 A 
ATOM      7  C   UNL     1      22.503  10.986  -4.014  0.00  0.00    +0.000 A 
ATOM      8  C   UNL     1      23.397  11.175  -2.948  0.00  0.00    +0.000 A 
ENDBRANCH   1   6
BRANCH   1   9
ATOM      9  C   UNL     1      19.037   9.563  -4.689  0.00  0.00    +0.000 C 
BRANCH   9  10
ATOM     10  C   UNL     1      17.896  10.608  -4.745  0.00  0.00    +0.000 C 
ATOM     11  C   UNL     1      16.533   9.925  -4.775  0.00  0.00    +0.000 C 
BRANCH  10  12
ATOM     12  O   UNL     1      17.934  11.474  -3.602  0.00  0.00    +0.000 OA
ATOM     13  H   UNL     1      18.428  12.274  -3.846  0.00  0.00    +0.000 HD
ENDBRANCH  10  12
ENDBRANCH   9  10
ENDBRANCH   1   9
BRANCH   1  14
ATOM     14  C   UNL     1      20.852  10.071  -6.333  0.00  0.00    +0.000 C 
BRANCH  14  15
ATOM     15  C   UNL     1      21.252   8.628  -6.725  0.00  0.00    +0.000 C 
ATOM     16  C   UNL     1      20.747   8.220  -8.104  0.00  0.00    +0.000 C 
BRANCH  15  17
ATOM     17  O   UNL     1      22.667   8.448  -6.702  0.00  0.00    +0.000 OA
ATOM     18  H   UNL     1      22.913   8.258  -7.629  0.00  0.00    +0.000 HD
ENDBRANCH  15  17
ENDBRANCH  14  15
ENDBRANCH   1  14
TORSDOF 7
ENDMDL
MODEL 8
REMARK VINA RESULT:    -4.949     15.196     16.489
REMARK INTER + INTRA:          -7.115
REMARK INTER:                  -6.725
REMARK INTRA:                  -0.390
REMARK UNBOUND:                -0.430
REMARK  Name = 
REMARK  10 active torsions:
REMARK  status: ('A' for Active; 'I' for Inactive)
REMARK    1  A    between atoms: C_1  and  C_2
REMARK    2  A    between atoms: C_5  and  N_8
REMARK    3  A    between atoms: N_8  and  C_9
REMARK    4  A    between atoms: N_8  and  C_13
REMARK    5  A    between atoms: C_9  and  C_10
REMARK    6  A    between atoms: C_10  and  C_11
REMARK    7  A    between atoms: C_10  and  O_12
REMARK    8  A    between atoms: C_13  and  C_14
REMARK    9  A    between atoms: C_14  and  C_15
REMARK   10  A    between atoms: C_14  and  O_16
REMARK                            x       y       z     vdW  Elec       q    Type
REMARK                         _______ _______ _______ _____ _____    ______ ____
ROOT
ATOM      1  N   UNL     1      20.345   9.778  -4.280  0.00  0.00    +0.000 N 
ENDROOT
BRANCH   1   6
ATOM      2  C   UNL     1      24.670  11.639  -0.939  0.00  0.00    +0.000 C 
ATOM      3  C   UNL     1      23.561  11.135  -1.811  0.00  0.00    +0.000 A 
ATOM      4  C   UNL     1      23.510  11.460  -3.162  0.00  0.00    +0.000 A 
ATOM      5  C   UNL     1      22.452  11.010  -3.968  0.00  0.00    +0.000 A 
ATOM      6  C   UNL     1      21.387  10.239  -3.466  0.00  0.00    +0.000 A 
ATOM      7  C   UNL     1      21.472   9.928  -2.097  0.00  0.00    +0.000 A 
ATOM      8  C   UNL     1      22.526  10.370  -1.280  0.00  0.00    +0.000 A 
ENDBRANCH   1   6
BRANCH   1   9
ATOM      9  C   UNL     1      20.438   9.909  -5.754  0.00  0.00    +0.000 C 
BRANCH   9  10
ATOM     10  C   UNL     1      21.061   8.663  -6.429  0.00  0.00    +0.000 C 
ATOM     11  C   UNL     1      20.536   8.494  -7.850  0.00  0.00    +0.000 C 
BRANCH  10  12
ATOM     12  O   UNL     1      22.489   8.772  -6.493  0.00  0.00    +0.000 OA
ATOM     13  H   UNL     1      22.807   8.168  -7.186  0.00  0.00    +0.000 HD
ENDBRANCH  10  12
ENDBRANCH   9  10
ENDBRANCH   1   9
BRANCH   1  14
ATOM     14  C   UNL     1      18.964   9.633  -3.752  0.00  0.00    +0.000 C 
BRANCH  14  15
ATOM     15  C   UNL     1      17.965  10.578  -4.462  0.00  0.00    +0.000 C 
ATOM     16  C   UNL     1      16.626   9.917  -4.766  0.00  0.00    +0.000 C 
BRANCH  15  17
ATOM     17  O   UNL     1      17.712  11.752  -3.691  0.00  0.00    +0.000 OA
ATOM     18  H   UNL     1      18.369  11.726  -2.967  0.00  0.00    +0.000 HD
ENDBRANCH  15  17
ENDBRANCH  14  15
ENDBRANCH   1  14
TORSDOF 7
ENDMDL
MODEL 9
REMARK VINA RESULT:    -4.570     11.340     12.691
REMARK INTER + INTRA:          -6.603
REMARK INTER:                  -6.735
REMARK INTRA:                   0.131
REMARK UNBOUND:                -0.430
REMARK  Name = 
REMARK  10 active torsions:
REMARK  status: ('A' for Active; 'I' for Inactive)
REMARK    1  A    between atoms: C_1  and  C_2
REMARK    2  A    between atoms: C_5  and  N_8
REMARK    3  A    between atoms: N_8  and  C_9
REMARK    4  A    between atoms: N_8  and  C_13
REMARK    5  A    between atoms: C_9  and  C_10
REMARK    6  A    between atoms: C_10  and  C_11
REMARK    7  A    between atoms: C_10  and  O_12
REMARK    8  A    between atoms: C_13  and  C_14
REMARK    9  A    between atoms: C_14  and  C_15
REMARK   10  A    between atoms: C_14  and  O_16
REMARK                            x       y       z     vdW  Elec       q    Type
REMARK                         _______ _______ _______ _____ _____    ______ ____
ROOT
ATOM      1  N   UNL     1       6.228  -7.737   9.621  0.00  0.00    +0.000 N 
ENDROOT
BRANCH   1   6
ATOM      2  C   UNL     1       8.922  -2.679   8.924  0.00  0.00    +0.000 C 
ATOM      3  C   UNL     1       8.232  -3.999   9.083  0.00  0.00    +0.000 A 
ATOM      4  C   UNL     1       6.935  -4.188   8.620  0.00  0.00    +0.000 A 
ATOM      5  C   UNL     1       6.282  -5.418   8.798  0.00  0.00    +0.000 A 
ATOM      6  C   UNL     1       6.877  -6.506   9.464  0.00  0.00    +0.000 A 
ATOM      7  C   UNL     1       8.190  -6.280   9.917  0.00  0.00    +0.000 A 
ATOM      8  C   UNL     1       8.855  -5.055   9.743  0.00  0.00    +0.000 A 
ENDBRANCH   1   6
BRANCH   1   9
ATOM      9  C   UNL     1       5.116  -8.112   8.715  0.00  0.00    +0.000 C 
BRANCH   9  10
ATOM     10  C   UNL     1       5.609  -8.595   7.329  0.00  0.00    +0.000 C 
ATOM     11  C   UNL     1       5.249 -10.058   7.101  0.00  0.00    +0.000 C 
BRANCH  10  12
ATOM     12  O   UNL     1       5.017  -7.823   6.274  0.00  0.00    +0.000 OA
ATOM     13  H   UNL     1       4.285  -7.308   6.652  0.00  0.00    +0.000 HD
ENDBRANCH  10  12
ENDBRANCH   9  10
ENDBRANCH   1   9
BRANCH   1  14
ATOM     14  C   UNL     1       6.240  -8.451  10.923  0.00  0.00    +0.000 C 
BRANCH  14  15
ATOM     15  C   UNL     1       7.408  -9.461  11.025  0.00  0.00    +0.000 C 
ATOM     16  C   UNL     1       7.577 -10.310   9.770  0.00  0.00    +0.000 C 
BRANCH  15  17
ATOM     17  O   UNL     1       8.649  -8.808  11.287  0.00  0.00    +0.000 OA
ATOM     18  H   UNL     1       8.715  -8.772  12.262  0.00  0.00    +0.000 HD
ENDBRANCH  15  17
ENDBRANCH  14  15
ENDBRANCH   1  14
TORSDOF 7
ENDMDL
