MODEL 1
REMARK VINA RESULT:    -4.826      0.000      0.000
REMARK INTER + INTRA:          -6.991
REMARK INTER:                  -6.519
REMARK INTRA:                  -0.472
REMARK UNBOUND:                -0.472
REMARK  Name = 
REMARK  10 active torsions:
REMARK  status: ('A' for Active; 'I' for Inactive)
REMARK    1  A    between atoms: C_1  and  C_2
REMARK    2  A    between atoms: C_5  and  N_8
REMARK    3  A    between atoms: N_8  and  C_9
REMARK    4  A    between atoms: N_8  and  C_13
REMARK    5  A    between atoms: C_9  and  C_10
REMARK    6  A    between atoms: C_10  and  C_11
REMARK    7  A    between atoms: C_10  and  O_12
REMARK    8  A    between atoms: C_13  and  C_14
REMARK    9  A    between atoms: C_14  and  C_15
REMARK   10  A    between atoms: C_14  and  O_16
REMARK                            x       y       z     vdW  Elec       q    Type
REMARK                         _______ _______ _______ _____ _____    ______ ____
ROOT
ATOM      1  N   UNL     1       6.094  16.599   0.062  0.00  0.00    +0.000 N 
ENDROOT
BRANCH   1   6
ATOM      2  C   UNL     1       7.598  20.091  -4.282  0.00  0.00    +0.000 C 
ATOM      3  C   UNL     1       7.230  19.174  -3.156  0.00  0.00    +0.000 A 
ATOM      4  C   UNL     1       6.583  17.967  -3.400  0.00  0.00    +0.000 A 
ATOM      5  C   UNL     1       6.214  17.125  -2.338  0.00  0.00    +0.000 A 
ATOM      6  C   UNL     1       6.448  17.452  -0.990  0.00  0.00    +0.000 A 
ATOM      7  C   UNL     1       7.105  18.679  -0.781  0.00  0.00    +0.000 A 
ATOM      8  C   UNL     1       7.482  19.529  -1.834  0.00  0.00    +0.000 A 
ENDBRANCH   1   6
BRANCH   1   9
ATOM      9  C   UNL     1       6.089  17.102   1.457  0.00  0.00    +0.000 C 
BRANCH   9  10
ATOM     10  C   UNL     1       4.661  17.346   2.002  0.00  0.00    +0.000 C 
ATOM     11  C   UNL     1       4.622  17.192   3.518  0.00  0.00    +0.000 C 
BRANCH  10  12
ATOM     12  O   UNL     1       4.205  18.667   1.678  0.00  0.00    +0.000 OA
ATOM     13  H   UNL     1       4.411  18.837   0.744  0.00  0.00    +0.000 HD
ENDBRANCH  10  12
ENDBRANCH   9  10
ENDBRANCH   1   9
BRANCH   1  14
ATOM     14  C   UNL     1       6.215  15.124  -0.069  0.00  0.00    +0.000 C 
BRANCH  14  15
ATOM     15  C   UNL     1       7.673  14.639   0.115  0.00  0.00    +0.000 C 
ATOM     16  C   UNL     1       7.828  13.617   1.236  0.00  0.00    +0.000 C 
BRANCH  15  17
ATOM     17  O   UNL     1       8.193  14.064  -1.082  0.00  0.00    +0.000 OA
ATOM     18  H   UNL     1       7.451  13.549  -1.458  0.00  0.00    +0.000 HD
ENDBRANCH  15  17
ENDBRANCH  14  15
ENDBRANCH   1  14
TORSDOF 7
ENDMDL
MODEL 2
REMARK VINA RESULT:    -4.803      3.256      5.969
REMARK INTER + INTRA:          -6.960
REMARK INTER:                  -6.327
REMARK INTRA:                  -0.634
REMARK UNBOUND:                -0.472
REMARK  Name = 
REMARK  10 active torsions:
REMARK  status: ('A' for Active; 'I' for Inactive)
REMARK    1  A    between atoms: C_1  and  C_2
REMARK    2  A    between atoms: C_5  and  N_8
REMARK    3  A    between atoms: N_8  and  C_9
REMARK    4  A    between atoms: N_8  and  C_13
REMARK    5  A    between atoms: C_9  and  C_10
REMARK    6  A    between atoms: C_10  and  C_11
REMARK    7  A    between atoms: C_10  and  O_12
REMARK    8  A    between atoms: C_13  and  C_14
REMARK    9  A    between atoms: C_14  and  C_15
REMARK   10  A    between atoms: C_14  and  O_16
REMARK                            x       y       z     vdW  Elec       q    Type
REMARK                         _______ _______ _______ _____ _____    ______ ____
ROOT
ATOM      1  N   UNL     1       6.296  14.452   1.981  0.00  0.00    +0.000 N 
ENDROOT
BRANCH   1   6
ATOM      2  C   UNL     1       2.639  17.089   5.586  0.00  0.00    +0.000 C 
ATOM      3  C   UNL     1       3.569  16.400   4.634  0.00  0.00    +0.000 A 
ATOM      4  C   UNL     1       3.825  15.038   4.746  0.00  0.00    +0.000 A 
ATOM      5  C   UNL     1       4.721  14.404   3.870  0.00  0.00    +0.000 A 
ATOM      6  C   UNL     1       5.419  15.094   2.863  0.00  0.00    +0.000 A 
ATOM      7  C   UNL     1       5.133  16.469   2.777  0.00  0.00    +0.000 A 
ATOM      8  C   UNL     1       4.238  17.116   3.645  0.00  0.00    +0.000 A 
ENDBRANCH   1   6
BRANCH   1   9
ATOM      9  C   UNL     1       5.988  14.402   0.531  0.00  0.00    +0.000 C 
BRANCH   9  10
ATOM     10  C   UNL     1       7.089  15.058  -0.339  0.00  0.00    +0.000 C 
ATOM     11  C   UNL     1       7.675  16.281   0.356  0.00  0.00    +0.000 C 
BRANCH  10  12
ATOM     12  O   UNL     1       8.158  14.138  -0.597  0.00  0.00    +0.000 OA
ATOM     13  H   UNL     1       8.118  13.435   0.072  0.00  0.00    +0.000 HD
ENDBRANCH  10  12
ENDBRANCH   9  10
ENDBRANCH   1   9
BRANCH   1  14
ATOM     14  C   UNL     1       7.232  13.401   2.456  0.00  0.00    +0.000 C 
BRANCH  14  15
ATOM     15  C   UNL     1       8.558  13.997   2.988  0.00  0.00    +0.000 C 
ATOM     16  C   UNL     1       8.997  13.394   4.317  0.00  0.00    +0.000 C 
BRANCH  15  17
ATOM     17  O   UNL     1       9.623  13.830   2.054  0.00  0.00    +0.000 OA
ATOM     18  H   UNL     1      10.094  14.688   2.051  0.00  0.00    +0.000 HD
ENDBRANCH  15  17
ENDBRANCH  14  15
ENDBRANCH   1  14
TORSDOF 7
ENDMDL
MODEL 3
REMARK VINA RESULT:    -4.775      2.979      5.937
REMARK INTER + INTRA:          -6.922
REMARK INTER:                  -6.318
REMARK INTRA:                  -0.604
REMARK UNBOUND:                -0.472
REMARK  Name = 
REMARK  10 active torsions:
REMARK  status: ('A' for Active; 'I' for Inactive)
REMARK    1  A    between atoms: C_1  and  C_2
REMARK    2  A    between atoms: C_5  and  N_8
REMARK    3  A    between atoms: N_8  and  C_9
REMARK    4  A    between atoms: N_8  and  C_13
REMARK    5  A    between atoms: C_9  and  C_10
REMARK    6  A    between atoms: C_10  and  C_11
REMARK    7  A    between atoms: C_10  and  O_12
REMARK    8  A    between atoms: C_13  and  C_14
REMARK    9  A    between atoms: C_14  and  C_15
REMARK   10  A    between atoms: C_14  and  O_16
REMARK                            x       y       z     vdW  Elec       q    Type
REMARK                         _______ _______ _______ _____ _____    ______ ____
ROOT
ATOM      1  N   UNL     1       6.605  14.637   1.573  0.00  0.00    +0.000 N 
ENDROOT
BRANCH   1   6
ATOM      2  C   UNL     1       2.811  16.850   5.319  0.00  0.00    +0.000 C 
ATOM      3  C   UNL     1       3.777  16.273   4.330  0.00  0.00    +0.000 A 
ATOM      4  C   UNL     1       4.060  14.911   4.320  0.00  0.00    +0.000 A 
ATOM      5  C   UNL     1       4.989  14.380   3.410  0.00  0.00    +0.000 A 
ATOM      6  C   UNL     1       5.694  15.176   2.490  0.00  0.00    +0.000 A 
ATOM      7  C   UNL     1       5.382  16.547   2.528  0.00  0.00    +0.000 A 
ATOM      8  C   UNL     1       4.453  17.092   3.430  0.00  0.00    +0.000 A 
ENDBRANCH   1   6
BRANCH   1   9
ATOM      9  C   UNL     1       7.512  13.538   1.984  0.00  0.00    +0.000 C 
BRANCH   9  10
ATOM     10  C   UNL     1       8.713  14.035   2.824  0.00  0.00    +0.000 C 
ATOM     11  C   UNL     1       8.727  13.376   4.199  0.00  0.00    +0.000 C 
BRANCH  10  12
ATOM     12  O   UNL     1       9.956  13.733   2.174  0.00  0.00    +0.000 OA
ATOM     13  H   UNL     1       9.839  12.913   1.666  0.00  0.00    +0.000 HD
ENDBRANCH  10  12
ENDBRANCH   9  10
ENDBRANCH   1   9
BRANCH   1  14
ATOM     14  C   UNL     1       7.064  15.418   0.395  0.00  0.00    +0.000 C 
BRANCH  14  15
ATOM     15  C   UNL     1       6.237  15.101  -0.874  0.00  0.00    +0.000 C 
ATOM     16  C   UNL     1       5.199  16.170  -1.195  0.00  0.00    +0.000 C 
BRANCH  15  17
ATOM     17  O   UNL     1       7.071  14.937  -2.020  0.00  0.00    +0.000 OA
ATOM     18  H   UNL     1       7.718  14.249  -1.765  0.00  0.00    +0.000 HD
ENDBRANCH  15  17
ENDBRANCH  14  15
ENDBRANCH   1  14
TORSDOF 7
ENDMDL
MODEL 4
REMARK VINA RESULT:    -4.752      2.249      3.320
REMARK INTER + INTRA:          -6.891
REMARK INTER:                  -6.361
REMARK INTRA:                  -0.530
REMARK UNBOUND:                -0.472
REMARK  Name = 
REMARK  10 active torsions:
REMARK  status: ('A' for Active; 'I' for Inactive)
REMARK    1  A    between atoms: C_1  and  C_2
REMARK    2  A    between atoms: C_5  and  N_8
REMARK    3  A    between atoms: N_8  and  C_9
REMARK    4  A    between atoms: N_8  and  C_13
REMARK    5  A    between atoms: C_9  and  C_10
REMARK    6  A    between atoms: C_10  and  C_11
REMARK    7  A    between atoms: C_10  and  O_12
REMARK    8  A    between atoms: C_13  and  C_14
REMARK    9  A    between atoms: C_14  and  C_15
REMARK   10  A    between atoms: C_14  and  O_16
REMARK                            x       y       z     vdW  Elec       q    Type
REMARK                         _______ _______ _______ _____ _____    ______ ____
ROOT
ATOM      1  N   UNL     1       6.825  18.043  -0.867  0.00  0.00    +0.000 N 
ENDROOT
BRANCH   1   6
ATOM      2  C   UNL     1       7.440  20.575  -6.019  0.00  0.00    +0.000 C 
ATOM      3  C   UNL     1       7.258  19.930  -4.679  0.00  0.00    +0.000 A 
ATOM      4  C   UNL     1       7.771  20.518  -3.528  0.00  0.00    +0.000 A 
ATOM      5  C   UNL     1       7.624  19.893  -2.278  0.00  0.00    +0.000 A 
ATOM      6  C   UNL     1       6.985  18.651  -2.119  0.00  0.00    +0.000 A 
ATOM      7  C   UNL     1       6.477  18.086  -3.303  0.00  0.00    +0.000 A 
ATOM      8  C   UNL     1       6.615  18.701  -4.559  0.00  0.00    +0.000 A 
ENDBRANCH   1   6
BRANCH   1   9
ATOM      9  C   UNL     1       5.886  16.907  -0.707  0.00  0.00    +0.000 C 
BRANCH   9  10
ATOM     10  C   UNL     1       6.610  15.557  -0.481  0.00  0.00    +0.000 C 
ATOM     11  C   UNL     1       5.728  14.590   0.299  0.00  0.00    +0.000 C 
BRANCH  10  12
ATOM     12  O   UNL     1       6.949  14.940  -1.731  0.00  0.00    +0.000 OA
ATOM     13  H   UNL     1       7.687  15.436  -2.122  0.00  0.00    +0.000 HD
ENDBRANCH  10  12
ENDBRANCH   9  10
ENDBRANCH   1   9
BRANCH   1  14
ATOM     14  C   UNL     1       7.143  18.772   0.388  0.00  0.00    +0.000 C 
BRANCH  14  15
ATOM     15  C   UNL     1       8.507  18.344   0.982  0.00  0.00    +0.000 C 
ATOM     16  C   UNL     1       8.372  17.432   2.195  0.00  0.00    +0.000 C 
BRANCH  15  17
ATOM     17  O   UNL     1       9.317  17.676   0.015  0.00  0.00    +0.000 OA
ATOM     18  H   UNL     1       9.988  17.194   0.538  0.00  0.00    +0.000 HD
ENDBRANCH  15  17
ENDBRANCH  14  15
ENDBRANCH   1  14
TORSDOF 7
ENDMDL
MODEL 5
REMARK VINA RESULT:    -4.729      0.702      3.400
REMARK INTER + INTRA:          -6.861
REMARK INTER:                  -6.352
REMARK INTRA:                  -0.508
REMARK UNBOUND:                -0.472
REMARK  Name = 
REMARK  10 active torsions:
REMARK  status: ('A' for Active; 'I' for Inactive)
REMARK    1  A    between atoms: C_1  and  C_2
REMARK    2  A    between atoms: C_5  and  N_8
REMARK    3  A    between atoms: N_8  and  C_9
REMARK    4  A    between atoms: N_8  and  C_13
REMARK    5  A    between atoms: C_9  and  C_10
REMARK    6  A    between atoms: C_10  and  C_11
REMARK    7  A    between atoms: C_10  and  O_12
REMARK    8  A    between atoms: C_13  and  C_14
REMARK    9  A    between atoms: C_14  and  C_15
REMARK   10  A    between atoms: C_14  and  O_16
REMARK                            x       y       z     vdW  Elec       q    Type
REMARK                         _______ _______ _______ _____ _____    ______ ____
ROOT
ATOM      1  N   UNL     1       6.585  17.233  -0.254  0.00  0.00    +0.000 N 
ENDROOT
BRANCH   1   6
ATOM      2  C   UNL     1       7.087  20.495  -4.990  0.00  0.00    +0.000 C 
ATOM      3  C   UNL     1       6.981  19.641  -3.764  0.00  0.00    +0.000 A 
ATOM      4  C   UNL     1       6.526  18.329  -3.844  0.00  0.00    +0.000 A 
ATOM      5  C   UNL     1       6.399  17.543  -2.688  0.00  0.00    +0.000 A 
ATOM      6  C   UNL     1       6.695  18.028  -1.401  0.00  0.00    +0.000 A 
ATOM      7  C   UNL     1       7.154  19.358  -1.358  0.00  0.00    +0.000 A 
ATOM      8  C   UNL     1       7.288  20.154  -2.507  0.00  0.00    +0.000 A 
ENDBRANCH   1   6
BRANCH   1   9
ATOM      9  C   UNL     1       6.349  15.774  -0.381  0.00  0.00    +0.000 C 
BRANCH   9  10
ATOM     10  C   UNL     1       7.552  14.927   0.103  0.00  0.00    +0.000 C 
ATOM     11  C   UNL     1       7.120  13.929   1.171  0.00  0.00    +0.000 C 
BRANCH  10  12
ATOM     12  O   UNL     1       8.134  14.193  -0.982  0.00  0.00    +0.000 OA
ATOM     13  H   UNL     1       8.967  14.628  -1.228  0.00  0.00    +0.000 HD
ENDBRANCH  10  12
ENDBRANCH   9  10
ENDBRANCH   1   9
BRANCH   1  14
ATOM     14  C   UNL     1       6.190  17.818   1.053  0.00  0.00    +0.000 C 
BRANCH  14  15
ATOM     15  C   UNL     1       4.798  17.325   1.517  0.00  0.00    +0.000 C 
ATOM     16  C   UNL     1       4.812  16.721   2.916  0.00  0.00    +0.000 C 
BRANCH  15  17
ATOM     17  O   UNL     1       3.834  18.376   1.498  0.00  0.00    +0.000 OA
ATOM     18  H   UNL     1       3.331  18.244   0.669  0.00  0.00    +0.000 HD
ENDBRANCH  15  17
ENDBRANCH  14  15
ENDBRANCH   1  14
TORSDOF 7
ENDMDL
MODEL 6
REMARK VINA RESULT:    -4.660      2.011      2.469
REMARK INTER + INTRA:          -6.766
REMARK INTER:                  -6.215
REMARK INTRA:                  -0.552
REMARK UNBOUND:                -0.472
REMARK  Name = 
REMARK  10 active torsions:
REMARK  status: ('A' for Active; 'I' for Inactive)
REMARK    1  A    between atoms: C_1  and  C_2
REMARK    2  A    between atoms: C_5  and  N_8
REMARK    3  A    between atoms: N_8  and  C_9
REMARK    4  A    between atoms: N_8  and  C_13
REMARK    5  A    between atoms: C_9  and  C_10
REMARK    6  A    between atoms: C_10  and  C_11
REMARK    7  A    between atoms: C_10  and  O_12
REMARK    8  A    between atoms: C_13  and  C_14
REMARK    9  A    between atoms: C_14  and  C_15
REMARK   10  A    between atoms: C_14  and  O_16
REMARK                            x       y       z     vdW  Elec       q    Type
REMARK                         _______ _______ _______ _____ _____    ______ ____
ROOT
ATOM      1  N   UNL     1       5.502  15.199   1.440  0.00  0.00    +0.000 N 
ENDROOT
BRANCH   1   6
ATOM      2  C   UNL     1       7.005  19.185  -2.457  0.00  0.00    +0.000 C 
ATOM      3  C   UNL     1       6.638  18.141  -1.447  0.00  0.00    +0.000 A 
ATOM      4  C   UNL     1       6.091  16.925  -1.842  0.00  0.00    +0.000 A 
ATOM      5  C   UNL     1       5.721  15.962  -0.889  0.00  0.00    +0.000 A 
ATOM      6  C   UNL     1       5.855  16.171   0.496  0.00  0.00    +0.000 A 
ATOM      7  C   UNL     1       6.413  17.411   0.859  0.00  0.00    +0.000 A 
ATOM      8  C   UNL     1       6.789  18.381  -0.084  0.00  0.00    +0.000 A 
ENDBRANCH   1   6
BRANCH   1   9
ATOM      9  C   UNL     1       4.920  15.604   2.742  0.00  0.00    +0.000 C 
BRANCH   9  10
ATOM     10  C   UNL     1       5.120  14.538   3.847  0.00  0.00    +0.000 C 
ATOM     11  C   UNL     1       5.963  15.089   4.990  0.00  0.00    +0.000 C 
BRANCH  10  12
ATOM     12  O   UNL     1       3.861  14.114   4.387  0.00  0.00    +0.000 OA
ATOM     13  H   UNL     1       4.035  13.625   5.208  0.00  0.00    +0.000 HD
ENDBRANCH  10  12
ENDBRANCH   9  10
ENDBRANCH   1   9
BRANCH   1  14
ATOM     14  C   UNL     1       6.129  13.852   1.428  0.00  0.00    +0.000 C 
BRANCH  14  15
ATOM     15  C   UNL     1       7.661  13.923   1.224  0.00  0.00    +0.000 C 
ATOM     16  C   UNL     1       8.451  13.492   2.454  0.00  0.00    +0.000 C 
BRANCH  15  17
ATOM     17  O   UNL     1       8.084  13.119   0.124  0.00  0.00    +0.000 OA
ATOM     18  H   UNL     1       7.396  13.244  -0.560  0.00  0.00    +0.000 HD
ENDBRANCH  15  17
ENDBRANCH  14  15
ENDBRANCH   1  14
TORSDOF 7
ENDMDL
MODEL 7
REMARK VINA RESULT:    -4.642      2.228      3.057
REMARK INTER + INTRA:          -6.742
REMARK INTER:                  -6.046
REMARK INTRA:                  -0.696
REMARK UNBOUND:                -0.472
REMARK  Name = 
REMARK  10 active torsions:
REMARK  status: ('A' for Active; 'I' for Inactive)
REMARK    1  A    between atoms: C_1  and  C_2
REMARK    2  A    between atoms: C_5  and  N_8
REMARK    3  A    between atoms: N_8  and  C_9
REMARK    4  A    between atoms: N_8  and  C_13
REMARK    5  A    between atoms: C_9  and  C_10
REMARK    6  A    between atoms: C_10  and  C_11
REMARK    7  A    between atoms: C_10  and  O_12
REMARK    8  A    between atoms: C_13  and  C_14
REMARK    9  A    between atoms: C_14  and  C_15
REMARK   10  A    between atoms: C_14  and  O_16
REMARK                            x       y       z     vdW  Elec       q    Type
REMARK                         _______ _______ _______ _____ _____    ______ ____
ROOT
ATOM      1  N   UNL     1       6.610  16.396   0.468  0.00  0.00    +0.000 N 
ENDROOT
BRANCH   1   6
ATOM      2  C   UNL     1       9.588  21.064  -1.165  0.00  0.00    +0.000 C 
ATOM      3  C   UNL     1       8.801  19.867  -0.726  0.00  0.00    +0.000 A 
ATOM      4  C   UNL     1       9.218  19.095   0.353  0.00  0.00    +0.000 A 
ATOM      5  C   UNL     1       8.492  17.957   0.741  0.00  0.00    +0.000 A 
ATOM      6  C   UNL     1       7.339  17.521   0.064  0.00  0.00    +0.000 A 
ATOM      7  C   UNL     1       6.947  18.327  -1.021  0.00  0.00    +0.000 A 
ATOM      8  C   UNL     1       7.661  19.469  -1.418  0.00  0.00    +0.000 A 
ENDBRANCH   1   6
BRANCH   1   9
ATOM      9  C   UNL     1       5.159  16.306   0.177  0.00  0.00    +0.000 C 
BRANCH   9  10
ATOM     10  C   UNL     1       4.824  15.225  -0.879  0.00  0.00    +0.000 C 
ATOM     11  C   UNL     1       3.684  15.679  -1.782  0.00  0.00    +0.000 C 
BRANCH  10  12
ATOM     12  O   UNL     1       5.961  14.945  -1.707  0.00  0.00    +0.000 OA
ATOM     13  H   UNL     1       5.888  14.028  -2.020  0.00  0.00    +0.000 HD
ENDBRANCH  10  12
ENDBRANCH   9  10
ENDBRANCH   1   9
BRANCH   1  14
ATOM     14  C   UNL     1       7.076  15.540   1.589  0.00  0.00    +0.000 C 
BRANCH  14  15
ATOM     15  C   UNL     1       8.128  14.501   1.133  0.00  0.00    +0.000 C 
ATOM     16  C   UNL     1       8.868  13.847   2.294  0.00  0.00    +0.000 C 
BRANCH  15  17
ATOM     17  O   UNL     1       7.541  13.467   0.345  0.00  0.00    +0.000 OA
ATOM     18  H   UNL     1       6.631  13.775   0.160  0.00  0.00    +0.000 HD
ENDBRANCH  15  17
ENDBRANCH  14  15
ENDBRANCH   1  14
TORSDOF 7
ENDMDL
MODEL 8
REMARK VINA RESULT:    -4.583      2.502      5.886
REMARK INTER + INTRA:          -6.663
REMARK INTER:                  -5.926
REMARK INTRA:                  -0.737
REMARK UNBOUND:                -0.472
REMARK  Name = 
REMARK  10 active torsions:
REMARK  status: ('A' for Active; 'I' for Inactive)
REMARK    1  A    between atoms: C_1  and  C_2
REMARK    2  A    between atoms: C_5  and  N_8
REMARK    3  A    between atoms: N_8  and  C_9
REMARK    4  A    between atoms: N_8  and  C_13
REMARK    5  A    between atoms: C_9  and  C_10
REMARK    6  A    between atoms: C_10  and  C_11
REMARK    7  A    between atoms: C_10  and  O_12
REMARK    8  A    between atoms: C_13  and  C_14
REMARK    9  A    between atoms: C_14  and  C_15
REMARK   10  A    between atoms: C_14  and  O_16
REMARK                            x       y       z     vdW  Elec       q    Type
REMARK                         _______ _______ _______ _____ _____    ______ ____
ROOT
ATOM      1  N   UNL     1       6.467  15.995   1.154  0.00  0.00    +0.000 N 
ENDROOT
BRANCH   1   6
ATOM      2  C   UNL     1       7.741  12.396   5.484  0.00  0.00    +0.000 C 
ATOM      3  C   UNL     1       7.386  13.325   4.364  0.00  0.00    +0.000 A 
ATOM      4  C   UNL     1       7.320  12.870   3.052  0.00  0.00    +0.000 A 
ATOM      5  C   UNL     1       7.016  13.752   2.002  0.00  0.00    +0.000 A 
ATOM      6  C   UNL     1       6.788  15.125   2.203  0.00  0.00    +0.000 A 
ATOM      7  C   UNL     1       6.861  15.550   3.543  0.00  0.00    +0.000 A 
ATOM      8  C   UNL     1       7.161  14.678   4.602  0.00  0.00    +0.000 A 
ENDBRANCH   1   6
BRANCH   1   9
ATOM      9  C   UNL     1       6.798  17.437   1.256  0.00  0.00    +0.000 C 
BRANCH   9  10
ATOM     10  C   UNL     1       8.237  17.757   0.784  0.00  0.00    +0.000 C 
ATOM     11  C   UNL     1       9.078  18.303   1.932  0.00  0.00    +0.000 C 
BRANCH  10  12
ATOM     12  O   UNL     1       8.886  16.582   0.278  0.00  0.00    +0.000 OA
ATOM     13  H   UNL     1       9.345  16.149   1.018  0.00  0.00    +0.000 HD
ENDBRANCH  10  12
ENDBRANCH   9  10
ENDBRANCH   1   9
BRANCH   1  14
ATOM     14  C   UNL     1       5.385  15.669   0.189  0.00  0.00    +0.000 C 
BRANCH  14  15
ATOM     15  C   UNL     1       5.928  15.441  -1.242  0.00  0.00    +0.000 C 
ATOM     16  C   UNL     1       6.004  16.721  -2.066  0.00  0.00    +0.000 C 
BRANCH  15  17
ATOM     17  O   UNL     1       7.226  14.849  -1.225  0.00  0.00    +0.000 OA
ATOM     18  H   UNL     1       7.847  15.597  -1.334  0.00  0.00    +0.000 HD
ENDBRANCH  15  17
ENDBRANCH  14  15
ENDBRANCH   1  14
TORSDOF 7
ENDMDL
MODEL 9
REMARK VINA RESULT:    -4.542      2.467      5.114
REMARK INTER + INTRA:          -6.607
REMARK INTER:                  -6.186
REMARK INTRA:                  -0.422
REMARK UNBOUND:                -0.472
REMARK  Name = 
REMARK  10 active torsions:
REMARK  status: ('A' for Active; 'I' for Inactive)
REMARK    1  A    between atoms: C_1  and  C_2
REMARK    2  A    between atoms: C_5  and  N_8
REMARK    3  A    between atoms: N_8  and  C_9
REMARK    4  A    between atoms: N_8  and  C_13
REMARK    5  A    between atoms: C_9  and  C_10
REMARK    6  A    between atoms: C_10  and  C_11
REMARK    7  A    between atoms: C_10  and  O_12
REMARK    8  A    between atoms: C_13  and  C_14
REMARK    9  A    between atoms: C_14  and  C_15
REMARK   10  A    between atoms: C_14  and  O_16
REMARK                            x       y       z     vdW  Elec       q    Type
REMARK                         _______ _______ _______ _____ _____    ______ ____
ROOT
ATOM      1  N   UNL     1       6.982  18.278  -1.659  0.00  0.00    +0.000 N 
ENDROOT
BRANCH   1   6
ATOM      2  C   UNL     1       7.648  19.007   4.029  0.00  0.00    +0.000 C 
ATOM      3  C   UNL     1       7.485  18.841   2.549  0.00  0.00    +0.000 A 
ATOM      4  C   UNL     1       6.302  19.207   1.915  0.00  0.00    +0.000 A 
ATOM      5  C   UNL     1       6.144  19.021   0.532  0.00  0.00    +0.000 A 
ATOM      6  C   UNL     1       7.139  18.443  -0.277  0.00  0.00    +0.000 A 
ATOM      7  C   UNL     1       8.321  18.087   0.397  0.00  0.00    +0.000 A 
ATOM      8  C   UNL     1       8.494  18.269   1.779  0.00  0.00    +0.000 A 
ENDBRANCH   1   6
BRANCH   1   9
ATOM      9  C   UNL     1       7.279  19.402  -2.580  0.00  0.00    +0.000 C 
BRANCH   9  10
ATOM     10  C   UNL     1       7.194  18.993  -4.071  0.00  0.00    +0.000 C 
ATOM     11  C   UNL     1       6.608  20.121  -4.912  0.00  0.00    +0.000 C 
BRANCH  10  12
ATOM     12  O   UNL     1       8.492  18.677  -4.593  0.00  0.00    +0.000 OA
ATOM     13  H   UNL     1       8.377  18.053  -5.329  0.00  0.00    +0.000 HD
ENDBRANCH  10  12
ENDBRANCH   9  10
ENDBRANCH   1   9
BRANCH   1  14
ATOM     14  C   UNL     1       6.072  17.242  -2.211  0.00  0.00    +0.000 C 
BRANCH  14  15
ATOM     15  C   UNL     1       6.211  15.889  -1.473  0.00  0.00    +0.000 C 
ATOM     16  C   UNL     1       4.869  15.263  -1.111  0.00  0.00    +0.000 C 
BRANCH  15  17
ATOM     17  O   UNL     1       6.948  14.941  -2.243  0.00  0.00    +0.000 OA
ATOM     18  H   UNL     1       6.638  14.067  -1.933  0.00  0.00    +0.000 HD
ENDBRANCH  15  17
ENDBRANCH  14  15
ENDBRANCH   1  14
TORSDOF 7
ENDMDL
