MODEL 1
REMARK VINA RESULT:    -4.760      0.000      0.000
REMARK INTER + INTRA:          -7.033
REMARK INTER:                  -6.430
REMARK INTRA:                  -0.603
REMARK UNBOUND:                -0.603
REMARK  Name = 
REMARK  10 active torsions:
REMARK  status: ('A' for Active; 'I' for Inactive)
REMARK    1  A    between atoms: C_1  and  C_2
REMARK    2  A    between atoms: C_5  and  N_8
REMARK    3  A    between atoms: N_8  and  C_9
REMARK    4  A    between atoms: N_8  and  C_13
REMARK    5  A    between atoms: C_9  and  C_10
REMARK    6  A    between atoms: C_10  and  C_11
REMARK    7  A    between atoms: C_10  and  O_12
REMARK    8  A    between atoms: C_13  and  C_14
REMARK    9  A    between atoms: C_14  and  C_15
REMARK   10  A    between atoms: C_14  and  O_16
REMARK                            x       y       z     vdW  Elec       q    Type
REMARK                         _______ _______ _______ _____ _____    ______ ____
ROOT
ATOM      1  N   UNL     1       6.605  14.663   1.429  0.00  0.00    +0.000 N 
ENDROOT
BRANCH   1   6
ATOM      2  C   UNL     1       2.847  16.783   5.265  0.00  0.00    +0.000 C 
ATOM      3  C   UNL     1       3.841  16.236   4.286  0.00  0.00    +0.000 A 
ATOM      4  C   UNL     1       4.459  17.066   3.357  0.00  0.00    +0.000 A 
ATOM      5  C   UNL     1       5.367  16.543   2.422  0.00  0.00    +0.000 A 
ATOM      6  C   UNL     1       5.684  15.175   2.352  0.00  0.00    +0.000 A 
ATOM      7  C   UNL     1       5.042  14.365   3.307  0.00  0.00    +0.000 A 
ATOM      8  C   UNL     1       4.133  14.876   4.249  0.00  0.00    +0.000 A 
ENDBRANCH   1   6
BRANCH   1   9
ATOM      9  C   UNL     1       7.523  13.568   1.825  0.00  0.00    +0.000 C 
BRANCH   9  10
ATOM     10  C   UNL     1       8.696  14.058   2.709  0.00  0.00    +0.000 C 
ATOM     11  C   UNL     1       8.655  13.399   4.083  0.00  0.00    +0.000 C 
BRANCH  10  12
ATOM     12  O   UNL     1       9.960  13.750   2.106  0.00  0.00    +0.000 OA
ATOM     13  H   UNL     1       9.982  12.796   1.925  0.00  0.00    +0.000 HD
ENDBRANCH  10  12
ENDBRANCH   9  10
ENDBRANCH   1   9
BRANCH   1  14
ATOM     14  C   UNL     1       7.060  15.470   0.268  0.00  0.00    +0.000 C 
BRANCH  14  15
ATOM     15  C   UNL     1       6.247  15.162  -1.012  0.00  0.00    +0.000 C 
ATOM     16  C   UNL     1       5.264  16.267  -1.379  0.00  0.00    +0.000 C 
BRANCH  15  17
ATOM     17  O   UNL     1       7.098  14.937  -2.135  0.00  0.00    +0.000 OA
ATOM     18  H   UNL     1       7.456  15.819  -2.362  0.00  0.00    +0.000 HD
ENDBRANCH  15  17
ENDBRANCH  14  15
ENDBRANCH   1  14
TORSDOF 7
ENDMDL
MODEL 2
REMARK VINA RESULT:    -4.676      3.229      6.065
REMARK INTER + INTRA:          -6.919
REMARK INTER:                  -6.408
REMARK INTRA:                  -0.511
REMARK UNBOUND:                -0.603
REMARK  Name = 
REMARK  10 active torsions:
REMARK  status: ('A' for Active; 'I' for Inactive)
REMARK    1  A    between atoms: C_1  and  C_2
REMARK    2  A    between atoms: C_5  and  N_8
REMARK    3  A    between atoms: N_8  and  C_9
REMARK    4  A    between atoms: N_8  and  C_13
REMARK    5  A    between atoms: C_9  and  C_10
REMARK    6  A    between atoms: C_10  and  C_11
REMARK    7  A    between atoms: C_10  and  O_12
REMARK    8  A    between atoms: C_13  and  C_14
REMARK    9  A    between atoms: C_14  and  C_15
REMARK   10  A    between atoms: C_14  and  O_16
REMARK                            x       y       z     vdW  Elec       q    Type
REMARK                         _______ _______ _______ _____ _____    ______ ____
ROOT
ATOM      1  N   UNL     1       6.659  17.199  -0.247  0.00  0.00    +0.000 N 
ENDROOT
BRANCH   1   6
ATOM      2  C   UNL     1       7.004  20.587  -4.909  0.00  0.00    +0.000 C 
ATOM      3  C   UNL     1       6.938  19.702  -3.702  0.00  0.00    +0.000 A 
ATOM      4  C   UNL     1       6.548  18.371  -3.812  0.00  0.00    +0.000 A 
ATOM      5  C   UNL     1       6.459  17.554  -2.673  0.00  0.00    +0.000 A 
ATOM      6  C   UNL     1       6.730  18.025  -1.376  0.00  0.00    +0.000 A 
ATOM      7  C   UNL     1       7.124  19.373  -1.302  0.00  0.00    +0.000 A 
ATOM      8  C   UNL     1       7.219  20.201  -2.433  0.00  0.00    +0.000 A 
ENDBRANCH   1   6
BRANCH   1   9
ATOM      9  C   UNL     1       6.426  15.743  -0.404  0.00  0.00    +0.000 C 
BRANCH   9  10
ATOM     10  C   UNL     1       7.600  14.887   0.130  0.00  0.00    +0.000 C 
ATOM     11  C   UNL     1       7.118  13.900   1.187  0.00  0.00    +0.000 C 
BRANCH  10  12
ATOM     12  O   UNL     1       8.216  14.139  -0.928  0.00  0.00    +0.000 OA
ATOM     13  H   UNL     1       8.740  14.755  -1.466  0.00  0.00    +0.000 HD
ENDBRANCH  10  12
ENDBRANCH   9  10
ENDBRANCH   1   9
BRANCH   1  14
ATOM     14  C   UNL     1       6.299  17.748   1.086  0.00  0.00    +0.000 C 
BRANCH  14  15
ATOM     15  C   UNL     1       4.869  17.344   1.518  0.00  0.00    +0.000 C 
ATOM     16  C   UNL     1       4.832  16.601   2.848  0.00  0.00    +0.000 C 
BRANCH  15  17
ATOM     17  O   UNL     1       4.010  18.478   1.621  0.00  0.00    +0.000 OA
ATOM     18  H   UNL     1       3.452  18.447   0.818  0.00  0.00    +0.000 HD
ENDBRANCH  15  17
ENDBRANCH  14  15
ENDBRANCH   1  14
TORSDOF 7
ENDMDL
MODEL 3
REMARK VINA RESULT:    -4.671      0.551      3.683
REMARK INTER + INTRA:          -6.912
REMARK INTER:                  -6.280
REMARK INTRA:                  -0.632
REMARK UNBOUND:                -0.603
REMARK  Name = 
REMARK  10 active torsions:
REMARK  status: ('A' for Active; 'I' for Inactive)
REMARK    1  A    between atoms: C_1  and  C_2
REMARK    2  A    between atoms: C_5  and  N_8
REMARK    3  A    between atoms: N_8  and  C_9
REMARK    4  A    between atoms: N_8  and  C_13
REMARK    5  A    between atoms: C_9  and  C_10
REMARK    6  A    between atoms: C_10  and  C_11
REMARK    7  A    between atoms: C_10  and  O_12
REMARK    8  A    between atoms: C_13  and  C_14
REMARK    9  A    between atoms: C_14  and  C_15
REMARK   10  A    between atoms: C_14  and  O_16
REMARK                            x       y       z     vdW  Elec       q    Type
REMARK                         _______ _______ _______ _____ _____    ______ ____
ROOT
ATOM      1  N   UNL     1       7.205  15.218   1.766  0.00  0.00    +0.000 N 
ENDROOT
BRANCH   1   6
ATOM      2  C   UNL     1       2.731  16.091   5.309  0.00  0.00    +0.000 C 
ATOM      3  C   UNL     1       3.907  15.863   4.410  0.00  0.00    +0.000 A 
ATOM      4  C   UNL     1       4.617  16.934   3.876  0.00  0.00    +0.000 A 
ATOM      5  C   UNL     1       5.700  16.715   3.010  0.00  0.00    +0.000 A 
ATOM      6  C   UNL     1       6.112  15.429   2.616  0.00  0.00    +0.000 A 
ATOM      7  C   UNL     1       5.374  14.370   3.176  0.00  0.00    +0.000 A 
ATOM      8  C   UNL     1       4.290  14.575   4.045  0.00  0.00    +0.000 A 
ENDBRANCH   1   6
BRANCH   1   9
ATOM      9  C   UNL     1       7.260  15.886   0.444  0.00  0.00    +0.000 C 
BRANCH   9  10
ATOM     10  C   UNL     1       6.279  15.268  -0.582  0.00  0.00    +0.000 C 
ATOM     11  C   UNL     1       5.110  16.209  -0.854  0.00  0.00    +0.000 C 
BRANCH  10  12
ATOM     12  O   UNL     1       6.936  15.004  -1.829  0.00  0.00    +0.000 OA
ATOM     13  H   UNL     1       6.467  15.491  -2.526  0.00  0.00    +0.000 HD
ENDBRANCH  10  12
ENDBRANCH   9  10
ENDBRANCH   1   9
BRANCH   1  14
ATOM     14  C   UNL     1       8.046  13.999   1.885  0.00  0.00    +0.000 C 
BRANCH  14  15
ATOM     15  C   UNL     1       9.137  14.146   2.973  0.00  0.00    +0.000 C 
ATOM     16  C   UNL     1       8.836  13.348   4.236  0.00  0.00    +0.000 C 
BRANCH  15  17
ATOM     17  O   UNL     1      10.419  13.744   2.492  0.00  0.00    +0.000 OA
ATOM     18  H   UNL     1      10.988  13.708   3.287  0.00  0.00    +0.000 HD
ENDBRANCH  15  17
ENDBRANCH  14  15
ENDBRANCH   1  14
TORSDOF 7
ENDMDL
MODEL 4
REMARK VINA RESULT:    -4.648      2.973      5.963
REMARK INTER + INTRA:          -6.881
REMARK INTER:                  -6.433
REMARK INTRA:                  -0.448
REMARK UNBOUND:                -0.603
REMARK  Name = 
REMARK  10 active torsions:
REMARK  status: ('A' for Active; 'I' for Inactive)
REMARK    1  A    between atoms: C_1  and  C_2
REMARK    2  A    between atoms: C_5  and  N_8
REMARK    3  A    between atoms: N_8  and  C_9
REMARK    4  A    between atoms: N_8  and  C_13
REMARK    5  A    between atoms: C_9  and  C_10
REMARK    6  A    between atoms: C_10  and  C_11
REMARK    7  A    between atoms: C_10  and  O_12
REMARK    8  A    between atoms: C_13  and  C_14
REMARK    9  A    between atoms: C_14  and  C_15
REMARK   10  A    between atoms: C_14  and  O_16
REMARK                            x       y       z     vdW  Elec       q    Type
REMARK                         _______ _______ _______ _____ _____    ______ ____
ROOT
ATOM      1  N   UNL     1       6.142  16.729   0.081  0.00  0.00    +0.000 N 
ENDROOT
BRANCH   1   6
ATOM      2  C   UNL     1       7.821  20.028  -4.348  0.00  0.00    +0.000 C 
ATOM      3  C   UNL     1       7.364  19.185  -3.198  0.00  0.00    +0.000 A 
ATOM      4  C   UNL     1       7.696  19.521  -1.890  0.00  0.00    +0.000 A 
ATOM      5  C   UNL     1       7.290  18.711  -0.817  0.00  0.00    +0.000 A 
ATOM      6  C   UNL     1       6.560  17.522  -0.995  0.00  0.00    +0.000 A 
ATOM      7  C   UNL     1       6.240  17.215  -2.330  0.00  0.00    +0.000 A 
ATOM      8  C   UNL     1       6.637  18.018  -3.412  0.00  0.00    +0.000 A 
ENDBRANCH   1   6
BRANCH   1   9
ATOM      9  C   UNL     1       6.060  17.307   1.444  0.00  0.00    +0.000 C 
BRANCH   9  10
ATOM     10  C   UNL     1       4.615  17.331   2.000  0.00  0.00    +0.000 C 
ATOM     11  C   UNL     1       4.603  17.053   3.498  0.00  0.00    +0.000 C 
BRANCH  10  12
ATOM     12  O   UNL     1       3.999  18.607   1.780  0.00  0.00    +0.000 OA
ATOM     13  H   UNL     1       3.994  19.089   2.624  0.00  0.00    +0.000 HD
ENDBRANCH  10  12
ENDBRANCH   9  10
ENDBRANCH   1   9
BRANCH   1  14
ATOM     14  C   UNL     1       6.262  15.249   0.037  0.00  0.00    +0.000 C 
BRANCH  14  15
ATOM     15  C   UNL     1       7.733  14.779   0.136  0.00  0.00    +0.000 C 
ATOM     16  C   UNL     1       7.974  13.796   1.275  0.00  0.00    +0.000 C 
BRANCH  15  17
ATOM     17  O   UNL     1       8.173  14.167  -1.076  0.00  0.00    +0.000 OA
ATOM     18  H   UNL     1       8.051  13.207  -0.933  0.00  0.00    +0.000 HD
ENDBRANCH  15  17
ENDBRANCH  14  15
ENDBRANCH   1  14
TORSDOF 7
ENDMDL
MODEL 5
REMARK VINA RESULT:    -4.644      3.771      6.824
REMARK INTER + INTRA:          -6.875
REMARK INTER:                  -6.357
REMARK INTRA:                  -0.519
REMARK UNBOUND:                -0.603
REMARK  Name = 
REMARK  10 active torsions:
REMARK  status: ('A' for Active; 'I' for Inactive)
REMARK    1  A    between atoms: C_1  and  C_2
REMARK    2  A    between atoms: C_5  and  N_8
REMARK    3  A    between atoms: N_8  and  C_9
REMARK    4  A    between atoms: N_8  and  C_13
REMARK    5  A    between atoms: C_9  and  C_10
REMARK    6  A    between atoms: C_10  and  C_11
REMARK    7  A    between atoms: C_10  and  O_12
REMARK    8  A    between atoms: C_13  and  C_14
REMARK    9  A    between atoms: C_14  and  C_15
REMARK   10  A    between atoms: C_14  and  O_16
REMARK                            x       y       z     vdW  Elec       q    Type
REMARK                         _______ _______ _______ _____ _____    ______ ____
ROOT
ATOM      1  N   UNL     1       6.816  18.038  -0.882  0.00  0.00    +0.000 N 
ENDROOT
BRANCH   1   6
ATOM      2  C   UNL     1       7.500  20.655  -5.983  0.00  0.00    +0.000 C 
ATOM      3  C   UNL     1       7.301  19.987  -4.656  0.00  0.00    +0.000 A 
ATOM      4  C   UNL     1       7.771  20.571  -3.485  0.00  0.00    +0.000 A 
ATOM      5  C   UNL     1       7.607  19.926  -2.248  0.00  0.00    +0.000 A 
ATOM      6  C   UNL     1       6.993  18.667  -2.121  0.00  0.00    +0.000 A 
ATOM      7  C   UNL     1       6.528  18.108  -3.326  0.00  0.00    +0.000 A 
ATOM      8  C   UNL     1       6.683  18.743  -4.569  0.00  0.00    +0.000 A 
ENDBRANCH   1   6
BRANCH   1   9
ATOM      9  C   UNL     1       5.872  16.902  -0.753  0.00  0.00    +0.000 C 
BRANCH   9  10
ATOM     10  C   UNL     1       6.588  15.554  -0.497  0.00  0.00    +0.000 C 
ATOM     11  C   UNL     1       5.676  14.585   0.247  0.00  0.00    +0.000 C 
BRANCH  10  12
ATOM     12  O   UNL     1       6.979  14.936  -1.731  0.00  0.00    +0.000 OA
ATOM     13  H   UNL     1       7.728  15.437  -2.094  0.00  0.00    +0.000 HD
ENDBRANCH  10  12
ENDBRANCH   9  10
ENDBRANCH   1   9
BRANCH   1  14
ATOM     14  C   UNL     1       7.121  18.745   0.389  0.00  0.00    +0.000 C 
BRANCH  14  15
ATOM     15  C   UNL     1       8.479  18.308   0.989  0.00  0.00    +0.000 C 
ATOM     16  C   UNL     1       8.333  17.386   2.194  0.00  0.00    +0.000 C 
BRANCH  15  17
ATOM     17  O   UNL     1       9.294  17.646   0.022  0.00  0.00    +0.000 OA
ATOM     18  H   UNL     1      10.102  17.386   0.509  0.00  0.00    +0.000 HD
ENDBRANCH  15  17
ENDBRANCH  14  15
ENDBRANCH   1  14
TORSDOF 7
ENDMDL
MODEL 6
REMARK VINA RESULT:    -4.581      2.414      4.788
REMARK INTER + INTRA:          -6.791
REMARK INTER:                  -6.251
REMARK INTRA:                  -0.540
REMARK UNBOUND:                -0.603
REMARK  Name = 
REMARK  10 active torsions:
REMARK  status: ('A' for Active; 'I' for Inactive)
REMARK    1  A    between atoms: C_1  and  C_2
REMARK    2  A    between atoms: C_5  and  N_8
REMARK    3  A    between atoms: N_8  and  C_9
REMARK    4  A    between atoms: N_8  and  C_13
REMARK    5  A    between atoms: C_9  and  C_10
REMARK    6  A    between atoms: C_10  and  C_11
REMARK    7  A    between atoms: C_10  and  O_12
REMARK    8  A    between atoms: C_13  and  C_14
REMARK    9  A    between atoms: C_14  and  C_15
REMARK   10  A    between atoms: C_14  and  O_16
REMARK                            x       y       z     vdW  Elec       q    Type
REMARK                         _______ _______ _______ _____ _____    ______ ____
ROOT
ATOM      1  N   UNL     1       5.480  15.163   1.393  0.00  0.00    +0.000 N 
ENDROOT
BRANCH   1   6
ATOM      2  C   UNL     1       6.968  19.093  -2.566  0.00  0.00    +0.000 C 
ATOM      3  C   UNL     1       6.606  18.065  -1.539  0.00  0.00    +0.000 A 
ATOM      4  C   UNL     1       6.115  16.820  -1.917  0.00  0.00    +0.000 A 
ATOM      5  C   UNL     1       5.748  15.870  -0.949  0.00  0.00    +0.000 A 
ATOM      6  C   UNL     1       5.830  16.121   0.433  0.00  0.00    +0.000 A 
ATOM      7  C   UNL     1       6.332  17.389   0.779  0.00  0.00    +0.000 A 
ATOM      8  C   UNL     1       6.705  18.347  -0.179  0.00  0.00    +0.000 A 
ENDBRANCH   1   6
BRANCH   1   9
ATOM      9  C   UNL     1       4.871  15.585   2.677  0.00  0.00    +0.000 C 
BRANCH   9  10
ATOM     10  C   UNL     1       5.150  14.589   3.829  0.00  0.00    +0.000 C 
ATOM     11  C   UNL     1       6.027  15.227   4.900  0.00  0.00    +0.000 C 
BRANCH  10  12
ATOM     12  O   UNL     1       3.929  14.164   4.450  0.00  0.00    +0.000 OA
ATOM     13  H   UNL     1       3.501  14.945   4.838  0.00  0.00    +0.000 HD
ENDBRANCH  10  12
ENDBRANCH   9  10
ENDBRANCH   1   9
BRANCH   1  14
ATOM     14  C   UNL     1       6.133  13.829   1.419  0.00  0.00    +0.000 C 
BRANCH  14  15
ATOM     15  C   UNL     1       7.662  13.922   1.204  0.00  0.00    +0.000 C 
ATOM     16  C   UNL     1       8.466  13.565   2.449  0.00  0.00    +0.000 C 
BRANCH  15  17
ATOM     17  O   UNL     1       8.097  13.076   0.141  0.00  0.00    +0.000 OA
ATOM     18  H   UNL     1       8.376  13.687  -0.571  0.00  0.00    +0.000 HD
ENDBRANCH  15  17
ENDBRANCH  14  15
ENDBRANCH   1  14
TORSDOF 7
ENDMDL
MODEL 7
REMARK VINA RESULT:    -4.532      2.834      5.313
REMARK INTER + INTRA:          -6.725
REMARK INTER:                  -5.969
REMARK INTRA:                  -0.756
REMARK UNBOUND:                -0.603
REMARK  Name = 
REMARK  10 active torsions:
REMARK  status: ('A' for Active; 'I' for Inactive)
REMARK    1  A    between atoms: C_1  and  C_2
REMARK    2  A    between atoms: C_5  and  N_8
REMARK    3  A    between atoms: N_8  and  C_9
REMARK    4  A    between atoms: N_8  and  C_13
REMARK    5  A    between atoms: C_9  and  C_10
REMARK    6  A    between atoms: C_10  and  C_11
REMARK    7  A    between atoms: C_10  and  O_12
REMARK    8  A    between atoms: C_13  and  C_14
REMARK    9  A    between atoms: C_14  and  C_15
REMARK   10  A    between atoms: C_14  and  O_16
REMARK                            x       y       z     vdW  Elec       q    Type
REMARK                         _______ _______ _______ _____ _____    ______ ____
ROOT
ATOM      1  N   UNL     1       6.881  16.196   1.174  0.00  0.00    +0.000 N 
ENDROOT
BRANCH   1   6
ATOM      2  C   UNL     1       8.602  21.303  -0.896  0.00  0.00    +0.000 C 
ATOM      3  C   UNL     1       8.153  19.987  -0.336  0.00  0.00    +0.000 A 
ATOM      4  C   UNL     1       9.077  19.052   0.118  0.00  0.00    +0.000 A 
ATOM      5  C   UNL     1       8.652  17.809   0.614  0.00  0.00    +0.000 A 
ATOM      6  C   UNL     1       7.298  17.430   0.660  0.00  0.00    +0.000 A 
ATOM      7  C   UNL     1       6.393  18.400   0.195  0.00  0.00    +0.000 A 
ATOM      8  C   UNL     1       6.804  19.648  -0.302  0.00  0.00    +0.000 A 
ENDBRANCH   1   6
BRANCH   1   9
ATOM      9  C   UNL     1       5.497  15.720   0.933  0.00  0.00    +0.000 C 
BRANCH   9  10
ATOM     10  C   UNL     1       5.358  14.924  -0.388  0.00  0.00    +0.000 C 
ATOM     11  C   UNL     1       4.370  15.602  -1.331  0.00  0.00    +0.000 C 
BRANCH  10  12
ATOM     12  O   UNL     1       6.619  14.824  -1.064  0.00  0.00    +0.000 OA
ATOM     13  H   UNL     1       7.322  15.008  -0.419  0.00  0.00    +0.000 HD
ENDBRANCH  10  12
ENDBRANCH   9  10
ENDBRANCH   1   9
BRANCH   1  14
ATOM     14  C   UNL     1       7.556  15.583   2.346  0.00  0.00    +0.000 C 
BRANCH  14  15
ATOM     15  C   UNL     1       8.311  14.284   1.973  0.00  0.00    +0.000 C 
ATOM     16  C   UNL     1       7.473  13.026   2.171  0.00  0.00    +0.000 C 
BRANCH  15  17
ATOM     17  O   UNL     1       8.761  14.306   0.619  0.00  0.00    +0.000 OA
ATOM     18  H   UNL     1       9.090  13.401   0.447  0.00  0.00    +0.000 HD
ENDBRANCH  15  17
ENDBRANCH  14  15
ENDBRANCH   1  14
TORSDOF 7
ENDMDL
MODEL 8
REMARK VINA RESULT:    -4.430      3.919      5.667
REMARK INTER + INTRA:          -6.586
REMARK INTER:                  -6.146
REMARK INTRA:                  -0.440
REMARK UNBOUND:                -0.603
REMARK  Name = 
REMARK  10 active torsions:
REMARK  status: ('A' for Active; 'I' for Inactive)
REMARK    1  A    between atoms: C_1  and  C_2
REMARK    2  A    between atoms: C_5  and  N_8
REMARK    3  A    between atoms: N_8  and  C_9
REMARK    4  A    between atoms: N_8  and  C_13
REMARK    5  A    between atoms: C_9  and  C_10
REMARK    6  A    between atoms: C_10  and  C_11
REMARK    7  A    between atoms: C_10  and  O_12
REMARK    8  A    between atoms: C_13  and  C_14
REMARK    9  A    between atoms: C_14  and  C_15
REMARK   10  A    between atoms: C_14  and  O_16
REMARK                            x       y       z     vdW  Elec       q    Type
REMARK                         _______ _______ _______ _____ _____    ______ ____
ROOT
ATOM      1  N   UNL     1       7.015  18.259  -1.586  0.00  0.00    +0.000 N 
ENDROOT
BRANCH   1   6
ATOM      2  C   UNL     1       7.515  18.966   4.121  0.00  0.00    +0.000 C 
ATOM      3  C   UNL     1       7.394  18.806   2.637  0.00  0.00    +0.000 A 
ATOM      4  C   UNL     1       6.204  19.102   1.981  0.00  0.00    +0.000 A 
ATOM      5  C   UNL     1       6.086  18.921   0.593  0.00  0.00    +0.000 A 
ATOM      6  C   UNL     1       7.133  18.418  -0.200  0.00  0.00    +0.000 A 
ATOM      7  C   UNL     1       8.322  18.132   0.496  0.00  0.00    +0.000 A 
ATOM      8  C   UNL     1       8.454  18.310   1.883  0.00  0.00    +0.000 A 
ENDBRANCH   1   6
BRANCH   1   9
ATOM      9  C   UNL     1       7.359  19.379  -2.495  0.00  0.00    +0.000 C 
BRANCH   9  10
ATOM     10  C   UNL     1       7.223  19.002  -3.991  0.00  0.00    +0.000 C 
ATOM     11  C   UNL     1       6.628  20.154  -4.792  0.00  0.00    +0.000 C 
BRANCH  10  12
ATOM     12  O   UNL     1       8.501  18.680  -4.558  0.00  0.00    +0.000 OA
ATOM     13  H   UNL     1       9.151  19.315  -4.216  0.00  0.00    +0.000 HD
ENDBRANCH  10  12
ENDBRANCH   9  10
ENDBRANCH   1   9
BRANCH   1  14
ATOM     14  C   UNL     1       6.106  17.239  -2.169  0.00  0.00    +0.000 C 
BRANCH  14  15
ATOM     15  C   UNL     1       6.214  15.877  -1.441  0.00  0.00    +0.000 C 
ATOM     16  C   UNL     1       4.858  15.264  -1.113  0.00  0.00    +0.000 C 
BRANCH  15  17
ATOM     17  O   UNL     1       6.955  14.928  -2.206  0.00  0.00    +0.000 OA
ATOM     18  H   UNL     1       7.377  15.450  -2.918  0.00  0.00    +0.000 HD
ENDBRANCH  15  17
ENDBRANCH  14  15
ENDBRANCH   1  14
TORSDOF 7
ENDMDL
MODEL 9
REMARK VINA RESULT:    -4.415      2.529      4.751
REMARK INTER + INTRA:          -6.567
REMARK INTER:                  -5.961
REMARK INTRA:                  -0.607
REMARK UNBOUND:                -0.603
REMARK  Name = 
REMARK  10 active torsions:
REMARK  status: ('A' for Active; 'I' for Inactive)
REMARK    1  A    between atoms: C_1  and  C_2
REMARK    2  A    between atoms: C_5  and  N_8
REMARK    3  A    between atoms: N_8  and  C_9
REMARK    4  A    between atoms: N_8  and  C_13
REMARK    5  A    between atoms: C_9  and  C_10
REMARK    6  A    between atoms: C_10  and  C_11
REMARK    7  A    between atoms: C_10  and  O_12
REMARK    8  A    between atoms: C_13  and  C_14
REMARK    9  A    between atoms: C_14  and  C_15
REMARK   10  A    between atoms: C_14  and  O_16
REMARK                            x       y       z     vdW  Elec       q    Type
REMARK                         _______ _______ _______ _____ _____    ______ ____
ROOT
ATOM      1  N   UNL     1       6.349  16.046   0.535  0.00  0.00    +0.000 N 
ENDROOT
BRANCH   1   6
ATOM      2  C   UNL     1       7.420  21.411   2.378  0.00  0.00    +0.000 C 
ATOM      3  C   UNL     1       7.145  20.010   1.923  0.00  0.00    +0.000 A 
ATOM      4  C   UNL     1       8.173  19.192   1.469  0.00  0.00    +0.000 A 
ATOM      5  C   UNL     1       7.905  17.890   1.016  0.00  0.00    +0.000 A 
ATOM      6  C   UNL     1       6.606  17.352   0.970  0.00  0.00    +0.000 A 
ATOM      7  C   UNL     1       5.592  18.207   1.438  0.00  0.00    +0.000 A 
ATOM      8  C   UNL     1       5.846  19.510   1.897  0.00  0.00    +0.000 A 
ENDBRANCH   1   6
BRANCH   1   9
ATOM      9  C   UNL     1       5.307  15.796  -0.490  0.00  0.00    +0.000 C 
BRANCH   9  10
ATOM     10  C   UNL     1       5.859  15.858  -1.935  0.00  0.00    +0.000 C 
ATOM     11  C   UNL     1       6.261  17.281  -2.305  0.00  0.00    +0.000 C 
BRANCH  10  12
ATOM     12  O   UNL     1       7.013  15.018  -2.081  0.00  0.00    +0.000 OA
ATOM     13  H   UNL     1       7.077  14.454  -1.293  0.00  0.00    +0.000 HD
ENDBRANCH  10  12
ENDBRANCH   9  10
ENDBRANCH   1   9
BRANCH   1  14
ATOM     14  C   UNL     1       6.687  14.873   1.381  0.00  0.00    +0.000 C 
BRANCH  14  15
ATOM     15  C   UNL     1       8.101  14.323   1.079  0.00  0.00    +0.000 C 
ATOM     16  C   UNL     1       8.819  13.802   2.319  0.00  0.00    +0.000 C 
BRANCH  15  17
ATOM     17  O   UNL     1       8.064  13.271   0.116  0.00  0.00    +0.000 OA
ATOM     18  H   UNL     1       8.485  12.507   0.559  0.00  0.00    +0.000 HD
ENDBRANCH  15  17
ENDBRANCH  14  15
ENDBRANCH   1  14
TORSDOF 7
ENDMDL
