MODEL 1
REMARK VINA RESULT:    -4.910      0.000      0.000
REMARK INTER + INTRA:          -7.163
REMARK INTER:                  -6.633
REMARK INTRA:                  -0.530
REMARK UNBOUND:                -0.530
REMARK  Name = 
REMARK  10 active torsions:
REMARK  status: ('A' for Active; 'I' for Inactive)
REMARK    1  A    between atoms: C_1  and  C_2
REMARK    2  A    between atoms: C_5  and  N_8
REMARK    3  A    between atoms: N_8  and  C_9
REMARK    4  A    between atoms: N_8  and  C_13
REMARK    5  A    between atoms: C_9  and  C_10
REMARK    6  A    between atoms: C_10  and  C_11
REMARK    7  A    between atoms: C_10  and  O_12
REMARK    8  A    between atoms: C_13  and  C_14
REMARK    9  A    between atoms: C_14  and  C_15
REMARK   10  A    between atoms: C_14  and  O_16
REMARK                            x       y       z     vdW  Elec       q    Type
REMARK                         _______ _______ _______ _____ _____    ______ ____
ROOT
ATOM      1  N   UNL     1       3.504  16.309  -0.134  0.00  0.00    +0.000 N 
ENDROOT
BRANCH   1   6
ATOM      2  C   UNL     1       4.617  14.873   5.346  0.00  0.00    +0.000 C 
ATOM      3  C   UNL     1       4.353  15.250   3.920  0.00  0.00    +0.000 A 
ATOM      4  C   UNL     1       4.050  16.562   3.573  0.00  0.00    +0.000 A 
ATOM      5  C   UNL     1       3.773  16.903   2.239  0.00  0.00    +0.000 A 
ATOM      6  C   UNL     1       3.762  15.958   1.197  0.00  0.00    +0.000 A 
ATOM      7  C   UNL     1       4.074  14.642   1.585  0.00  0.00    +0.000 A 
ATOM      8  C   UNL     1       4.355  14.287   2.915  0.00  0.00    +0.000 A 
ENDBRANCH   1   6
BRANCH   1   9
ATOM      9  C   UNL     1       4.508  17.079  -0.907  0.00  0.00    +0.000 C 
BRANCH   9  10
ATOM     10  C   UNL     1       4.332  16.926  -2.438  0.00  0.00    +0.000 C 
ATOM     11  C   UNL     1       5.384  17.732  -3.190  0.00  0.00    +0.000 C 
BRANCH  10  12
ATOM     12  O   UNL     1       4.455  15.554  -2.836  0.00  0.00    +0.000 OA
ATOM     13  H   UNL     1       4.941  15.526  -3.677  0.00  0.00    +0.000 HD
ENDBRANCH  10  12
ENDBRANCH   9  10
ENDBRANCH   1   9
BRANCH   1  14
ATOM     14  C   UNL     1       2.114  16.401  -0.649  0.00  0.00    +0.000 C 
BRANCH  14  15
ATOM     15  C   UNL     1       1.512  15.009  -0.957  0.00  0.00    +0.000 C 
ATOM     16  C   UNL     1      -0.006  14.969  -0.819  0.00  0.00    +0.000 C 
BRANCH  15  17
ATOM     17  O   UNL     1       1.848  14.568  -2.272  0.00  0.00    +0.000 OA
ATOM     18  H   UNL     1       1.604  15.313  -2.858  0.00  0.00    +0.000 HD
ENDBRANCH  15  17
ENDBRANCH  14  15
ENDBRANCH   1  14
TORSDOF 7
ENDMDL
MODEL 2
REMARK VINA RESULT:    -4.876      4.508      6.034
REMARK INTER + INTRA:          -7.117
REMARK INTER:                  -6.320
REMARK INTRA:                  -0.797
REMARK UNBOUND:                -0.530
REMARK  Name = 
REMARK  10 active torsions:
REMARK  status: ('A' for Active; 'I' for Inactive)
REMARK    1  A    between atoms: C_1  and  C_2
REMARK    2  A    between atoms: C_5  and  N_8
REMARK    3  A    between atoms: N_8  and  C_9
REMARK    4  A    between atoms: N_8  and  C_13
REMARK    5  A    between atoms: C_9  and  C_10
REMARK    6  A    between atoms: C_10  and  C_11
REMARK    7  A    between atoms: C_10  and  O_12
REMARK    8  A    between atoms: C_13  and  C_14
REMARK    9  A    between atoms: C_14  and  C_15
REMARK   10  A    between atoms: C_14  and  O_16
REMARK                            x       y       z     vdW  Elec       q    Type
REMARK                         _______ _______ _______ _____ _____    ______ ____
ROOT
ATOM      1  N   UNL     1       4.397  15.173   4.617  0.00  0.00    +0.000 N 
ENDROOT
BRANCH   1   6
ATOM      2  C   UNL     1       1.488  13.806   9.412  0.00  0.00    +0.000 C 
ATOM      3  C   UNL     1       2.257  14.176   8.181  0.00  0.00    +0.000 A 
ATOM      4  C   UNL     1       1.835  15.217   7.361  0.00  0.00    +0.000 A 
ATOM      5  C   UNL     1       2.543  15.540   6.192  0.00  0.00    +0.000 A 
ATOM      6  C   UNL     1       3.685  14.833   5.774  0.00  0.00    +0.000 A 
ATOM      7  C   UNL     1       4.084  13.789   6.628  0.00  0.00    +0.000 A 
ATOM      8  C   UNL     1       3.386  13.456   7.801  0.00  0.00    +0.000 A 
ENDBRANCH   1   6
BRANCH   1   9
ATOM      9  C   UNL     1       5.020  16.513   4.495  0.00  0.00    +0.000 C 
BRANCH   9  10
ATOM     10  C   UNL     1       6.451  16.565   5.085  0.00  0.00    +0.000 C 
ATOM     11  C   UNL     1       6.427  17.041   6.533  0.00  0.00    +0.000 C 
BRANCH  10  12
ATOM     12  O   UNL     1       7.069  15.271   5.053  0.00  0.00    +0.000 OA
ATOM     13  H   UNL     1       6.409  14.630   4.740  0.00  0.00    +0.000 HD
ENDBRANCH  10  12
ENDBRANCH   9  10
ENDBRANCH   1   9
BRANCH   1  14
ATOM     14  C   UNL     1       4.144  14.483   3.326  0.00  0.00    +0.000 C 
BRANCH  14  15
ATOM     15  C   UNL     1       5.152  13.338   3.068  0.00  0.00    +0.000 C 
ATOM     16  C   UNL     1       4.578  12.216   2.211  0.00  0.00    +0.000 C 
BRANCH  15  17
ATOM     17  O   UNL     1       6.340  13.813   2.437  0.00  0.00    +0.000 OA
ATOM     18  H   UNL     1       7.031  13.163   2.675  0.00  0.00    +0.000 HD
ENDBRANCH  15  17
ENDBRANCH  14  15
ENDBRANCH   1  14
TORSDOF 7
ENDMDL
MODEL 3
REMARK VINA RESULT:    -4.534      4.275      6.117
REMARK INTER + INTRA:          -6.655
REMARK INTER:                  -6.063
REMARK INTRA:                  -0.592
REMARK UNBOUND:                -0.530
REMARK  Name = 
REMARK  10 active torsions:
REMARK  status: ('A' for Active; 'I' for Inactive)
REMARK    1  A    between atoms: C_1  and  C_2
REMARK    2  A    between atoms: C_5  and  N_8
REMARK    3  A    between atoms: N_8  and  C_9
REMARK    4  A    between atoms: N_8  and  C_13
REMARK    5  A    between atoms: C_9  and  C_10
REMARK    6  A    between atoms: C_10  and  C_11
REMARK    7  A    between atoms: C_10  and  O_12
REMARK    8  A    between atoms: C_13  and  C_14
REMARK    9  A    between atoms: C_14  and  C_15
REMARK   10  A    between atoms: C_14  and  O_16
REMARK                            x       y       z     vdW  Elec       q    Type
REMARK                         _______ _______ _______ _____ _____    ______ ____
ROOT
ATOM      1  N   UNL     1       5.181  15.541   4.500  0.00  0.00    +0.000 N 
ENDROOT
BRANCH   1   6
ATOM      2  C   UNL     1       1.939  14.190   9.082  0.00  0.00    +0.000 C 
ATOM      3  C   UNL     1       2.768  14.562   7.891  0.00  0.00    +0.000 A 
ATOM      4  C   UNL     1       2.404  14.153   6.612  0.00  0.00    +0.000 A 
ATOM      5  C   UNL     1       3.201  14.479   5.502  0.00  0.00    +0.000 A 
ATOM      6  C   UNL     1       4.402  15.202   5.614  0.00  0.00    +0.000 A 
ATOM      7  C   UNL     1       4.738  15.601   6.921  0.00  0.00    +0.000 A 
ATOM      8  C   UNL     1       3.949  15.284   8.039  0.00  0.00    +0.000 A 
ENDBRANCH   1   6
BRANCH   1   9
ATOM      9  C   UNL     1       4.788  15.075   3.148  0.00  0.00    +0.000 C 
BRANCH   9  10
ATOM     10  C   UNL     1       5.544  13.797   2.710  0.00  0.00    +0.000 C 
ATOM     11  C   UNL     1       4.571  12.660   2.422  0.00  0.00    +0.000 C 
BRANCH  10  12
ATOM     12  O   UNL     1       6.313  14.036   1.523  0.00  0.00    +0.000 OA
ATOM     13  H   UNL     1       7.196  13.653   1.654  0.00  0.00    +0.000 HD
ENDBRANCH  10  12
ENDBRANCH   9  10
ENDBRANCH   1   9
BRANCH   1  14
ATOM     14  C   UNL     1       6.617  15.895   4.645  0.00  0.00    +0.000 C 
BRANCH  14  15
ATOM     15  C   UNL     1       6.928  17.309   4.098  0.00  0.00    +0.000 C 
ATOM     16  C   UNL     1       5.892  18.350   4.503  0.00  0.00    +0.000 C 
BRANCH  15  17
ATOM     17  O   UNL     1       8.208  17.770   4.525  0.00  0.00    +0.000 OA
ATOM     18  H   UNL     1       8.205  18.731   4.342  0.00  0.00    +0.000 HD
ENDBRANCH  15  17
ENDBRANCH  14  15
ENDBRANCH   1  14
TORSDOF 7
ENDMDL
MODEL 4
REMARK VINA RESULT:    -4.403      1.503      5.211
REMARK INTER + INTRA:          -6.477
REMARK INTER:                  -5.750
REMARK INTRA:                  -0.727
REMARK UNBOUND:                -0.530
REMARK  Name = 
REMARK  10 active torsions:
REMARK  status: ('A' for Active; 'I' for Inactive)
REMARK    1  A    between atoms: C_1  and  C_2
REMARK    2  A    between atoms: C_5  and  N_8
REMARK    3  A    between atoms: N_8  and  C_9
REMARK    4  A    between atoms: N_8  and  C_13
REMARK    5  A    between atoms: C_9  and  C_10
REMARK    6  A    between atoms: C_10  and  C_11
REMARK    7  A    between atoms: C_10  and  O_12
REMARK    8  A    between atoms: C_13  and  C_14
REMARK    9  A    between atoms: C_14  and  C_15
REMARK   10  A    between atoms: C_14  and  O_16
REMARK                            x       y       z     vdW  Elec       q    Type
REMARK                         _______ _______ _______ _____ _____    ______ ____
ROOT
ATOM      1  N   UNL     1       3.352  17.058   0.211  0.00  0.00    +0.000 N 
ENDROOT
BRANCH   1   6
ATOM      2  C   UNL     1      -1.886  15.456  -1.614  0.00  0.00    +0.000 C 
ATOM      3  C   UNL     1      -0.519  15.876  -1.164  0.00  0.00    +0.000 A 
ATOM      4  C   UNL     1       0.491  14.938  -0.979  0.00  0.00    +0.000 A 
ATOM      5  C   UNL     1       1.761  15.333  -0.528  0.00  0.00    +0.000 A 
ATOM      6  C   UNL     1       2.078  16.668  -0.219  0.00  0.00    +0.000 A 
ATOM      7  C   UNL     1       1.033  17.589  -0.420  0.00  0.00    +0.000 A 
ATOM      8  C   UNL     1      -0.241  17.208  -0.872  0.00  0.00    +0.000 A 
ENDBRANCH   1   6
BRANCH   1   9
ATOM      9  C   UNL     1       3.709  16.976   1.648  0.00  0.00    +0.000 C 
BRANCH   9  10
ATOM     10  C   UNL     1       4.937  16.071   1.911  0.00  0.00    +0.000 C 
ATOM     11  C   UNL     1       4.790  15.323   3.231  0.00  0.00    +0.000 C 
BRANCH  10  12
ATOM     12  O   UNL     1       5.095  15.101   0.866  0.00  0.00    +0.000 OA
ATOM     13  H   UNL     1       5.522  15.539   0.111  0.00  0.00    +0.000 HD
ENDBRANCH  10  12
ENDBRANCH   9  10
ENDBRANCH   1   9
BRANCH   1  14
ATOM     14  C   UNL     1       4.176  18.004  -0.584  0.00  0.00    +0.000 C 
BRANCH  14  15
ATOM     15  C   UNL     1       4.621  17.398  -1.936  0.00  0.00    +0.000 C 
ATOM     16  C   UNL     1       5.751  18.176  -2.600  0.00  0.00    +0.000 C 
BRANCH  15  17
ATOM     17  O   UNL     1       5.043  16.042  -1.793  0.00  0.00    +0.000 OA
ATOM     18  H   UNL     1       5.949  16.097  -1.430  0.00  0.00    +0.000 HD
ENDBRANCH  15  17
ENDBRANCH  14  15
ENDBRANCH   1  14
TORSDOF 7
ENDMDL
MODEL 5
REMARK VINA RESULT:    -4.324      3.130      4.560
REMARK INTER + INTRA:          -6.371
REMARK INTER:                  -5.744
REMARK INTRA:                  -0.627
REMARK UNBOUND:                -0.530
REMARK  Name = 
REMARK  10 active torsions:
REMARK  status: ('A' for Active; 'I' for Inactive)
REMARK    1  A    between atoms: C_1  and  C_2
REMARK    2  A    between atoms: C_5  and  N_8
REMARK    3  A    between atoms: N_8  and  C_9
REMARK    4  A    between atoms: N_8  and  C_13
REMARK    5  A    between atoms: C_9  and  C_10
REMARK    6  A    between atoms: C_10  and  C_11
REMARK    7  A    between atoms: C_10  and  O_12
REMARK    8  A    between atoms: C_13  and  C_14
REMARK    9  A    between atoms: C_14  and  C_15
REMARK   10  A    between atoms: C_14  and  O_16
REMARK                            x       y       z     vdW  Elec       q    Type
REMARK                         _______ _______ _______ _____ _____    ______ ____
ROOT
ATOM      1  N   UNL     1       4.907  16.198   2.669  0.00  0.00    +0.000 N 
ENDROOT
BRANCH   1   6
ATOM      2  C   UNL     1       8.951  19.927   4.421  0.00  0.00    +0.000 C 
ATOM      3  C   UNL     1       7.918  18.949   3.951  0.00  0.00    +0.000 A 
ATOM      4  C   UNL     1       7.079  19.253   2.884  0.00  0.00    +0.000 A 
ATOM      5  C   UNL     1       6.093  18.344   2.467  0.00  0.00    +0.000 A 
ATOM      6  C   UNL     1       5.880  17.107   3.102  0.00  0.00    +0.000 A 
ATOM      7  C   UNL     1       6.747  16.832   4.175  0.00  0.00    +0.000 A 
ATOM      8  C   UNL     1       7.739  17.731   4.601  0.00  0.00    +0.000 A 
ENDBRANCH   1   6
BRANCH   1   9
ATOM      9  C   UNL     1       3.757  16.668   1.860  0.00  0.00    +0.000 C 
BRANCH   9  10
ATOM     10  C   UNL     1       3.578  15.865   0.548  0.00  0.00    +0.000 C 
ATOM     11  C   UNL     1       2.425  16.422  -0.278  0.00  0.00    +0.000 C 
BRANCH  10  12
ATOM     12  O   UNL     1       4.766  15.919  -0.255  0.00  0.00    +0.000 OA
ATOM     13  H   UNL     1       4.499  16.048  -1.180  0.00  0.00    +0.000 HD
ENDBRANCH  10  12
ENDBRANCH   9  10
ENDBRANCH   1   9
BRANCH   1  14
ATOM     14  C   UNL     1       4.686  14.912   3.379  0.00  0.00    +0.000 C 
BRANCH  14  15
ATOM     15  C   UNL     1       5.493  13.751   2.750  0.00  0.00    +0.000 C 
ATOM     16  C   UNL     1       4.622  12.571   2.335  0.00  0.00    +0.000 C 
BRANCH  15  17
ATOM     17  O   UNL     1       6.229  14.180   1.605  0.00  0.00    +0.000 OA
ATOM     18  H   UNL     1       5.732  14.948   1.258  0.00  0.00    +0.000 HD
ENDBRANCH  15  17
ENDBRANCH  14  15
ENDBRANCH   1  14
TORSDOF 7
ENDMDL
MODEL 6
REMARK VINA RESULT:    -4.264      4.024      6.595
REMARK INTER + INTRA:          -6.290
REMARK INTER:                  -5.879
REMARK INTRA:                  -0.410
REMARK UNBOUND:                -0.530
REMARK  Name = 
REMARK  10 active torsions:
REMARK  status: ('A' for Active; 'I' for Inactive)
REMARK    1  A    between atoms: C_1  and  C_2
REMARK    2  A    between atoms: C_5  and  N_8
REMARK    3  A    between atoms: N_8  and  C_9
REMARK    4  A    between atoms: N_8  and  C_13
REMARK    5  A    between atoms: C_9  and  C_10
REMARK    6  A    between atoms: C_10  and  C_11
REMARK    7  A    between atoms: C_10  and  O_12
REMARK    8  A    between atoms: C_13  and  C_14
REMARK    9  A    between atoms: C_14  and  C_15
REMARK   10  A    between atoms: C_14  and  O_16
REMARK                            x       y       z     vdW  Elec       q    Type
REMARK                         _______ _______ _______ _____ _____    ______ ____
ROOT
ATOM      1  N   UNL     1       7.311  18.251  -4.066  0.00  0.00    +0.000 N 
ENDROOT
BRANCH   1   6
ATOM      2  C   UNL     1       3.173  17.516  -0.109  0.00  0.00    +0.000 C 
ATOM      3  C   UNL     1       4.262  17.692  -1.122  0.00  0.00    +0.000 A 
ATOM      4  C   UNL     1       5.140  18.768  -1.047  0.00  0.00    +0.000 A 
ATOM      5  C   UNL     1       6.141  18.945  -2.016  0.00  0.00    +0.000 A 
ATOM      6  C   UNL     1       6.299  18.079  -3.113  0.00  0.00    +0.000 A 
ATOM      7  C   UNL     1       5.395  17.002  -3.156  0.00  0.00    +0.000 A 
ATOM      8  C   UNL     1       4.392  16.812  -2.192  0.00  0.00    +0.000 A 
ENDBRANCH   1   6
BRANCH   1   9
ATOM      9  C   UNL     1       8.480  17.338  -4.082  0.00  0.00    +0.000 C 
BRANCH   9  10
ATOM     10  C   UNL     1       9.700  17.938  -4.822  0.00  0.00    +0.000 C 
ATOM     11  C   UNL     1      10.868  18.149  -3.865  0.00  0.00    +0.000 C 
BRANCH  10  12
ATOM     12  O   UNL     1      10.141  17.071  -5.876  0.00  0.00    +0.000 OA
ATOM     13  H   UNL     1      10.967  17.433  -6.238  0.00  0.00    +0.000 HD
ENDBRANCH  10  12
ENDBRANCH   9  10
ENDBRANCH   1   9
BRANCH   1  14
ATOM     14  C   UNL     1       7.537  19.565  -4.719  0.00  0.00    +0.000 C 
BRANCH  14  15
ATOM     15  C   UNL     1       6.811  19.673  -6.082  0.00  0.00    +0.000 C 
ATOM     16  C   UNL     1       7.753  19.975  -7.241  0.00  0.00    +0.000 C 
BRANCH  15  17
ATOM     17  O   UNL     1       6.096  18.479  -6.394  0.00  0.00    +0.000 OA
ATOM     18  H   UNL     1       6.755  17.892  -6.816  0.00  0.00    +0.000 HD
ENDBRANCH  15  17
ENDBRANCH  14  15
ENDBRANCH   1  14
TORSDOF 7
ENDMDL
MODEL 7
REMARK VINA RESULT:    -4.253      4.219      5.939
REMARK INTER + INTRA:          -6.275
REMARK INTER:                  -5.782
REMARK INTRA:                  -0.493
REMARK UNBOUND:                -0.530
REMARK  Name = 
REMARK  10 active torsions:
REMARK  status: ('A' for Active; 'I' for Inactive)
REMARK    1  A    between atoms: C_1  and  C_2
REMARK    2  A    between atoms: C_5  and  N_8
REMARK    3  A    between atoms: N_8  and  C_9
REMARK    4  A    between atoms: N_8  and  C_13
REMARK    5  A    between atoms: C_9  and  C_10
REMARK    6  A    between atoms: C_10  and  C_11
REMARK    7  A    between atoms: C_10  and  O_12
REMARK    8  A    between atoms: C_13  and  C_14
REMARK    9  A    between atoms: C_14  and  C_15
REMARK   10  A    between atoms: C_14  and  O_16
REMARK                            x       y       z     vdW  Elec       q    Type
REMARK                         _______ _______ _______ _____ _____    ______ ____
ROOT
ATOM      1  N   UNL     1       4.431  15.254   4.244  0.00  0.00    +0.000 N 
ENDROOT
BRANCH   1   6
ATOM      2  C   UNL     1       8.443  19.396   3.974  0.00  0.00    +0.000 C 
ATOM      3  C   UNL     1       7.415  18.308   4.027  0.00  0.00    +0.000 A 
ATOM      4  C   UNL     1       6.286  18.352   3.215  0.00  0.00    +0.000 A 
ATOM      5  C   UNL     1       5.310  17.345   3.290  0.00  0.00    +0.000 A 
ATOM      6  C   UNL     1       5.399  16.265   4.188  0.00  0.00    +0.000 A 
ATOM      7  C   UNL     1       6.554  16.252   4.991  0.00  0.00    +0.000 A 
ATOM      8  C   UNL     1       7.538  17.252   4.924  0.00  0.00    +0.000 A 
ENDBRANCH   1   6
BRANCH   1   9
ATOM      9  C   UNL     1       4.190  14.390   3.063  0.00  0.00    +0.000 C 
BRANCH   9  10
ATOM     10  C   UNL     1       5.233  13.253   2.928  0.00  0.00    +0.000 C 
ATOM     11  C   UNL     1       4.621  12.028   2.260  0.00  0.00    +0.000 C 
BRANCH  10  12
ATOM     12  O   UNL     1       6.355  13.675   2.141  0.00  0.00    +0.000 OA
ATOM     13  H   UNL     1       6.624  14.557   2.447  0.00  0.00    +0.000 HD
ENDBRANCH  10  12
ENDBRANCH   9  10
ENDBRANCH   1   9
BRANCH   1  14
ATOM     14  C   UNL     1       3.305  15.320   5.210  0.00  0.00    +0.000 C 
BRANCH  14  15
ATOM     15  C   UNL     1       3.378  14.195   6.271  0.00  0.00    +0.000 C 
ATOM     16  C   UNL     1       4.041  14.639   7.570  0.00  0.00    +0.000 C 
BRANCH  15  17
ATOM     17  O   UNL     1       2.085  13.684   6.587  0.00  0.00    +0.000 OA
ATOM     18  H   UNL     1       2.228  12.735   6.779  0.00  0.00    +0.000 HD
ENDBRANCH  15  17
ENDBRANCH  14  15
ENDBRANCH   1  14
TORSDOF 7
ENDMDL
MODEL 8
REMARK VINA RESULT:    -4.200      4.070      6.284
REMARK INTER + INTRA:          -6.203
REMARK INTER:                  -5.742
REMARK INTRA:                  -0.461
REMARK UNBOUND:                -0.530
REMARK  Name = 
REMARK  10 active torsions:
REMARK  status: ('A' for Active; 'I' for Inactive)
REMARK    1  A    between atoms: C_1  and  C_2
REMARK    2  A    between atoms: C_5  and  N_8
REMARK    3  A    between atoms: N_8  and  C_9
REMARK    4  A    between atoms: N_8  and  C_13
REMARK    5  A    between atoms: C_9  and  C_10
REMARK    6  A    between atoms: C_10  and  C_11
REMARK    7  A    between atoms: C_10  and  O_12
REMARK    8  A    between atoms: C_13  and  C_14
REMARK    9  A    between atoms: C_14  and  C_15
REMARK   10  A    between atoms: C_14  and  O_16
REMARK                            x       y       z     vdW  Elec       q    Type
REMARK                         _______ _______ _______ _____ _____    ______ ____
ROOT
ATOM      1  N   UNL     1       4.175  15.256   4.516  0.00  0.00    +0.000 N 
ENDROOT
BRANCH   1   6
ATOM      2  C   UNL     1       8.335  19.220   3.961  0.00  0.00    +0.000 C 
ATOM      3  C   UNL     1       7.266  18.179   4.086  0.00  0.00    +0.000 A 
ATOM      4  C   UNL     1       6.057  18.311   3.410  0.00  0.00    +0.000 A 
ATOM      5  C   UNL     1       5.047  17.347   3.554  0.00  0.00    +0.000 A 
ATOM      6  C   UNL     1       5.180  16.224   4.391  0.00  0.00    +0.000 A 
ATOM      7  C   UNL     1       6.415  16.122   5.057  0.00  0.00    +0.000 A 
ATOM      8  C   UNL     1       7.435  17.078   4.920  0.00  0.00    +0.000 A 
ENDBRANCH   1   6
BRANCH   1   9
ATOM      9  C   UNL     1       3.145  15.386   5.574  0.00  0.00    +0.000 C 
BRANCH   9  10
ATOM     10  C   UNL     1       2.865  14.050   6.305  0.00  0.00    +0.000 C 
ATOM     11  C   UNL     1       3.717  13.927   7.563  0.00  0.00    +0.000 C 
BRANCH  10  12
ATOM     12  O   UNL     1       1.487  13.953   6.691  0.00  0.00    +0.000 OA
ATOM     13  H   UNL     1       1.450  13.573   7.584  0.00  0.00    +0.000 HD
ENDBRANCH  10  12
ENDBRANCH   9  10
ENDBRANCH   1   9
BRANCH   1  14
ATOM     14  C   UNL     1       4.367  13.878   3.996  0.00  0.00    +0.000 C 
BRANCH  14  15
ATOM     15  C   UNL     1       4.490  13.846   2.454  0.00  0.00    +0.000 C 
ATOM     16  C   UNL     1       5.925  13.995   1.963  0.00  0.00    +0.000 C 
BRANCH  15  17
ATOM     17  O   UNL     1       3.959  12.640   1.907  0.00  0.00    +0.000 OA
ATOM     18  H   UNL     1       3.021  12.628   2.186  0.00  0.00    +0.000 HD
ENDBRANCH  15  17
ENDBRANCH  14  15
ENDBRANCH   1  14
TORSDOF 7
ENDMDL
MODEL 9
REMARK VINA RESULT:    -4.158      1.190      3.556
REMARK INTER + INTRA:          -6.147
REMARK INTER:                  -5.880
REMARK INTRA:                  -0.267
REMARK UNBOUND:                -0.530
REMARK  Name = 
REMARK  10 active torsions:
REMARK  status: ('A' for Active; 'I' for Inactive)
REMARK    1  A    between atoms: C_1  and  C_2
REMARK    2  A    between atoms: C_5  and  N_8
REMARK    3  A    between atoms: N_8  and  C_9
REMARK    4  A    between atoms: N_8  and  C_13
REMARK    5  A    between atoms: C_9  and  C_10
REMARK    6  A    between atoms: C_10  and  C_11
REMARK    7  A    between atoms: C_10  and  O_12
REMARK    8  A    between atoms: C_13  and  C_14
REMARK    9  A    between atoms: C_14  and  C_15
REMARK   10  A    between atoms: C_14  and  O_16
REMARK                            x       y       z     vdW  Elec       q    Type
REMARK                         _______ _______ _______ _____ _____    ______ ____
ROOT
ATOM      1  N   UNL     1       3.486  16.738  -0.785  0.00  0.00    +0.000 N 
ENDROOT
BRANCH   1   6
ATOM      2  C   UNL     1       4.292  16.643   4.931  0.00  0.00    +0.000 C 
ATOM      3  C   UNL     1       4.059  16.662   3.451  0.00  0.00    +0.000 A 
ATOM      4  C   UNL     1       4.269  15.523   2.680  0.00  0.00    +0.000 A 
ATOM      5  C   UNL     1       4.077  15.554   1.289  0.00  0.00    +0.000 A 
ATOM      6  C   UNL     1       3.694  16.719   0.600  0.00  0.00    +0.000 A 
ATOM      7  C   UNL     1       3.489  17.850   1.411  0.00  0.00    +0.000 A 
ATOM      8  C   UNL     1       3.675  17.832   2.803  0.00  0.00    +0.000 A 
ENDBRANCH   1   6
BRANCH   1   9
ATOM      9  C   UNL     1       2.114  16.616  -1.333  0.00  0.00    +0.000 C 
BRANCH   9  10
ATOM     10  C   UNL     1       1.568  15.169  -1.270  0.00  0.00    +0.000 C 
ATOM     11  C   UNL     1       0.063  15.163  -1.035  0.00  0.00    +0.000 C 
BRANCH  10  12
ATOM     12  O   UNL     1       1.830  14.466  -2.493  0.00  0.00    +0.000 OA
ATOM     13  H   UNL     1       2.683  14.775  -2.841  0.00  0.00    +0.000 HD
ENDBRANCH  10  12
ENDBRANCH   9  10
ENDBRANCH   1   9
BRANCH   1  14
ATOM     14  C   UNL     1       4.571  16.368  -1.730  0.00  0.00    +0.000 C 
BRANCH  14  15
ATOM     15  C   UNL     1       5.166  17.602  -2.449  0.00  0.00    +0.000 C 
ATOM     16  C   UNL     1       4.843  18.917  -1.750  0.00  0.00    +0.000 C 
BRANCH  15  17
ATOM     17  O   UNL     1       6.584  17.506  -2.576  0.00  0.00    +0.000 OA
ATOM     18  H   UNL     1       6.927  18.352  -2.226  0.00  0.00    +0.000 HD
ENDBRANCH  15  17
ENDBRANCH  14  15
ENDBRANCH   1  14
TORSDOF 7
ENDMDL
