MODEL 1
REMARK VINA RESULT:    -4.272      0.000      0.000
REMARK INTER + INTRA:          -4.696
REMARK INTER:                  -4.647
REMARK INTRA:                  -0.049
REMARK UNBOUND:                -0.049
REMARK  Name = 
REMARK  3 active torsions:
REMARK  status: ('A' for Active; 'I' for Inactive)
REMARK    1  A    between atoms: C_1  and  O_2
REMARK    2  A    between atoms: O_2  and  C_3
REMARK    3  A    between atoms: C_8  and  O_9
REMARK                            x       y       z     vdW  Elec       q    Type
REMARK                         _______ _______ _______ _____ _____    ______ ____
ROOT
ATOM      1  C   UNL     1      -1.316   0.271  20.924  0.00  0.00    +0.000 A 
ATOM      2  C   UNL     1      -2.380  -0.623  20.808  0.00  0.00    +0.000 A 
ATOM      3  C   UNL     1      -3.027  -0.783  19.576  0.00  0.00    +0.000 A 
ATOM      4  C   UNL     1      -2.615  -0.054  18.460  0.00  0.00    +0.000 A 
ATOM      5  C   UNL     1      -1.552   0.840  18.568  0.00  0.00    +0.000 A 
ATOM      6  C   UNL     1      -0.917   0.994  19.793  0.00  0.00    +0.000 A 
ENDROOT
BRANCH   1   8
ATOM      7  C   UNL     1      -1.342   0.851  23.228  0.00  0.00    +0.000 C 
ATOM      8  O   UNL     1      -0.594   0.529  22.062  0.00  0.00    +0.000 OA
ENDBRANCH   1   8
BRANCH   6   9
ATOM      9  O   UNL     1       0.125   1.878  19.875  0.00  0.00    +0.000 OA
ATOM     10  H   UNL     1       0.869   1.355  20.229  0.00  0.00    +0.000 HD
ENDBRANCH   6   9
TORSDOF 2
ENDMDL
MODEL 2
REMARK VINA RESULT:    -4.238     17.616     18.575
REMARK INTER + INTRA:          -4.658
REMARK INTER:                  -4.619
REMARK INTRA:                  -0.039
REMARK UNBOUND:                -0.049
REMARK  Name = 
REMARK  3 active torsions:
REMARK  status: ('A' for Active; 'I' for Inactive)
REMARK    1  A    between atoms: C_1  and  O_2
REMARK    2  A    between atoms: O_2  and  C_3
REMARK    3  A    between atoms: C_8  and  O_9
REMARK                            x       y       z     vdW  Elec       q    Type
REMARK                         _______ _______ _______ _____ _____    ______ ____
ROOT
ATOM      1  C   UNL     1      10.918   6.691   8.436  0.00  0.00    +0.000 A 
ATOM      2  C   UNL     1      12.073   6.617   7.659  0.00  0.00    +0.000 A 
ATOM      3  C   UNL     1      12.002   6.148   6.341  0.00  0.00    +0.000 A 
ATOM      4  C   UNL     1      10.779   5.752   5.796  0.00  0.00    +0.000 A 
ATOM      5  C   UNL     1       9.620   5.823   6.566  0.00  0.00    +0.000 A 
ATOM      6  C   UNL     1       9.700   6.290   7.872  0.00  0.00    +0.000 A 
ENDROOT
BRANCH   1   8
ATOM      7  C   UNL     1      12.049   7.111  10.483  0.00  0.00    +0.000 C 
ATOM      8  O   UNL     1      10.839   7.128   9.734  0.00  0.00    +0.000 OA
ENDBRANCH   1   8
BRANCH   6   9
ATOM      9  O   UNL     1       8.548   6.351   8.608  0.00  0.00    +0.000 OA
ATOM     10  H   UNL     1       8.782   5.954   9.469  0.00  0.00    +0.000 HD
ENDBRANCH   6   9
TORSDOF 2
ENDMDL
MODEL 3
REMARK VINA RESULT:    -4.229     17.458     18.960
REMARK INTER + INTRA:          -4.649
REMARK INTER:                  -4.609
REMARK INTRA:                  -0.040
REMARK UNBOUND:                -0.049
REMARK  Name = 
REMARK  3 active torsions:
REMARK  status: ('A' for Active; 'I' for Inactive)
REMARK    1  A    between atoms: C_1  and  O_2
REMARK    2  A    between atoms: O_2  and  C_3
REMARK    3  A    between atoms: C_8  and  O_9
REMARK                            x       y       z     vdW  Elec       q    Type
REMARK                         _______ _______ _______ _____ _____    ______ ____
ROOT
ATOM      1  C   UNL     1      11.303   6.711   7.387  0.00  0.00    +0.000 A 
ATOM      2  C   UNL     1      11.056   6.165   6.128  0.00  0.00    +0.000 A 
ATOM      3  C   UNL     1       9.786   5.661   5.821  0.00  0.00    +0.000 A 
ATOM      4  C   UNL     1       8.762   5.698   6.768  0.00  0.00    +0.000 A 
ATOM      5  C   UNL     1       9.000   6.242   8.028  0.00  0.00    +0.000 A 
ATOM      6  C   UNL     1      10.263   6.740   8.324  0.00  0.00    +0.000 A 
ENDROOT
BRANCH   1   8
ATOM      7  C   UNL     1      12.834   8.528   7.329  0.00  0.00    +0.000 C 
ATOM      8  O   UNL     1      12.492   7.238   7.823  0.00  0.00    +0.000 OA
ENDBRANCH   1   8
BRANCH   6   9
ATOM      9  O   UNL     1      10.473   7.270   9.569  0.00  0.00    +0.000 OA
ATOM     10  H   UNL     1      10.887   6.548  10.079  0.00  0.00    +0.000 HD
ENDBRANCH   6   9
TORSDOF 2
ENDMDL
MODEL 4
REMARK VINA RESULT:    -4.172     18.440     20.031
REMARK INTER + INTRA:          -4.586
REMARK INTER:                  -4.540
REMARK INTRA:                  -0.046
REMARK UNBOUND:                -0.049
REMARK  Name = 
REMARK  3 active torsions:
REMARK  status: ('A' for Active; 'I' for Inactive)
REMARK    1  A    between atoms: C_1  and  O_2
REMARK    2  A    between atoms: O_2  and  C_3
REMARK    3  A    between atoms: C_8  and  O_9
REMARK                            x       y       z     vdW  Elec       q    Type
REMARK                         _______ _______ _______ _____ _____    ______ ____
ROOT
ATOM      1  C   UNL     1      11.672   6.664   6.226  0.00  0.00    +0.000 A 
ATOM      2  C   UNL     1      12.205   7.361   7.310  0.00  0.00    +0.000 A 
ATOM      3  C   UNL     1      11.557   7.326   8.551  0.00  0.00    +0.000 A 
ATOM      4  C   UNL     1      10.377   6.598   8.713  0.00  0.00    +0.000 A 
ATOM      5  C   UNL     1       9.839   5.899   7.636  0.00  0.00    +0.000 A 
ATOM      6  C   UNL     1      10.488   5.939   6.408  0.00  0.00    +0.000 A 
ENDROOT
BRANCH   1   8
ATOM      7  C   UNL     1      12.665   7.836   4.414  0.00  0.00    +0.000 C 
ATOM      8  O   UNL     1      12.196   6.609   4.960  0.00  0.00    +0.000 OA
ENDBRANCH   1   8
BRANCH   6   9
ATOM      9  O   UNL     1       9.939   5.244   5.364  0.00  0.00    +0.000 OA
ATOM     10  H   UNL     1       9.110   5.716   5.159  0.00  0.00    +0.000 HD
ENDBRANCH   6   9
TORSDOF 2
ENDMDL
MODEL 5
REMARK VINA RESULT:    -4.153     17.992     19.348
REMARK INTER + INTRA:          -4.566
REMARK INTER:                  -4.513
REMARK INTRA:                  -0.052
REMARK UNBOUND:                -0.049
REMARK  Name = 
REMARK  3 active torsions:
REMARK  status: ('A' for Active; 'I' for Inactive)
REMARK    1  A    between atoms: C_1  and  O_2
REMARK    2  A    between atoms: O_2  and  C_3
REMARK    3  A    between atoms: C_8  and  O_9
REMARK                            x       y       z     vdW  Elec       q    Type
REMARK                         _______ _______ _______ _____ _____    ______ ____
ROOT
ATOM      1  C   UNL     1      11.319   6.694   7.259  0.00  0.00    +0.000 A 
ATOM      2  C   UNL     1      10.452   6.664   8.350  0.00  0.00    +0.000 A 
ATOM      3  C   UNL     1       9.133   6.220   8.184  0.00  0.00    +0.000 A 
ATOM      4  C   UNL     1       8.678   5.807   6.931  0.00  0.00    +0.000 A 
ATOM      5  C   UNL     1       9.539   5.833   5.836  0.00  0.00    +0.000 A 
ATOM      6  C   UNL     1      10.844   6.275   6.009  0.00  0.00    +0.000 A 
ENDROOT
BRANCH   1   8
ATOM      7  C   UNL     1      12.857   8.490   7.490  0.00  0.00    +0.000 C 
ATOM      8  O   UNL     1      12.628   7.103   7.275  0.00  0.00    +0.000 OA
ENDBRANCH   1   8
BRANCH   6   9
ATOM      9  O   UNL     1      11.672   6.292   4.918  0.00  0.00    +0.000 OA
ATOM     10  H   UNL     1      12.536   6.583   5.267  0.00  0.00    +0.000 HD
ENDBRANCH   6   9
TORSDOF 2
ENDMDL
MODEL 6
REMARK VINA RESULT:    -4.064     24.121     25.305
REMARK INTER + INTRA:          -4.469
REMARK INTER:                  -4.417
REMARK INTRA:                  -0.052
REMARK UNBOUND:                -0.049
REMARK  Name = 
REMARK  3 active torsions:
REMARK  status: ('A' for Active; 'I' for Inactive)
REMARK    1  A    between atoms: C_1  and  O_2
REMARK    2  A    between atoms: O_2  and  C_3
REMARK    3  A    between atoms: C_8  and  O_9
REMARK                            x       y       z     vdW  Elec       q    Type
REMARK                         _______ _______ _______ _____ _____    ______ ____
ROOT
ATOM      1  C   UNL     1      16.043   5.401   2.991  0.00  0.00    +0.000 A 
ATOM      2  C   UNL     1      17.266   5.130   2.378  0.00  0.00    +0.000 A 
ATOM      3  C   UNL     1      17.518   3.856   1.854  0.00  0.00    +0.000 A 
ATOM      4  C   UNL     1      16.553   2.851   1.941  0.00  0.00    +0.000 A 
ATOM      5  C   UNL     1      15.329   3.114   2.551  0.00  0.00    +0.000 A 
ATOM      6  C   UNL     1      15.087   4.381   3.069  0.00  0.00    +0.000 A 
ENDROOT
BRANCH   1   8
ATOM      7  C   UNL     1      15.424   7.669   2.642  0.00  0.00    +0.000 C 
ATOM      8  O   UNL     1      15.661   6.597   3.546  0.00  0.00    +0.000 OA
ENDBRANCH   1   8
BRANCH   6   9
ATOM      9  O   UNL     1      13.877   4.616   3.664  0.00  0.00    +0.000 OA
ATOM     10  H   UNL     1      13.963   5.504   4.060  0.00  0.00    +0.000 HD
ENDBRANCH   6   9
TORSDOF 2
ENDMDL
MODEL 7
REMARK VINA RESULT:    -3.850     17.530     18.608
REMARK INTER + INTRA:          -4.236
REMARK INTER:                  -4.188
REMARK INTRA:                  -0.049
REMARK UNBOUND:                -0.049
REMARK  Name = 
REMARK  3 active torsions:
REMARK  status: ('A' for Active; 'I' for Inactive)
REMARK    1  A    between atoms: C_1  and  O_2
REMARK    2  A    between atoms: O_2  and  C_3
REMARK    3  A    between atoms: C_8  and  O_9
REMARK                            x       y       z     vdW  Elec       q    Type
REMARK                         _______ _______ _______ _____ _____    ______ ____
ROOT
ATOM      1  C   UNL     1      10.693   6.705   8.315  0.00  0.00    +0.000 A 
ATOM      2  C   UNL     1       9.370   6.265   8.291  0.00  0.00    +0.000 A 
ATOM      3  C   UNL     1       8.802   5.821   7.089  0.00  0.00    +0.000 A 
ATOM      4  C   UNL     1       9.552   5.817   5.912  0.00  0.00    +0.000 A 
ATOM      5  C   UNL     1      10.874   6.255   5.928  0.00  0.00    +0.000 A 
ATOM      6  C   UNL     1      11.429   6.693   7.124  0.00  0.00    +0.000 A 
ENDROOT
BRANCH   1   8
ATOM      7  C   UNL     1      11.744   6.192  10.384  0.00  0.00    +0.000 C 
ATOM      8  O   UNL     1      11.374   7.164   9.414  0.00  0.00    +0.000 OA
ENDBRANCH   1   8
BRANCH   6   9
ATOM      9  O   UNL     1      12.730   7.119   7.116  0.00  0.00    +0.000 OA
ATOM     10  H   UNL     1      13.199   6.496   7.703  0.00  0.00    +0.000 HD
ENDBRANCH   6   9
TORSDOF 2
ENDMDL
MODEL 8
REMARK VINA RESULT:    -3.839     18.400     19.870
REMARK INTER + INTRA:          -4.224
REMARK INTER:                  -4.179
REMARK INTRA:                  -0.046
REMARK UNBOUND:                -0.049
REMARK  Name = 
REMARK  3 active torsions:
REMARK  status: ('A' for Active; 'I' for Inactive)
REMARK    1  A    between atoms: C_1  and  O_2
REMARK    2  A    between atoms: O_2  and  C_3
REMARK    3  A    between atoms: C_8  and  O_9
REMARK                            x       y       z     vdW  Elec       q    Type
REMARK                         _______ _______ _______ _____ _____    ______ ____
ROOT
ATOM      1  C   UNL     1      10.885   5.853   6.638  0.00  0.00    +0.000 A 
ATOM      2  C   UNL     1      11.422   5.120   7.695  0.00  0.00    +0.000 A 
ATOM      3  C   UNL     1      12.777   5.258   8.025  0.00  0.00    +0.000 A 
ATOM      4  C   UNL     1      13.596   6.126   7.301  0.00  0.00    +0.000 A 
ATOM      5  C   UNL     1      13.066   6.862   6.244  0.00  0.00    +0.000 A 
ATOM      6  C   UNL     1      11.722   6.719   5.924  0.00  0.00    +0.000 A 
ENDROOT
BRANCH   1   8
ATOM      7  C   UNL     1       8.579   5.824   7.213  0.00  0.00    +0.000 C 
ATOM      8  O   UNL     1       9.583   5.817   6.206  0.00  0.00    +0.000 OA
ENDBRANCH   1   8
BRANCH   6   9
ATOM      9  O   UNL     1      11.224   7.452   4.880  0.00  0.00    +0.000 OA
ATOM     10  H   UNL     1      12.000   7.913   4.508  0.00  0.00    +0.000 HD
ENDBRANCH   6   9
TORSDOF 2
ENDMDL
MODEL 9
REMARK VINA RESULT:    -3.824      1.382      3.090
REMARK INTER + INTRA:          -4.208
REMARK INTER:                  -4.159
REMARK INTRA:                  -0.049
REMARK UNBOUND:                -0.049
REMARK  Name = 
REMARK  3 active torsions:
REMARK  status: ('A' for Active; 'I' for Inactive)
REMARK    1  A    between atoms: C_1  and  O_2
REMARK    2  A    between atoms: O_2  and  C_3
REMARK    3  A    between atoms: C_8  and  O_9
REMARK                            x       y       z     vdW  Elec       q    Type
REMARK                         _______ _______ _______ _____ _____    ______ ____
ROOT
ATOM      1  C   UNL     1      -1.921   0.024  19.669  0.00  0.00    +0.000 A 
ATOM      2  C   UNL     1      -2.805  -0.730  20.440  0.00  0.00    +0.000 A 
ATOM      3  C   UNL     1      -2.768  -0.640  21.837  0.00  0.00    +0.000 A 
ATOM      4  C   UNL     1      -1.849   0.202  22.467  0.00  0.00    +0.000 A 
ATOM      5  C   UNL     1      -0.963   0.959  21.704  0.00  0.00    +0.000 A 
ATOM      6  C   UNL     1      -1.007   0.862  20.319  0.00  0.00    +0.000 A 
ENDROOT
BRANCH   1   8
ATOM      7  C   UNL     1      -3.063   0.249  17.597  0.00  0.00    +0.000 C 
ATOM      8  O   UNL     1      -1.844   0.034  18.299  0.00  0.00    +0.000 OA
ENDBRANCH   1   8
BRANCH   6   9
ATOM      9  O   UNL     1      -0.126   1.616  19.590  0.00  0.00    +0.000 OA
ATOM     10  H   UNL     1      -0.533   2.502  19.549  0.00  0.00    +0.000 HD
ENDBRANCH   6   9
TORSDOF 2
ENDMDL
