MODEL 1
REMARK VINA RESULT:    -4.367      0.000      0.000
REMARK INTER + INTRA:          -4.802
REMARK INTER:                  -4.750
REMARK INTRA:                  -0.052
REMARK UNBOUND:                -0.052
REMARK  Name = 
REMARK  3 active torsions:
REMARK  status: ('A' for Active; 'I' for Inactive)
REMARK    1  A    between atoms: C_1  and  O_2
REMARK    2  A    between atoms: O_2  and  C_3
REMARK    3  A    between atoms: C_8  and  O_9
REMARK                            x       y       z     vdW  Elec       q    Type
REMARK                         _______ _______ _______ _____ _____    ______ ____
ROOT
ATOM      1  C   UNL     1       5.081  22.729   2.774  0.00  0.00    +0.000 A 
ATOM      2  C   UNL     1       6.301  23.200   2.291  0.00  0.00    +0.000 A 
ATOM      3  C   UNL     1       7.500  22.659   2.772  0.00  0.00    +0.000 A 
ATOM      4  C   UNL     1       7.484  21.648   3.735  0.00  0.00    +0.000 A 
ATOM      5  C   UNL     1       6.269  21.172   4.222  0.00  0.00    +0.000 A 
ATOM      6  C   UNL     1       5.085  21.714   3.740  0.00  0.00    +0.000 A 
ENDROOT
BRANCH   1   8
ATOM      7  C   UNL     1       3.493  22.994   1.026  0.00  0.00    +0.000 C 
ATOM      8  O   UNL     1       3.836  23.164   2.396  0.00  0.00    +0.000 OA
ENDBRANCH   1   8
BRANCH   6   9
ATOM      9  O   UNL     1       3.903  21.230   4.234  0.00  0.00    +0.000 OA
ATOM     10  H   UNL     1       3.212  21.723   3.753  0.00  0.00    +0.000 HD
ENDBRANCH   6   9
TORSDOF 2
ENDMDL
MODEL 2
REMARK VINA RESULT:    -4.036      1.253      3.099
REMARK INTER + INTRA:          -4.442
REMARK INTER:                  -4.398
REMARK INTRA:                  -0.044
REMARK UNBOUND:                -0.052
REMARK  Name = 
REMARK  3 active torsions:
REMARK  status: ('A' for Active; 'I' for Inactive)
REMARK    1  A    between atoms: C_1  and  O_2
REMARK    2  A    between atoms: O_2  and  C_3
REMARK    3  A    between atoms: C_8  and  O_9
REMARK                            x       y       z     vdW  Elec       q    Type
REMARK                         _______ _______ _______ _____ _____    ______ ____
ROOT
ATOM      1  C   UNL     1       6.231  21.706   3.567  0.00  0.00    +0.000 A 
ATOM      2  C   UNL     1       7.115  22.496   2.834  0.00  0.00    +0.000 A 
ATOM      3  C   UNL     1       6.624  23.535   2.032  0.00  0.00    +0.000 A 
ATOM      4  C   UNL     1       5.253  23.786   1.960  0.00  0.00    +0.000 A 
ATOM      5  C   UNL     1       4.364  23.001   2.691  0.00  0.00    +0.000 A 
ATOM      6  C   UNL     1       4.859  21.973   3.483  0.00  0.00    +0.000 A 
ENDROOT
BRANCH   1   8
ATOM      7  C   UNL     1       7.725  20.837   5.199  0.00  0.00    +0.000 C 
ATOM      8  O   UNL     1       6.569  20.660   4.388  0.00  0.00    +0.000 OA
ENDBRANCH   1   8
BRANCH   6   9
ATOM      9  O   UNL     1       3.966  21.215   4.191  0.00  0.00    +0.000 OA
ATOM     10  H   UNL     1       3.508  21.850   4.774  0.00  0.00    +0.000 HD
ENDBRANCH   6   9
TORSDOF 2
ENDMDL
MODEL 3
REMARK VINA RESULT:    -3.554     18.449     20.341
REMARK INTER + INTRA:          -3.917
REMARK INTER:                  -3.865
REMARK INTRA:                  -0.053
REMARK UNBOUND:                -0.052
REMARK  Name = 
REMARK  3 active torsions:
REMARK  status: ('A' for Active; 'I' for Inactive)
REMARK    1  A    between atoms: C_1  and  O_2
REMARK    2  A    between atoms: O_2  and  C_3
REMARK    3  A    between atoms: C_8  and  O_9
REMARK                            x       y       z     vdW  Elec       q    Type
REMARK                         _______ _______ _______ _____ _____    ______ ____
ROOT
ATOM      1  C   UNL     1      -4.389  13.625 -11.515  0.00  0.00    +0.000 A 
ATOM      2  C   UNL     1      -4.020  14.174 -12.742  0.00  0.00    +0.000 A 
ATOM      3  C   UNL     1      -4.711  13.814 -13.906  0.00  0.00    +0.000 A 
ATOM      4  C   UNL     1      -5.770  12.907 -13.848  0.00  0.00    +0.000 A 
ATOM      5  C   UNL     1      -6.146  12.354 -12.625  0.00  0.00    +0.000 A 
ATOM      6  C   UNL     1      -5.454  12.716 -11.476  0.00  0.00    +0.000 A 
ENDROOT
BRANCH   1   8
ATOM      7  C   UNL     1      -3.971  15.199  -9.784  0.00  0.00    +0.000 C 
ATOM      8  O   UNL     1      -3.804  13.884 -10.301  0.00  0.00    +0.000 OA
ENDBRANCH   1   8
BRANCH   6   9
ATOM      9  O   UNL     1      -5.841  12.160 -10.286  0.00  0.00    +0.000 OA
ATOM     10  H   UNL     1      -5.334  11.328 -10.225  0.00  0.00    +0.000 HD
ENDBRANCH   6   9
TORSDOF 2
ENDMDL
MODEL 4
REMARK VINA RESULT:    -3.547      2.001      3.244
REMARK INTER + INTRA:          -3.910
REMARK INTER:                  -3.869
REMARK INTRA:                  -0.042
REMARK UNBOUND:                -0.052
REMARK  Name = 
REMARK  3 active torsions:
REMARK  status: ('A' for Active; 'I' for Inactive)
REMARK    1  A    between atoms: C_1  and  O_2
REMARK    2  A    between atoms: O_2  and  C_3
REMARK    3  A    between atoms: C_8  and  O_9
REMARK                            x       y       z     vdW  Elec       q    Type
REMARK                         _______ _______ _______ _____ _____    ______ ____
ROOT
ATOM      1  C   UNL     1       7.126  22.283   3.173  0.00  0.00    +0.000 A 
ATOM      2  C   UNL     1       6.678  23.332   2.372  0.00  0.00    +0.000 A 
ATOM      3  C   UNL     1       5.305  23.555   2.214  0.00  0.00    +0.000 A 
ATOM      4  C   UNL     1       4.376  22.731   2.853  0.00  0.00    +0.000 A 
ATOM      5  C   UNL     1       4.815  21.681   3.655  0.00  0.00    +0.000 A 
ATOM      6  C   UNL     1       6.180  21.467   3.806  0.00  0.00    +0.000 A 
ENDROOT
BRANCH   1   8
ATOM      7  C   UNL     1       9.360  22.204   2.367  0.00  0.00    +0.000 C 
ATOM      8  O   UNL     1       8.434  21.949   3.416  0.00  0.00    +0.000 OA
ENDBRANCH   1   8
BRANCH   6   9
ATOM      9  O   UNL     1       6.587  20.428   4.599  0.00  0.00    +0.000 OA
ATOM     10  H   UNL     1       7.299  20.803   5.153  0.00  0.00    +0.000 HD
ENDBRANCH   6   9
TORSDOF 2
ENDMDL
MODEL 5
REMARK VINA RESULT:    -3.479      0.962      2.244
REMARK INTER + INTRA:          -3.836
REMARK INTER:                  -3.907
REMARK INTRA:                   0.071
REMARK UNBOUND:                -0.052
REMARK  Name = 
REMARK  3 active torsions:
REMARK  status: ('A' for Active; 'I' for Inactive)
REMARK    1  A    between atoms: C_1  and  O_2
REMARK    2  A    between atoms: O_2  and  C_3
REMARK    3  A    between atoms: C_8  and  O_9
REMARK                            x       y       z     vdW  Elec       q    Type
REMARK                         _______ _______ _______ _____ _____    ______ ____
ROOT
ATOM      1  C   UNL     1       5.008  22.637   2.810  0.00  0.00    +0.000 A 
ATOM      2  C   UNL     1       4.976  21.576   3.714  0.00  0.00    +0.000 A 
ATOM      3  C   UNL     1       6.171  21.060   4.230  0.00  0.00    +0.000 A 
ATOM      4  C   UNL     1       7.400  21.599   3.845  0.00  0.00    +0.000 A 
ATOM      5  C   UNL     1       7.440  22.659   2.942  0.00  0.00    +0.000 A 
ATOM      6  C   UNL     1       6.250  23.165   2.435  0.00  0.00    +0.000 A 
ENDROOT
BRANCH   1   8
ATOM      7  C   UNL     1       3.499  22.709   0.975  0.00  0.00    +0.000 C 
ATOM      8  O   UNL     1       3.922  23.238   2.226  0.00  0.00    +0.000 OA
ENDBRANCH   1   8
BRANCH   6   9
ATOM      9  O   UNL     1       6.315  24.206   1.548  0.00  0.00    +0.000 OA
ATOM     10  H   UNL     1       7.138  24.678   1.780  0.00  0.00    +0.000 HD
ENDBRANCH   6   9
TORSDOF 2
ENDMDL
MODEL 6
REMARK VINA RESULT:    -3.418     17.272     18.951
REMARK INTER + INTRA:          -3.770
REMARK INTER:                  -3.717
REMARK INTRA:                  -0.052
REMARK UNBOUND:                -0.052
REMARK  Name = 
REMARK  3 active torsions:
REMARK  status: ('A' for Active; 'I' for Inactive)
REMARK    1  A    between atoms: C_1  and  O_2
REMARK    2  A    between atoms: O_2  and  C_3
REMARK    3  A    between atoms: C_8  and  O_9
REMARK                            x       y       z     vdW  Elec       q    Type
REMARK                         _______ _______ _______ _____ _____    ______ ____
ROOT
ATOM      1  C   UNL     1      -4.272  15.185 -10.582  0.00  0.00    +0.000 A 
ATOM      2  C   UNL     1      -4.239  16.290 -11.431  0.00  0.00    +0.000 A 
ATOM      3  C   UNL     1      -4.277  16.107 -12.819  0.00  0.00    +0.000 A 
ATOM      4  C   UNL     1      -4.347  14.823 -13.362  0.00  0.00    +0.000 A 
ATOM      5  C   UNL     1      -4.381  13.714 -12.520  0.00  0.00    +0.000 A 
ATOM      6  C   UNL     1      -4.343  13.905 -11.144  0.00  0.00    +0.000 A 
ENDROOT
BRANCH   1   8
ATOM      7  C   UNL     1      -5.386  15.753  -8.561  0.00  0.00    +0.000 C 
ATOM      8  O   UNL     1      -4.241  15.214  -9.210  0.00  0.00    +0.000 OA
ENDBRANCH   1   8
BRANCH   6   9
ATOM      9  O   UNL     1      -4.377  12.799 -10.337  0.00  0.00    +0.000 OA
ATOM     10  H   UNL     1      -4.902  12.144 -10.836  0.00  0.00    +0.000 HD
ENDBRANCH   6   9
TORSDOF 2
ENDMDL
MODEL 7
REMARK VINA RESULT:    -3.408     18.526     20.108
REMARK INTER + INTRA:          -3.759
REMARK INTER:                  -3.721
REMARK INTRA:                  -0.038
REMARK UNBOUND:                -0.052
REMARK  Name = 
REMARK  3 active torsions:
REMARK  status: ('A' for Active; 'I' for Inactive)
REMARK    1  A    between atoms: C_1  and  O_2
REMARK    2  A    between atoms: O_2  and  C_3
REMARK    3  A    between atoms: C_8  and  O_9
REMARK                            x       y       z     vdW  Elec       q    Type
REMARK                         _______ _______ _______ _____ _____    ______ ____
ROOT
ATOM      1  C   UNL     1      -5.182  13.505 -12.291  0.00  0.00    +0.000 A 
ATOM      2  C   UNL     1      -5.091  14.757 -12.898  0.00  0.00    +0.000 A 
ATOM      3  C   UNL     1      -4.474  15.819 -12.225  0.00  0.00    +0.000 A 
ATOM      4  C   UNL     1      -3.949  15.634 -10.944  0.00  0.00    +0.000 A 
ATOM      5  C   UNL     1      -4.035  14.387 -10.331  0.00  0.00    +0.000 A 
ATOM      6  C   UNL     1      -4.649  13.340 -11.006  0.00  0.00    +0.000 A 
ENDROOT
BRANCH   1   8
ATOM      7  C   UNL     1      -6.036  12.419 -14.224  0.00  0.00    +0.000 C 
ATOM      8  O   UNL     1      -5.756  12.382 -12.829  0.00  0.00    +0.000 OA
ENDBRANCH   1   8
BRANCH   6   9
ATOM      9  O   UNL     1      -4.722  12.123 -10.383  0.00  0.00    +0.000 OA
ATOM     10  H   UNL     1      -3.853  12.011  -9.953  0.00  0.00    +0.000 HD
ENDBRANCH   6   9
TORSDOF 2
ENDMDL
MODEL 8
REMARK VINA RESULT:    -3.216     18.084     19.504
REMARK INTER + INTRA:          -3.550
REMARK INTER:                  -3.512
REMARK INTRA:                  -0.038
REMARK UNBOUND:                -0.052
REMARK  Name = 
REMARK  3 active torsions:
REMARK  status: ('A' for Active; 'I' for Inactive)
REMARK    1  A    between atoms: C_1  and  O_2
REMARK    2  A    between atoms: O_2  and  C_3
REMARK    3  A    between atoms: C_8  and  O_9
REMARK                            x       y       z     vdW  Elec       q    Type
REMARK                         _______ _______ _______ _____ _____    ______ ____
ROOT
ATOM      1  C   UNL     1      -4.240  14.893 -12.695  0.00  0.00    +0.000 A 
ATOM      2  C   UNL     1      -3.848  13.694 -12.100  0.00  0.00    +0.000 A 
ATOM      3  C   UNL     1      -3.657  13.631 -10.714  0.00  0.00    +0.000 A 
ATOM      4  C   UNL     1      -3.855  14.763  -9.920  0.00  0.00    +0.000 A 
ATOM      5  C   UNL     1      -4.247  15.963 -10.507  0.00  0.00    +0.000 A 
ATOM      6  C   UNL     1      -4.434  16.017 -11.883  0.00  0.00    +0.000 A 
ENDROOT
BRANCH   1   8
ATOM      7  C   UNL     1      -3.994  14.088 -14.917  0.00  0.00    +0.000 C 
ATOM      8  O   UNL     1      -4.462  15.099 -14.033  0.00  0.00    +0.000 OA
ENDBRANCH   1   8
BRANCH   6   9
ATOM      9  O   UNL     1      -4.819  17.208 -12.437  0.00  0.00    +0.000 OA
ATOM     10  H   UNL     1      -5.220  17.707 -11.700  0.00  0.00    +0.000 HD
ENDBRANCH   6   9
TORSDOF 2
ENDMDL
MODEL 9
REMARK VINA RESULT:    -3.172      2.210      4.036
REMARK INTER + INTRA:          -3.502
REMARK INTER:                  -3.457
REMARK INTRA:                  -0.044
REMARK UNBOUND:                -0.052
REMARK  Name = 
REMARK  3 active torsions:
REMARK  status: ('A' for Active; 'I' for Inactive)
REMARK    1  A    between atoms: C_1  and  O_2
REMARK    2  A    between atoms: O_2  and  C_3
REMARK    3  A    between atoms: C_8  and  O_9
REMARK                            x       y       z     vdW  Elec       q    Type
REMARK                         _______ _______ _______ _____ _____    ______ ____
ROOT
ATOM      1  C   UNL     1       7.072  21.980   3.468  0.00  0.00    +0.000 A 
ATOM      2  C   UNL     1       5.952  21.295   3.939  0.00  0.00    +0.000 A 
ATOM      3  C   UNL     1       4.669  21.707   3.559  0.00  0.00    +0.000 A 
ATOM      4  C   UNL     1       4.500  22.803   2.711  0.00  0.00    +0.000 A 
ATOM      5  C   UNL     1       5.614  23.492   2.236  0.00  0.00    +0.000 A 
ATOM      6  C   UNL     1       6.883  23.076   2.618  0.00  0.00    +0.000 A 
ENDROOT
BRANCH   1   8
ATOM      7  C   UNL     1       8.667  21.313   5.099  0.00  0.00    +0.000 C 
ATOM      8  O   UNL     1       8.381  21.689   3.757  0.00  0.00    +0.000 OA
ENDBRANCH   1   8
BRANCH   6   9
ATOM      9  O   UNL     1       7.962  23.769   2.139  0.00  0.00    +0.000 OA
ATOM     10  H   UNL     1       7.592  24.368   1.462  0.00  0.00    +0.000 HD
ENDBRANCH   6   9
TORSDOF 2
ENDMDL
