MODEL 1
REMARK VINA RESULT:    -4.581      0.000      0.000
REMARK INTER + INTRA:          -6.640
REMARK INTER:                  -6.188
REMARK INTRA:                  -0.452
REMARK UNBOUND:                -0.452
REMARK  Name = 
REMARK  10 active torsions:
REMARK  status: ('A' for Active; 'I' for Inactive)
REMARK    1  A    between atoms: C_1  and  C_2
REMARK    2  A    between atoms: C_5  and  N_8
REMARK    3  A    between atoms: N_8  and  C_9
REMARK    4  A    between atoms: N_8  and  C_13
REMARK    5  A    between atoms: C_9  and  C_10
REMARK    6  A    between atoms: C_10  and  C_11
REMARK    7  A    between atoms: C_10  and  O_12
REMARK    8  A    between atoms: C_13  and  C_14
REMARK    9  A    between atoms: C_14  and  C_15
REMARK   10  A    between atoms: C_14  and  O_16
REMARK                            x       y       z     vdW  Elec       q    Type
REMARK                         _______ _______ _______ _____ _____    ______ ____
ROOT
ATOM      1  N   UNL     1      -3.405  18.836  -6.123  0.00  0.00    +0.000 N 
ENDROOT
BRANCH   1   6
ATOM      2  C   UNL     1       0.296  20.861 -10.064  0.00  0.00    +0.000 C 
ATOM      3  C   UNL     1      -0.667  20.359  -9.032  0.00  0.00    +0.000 A 
ATOM      4  C   UNL     1      -0.216  19.893  -7.802  0.00  0.00    +0.000 A 
ATOM      5  C   UNL     1      -1.121  19.395  -6.850  0.00  0.00    +0.000 A 
ATOM      6  C   UNL     1      -2.506  19.316  -7.084  0.00  0.00    +0.000 A 
ATOM      7  C   UNL     1      -2.926  19.798  -8.338  0.00  0.00    +0.000 A 
ATOM      8  C   UNL     1      -2.032  20.300  -9.298  0.00  0.00    +0.000 A 
ENDBRANCH   1   6
BRANCH   1   9
ATOM      9  C   UNL     1      -3.456  17.388  -5.810  0.00  0.00    +0.000 C 
BRANCH   9  10
ATOM     10  C   UNL     1      -4.798  16.960  -5.168  0.00  0.00    +0.000 C 
ATOM     11  C   UNL     1      -5.638  16.150  -6.149  0.00  0.00    +0.000 C 
BRANCH  10  12
ATOM     12  O   UNL     1      -4.577  16.154  -4.002  0.00  0.00    +0.000 OA
ATOM     13  H   UNL     1      -5.280  15.486  -3.960  0.00  0.00    +0.000 HD
ENDBRANCH  10  12
ENDBRANCH   9  10
ENDBRANCH   1   9
BRANCH   1  14
ATOM     14  C   UNL     1      -4.633  19.594  -5.773  0.00  0.00    +0.000 C 
BRANCH  14  15
ATOM     15  C   UNL     1      -4.311  20.983  -5.170  0.00  0.00    +0.000 C 
ATOM     16  C   UNL     1      -4.952  22.133  -5.937  0.00  0.00    +0.000 C 
BRANCH  15  17
ATOM     17  O   UNL     1      -4.727  21.075  -3.808  0.00  0.00    +0.000 OA
ATOM     18  H   UNL     1      -5.492  21.685  -3.818  0.00  0.00    +0.000 HD
ENDBRANCH  15  17
ENDBRANCH  14  15
ENDBRANCH   1  14
TORSDOF 7
ENDMDL
MODEL 2
REMARK VINA RESULT:    -4.434      2.602      4.685
REMARK INTER + INTRA:          -6.442
REMARK INTER:                  -5.945
REMARK INTRA:                  -0.496
REMARK UNBOUND:                -0.452
REMARK  Name = 
REMARK  10 active torsions:
REMARK  status: ('A' for Active; 'I' for Inactive)
REMARK    1  A    between atoms: C_1  and  C_2
REMARK    2  A    between atoms: C_5  and  N_8
REMARK    3  A    between atoms: N_8  and  C_9
REMARK    4  A    between atoms: N_8  and  C_13
REMARK    5  A    between atoms: C_9  and  C_10
REMARK    6  A    between atoms: C_10  and  C_11
REMARK    7  A    between atoms: C_10  and  O_12
REMARK    8  A    between atoms: C_13  and  C_14
REMARK    9  A    between atoms: C_14  and  C_15
REMARK   10  A    between atoms: C_14  and  O_16
REMARK                            x       y       z     vdW  Elec       q    Type
REMARK                         _______ _______ _______ _____ _____    ______ ____
ROOT
ATOM      1  N   UNL     1      -2.316  20.810  -7.243  0.00  0.00    +0.000 N 
ENDROOT
BRANCH   1   6
ATOM      2  C   UNL     1      -5.692  16.212  -6.356  0.00  0.00    +0.000 C 
ATOM      3  C   UNL     1      -4.796  17.391  -6.581  0.00  0.00    +0.000 A 
ATOM      4  C   UNL     1      -4.507  18.276  -5.547  0.00  0.00    +0.000 A 
ATOM      5  C   UNL     1      -3.690  19.396  -5.771  0.00  0.00    +0.000 A 
ATOM      6  C   UNL     1      -3.145  19.702  -7.031  0.00  0.00    +0.000 A 
ATOM      7  C   UNL     1      -3.457  18.785  -8.052  0.00  0.00    +0.000 A 
ATOM      8  C   UNL     1      -4.270  17.659  -7.841  0.00  0.00    +0.000 A 
ENDBRANCH   1   6
BRANCH   1   9
ATOM      9  C   UNL     1      -1.020  20.916  -6.531  0.00  0.00    +0.000 C 
BRANCH   9  10
ATOM     10  C   UNL     1       0.054  19.952  -7.094  0.00  0.00    +0.000 C 
ATOM     11  C   UNL     1      -0.030  18.588  -6.419  0.00  0.00    +0.000 C 
BRANCH  10  12
ATOM     12  O   UNL     1      -0.115  19.761  -8.505  0.00  0.00    +0.000 OA
ATOM     13  H   UNL     1      -0.221  20.635  -8.917  0.00  0.00    +0.000 HD
ENDBRANCH  10  12
ENDBRANCH   9  10
ENDBRANCH   1   9
BRANCH   1  14
ATOM     14  C   UNL     1      -2.867  22.101  -7.730  0.00  0.00    +0.000 C 
BRANCH  14  15
ATOM     15  C   UNL     1      -2.934  23.168  -6.611  0.00  0.00    +0.000 C 
ATOM     16  C   UNL     1      -2.415  24.532  -7.052  0.00  0.00    +0.000 C 
BRANCH  15  17
ATOM     17  O   UNL     1      -4.264  23.338  -6.124  0.00  0.00    +0.000 OA
ATOM     18  H   UNL     1      -4.158  23.588  -5.184  0.00  0.00    +0.000 HD
ENDBRANCH  15  17
ENDBRANCH  14  15
ENDBRANCH   1  14
TORSDOF 7
ENDMDL
MODEL 3
REMARK VINA RESULT:    -4.413      1.084      3.344
REMARK INTER + INTRA:          -6.412
REMARK INTER:                  -5.792
REMARK INTRA:                  -0.620
REMARK UNBOUND:                -0.452
REMARK  Name = 
REMARK  10 active torsions:
REMARK  status: ('A' for Active; 'I' for Inactive)
REMARK    1  A    between atoms: C_1  and  C_2
REMARK    2  A    between atoms: C_5  and  N_8
REMARK    3  A    between atoms: N_8  and  C_9
REMARK    4  A    between atoms: N_8  and  C_13
REMARK    5  A    between atoms: C_9  and  C_10
REMARK    6  A    between atoms: C_10  and  C_11
REMARK    7  A    between atoms: C_10  and  O_12
REMARK    8  A    between atoms: C_13  and  C_14
REMARK    9  A    between atoms: C_14  and  C_15
REMARK   10  A    between atoms: C_14  and  O_16
REMARK                            x       y       z     vdW  Elec       q    Type
REMARK                         _______ _______ _______ _____ _____    ______ ____
ROOT
ATOM      1  N   UNL     1      -3.047  19.591  -6.236  0.00  0.00    +0.000 N 
ENDROOT
BRANCH   1   6
ATOM      2  C   UNL     1       0.363  20.767 -10.744  0.00  0.00    +0.000 C 
ATOM      3  C   UNL     1      -0.531  20.486  -9.575  0.00  0.00    +0.000 A 
ATOM      4  C   UNL     1      -0.083  20.672  -8.272  0.00  0.00    +0.000 A 
ATOM      5  C   UNL     1      -0.915  20.378  -7.179  0.00  0.00    +0.000 A 
ATOM      6  C   UNL     1      -2.216  19.865  -7.330  0.00  0.00    +0.000 A 
ATOM      7  C   UNL     1      -2.636  19.691  -8.661  0.00  0.00    +0.000 A 
ATOM      8  C   UNL     1      -1.815  19.983  -9.763  0.00  0.00    +0.000 A 
ENDBRANCH   1   6
BRANCH   1   9
ATOM      9  C   UNL     1      -3.614  20.704  -5.438  0.00  0.00    +0.000 C 
BRANCH   9  10
ATOM     10  C   UNL     1      -4.398  21.724  -6.301  0.00  0.00    +0.000 C 
ATOM     11  C   UNL     1      -5.692  21.113  -6.825  0.00  0.00    +0.000 C 
BRANCH  10  12
ATOM     12  O   UNL     1      -4.734  22.892  -5.540  0.00  0.00    +0.000 OA
ATOM     13  H   UNL     1      -4.988  22.607  -4.646  0.00  0.00    +0.000 HD
ENDBRANCH  10  12
ENDBRANCH   9  10
ENDBRANCH   1   9
BRANCH   1  14
ATOM     14  C   UNL     1      -2.986  18.285  -5.532  0.00  0.00    +0.000 C 
BRANCH  14  15
ATOM     15  C   UNL     1      -4.344  17.543  -5.559  0.00  0.00    +0.000 C 
ATOM     16  C   UNL     1      -4.653  16.906  -6.909  0.00  0.00    +0.000 C 
BRANCH  15  17
ATOM     17  O   UNL     1      -4.407  16.522  -4.564  0.00  0.00    +0.000 OA
ATOM     18  H   UNL     1      -3.723  15.873  -4.825  0.00  0.00    +0.000 HD
ENDBRANCH  15  17
ENDBRANCH  14  15
ENDBRANCH   1  14
TORSDOF 7
ENDMDL
MODEL 4
REMARK VINA RESULT:    -4.395      2.473      5.599
REMARK INTER + INTRA:          -6.388
REMARK INTER:                  -6.049
REMARK INTRA:                  -0.340
REMARK UNBOUND:                -0.452
REMARK  Name = 
REMARK  10 active torsions:
REMARK  status: ('A' for Active; 'I' for Inactive)
REMARK    1  A    between atoms: C_1  and  C_2
REMARK    2  A    between atoms: C_5  and  N_8
REMARK    3  A    between atoms: N_8  and  C_9
REMARK    4  A    between atoms: N_8  and  C_13
REMARK    5  A    between atoms: C_9  and  C_10
REMARK    6  A    between atoms: C_10  and  C_11
REMARK    7  A    between atoms: C_10  and  O_12
REMARK    8  A    between atoms: C_13  and  C_14
REMARK    9  A    between atoms: C_14  and  C_15
REMARK   10  A    between atoms: C_14  and  O_16
REMARK                            x       y       z     vdW  Elec       q    Type
REMARK                         _______ _______ _______ _____ _____    ______ ____
ROOT
ATOM      1  N   UNL     1      -2.668  20.948  -7.795  0.00  0.00    +0.000 N 
ENDROOT
BRANCH   1   6
ATOM      2  C   UNL     1      -4.996  16.547  -4.873  0.00  0.00    +0.000 C 
ATOM      3  C   UNL     1      -4.395  17.704  -5.611  0.00  0.00    +0.000 A 
ATOM      4  C   UNL     1      -5.180  18.520  -6.419  0.00  0.00    +0.000 A 
ATOM      5  C   UNL     1      -4.606  19.585  -7.133  0.00  0.00    +0.000 A 
ATOM      6  C   UNL     1      -3.230  19.872  -7.096  0.00  0.00    +0.000 A 
ATOM      7  C   UNL     1      -2.468  19.028  -6.268  0.00  0.00    +0.000 A 
ATOM      8  C   UNL     1      -3.029  17.961  -5.547  0.00  0.00    +0.000 A 
ENDBRANCH   1   6
BRANCH   1   9
ATOM      9  C   UNL     1      -3.389  22.241  -7.876  0.00  0.00    +0.000 C 
BRANCH   9  10
ATOM     10  C   UNL     1      -3.283  23.069  -6.571  0.00  0.00    +0.000 C 
ATOM     11  C   UNL     1      -2.643  24.426  -6.838  0.00  0.00    +0.000 C 
BRANCH  10  12
ATOM     12  O   UNL     1      -4.579  23.294  -5.999  0.00  0.00    +0.000 OA
ATOM     13  H   UNL     1      -4.656  22.743  -5.202  0.00  0.00    +0.000 HD
ENDBRANCH  10  12
ENDBRANCH   9  10
ENDBRANCH   1   9
BRANCH   1  14
ATOM     14  C   UNL     1      -1.660  20.727  -8.865  0.00  0.00    +0.000 C 
BRANCH  14  15
ATOM     15  C   UNL     1      -0.211  20.826  -8.331  0.00  0.00    +0.000 C 
ATOM     16  C   UNL     1      -0.099  21.635  -7.044  0.00  0.00    +0.000 C 
BRANCH  15  17
ATOM     17  O   UNL     1       0.352  19.537  -8.093  0.00  0.00    +0.000 OA
ATOM     18  H   UNL     1       1.082  19.456  -8.740  0.00  0.00    +0.000 HD
ENDBRANCH  15  17
ENDBRANCH  14  15
ENDBRANCH   1  14
TORSDOF 7
ENDMDL
MODEL 5
REMARK VINA RESULT:    -4.392      1.877      2.046
REMARK INTER + INTRA:          -6.385
REMARK INTER:                  -5.859
REMARK INTRA:                  -0.526
REMARK UNBOUND:                -0.452
REMARK  Name = 
REMARK  10 active torsions:
REMARK  status: ('A' for Active; 'I' for Inactive)
REMARK    1  A    between atoms: C_1  and  C_2
REMARK    2  A    between atoms: C_5  and  N_8
REMARK    3  A    between atoms: N_8  and  C_9
REMARK    4  A    between atoms: N_8  and  C_13
REMARK    5  A    between atoms: C_9  and  C_10
REMARK    6  A    between atoms: C_10  and  C_11
REMARK    7  A    between atoms: C_10  and  O_12
REMARK    8  A    between atoms: C_13  and  C_14
REMARK    9  A    between atoms: C_14  and  C_15
REMARK   10  A    between atoms: C_14  and  O_16
REMARK                            x       y       z     vdW  Elec       q    Type
REMARK                         _______ _______ _______ _____ _____    ______ ____
ROOT
ATOM      1  N   UNL     1      -2.350  19.947  -5.895  0.00  0.00    +0.000 N 
ENDROOT
BRANCH   1   6
ATOM      2  C   UNL     1       0.543  23.733  -9.155  0.00  0.00    +0.000 C 
ATOM      3  C   UNL     1      -0.229  22.763  -8.314  0.00  0.00    +0.000 A 
ATOM      4  C   UNL     1      -0.356  22.951  -6.941  0.00  0.00    +0.000 A 
ATOM      5  C   UNL     1      -1.055  22.023  -6.153  0.00  0.00    +0.000 A 
ATOM      6  C   UNL     1      -1.638  20.859  -6.685  0.00  0.00    +0.000 A 
ATOM      7  C   UNL     1      -1.492  20.702  -8.075  0.00  0.00    +0.000 A 
ATOM      8  C   UNL     1      -0.797  21.624  -8.876  0.00  0.00    +0.000 A 
ENDBRANCH   1   6
BRANCH   1   9
ATOM      9  C   UNL     1      -2.274  18.495  -6.184  0.00  0.00    +0.000 C 
BRANCH   9  10
ATOM     10  C   UNL     1      -3.357  17.677  -5.439  0.00  0.00    +0.000 C 
ATOM     11  C   UNL     1      -4.319  17.023  -6.423  0.00  0.00    +0.000 C 
BRANCH  10  12
ATOM     12  O   UNL     1      -2.764  16.642  -4.643  0.00  0.00    +0.000 OA
ATOM     13  H   UNL     1      -3.130  15.791  -4.934  0.00  0.00    +0.000 HD
ENDBRANCH  10  12
ENDBRANCH   9  10
ENDBRANCH   1   9
BRANCH   1  14
ATOM     14  C   UNL     1      -3.550  20.369  -5.127  0.00  0.00    +0.000 C 
BRANCH  14  15
ATOM     15  C   UNL     1      -4.465  21.312  -5.944  0.00  0.00    +0.000 C 
ATOM     16  C   UNL     1      -5.692  20.610  -6.515  0.00  0.00    +0.000 C 
BRANCH  15  17
ATOM     17  O   UNL     1      -4.913  22.419  -5.163  0.00  0.00    +0.000 OA
ATOM     18  H   UNL     1      -4.163  22.631  -4.572  0.00  0.00    +0.000 HD
ENDBRANCH  15  17
ENDBRANCH  14  15
ENDBRANCH   1  14
TORSDOF 7
ENDMDL
MODEL 6
REMARK VINA RESULT:    -4.391      2.994      4.382
REMARK INTER + INTRA:          -6.383
REMARK INTER:                  -5.612
REMARK INTRA:                  -0.770
REMARK UNBOUND:                -0.452
REMARK  Name = 
REMARK  10 active torsions:
REMARK  status: ('A' for Active; 'I' for Inactive)
REMARK    1  A    between atoms: C_1  and  C_2
REMARK    2  A    between atoms: C_5  and  N_8
REMARK    3  A    between atoms: N_8  and  C_9
REMARK    4  A    between atoms: N_8  and  C_13
REMARK    5  A    between atoms: C_9  and  C_10
REMARK    6  A    between atoms: C_10  and  C_11
REMARK    7  A    between atoms: C_10  and  O_12
REMARK    8  A    between atoms: C_13  and  C_14
REMARK    9  A    between atoms: C_14  and  C_15
REMARK   10  A    between atoms: C_14  and  O_16
REMARK                            x       y       z     vdW  Elec       q    Type
REMARK                         _______ _______ _______ _____ _____    ______ ____
ROOT
ATOM      1  N   UNL     1      -3.940  21.444  -7.810  0.00  0.00    +0.000 N 
ENDROOT
BRANCH   1   6
ATOM      2  C   UNL     1      -0.221  17.293  -6.305  0.00  0.00    +0.000 C 
ATOM      3  C   UNL     1      -1.199  18.366  -6.674  0.00  0.00    +0.000 A 
ATOM      4  C   UNL     1      -2.333  18.073  -7.423  0.00  0.00    +0.000 A 
ATOM      5  C   UNL     1      -3.231  19.088  -7.791  0.00  0.00    +0.000 A 
ATOM      6  C   UNL     1      -3.031  20.440  -7.455  0.00  0.00    +0.000 A 
ATOM      7  C   UNL     1      -1.875  20.699  -6.696  0.00  0.00    +0.000 A 
ATOM      8  C   UNL     1      -0.971  19.693  -6.319  0.00  0.00    +0.000 A 
ENDBRANCH   1   6
BRANCH   1   9
ATOM      9  C   UNL     1      -5.326  21.411  -7.285  0.00  0.00    +0.000 C 
BRANCH   9  10
ATOM     10  C   UNL     1      -5.473  22.147  -5.931  0.00  0.00    +0.000 C 
ATOM     11  C   UNL     1      -5.187  21.206  -4.766  0.00  0.00    +0.000 C 
BRANCH  10  12
ATOM     12  O   UNL     1      -4.563  23.252  -5.844  0.00  0.00    +0.000 OA
ATOM     13  H   UNL     1      -4.689  23.809  -6.630  0.00  0.00    +0.000 HD
ENDBRANCH  10  12
ENDBRANCH   9  10
ENDBRANCH   1   9
BRANCH   1  14
ATOM     14  C   UNL     1      -3.761  22.240  -9.051  0.00  0.00    +0.000 C 
BRANCH  14  15
ATOM     15  C   UNL     1      -2.662  23.320  -8.900  0.00  0.00    +0.000 C 
ATOM     16  C   UNL     1      -2.378  24.072 -10.195  0.00  0.00    +0.000 C 
BRANCH  15  17
ATOM     17  O   UNL     1      -2.999  24.277  -7.897  0.00  0.00    +0.000 OA
ATOM     18  H   UNL     1      -3.856  24.652  -8.184  0.00  0.00    +0.000 HD
ENDBRANCH  15  17
ENDBRANCH  14  15
ENDBRANCH   1  14
TORSDOF 7
ENDMDL
MODEL 7
REMARK VINA RESULT:    -4.391      2.545      5.269
REMARK INTER + INTRA:          -6.383
REMARK INTER:                  -5.875
REMARK INTRA:                  -0.508
REMARK UNBOUND:                -0.452
REMARK  Name = 
REMARK  10 active torsions:
REMARK  status: ('A' for Active; 'I' for Inactive)
REMARK    1  A    between atoms: C_1  and  C_2
REMARK    2  A    between atoms: C_5  and  N_8
REMARK    3  A    between atoms: N_8  and  C_9
REMARK    4  A    between atoms: N_8  and  C_13
REMARK    5  A    between atoms: C_9  and  C_10
REMARK    6  A    between atoms: C_10  and  C_11
REMARK    7  A    between atoms: C_10  and  O_12
REMARK    8  A    between atoms: C_13  and  C_14
REMARK    9  A    between atoms: C_14  and  C_15
REMARK   10  A    between atoms: C_14  and  O_16
REMARK                            x       y       z     vdW  Elec       q    Type
REMARK                         _______ _______ _______ _____ _____    ______ ____
ROOT
ATOM      1  N   UNL     1      -2.699  20.818  -7.507  0.00  0.00    +0.000 N 
ENDROOT
BRANCH   1   6
ATOM      2  C   UNL     1      -4.936  16.300  -4.695  0.00  0.00    +0.000 C 
ATOM      3  C   UNL     1      -4.354  17.485  -5.403  0.00  0.00    +0.000 A 
ATOM      4  C   UNL     1      -5.177  18.453  -5.970  0.00  0.00    +0.000 A 
ATOM      5  C   UNL     1      -4.626  19.546  -6.659  0.00  0.00    +0.000 A 
ATOM      6  C   UNL     1      -3.241  19.715  -6.836  0.00  0.00    +0.000 A 
ATOM      7  C   UNL     1      -2.440  18.719  -6.248  0.00  0.00    +0.000 A 
ATOM      8  C   UNL     1      -2.978  17.621  -5.555  0.00  0.00    +0.000 A 
ENDBRANCH   1   6
BRANCH   1   9
ATOM      9  C   UNL     1      -1.229  21.002  -7.567  0.00  0.00    +0.000 C 
BRANCH   9  10
ATOM     10  C   UNL     1      -0.685  21.026  -9.016  0.00  0.00    +0.000 C 
ATOM     11  C   UNL     1      -0.151  22.407  -9.376  0.00  0.00    +0.000 C 
BRANCH  10  12
ATOM     12  O   UNL     1       0.381  20.081  -9.182  0.00  0.00    +0.000 OA
ATOM     13  H   UNL     1       1.211  20.576  -9.276  0.00  0.00    +0.000 HD
ENDBRANCH  10  12
ENDBRANCH   9  10
ENDBRANCH   1   9
BRANCH   1  14
ATOM     14  C   UNL     1      -3.492  22.055  -7.720  0.00  0.00    +0.000 C 
BRANCH  14  15
ATOM     15  C   UNL     1      -3.348  23.052  -6.544  0.00  0.00    +0.000 C 
ATOM     16  C   UNL     1      -2.722  24.379  -6.957  0.00  0.00    +0.000 C 
BRANCH  15  17
ATOM     17  O   UNL     1      -4.605  23.328  -5.930  0.00  0.00    +0.000 OA
ATOM     18  H   UNL     1      -4.741  24.289  -6.053  0.00  0.00    +0.000 HD
ENDBRANCH  15  17
ENDBRANCH  14  15
ENDBRANCH   1  14
TORSDOF 7
ENDMDL
MODEL 8
REMARK VINA RESULT:    -4.386      3.223      5.491
REMARK INTER + INTRA:          -6.376
REMARK INTER:                  -5.721
REMARK INTRA:                  -0.654
REMARK UNBOUND:                -0.452
REMARK  Name = 
REMARK  10 active torsions:
REMARK  status: ('A' for Active; 'I' for Inactive)
REMARK    1  A    between atoms: C_1  and  C_2
REMARK    2  A    between atoms: C_5  and  N_8
REMARK    3  A    between atoms: N_8  and  C_9
REMARK    4  A    between atoms: N_8  and  C_13
REMARK    5  A    between atoms: C_9  and  C_10
REMARK    6  A    between atoms: C_10  and  C_11
REMARK    7  A    between atoms: C_10  and  O_12
REMARK    8  A    between atoms: C_13  and  C_14
REMARK    9  A    between atoms: C_14  and  C_15
REMARK   10  A    between atoms: C_14  and  O_16
REMARK                            x       y       z     vdW  Elec       q    Type
REMARK                         _______ _______ _______ _____ _____    ______ ____
ROOT
ATOM      1  N   UNL     1      -2.377  21.919  -8.635  0.00  0.00    +0.000 N 
ENDROOT
BRANCH   1   6
ATOM      2  C   UNL     1      -0.052  17.223  -6.213  0.00  0.00    +0.000 C 
ATOM      3  C   UNL     1      -0.658  18.452  -6.819  0.00  0.00    +0.000 A 
ATOM      4  C   UNL     1      -2.028  18.538  -7.042  0.00  0.00    +0.000 A 
ATOM      5  C   UNL     1      -2.587  19.680  -7.638  0.00  0.00    +0.000 A 
ATOM      6  C   UNL     1      -1.811  20.775  -8.059  0.00  0.00    +0.000 A 
ATOM      7  C   UNL     1      -0.430  20.655  -7.816  0.00  0.00    +0.000 A 
ATOM      8  C   UNL     1       0.141  19.519  -7.219  0.00  0.00    +0.000 A 
ENDBRANCH   1   6
BRANCH   1   9
ATOM      9  C   UNL     1      -3.598  22.521  -8.048  0.00  0.00    +0.000 C 
BRANCH   9  10
ATOM     10  C   UNL     1      -3.350  23.139  -6.650  0.00  0.00    +0.000 C 
ATOM     11  C   UNL     1      -2.639  24.483  -6.767  0.00  0.00    +0.000 C 
BRANCH  10  12
ATOM     12  O   UNL     1      -4.586  23.350  -5.954  0.00  0.00    +0.000 OA
ATOM     13  H   UNL     1      -4.530  22.896  -5.097  0.00  0.00    +0.000 HD
ENDBRANCH  10  12
ENDBRANCH   9  10
ENDBRANCH   1   9
BRANCH   1  14
ATOM     14  C   UNL     1      -2.135  22.263 -10.060  0.00  0.00    +0.000 C 
BRANCH  14  15
ATOM     15  C   UNL     1      -1.567  23.692 -10.228  0.00  0.00    +0.000 C 
ATOM     16  C   UNL     1      -0.191  23.869  -9.596  0.00  0.00    +0.000 C 
BRANCH  15  17
ATOM     17  O   UNL     1      -1.473  24.064 -11.602  0.00  0.00    +0.000 OA
ATOM     18  H   UNL     1      -0.686  23.590 -11.939  0.00  0.00    +0.000 HD
ENDBRANCH  15  17
ENDBRANCH  14  15
ENDBRANCH   1  14
TORSDOF 7
ENDMDL
MODEL 9
REMARK VINA RESULT:    -4.343      1.814      3.617
REMARK INTER + INTRA:          -6.318
REMARK INTER:                  -5.775
REMARK INTRA:                  -0.543
REMARK UNBOUND:                -0.452
REMARK  Name = 
REMARK  10 active torsions:
REMARK  status: ('A' for Active; 'I' for Inactive)
REMARK    1  A    between atoms: C_1  and  C_2
REMARK    2  A    between atoms: C_5  and  N_8
REMARK    3  A    between atoms: N_8  and  C_9
REMARK    4  A    between atoms: N_8  and  C_13
REMARK    5  A    between atoms: C_9  and  C_10
REMARK    6  A    between atoms: C_10  and  C_11
REMARK    7  A    between atoms: C_10  and  O_12
REMARK    8  A    between atoms: C_13  and  C_14
REMARK    9  A    between atoms: C_14  and  C_15
REMARK   10  A    between atoms: C_14  and  O_16
REMARK                            x       y       z     vdW  Elec       q    Type
REMARK                         _______ _______ _______ _____ _____    ______ ____
ROOT
ATOM      1  N   UNL     1      -2.587  19.922  -6.197  0.00  0.00    +0.000 N 
ENDROOT
BRANCH   1   6
ATOM      2  C   UNL     1       0.556  23.799  -9.097  0.00  0.00    +0.000 C 
ATOM      3  C   UNL     1      -0.239  22.779  -8.341  0.00  0.00    +0.000 A 
ATOM      4  C   UNL     1      -0.876  21.736  -9.004  0.00  0.00    +0.000 A 
ATOM      5  C   UNL     1      -1.645  20.800  -8.293  0.00  0.00    +0.000 A 
ATOM      6  C   UNL     1      -1.835  20.870  -6.901  0.00  0.00    +0.000 A 
ATOM      7  C   UNL     1      -1.175  21.936  -6.264  0.00  0.00    +0.000 A 
ATOM      8  C   UNL     1      -0.401  22.878  -6.962  0.00  0.00    +0.000 A 
ENDBRANCH   1   6
BRANCH   1   9
ATOM      9  C   UNL     1      -3.441  20.345  -5.061  0.00  0.00    +0.000 C 
BRANCH   9  10
ATOM     10  C   UNL     1      -4.627  21.238  -5.502  0.00  0.00    +0.000 C 
ATOM     11  C   UNL     1      -5.692  20.415  -6.218  0.00  0.00    +0.000 C 
BRANCH  10  12
ATOM     12  O   UNL     1      -5.242  21.873  -4.372  0.00  0.00    +0.000 OA
ATOM     13  H   UNL     1      -4.583  21.924  -3.660  0.00  0.00    +0.000 HD
ENDBRANCH  10  12
ENDBRANCH   9  10
ENDBRANCH   1   9
BRANCH   1  14
ATOM     14  C   UNL     1      -2.202  18.487  -6.187  0.00  0.00    +0.000 C 
BRANCH  14  15
ATOM     15  C   UNL     1      -3.232  17.610  -5.435  0.00  0.00    +0.000 C 
ATOM     16  C   UNL     1      -4.260  16.968  -6.359  0.00  0.00    +0.000 C 
BRANCH  15  17
ATOM     17  O   UNL     1      -2.597  16.572  -4.691  0.00  0.00    +0.000 OA
ATOM     18  H   UNL     1      -3.309  16.180  -4.146  0.00  0.00    +0.000 HD
ENDBRANCH  15  17
ENDBRANCH  14  15
ENDBRANCH   1  14
TORSDOF 7
ENDMDL
