MODEL 1
REMARK VINA RESULT:    -4.165      0.000      0.000
REMARK INTER + INTRA:          -4.574
REMARK INTER:                  -4.531
REMARK INTRA:                  -0.044
REMARK UNBOUND:                -0.044
REMARK  Name = 
REMARK  3 active torsions:
REMARK  status: ('A' for Active; 'I' for Inactive)
REMARK    1  A    between atoms: C_1  and  O_2
REMARK    2  A    between atoms: O_2  and  C_3
REMARK    3  A    between atoms: C_8  and  O_9
REMARK                            x       y       z     vdW  Elec       q    Type
REMARK                         _______ _______ _______ _____ _____    ______ ____
ROOT
ATOM      1  C   UNL     1       6.370  14.138   4.308  0.00  0.00    +0.000 A 
ATOM      2  C   UNL     1       5.565  13.114   4.806  0.00  0.00    +0.000 A 
ATOM      3  C   UNL     1       4.677  13.372   5.858  0.00  0.00    +0.000 A 
ATOM      4  C   UNL     1       4.591  14.649   6.415  0.00  0.00    +0.000 A 
ATOM      5  C   UNL     1       5.392  15.677   5.922  0.00  0.00    +0.000 A 
ATOM      6  C   UNL     1       6.270  15.412   4.879  0.00  0.00    +0.000 A 
ENDROOT
BRANCH   1   8
ATOM      7  C   UNL     1       6.749  13.936   1.971  0.00  0.00    +0.000 C 
ATOM      8  O   UNL     1       7.280  14.029   3.287  0.00  0.00    +0.000 OA
ENDBRANCH   1   8
BRANCH   6   9
ATOM      9  O   UNL     1       7.046  16.439   4.411  0.00  0.00    +0.000 OA
ATOM     10  H   UNL     1       6.444  17.206   4.367  0.00  0.00    +0.000 HD
ENDBRANCH   6   9
TORSDOF 2
ENDMDL
MODEL 2
REMARK VINA RESULT:    -4.096      1.594      1.735
REMARK INTER + INTRA:          -4.499
REMARK INTER:                  -4.461
REMARK INTRA:                  -0.038
REMARK UNBOUND:                -0.044
REMARK  Name = 
REMARK  3 active torsions:
REMARK  status: ('A' for Active; 'I' for Inactive)
REMARK    1  A    between atoms: C_1  and  O_2
REMARK    2  A    between atoms: O_2  and  C_3
REMARK    3  A    between atoms: C_8  and  O_9
REMARK                            x       y       z     vdW  Elec       q    Type
REMARK                         _______ _______ _______ _____ _____    ______ ____
ROOT
ATOM      1  C   UNL     1       6.853  13.682   4.382  0.00  0.00    +0.000 A 
ATOM      2  C   UNL     1       5.542  13.243   4.560  0.00  0.00    +0.000 A 
ATOM      3  C   UNL     1       5.057  12.995   5.850  0.00  0.00    +0.000 A 
ATOM      4  C   UNL     1       5.878  13.183   6.964  0.00  0.00    +0.000 A 
ATOM      5  C   UNL     1       7.189  13.622   6.793  0.00  0.00    +0.000 A 
ATOM      6  C   UNL     1       7.662  13.865   5.510  0.00  0.00    +0.000 A 
ENDROOT
BRANCH   1   8
ATOM      7  C   UNL     1       6.624  13.947   2.031  0.00  0.00    +0.000 C 
ATOM      8  O   UNL     1       7.459  13.961   3.183  0.00  0.00    +0.000 OA
ENDBRANCH   1   8
BRANCH   6   9
ATOM      9  O   UNL     1       8.954  14.295   5.368  0.00  0.00    +0.000 OA
ATOM     10  H   UNL     1       8.992  15.137   5.860  0.00  0.00    +0.000 HD
ENDBRANCH   6   9
TORSDOF 2
ENDMDL
MODEL 3
REMARK VINA RESULT:    -4.080      1.822      2.854
REMARK INTER + INTRA:          -4.481
REMARK INTER:                  -4.430
REMARK INTRA:                  -0.051
REMARK UNBOUND:                -0.044
REMARK  Name = 
REMARK  3 active torsions:
REMARK  status: ('A' for Active; 'I' for Inactive)
REMARK    1  A    between atoms: C_1  and  O_2
REMARK    2  A    between atoms: O_2  and  C_3
REMARK    3  A    between atoms: C_8  and  O_9
REMARK                            x       y       z     vdW  Elec       q    Type
REMARK                         _______ _______ _______ _____ _____    ______ ____
ROOT
ATOM      1  C   UNL     1       7.461  13.813   5.693  0.00  0.00    +0.000 A 
ATOM      2  C   UNL     1       6.582  13.399   6.692  0.00  0.00    +0.000 A 
ATOM      3  C   UNL     1       5.321  12.893   6.349  0.00  0.00    +0.000 A 
ATOM      4  C   UNL     1       4.936  12.802   5.010  0.00  0.00    +0.000 A 
ATOM      5  C   UNL     1       5.809  13.213   4.006  0.00  0.00    +0.000 A 
ATOM      6  C   UNL     1       7.057  13.713   4.356  0.00  0.00    +0.000 A 
ENDROOT
BRANCH   1   8
ATOM      7  C   UNL     1       8.818  15.474   6.716  0.00  0.00    +0.000 C 
ATOM      8  O   UNL     1       8.720  14.326   5.882  0.00  0.00    +0.000 OA
ENDBRANCH   1   8
BRANCH   6   9
ATOM      9  O   UNL     1       7.899  14.111   3.351  0.00  0.00    +0.000 OA
ATOM     10  H   UNL     1       8.575  13.409   3.301  0.00  0.00    +0.000 HD
ENDBRANCH   6   9
TORSDOF 2
ENDMDL
MODEL 4
REMARK VINA RESULT:    -4.005      1.609      2.124
REMARK INTER + INTRA:          -4.400
REMARK INTER:                  -4.384
REMARK INTRA:                  -0.016
REMARK UNBOUND:                -0.044
REMARK  Name = 
REMARK  3 active torsions:
REMARK  status: ('A' for Active; 'I' for Inactive)
REMARK    1  A    between atoms: C_1  and  O_2
REMARK    2  A    between atoms: O_2  and  C_3
REMARK    3  A    between atoms: C_8  and  O_9
REMARK                            x       y       z     vdW  Elec       q    Type
REMARK                         _______ _______ _______ _____ _____    ______ ____
ROOT
ATOM      1  C   UNL     1       6.717  14.099   4.869  0.00  0.00    +0.000 A 
ATOM      2  C   UNL     1       5.575  14.624   5.472  0.00  0.00    +0.000 A 
ATOM      3  C   UNL     1       5.695  15.453   6.595  0.00  0.00    +0.000 A 
ATOM      4  C   UNL     1       6.952  15.759   7.117  0.00  0.00    +0.000 A 
ATOM      5  C   UNL     1       8.098  15.239   6.520  0.00  0.00    +0.000 A 
ATOM      6  C   UNL     1       7.970  14.417   5.408  0.00  0.00    +0.000 A 
ENDROOT
BRANCH   1   8
ATOM      7  C   UNL     1       6.629  13.908   2.502  0.00  0.00    +0.000 C 
ATOM      8  O   UNL     1       6.749  13.276   3.771  0.00  0.00    +0.000 OA
ENDBRANCH   1   8
BRANCH   6   9
ATOM      9  O   UNL     1       9.110  13.917   4.838  0.00  0.00    +0.000 OA
ATOM     10  H   UNL     1       9.264  13.068   5.294  0.00  0.00    +0.000 HD
ENDBRANCH   6   9
TORSDOF 2
ENDMDL
MODEL 5
REMARK VINA RESULT:    -3.967      2.746      3.932
REMARK INTER + INTRA:          -4.358
REMARK INTER:                  -4.311
REMARK INTRA:                  -0.047
REMARK UNBOUND:                -0.044
REMARK  Name = 
REMARK  3 active torsions:
REMARK  status: ('A' for Active; 'I' for Inactive)
REMARK    1  A    between atoms: C_1  and  O_2
REMARK    2  A    between atoms: O_2  and  C_3
REMARK    3  A    between atoms: C_8  and  O_9
REMARK                            x       y       z     vdW  Elec       q    Type
REMARK                         _______ _______ _______ _____ _____    ______ ____
ROOT
ATOM      1  C   UNL     1       6.960  13.520   6.208  0.00  0.00    +0.000 A 
ATOM      2  C   UNL     1       7.718  14.083   5.181  0.00  0.00    +0.000 A 
ATOM      3  C   UNL     1       7.308  13.939   3.850  0.00  0.00    +0.000 A 
ATOM      4  C   UNL     1       6.144  13.233   3.539  0.00  0.00    +0.000 A 
ATOM      5  C   UNL     1       5.382  12.669   4.559  0.00  0.00    +0.000 A 
ATOM      6  C   UNL     1       5.795  12.816   5.877  0.00  0.00    +0.000 A 
ENDROOT
BRANCH   1   8
ATOM      7  C   UNL     1       8.322  12.782   8.009  0.00  0.00    +0.000 C 
ATOM      8  O   UNL     1       7.239  13.581   7.549  0.00  0.00    +0.000 OA
ENDBRANCH   1   8
BRANCH   6   9
ATOM      9  O   UNL     1       5.029  12.252   6.862  0.00  0.00    +0.000 OA
ATOM     10  H   UNL     1       4.710  11.413   6.478  0.00  0.00    +0.000 HD
ENDBRANCH   6   9
TORSDOF 2
ENDMDL
MODEL 6
REMARK VINA RESULT:    -3.733      2.230      2.871
REMARK INTER + INTRA:          -4.104
REMARK INTER:                  -4.059
REMARK INTRA:                  -0.045
REMARK UNBOUND:                -0.044
REMARK  Name = 
REMARK  3 active torsions:
REMARK  status: ('A' for Active; 'I' for Inactive)
REMARK    1  A    between atoms: C_1  and  O_2
REMARK    2  A    between atoms: O_2  and  C_3
REMARK    3  A    between atoms: C_8  and  O_9
REMARK                            x       y       z     vdW  Elec       q    Type
REMARK                         _______ _______ _______ _____ _____    ______ ____
ROOT
ATOM      1  C   UNL     1       7.032  14.796   5.355  0.00  0.00    +0.000 A 
ATOM      2  C   UNL     1       8.088  14.084   5.923  0.00  0.00    +0.000 A 
ATOM      3  C   UNL     1       9.104  14.765   6.604  0.00  0.00    +0.000 A 
ATOM      4  C   UNL     1       9.070  16.156   6.720  0.00  0.00    +0.000 A 
ATOM      5  C   UNL     1       8.018  16.874   6.156  0.00  0.00    +0.000 A 
ATOM      6  C   UNL     1       7.014  16.191   5.481  0.00  0.00    +0.000 A 
ENDROOT
BRANCH   1   8
ATOM      7  C   UNL     1       6.274  13.203   3.764  0.00  0.00    +0.000 C 
ATOM      8  O   UNL     1       5.974  14.263   4.663  0.00  0.00    +0.000 OA
ENDBRANCH   1   8
BRANCH   6   9
ATOM      9  O   UNL     1       5.991  16.918   4.935  0.00  0.00    +0.000 OA
ATOM     10  H   UNL     1       5.435  16.260   4.476  0.00  0.00    +0.000 HD
ENDBRANCH   6   9
TORSDOF 2
ENDMDL
MODEL 7
REMARK VINA RESULT:    -3.703      2.316      3.527
REMARK INTER + INTRA:          -4.072
REMARK INTER:                  -4.019
REMARK INTRA:                  -0.053
REMARK UNBOUND:                -0.044
REMARK  Name = 
REMARK  3 active torsions:
REMARK  status: ('A' for Active; 'I' for Inactive)
REMARK    1  A    between atoms: C_1  and  O_2
REMARK    2  A    between atoms: O_2  and  C_3
REMARK    3  A    between atoms: C_8  and  O_9
REMARK                            x       y       z     vdW  Elec       q    Type
REMARK                         _______ _______ _______ _____ _____    ______ ____
ROOT
ATOM      1  C   UNL     1       7.785  16.100   6.332  0.00  0.00    +0.000 A 
ATOM      2  C   UNL     1       8.051  14.832   6.847  0.00  0.00    +0.000 A 
ATOM      3  C   UNL     1       7.502  13.699   6.234  0.00  0.00    +0.000 A 
ATOM      4  C   UNL     1       6.687  13.828   5.108  0.00  0.00    +0.000 A 
ATOM      5  C   UNL     1       6.416  15.092   4.588  0.00  0.00    +0.000 A 
ATOM      6  C   UNL     1       6.965  16.210   5.203  0.00  0.00    +0.000 A 
ENDROOT
BRANCH   1   8
ATOM      7  C   UNL     1       9.655  17.508   6.741  0.00  0.00    +0.000 C 
ATOM      8  O   UNL     1       8.252  17.291   6.828  0.00  0.00    +0.000 OA
ENDBRANCH   1   8
BRANCH   6   9
ATOM      9  O   UNL     1       6.684  17.441   4.673  0.00  0.00    +0.000 OA
ATOM     10  H   UNL     1       6.826  18.067   5.409  0.00  0.00    +0.000 HD
ENDBRANCH   6   9
TORSDOF 2
ENDMDL
MODEL 8
REMARK VINA RESULT:    -3.686      1.820      3.228
REMARK INTER + INTRA:          -4.053
REMARK INTER:                  -4.001
REMARK INTRA:                  -0.052
REMARK UNBOUND:                -0.044
REMARK  Name = 
REMARK  3 active torsions:
REMARK  status: ('A' for Active; 'I' for Inactive)
REMARK    1  A    between atoms: C_1  and  O_2
REMARK    2  A    between atoms: O_2  and  C_3
REMARK    3  A    between atoms: C_8  and  O_9
REMARK                            x       y       z     vdW  Elec       q    Type
REMARK                         _______ _______ _______ _____ _____    ______ ____
ROOT
ATOM      1  C   UNL     1       5.165  14.027   5.902  0.00  0.00    +0.000 A 
ATOM      2  C   UNL     1       5.155  12.870   5.124  0.00  0.00    +0.000 A 
ATOM      3  C   UNL     1       5.904  12.816   3.941  0.00  0.00    +0.000 A 
ATOM      4  C   UNL     1       6.662  13.915   3.532  0.00  0.00    +0.000 A 
ATOM      5  C   UNL     1       6.676  15.074   4.304  0.00  0.00    +0.000 A 
ATOM      6  C   UNL     1       5.931  15.119   5.476  0.00  0.00    +0.000 A 
ENDROOT
BRANCH   1   8
ATOM      7  C   UNL     1       3.063  14.184   6.999  0.00  0.00    +0.000 C 
ATOM      8  O   UNL     1       4.483  14.220   7.076  0.00  0.00    +0.000 OA
ENDBRANCH   1   8
BRANCH   6   9
ATOM      9  O   UNL     1       5.961  16.269   6.218  0.00  0.00    +0.000 OA
ATOM     10  H   UNL     1       5.026  16.452   6.430  0.00  0.00    +0.000 HD
ENDBRANCH   6   9
TORSDOF 2
ENDMDL
MODEL 9
REMARK VINA RESULT:    -3.565      2.743      3.544
REMARK INTER + INTRA:          -3.922
REMARK INTER:                  -3.884
REMARK INTRA:                  -0.037
REMARK UNBOUND:                -0.044
REMARK  Name = 
REMARK  3 active torsions:
REMARK  status: ('A' for Active; 'I' for Inactive)
REMARK    1  A    between atoms: C_1  and  O_2
REMARK    2  A    between atoms: O_2  and  C_3
REMARK    3  A    between atoms: C_8  and  O_9
REMARK                            x       y       z     vdW  Elec       q    Type
REMARK                         _______ _______ _______ _____ _____    ______ ____
ROOT
ATOM      1  C   UNL     1       7.672  14.239   6.505  0.00  0.00    +0.000 A 
ATOM      2  C   UNL     1       7.182  15.395   5.898  0.00  0.00    +0.000 A 
ATOM      3  C   UNL     1       5.811  15.521   5.638  0.00  0.00    +0.000 A 
ATOM      4  C   UNL     1       4.929  14.495   5.982  0.00  0.00    +0.000 A 
ATOM      5  C   UNL     1       5.411  13.338   6.589  0.00  0.00    +0.000 A 
ATOM      6  C   UNL     1       6.771  13.222   6.842  0.00  0.00    +0.000 A 
ENDROOT
BRANCH   1   8
ATOM      7  C   UNL     1       9.904  15.046   6.619  0.00  0.00    +0.000 C 
ATOM      8  O   UNL     1       8.983  13.980   6.816  0.00  0.00    +0.000 OA
ENDBRANCH   1   8
BRANCH   6   9
ATOM      9  O   UNL     1       7.222  12.075   7.440  0.00  0.00    +0.000 OA
ATOM     10  H   UNL     1       7.004  11.363   6.808  0.00  0.00    +0.000 HD
ENDBRANCH   6   9
TORSDOF 2
ENDMDL
