MODEL 1
REMARK VINA RESULT:    -3.844      0.000      0.000
REMARK INTER + INTRA:          -4.225
REMARK INTER:                  -4.181
REMARK INTRA:                  -0.045
REMARK UNBOUND:                -0.045
REMARK  Name = 
REMARK  3 active torsions:
REMARK  status: ('A' for Active; 'I' for Inactive)
REMARK    1  A    between atoms: C_1  and  O_2
REMARK    2  A    between atoms: O_2  and  C_3
REMARK    3  A    between atoms: C_8  and  O_9
REMARK                            x       y       z     vdW  Elec       q    Type
REMARK                         _______ _______ _______ _____ _____    ______ ____
ROOT
ATOM      1  C   UNL     1       3.790  10.449   4.093  0.00  0.00    +0.000 A 
ATOM      2  C   UNL     1       5.044  11.035   3.923  0.00  0.00    +0.000 A 
ATOM      3  C   UNL     1       6.099  10.286   3.385  0.00  0.00    +0.000 A 
ATOM      4  C   UNL     1       5.905   8.953   3.017  0.00  0.00    +0.000 A 
ATOM      5  C   UNL     1       4.655   8.362   3.184  0.00  0.00    +0.000 A 
ATOM      6  C   UNL     1       3.615   9.111   3.719  0.00  0.00    +0.000 A 
ENDROOT
BRANCH   1   8
ATOM      7  C   UNL     1       2.661  11.284   6.010  0.00  0.00    +0.000 C 
ATOM      8  O   UNL     1       2.673  11.059   4.606  0.00  0.00    +0.000 OA
ENDBRANCH   1   8
BRANCH   6   9
ATOM      9  O   UNL     1       2.395   8.508   3.873  0.00  0.00    +0.000 OA
ATOM     10  H   UNL     1       1.777   9.064   3.362  0.00  0.00    +0.000 HD
ENDBRANCH   6   9
TORSDOF 2
ENDMDL
MODEL 2
REMARK VINA RESULT:    -3.813     18.666     19.830
REMARK INTER + INTRA:          -4.192
REMARK INTER:                  -4.187
REMARK INTRA:                  -0.006
REMARK UNBOUND:                -0.045
REMARK  Name = 
REMARK  3 active torsions:
REMARK  status: ('A' for Active; 'I' for Inactive)
REMARK    1  A    between atoms: C_1  and  O_2
REMARK    2  A    between atoms: O_2  and  C_3
REMARK    3  A    between atoms: C_8  and  O_9
REMARK                            x       y       z     vdW  Elec       q    Type
REMARK                         _______ _______ _______ _____ _____    ______ ____
ROOT
ATOM      1  C   UNL     1      16.484  -4.284   8.094  0.00  0.00    +0.000 A 
ATOM      2  C   UNL     1      17.195  -5.075   7.192  0.00  0.00    +0.000 A 
ATOM      3  C   UNL     1      17.171  -6.470   7.315  0.00  0.00    +0.000 A 
ATOM      4  C   UNL     1      16.440  -7.078   8.338  0.00  0.00    +0.000 A 
ATOM      5  C   UNL     1      15.727  -6.294   9.242  0.00  0.00    +0.000 A 
ATOM      6  C   UNL     1      15.757  -4.911   9.113  0.00  0.00    +0.000 A 
ENDROOT
BRANCH   1   8
ATOM      7  C   UNL     1      17.497  -2.226   8.717  0.00  0.00    +0.000 C 
ATOM      8  O   UNL     1      16.419  -2.913   8.094  0.00  0.00    +0.000 OA
ENDBRANCH   1   8
BRANCH   6   9
ATOM      9  O   UNL     1      15.049  -4.162  10.014  0.00  0.00    +0.000 OA
ATOM     10  H   UNL     1      14.807  -3.351   9.527  0.00  0.00    +0.000 HD
ENDBRANCH   6   9
TORSDOF 2
ENDMDL
MODEL 3
REMARK VINA RESULT:    -3.773     19.460     20.781
REMARK INTER + INTRA:          -4.148
REMARK INTER:                  -4.101
REMARK INTRA:                  -0.047
REMARK UNBOUND:                -0.045
REMARK  Name = 
REMARK  3 active torsions:
REMARK  status: ('A' for Active; 'I' for Inactive)
REMARK    1  A    between atoms: C_1  and  O_2
REMARK    2  A    between atoms: O_2  and  C_3
REMARK    3  A    between atoms: C_8  and  O_9
REMARK                            x       y       z     vdW  Elec       q    Type
REMARK                         _______ _______ _______ _____ _____    ______ ____
ROOT
ATOM      1  C   UNL     1      16.309  -6.608   8.271  0.00  0.00    +0.000 A 
ATOM      2  C   UNL     1      17.139  -6.136   7.255  0.00  0.00    +0.000 A 
ATOM      3  C   UNL     1      17.347  -4.759   7.104  0.00  0.00    +0.000 A 
ATOM      4  C   UNL     1      16.728  -3.851   7.966  0.00  0.00    +0.000 A 
ATOM      5  C   UNL     1      15.898  -4.315   8.983  0.00  0.00    +0.000 A 
ATOM      6  C   UNL     1      15.697  -5.682   9.125  0.00  0.00    +0.000 A 
ENDROOT
BRANCH   1   8
ATOM      7  C   UNL     1      17.113  -8.828   8.541  0.00  0.00    +0.000 C 
ATOM      8  O   UNL     1      16.016  -7.922   8.534  0.00  0.00    +0.000 OA
ENDBRANCH   1   8
BRANCH   6   9
ATOM      9  O   UNL     1      14.877  -6.114  10.133  0.00  0.00    +0.000 OA
ATOM     10  H   UNL     1      14.953  -7.087  10.116  0.00  0.00    +0.000 HD
ENDBRANCH   6   9
TORSDOF 2
ENDMDL
MODEL 4
REMARK VINA RESULT:    -3.643     19.225     20.094
REMARK INTER + INTRA:          -4.007
REMARK INTER:                  -3.954
REMARK INTRA:                  -0.052
REMARK UNBOUND:                -0.045
REMARK  Name = 
REMARK  3 active torsions:
REMARK  status: ('A' for Active; 'I' for Inactive)
REMARK    1  A    between atoms: C_1  and  O_2
REMARK    2  A    between atoms: O_2  and  C_3
REMARK    3  A    between atoms: C_8  and  O_9
REMARK                            x       y       z     vdW  Elec       q    Type
REMARK                         _______ _______ _______ _____ _____    ______ ____
ROOT
ATOM      1  C   UNL     1      16.467  -4.917   9.650  0.00  0.00    +0.000 A 
ATOM      2  C   UNL     1      16.820  -3.632  10.060  0.00  0.00    +0.000 A 
ATOM      3  C   UNL     1      17.155  -2.661   9.108  0.00  0.00    +0.000 A 
ATOM      4  C   UNL     1      17.139  -2.969   7.747  0.00  0.00    +0.000 A 
ATOM      5  C   UNL     1      16.788  -4.251   7.329  0.00  0.00    +0.000 A 
ATOM      6  C   UNL     1      16.457  -5.208   8.281  0.00  0.00    +0.000 A 
ENDROOT
BRANCH   1   8
ATOM      7  C   UNL     1      17.153  -6.504  11.280  0.00  0.00    +0.000 C 
ATOM      8  O   UNL     1      16.119  -5.962  10.468  0.00  0.00    +0.000 OA
ENDBRANCH   1   8
BRANCH   6   9
ATOM      9  O   UNL     1      16.115  -6.460   7.846  0.00  0.00    +0.000 OA
ATOM     10  H   UNL     1      15.855  -6.337   6.913  0.00  0.00    +0.000 HD
ENDBRANCH   6   9
TORSDOF 2
ENDMDL
MODEL 5
REMARK VINA RESULT:    -3.629     18.852     20.026
REMARK INTER + INTRA:          -3.992
REMARK INTER:                  -3.954
REMARK INTRA:                  -0.038
REMARK UNBOUND:                -0.045
REMARK  Name = 
REMARK  3 active torsions:
REMARK  status: ('A' for Active; 'I' for Inactive)
REMARK    1  A    between atoms: C_1  and  O_2
REMARK    2  A    between atoms: O_2  and  C_3
REMARK    3  A    between atoms: C_8  and  O_9
REMARK                            x       y       z     vdW  Elec       q    Type
REMARK                         _______ _______ _______ _____ _____    ______ ____
ROOT
ATOM      1  C   UNL     1      16.548  -4.359   8.326  0.00  0.00    +0.000 A 
ATOM      2  C   UNL     1      15.939  -4.542   9.567  0.00  0.00    +0.000 A 
ATOM      3  C   UNL     1      15.680  -5.837  10.035  0.00  0.00    +0.000 A 
ATOM      4  C   UNL     1      16.026  -6.950   9.267  0.00  0.00    +0.000 A 
ATOM      5  C   UNL     1      16.635  -6.775   8.026  0.00  0.00    +0.000 A 
ATOM      6  C   UNL     1      16.888  -5.488   7.569  0.00  0.00    +0.000 A 
ENDROOT
BRANCH   1   8
ATOM      7  C   UNL     1      16.902  -2.027   8.608  0.00  0.00    +0.000 C 
ATOM      8  O   UNL     1      16.859  -3.156   7.744  0.00  0.00    +0.000 OA
ENDBRANCH   1   8
BRANCH   6   9
ATOM      9  O   UNL     1      17.487  -5.342   6.347  0.00  0.00    +0.000 OA
ATOM     10  H   UNL     1      17.863  -6.220   6.148  0.00  0.00    +0.000 HD
ENDBRANCH   6   9
TORSDOF 2
ENDMDL
MODEL 6
REMARK VINA RESULT:    -3.563     18.936     20.037
REMARK INTER + INTRA:          -3.920
REMARK INTER:                  -3.883
REMARK INTRA:                  -0.037
REMARK UNBOUND:                -0.045
REMARK  Name = 
REMARK  3 active torsions:
REMARK  status: ('A' for Active; 'I' for Inactive)
REMARK    1  A    between atoms: C_1  and  O_2
REMARK    2  A    between atoms: O_2  and  C_3
REMARK    3  A    between atoms: C_8  and  O_9
REMARK                            x       y       z     vdW  Elec       q    Type
REMARK                         _______ _______ _______ _____ _____    ______ ____
ROOT
ATOM      1  C   UNL     1      16.820  -4.691   7.807  0.00  0.00    +0.000 A 
ATOM      2  C   UNL     1      16.816  -6.062   8.058  0.00  0.00    +0.000 A 
ATOM      3  C   UNL     1      16.401  -6.544   9.305  0.00  0.00    +0.000 A 
ATOM      4  C   UNL     1      15.991  -5.660  10.305  0.00  0.00    +0.000 A 
ATOM      5  C   UNL     1      15.992  -4.289  10.063  0.00  0.00    +0.000 A 
ATOM      6  C   UNL     1      16.406  -3.819   8.822  0.00  0.00    +0.000 A 
ENDROOT
BRANCH   1   8
ATOM      7  C   UNL     1      17.498  -4.938   5.543  0.00  0.00    +0.000 C 
ATOM      8  O   UNL     1      17.200  -4.080   6.639  0.00  0.00    +0.000 OA
ENDBRANCH   1   8
BRANCH   6   9
ATOM      9  O   UNL     1      16.398  -2.467   8.608  0.00  0.00    +0.000 OA
ATOM     10  H   UNL     1      15.625  -2.311   8.033  0.00  0.00    +0.000 HD
ENDBRANCH   6   9
TORSDOF 2
ENDMDL
MODEL 7
REMARK VINA RESULT:    -3.531     19.653     20.917
REMARK INTER + INTRA:          -3.885
REMARK INTER:                  -3.860
REMARK INTRA:                  -0.026
REMARK UNBOUND:                -0.045
REMARK  Name = 
REMARK  3 active torsions:
REMARK  status: ('A' for Active; 'I' for Inactive)
REMARK    1  A    between atoms: C_1  and  O_2
REMARK    2  A    between atoms: O_2  and  C_3
REMARK    3  A    between atoms: C_8  and  O_9
REMARK                            x       y       z     vdW  Elec       q    Type
REMARK                         _______ _______ _______ _____ _____    ______ ____
ROOT
ATOM      1  C   UNL     1      16.258  -6.539   8.663  0.00  0.00    +0.000 A 
ATOM      2  C   UNL     1      15.876  -5.973   9.878  0.00  0.00    +0.000 A 
ATOM      3  C   UNL     1      15.995  -4.592  10.075  0.00  0.00    +0.000 A 
ATOM      4  C   UNL     1      16.494  -3.773   9.061  0.00  0.00    +0.000 A 
ATOM      5  C   UNL     1      16.878  -4.330   7.843  0.00  0.00    +0.000 A 
ATOM      6  C   UNL     1      16.757  -5.702   7.657  0.00  0.00    +0.000 A 
ENDROOT
BRANCH   1   8
ATOM      7  C   UNL     1      17.242  -8.695   8.836  0.00  0.00    +0.000 C 
ATOM      8  O   UNL     1      16.199  -7.869   8.333  0.00  0.00    +0.000 OA
ENDBRANCH   1   8
BRANCH   6   9
ATOM      9  O   UNL     1      17.141  -6.227   6.452  0.00  0.00    +0.000 OA
ATOM     10  H   UNL     1      17.906  -6.795   6.661  0.00  0.00    +0.000 HD
ENDBRANCH   6   9
TORSDOF 2
ENDMDL
MODEL 8
REMARK VINA RESULT:    -3.398     11.826     12.606
REMARK INTER + INTRA:          -3.741
REMARK INTER:                  -3.690
REMARK INTRA:                  -0.051
REMARK UNBOUND:                -0.045
REMARK  Name = 
REMARK  3 active torsions:
REMARK  status: ('A' for Active; 'I' for Inactive)
REMARK    1  A    between atoms: C_1  and  O_2
REMARK    2  A    between atoms: O_2  and  C_3
REMARK    3  A    between atoms: C_8  and  O_9
REMARK                            x       y       z     vdW  Elec       q    Type
REMARK                         _______ _______ _______ _____ _____    ______ ____
ROOT
ATOM      1  C   UNL     1      13.412  10.136  10.956  0.00  0.00    +0.000 A 
ATOM      2  C   UNL     1      12.799  11.018  11.845  0.00  0.00    +0.000 A 
ATOM      3  C   UNL     1      13.390  11.284  13.087  0.00  0.00    +0.000 A 
ATOM      4  C   UNL     1      14.592  10.670  13.445  0.00  0.00    +0.000 A 
ATOM      5  C   UNL     1      15.211   9.787  12.562  0.00  0.00    +0.000 A 
ATOM      6  C   UNL     1      14.617   9.530  11.333  0.00  0.00    +0.000 A 
ENDROOT
BRANCH   1   8
ATOM      7  C   UNL     1      12.734  10.846   8.792  0.00  0.00    +0.000 C 
ATOM      8  O   UNL     1      12.949   9.784   9.714  0.00  0.00    +0.000 OA
ENDBRANCH   1   8
BRANCH   6   9
ATOM      9  O   UNL     1      15.244   8.659  10.482  0.00  0.00    +0.000 OA
ATOM     10  H   UNL     1      15.795   9.225   9.908  0.00  0.00    +0.000 HD
ENDBRANCH   6   9
TORSDOF 2
ENDMDL
MODEL 9
REMARK VINA RESULT:    -3.350     12.701     13.394
REMARK INTER + INTRA:          -3.688
REMARK INTER:                  -3.636
REMARK INTRA:                  -0.052
REMARK UNBOUND:                -0.045
REMARK  Name = 
REMARK  3 active torsions:
REMARK  status: ('A' for Active; 'I' for Inactive)
REMARK    1  A    between atoms: C_1  and  O_2
REMARK    2  A    between atoms: O_2  and  C_3
REMARK    3  A    between atoms: C_8  and  O_9
REMARK                            x       y       z     vdW  Elec       q    Type
REMARK                         _______ _______ _______ _____ _____    ______ ____
ROOT
ATOM      1  C   UNL     1      14.757  10.101  12.566  0.00  0.00    +0.000 A 
ATOM      2  C   UNL     1      13.765  10.983  12.991  0.00  0.00    +0.000 A 
ATOM      3  C   UNL     1      12.686  11.282  12.149  0.00  0.00    +0.000 A 
ATOM      4  C   UNL     1      12.596  10.703  10.882  0.00  0.00    +0.000 A 
ATOM      5  C   UNL     1      13.583   9.820  10.450  0.00  0.00    +0.000 A 
ATOM      6  C   UNL     1      14.649   9.530  11.291  0.00  0.00    +0.000 A 
ENDROOT
BRANCH   1   8
ATOM      7  C   UNL     1      15.624   9.030  14.501  0.00  0.00    +0.000 C 
ATOM      8  O   UNL     1      15.864   9.719  13.280  0.00  0.00    +0.000 OA
ENDBRANCH   1   8
BRANCH   6   9
ATOM      9  O   UNL     1      15.607   8.659  10.844  0.00  0.00    +0.000 OA
ATOM     10  H   UNL     1      16.448   9.147  10.936  0.00  0.00    +0.000 HD
ENDBRANCH   6   9
TORSDOF 2
ENDMDL
