MODEL 1
REMARK VINA RESULT:    -4.362      0.000      0.000
REMARK INTER + INTRA:          -4.797
REMARK INTER:                  -4.744
REMARK INTRA:                  -0.052
REMARK UNBOUND:                -0.052
REMARK  Name = 
REMARK  3 active torsions:
REMARK  status: ('A' for Active; 'I' for Inactive)
REMARK    1  A    between atoms: C_1  and  O_2
REMARK    2  A    between atoms: O_2  and  C_3
REMARK    3  A    between atoms: C_8  and  O_9
REMARK                            x       y       z     vdW  Elec       q    Type
REMARK                         _______ _______ _______ _____ _____    ______ ____
ROOT
ATOM      1  C   UNL     1       5.097  22.708   2.783  0.00  0.00    +0.000 A 
ATOM      2  C   UNL     1       6.327  23.150   2.300  0.00  0.00    +0.000 A 
ATOM      3  C   UNL     1       7.514  22.599   2.800  0.00  0.00    +0.000 A 
ATOM      4  C   UNL     1       7.475  21.608   3.783  0.00  0.00    +0.000 A 
ATOM      5  C   UNL     1       6.249  21.161   4.271  0.00  0.00    +0.000 A 
ATOM      6  C   UNL     1       5.077  21.714   3.769  0.00  0.00    +0.000 A 
ENDROOT
BRANCH   1   8
ATOM      7  C   UNL     1       3.518  22.947   1.023  0.00  0.00    +0.000 C 
ATOM      8  O   UNL     1       3.862  23.156   2.388  0.00  0.00    +0.000 OA
ENDBRANCH   1   8
BRANCH   6   9
ATOM      9  O   UNL     1       3.884  21.258   4.264  0.00  0.00    +0.000 OA
ATOM     10  H   UNL     1       3.834  20.328   3.974  0.00  0.00    +0.000 HD
ENDBRANCH   6   9
TORSDOF 2
ENDMDL
MODEL 2
REMARK VINA RESULT:    -4.034      1.261      3.094
REMARK INTER + INTRA:          -4.440
REMARK INTER:                  -4.395
REMARK INTRA:                  -0.044
REMARK UNBOUND:                -0.052
REMARK  Name = 
REMARK  3 active torsions:
REMARK  status: ('A' for Active; 'I' for Inactive)
REMARK    1  A    between atoms: C_1  and  O_2
REMARK    2  A    between atoms: O_2  and  C_3
REMARK    3  A    between atoms: C_8  and  O_9
REMARK                            x       y       z     vdW  Elec       q    Type
REMARK                         _______ _______ _______ _____ _____    ______ ____
ROOT
ATOM      1  C   UNL     1       6.209  21.707   3.562  0.00  0.00    +0.000 A 
ATOM      2  C   UNL     1       7.089  22.495   2.823  0.00  0.00    +0.000 A 
ATOM      3  C   UNL     1       6.595  23.528   2.016  0.00  0.00    +0.000 A 
ATOM      4  C   UNL     1       5.223  23.777   1.946  0.00  0.00    +0.000 A 
ATOM      5  C   UNL     1       4.337  22.994   2.683  0.00  0.00    +0.000 A 
ATOM      6  C   UNL     1       4.836  21.971   3.479  0.00  0.00    +0.000 A 
ENDROOT
BRANCH   1   8
ATOM      7  C   UNL     1       7.711  20.848   5.191  0.00  0.00    +0.000 C 
ATOM      8  O   UNL     1       6.550  20.667   4.389  0.00  0.00    +0.000 OA
ENDBRANCH   1   8
BRANCH   6   9
ATOM      9  O   UNL     1       3.945  21.216   4.194  0.00  0.00    +0.000 OA
ATOM     10  H   UNL     1       3.916  21.634   5.076  0.00  0.00    +0.000 HD
ENDBRANCH   6   9
TORSDOF 2
ENDMDL
MODEL 3
REMARK VINA RESULT:    -3.553     18.436     20.348
REMARK INTER + INTRA:          -3.917
REMARK INTER:                  -3.865
REMARK INTRA:                  -0.052
REMARK UNBOUND:                -0.052
REMARK  Name = 
REMARK  3 active torsions:
REMARK  status: ('A' for Active; 'I' for Inactive)
REMARK    1  A    between atoms: C_1  and  O_2
REMARK    2  A    between atoms: O_2  and  C_3
REMARK    3  A    between atoms: C_8  and  O_9
REMARK                            x       y       z     vdW  Elec       q    Type
REMARK                         _______ _______ _______ _____ _____    ______ ____
ROOT
ATOM      1  C   UNL     1      -4.391  13.628 -11.513  0.00  0.00    +0.000 A 
ATOM      2  C   UNL     1      -4.025  14.175 -12.742  0.00  0.00    +0.000 A 
ATOM      3  C   UNL     1      -4.720  13.815 -13.903  0.00  0.00    +0.000 A 
ATOM      4  C   UNL     1      -5.781  12.909 -13.841  0.00  0.00    +0.000 A 
ATOM      5  C   UNL     1      -6.153  12.359 -12.617  0.00  0.00    +0.000 A 
ATOM      6  C   UNL     1      -5.457  12.721 -11.470  0.00  0.00    +0.000 A 
ENDROOT
BRANCH   1   8
ATOM      7  C   UNL     1      -3.975  15.201  -9.781  0.00  0.00    +0.000 C 
ATOM      8  O   UNL     1      -3.801  13.888 -10.302  0.00  0.00    +0.000 OA
ENDBRANCH   1   8
BRANCH   6   9
ATOM      9  O   UNL     1      -5.841  12.167 -10.278  0.00  0.00    +0.000 OA
ATOM     10  H   UNL     1      -5.933  12.925  -9.670  0.00  0.00    +0.000 HD
ENDBRANCH   6   9
TORSDOF 2
ENDMDL
MODEL 4
REMARK VINA RESULT:    -3.546      2.014      3.238
REMARK INTER + INTRA:          -3.909
REMARK INTER:                  -3.868
REMARK INTRA:                  -0.041
REMARK UNBOUND:                -0.052
REMARK  Name = 
REMARK  3 active torsions:
REMARK  status: ('A' for Active; 'I' for Inactive)
REMARK    1  A    between atoms: C_1  and  O_2
REMARK    2  A    between atoms: O_2  and  C_3
REMARK    3  A    between atoms: C_8  and  O_9
REMARK                            x       y       z     vdW  Elec       q    Type
REMARK                         _______ _______ _______ _____ _____    ______ ____
ROOT
ATOM      1  C   UNL     1       7.134  22.273   3.153  0.00  0.00    +0.000 A 
ATOM      2  C   UNL     1       6.682  23.326   2.360  0.00  0.00    +0.000 A 
ATOM      3  C   UNL     1       5.308  23.567   2.232  0.00  0.00    +0.000 A 
ATOM      4  C   UNL     1       4.383  22.757   2.893  0.00  0.00    +0.000 A 
ATOM      5  C   UNL     1       4.826  21.703   3.688  0.00  0.00    +0.000 A 
ATOM      6  C   UNL     1       6.191  21.471   3.809  0.00  0.00    +0.000 A 
ENDROOT
BRANCH   1   8
ATOM      7  C   UNL     1       9.359  22.222   2.323  0.00  0.00    +0.000 C 
ATOM      8  O   UNL     1       8.442  21.922   3.368  0.00  0.00    +0.000 OA
ENDBRANCH   1   8
BRANCH   6   9
ATOM      9  O   UNL     1       6.602  20.429   4.596  0.00  0.00    +0.000 OA
ATOM     10  H   UNL     1       6.988  20.852   5.387  0.00  0.00    +0.000 HD
ENDBRANCH   6   9
TORSDOF 2
ENDMDL
MODEL 5
REMARK VINA RESULT:    -3.542     17.715     19.248
REMARK INTER + INTRA:          -3.904
REMARK INTER:                  -3.858
REMARK INTRA:                  -0.047
REMARK UNBOUND:                -0.052
REMARK  Name = 
REMARK  3 active torsions:
REMARK  status: ('A' for Active; 'I' for Inactive)
REMARK    1  A    between atoms: C_1  and  O_2
REMARK    2  A    between atoms: O_2  and  C_3
REMARK    3  A    between atoms: C_8  and  O_9
REMARK                            x       y       z     vdW  Elec       q    Type
REMARK                         _______ _______ _______ _____ _____    ______ ____
ROOT
ATOM      1  C   UNL     1      -5.468  13.547 -10.725  0.00  0.00    +0.000 A 
ATOM      2  C   UNL     1      -6.540  14.242 -10.168  0.00  0.00    +0.000 A 
ATOM      3  C   UNL     1      -6.302  15.344  -9.336  0.00  0.00    +0.000 A 
ATOM      4  C   UNL     1      -4.997  15.753  -9.058  0.00  0.00    +0.000 A 
ATOM      5  C   UNL     1      -3.920  15.063  -9.611  0.00  0.00    +0.000 A 
ATOM      6  C   UNL     1      -4.165  13.972 -10.435  0.00  0.00    +0.000 A 
ENDROOT
BRANCH   1   8
ATOM      7  C   UNL     1      -5.984  12.701 -12.885  0.00  0.00    +0.000 C 
ATOM      8  O   UNL     1      -5.551  12.456 -11.552  0.00  0.00    +0.000 OA
ENDBRANCH   1   8
BRANCH   6   9
ATOM      9  O   UNL     1      -3.091  13.310 -10.967  0.00  0.00    +0.000 OA
ATOM     10  H   UNL     1      -3.467  12.494 -11.351  0.00  0.00    +0.000 HD
ENDBRANCH   6   9
TORSDOF 2
ENDMDL
MODEL 6
REMARK VINA RESULT:    -3.515      0.943      2.240
REMARK INTER + INTRA:          -3.875
REMARK INTER:                  -3.943
REMARK INTRA:                   0.068
REMARK UNBOUND:                -0.052
REMARK  Name = 
REMARK  3 active torsions:
REMARK  status: ('A' for Active; 'I' for Inactive)
REMARK    1  A    between atoms: C_1  and  O_2
REMARK    2  A    between atoms: O_2  and  C_3
REMARK    3  A    between atoms: C_8  and  O_9
REMARK                            x       y       z     vdW  Elec       q    Type
REMARK                         _______ _______ _______ _____ _____    ______ ____
ROOT
ATOM      1  C   UNL     1       5.010  22.626   2.827  0.00  0.00    +0.000 A 
ATOM      2  C   UNL     1       5.009  21.560   3.725  0.00  0.00    +0.000 A 
ATOM      3  C   UNL     1       6.221  21.042   4.198  0.00  0.00    +0.000 A 
ATOM      4  C   UNL     1       7.436  21.586   3.776  0.00  0.00    +0.000 A 
ATOM      5  C   UNL     1       7.445  22.652   2.879  0.00  0.00    +0.000 A 
ATOM      6  C   UNL     1       6.238  23.159   2.415  0.00  0.00    +0.000 A 
ENDROOT
BRANCH   1   8
ATOM      7  C   UNL     1       3.439  22.706   1.046  0.00  0.00    +0.000 C 
ATOM      8  O   UNL     1       3.904  23.230   2.284  0.00  0.00    +0.000 OA
ENDBRANCH   1   8
BRANCH   6   9
ATOM      9  O   UNL     1       6.272  24.206   1.533  0.00  0.00    +0.000 OA
ATOM     10  H   UNL     1       6.318  23.788   0.652  0.00  0.00    +0.000 HD
ENDBRANCH   6   9
TORSDOF 2
ENDMDL
MODEL 7
REMARK VINA RESULT:    -3.417     17.296     18.965
REMARK INTER + INTRA:          -3.769
REMARK INTER:                  -3.717
REMARK INTRA:                  -0.052
REMARK UNBOUND:                -0.052
REMARK  Name = 
REMARK  3 active torsions:
REMARK  status: ('A' for Active; 'I' for Inactive)
REMARK    1  A    between atoms: C_1  and  O_2
REMARK    2  A    between atoms: O_2  and  C_3
REMARK    3  A    between atoms: C_8  and  O_9
REMARK                            x       y       z     vdW  Elec       q    Type
REMARK                         _______ _______ _______ _____ _____    ______ ____
ROOT
ATOM      1  C   UNL     1      -4.276  15.204 -10.592  0.00  0.00    +0.000 A 
ATOM      2  C   UNL     1      -4.248  16.303 -11.449  0.00  0.00    +0.000 A 
ATOM      3  C   UNL     1      -4.282  16.110 -12.836  0.00  0.00    +0.000 A 
ATOM      4  C   UNL     1      -4.342  14.821 -13.369  0.00  0.00    +0.000 A 
ATOM      5  C   UNL     1      -4.370  13.718 -12.519  0.00  0.00    +0.000 A 
ATOM      6  C   UNL     1      -4.337  13.919 -11.145  0.00  0.00    +0.000 A 
ENDROOT
BRANCH   1   8
ATOM      7  C   UNL     1      -5.406  15.764  -8.577  0.00  0.00    +0.000 C 
ATOM      8  O   UNL     1      -4.248  15.245  -9.221  0.00  0.00    +0.000 OA
ENDBRANCH   1   8
BRANCH   6   9
ATOM      9  O   UNL     1      -4.365  12.820 -10.330  0.00  0.00    +0.000 OA
ATOM     10  H   UNL     1      -3.441  12.702 -10.039  0.00  0.00    +0.000 HD
ENDBRANCH   6   9
TORSDOF 2
ENDMDL
MODEL 8
REMARK VINA RESULT:    -3.358     18.601     20.190
REMARK INTER + INTRA:          -3.704
REMARK INTER:                  -3.666
REMARK INTRA:                  -0.038
REMARK UNBOUND:                -0.052
REMARK  Name = 
REMARK  3 active torsions:
REMARK  status: ('A' for Active; 'I' for Inactive)
REMARK    1  A    between atoms: C_1  and  O_2
REMARK    2  A    between atoms: O_2  and  C_3
REMARK    3  A    between atoms: C_8  and  O_9
REMARK                            x       y       z     vdW  Elec       q    Type
REMARK                         _______ _______ _______ _____ _____    ______ ____
ROOT
ATOM      1  C   UNL     1      -5.249  13.450 -12.294  0.00  0.00    +0.000 A 
ATOM      2  C   UNL     1      -5.185  14.654 -12.994  0.00  0.00    +0.000 A 
ATOM      3  C   UNL     1      -4.537  15.759 -12.427  0.00  0.00    +0.000 A 
ATOM      4  C   UNL     1      -3.954  15.665 -11.162  0.00  0.00    +0.000 A 
ATOM      5  C   UNL     1      -4.014  14.466 -10.456  0.00  0.00    +0.000 A 
ATOM      6  C   UNL     1      -4.658  13.375 -11.026  0.00  0.00    +0.000 A 
ENDROOT
BRANCH   1   8
ATOM      7  C   UNL     1      -6.204  12.236 -14.100  0.00  0.00    +0.000 C 
ATOM      8  O   UNL     1      -5.847  12.293 -12.724  0.00  0.00    +0.000 OA
ENDBRANCH   1   8
BRANCH   6   9
ATOM      9  O   UNL     1      -4.703  12.206 -10.314  0.00  0.00    +0.000 OA
ATOM     10  H   UNL     1      -5.477  12.303  -9.727  0.00  0.00    +0.000 HD
ENDBRANCH   6   9
TORSDOF 2
ENDMDL
MODEL 9
REMARK VINA RESULT:    -3.142     18.340     19.916
REMARK INTER + INTRA:          -3.470
REMARK INTER:                  -3.422
REMARK INTRA:                  -0.048
REMARK UNBOUND:                -0.052
REMARK  Name = 
REMARK  3 active torsions:
REMARK  status: ('A' for Active; 'I' for Inactive)
REMARK    1  A    between atoms: C_1  and  O_2
REMARK    2  A    between atoms: O_2  and  C_3
REMARK    3  A    between atoms: C_8  and  O_9
REMARK                            x       y       z     vdW  Elec       q    Type
REMARK                         _______ _______ _______ _____ _____    ______ ____
ROOT
ATOM      1  C   UNL     1      -5.140  14.051 -12.205  0.00  0.00    +0.000 A 
ATOM      2  C   UNL     1      -4.135  13.450 -11.448  0.00  0.00    +0.000 A 
ATOM      3  C   UNL     1      -3.598  14.120 -10.341  0.00  0.00    +0.000 A 
ATOM      4  C   UNL     1      -4.061  15.388  -9.988  0.00  0.00    +0.000 A 
ATOM      5  C   UNL     1      -5.065  15.995 -10.739  0.00  0.00    +0.000 A 
ATOM      6  C   UNL     1      -5.592  15.324 -11.835  0.00  0.00    +0.000 A 
ENDROOT
BRANCH   1   8
ATOM      7  C   UNL     1      -6.241  12.184 -13.180  0.00  0.00    +0.000 C 
ATOM      8  O   UNL     1      -5.754  13.515 -13.308  0.00  0.00    +0.000 OA
ENDBRANCH   1   8
BRANCH   6   9
ATOM      9  O   UNL     1      -6.578  15.940 -12.558  0.00  0.00    +0.000 OA
ATOM     10  H   UNL     1      -6.173  16.123 -13.427  0.00  0.00    +0.000 HD
ENDBRANCH   6   9
TORSDOF 2
ENDMDL
