MODEL 1
REMARK VINA RESULT:    -3.809      0.000      0.000
REMARK INTER + INTRA:          -5.649
REMARK INTER:                  -5.146
REMARK INTRA:                  -0.503
REMARK UNBOUND:                -0.503
REMARK  Name = 
REMARK  10 active torsions:
REMARK  status: ('A' for Active; 'I' for Inactive)
REMARK    1  A    between atoms: C_1  and  C_2
REMARK    2  A    between atoms: C_5  and  N_8
REMARK    3  A    between atoms: N_8  and  C_9
REMARK    4  A    between atoms: N_8  and  C_13
REMARK    5  A    between atoms: C_9  and  C_10
REMARK    6  A    between atoms: C_10  and  C_11
REMARK    7  A    between atoms: C_10  and  O_12
REMARK    8  A    between atoms: C_13  and  C_14
REMARK    9  A    between atoms: C_14  and  C_15
REMARK   10  A    between atoms: C_14  and  O_16
REMARK                            x       y       z     vdW  Elec       q    Type
REMARK                         _______ _______ _______ _____ _____    ______ ____
ROOT
ATOM      1  N   UNL     1      16.530   7.702  20.637  0.00  0.00    +0.000 N 
ENDROOT
BRANCH   1   6
ATOM      2  C   UNL     1      15.905   8.677  14.982  0.00  0.00    +0.000 C 
ATOM      3  C   UNL     1      16.052   8.404  16.447  0.00  0.00    +0.000 A 
ATOM      4  C   UNL     1      15.217   9.017  17.375  0.00  0.00    +0.000 A 
ATOM      5  C   UNL     1      15.378   8.781  18.750  0.00  0.00    +0.000 A 
ATOM      6  C   UNL     1      16.387   7.948  19.266  0.00  0.00    +0.000 A 
ATOM      7  C   UNL     1      17.212   7.344  18.300  0.00  0.00    +0.000 A 
ATOM      8  C   UNL     1      17.060   7.569  16.921  0.00  0.00    +0.000 A 
ENDBRANCH   1   6
BRANCH   1   9
ATOM      9  C   UNL     1      15.994   6.452  21.228  0.00  0.00    +0.000 C 
BRANCH   9  10
ATOM     10  C   UNL     1      17.083   5.370  21.432  0.00  0.00    +0.000 C 
ATOM     11  C   UNL     1      17.151   4.932  22.890  0.00  0.00    +0.000 C 
BRANCH  10  12
ATOM     12  O   UNL     1      16.813   4.210  20.632  0.00  0.00    +0.000 OA
ATOM     13  H   UNL     1      17.563   4.078  20.029  0.00  0.00    +0.000 HD
ENDBRANCH  10  12
ENDBRANCH   9  10
ENDBRANCH   1   9
BRANCH   1  14
ATOM     14  C   UNL     1      16.725   8.815  21.602  0.00  0.00    +0.000 C 
BRANCH  14  15
ATOM     15  C   UNL     1      15.535   8.954  22.582  0.00  0.00    +0.000 C 
ATOM     16  C   UNL     1      15.948   9.464  23.957  0.00  0.00    +0.000 C 
BRANCH  15  17
ATOM     17  O   UNL     1      14.530   9.828  22.070  0.00  0.00    +0.000 OA
ATOM     18  H   UNL     1      14.236   9.412  21.234  0.00  0.00    +0.000 HD
ENDBRANCH  15  17
ENDBRANCH  14  15
ENDBRANCH   1  14
TORSDOF 7
ENDMDL
MODEL 2
REMARK VINA RESULT:    -3.658      8.740     12.019
REMARK INTER + INTRA:          -5.445
REMARK INTER:                  -5.030
REMARK INTRA:                  -0.416
REMARK UNBOUND:                -0.503
REMARK  Name = 
REMARK  10 active torsions:
REMARK  status: ('A' for Active; 'I' for Inactive)
REMARK    1  A    between atoms: C_1  and  C_2
REMARK    2  A    between atoms: C_5  and  N_8
REMARK    3  A    between atoms: N_8  and  C_9
REMARK    4  A    between atoms: N_8  and  C_13
REMARK    5  A    between atoms: C_9  and  C_10
REMARK    6  A    between atoms: C_10  and  C_11
REMARK    7  A    between atoms: C_10  and  O_12
REMARK    8  A    between atoms: C_13  and  C_14
REMARK    9  A    between atoms: C_14  and  C_15
REMARK   10  A    between atoms: C_14  and  O_16
REMARK                            x       y       z     vdW  Elec       q    Type
REMARK                         _______ _______ _______ _____ _____    ______ ____
ROOT
ATOM      1  N   UNL     1      14.990  10.867   9.216  0.00  0.00    +0.000 N 
ENDROOT
BRANCH   1   6
ATOM      2  C   UNL     1      17.265  10.250   3.946  0.00  0.00    +0.000 C 
ATOM      3  C   UNL     1      16.675  10.385   5.316  0.00  0.00    +0.000 A 
ATOM      4  C   UNL     1      15.298  10.464   5.495  0.00  0.00    +0.000 A 
ATOM      5  C   UNL     1      14.751  10.621   6.779  0.00  0.00    +0.000 A 
ATOM      6  C   UNL     1      15.543  10.730   7.936  0.00  0.00    +0.000 A 
ATOM      7  C   UNL     1      16.931  10.645   7.717  0.00  0.00    +0.000 A 
ATOM      8  C   UNL     1      17.490  10.486   6.439  0.00  0.00    +0.000 A 
ENDBRANCH   1   6
BRANCH   1   9
ATOM      9  C   UNL     1      13.576  11.284   9.374  0.00  0.00    +0.000 C 
BRANCH   9  10
ATOM     10  C   UNL     1      12.698  10.190  10.030  0.00  0.00    +0.000 C 
ATOM     11  C   UNL     1      12.206  10.636  11.402  0.00  0.00    +0.000 C 
BRANCH  10  12
ATOM     12  O   UNL     1      11.551   9.897   9.220  0.00  0.00    +0.000 OA
ATOM     13  H   UNL     1      11.620   8.975   8.923  0.00  0.00    +0.000 HD
ENDBRANCH  10  12
ENDBRANCH   9  10
ENDBRANCH   1   9
BRANCH   1  14
ATOM     14  C   UNL     1      15.850  11.111  10.403  0.00  0.00    +0.000 C 
BRANCH  14  15
ATOM     15  C   UNL     1      16.167   9.806  11.172  0.00  0.00    +0.000 C 
ATOM     16  C   UNL     1      15.815   9.883  12.653  0.00  0.00    +0.000 C 
BRANCH  15  17
ATOM     17  O   UNL     1      15.484   8.685  10.613  0.00  0.00    +0.000 OA
ATOM     18  H   UNL     1      14.535   8.867  10.763  0.00  0.00    +0.000 HD
ENDBRANCH  15  17
ENDBRANCH  14  15
ENDBRANCH   1  14
TORSDOF 7
ENDMDL
MODEL 3
REMARK VINA RESULT:    -3.584      6.487     10.121
REMARK INTER + INTRA:          -5.345
REMARK INTER:                  -5.579
REMARK INTRA:                   0.234
REMARK UNBOUND:                -0.503
REMARK  Name = 
REMARK  10 active torsions:
REMARK  status: ('A' for Active; 'I' for Inactive)
REMARK    1  A    between atoms: C_1  and  C_2
REMARK    2  A    between atoms: C_5  and  N_8
REMARK    3  A    between atoms: N_8  and  C_9
REMARK    4  A    between atoms: N_8  and  C_13
REMARK    5  A    between atoms: C_9  and  C_10
REMARK    6  A    between atoms: C_10  and  C_11
REMARK    7  A    between atoms: C_10  and  O_12
REMARK    8  A    between atoms: C_13  and  C_14
REMARK    9  A    between atoms: C_14  and  C_15
REMARK   10  A    between atoms: C_14  and  O_16
REMARK                            x       y       z     vdW  Elec       q    Type
REMARK                         _______ _______ _______ _____ _____    ______ ____
ROOT
ATOM      1  N   UNL     1      14.878  10.655  11.545  0.00  0.00    +0.000 N 
ENDROOT
BRANCH   1   6
ATOM      2  C   UNL     1      15.244   9.498  17.189  0.00  0.00    +0.000 C 
ATOM      3  C   UNL     1      15.170   9.813  15.726  0.00  0.00    +0.000 A 
ATOM      4  C   UNL     1      14.411  10.883  15.264  0.00  0.00    +0.000 A 
ATOM      5  C   UNL     1      14.321  11.155  13.889  0.00  0.00    +0.000 A 
ATOM      6  C   UNL     1      14.957  10.367  12.913  0.00  0.00    +0.000 A 
ATOM      7  C   UNL     1      15.716   9.295  13.417  0.00  0.00    +0.000 A 
ATOM      8  C   UNL     1      15.817   9.013  14.790  0.00  0.00    +0.000 A 
ENDBRANCH   1   6
BRANCH   1   9
ATOM      9  C   UNL     1      13.637  11.237  10.978  0.00  0.00    +0.000 C 
BRANCH   9  10
ATOM     10  C   UNL     1      12.682  10.165  10.399  0.00  0.00    +0.000 C 
ATOM     11  C   UNL     1      12.241  10.533   8.988  0.00  0.00    +0.000 C 
BRANCH  10  12
ATOM     12  O   UNL     1      13.321   8.882  10.344  0.00  0.00    +0.000 OA
ATOM     13  H   UNL     1      12.733   8.234  10.767  0.00  0.00    +0.000 HD
ENDBRANCH  10  12
ENDBRANCH   9  10
ENDBRANCH   1   9
BRANCH   1  14
ATOM     14  C   UNL     1      15.748   9.961  10.561  0.00  0.00    +0.000 C 
BRANCH  14  15
ATOM     15  C   UNL     1      16.031  10.833   9.314  0.00  0.00    +0.000 C 
ATOM     16  C   UNL     1      17.498  11.222   9.174  0.00  0.00    +0.000 C 
BRANCH  15  17
ATOM     17  O   UNL     1      15.631  10.178   8.112  0.00  0.00    +0.000 OA
ATOM     18  H   UNL     1      14.884   9.603   8.373  0.00  0.00    +0.000 HD
ENDBRANCH  15  17
ENDBRANCH  14  15
ENDBRANCH   1  14
TORSDOF 7
ENDMDL
MODEL 4
REMARK VINA RESULT:    -2.795     22.779     24.382
REMARK INTER + INTRA:          -4.279
REMARK INTER:                  -4.361
REMARK INTRA:                   0.082
REMARK UNBOUND:                -0.503
REMARK  Name = 
REMARK  10 active torsions:
REMARK  status: ('A' for Active; 'I' for Inactive)
REMARK    1  A    between atoms: C_1  and  C_2
REMARK    2  A    between atoms: C_5  and  N_8
REMARK    3  A    between atoms: N_8  and  C_9
REMARK    4  A    between atoms: N_8  and  C_13
REMARK    5  A    between atoms: C_9  and  C_10
REMARK    6  A    between atoms: C_10  and  C_11
REMARK    7  A    between atoms: C_10  and  O_12
REMARK    8  A    between atoms: C_13  and  C_14
REMARK    9  A    between atoms: C_14  and  C_15
REMARK   10  A    between atoms: C_14  and  O_16
REMARK                            x       y       z     vdW  Elec       q    Type
REMARK                         _______ _______ _______ _____ _____    ______ ____
ROOT
ATOM      1  N   UNL     1      -0.551 -10.787  22.370  0.00  0.00    +0.000 N 
ENDROOT
BRANCH   1   6
ATOM      2  C   UNL     1       4.903  -9.116  23.259  0.00  0.00    +0.000 C 
ATOM      3  C   UNL     1       3.480  -9.528  23.038  0.00  0.00    +0.000 A 
ATOM      4  C   UNL     1       2.789 -10.255  24.001  0.00  0.00    +0.000 A 
ATOM      5  C   UNL     1       1.464 -10.665  23.776  0.00  0.00    +0.000 A 
ATOM      6  C   UNL     1       0.776 -10.392  22.580  0.00  0.00    +0.000 A 
ATOM      7  C   UNL     1       1.504  -9.653  21.630  0.00  0.00    +0.000 A 
ATOM      8  C   UNL     1       2.829  -9.236  21.843  0.00  0.00    +0.000 A 
ENDBRANCH   1   6
BRANCH   1   9
ATOM      9  C   UNL     1      -1.159 -10.664  21.024  0.00  0.00    +0.000 C 
BRANCH   9  10
ATOM     10  C   UNL     1      -2.116  -9.453  20.905  0.00  0.00    +0.000 C 
ATOM     11  C   UNL     1      -1.438  -8.290  20.190  0.00  0.00    +0.000 C 
BRANCH  10  12
ATOM     12  O   UNL     1      -3.297  -9.799  20.168  0.00  0.00    +0.000 OA
ATOM     13  H   UNL     1      -3.428  -9.129  19.477  0.00  0.00    +0.000 HD
ENDBRANCH  10  12
ENDBRANCH   9  10
ENDBRANCH   1   9
BRANCH   1  14
ATOM     14  C   UNL     1      -1.524 -10.840  23.492  0.00  0.00    +0.000 C 
BRANCH  14  15
ATOM     15  C   UNL     1      -2.056  -9.437  23.871  0.00  0.00    +0.000 C 
ATOM     16  C   UNL     1      -3.574  -9.388  24.006  0.00  0.00    +0.000 C 
BRANCH  15  17
ATOM     17  O   UNL     1      -1.488  -8.970  25.094  0.00  0.00    +0.000 OA
ATOM     18  H   UNL     1      -2.067  -9.331  25.795  0.00  0.00    +0.000 HD
ENDBRANCH  15  17
ENDBRANCH  14  15
ENDBRANCH   1  14
TORSDOF 7
ENDMDL
MODEL 5
REMARK VINA RESULT:    -2.750     15.748     17.404
REMARK INTER + INTRA:          -4.217
REMARK INTER:                  -3.746
REMARK INTRA:                  -0.471
REMARK UNBOUND:                -0.503
REMARK  Name = 
REMARK  10 active torsions:
REMARK  status: ('A' for Active; 'I' for Inactive)
REMARK    1  A    between atoms: C_1  and  C_2
REMARK    2  A    between atoms: C_5  and  N_8
REMARK    3  A    between atoms: N_8  and  C_9
REMARK    4  A    between atoms: N_8  and  C_13
REMARK    5  A    between atoms: C_9  and  C_10
REMARK    6  A    between atoms: C_10  and  C_11
REMARK    7  A    between atoms: C_10  and  O_12
REMARK    8  A    between atoms: C_13  and  C_14
REMARK    9  A    between atoms: C_14  and  C_15
REMARK   10  A    between atoms: C_14  and  O_16
REMARK                            x       y       z     vdW  Elec       q    Type
REMARK                         _______ _______ _______ _____ _____    ______ ____
ROOT
ATOM      1  N   UNL     1      13.600  -9.152  21.181  0.00  0.00    +0.000 N 
ENDROOT
BRANCH   1   6
ATOM      2  C   UNL     1       8.775  -8.620  18.055  0.00  0.00    +0.000 C 
ATOM      3  C   UNL     1      10.041  -8.754  18.846  0.00  0.00    +0.000 A 
ATOM      4  C   UNL     1      10.657  -9.990  19.005  0.00  0.00    +0.000 A 
ATOM      5  C   UNL     1      11.827 -10.114  19.772  0.00  0.00    +0.000 A 
ATOM      6  C   UNL     1      12.422  -9.025  20.433  0.00  0.00    +0.000 A 
ATOM      7  C   UNL     1      11.773  -7.790  20.249  0.00  0.00    +0.000 A 
ATOM      8  C   UNL     1      10.604  -7.652  19.483  0.00  0.00    +0.000 A 
ENDBRANCH   1   6
BRANCH   1   9
ATOM      9  C   UNL     1      13.566  -8.989  22.655  0.00  0.00    +0.000 C 
BRANCH   9  10
ATOM     10  C   UNL     1      14.572  -7.929  23.164  0.00  0.00    +0.000 C 
ATOM     11  C   UNL     1      13.845  -6.710  23.720  0.00  0.00    +0.000 C 
BRANCH  10  12
ATOM     12  O   UNL     1      15.401  -8.464  24.205  0.00  0.00    +0.000 OA
ATOM     13  H   UNL     1      16.049  -7.784  24.455  0.00  0.00    +0.000 HD
ENDBRANCH  10  12
ENDBRANCH   9  10
ENDBRANCH   1   9
BRANCH   1  14
ATOM     14  C   UNL     1      14.932  -8.939  20.560  0.00  0.00    +0.000 C 
BRANCH  14  15
ATOM     15  C   UNL     1      15.879 -10.143  20.779  0.00  0.00    +0.000 C 
ATOM     16  C   UNL     1      16.747 -10.452  19.565  0.00  0.00    +0.000 C 
BRANCH  15  17
ATOM     17  O   UNL     1      16.740  -9.939  21.898  0.00  0.00    +0.000 OA
ATOM     18  H   UNL     1      17.290  -9.167  21.656  0.00  0.00    +0.000 HD
ENDBRANCH  15  17
ENDBRANCH  14  15
ENDBRANCH   1  14
TORSDOF 7
ENDMDL
MODEL 6
REMARK VINA RESULT:    -2.379     16.050     17.197
REMARK INTER + INTRA:          -3.716
REMARK INTER:                  -3.401
REMARK INTRA:                  -0.315
REMARK UNBOUND:                -0.503
REMARK  Name = 
REMARK  10 active torsions:
REMARK  status: ('A' for Active; 'I' for Inactive)
REMARK    1  A    between atoms: C_1  and  C_2
REMARK    2  A    between atoms: C_5  and  N_8
REMARK    3  A    between atoms: N_8  and  C_9
REMARK    4  A    between atoms: N_8  and  C_13
REMARK    5  A    between atoms: C_9  and  C_10
REMARK    6  A    between atoms: C_10  and  C_11
REMARK    7  A    between atoms: C_10  and  O_12
REMARK    8  A    between atoms: C_13  and  C_14
REMARK    9  A    between atoms: C_14  and  C_15
REMARK   10  A    between atoms: C_14  and  O_16
REMARK                            x       y       z     vdW  Elec       q    Type
REMARK                         _______ _______ _______ _____ _____    ______ ____
ROOT
ATOM      1  N   UNL     1      13.487  -9.009  21.315  0.00  0.00    +0.000 N 
ENDROOT
BRANCH   1   6
ATOM      2  C   UNL     1       8.837  -8.747  17.903  0.00  0.00    +0.000 C 
ATOM      3  C   UNL     1      10.029  -8.820  18.808  0.00  0.00    +0.000 A 
ATOM      4  C   UNL     1      10.520  -7.681  19.436  0.00  0.00    +0.000 A 
ATOM      5  C   UNL     1      11.655  -7.750  20.260  0.00  0.00    +0.000 A 
ATOM      6  C   UNL     1      12.367  -8.944  20.477  0.00  0.00    +0.000 A 
ATOM      7  C   UNL     1      11.841 -10.076  19.828  0.00  0.00    +0.000 A 
ATOM      8  C   UNL     1      10.705 -10.021  19.003  0.00  0.00    +0.000 A 
ENDBRANCH   1   6
BRANCH   1   9
ATOM      9  C   UNL     1      13.857 -10.291  21.962  0.00  0.00    +0.000 C 
BRANCH   9  10
ATOM     10  C   UNL     1      15.269 -10.782  21.558  0.00  0.00    +0.000 C 
ATOM     11  C   UNL     1      15.862  -9.896  20.468  0.00  0.00    +0.000 C 
BRANCH  10  12
ATOM     12  O   UNL     1      16.162 -10.763  22.680  0.00  0.00    +0.000 OA
ATOM     13  H   UNL     1      16.097  -9.890  23.102  0.00  0.00    +0.000 HD
ENDBRANCH  10  12
ENDBRANCH   9  10
ENDBRANCH   1   9
BRANCH   1  14
ATOM     14  C   UNL     1      14.017  -7.795  21.986  0.00  0.00    +0.000 C 
BRANCH  14  15
ATOM     15  C   UNL     1      13.852  -7.858  23.524  0.00  0.00    +0.000 C 
ATOM     16  C   UNL     1      15.171  -7.711  24.274  0.00  0.00    +0.000 C 
BRANCH  15  17
ATOM     17  O   UNL     1      12.958  -6.853  24.000  0.00  0.00    +0.000 OA
ATOM     18  H   UNL     1      13.285  -6.018  23.609  0.00  0.00    +0.000 HD
ENDBRANCH  15  17
ENDBRANCH  14  15
ENDBRANCH   1  14
TORSDOF 7
ENDMDL
MODEL 7
REMARK VINA RESULT:    -2.377      4.607      6.618
REMARK INTER + INTRA:          -3.714
REMARK INTER:                  -4.915
REMARK INTRA:                   1.201
REMARK UNBOUND:                -0.503
REMARK  Name = 
REMARK  10 active torsions:
REMARK  status: ('A' for Active; 'I' for Inactive)
REMARK    1  A    between atoms: C_1  and  C_2
REMARK    2  A    between atoms: C_5  and  N_8
REMARK    3  A    between atoms: N_8  and  C_9
REMARK    4  A    between atoms: N_8  and  C_13
REMARK    5  A    between atoms: C_9  and  C_10
REMARK    6  A    between atoms: C_10  and  C_11
REMARK    7  A    between atoms: C_10  and  O_12
REMARK    8  A    between atoms: C_13  and  C_14
REMARK    9  A    between atoms: C_14  and  C_15
REMARK   10  A    between atoms: C_14  and  O_16
REMARK                            x       y       z     vdW  Elec       q    Type
REMARK                         _______ _______ _______ _____ _____    ______ ____
ROOT
ATOM      1  N   UNL     1      16.538  10.330  14.316  0.00  0.00    +0.000 N 
ENDROOT
BRANCH   1   6
ATOM      2  C   UNL     1      13.193   9.905   9.630  0.00  0.00    +0.000 C 
ATOM      3  C   UNL     1      14.073  10.034  10.835  0.00  0.00    +0.000 A 
ATOM      4  C   UNL     1      15.239   9.284  10.952  0.00  0.00    +0.000 A 
ATOM      5  C   UNL     1      16.045   9.387  12.098  0.00  0.00    +0.000 A 
ATOM      6  C   UNL     1      15.719  10.217  13.185  0.00  0.00    +0.000 A 
ATOM      7  C   UNL     1      14.535  10.962  13.032  0.00  0.00    +0.000 A 
ATOM      8  C   UNL     1      13.721  10.870  11.891  0.00  0.00    +0.000 A 
ENDBRANCH   1   6
BRANCH   1   9
ATOM      9  C   UNL     1      17.416   9.203  14.713  0.00  0.00    +0.000 C 
BRANCH   9  10
ATOM     10  C   UNL     1      16.631   8.021  15.335  0.00  0.00    +0.000 C 
ATOM     11  C   UNL     1      16.949   7.877  16.819  0.00  0.00    +0.000 C 
BRANCH  10  12
ATOM     12  O   UNL     1      15.217   8.215  15.200  0.00  0.00    +0.000 OA
ATOM     13  H   UNL     1      14.781   7.355  15.326  0.00  0.00    +0.000 HD
ENDBRANCH  10  12
ENDBRANCH   9  10
ENDBRANCH   1   9
BRANCH   1  14
ATOM     14  C   UNL     1      16.214  11.284  15.408  0.00  0.00    +0.000 C 
BRANCH  14  15
ATOM     15  C   UNL     1      15.226  10.682  16.436  0.00  0.00    +0.000 C 
ATOM     16  C   UNL     1      15.431  11.216  17.848  0.00  0.00    +0.000 C 
BRANCH  15  17
ATOM     17  O   UNL     1      13.869  10.922  16.065  0.00  0.00    +0.000 OA
ATOM     18  H   UNL     1      13.337  10.523  16.782  0.00  0.00    +0.000 HD
ENDBRANCH  15  17
ENDBRANCH  14  15
ENDBRANCH   1  14
TORSDOF 7
ENDMDL
