MODEL 1
REMARK VINA RESULT:    -3.766      0.000      0.000
REMARK INTER + INTRA:          -4.143
REMARK INTER:                  -4.096
REMARK INTRA:                  -0.046
REMARK UNBOUND:                -0.046
REMARK  Name = 
REMARK  3 active torsions:
REMARK  status: ('A' for Active; 'I' for Inactive)
REMARK    1  A    between atoms: C_1  and  O_2
REMARK    2  A    between atoms: O_2  and  C_3
REMARK    3  A    between atoms: C_8  and  O_9
REMARK                            x       y       z     vdW  Elec       q    Type
REMARK                         _______ _______ _______ _____ _____    ______ ____
ROOT
ATOM      1  C   UNL     1      16.348  -6.550   8.267  0.00  0.00    +0.000 A 
ATOM      2  C   UNL     1      17.168  -6.050   7.256  0.00  0.00    +0.000 A 
ATOM      3  C   UNL     1      17.350  -4.667   7.123  0.00  0.00    +0.000 A 
ATOM      4  C   UNL     1      16.714  -3.782   7.996  0.00  0.00    +0.000 A 
ATOM      5  C   UNL     1      15.895  -4.274   9.009  0.00  0.00    +0.000 A 
ATOM      6  C   UNL     1      15.720  -5.647   9.134  0.00  0.00    +0.000 A 
ENDROOT
BRANCH   1   8
ATOM      7  C   UNL     1      17.193  -8.759   8.498  0.00  0.00    +0.000 C 
ATOM      8  O   UNL     1      16.080  -7.872   8.514  0.00  0.00    +0.000 OA
ENDBRANCH   1   8
BRANCH   6   9
ATOM      9  O   UNL     1      14.909  -6.107  10.137  0.00  0.00    +0.000 OA
ATOM     10  H   UNL     1      15.520  -6.349  10.859  0.00  0.00    +0.000 HD
ENDBRANCH   6   9
TORSDOF 2
ENDMDL
MODEL 2
REMARK VINA RESULT:    -3.764      1.757      3.284
REMARK INTER + INTRA:          -4.140
REMARK INTER:                  -4.163
REMARK INTRA:                   0.023
REMARK UNBOUND:                -0.046
REMARK  Name = 
REMARK  3 active torsions:
REMARK  status: ('A' for Active; 'I' for Inactive)
REMARK    1  A    between atoms: C_1  and  O_2
REMARK    2  A    between atoms: O_2  and  C_3
REMARK    3  A    between atoms: C_8  and  O_9
REMARK                            x       y       z     vdW  Elec       q    Type
REMARK                         _______ _______ _______ _____ _____    ______ ____
ROOT
ATOM      1  C   UNL     1      16.493  -4.322   8.134  0.00  0.00    +0.000 A 
ATOM      2  C   UNL     1      17.177  -5.179   7.273  0.00  0.00    +0.000 A 
ATOM      3  C   UNL     1      17.149  -6.562   7.494  0.00  0.00    +0.000 A 
ATOM      4  C   UNL     1      16.438  -7.092   8.573  0.00  0.00    +0.000 A 
ATOM      5  C   UNL     1      15.752  -6.242   9.437  0.00  0.00    +0.000 A 
ATOM      6  C   UNL     1      15.786  -4.872   9.210  0.00  0.00    +0.000 A 
ENDROOT
BRANCH   1   8
ATOM      7  C   UNL     1      17.489  -2.230   8.662  0.00  0.00    +0.000 C 
ATOM      8  O   UNL     1      16.435  -2.955   8.039  0.00  0.00    +0.000 OA
ENDBRANCH   1   8
BRANCH   6   9
ATOM      9  O   UNL     1      15.103  -4.057  10.073  0.00  0.00    +0.000 OA
ATOM     10  H   UNL     1      14.286  -3.818   9.595  0.00  0.00    +0.000 HD
ENDBRANCH   6   9
TORSDOF 2
ENDMDL
MODEL 3
REMARK VINA RESULT:    -3.638      2.085      3.946
REMARK INTER + INTRA:          -4.004
REMARK INTER:                  -3.963
REMARK INTRA:                  -0.041
REMARK UNBOUND:                -0.046
REMARK  Name = 
REMARK  3 active torsions:
REMARK  status: ('A' for Active; 'I' for Inactive)
REMARK    1  A    between atoms: C_1  and  O_2
REMARK    2  A    between atoms: O_2  and  C_3
REMARK    3  A    between atoms: C_8  and  O_9
REMARK                            x       y       z     vdW  Elec       q    Type
REMARK                         _______ _______ _______ _____ _____    ______ ____
ROOT
ATOM      1  C   UNL     1      16.500  -4.381   8.315  0.00  0.00    +0.000 A 
ATOM      2  C   UNL     1      15.887  -4.603   9.547  0.00  0.00    +0.000 A 
ATOM      3  C   UNL     1      15.674  -5.912   9.996  0.00  0.00    +0.000 A 
ATOM      4  C   UNL     1      16.071  -7.001   9.218  0.00  0.00    +0.000 A 
ATOM      5  C   UNL     1      16.685  -6.787   7.986  0.00  0.00    +0.000 A 
ATOM      6  C   UNL     1      16.892  -5.485   7.548  0.00  0.00    +0.000 A 
ENDROOT
BRANCH   1   8
ATOM      7  C   UNL     1      17.016  -2.086   8.652  0.00  0.00    +0.000 C 
ATOM      8  O   UNL     1      16.770  -3.159   7.752  0.00  0.00    +0.000 OA
ENDBRANCH   1   8
BRANCH   6   9
ATOM      9  O   UNL     1      17.498  -5.300   6.334  0.00  0.00    +0.000 OA
ATOM     10  H   UNL     1      18.058  -4.509   6.454  0.00  0.00    +0.000 HD
ENDBRANCH   6   9
TORSDOF 2
ENDMDL
MODEL 4
REMARK VINA RESULT:    -3.633      1.660      2.568
REMARK INTER + INTRA:          -3.998
REMARK INTER:                  -3.946
REMARK INTRA:                  -0.053
REMARK UNBOUND:                -0.046
REMARK  Name = 
REMARK  3 active torsions:
REMARK  status: ('A' for Active; 'I' for Inactive)
REMARK    1  A    between atoms: C_1  and  O_2
REMARK    2  A    between atoms: O_2  and  C_3
REMARK    3  A    between atoms: C_8  and  O_9
REMARK                            x       y       z     vdW  Elec       q    Type
REMARK                         _______ _______ _______ _____ _____    ______ ____
ROOT
ATOM      1  C   UNL     1      16.491  -4.942   9.661  0.00  0.00    +0.000 A 
ATOM      2  C   UNL     1      16.849  -3.664  10.088  0.00  0.00    +0.000 A 
ATOM      3  C   UNL     1      17.172  -2.677   9.148  0.00  0.00    +0.000 A 
ATOM      4  C   UNL     1      17.139  -2.963   7.782  0.00  0.00    +0.000 A 
ATOM      5  C   UNL     1      16.782  -4.238   7.347  0.00  0.00    +0.000 A 
ATOM      6  C   UNL     1      16.463  -5.210   8.286  0.00  0.00    +0.000 A 
ENDROOT
BRANCH   1   8
ATOM      7  C   UNL     1      17.184  -6.524  11.292  0.00  0.00    +0.000 C 
ATOM      8  O   UNL     1      16.153  -6.001  10.465  0.00  0.00    +0.000 OA
ENDBRANCH   1   8
BRANCH   6   9
ATOM      9  O   UNL     1      16.116  -6.455   7.835  0.00  0.00    +0.000 OA
ATOM     10  H   UNL     1      16.096  -7.013   8.636  0.00  0.00    +0.000 HD
ENDBRANCH   6   9
TORSDOF 2
ENDMDL
MODEL 5
REMARK VINA RESULT:    -3.548      1.107      2.224
REMARK INTER + INTRA:          -3.906
REMARK INTER:                  -3.895
REMARK INTRA:                  -0.011
REMARK UNBOUND:                -0.046
REMARK  Name = 
REMARK  3 active torsions:
REMARK  status: ('A' for Active; 'I' for Inactive)
REMARK    1  A    between atoms: C_1  and  O_2
REMARK    2  A    between atoms: O_2  and  C_3
REMARK    3  A    between atoms: C_8  and  O_9
REMARK                            x       y       z     vdW  Elec       q    Type
REMARK                         _______ _______ _______ _____ _____    ______ ____
ROOT
ATOM      1  C   UNL     1      16.272  -6.566   8.625  0.00  0.00    +0.000 A 
ATOM      2  C   UNL     1      15.856  -5.920   9.788  0.00  0.00    +0.000 A 
ATOM      3  C   UNL     1      15.964  -4.527   9.892  0.00  0.00    +0.000 A 
ATOM      4  C   UNL     1      16.486  -3.777   8.837  0.00  0.00    +0.000 A 
ATOM      5  C   UNL     1      16.903  -4.415   7.671  0.00  0.00    +0.000 A 
ATOM      6  C   UNL     1      16.793  -5.797   7.577  0.00  0.00    +0.000 A 
ENDROOT
BRANCH   1   8
ATOM      7  C   UNL     1      17.289  -8.692   8.925  0.00  0.00    +0.000 C 
ATOM      8  O   UNL     1      16.226  -7.916   8.386  0.00  0.00    +0.000 OA
ENDBRANCH   1   8
BRANCH   6   9
ATOM      9  O   UNL     1      17.209  -6.401   6.421  0.00  0.00    +0.000 OA
ATOM     10  H   UNL     1      18.168  -6.223   6.379  0.00  0.00    +0.000 HD
ENDBRANCH   6   9
TORSDOF 2
ENDMDL
MODEL 6
REMARK VINA RESULT:    -3.470     15.756     16.884
REMARK INTER + INTRA:          -3.820
REMARK INTER:                  -3.781
REMARK INTRA:                  -0.039
REMARK UNBOUND:                -0.046
REMARK  Name = 
REMARK  3 active torsions:
REMARK  status: ('A' for Active; 'I' for Inactive)
REMARK    1  A    between atoms: C_1  and  O_2
REMARK    2  A    between atoms: O_2  and  C_3
REMARK    3  A    between atoms: C_8  and  O_9
REMARK                            x       y       z     vdW  Elec       q    Type
REMARK                         _______ _______ _______ _____ _____    ______ ____
ROOT
ATOM      1  C   UNL     1      13.400  10.128  10.943  0.00  0.00    +0.000 A 
ATOM      2  C   UNL     1      12.785  11.011  11.828  0.00  0.00    +0.000 A 
ATOM      3  C   UNL     1      13.376  11.284  13.069  0.00  0.00    +0.000 A 
ATOM      4  C   UNL     1      14.580  10.675  13.428  0.00  0.00    +0.000 A 
ATOM      5  C   UNL     1      15.201   9.792  12.548  0.00  0.00    +0.000 A 
ATOM      6  C   UNL     1      14.608   9.527  11.320  0.00  0.00    +0.000 A 
ENDROOT
BRANCH   1   8
ATOM      7  C   UNL     1      11.999  10.650   9.096  0.00  0.00    +0.000 C 
ATOM      8  O   UNL     1      12.937   9.769   9.702  0.00  0.00    +0.000 OA
ENDBRANCH   1   8
BRANCH   6   9
ATOM      9  O   UNL     1      15.237   8.655  10.473  0.00  0.00    +0.000 OA
ATOM     10  H   UNL     1      14.823   7.790  10.654  0.00  0.00    +0.000 HD
ENDBRANCH   6   9
TORSDOF 2
ENDMDL
MODEL 7
REMARK VINA RESULT:    -3.424     18.972     20.194
REMARK INTER + INTRA:          -3.771
REMARK INTER:                  -3.728
REMARK INTRA:                  -0.043
REMARK UNBOUND:                -0.046
REMARK  Name = 
REMARK  3 active torsions:
REMARK  status: ('A' for Active; 'I' for Inactive)
REMARK    1  A    between atoms: C_1  and  O_2
REMARK    2  A    between atoms: O_2  and  C_3
REMARK    3  A    between atoms: C_8  and  O_9
REMARK                            x       y       z     vdW  Elec       q    Type
REMARK                         _______ _______ _______ _____ _____    ______ ____
ROOT
ATOM      1  C   UNL     1       4.637   9.133   3.647  0.00  0.00    +0.000 A 
ATOM      2  C   UNL     1       5.427  10.176   4.130  0.00  0.00    +0.000 A 
ATOM      3  C   UNL     1       4.832  11.249   4.806  0.00  0.00    +0.000 A 
ATOM      4  C   UNL     1       3.450  11.283   5.002  0.00  0.00    +0.000 A 
ATOM      5  C   UNL     1       2.655  10.245   4.523  0.00  0.00    +0.000 A 
ATOM      6  C   UNL     1       3.253   9.185   3.853  0.00  0.00    +0.000 A 
ENDROOT
BRANCH   1   8
ATOM      7  C   UNL     1       6.351   7.512   3.356  0.00  0.00    +0.000 C 
ATOM      8  O   UNL     1       5.081   8.026   2.970  0.00  0.00    +0.000 OA
ENDBRANCH   1   8
BRANCH   6   9
ATOM      9  O   UNL     1       2.450   8.176   3.391  0.00  0.00    +0.000 OA
ATOM     10  H   UNL     1       2.240   7.644   4.183  0.00  0.00    +0.000 HD
ENDBRANCH   6   9
TORSDOF 2
ENDMDL
MODEL 8
REMARK VINA RESULT:    -3.223     16.071     17.316
REMARK INTER + INTRA:          -3.552
REMARK INTER:                  -3.500
REMARK INTRA:                  -0.053
REMARK UNBOUND:                -0.046
REMARK  Name = 
REMARK  3 active torsions:
REMARK  status: ('A' for Active; 'I' for Inactive)
REMARK    1  A    between atoms: C_1  and  O_2
REMARK    2  A    between atoms: O_2  and  C_3
REMARK    3  A    between atoms: C_8  and  O_9
REMARK                            x       y       z     vdW  Elec       q    Type
REMARK                         _______ _______ _______ _____ _____    ______ ____
ROOT
ATOM      1  C   UNL     1      15.013   9.361  16.367  0.00  0.00    +0.000 A 
ATOM      2  C   UNL     1      14.413  10.588  16.090  0.00  0.00    +0.000 A 
ATOM      3  C   UNL     1      14.502  11.137  14.805  0.00  0.00    +0.000 A 
ATOM      4  C   UNL     1      15.190  10.463  13.793  0.00  0.00    +0.000 A 
ATOM      5  C   UNL     1      15.791   9.236  14.062  0.00  0.00    +0.000 A 
ATOM      6  C   UNL     1      15.698   8.699  15.340  0.00  0.00    +0.000 A 
ENDROOT
BRANCH   1   8
ATOM      7  C   UNL     1      15.696   9.346  18.643  0.00  0.00    +0.000 C 
ATOM      8  O   UNL     1      15.007   8.708  17.573  0.00  0.00    +0.000 OA
ENDBRANCH   1   8
BRANCH   6   9
ATOM      9  O   UNL     1      16.298   7.492  15.579  0.00  0.00    +0.000 OA
ATOM     10  H   UNL     1      15.558   6.863  15.682  0.00  0.00    +0.000 HD
ENDBRANCH   6   9
TORSDOF 2
ENDMDL
MODEL 9
REMARK VINA RESULT:    -2.196     15.756     16.720
REMARK INTER + INTRA:          -2.435
REMARK INTER:                  -2.386
REMARK INTRA:                  -0.049
REMARK UNBOUND:                -0.046
REMARK  Name = 
REMARK  3 active torsions:
REMARK  status: ('A' for Active; 'I' for Inactive)
REMARK    1  A    between atoms: C_1  and  O_2
REMARK    2  A    between atoms: O_2  and  C_3
REMARK    3  A    between atoms: C_8  and  O_9
REMARK                            x       y       z     vdW  Elec       q    Type
REMARK                         _______ _______ _______ _____ _____    ______ ____
ROOT
ATOM      1  C   UNL     1      14.809  10.024  12.629  0.00  0.00    +0.000 A 
ATOM      2  C   UNL     1      13.855  10.910  13.128  0.00  0.00    +0.000 A 
ATOM      3  C   UNL     1      12.764  11.284  12.333  0.00  0.00    +0.000 A 
ATOM      4  C   UNL     1      12.623  10.775  11.040  0.00  0.00    +0.000 A 
ATOM      5  C   UNL     1      13.572   9.889  10.535  0.00  0.00    +0.000 A 
ATOM      6  C   UNL     1      14.651   9.524  11.331  0.00  0.00    +0.000 A 
ENDROOT
BRANCH   1   8
ATOM      7  C   UNL     1      15.714   9.038  14.593  0.00  0.00    +0.000 C 
ATOM      8  O   UNL     1      15.923   9.574  13.292  0.00  0.00    +0.000 OA
ENDBRANCH   1   8
BRANCH   6   9
ATOM      9  O   UNL     1      15.570   8.651  10.813  0.00  0.00    +0.000 OA
ATOM     10  H   UNL     1      15.387   7.803  11.259  0.00  0.00    +0.000 HD
ENDBRANCH   6   9
TORSDOF 2
ENDMDL
