MODEL 1
REMARK VINA RESULT:    -3.542      0.000      0.000
REMARK INTER + INTRA:          -3.890
REMARK INTER:                  -3.853
REMARK INTRA:                  -0.038
REMARK UNBOUND:                -0.038
REMARK  Name = 
REMARK  3 active torsions:
REMARK  status: ('A' for Active; 'I' for Inactive)
REMARK    1  A    between atoms: C_1  and  O_2
REMARK    2  A    between atoms: O_2  and  C_3
REMARK    3  A    between atoms: C_8  and  O_9
REMARK                            x       y       z     vdW  Elec       q    Type
REMARK                         _______ _______ _______ _____ _____    ______ ____
ROOT
ATOM      1  C   UNL     1      15.209  21.004   5.540  0.00  0.00    +0.000 A 
ATOM      2  C   UNL     1      15.728  19.712   5.602  0.00  0.00    +0.000 A 
ATOM      3  C   UNL     1      14.863  18.614   5.685  0.00  0.00    +0.000 A 
ATOM      4  C   UNL     1      13.480  18.802   5.708  0.00  0.00    +0.000 A 
ATOM      5  C   UNL     1      12.954  20.090   5.645  0.00  0.00    +0.000 A 
ATOM      6  C   UNL     1      13.819  21.174   5.563  0.00  0.00    +0.000 A 
ENDROOT
BRANCH   1   8
ATOM      7  C   UNL     1      17.320  22.031   5.167  0.00  0.00    +0.000 C 
ATOM      8  O   UNL     1      15.933  22.166   5.457  0.00  0.00    +0.000 OA
ENDBRANCH   1   8
BRANCH   6   9
ATOM      9  O   UNL     1      13.278  22.430   5.504  0.00  0.00    +0.000 OA
ATOM     10  H   UNL     1      13.818  22.902   4.841  0.00  0.00    +0.000 HD
ENDBRANCH   6   9
TORSDOF 2
ENDMDL
MODEL 2
REMARK VINA RESULT:    -3.453      1.191      1.963
REMARK INTER + INTRA:          -3.794
REMARK INTER:                  -3.741
REMARK INTRA:                  -0.053
REMARK UNBOUND:                -0.038
REMARK  Name = 
REMARK  3 active torsions:
REMARK  status: ('A' for Active; 'I' for Inactive)
REMARK    1  A    between atoms: C_1  and  O_2
REMARK    2  A    between atoms: O_2  and  C_3
REMARK    3  A    between atoms: C_8  and  O_9
REMARK                            x       y       z     vdW  Elec       q    Type
REMARK                         _______ _______ _______ _____ _____    ______ ____
ROOT
ATOM      1  C   UNL     1      14.248  21.199   5.631  0.00  0.00    +0.000 A 
ATOM      2  C   UNL     1      15.577  20.834   5.419  0.00  0.00    +0.000 A 
ATOM      3  C   UNL     1      15.918  19.483   5.282  0.00  0.00    +0.000 A 
ATOM      4  C   UNL     1      14.936  18.493   5.357  0.00  0.00    +0.000 A 
ATOM      5  C   UNL     1      13.606  18.850   5.569  0.00  0.00    +0.000 A 
ATOM      6  C   UNL     1      13.277  20.192   5.704  0.00  0.00    +0.000 A 
ENDROOT
BRANCH   1   8
ATOM      7  C   UNL     1      14.179  23.170   6.957  0.00  0.00    +0.000 C 
ATOM      8  O   UNL     1      13.772  22.476   5.783  0.00  0.00    +0.000 OA
ENDBRANCH   1   8
BRANCH   6   9
ATOM      9  O   UNL     1      11.963  20.518   5.912  0.00  0.00    +0.000 OA
ATOM     10  H   UNL     1      11.807  21.296   5.343  0.00  0.00    +0.000 HD
ENDBRANCH   6   9
TORSDOF 2
ENDMDL
MODEL 3
REMARK VINA RESULT:    -3.325      1.225      3.255
REMARK INTER + INTRA:          -3.654
REMARK INTER:                  -3.606
REMARK INTRA:                  -0.048
REMARK UNBOUND:                -0.038
REMARK  Name = 
REMARK  3 active torsions:
REMARK  status: ('A' for Active; 'I' for Inactive)
REMARK    1  A    between atoms: C_1  and  O_2
REMARK    2  A    between atoms: O_2  and  C_3
REMARK    3  A    between atoms: C_8  and  O_9
REMARK                            x       y       z     vdW  Elec       q    Type
REMARK                         _______ _______ _______ _____ _____    ______ ____
ROOT
ATOM      1  C   UNL     1      13.062  19.903   5.886  0.00  0.00    +0.000 A 
ATOM      2  C   UNL     1      13.656  18.641   5.883  0.00  0.00    +0.000 A 
ATOM      3  C   UNL     1      15.022  18.512   5.599  0.00  0.00    +0.000 A 
ATOM      4  C   UNL     1      15.796  19.639   5.318  0.00  0.00    +0.000 A 
ATOM      5  C   UNL     1      15.210  20.902   5.319  0.00  0.00    +0.000 A 
ATOM      6  C   UNL     1      13.855  21.021   5.601  0.00  0.00    +0.000 A 
ENDROOT
BRANCH   1   8
ATOM      7  C   UNL     1      10.783  19.403   5.435  0.00  0.00    +0.000 C 
ATOM      8  O   UNL     1      11.743  20.177   6.144  0.00  0.00    +0.000 OA
ENDBRANCH   1   8
BRANCH   6   9
ATOM      9  O   UNL     1      13.301  22.274   5.597  0.00  0.00    +0.000 OA
ATOM     10  H   UNL     1      12.455  22.169   5.122  0.00  0.00    +0.000 HD
ENDBRANCH   6   9
TORSDOF 2
ENDMDL
MODEL 4
REMARK VINA RESULT:    -3.318     21.105     22.308
REMARK INTER + INTRA:          -3.647
REMARK INTER:                  -3.603
REMARK INTRA:                  -0.044
REMARK UNBOUND:                -0.038
REMARK  Name = 
REMARK  3 active torsions:
REMARK  status: ('A' for Active; 'I' for Inactive)
REMARK    1  A    between atoms: C_1  and  O_2
REMARK    2  A    between atoms: O_2  and  C_3
REMARK    3  A    between atoms: C_8  and  O_9
REMARK                            x       y       z     vdW  Elec       q    Type
REMARK                         _______ _______ _______ _____ _____    ______ ____
ROOT
ATOM      1  C   UNL     1      -1.556  16.827  -9.134  0.00  0.00    +0.000 A 
ATOM      2  C   UNL     1      -1.526  17.349 -10.426  0.00  0.00    +0.000 A 
ATOM      3  C   UNL     1      -1.962  18.659 -10.662  0.00  0.00    +0.000 A 
ATOM      4  C   UNL     1      -2.429  19.449  -9.611  0.00  0.00    +0.000 A 
ATOM      5  C   UNL     1      -2.461  18.935  -8.316  0.00  0.00    +0.000 A 
ATOM      6  C   UNL     1      -2.027  17.635  -8.092  0.00  0.00    +0.000 A 
ENDROOT
BRANCH   1   8
ATOM      7  C   UNL     1       0.238  15.326  -8.716  0.00  0.00    +0.000 C 
ATOM      8  O   UNL     1      -1.163  15.567  -8.758  0.00  0.00    +0.000 OA
ENDBRANCH   1   8
BRANCH   6   9
ATOM      9  O   UNL     1      -2.069  17.152  -6.811  0.00  0.00    +0.000 OA
ATOM     10  H   UNL     1      -2.265  16.201  -6.911  0.00  0.00    +0.000 HD
ENDBRANCH   6   9
TORSDOF 2
ENDMDL
MODEL 5
REMARK VINA RESULT:    -3.297      2.932      3.812
REMARK INTER + INTRA:          -3.624
REMARK INTER:                  -3.586
REMARK INTRA:                  -0.038
REMARK UNBOUND:                -0.038
REMARK  Name = 
REMARK  3 active torsions:
REMARK  status: ('A' for Active; 'I' for Inactive)
REMARK    1  A    between atoms: C_1  and  O_2
REMARK    2  A    between atoms: O_2  and  C_3
REMARK    3  A    between atoms: C_8  and  O_9
REMARK                            x       y       z     vdW  Elec       q    Type
REMARK                         _______ _______ _______ _____ _____    ______ ____
ROOT
ATOM      1  C   UNL     1      14.088  18.285   7.018  0.00  0.00    +0.000 A 
ATOM      2  C   UNL     1      15.053  19.291   7.019  0.00  0.00    +0.000 A 
ATOM      3  C   UNL     1      14.833  20.473   6.300  0.00  0.00    +0.000 A 
ATOM      4  C   UNL     1      13.651  20.653   5.580  0.00  0.00    +0.000 A 
ATOM      5  C   UNL     1      12.681  19.653   5.575  0.00  0.00    +0.000 A 
ATOM      6  C   UNL     1      12.909  18.484   6.290  0.00  0.00    +0.000 A 
ENDROOT
BRANCH   1   8
ATOM      7  C   UNL     1      15.460  16.694   8.129  0.00  0.00    +0.000 C 
ATOM      8  O   UNL     1      14.170  17.082   7.673  0.00  0.00    +0.000 OA
ENDBRANCH   1   8
BRANCH   6   9
ATOM      9  O   UNL     1      11.941  17.515   6.269  0.00  0.00    +0.000 OA
ATOM     10  H   UNL     1      11.101  18.001   6.373  0.00  0.00    +0.000 HD
ENDBRANCH   6   9
TORSDOF 2
ENDMDL
MODEL 6
REMARK VINA RESULT:    -3.052      1.215      1.838
REMARK INTER + INTRA:          -3.357
REMARK INTER:                  -3.307
REMARK INTRA:                  -0.050
REMARK UNBOUND:                -0.038
REMARK  Name = 
REMARK  3 active torsions:
REMARK  status: ('A' for Active; 'I' for Inactive)
REMARK    1  A    between atoms: C_1  and  O_2
REMARK    2  A    between atoms: O_2  and  C_3
REMARK    3  A    between atoms: C_8  and  O_9
REMARK                            x       y       z     vdW  Elec       q    Type
REMARK                         _______ _______ _______ _____ _____    ______ ____
ROOT
ATOM      1  C   UNL     1      15.537  19.759   5.385  0.00  0.00    +0.000 A 
ATOM      2  C   UNL     1      14.841  18.567   5.581  0.00  0.00    +0.000 A 
ATOM      3  C   UNL     1      13.462  18.595   5.825  0.00  0.00    +0.000 A 
ATOM      4  C   UNL     1      12.776  19.810   5.875  0.00  0.00    +0.000 A 
ATOM      5  C   UNL     1      13.465  21.005   5.680  0.00  0.00    +0.000 A 
ATOM      6  C   UNL     1      14.832  20.968   5.438  0.00  0.00    +0.000 A 
ENDROOT
BRANCH   1   8
ATOM      7  C   UNL     1      17.397  19.133   4.044  0.00  0.00    +0.000 C 
ATOM      8  O   UNL     1      16.881  19.882   5.138  0.00  0.00    +0.000 OA
ENDBRANCH   1   8
BRANCH   6   9
ATOM      9  O   UNL     1      15.488  22.155   5.250  0.00  0.00    +0.000 OA
ATOM     10  H   UNL     1      16.305  22.074   5.777  0.00  0.00    +0.000 HD
ENDBRANCH   6   9
TORSDOF 2
ENDMDL
MODEL 7
REMARK VINA RESULT:    -3.028      2.170      2.939
REMARK INTER + INTRA:          -3.331
REMARK INTER:                  -3.288
REMARK INTRA:                  -0.043
REMARK UNBOUND:                -0.038
REMARK  Name = 
REMARK  3 active torsions:
REMARK  status: ('A' for Active; 'I' for Inactive)
REMARK    1  A    between atoms: C_1  and  O_2
REMARK    2  A    between atoms: O_2  and  C_3
REMARK    3  A    between atoms: C_8  and  O_9
REMARK                            x       y       z     vdW  Elec       q    Type
REMARK                         _______ _______ _______ _____ _____    ______ ____
ROOT
ATOM      1  C   UNL     1      15.209  19.384   5.283  0.00  0.00    +0.000 A 
ATOM      2  C   UNL     1      15.920  20.584   5.284  0.00  0.00    +0.000 A 
ATOM      3  C   UNL     1      15.269  21.782   5.604  0.00  0.00    +0.000 A 
ATOM      4  C   UNL     1      13.910  21.786   5.922  0.00  0.00    +0.000 A 
ATOM      5  C   UNL     1      13.193  20.592   5.924  0.00  0.00    +0.000 A 
ATOM      6  C   UNL     1      13.847  19.408   5.606  0.00  0.00    +0.000 A 
ENDROOT
BRANCH   1   8
ATOM      7  C   UNL     1      17.049  17.885   5.412  0.00  0.00    +0.000 C 
ATOM      8  O   UNL     1      15.714  18.142   4.991  0.00  0.00    +0.000 OA
ENDBRANCH   1   8
BRANCH   6   9
ATOM      9  O   UNL     1      13.121  18.247   5.614  0.00  0.00    +0.000 OA
ATOM     10  H   UNL     1      12.268  18.484   5.204  0.00  0.00    +0.000 HD
ENDBRANCH   6   9
TORSDOF 2
ENDMDL
MODEL 8
REMARK VINA RESULT:    -2.967     19.515     20.562
REMARK INTER + INTRA:          -3.265
REMARK INTER:                  -3.223
REMARK INTRA:                  -0.042
REMARK UNBOUND:                -0.038
REMARK  Name = 
REMARK  3 active torsions:
REMARK  status: ('A' for Active; 'I' for Inactive)
REMARK    1  A    between atoms: C_1  and  O_2
REMARK    2  A    between atoms: O_2  and  C_3
REMARK    3  A    between atoms: C_8  and  O_9
REMARK                            x       y       z     vdW  Elec       q    Type
REMARK                         _______ _______ _______ _____ _____    ______ ____
ROOT
ATOM      1  C   UNL     1       2.712  20.958 -11.396  0.00  0.00    +0.000 A 
ATOM      2  C   UNL     1       1.642  21.647 -10.827  0.00  0.00    +0.000 A 
ATOM      3  C   UNL     1       1.871  22.571  -9.800  0.00  0.00    +0.000 A 
ATOM      4  C   UNL     1       3.167  22.809  -9.338  0.00  0.00    +0.000 A 
ATOM      5  C   UNL     1       4.242  22.125  -9.902  0.00  0.00    +0.000 A 
ATOM      6  C   UNL     1       4.005  21.210 -10.920  0.00  0.00    +0.000 A 
ENDROOT
BRANCH   1   8
ATOM      7  C   UNL     1       1.475  19.207 -12.421  0.00  0.00    +0.000 C 
ATOM      8  O   UNL     1       2.636  20.030 -12.403  0.00  0.00    +0.000 OA
ENDBRANCH   1   8
BRANCH   6   9
ATOM      9  O   UNL     1       5.077  20.551 -11.459  0.00  0.00    +0.000 OA
ATOM     10  H   UNL     1       5.746  20.542 -10.748  0.00  0.00    +0.000 HD
ENDBRANCH   6   9
TORSDOF 2
ENDMDL
MODEL 9
REMARK VINA RESULT:    -2.949      8.203      8.506
REMARK INTER + INTRA:          -3.245
REMARK INTER:                  -3.205
REMARK INTRA:                  -0.040
REMARK UNBOUND:                -0.038
REMARK  Name = 
REMARK  3 active torsions:
REMARK  status: ('A' for Active; 'I' for Inactive)
REMARK    1  A    between atoms: C_1  and  O_2
REMARK    2  A    between atoms: O_2  and  C_3
REMARK    3  A    between atoms: C_8  and  O_9
REMARK                            x       y       z     vdW  Elec       q    Type
REMARK                         _______ _______ _______ _____ _____    ______ ____
ROOT
ATOM      1  C   UNL     1      15.502  19.612  -2.715  0.00  0.00    +0.000 A 
ATOM      2  C   UNL     1      16.241  20.744  -3.057  0.00  0.00    +0.000 A 
ATOM      3  C   UNL     1      15.803  22.013  -2.657  0.00  0.00    +0.000 A 
ATOM      4  C   UNL     1      14.627  22.155  -1.918  0.00  0.00    +0.000 A 
ATOM      5  C   UNL     1      13.883  21.029  -1.572  0.00  0.00    +0.000 A 
ATOM      6  C   UNL     1      14.325  19.775  -1.973  0.00  0.00    +0.000 A 
ENDROOT
BRANCH   1   8
ATOM      7  C   UNL     1      17.183  18.026  -3.267  0.00  0.00    +0.000 C 
ATOM      8  O   UNL     1      15.809  18.315  -3.038  0.00  0.00    +0.000 OA
ENDBRANCH   1   8
BRANCH   6   9
ATOM      9  O   UNL     1      13.577  18.683  -1.622  0.00  0.00    +0.000 OA
ATOM     10  H   UNL     1      13.652  18.075  -2.382  0.00  0.00    +0.000 HD
ENDBRANCH   6   9
TORSDOF 2
ENDMDL
