MODEL 1
REMARK VINA RESULT:    -4.005      0.000      0.000
REMARK INTER + INTRA:          -4.393
REMARK INTER:                  -4.356
REMARK INTRA:                  -0.037
REMARK UNBOUND:                -0.037
REMARK  Name = 
REMARK  3 active torsions:
REMARK  status: ('A' for Active; 'I' for Inactive)
REMARK    1  A    between atoms: C_1  and  O_2
REMARK    2  A    between atoms: O_2  and  C_3
REMARK    3  A    between atoms: C_8  and  O_9
REMARK                            x       y       z     vdW  Elec       q    Type
REMARK                         _______ _______ _______ _____ _____    ______ ____
ROOT
ATOM      1  C   UNL     1      -5.469   1.785 -20.130  0.00  0.00    +0.000 A 
ATOM      2  C   UNL     1      -5.743   0.503 -20.605  0.00  0.00    +0.000 A 
ATOM      3  C   UNL     1      -5.893  -0.559 -19.705  0.00  0.00    +0.000 A 
ATOM      4  C   UNL     1      -5.770  -0.346 -18.331  0.00  0.00    +0.000 A 
ATOM      5  C   UNL     1      -5.496   0.932 -17.849  0.00  0.00    +0.000 A 
ATOM      6  C   UNL     1      -5.349   1.980 -18.748  0.00  0.00    +0.000 A 
ENDROOT
BRANCH   1   8
ATOM      7  C   UNL     1      -5.404   2.750 -22.301  0.00  0.00    +0.000 C 
ATOM      8  O   UNL     1      -5.297   2.913 -20.892  0.00  0.00    +0.000 OA
ENDBRANCH   1   8
BRANCH   6   9
ATOM      9  O   UNL     1      -5.080   3.227 -18.250  0.00  0.00    +0.000 OA
ATOM     10  H   UNL     1      -5.626   3.295 -17.443  0.00  0.00    +0.000 HD
ENDBRANCH   6   9
TORSDOF 2
ENDMDL
MODEL 2
REMARK VINA RESULT:    -3.994      2.279      3.127
REMARK INTER + INTRA:          -4.381
REMARK INTER:                  -4.333
REMARK INTRA:                  -0.048
REMARK UNBOUND:                -0.037
REMARK  Name = 
REMARK  3 active torsions:
REMARK  status: ('A' for Active; 'I' for Inactive)
REMARK    1  A    between atoms: C_1  and  O_2
REMARK    2  A    between atoms: O_2  and  C_3
REMARK    3  A    between atoms: C_8  and  O_9
REMARK                            x       y       z     vdW  Elec       q    Type
REMARK                         _______ _______ _______ _____ _____    ______ ____
ROOT
ATOM      1  C   UNL     1      -6.324   0.085 -19.451  0.00  0.00    +0.000 A 
ATOM      2  C   UNL     1      -5.996   1.079 -20.372  0.00  0.00    +0.000 A 
ATOM      3  C   UNL     1      -5.285   2.212 -19.956  0.00  0.00    +0.000 A 
ATOM      4  C   UNL     1      -4.901   2.355 -18.621  0.00  0.00    +0.000 A 
ATOM      5  C   UNL     1      -5.224   1.366 -17.695  0.00  0.00    +0.000 A 
ATOM      6  C   UNL     1      -5.930   0.246 -18.117  0.00  0.00    +0.000 A 
ENDROOT
BRANCH   1   8
ATOM      7  C   UNL     1      -8.231  -0.932 -20.437  0.00  0.00    +0.000 C 
ATOM      8  O   UNL     1      -7.013  -1.071 -19.716  0.00  0.00    +0.000 OA
ENDBRANCH   1   8
BRANCH   6   9
ATOM      9  O   UNL     1      -6.236  -0.712 -17.188  0.00  0.00    +0.000 OA
ATOM     10  H   UNL     1      -6.952  -0.320 -16.653  0.00  0.00    +0.000 HD
ENDBRANCH   6   9
TORSDOF 2
ENDMDL
MODEL 3
REMARK VINA RESULT:    -3.650      2.354      3.011
REMARK INTER + INTRA:          -4.008
REMARK INTER:                  -3.968
REMARK INTRA:                  -0.040
REMARK UNBOUND:                -0.037
REMARK  Name = 
REMARK  3 active torsions:
REMARK  status: ('A' for Active; 'I' for Inactive)
REMARK    1  A    between atoms: C_1  and  O_2
REMARK    2  A    between atoms: O_2  and  C_3
REMARK    3  A    between atoms: C_8  and  O_9
REMARK                            x       y       z     vdW  Elec       q    Type
REMARK                         _______ _______ _______ _____ _____    ______ ____
ROOT
ATOM      1  C   UNL     1      -4.835   0.048 -20.261  0.00  0.00    +0.000 A 
ATOM      2  C   UNL     1      -4.836   1.292 -20.890  0.00  0.00    +0.000 A 
ATOM      3  C   UNL     1      -5.192   2.440 -20.171  0.00  0.00    +0.000 A 
ATOM      4  C   UNL     1      -5.549   2.349 -18.824  0.00  0.00    +0.000 A 
ATOM      5  C   UNL     1      -5.550   1.110 -18.188  0.00  0.00    +0.000 A 
ATOM      6  C   UNL     1      -5.195  -0.023 -18.910  0.00  0.00    +0.000 A 
ENDROOT
BRANCH   1   8
ATOM      7  C   UNL     1      -3.627  -1.103 -21.953  0.00  0.00    +0.000 C 
ATOM      8  O   UNL     1      -4.511  -1.153 -20.839  0.00  0.00    +0.000 OA
ENDBRANCH   1   8
BRANCH   6   9
ATOM      9  O   UNL     1      -5.204  -1.230 -18.263  0.00  0.00    +0.000 OA
ATOM     10  H   UNL     1      -4.933  -1.024 -17.348  0.00  0.00    +0.000 HD
ENDBRANCH   6   9
TORSDOF 2
ENDMDL
MODEL 4
REMARK VINA RESULT:    -3.519      2.059      2.622
REMARK INTER + INTRA:          -3.865
REMARK INTER:                  -3.816
REMARK INTRA:                  -0.049
REMARK UNBOUND:                -0.037
REMARK  Name = 
REMARK  3 active torsions:
REMARK  status: ('A' for Active; 'I' for Inactive)
REMARK    1  A    between atoms: C_1  and  O_2
REMARK    2  A    between atoms: O_2  and  C_3
REMARK    3  A    between atoms: C_8  and  O_9
REMARK                            x       y       z     vdW  Elec       q    Type
REMARK                         _______ _______ _______ _____ _____    ______ ____
ROOT
ATOM      1  C   UNL     1      -4.195   1.034 -20.228  0.00  0.00    +0.000 A 
ATOM      2  C   UNL     1      -5.030   1.920 -19.549  0.00  0.00    +0.000 A 
ATOM      3  C   UNL     1      -5.941   1.437 -18.601  0.00  0.00    +0.000 A 
ATOM      4  C   UNL     1      -6.022   0.070 -18.330  0.00  0.00    +0.000 A 
ATOM      5  C   UNL     1      -5.191  -0.822 -19.004  0.00  0.00    +0.000 A 
ATOM      6  C   UNL     1      -4.291  -0.334 -19.943  0.00  0.00    +0.000 A 
ENDROOT
BRANCH   1   8
ATOM      7  C   UNL     1      -3.762   1.780 -22.442  0.00  0.00    +0.000 C 
ATOM      8  O   UNL     1      -3.262   1.364 -21.177  0.00  0.00    +0.000 OA
ENDBRANCH   1   8
BRANCH   6   9
ATOM      9  O   UNL     1      -3.485  -1.230 -20.593  0.00  0.00    +0.000 OA
ATOM     10  H   UNL     1      -2.579  -0.898 -20.451  0.00  0.00    +0.000 HD
ENDBRANCH   6   9
TORSDOF 2
ENDMDL
MODEL 5
REMARK VINA RESULT:    -3.460      1.284      3.110
REMARK INTER + INTRA:          -3.801
REMARK INTER:                  -3.758
REMARK INTRA:                  -0.042
REMARK UNBOUND:                -0.037
REMARK  Name = 
REMARK  3 active torsions:
REMARK  status: ('A' for Active; 'I' for Inactive)
REMARK    1  A    between atoms: C_1  and  O_2
REMARK    2  A    between atoms: O_2  and  C_3
REMARK    3  A    between atoms: C_8  and  O_9
REMARK                            x       y       z     vdW  Elec       q    Type
REMARK                         _______ _______ _______ _____ _____    ______ ____
ROOT
ATOM      1  C   UNL     1      -5.301   0.922 -19.348  0.00  0.00    +0.000 A 
ATOM      2  C   UNL     1      -5.197   0.106 -20.473  0.00  0.00    +0.000 A 
ATOM      3  C   UNL     1      -5.132   0.678 -21.749  0.00  0.00    +0.000 A 
ATOM      4  C   UNL     1      -5.171   2.065 -21.906  0.00  0.00    +0.000 A 
ATOM      5  C   UNL     1      -5.275   2.888 -20.786  0.00  0.00    +0.000 A 
ATOM      6  C   UNL     1      -5.339   2.311 -19.524  0.00  0.00    +0.000 A 
ENDROOT
BRANCH   1   8
ATOM      7  C   UNL     1      -6.072  -0.716 -17.809  0.00  0.00    +0.000 C 
ATOM      8  O   UNL     1      -5.375   0.501 -18.044  0.00  0.00    +0.000 OA
ENDBRANCH   1   8
BRANCH   6   9
ATOM      9  O   UNL     1      -5.441   3.140 -18.439  0.00  0.00    +0.000 OA
ATOM     10  H   UNL     1      -5.730   2.560 -17.710  0.00  0.00    +0.000 HD
ENDBRANCH   6   9
TORSDOF 2
ENDMDL
MODEL 6
REMARK VINA RESULT:    -3.403      1.272      2.115
REMARK INTER + INTRA:          -3.738
REMARK INTER:                  -3.687
REMARK INTRA:                  -0.051
REMARK UNBOUND:                -0.037
REMARK  Name = 
REMARK  3 active torsions:
REMARK  status: ('A' for Active; 'I' for Inactive)
REMARK    1  A    between atoms: C_1  and  O_2
REMARK    2  A    between atoms: O_2  and  C_3
REMARK    3  A    between atoms: C_8  and  O_9
REMARK                            x       y       z     vdW  Elec       q    Type
REMARK                         _______ _______ _______ _____ _____    ______ ____
ROOT
ATOM      1  C   UNL     1      -5.975   0.849 -20.548  0.00  0.00    +0.000 A 
ATOM      2  C   UNL     1      -6.059  -0.150 -19.579  0.00  0.00    +0.000 A 
ATOM      3  C   UNL     1      -5.705   0.130 -18.253  0.00  0.00    +0.000 A 
ATOM      4  C   UNL     1      -5.265   1.405 -17.893  0.00  0.00    +0.000 A 
ATOM      5  C   UNL     1      -5.180   2.408 -18.855  0.00  0.00    +0.000 A 
ATOM      6  C   UNL     1      -5.533   2.121 -20.168  0.00  0.00    +0.000 A 
ENDROOT
BRANCH   1   8
ATOM      7  C   UNL     1      -7.617   0.312 -22.180  0.00  0.00    +0.000 C 
ATOM      8  O   UNL     1      -6.288   0.717 -21.878  0.00  0.00    +0.000 OA
ENDBRANCH   1   8
BRANCH   6   9
ATOM      9  O   UNL     1      -5.440   3.124 -21.096  0.00  0.00    +0.000 OA
ATOM     10  H   UNL     1      -4.880   2.754 -21.805  0.00  0.00    +0.000 HD
ENDBRANCH   6   9
TORSDOF 2
ENDMDL
MODEL 7
REMARK VINA RESULT:    -3.303      1.621      2.420
REMARK INTER + INTRA:          -3.630
REMARK INTER:                  -3.592
REMARK INTRA:                  -0.038
REMARK UNBOUND:                -0.037
REMARK  Name = 
REMARK  3 active torsions:
REMARK  status: ('A' for Active; 'I' for Inactive)
REMARK    1  A    between atoms: C_1  and  O_2
REMARK    2  A    between atoms: O_2  and  C_3
REMARK    3  A    between atoms: C_8  and  O_9
REMARK                            x       y       z     vdW  Elec       q    Type
REMARK                         _______ _______ _______ _____ _____    ______ ____
ROOT
ATOM      1  C   UNL     1      -5.934   1.454 -20.578  0.00  0.00    +0.000 A 
ATOM      2  C   UNL     1      -5.245   2.328 -19.739  0.00  0.00    +0.000 A 
ATOM      3  C   UNL     1      -5.036   1.989 -18.396  0.00  0.00    +0.000 A 
ATOM      4  C   UNL     1      -5.514   0.780 -17.888  0.00  0.00    +0.000 A 
ATOM      5  C   UNL     1      -6.203  -0.099 -18.721  0.00  0.00    +0.000 A 
ATOM      6  C   UNL     1      -6.406   0.245 -20.051  0.00  0.00    +0.000 A 
ENDROOT
BRANCH   1   8
ATOM      7  C   UNL     1      -5.547   2.744 -22.536  0.00  0.00    +0.000 C 
ATOM      8  O   UNL     1      -6.211   1.654 -21.907  0.00  0.00    +0.000 OA
ENDBRANCH   1   8
BRANCH   6   9
ATOM      9  O   UNL     1      -7.086  -0.635 -20.850  0.00  0.00    +0.000 OA
ATOM     10  H   UNL     1      -7.195  -0.166 -21.700  0.00  0.00    +0.000 HD
ENDBRANCH   6   9
TORSDOF 2
ENDMDL
MODEL 8
REMARK VINA RESULT:    -3.301      2.456      3.934
REMARK INTER + INTRA:          -3.628
REMARK INTER:                  -3.590
REMARK INTRA:                  -0.037
REMARK UNBOUND:                -0.037
REMARK  Name = 
REMARK  3 active torsions:
REMARK  status: ('A' for Active; 'I' for Inactive)
REMARK    1  A    between atoms: C_1  and  O_2
REMARK    2  A    between atoms: O_2  and  C_3
REMARK    3  A    between atoms: C_8  and  O_9
REMARK                            x       y       z     vdW  Elec       q    Type
REMARK                         _______ _______ _______ _____ _____    ______ ____
ROOT
ATOM      1  C   UNL     1      -4.781   0.168 -19.976  0.00  0.00    +0.000 A 
ATOM      2  C   UNL     1      -5.746   1.155 -20.174  0.00  0.00    +0.000 A 
ATOM      3  C   UNL     1      -5.550   2.140 -21.150  0.00  0.00    +0.000 A 
ATOM      4  C   UNL     1      -4.391   2.143 -21.929  0.00  0.00    +0.000 A 
ATOM      5  C   UNL     1      -3.423   1.161 -21.738  0.00  0.00    +0.000 A 
ATOM      6  C   UNL     1      -3.626   0.188 -20.768  0.00  0.00    +0.000 A 
ENDROOT
BRANCH   1   8
ATOM      7  C   UNL     1      -5.973  -0.869 -18.201  0.00  0.00    +0.000 C 
ATOM      8  O   UNL     1      -4.840  -0.853 -19.061  0.00  0.00    +0.000 OA
ENDBRANCH   1   8
BRANCH   6   9
ATOM      9  O   UNL     1      -2.659  -0.768 -20.598  0.00  0.00    +0.000 OA
ATOM     10  H   UNL     1      -1.842  -0.358 -20.939  0.00  0.00    +0.000 HD
ENDBRANCH   6   9
TORSDOF 2
ENDMDL
MODEL 9
REMARK VINA RESULT:    -3.250      2.890      3.167
REMARK INTER + INTRA:          -3.572
REMARK INTER:                  -3.527
REMARK INTRA:                  -0.045
REMARK UNBOUND:                -0.037
REMARK  Name = 
REMARK  3 active torsions:
REMARK  status: ('A' for Active; 'I' for Inactive)
REMARK    1  A    between atoms: C_1  and  O_2
REMARK    2  A    between atoms: O_2  and  C_3
REMARK    3  A    between atoms: C_8  and  O_9
REMARK                            x       y       z     vdW  Elec       q    Type
REMARK                         _______ _______ _______ _____ _____    ______ ____
ROOT
ATOM      1  C   UNL     1      -7.140  -0.391 -20.682  0.00  0.00    +0.000 A 
ATOM      2  C   UNL     1      -5.875  -0.661 -21.203  0.00  0.00    +0.000 A 
ATOM      3  C   UNL     1      -4.787  -0.839 -20.339  0.00  0.00    +0.000 A 
ATOM      4  C   UNL     1      -4.958  -0.747 -18.957  0.00  0.00    +0.000 A 
ATOM      5  C   UNL     1      -6.219  -0.479 -18.429  0.00  0.00    +0.000 A 
ATOM      6  C   UNL     1      -7.292  -0.304 -19.293  0.00  0.00    +0.000 A 
ENDROOT
BRANCH   1   8
ATOM      7  C   UNL     1      -8.491  -1.051 -22.522  0.00  0.00    +0.000 C 
ATOM      8  O   UNL     1      -8.290  -0.195 -21.405  0.00  0.00    +0.000 OA
ENDBRANCH   1   8
BRANCH   6   9
ATOM      9  O   UNL     1      -8.522  -0.041 -18.751  0.00  0.00    +0.000 OA
ATOM     10  H   UNL     1      -9.049   0.317 -19.491  0.00  0.00    +0.000 HD
ENDBRANCH   6   9
TORSDOF 2
ENDMDL
