MODEL 1
REMARK VINA RESULT:    -3.928      0.000      0.000
REMARK INTER + INTRA:          -4.317
REMARK INTER:                  -4.273
REMARK INTRA:                  -0.044
REMARK UNBOUND:                -0.044
REMARK  Name = 
REMARK  3 active torsions:
REMARK  status: ('A' for Active; 'I' for Inactive)
REMARK    1  A    between atoms: C_1  and  O_2
REMARK    2  A    between atoms: O_2  and  C_3
REMARK    3  A    between atoms: C_8  and  O_9
REMARK                            x       y       z     vdW  Elec       q    Type
REMARK                         _______ _______ _______ _____ _____    ______ ____
ROOT
ATOM      1  C   UNL     1       6.249  14.586   0.745  0.00  0.00    +0.000 A 
ATOM      2  C   UNL     1       5.345  14.890   1.762  0.00  0.00    +0.000 A 
ATOM      3  C   UNL     1       5.439  14.240   2.999  0.00  0.00    +0.000 A 
ATOM      4  C   UNL     1       6.434  13.287   3.224  0.00  0.00    +0.000 A 
ATOM      5  C   UNL     1       7.342  12.979   2.213  0.00  0.00    +0.000 A 
ATOM      6  C   UNL     1       7.240  13.628   0.989  0.00  0.00    +0.000 A 
ENDROOT
BRANCH   1   8
ATOM      7  C   UNL     1       5.015  15.375  -1.126  0.00  0.00    +0.000 C 
ATOM      8  O   UNL     1       6.275  15.141  -0.510  0.00  0.00    +0.000 OA
ENDBRANCH   1   8
BRANCH   6   9
ATOM      9  O   UNL     1       8.144  13.308   0.011  0.00  0.00    +0.000 OA
ATOM     10  H   UNL     1       8.383  12.378   0.188  0.00  0.00    +0.000 HD
ENDBRANCH   6   9
TORSDOF 2
ENDMDL
MODEL 2
REMARK VINA RESULT:    -3.861      1.967      3.413
REMARK INTER + INTRA:          -4.244
REMARK INTER:                  -4.191
REMARK INTRA:                  -0.053
REMARK UNBOUND:                -0.044
REMARK  Name = 
REMARK  3 active torsions:
REMARK  status: ('A' for Active; 'I' for Inactive)
REMARK    1  A    between atoms: C_1  and  O_2
REMARK    2  A    between atoms: O_2  and  C_3
REMARK    3  A    between atoms: C_8  and  O_9
REMARK                            x       y       z     vdW  Elec       q    Type
REMARK                         _______ _______ _______ _____ _____    ______ ____
ROOT
ATOM      1  C   UNL     1       7.230  13.381   2.204  0.00  0.00    +0.000 A 
ATOM      2  C   UNL     1       5.906  13.557   1.806  0.00  0.00    +0.000 A 
ATOM      3  C   UNL     1       5.611  14.344   0.685  0.00  0.00    +0.000 A 
ATOM      4  C   UNL     1       6.636  14.957  -0.038  0.00  0.00    +0.000 A 
ATOM      5  C   UNL     1       7.962  14.785   0.354  0.00  0.00    +0.000 A 
ATOM      6  C   UNL     1       8.244  14.003   1.466  0.00  0.00    +0.000 A 
ENDROOT
BRANCH   1   8
ATOM      7  C   UNL     1       7.318  13.132   4.566  0.00  0.00    +0.000 C 
ATOM      8  O   UNL     1       7.663  12.641   3.276  0.00  0.00    +0.000 OA
ENDBRANCH   1   8
BRANCH   6   9
ATOM      9  O   UNL     1       9.555  13.849   1.832  0.00  0.00    +0.000 OA
ATOM     10  H   UNL     1       9.985  13.451   1.052  0.00  0.00    +0.000 HD
ENDBRANCH   6   9
TORSDOF 2
ENDMDL
MODEL 3
REMARK VINA RESULT:    -3.733      2.210      3.964
REMARK INTER + INTRA:          -4.105
REMARK INTER:                  -4.052
REMARK INTRA:                  -0.052
REMARK UNBOUND:                -0.044
REMARK  Name = 
REMARK  3 active torsions:
REMARK  status: ('A' for Active; 'I' for Inactive)
REMARK    1  A    between atoms: C_1  and  O_2
REMARK    2  A    between atoms: O_2  and  C_3
REMARK    3  A    between atoms: C_8  and  O_9
REMARK                            x       y       z     vdW  Elec       q    Type
REMARK                         _______ _______ _______ _____ _____    ______ ____
ROOT
ATOM      1  C   UNL     1       7.432  13.340   2.415  0.00  0.00    +0.000 A 
ATOM      2  C   UNL     1       8.259  13.781   1.382  0.00  0.00    +0.000 A 
ATOM      3  C   UNL     1       7.712  14.469   0.293  0.00  0.00    +0.000 A 
ATOM      4  C   UNL     1       6.339  14.718   0.230  0.00  0.00    +0.000 A 
ATOM      5  C   UNL     1       5.507  14.282   1.258  0.00  0.00    +0.000 A 
ATOM      6  C   UNL     1       6.058  13.599   2.335  0.00  0.00    +0.000 A 
ENDROOT
BRANCH   1   8
ATOM      7  C   UNL     1       8.709  13.343   4.419  0.00  0.00    +0.000 C 
ATOM      8  O   UNL     1       7.829  12.657   3.537  0.00  0.00    +0.000 OA
ENDBRANCH   1   8
BRANCH   6   9
ATOM      9  O   UNL     1       5.220  13.180   3.333  0.00  0.00    +0.000 OA
ATOM     10  H   UNL     1       5.462  12.247   3.485  0.00  0.00    +0.000 HD
ENDBRANCH   6   9
TORSDOF 2
ENDMDL
MODEL 4
REMARK VINA RESULT:    -3.716      5.055      7.354
REMARK INTER + INTRA:          -4.086
REMARK INTER:                  -4.034
REMARK INTRA:                  -0.053
REMARK UNBOUND:                -0.044
REMARK  Name = 
REMARK  3 active torsions:
REMARK  status: ('A' for Active; 'I' for Inactive)
REMARK    1  A    between atoms: C_1  and  O_2
REMARK    2  A    between atoms: O_2  and  C_3
REMARK    3  A    between atoms: C_8  and  O_9
REMARK                            x       y       z     vdW  Elec       q    Type
REMARK                         _______ _______ _______ _____ _____    ______ ____
ROOT
ATOM      1  C   UNL     1       7.131  19.147  -2.496  0.00  0.00    +0.000 A 
ATOM      2  C   UNL     1       7.083  20.540  -2.485  0.00  0.00    +0.000 A 
ATOM      3  C   UNL     1       6.814  21.240  -3.668  0.00  0.00    +0.000 A 
ATOM      4  C   UNL     1       6.594  20.552  -4.863  0.00  0.00    +0.000 A 
ATOM      5  C   UNL     1       6.641  19.160  -4.882  0.00  0.00    +0.000 A 
ATOM      6  C   UNL     1       6.908  18.474  -3.704  0.00  0.00    +0.000 A 
ENDROOT
BRANCH   1   8
ATOM      7  C   UNL     1       6.408  18.334  -0.383  0.00  0.00    +0.000 C 
ATOM      8  O   UNL     1       7.383  18.336  -1.419  0.00  0.00    +0.000 OA
ENDBRANCH   1   8
BRANCH   6   9
ATOM      9  O   UNL     1       6.949  17.106  -3.747  0.00  0.00    +0.000 OA
ATOM     10  H   UNL     1       7.898  16.888  -3.822  0.00  0.00    +0.000 HD
ENDBRANCH   6   9
TORSDOF 2
ENDMDL
MODEL 5
REMARK VINA RESULT:    -3.713      2.072      2.716
REMARK INTER + INTRA:          -4.082
REMARK INTER:                  -4.033
REMARK INTRA:                  -0.049
REMARK UNBOUND:                -0.044
REMARK  Name = 
REMARK  3 active torsions:
REMARK  status: ('A' for Active; 'I' for Inactive)
REMARK    1  A    between atoms: C_1  and  O_2
REMARK    2  A    between atoms: O_2  and  C_3
REMARK    3  A    between atoms: C_8  and  O_9
REMARK                            x       y       z     vdW  Elec       q    Type
REMARK                         _______ _______ _______ _____ _____    ______ ____
ROOT
ATOM      1  C   UNL     1       6.616  13.692   1.805  0.00  0.00    +0.000 A 
ATOM      2  C   UNL     1       7.946  13.881   1.434  0.00  0.00    +0.000 A 
ATOM      3  C   UNL     1       8.959  13.808   2.399  0.00  0.00    +0.000 A 
ATOM      4  C   UNL     1       8.647  13.546   3.734  0.00  0.00    +0.000 A 
ATOM      5  C   UNL     1       7.320  13.355   4.113  0.00  0.00    +0.000 A 
ATOM      6  C   UNL     1       6.322  13.430   3.150  0.00  0.00    +0.000 A 
ENDROOT
BRANCH   1   8
ATOM      7  C   UNL     1       5.414  14.881   0.136  0.00  0.00    +0.000 C 
ATOM      8  O   UNL     1       5.527  13.736   0.972  0.00  0.00    +0.000 OA
ENDBRANCH   1   8
BRANCH   6   9
ATOM      9  O   UNL     1       5.026  13.239   3.546  0.00  0.00    +0.000 OA
ATOM     10  H   UNL     1       4.804  14.036   4.065  0.00  0.00    +0.000 HD
ENDBRANCH   6   9
TORSDOF 2
ENDMDL
MODEL 6
REMARK VINA RESULT:    -3.701      6.090      7.531
REMARK INTER + INTRA:          -4.069
REMARK INTER:                  -4.019
REMARK INTRA:                  -0.050
REMARK UNBOUND:                -0.044
REMARK  Name = 
REMARK  3 active torsions:
REMARK  status: ('A' for Active; 'I' for Inactive)
REMARK    1  A    between atoms: C_1  and  O_2
REMARK    2  A    between atoms: O_2  and  C_3
REMARK    3  A    between atoms: C_8  and  O_9
REMARK                            x       y       z     vdW  Elec       q    Type
REMARK                         _______ _______ _______ _____ _____    ______ ____
ROOT
ATOM      1  C   UNL     1       6.779  19.922  -4.168  0.00  0.00    +0.000 A 
ATOM      2  C   UNL     1       6.795  21.191  -3.592  0.00  0.00    +0.000 A 
ATOM      3  C   UNL     1       7.057  21.335  -2.224  0.00  0.00    +0.000 A 
ATOM      4  C   UNL     1       7.303  20.214  -1.429  0.00  0.00    +0.000 A 
ATOM      5  C   UNL     1       7.289  18.943  -1.997  0.00  0.00    +0.000 A 
ATOM      6  C   UNL     1       7.027  18.809  -3.355  0.00  0.00    +0.000 A 
ENDROOT
BRANCH   1   8
ATOM      7  C   UNL     1       7.358  20.293  -6.443  0.00  0.00    +0.000 C 
ATOM      8  O   UNL     1       6.537  19.633  -5.487  0.00  0.00    +0.000 OA
ENDBRANCH   1   8
BRANCH   6   9
ATOM      9  O   UNL     1       7.019  17.549  -3.891  0.00  0.00    +0.000 OA
ATOM     10  H   UNL     1       6.166  17.166  -3.610  0.00  0.00    +0.000 HD
ENDBRANCH   6   9
TORSDOF 2
ENDMDL
MODEL 7
REMARK VINA RESULT:    -3.383      3.757      4.726
REMARK INTER + INTRA:          -3.724
REMARK INTER:                  -3.672
REMARK INTRA:                  -0.053
REMARK UNBOUND:                -0.044
REMARK  Name = 
REMARK  3 active torsions:
REMARK  status: ('A' for Active; 'I' for Inactive)
REMARK    1  A    between atoms: C_1  and  O_2
REMARK    2  A    between atoms: O_2  and  C_3
REMARK    3  A    between atoms: C_8  and  O_9
REMARK                            x       y       z     vdW  Elec       q    Type
REMARK                         _______ _______ _______ _____ _____    ______ ____
ROOT
ATOM      1  C   UNL     1       6.701  18.303  -1.267  0.00  0.00    +0.000 A 
ATOM      2  C   UNL     1       6.204  18.616  -0.002  0.00  0.00    +0.000 A 
ATOM      3  C   UNL     1       5.279  17.765   0.616  0.00  0.00    +0.000 A 
ATOM      4  C   UNL     1       4.848  16.602  -0.026  0.00  0.00    +0.000 A 
ATOM      5  C   UNL     1       5.340  16.283  -1.289  0.00  0.00    +0.000 A 
ATOM      6  C   UNL     1       6.257  17.133  -1.895  0.00  0.00    +0.000 A 
ENDROOT
BRANCH   1   8
ATOM      7  C   UNL     1       7.188  20.341  -2.388  0.00  0.00    +0.000 C 
ATOM      8  O   UNL     1       7.605  19.041  -1.988  0.00  0.00    +0.000 OA
ENDBRANCH   1   8
BRANCH   6   9
ATOM      9  O   UNL     1       6.726  16.798  -3.137  0.00  0.00    +0.000 OA
ATOM     10  H   UNL     1       5.993  16.308  -3.556  0.00  0.00    +0.000 HD
ENDBRANCH   6   9
TORSDOF 2
ENDMDL
MODEL 8
REMARK VINA RESULT:    -3.357      1.338      3.122
REMARK INTER + INTRA:          -3.695
REMARK INTER:                  -3.652
REMARK INTRA:                  -0.043
REMARK UNBOUND:                -0.044
REMARK  Name = 
REMARK  3 active torsions:
REMARK  status: ('A' for Active; 'I' for Inactive)
REMARK    1  A    between atoms: C_1  and  O_2
REMARK    2  A    between atoms: O_2  and  C_3
REMARK    3  A    between atoms: C_8  and  O_9
REMARK                            x       y       z     vdW  Elec       q    Type
REMARK                         _______ _______ _______ _____ _____    ______ ____
ROOT
ATOM      1  C   UNL     1       7.140  14.468   1.576  0.00  0.00    +0.000 A 
ATOM      2  C   UNL     1       6.148  15.191   2.237  0.00  0.00    +0.000 A 
ATOM      3  C   UNL     1       5.248  15.975   1.503  0.00  0.00    +0.000 A 
ATOM      4  C   UNL     1       5.336  16.039   0.111  0.00  0.00    +0.000 A 
ATOM      5  C   UNL     1       6.325  15.318  -0.556  0.00  0.00    +0.000 A 
ATOM      6  C   UNL     1       7.213  14.544   0.180  0.00  0.00    +0.000 A 
ENDROOT
BRANCH   1   8
ATOM      7  C   UNL     1       7.669  12.929   3.308  0.00  0.00    +0.000 C 
ATOM      8  O   UNL     1       8.084  13.664   2.163  0.00  0.00    +0.000 OA
ENDBRANCH   1   8
BRANCH   6   9
ATOM      9  O   UNL     1       8.176  13.845  -0.498  0.00  0.00    +0.000 OA
ATOM     10  H   UNL     1       8.984  13.951   0.040  0.00  0.00    +0.000 HD
ENDBRANCH   6   9
TORSDOF 2
ENDMDL
