MODEL 1
REMARK VINA RESULT:    -4.367      0.000      0.000
REMARK INTER + INTRA:          -4.802
REMARK INTER:                  -4.750
REMARK INTRA:                  -0.052
REMARK UNBOUND:                -0.052
REMARK  Name = 
REMARK  3 active torsions:
REMARK  status: ('A' for Active; 'I' for Inactive)
REMARK    1  A    between atoms: C_1  and  O_2
REMARK    2  A    between atoms: O_2  and  C_3
REMARK    3  A    between atoms: C_8  and  O_9
REMARK                            x       y       z     vdW  Elec       q    Type
REMARK                         _______ _______ _______ _____ _____    ______ ____
ROOT
ATOM      1  C   UNL     1       5.100  22.723   2.781  0.00  0.00    +0.000 A 
ATOM      2  C   UNL     1       6.325  23.186   2.303  0.00  0.00    +0.000 A 
ATOM      3  C   UNL     1       7.519  22.634   2.785  0.00  0.00    +0.000 A 
ATOM      4  C   UNL     1       7.492  21.620   3.745  0.00  0.00    +0.000 A 
ATOM      5  C   UNL     1       6.273  21.152   4.227  0.00  0.00    +0.000 A 
ATOM      6  C   UNL     1       5.094  21.705   3.743  0.00  0.00    +0.000 A 
ENDROOT
BRANCH   1   8
ATOM      7  C   UNL     1       3.520  23.009   1.030  0.00  0.00    +0.000 C 
ATOM      8  O   UNL     1       3.860  23.170   2.402  0.00  0.00    +0.000 OA
ENDBRANCH   1   8
BRANCH   6   9
ATOM      9  O   UNL     1       3.907  21.229   4.233  0.00  0.00    +0.000 OA
ATOM     10  H   UNL     1       4.064  20.276   4.379  0.00  0.00    +0.000 HD
ENDBRANCH   6   9
TORSDOF 2
ENDMDL
MODEL 2
REMARK VINA RESULT:    -4.022      1.252      3.103
REMARK INTER + INTRA:          -4.427
REMARK INTER:                  -4.386
REMARK INTRA:                  -0.042
REMARK UNBOUND:                -0.052
REMARK  Name = 
REMARK  3 active torsions:
REMARK  status: ('A' for Active; 'I' for Inactive)
REMARK    1  A    between atoms: C_1  and  O_2
REMARK    2  A    between atoms: O_2  and  C_3
REMARK    3  A    between atoms: C_8  and  O_9
REMARK                            x       y       z     vdW  Elec       q    Type
REMARK                         _______ _______ _______ _____ _____    ______ ____
ROOT
ATOM      1  C   UNL     1       6.225  21.736   3.629  0.00  0.00    +0.000 A 
ATOM      2  C   UNL     1       7.116  22.529   2.907  0.00  0.00    +0.000 A 
ATOM      3  C   UNL     1       6.631  23.546   2.075  0.00  0.00    +0.000 A 
ATOM      4  C   UNL     1       5.259  23.775   1.962  0.00  0.00    +0.000 A 
ATOM      5  C   UNL     1       4.362  22.988   2.681  0.00  0.00    +0.000 A 
ATOM      6  C   UNL     1       4.852  21.981   3.503  0.00  0.00    +0.000 A 
ENDROOT
BRANCH   1   8
ATOM      7  C   UNL     1       7.786  20.839   5.180  0.00  0.00    +0.000 C 
ATOM      8  O   UNL     1       6.556  20.710   4.476  0.00  0.00    +0.000 OA
ENDBRANCH   1   8
BRANCH   6   9
ATOM      9  O   UNL     1       3.951  21.220   4.200  0.00  0.00    +0.000 OA
ATOM     10  H   UNL     1       3.136  21.757   4.221  0.00  0.00    +0.000 HD
ENDBRANCH   6   9
TORSDOF 2
ENDMDL
MODEL 3
REMARK VINA RESULT:    -3.543      1.989      3.236
REMARK INTER + INTRA:          -3.906
REMARK INTER:                  -3.865
REMARK INTRA:                  -0.041
REMARK UNBOUND:                -0.052
REMARK  Name = 
REMARK  3 active torsions:
REMARK  status: ('A' for Active; 'I' for Inactive)
REMARK    1  A    between atoms: C_1  and  O_2
REMARK    2  A    between atoms: O_2  and  C_3
REMARK    3  A    between atoms: C_8  and  O_9
REMARK                            x       y       z     vdW  Elec       q    Type
REMARK                         _______ _______ _______ _____ _____    ______ ____
ROOT
ATOM      1  C   UNL     1       7.117  22.269   3.178  0.00  0.00    +0.000 A 
ATOM      2  C   UNL     1       6.683  23.335   2.392  0.00  0.00    +0.000 A 
ATOM      3  C   UNL     1       5.312  23.580   2.239  0.00  0.00    +0.000 A 
ATOM      4  C   UNL     1       4.373  22.762   2.869  0.00  0.00    +0.000 A 
ATOM      5  C   UNL     1       4.798  21.694   3.656  0.00  0.00    +0.000 A 
ATOM      6  C   UNL     1       6.159  21.459   3.802  0.00  0.00    +0.000 A 
ENDROOT
BRANCH   1   8
ATOM      7  C   UNL     1       9.360  22.233   2.396  0.00  0.00    +0.000 C 
ATOM      8  O   UNL     1       8.420  21.913   3.415  0.00  0.00    +0.000 OA
ENDBRANCH   1   8
BRANCH   6   9
ATOM      9  O   UNL     1       6.553  20.404   4.581  0.00  0.00    +0.000 OA
ATOM     10  H   UNL     1       5.986  19.661   4.298  0.00  0.00    +0.000 HD
ENDBRANCH   6   9
TORSDOF 2
ENDMDL
MODEL 4
REMARK VINA RESULT:    -3.542     18.479     20.359
REMARK INTER + INTRA:          -3.905
REMARK INTER:                  -3.853
REMARK INTRA:                  -0.052
REMARK UNBOUND:                -0.052
REMARK  Name = 
REMARK  3 active torsions:
REMARK  status: ('A' for Active; 'I' for Inactive)
REMARK    1  A    between atoms: C_1  and  O_2
REMARK    2  A    between atoms: O_2  and  C_3
REMARK    3  A    between atoms: C_8  and  O_9
REMARK                            x       y       z     vdW  Elec       q    Type
REMARK                         _______ _______ _______ _____ _____    ______ ____
ROOT
ATOM      1  C   UNL     1      -4.377  13.627 -11.538  0.00  0.00    +0.000 A 
ATOM      2  C   UNL     1      -4.007  14.181 -12.763  0.00  0.00    +0.000 A 
ATOM      3  C   UNL     1      -4.705  13.834 -13.927  0.00  0.00    +0.000 A 
ATOM      4  C   UNL     1      -5.770  12.934 -13.872  0.00  0.00    +0.000 A 
ATOM      5  C   UNL     1      -6.146  12.376 -12.652  0.00  0.00    +0.000 A 
ATOM      6  C   UNL     1      -5.448  12.726 -11.502  0.00  0.00    +0.000 A 
ENDROOT
BRANCH   1   8
ATOM      7  C   UNL     1      -3.957  15.181  -9.790  0.00  0.00    +0.000 C 
ATOM      8  O   UNL     1      -3.786  13.874 -10.325  0.00  0.00    +0.000 OA
ENDBRANCH   1   8
BRANCH   6   9
ATOM      9  O   UNL     1      -5.836  12.164 -10.315  0.00  0.00    +0.000 OA
ATOM     10  H   UNL     1      -5.412  12.715  -9.630  0.00  0.00    +0.000 HD
ENDBRANCH   6   9
TORSDOF 2
ENDMDL
MODEL 5
REMARK VINA RESULT:    -3.539      0.975      2.242
REMARK INTER + INTRA:          -3.902
REMARK INTER:                  -3.920
REMARK INTRA:                   0.018
REMARK UNBOUND:                -0.052
REMARK  Name = 
REMARK  3 active torsions:
REMARK  status: ('A' for Active; 'I' for Inactive)
REMARK    1  A    between atoms: C_1  and  O_2
REMARK    2  A    between atoms: O_2  and  C_3
REMARK    3  A    between atoms: C_8  and  O_9
REMARK                            x       y       z     vdW  Elec       q    Type
REMARK                         _______ _______ _______ _____ _____    ______ ____
ROOT
ATOM      1  C   UNL     1       5.010  22.617   2.794  0.00  0.00    +0.000 A 
ATOM      2  C   UNL     1       4.947  21.521   3.653  0.00  0.00    +0.000 A 
ATOM      3  C   UNL     1       6.127  20.955   4.153  0.00  0.00    +0.000 A 
ATOM      4  C   UNL     1       7.370  21.480   3.797  0.00  0.00    +0.000 A 
ATOM      5  C   UNL     1       7.442  22.575   2.939  0.00  0.00    +0.000 A 
ATOM      6  C   UNL     1       6.267  23.130   2.447  0.00  0.00    +0.000 A 
ENDROOT
BRANCH   1   8
ATOM      7  C   UNL     1       3.438  22.727   1.015  0.00  0.00    +0.000 C 
ATOM      8  O   UNL     1       3.943  23.268   2.230  0.00  0.00    +0.000 OA
ENDBRANCH   1   8
BRANCH   6   9
ATOM      9  O   UNL     1       6.362  24.206   1.606  0.00  0.00    +0.000 OA
ATOM     10  H   UNL     1       5.974  23.898   0.765  0.00  0.00    +0.000 HD
ENDBRANCH   6   9
TORSDOF 2
ENDMDL
MODEL 6
REMARK VINA RESULT:    -3.440     17.211     18.977
REMARK INTER + INTRA:          -3.794
REMARK INTER:                  -3.742
REMARK INTRA:                  -0.052
REMARK UNBOUND:                -0.052
REMARK  Name = 
REMARK  3 active torsions:
REMARK  status: ('A' for Active; 'I' for Inactive)
REMARK    1  A    between atoms: C_1  and  O_2
REMARK    2  A    between atoms: O_2  and  C_3
REMARK    3  A    between atoms: C_8  and  O_9
REMARK                            x       y       z     vdW  Elec       q    Type
REMARK                         _______ _______ _______ _____ _____    ______ ____
ROOT
ATOM      1  C   UNL     1      -4.197  15.154 -10.621  0.00  0.00    +0.000 A 
ATOM      2  C   UNL     1      -4.180  16.262 -11.467  0.00  0.00    +0.000 A 
ATOM      3  C   UNL     1      -4.274  16.086 -12.853  0.00  0.00    +0.000 A 
ATOM      4  C   UNL     1      -4.384  14.805 -13.398  0.00  0.00    +0.000 A 
ATOM      5  C   UNL     1      -4.403  13.693 -12.559  0.00  0.00    +0.000 A 
ATOM      6  C   UNL     1      -4.309  13.877 -11.186  0.00  0.00    +0.000 A 
ENDROOT
BRANCH   1   8
ATOM      7  C   UNL     1      -5.232  15.713  -8.557  0.00  0.00    +0.000 C 
ATOM      8  O   UNL     1      -4.113  15.177  -9.252  0.00  0.00    +0.000 OA
ENDBRANCH   1   8
BRANCH   6   9
ATOM      9  O   UNL     1      -4.329  12.769 -10.382  0.00  0.00    +0.000 OA
ATOM     10  H   UNL     1      -3.478  12.793  -9.904  0.00  0.00    +0.000 HD
ENDBRANCH   6   9
TORSDOF 2
ENDMDL
MODEL 7
REMARK VINA RESULT:    -3.428     18.485     20.069
REMARK INTER + INTRA:          -3.780
REMARK INTER:                  -3.742
REMARK INTRA:                  -0.038
REMARK UNBOUND:                -0.052
REMARK  Name = 
REMARK  3 active torsions:
REMARK  status: ('A' for Active; 'I' for Inactive)
REMARK    1  A    between atoms: C_1  and  O_2
REMARK    2  A    between atoms: O_2  and  C_3
REMARK    3  A    between atoms: C_8  and  O_9
REMARK                            x       y       z     vdW  Elec       q    Type
REMARK                         _______ _______ _______ _____ _____    ______ ____
ROOT
ATOM      1  C   UNL     1      -5.182  13.522 -12.233  0.00  0.00    +0.000 A 
ATOM      2  C   UNL     1      -5.137  14.790 -12.811  0.00  0.00    +0.000 A 
ATOM      3  C   UNL     1      -4.520  15.848 -12.132  0.00  0.00    +0.000 A 
ATOM      4  C   UNL     1      -3.948  15.643 -10.874  0.00  0.00    +0.000 A 
ATOM      5  C   UNL     1      -3.989  14.380 -10.290  0.00  0.00    +0.000 A 
ATOM      6  C   UNL     1      -4.603  13.337 -10.971  0.00  0.00    +0.000 A 
ENDROOT
BRANCH   1   8
ATOM      7  C   UNL     1      -6.034  12.448 -14.174  0.00  0.00    +0.000 C 
ATOM      8  O   UNL     1      -5.751  12.401 -12.780  0.00  0.00    +0.000 OA
ENDBRANCH   1   8
BRANCH   6   9
ATOM      9  O   UNL     1      -4.631  12.103 -10.376  0.00  0.00    +0.000 OA
ATOM     10  H   UNL     1      -5.524  11.757 -10.565  0.00  0.00    +0.000 HD
ENDBRANCH   6   9
TORSDOF 2
ENDMDL
MODEL 8
REMARK VINA RESULT:    -3.183      2.206      4.014
REMARK INTER + INTRA:          -3.514
REMARK INTER:                  -3.463
REMARK INTRA:                  -0.051
REMARK UNBOUND:                -0.052
REMARK  Name = 
REMARK  3 active torsions:
REMARK  status: ('A' for Active; 'I' for Inactive)
REMARK    1  A    between atoms: C_1  and  O_2
REMARK    2  A    between atoms: O_2  and  C_3
REMARK    3  A    between atoms: C_8  and  O_9
REMARK                            x       y       z     vdW  Elec       q    Type
REMARK                         _______ _______ _______ _____ _____    ______ ____
ROOT
ATOM      1  C   UNL     1       7.080  22.006   3.392  0.00  0.00    +0.000 A 
ATOM      2  C   UNL     1       6.013  21.281   3.922  0.00  0.00    +0.000 A 
ATOM      3  C   UNL     1       4.697  21.664   3.637  0.00  0.00    +0.000 A 
ATOM      4  C   UNL     1       4.442  22.771   2.825  0.00  0.00    +0.000 A 
ATOM      5  C   UNL     1       5.502  23.500   2.292  0.00  0.00    +0.000 A 
ATOM      6  C   UNL     1       6.805  23.113   2.580  0.00  0.00    +0.000 A 
ENDROOT
BRANCH   1   8
ATOM      7  C   UNL     1       8.866  21.731   4.935  0.00  0.00    +0.000 C 
ATOM      8  O   UNL     1       8.413  21.747   3.587  0.00  0.00    +0.000 OA
ENDBRANCH   1   8
BRANCH   6   9
ATOM      9  O   UNL     1       7.830  23.845   2.044  0.00  0.00    +0.000 OA
ATOM     10  H   UNL     1       7.439  24.291   1.269  0.00  0.00    +0.000 HD
ENDBRANCH   6   9
TORSDOF 2
ENDMDL
MODEL 9
REMARK VINA RESULT:    -3.170     18.171     19.604
REMARK INTER + INTRA:          -3.500
REMARK INTER:                  -3.462
REMARK INTRA:                  -0.038
REMARK UNBOUND:                -0.052
REMARK  Name = 
REMARK  3 active torsions:
REMARK  status: ('A' for Active; 'I' for Inactive)
REMARK    1  A    between atoms: C_1  and  O_2
REMARK    2  A    between atoms: O_2  and  C_3
REMARK    3  A    between atoms: C_8  and  O_9
REMARK                            x       y       z     vdW  Elec       q    Type
REMARK                         _______ _______ _______ _____ _____    ______ ____
ROOT
ATOM      1  C   UNL     1      -4.305  14.812 -12.686  0.00  0.00    +0.000 A 
ATOM      2  C   UNL     1      -3.786  13.681 -12.057  0.00  0.00    +0.000 A 
ATOM      3  C   UNL     1      -3.609  13.671 -10.668  0.00  0.00    +0.000 A 
ATOM      4  C   UNL     1      -3.948  14.789  -9.904  0.00  0.00    +0.000 A 
ATOM      5  C   UNL     1      -4.468  15.923 -10.524  0.00  0.00    +0.000 A 
ATOM      6  C   UNL     1      -4.640  15.924 -11.902  0.00  0.00    +0.000 A 
ENDROOT
BRANCH   1   8
ATOM      7  C   UNL     1      -4.495  13.775 -14.815  0.00  0.00    +0.000 C 
ATOM      8  O   UNL     1      -4.530  14.961 -14.031  0.00  0.00    +0.000 OA
ENDBRANCH   1   8
BRANCH   6   9
ATOM      9  O   UNL     1      -5.153  17.050 -12.490  0.00  0.00    +0.000 OA
ATOM     10  H   UNL     1      -4.413  17.687 -12.491  0.00  0.00    +0.000 HD
ENDBRANCH   6   9
TORSDOF 2
ENDMDL
