MODEL 1
REMARK VINA RESULT:    -4.935      0.000      0.000
REMARK INTER + INTRA:          -7.192
REMARK INTER:                  -6.666
REMARK INTRA:                  -0.526
REMARK UNBOUND:                -0.526
REMARK  Name = 
REMARK  10 active torsions:
REMARK  status: ('A' for Active; 'I' for Inactive)
REMARK    1  A    between atoms: C_1  and  C_2
REMARK    2  A    between atoms: C_5  and  N_8
REMARK    3  A    between atoms: N_8  and  C_9
REMARK    4  A    between atoms: N_8  and  C_13
REMARK    5  A    between atoms: C_9  and  C_10
REMARK    6  A    between atoms: C_10  and  C_11
REMARK    7  A    between atoms: C_10  and  O_12
REMARK    8  A    between atoms: C_13  and  C_14
REMARK    9  A    between atoms: C_14  and  C_15
REMARK   10  A    between atoms: C_14  and  O_16
REMARK                            x       y       z     vdW  Elec       q    Type
REMARK                         _______ _______ _______ _____ _____    ______ ____
ROOT
ATOM      1  N   UNL     1       3.498  16.222  -0.070  0.00  0.00    +0.000 N 
ENDROOT
BRANCH   1   6
ATOM      2  C   UNL     1       4.571  14.655   5.381  0.00  0.00    +0.000 C 
ATOM      3  C   UNL     1       4.317  15.066   3.963  0.00  0.00    +0.000 A 
ATOM      4  C   UNL     1       4.024  16.387   3.644  0.00  0.00    +0.000 A 
ATOM      5  C   UNL     1       3.758  16.761   2.316  0.00  0.00    +0.000 A 
ATOM      6  C   UNL     1       3.746  15.839   1.254  0.00  0.00    +0.000 A 
ATOM      7  C   UNL     1       4.048  14.513   1.613  0.00  0.00    +0.000 A 
ATOM      8  C   UNL     1       4.319  14.126   2.936  0.00  0.00    +0.000 A 
ENDBRANCH   1   6
BRANCH   1   9
ATOM      9  C   UNL     1       4.516  16.993  -0.824  0.00  0.00    +0.000 C 
BRANCH   9  10
ATOM     10  C   UNL     1       4.335  16.886  -2.358  0.00  0.00    +0.000 C 
ATOM     11  C   UNL     1       5.389  17.708  -3.090  0.00  0.00    +0.000 C 
BRANCH  10  12
ATOM     12  O   UNL     1       4.450  15.525  -2.797  0.00  0.00    +0.000 OA
ATOM     13  H   UNL     1       4.311  15.506  -3.758  0.00  0.00    +0.000 HD
ENDBRANCH  10  12
ENDBRANCH   9  10
ENDBRANCH   1   9
BRANCH   1  14
ATOM     14  C   UNL     1       2.111  16.346  -0.588  0.00  0.00    +0.000 C 
BRANCH  14  15
ATOM     15  C   UNL     1       1.494  14.972  -0.939  0.00  0.00    +0.000 C 
ATOM     16  C   UNL     1      -0.026  14.950  -0.826  0.00  0.00    +0.000 C 
BRANCH  15  17
ATOM     17  O   UNL     1       1.844  14.558  -2.259  0.00  0.00    +0.000 OA
ATOM     18  H   UNL     1       2.819  14.476  -2.248  0.00  0.00    +0.000 HD
ENDBRANCH  15  17
ENDBRANCH  14  15
ENDBRANCH   1  14
TORSDOF 7
ENDMDL
MODEL 2
REMARK VINA RESULT:    -4.896      4.428      5.922
REMARK INTER + INTRA:          -7.139
REMARK INTER:                  -6.349
REMARK INTRA:                  -0.791
REMARK UNBOUND:                -0.526
REMARK  Name = 
REMARK  10 active torsions:
REMARK  status: ('A' for Active; 'I' for Inactive)
REMARK    1  A    between atoms: C_1  and  C_2
REMARK    2  A    between atoms: C_5  and  N_8
REMARK    3  A    between atoms: N_8  and  C_9
REMARK    4  A    between atoms: N_8  and  C_13
REMARK    5  A    between atoms: C_9  and  C_10
REMARK    6  A    between atoms: C_10  and  C_11
REMARK    7  A    between atoms: C_10  and  O_12
REMARK    8  A    between atoms: C_13  and  C_14
REMARK    9  A    between atoms: C_14  and  C_15
REMARK   10  A    between atoms: C_14  and  O_16
REMARK                            x       y       z     vdW  Elec       q    Type
REMARK                         _______ _______ _______ _____ _____    ______ ____
ROOT
ATOM      1  N   UNL     1       4.368  15.096   4.526  0.00  0.00    +0.000 N 
ENDROOT
BRANCH   1   6
ATOM      2  C   UNL     1       1.377  13.932   9.325  0.00  0.00    +0.000 C 
ATOM      3  C   UNL     1       2.168  14.250   8.093  0.00  0.00    +0.000 A 
ATOM      4  C   UNL     1       1.779  15.277   7.240  0.00  0.00    +0.000 A 
ATOM      5  C   UNL     1       2.507  15.550   6.070  0.00  0.00    +0.000 A 
ATOM      6  C   UNL     1       3.635  14.805   5.684  0.00  0.00    +0.000 A 
ATOM      7  C   UNL     1       4.001  13.776   6.571  0.00  0.00    +0.000 A 
ATOM      8  C   UNL     1       3.283  13.493   7.745  0.00  0.00    +0.000 A 
ENDBRANCH   1   6
BRANCH   1   9
ATOM      9  C   UNL     1       5.017  16.420   4.370  0.00  0.00    +0.000 C 
BRANCH   9  10
ATOM     10  C   UNL     1       6.421  16.481   5.020  0.00  0.00    +0.000 C 
ATOM     11  C   UNL     1       6.333  16.962   6.463  0.00  0.00    +0.000 C 
BRANCH  10  12
ATOM     12  O   UNL     1       7.044  15.189   5.020  0.00  0.00    +0.000 OA
ATOM     13  H   UNL     1       6.519  14.601   4.453  0.00  0.00    +0.000 HD
ENDBRANCH  10  12
ENDBRANCH   9  10
ENDBRANCH   1   9
BRANCH   1  14
ATOM     14  C   UNL     1       4.117  14.370   3.255  0.00  0.00    +0.000 C 
BRANCH  14  15
ATOM     15  C   UNL     1       5.159  13.253   3.005  0.00  0.00    +0.000 C 
ATOM     16  C   UNL     1       4.620  12.110   2.152  0.00  0.00    +0.000 C 
BRANCH  15  17
ATOM     17  O   UNL     1       6.334  13.760   2.373  0.00  0.00    +0.000 OA
ATOM     18  H   UNL     1       6.358  13.325   1.497  0.00  0.00    +0.000 HD
ENDBRANCH  15  17
ENDBRANCH  14  15
ENDBRANCH   1  14
TORSDOF 7
ENDMDL
MODEL 3
REMARK VINA RESULT:    -4.527      4.223      6.125
REMARK INTER + INTRA:          -6.641
REMARK INTER:                  -6.022
REMARK INTRA:                  -0.619
REMARK UNBOUND:                -0.526
REMARK  Name = 
REMARK  10 active torsions:
REMARK  status: ('A' for Active; 'I' for Inactive)
REMARK    1  A    between atoms: C_1  and  C_2
REMARK    2  A    between atoms: C_5  and  N_8
REMARK    3  A    between atoms: N_8  and  C_9
REMARK    4  A    between atoms: N_8  and  C_13
REMARK    5  A    between atoms: C_9  and  C_10
REMARK    6  A    between atoms: C_10  and  C_11
REMARK    7  A    between atoms: C_10  and  O_12
REMARK    8  A    between atoms: C_13  and  C_14
REMARK    9  A    between atoms: C_14  and  C_15
REMARK   10  A    between atoms: C_14  and  O_16
REMARK                            x       y       z     vdW  Elec       q    Type
REMARK                         _______ _______ _______ _____ _____    ______ ____
ROOT
ATOM      1  N   UNL     1       5.112  15.600   4.652  0.00  0.00    +0.000 N 
ENDROOT
BRANCH   1   6
ATOM      2  C   UNL     1       1.896  14.101   9.206  0.00  0.00    +0.000 C 
ATOM      3  C   UNL     1       2.718  14.511   8.023  0.00  0.00    +0.000 A 
ATOM      4  C   UNL     1       2.354  14.132   6.735  0.00  0.00    +0.000 A 
ATOM      5  C   UNL     1       3.144  14.494   5.632  0.00  0.00    +0.000 A 
ATOM      6  C   UNL     1       4.339  15.226   5.758  0.00  0.00    +0.000 A 
ATOM      7  C   UNL     1       4.675  15.594   7.074  0.00  0.00    +0.000 A 
ATOM      8  C   UNL     1       3.892  15.240   8.186  0.00  0.00    +0.000 A 
ENDBRANCH   1   6
BRANCH   1   9
ATOM      9  C   UNL     1       4.686  15.216   3.284  0.00  0.00    +0.000 C 
BRANCH   9  10
ATOM     10  C   UNL     1       5.570  14.101   2.672  0.00  0.00    +0.000 C 
ATOM     11  C   UNL     1       4.792  12.796   2.547  0.00  0.00    +0.000 C 
BRANCH  10  12
ATOM     12  O   UNL     1       6.031  14.470   1.365  0.00  0.00    +0.000 OA
ATOM     13  H   UNL     1       5.702  13.810   0.732  0.00  0.00    +0.000 HD
ENDBRANCH  10  12
ENDBRANCH   9  10
ENDBRANCH   1   9
BRANCH   1  14
ATOM     14  C   UNL     1       6.558  15.907   4.793  0.00  0.00    +0.000 C 
BRANCH  14  15
ATOM     15  C   UNL     1       6.916  17.303   4.228  0.00  0.00    +0.000 C 
ATOM     16  C   UNL     1       5.967  18.400   4.696  0.00  0.00    +0.000 C 
BRANCH  15  17
ATOM     17  O   UNL     1       8.244  17.689   4.580  0.00  0.00    +0.000 OA
ATOM     18  H   UNL     1       8.824  17.061   4.103  0.00  0.00    +0.000 HD
ENDBRANCH  15  17
ENDBRANCH  14  15
ENDBRANCH   1  14
TORSDOF 7
ENDMDL
MODEL 4
REMARK VINA RESULT:    -4.411      1.590      5.494
REMARK INTER + INTRA:          -6.484
REMARK INTER:                  -5.984
REMARK INTRA:                  -0.500
REMARK UNBOUND:                -0.526
REMARK  Name = 
REMARK  10 active torsions:
REMARK  status: ('A' for Active; 'I' for Inactive)
REMARK    1  A    between atoms: C_1  and  C_2
REMARK    2  A    between atoms: C_5  and  N_8
REMARK    3  A    between atoms: N_8  and  C_9
REMARK    4  A    between atoms: N_8  and  C_13
REMARK    5  A    between atoms: C_9  and  C_10
REMARK    6  A    between atoms: C_10  and  C_11
REMARK    7  A    between atoms: C_10  and  O_12
REMARK    8  A    between atoms: C_13  and  C_14
REMARK    9  A    between atoms: C_14  and  C_15
REMARK   10  A    between atoms: C_14  and  O_16
REMARK                            x       y       z     vdW  Elec       q    Type
REMARK                         _______ _______ _______ _____ _____    ______ ____
ROOT
ATOM      1  N   UNL     1       3.334  16.680  -0.424  0.00  0.00    +0.000 N 
ENDROOT
BRANCH   1   6
ATOM      2  C   UNL     1       7.246  19.329  -3.743  0.00  0.00    +0.000 C 
ATOM      3  C   UNL     1       6.249  18.628  -2.871  0.00  0.00    +0.000 A 
ATOM      4  C   UNL     1       5.623  17.461  -3.296  0.00  0.00    +0.000 A 
ATOM      5  C   UNL     1       4.668  16.826  -2.487  0.00  0.00    +0.000 A 
ATOM      6  C   UNL     1       4.274  17.330  -1.234  0.00  0.00    +0.000 A 
ATOM      7  C   UNL     1       4.929  18.510  -0.836  0.00  0.00    +0.000 A 
ATOM      8  C   UNL     1       5.888  19.155  -1.634  0.00  0.00    +0.000 A 
ENDBRANCH   1   6
BRANCH   1   9
ATOM      9  C   UNL     1       1.937  16.516  -0.891  0.00  0.00    +0.000 C 
BRANCH   9  10
ATOM     10  C   UNL     1       1.543  15.032  -1.094  0.00  0.00    +0.000 C 
ATOM     11  C   UNL     1       0.037  14.843  -0.947  0.00  0.00    +0.000 C 
BRANCH  10  12
ATOM     12  O   UNL     1       1.923  14.572  -2.399  0.00  0.00    +0.000 OA
ATOM     13  H   UNL     1       1.631  15.234  -3.048  0.00  0.00    +0.000 HD
ENDBRANCH  10  12
ENDBRANCH   9  10
ENDBRANCH   1   9
BRANCH   1  14
ATOM     14  C   UNL     1       3.514  16.600   1.048  0.00  0.00    +0.000 C 
BRANCH  14  15
ATOM     15  C   UNL     1       4.600  15.573   1.449  0.00  0.00    +0.000 C 
ATOM     16  C   UNL     1       5.327  15.941   2.737  0.00  0.00    +0.000 C 
BRANCH  15  17
ATOM     17  O   UNL     1       4.055  14.264   1.608  0.00  0.00    +0.000 OA
ATOM     18  H   UNL     1       4.292  13.790   0.786  0.00  0.00    +0.000 HD
ENDBRANCH  15  17
ENDBRANCH  14  15
ENDBRANCH   1  14
TORSDOF 7
ENDMDL
MODEL 5
REMARK VINA RESULT:    -4.280      2.645      4.335
REMARK INTER + INTRA:          -6.308
REMARK INTER:                  -5.681
REMARK INTRA:                  -0.627
REMARK UNBOUND:                -0.526
REMARK  Name = 
REMARK  10 active torsions:
REMARK  status: ('A' for Active; 'I' for Inactive)
REMARK    1  A    between atoms: C_1  and  C_2
REMARK    2  A    between atoms: C_5  and  N_8
REMARK    3  A    between atoms: N_8  and  C_9
REMARK    4  A    between atoms: N_8  and  C_13
REMARK    5  A    between atoms: C_9  and  C_10
REMARK    6  A    between atoms: C_10  and  C_11
REMARK    7  A    between atoms: C_10  and  O_12
REMARK    8  A    between atoms: C_13  and  C_14
REMARK    9  A    between atoms: C_14  and  C_15
REMARK   10  A    between atoms: C_14  and  O_16
REMARK                            x       y       z     vdW  Elec       q    Type
REMARK                         _______ _______ _______ _____ _____    ______ ____
ROOT
ATOM      1  N   UNL     1       4.550  16.016   2.778  0.00  0.00    +0.000 N 
ENDROOT
BRANCH   1   6
ATOM      2  C   UNL     1       7.990  17.134   7.278  0.00  0.00    +0.000 C 
ATOM      3  C   UNL     1       7.087  16.867   6.113  0.00  0.00    +0.000 A 
ATOM      4  C   UNL     1       5.839  16.282   6.295  0.00  0.00    +0.000 A 
ATOM      5  C   UNL     1       5.010  16.006   5.196  0.00  0.00    +0.000 A 
ATOM      6  C   UNL     1       5.390  16.276   3.869  0.00  0.00    +0.000 A 
ATOM      7  C   UNL     1       6.658  16.869   3.722  0.00  0.00    +0.000 A 
ATOM      8  C   UNL     1       7.496  17.152   4.813  0.00  0.00    +0.000 A 
ENDBRANCH   1   6
BRANCH   1   9
ATOM      9  C   UNL     1       4.121  14.628   2.485  0.00  0.00    +0.000 C 
BRANCH   9  10
ATOM     10  C   UNL     1       5.294  13.618   2.514  0.00  0.00    +0.000 C 
ATOM     11  C   UNL     1       4.793  12.194   2.304  0.00  0.00    +0.000 C 
BRANCH  10  12
ATOM     12  O   UNL     1       6.249  13.909   1.484  0.00  0.00    +0.000 OA
ATOM     13  H   UNL     1       6.417  13.091   0.988  0.00  0.00    +0.000 HD
ENDBRANCH  10  12
ENDBRANCH   9  10
ENDBRANCH   1   9
BRANCH   1  14
ATOM     14  C   UNL     1       4.477  16.949   1.625  0.00  0.00    +0.000 C 
BRANCH  14  15
ATOM     15  C   UNL     1       3.932  16.261   0.350  0.00  0.00    +0.000 C 
ATOM     16  C   UNL     1       2.919  17.113  -0.405  0.00  0.00    +0.000 C 
BRANCH  15  17
ATOM     17  O   UNL     1       4.982  15.919  -0.553  0.00  0.00    +0.000 OA
ATOM     18  H   UNL     1       4.574  15.959  -1.442  0.00  0.00    +0.000 HD
ENDBRANCH  15  17
ENDBRANCH  14  15
ENDBRANCH   1  14
TORSDOF 7
ENDMDL
MODEL 6
REMARK VINA RESULT:    -4.271      4.111      6.712
REMARK INTER + INTRA:          -6.295
REMARK INTER:                  -5.867
REMARK INTRA:                  -0.428
REMARK UNBOUND:                -0.526
REMARK  Name = 
REMARK  10 active torsions:
REMARK  status: ('A' for Active; 'I' for Inactive)
REMARK    1  A    between atoms: C_1  and  C_2
REMARK    2  A    between atoms: C_5  and  N_8
REMARK    3  A    between atoms: N_8  and  C_9
REMARK    4  A    between atoms: N_8  and  C_13
REMARK    5  A    between atoms: C_9  and  C_10
REMARK    6  A    between atoms: C_10  and  C_11
REMARK    7  A    between atoms: C_10  and  O_12
REMARK    8  A    between atoms: C_13  and  C_14
REMARK    9  A    between atoms: C_14  and  C_15
REMARK   10  A    between atoms: C_14  and  O_16
REMARK                            x       y       z     vdW  Elec       q    Type
REMARK                         _______ _______ _______ _____ _____    ______ ____
ROOT
ATOM      1  N   UNL     1       7.262  18.245  -4.054  0.00  0.00    +0.000 N 
ENDROOT
BRANCH   1   6
ATOM      2  C   UNL     1       3.114  17.651  -0.083  0.00  0.00    +0.000 C 
ATOM      3  C   UNL     1       4.175  17.820  -1.127  0.00  0.00    +0.000 A 
ATOM      4  C   UNL     1       4.300  16.910  -2.171  0.00  0.00    +0.000 A 
ATOM      5  C   UNL     1       5.316  17.056  -3.130  0.00  0.00    +0.000 A 
ATOM      6  C   UNL     1       6.264  18.094  -3.083  0.00  0.00    +0.000 A 
ATOM      7  C   UNL     1       6.105  18.996  -2.015  0.00  0.00    +0.000 A 
ATOM      8  C   UNL     1       5.093  18.863  -1.051  0.00  0.00    +0.000 A 
ENDBRANCH   1   6
BRANCH   1   9
ATOM      9  C   UNL     1       8.439  17.344  -4.056  0.00  0.00    +0.000 C 
BRANCH   9  10
ATOM     10  C   UNL     1       9.655  17.946  -4.802  0.00  0.00    +0.000 C 
ATOM     11  C   UNL     1      10.815  18.192  -3.845  0.00  0.00    +0.000 C 
BRANCH  10  12
ATOM     12  O   UNL     1      10.112  17.064  -5.837  0.00  0.00    +0.000 OA
ATOM     13  H   UNL     1       9.905  16.153  -5.570  0.00  0.00    +0.000 HD
ENDBRANCH  10  12
ENDBRANCH   9  10
ENDBRANCH   1   9
BRANCH   1  14
ATOM     14  C   UNL     1       7.466  19.540  -4.753  0.00  0.00    +0.000 C 
BRANCH  14  15
ATOM     15  C   UNL     1       6.644  19.634  -6.061  0.00  0.00    +0.000 C 
ATOM     16  C   UNL     1       7.473  20.081  -7.259  0.00  0.00    +0.000 C 
BRANCH  15  17
ATOM     17  O   UNL     1       6.030  18.388  -6.388  0.00  0.00    +0.000 OA
ATOM     18  H   UNL     1       6.557  18.035  -7.133  0.00  0.00    +0.000 HD
ENDBRANCH  15  17
ENDBRANCH  14  15
ENDBRANCH   1  14
TORSDOF 7
ENDMDL
MODEL 7
REMARK VINA RESULT:    -4.216      3.064      5.485
REMARK INTER + INTRA:          -6.221
REMARK INTER:                  -5.586
REMARK INTRA:                  -0.634
REMARK UNBOUND:                -0.526
REMARK  Name = 
REMARK  10 active torsions:
REMARK  status: ('A' for Active; 'I' for Inactive)
REMARK    1  A    between atoms: C_1  and  C_2
REMARK    2  A    between atoms: C_5  and  N_8
REMARK    3  A    between atoms: N_8  and  C_9
REMARK    4  A    between atoms: N_8  and  C_13
REMARK    5  A    between atoms: C_9  and  C_10
REMARK    6  A    between atoms: C_10  and  C_11
REMARK    7  A    between atoms: C_10  and  O_12
REMARK    8  A    between atoms: C_13  and  C_14
REMARK    9  A    between atoms: C_14  and  C_15
REMARK   10  A    between atoms: C_14  and  O_16
REMARK                            x       y       z     vdW  Elec       q    Type
REMARK                         _______ _______ _______ _____ _____    ______ ____
ROOT
ATOM      1  N   UNL     1       2.208  17.304  -1.460  0.00  0.00    +0.000 N 
ENDROOT
BRANCH   1   6
ATOM      2  C   UNL     1       6.707  18.973  -4.670  0.00  0.00    +0.000 C 
ATOM      3  C   UNL     1       5.529  18.529  -3.858  0.00  0.00    +0.000 A 
ATOM      4  C   UNL     1       4.421  19.354  -3.695  0.00  0.00    +0.000 A 
ATOM      5  C   UNL     1       3.333  18.945  -2.907  0.00  0.00    +0.000 A 
ATOM      6  C   UNL     1       3.305  17.713  -2.228  0.00  0.00    +0.000 A 
ATOM      7  C   UNL     1       4.441  16.904  -2.417  0.00  0.00    +0.000 A 
ATOM      8  C   UNL     1       5.535  17.300  -3.204  0.00  0.00    +0.000 A 
ENDBRANCH   1   6
BRANCH   1   9
ATOM      9  C   UNL     1       1.116  18.259  -1.155  0.00  0.00    +0.000 C 
BRANCH   9  10
ATOM     10  C   UNL     1      -0.109  18.086  -2.086  0.00  0.00    +0.000 C 
ATOM     11  C   UNL     1      -0.622  19.438  -2.569  0.00  0.00    +0.000 C 
BRANCH  10  12
ATOM     12  O   UNL     1       0.227  17.302  -3.239  0.00  0.00    +0.000 OA
ATOM     13  H   UNL     1       1.147  17.005  -3.144  0.00  0.00    +0.000 HD
ENDBRANCH  10  12
ENDBRANCH   9  10
ENDBRANCH   1   9
BRANCH   1  14
ATOM     14  C   UNL     1       2.311  16.153  -0.526  0.00  0.00    +0.000 C 
BRANCH  14  15
ATOM     15  C   UNL     1       1.587  14.896  -1.065  0.00  0.00    +0.000 C 
ATOM     16  C   UNL     1       0.105  14.859  -0.710  0.00  0.00    +0.000 C 
BRANCH  15  17
ATOM     17  O   UNL     1       1.704  14.788  -2.483  0.00  0.00    +0.000 OA
ATOM     18  H   UNL     1       0.988  15.351  -2.840  0.00  0.00    +0.000 HD
ENDBRANCH  15  17
ENDBRANCH  14  15
ENDBRANCH   1  14
TORSDOF 7
ENDMDL
MODEL 8
REMARK VINA RESULT:    -4.203      4.066      6.290
REMARK INTER + INTRA:          -6.203
REMARK INTER:                  -5.690
REMARK INTRA:                  -0.513
REMARK UNBOUND:                -0.526
REMARK  Name = 
REMARK  10 active torsions:
REMARK  status: ('A' for Active; 'I' for Inactive)
REMARK    1  A    between atoms: C_1  and  C_2
REMARK    2  A    between atoms: C_5  and  N_8
REMARK    3  A    between atoms: N_8  and  C_9
REMARK    4  A    between atoms: N_8  and  C_13
REMARK    5  A    between atoms: C_9  and  C_10
REMARK    6  A    between atoms: C_10  and  C_11
REMARK    7  A    between atoms: C_10  and  O_12
REMARK    8  A    between atoms: C_13  and  C_14
REMARK    9  A    between atoms: C_14  and  C_15
REMARK   10  A    between atoms: C_14  and  O_16
REMARK                            x       y       z     vdW  Elec       q    Type
REMARK                         _______ _______ _______ _____ _____    ______ ____
ROOT
ATOM      1  N   UNL     1       4.199  15.152   4.468  0.00  0.00    +0.000 N 
ENDROOT
BRANCH   1   6
ATOM      2  C   UNL     1       8.348  19.145   4.051  0.00  0.00    +0.000 C 
ATOM      3  C   UNL     1       7.282  18.097   4.140  0.00  0.00    +0.000 A 
ATOM      4  C   UNL     1       6.080  18.239   3.454  0.00  0.00    +0.000 A 
ATOM      5  C   UNL     1       5.072  17.268   3.565  0.00  0.00    +0.000 A 
ATOM      6  C   UNL     1       5.201  16.127   4.377  0.00  0.00    +0.000 A 
ATOM      7  C   UNL     1       6.429  16.014   5.055  0.00  0.00    +0.000 A 
ATOM      8  C   UNL     1       7.446  16.977   4.950  0.00  0.00    +0.000 A 
ENDBRANCH   1   6
BRANCH   1   9
ATOM      9  C   UNL     1       3.122  15.285   5.478  0.00  0.00    +0.000 C 
BRANCH   9  10
ATOM     10  C   UNL     1       3.072  14.092   6.463  0.00  0.00    +0.000 C 
ATOM     11  C   UNL     1       3.809  14.420   7.756  0.00  0.00    +0.000 C 
BRANCH  10  12
ATOM     12  O   UNL     1       1.718  13.756   6.796  0.00  0.00    +0.000 OA
ATOM     13  H   UNL     1       1.684  13.546   7.745  0.00  0.00    +0.000 HD
ENDBRANCH  10  12
ENDBRANCH   9  10
ENDBRANCH   1   9
BRANCH   1  14
ATOM     14  C   UNL     1       4.425  13.770   3.974  0.00  0.00    +0.000 C 
BRANCH  14  15
ATOM     15  C   UNL     1       4.541  13.712   2.432  0.00  0.00    +0.000 C 
ATOM     16  C   UNL     1       5.959  13.950   1.928  0.00  0.00    +0.000 C 
BRANCH  15  17
ATOM     17  O   UNL     1       4.094  12.459   1.916  0.00  0.00    +0.000 OA
ATOM     18  H   UNL     1       4.408  12.440   0.990  0.00  0.00    +0.000 HD
ENDBRANCH  15  17
ENDBRANCH  14  15
ENDBRANCH   1  14
TORSDOF 7
ENDMDL
