MODEL 1
REMARK VINA RESULT:    -5.501      0.000      0.000
REMARK INTER + INTRA:          -6.036
REMARK INTER:                  -5.983
REMARK INTRA:                  -0.053
REMARK UNBOUND:                -0.053
REMARK  Name = 
REMARK  3 active torsions:
REMARK  status: ('A' for Active; 'I' for Inactive)
REMARK    1  A    between atoms: C_1  and  O_2
REMARK    2  A    between atoms: O_2  and  C_3
REMARK    3  A    between atoms: C_8  and  O_9
REMARK                            x       y       z     vdW  Elec       q    Type
REMARK                         _______ _______ _______ _____ _____    ______ ____
ROOT
ATOM      1  C   UNL     1       7.338   8.731  -0.751  0.00  0.00    +0.000 A 
ATOM      2  C   UNL     1       5.949   8.615  -0.769  0.00  0.00    +0.000 A 
ATOM      3  C   UNL     1       5.160   9.539  -0.072  0.00  0.00    +0.000 A 
ATOM      4  C   UNL     1       5.755  10.578   0.645  0.00  0.00    +0.000 A 
ATOM      5  C   UNL     1       7.142  10.701   0.668  0.00  0.00    +0.000 A 
ATOM      6  C   UNL     1       7.917   9.781  -0.026  0.00  0.00    +0.000 A 
ENDROOT
BRANCH   1   8
ATOM      7  C   UNL     1       8.311   6.568  -0.899  0.00  0.00    +0.000 C 
ATOM      8  O   UNL     1       8.230   7.903  -1.384  0.00  0.00    +0.000 OA
ENDBRANCH   1   8
BRANCH   6   9
ATOM      9  O   UNL     1       9.278   9.922   0.011  0.00  0.00    +0.000 OA
ATOM     10  H   UNL     1       9.477  10.593  -0.669  0.00  0.00    +0.000 HD
ENDBRANCH   6   9
TORSDOF 2
ENDMDL
MODEL 2
REMARK VINA RESULT:    -5.399      1.391      3.007
REMARK INTER + INTRA:          -5.926
REMARK INTER:                  -5.890
REMARK INTRA:                  -0.036
REMARK UNBOUND:                -0.053
REMARK  Name = 
REMARK  3 active torsions:
REMARK  status: ('A' for Active; 'I' for Inactive)
REMARK    1  A    between atoms: C_1  and  O_2
REMARK    2  A    between atoms: O_2  and  C_3
REMARK    3  A    between atoms: C_8  and  O_9
REMARK                            x       y       z     vdW  Elec       q    Type
REMARK                         _______ _______ _______ _____ _____    ______ ____
ROOT
ATOM      1  C   UNL     1       6.913   9.712   0.021  0.00  0.00    +0.000 A 
ATOM      2  C   UNL     1       5.899   8.823  -0.334  0.00  0.00    +0.000 A 
ATOM      3  C   UNL     1       6.201   7.683  -1.090  0.00  0.00    +0.000 A 
ATOM      4  C   UNL     1       7.513   7.428  -1.493  0.00  0.00    +0.000 A 
ATOM      5  C   UNL     1       8.531   8.310  -1.141  0.00  0.00    +0.000 A 
ATOM      6  C   UNL     1       8.223   9.439  -0.392  0.00  0.00    +0.000 A 
ENDROOT
BRANCH   1   8
ATOM      7  C   UNL     1       6.605  10.704   2.158  0.00  0.00    +0.000 C 
ATOM      8  O   UNL     1       6.764  10.862   0.753  0.00  0.00    +0.000 OA
ENDBRANCH   1   8
BRANCH   6   9
ATOM      9  O   UNL     1       9.242  10.292  -0.059  0.00  0.00    +0.000 OA
ATOM     10  H   UNL     1       9.007  10.625   0.828  0.00  0.00    +0.000 HD
ENDBRANCH   6   9
TORSDOF 2
ENDMDL
MODEL 3
REMARK VINA RESULT:    -5.380      1.920      3.701
REMARK INTER + INTRA:          -5.904
REMARK INTER:                  -5.945
REMARK INTRA:                   0.041
REMARK UNBOUND:                -0.053
REMARK  Name = 
REMARK  3 active torsions:
REMARK  status: ('A' for Active; 'I' for Inactive)
REMARK    1  A    between atoms: C_1  and  O_2
REMARK    2  A    between atoms: O_2  and  C_3
REMARK    3  A    between atoms: C_8  and  O_9
REMARK                            x       y       z     vdW  Elec       q    Type
REMARK                         _______ _______ _______ _____ _____    ______ ____
ROOT
ATOM      1  C   UNL     1       7.221  10.061   0.111  0.00  0.00    +0.000 A 
ATOM      2  C   UNL     1       8.531   9.926  -0.345  0.00  0.00    +0.000 A 
ATOM      3  C   UNL     1       8.859   8.901  -1.241  0.00  0.00    +0.000 A 
ATOM      4  C   UNL     1       7.880   8.009  -1.684  0.00  0.00    +0.000 A 
ATOM      5  C   UNL     1       6.568   8.137  -1.234  0.00  0.00    +0.000 A 
ATOM      6  C   UNL     1       6.253   9.157  -0.345  0.00  0.00    +0.000 A 
ENDROOT
BRANCH   1   8
ATOM      7  C   UNL     1       6.834  10.691   2.369  0.00  0.00    +0.000 C 
ATOM      8  O   UNL     1       6.760  11.012   0.985  0.00  0.00    +0.000 OA
ENDBRANCH   1   8
BRANCH   6   9
ATOM      9  O   UNL     1       4.957   9.263   0.084  0.00  0.00    +0.000 OA
ATOM     10  H   UNL     1       4.802   8.455   0.609  0.00  0.00    +0.000 HD
ENDBRANCH   6   9
TORSDOF 2
ENDMDL
MODEL 4
REMARK VINA RESULT:    -5.150      1.014      2.253
REMARK INTER + INTRA:          -5.654
REMARK INTER:                  -5.786
REMARK INTRA:                   0.132
REMARK UNBOUND:                -0.053
REMARK  Name = 
REMARK  3 active torsions:
REMARK  status: ('A' for Active; 'I' for Inactive)
REMARK    1  A    between atoms: C_1  and  O_2
REMARK    2  A    between atoms: O_2  and  C_3
REMARK    3  A    between atoms: C_8  and  O_9
REMARK                            x       y       z     vdW  Elec       q    Type
REMARK                         _______ _______ _______ _____ _____    ______ ____
ROOT
ATOM      1  C   UNL     1       7.506   8.647  -0.747  0.00  0.00    +0.000 A 
ATOM      2  C   UNL     1       8.157   9.698  -0.101  0.00  0.00    +0.000 A 
ATOM      3  C   UNL     1       7.416  10.640   0.623  0.00  0.00    +0.000 A 
ATOM      4  C   UNL     1       6.026  10.536   0.704  0.00  0.00    +0.000 A 
ATOM      5  C   UNL     1       5.369   9.490   0.062  0.00  0.00    +0.000 A 
ATOM      6  C   UNL     1       6.112   8.560  -0.655  0.00  0.00    +0.000 A 
ENDROOT
BRANCH   1   8
ATOM      7  C   UNL     1       8.358   6.430  -0.819  0.00  0.00    +0.000 C 
ATOM      8  O   UNL     1       8.101   7.658  -1.489  0.00  0.00    +0.000 OA
ENDBRANCH   1   8
BRANCH   6   9
ATOM      9  O   UNL     1       5.443   7.540  -1.278  0.00  0.00    +0.000 OA
ATOM     10  H   UNL     1       4.904   7.979  -1.963  0.00  0.00    +0.000 HD
ENDBRANCH   6   9
TORSDOF 2
ENDMDL
MODEL 5
REMARK VINA RESULT:    -5.058      2.063      2.904
REMARK INTER + INTRA:          -5.555
REMARK INTER:                  -5.517
REMARK INTRA:                  -0.037
REMARK UNBOUND:                -0.053
REMARK  Name = 
REMARK  3 active torsions:
REMARK  status: ('A' for Active; 'I' for Inactive)
REMARK    1  A    between atoms: C_1  and  O_2
REMARK    2  A    between atoms: O_2  and  C_3
REMARK    3  A    between atoms: C_8  and  O_9
REMARK                            x       y       z     vdW  Elec       q    Type
REMARK                         _______ _______ _______ _____ _____    ______ ____
ROOT
ATOM      1  C   UNL     1       6.606   7.638  -0.989  0.00  0.00    +0.000 A 
ATOM      2  C   UNL     1       7.946   7.338  -1.230  0.00  0.00    +0.000 A 
ATOM      3  C   UNL     1       8.922   8.332  -1.088  0.00  0.00    +0.000 A 
ATOM      4  C   UNL     1       8.563   9.626  -0.706  0.00  0.00    +0.000 A 
ATOM      5  C   UNL     1       7.227   9.934  -0.463  0.00  0.00    +0.000 A 
ATOM      6  C   UNL     1       6.266   8.941  -0.607  0.00  0.00    +0.000 A 
ENDROOT
BRANCH   1   8
ATOM      7  C   UNL     1       5.862   5.430  -1.458  0.00  0.00    +0.000 C 
ATOM      8  O   UNL     1       5.550   6.768  -1.090  0.00  0.00    +0.000 OA
ENDBRANCH   1   8
BRANCH   6   9
ATOM      9  O   UNL     1       4.958   9.267  -0.364  0.00  0.00    +0.000 OA
ATOM     10  H   UNL     1       4.915   9.419   0.600  0.00  0.00    +0.000 HD
ENDBRANCH   6   9
TORSDOF 2
ENDMDL
MODEL 6
REMARK VINA RESULT:    -4.941      1.530      2.102
REMARK INTER + INTRA:          -5.427
REMARK INTER:                  -5.389
REMARK INTRA:                  -0.038
REMARK UNBOUND:                -0.053
REMARK  Name = 
REMARK  3 active torsions:
REMARK  status: ('A' for Active; 'I' for Inactive)
REMARK    1  A    between atoms: C_1  and  O_2
REMARK    2  A    between atoms: O_2  and  C_3
REMARK    3  A    between atoms: C_8  and  O_9
REMARK                            x       y       z     vdW  Elec       q    Type
REMARK                         _______ _______ _______ _____ _____    ______ ____
ROOT
ATOM      1  C   UNL     1       7.160   7.410  -0.860  0.00  0.00    +0.000 A 
ATOM      2  C   UNL     1       6.079   8.215  -0.503  0.00  0.00    +0.000 A 
ATOM      3  C   UNL     1       6.262   9.590  -0.315  0.00  0.00    +0.000 A 
ATOM      4  C   UNL     1       7.523  10.166  -0.482  0.00  0.00    +0.000 A 
ATOM      5  C   UNL     1       8.608   9.369  -0.840  0.00  0.00    +0.000 A 
ATOM      6  C   UNL     1       8.417   8.005  -1.024  0.00  0.00    +0.000 A 
ENDROOT
BRANCH   1   8
ATOM      7  C   UNL     1       5.844   5.476  -1.276  0.00  0.00    +0.000 C 
ATOM      8  O   UNL     1       7.127   6.056  -1.075  0.00  0.00    +0.000 OA
ENDBRANCH   1   8
BRANCH   6   9
ATOM      9  O   UNL     1       9.499   7.243  -1.375  0.00  0.00    +0.000 OA
ATOM     10  H   UNL     1      10.002   7.128  -0.546  0.00  0.00    +0.000 HD
ENDBRANCH   6   9
TORSDOF 2
ENDMDL
MODEL 7
REMARK VINA RESULT:    -4.920      9.418      9.905
REMARK INTER + INTRA:          -5.404
REMARK INTER:                  -5.357
REMARK INTRA:                  -0.046
REMARK UNBOUND:                -0.053
REMARK  Name = 
REMARK  3 active torsions:
REMARK  status: ('A' for Active; 'I' for Inactive)
REMARK    1  A    between atoms: C_1  and  O_2
REMARK    2  A    between atoms: O_2  and  C_3
REMARK    3  A    between atoms: C_8  and  O_9
REMARK                            x       y       z     vdW  Elec       q    Type
REMARK                         _______ _______ _______ _____ _____    ______ ____
ROOT
ATOM      1  C   UNL     1      11.677   2.432   5.207  0.00  0.00    +0.000 A 
ATOM      2  C   UNL     1      11.332   2.928   6.464  0.00  0.00    +0.000 A 
ATOM      3  C   UNL     1      12.100   3.940   7.052  0.00  0.00    +0.000 A 
ATOM      4  C   UNL     1      13.214   4.459   6.389  0.00  0.00    +0.000 A 
ATOM      5  C   UNL     1      13.565   3.969   5.133  0.00  0.00    +0.000 A 
ATOM      6  C   UNL     1      12.797   2.965   4.557  0.00  0.00    +0.000 A 
ENDROOT
BRANCH   1   8
ATOM      7  C   UNL     1       9.600   1.541   4.472  0.00  0.00    +0.000 C 
ATOM      8  O   UNL     1      11.019   1.447   4.515  0.00  0.00    +0.000 OA
ENDBRANCH   1   8
BRANCH   6   9
ATOM      9  O   UNL     1      13.162   2.500   3.322  0.00  0.00    +0.000 OA
ATOM     10  H   UNL     1      13.823   3.142   3.001  0.00  0.00    +0.000 HD
ENDBRANCH   6   9
TORSDOF 2
ENDMDL
MODEL 8
REMARK VINA RESULT:    -4.831      9.956     11.199
REMARK INTER + INTRA:          -5.307
REMARK INTER:                  -5.268
REMARK INTRA:                  -0.039
REMARK UNBOUND:                -0.053
REMARK  Name = 
REMARK  3 active torsions:
REMARK  status: ('A' for Active; 'I' for Inactive)
REMARK    1  A    between atoms: C_1  and  O_2
REMARK    2  A    between atoms: O_2  and  C_3
REMARK    3  A    between atoms: C_8  and  O_9
REMARK                            x       y       z     vdW  Elec       q    Type
REMARK                         _______ _______ _______ _____ _____    ______ ____
ROOT
ATOM      1  C   UNL     1      14.137   3.162   6.719  0.00  0.00    +0.000 A 
ATOM      2  C   UNL     1      13.078   3.554   7.537  0.00  0.00    +0.000 A 
ATOM      3  C   UNL     1      11.852   3.921   6.966  0.00  0.00    +0.000 A 
ATOM      4  C   UNL     1      11.682   3.899   5.581  0.00  0.00    +0.000 A 
ATOM      5  C   UNL     1      12.735   3.509   4.757  0.00  0.00    +0.000 A 
ATOM      6  C   UNL     1      13.947   3.147   5.332  0.00  0.00    +0.000 A 
ENDROOT
BRANCH   1   8
ATOM      7  C   UNL     1      15.506   2.382   8.498  0.00  0.00    +0.000 C 
ATOM      8  O   UNL     1      15.386   2.780   7.138  0.00  0.00    +0.000 OA
ENDBRANCH   1   8
BRANCH   6   9
ATOM      9  O   UNL     1      14.968   2.767   4.502  0.00  0.00    +0.000 OA
ATOM     10  H   UNL     1      14.818   1.816   4.342  0.00  0.00    +0.000 HD
ENDBRANCH   6   9
TORSDOF 2
ENDMDL
MODEL 9
REMARK VINA RESULT:    -4.689      9.599     10.870
REMARK INTER + INTRA:          -5.153
REMARK INTER:                  -5.105
REMARK INTRA:                  -0.048
REMARK UNBOUND:                -0.053
REMARK  Name = 
REMARK  3 active torsions:
REMARK  status: ('A' for Active; 'I' for Inactive)
REMARK    1  A    between atoms: C_1  and  O_2
REMARK    2  A    between atoms: O_2  and  C_3
REMARK    3  A    between atoms: C_8  and  O_9
REMARK                            x       y       z     vdW  Elec       q    Type
REMARK                         _______ _______ _______ _____ _____    ______ ____
ROOT
ATOM      1  C   UNL     1      12.175   3.036   6.947  0.00  0.00    +0.000 A 
ATOM      2  C   UNL     1      13.523   3.391   6.960  0.00  0.00    +0.000 A 
ATOM      3  C   UNL     1      14.222   3.529   5.754  0.00  0.00    +0.000 A 
ATOM      4  C   UNL     1      13.578   3.313   4.534  0.00  0.00    +0.000 A 
ATOM      5  C   UNL     1      12.231   2.958   4.514  0.00  0.00    +0.000 A 
ATOM      6  C   UNL     1      11.546   2.823   5.715  0.00  0.00    +0.000 A 
ENDROOT
BRANCH   1   8
ATOM      7  C   UNL     1      11.392   3.906   9.016  0.00  0.00    +0.000 C 
ATOM      8  O   UNL     1      11.371   2.865   8.046  0.00  0.00    +0.000 OA
ENDBRANCH   1   8
BRANCH   6   9
ATOM      9  O   UNL     1      10.223   2.474   5.668  0.00  0.00    +0.000 OA
ATOM     10  H   UNL     1       9.832   3.069   5.001  0.00  0.00    +0.000 HD
ENDBRANCH   6   9
TORSDOF 2
ENDMDL
