MODEL 1
REMARK VINA RESULT:    -4.776      0.000      0.000
REMARK INTER + INTRA:          -7.059
REMARK INTER:                  -6.452
REMARK INTRA:                  -0.608
REMARK UNBOUND:                -0.608
REMARK  Name = 
REMARK  10 active torsions:
REMARK  status: ('A' for Active; 'I' for Inactive)
REMARK    1  A    between atoms: C_1  and  C_2
REMARK    2  A    between atoms: C_5  and  N_8
REMARK    3  A    between atoms: N_8  and  C_9
REMARK    4  A    between atoms: N_8  and  C_13
REMARK    5  A    between atoms: C_9  and  C_10
REMARK    6  A    between atoms: C_10  and  C_11
REMARK    7  A    between atoms: C_10  and  O_12
REMARK    8  A    between atoms: C_13  and  C_14
REMARK    9  A    between atoms: C_14  and  C_15
REMARK   10  A    between atoms: C_14  and  O_16
REMARK                            x       y       z     vdW  Elec       q    Type
REMARK                         _______ _______ _______ _____ _____    ______ ____
ROOT
ATOM      1  N   UNL     1       6.650  14.586   1.461  0.00  0.00    +0.000 N 
ENDROOT
BRANCH   1   6
ATOM      2  C   UNL     1       2.865  16.636   5.308  0.00  0.00    +0.000 C 
ATOM      3  C   UNL     1       3.866  16.107   4.327  0.00  0.00    +0.000 A 
ATOM      4  C   UNL     1       4.487  16.954   3.415  0.00  0.00    +0.000 A 
ATOM      5  C   UNL     1       5.402  16.448   2.477  0.00  0.00    +0.000 A 
ATOM      6  C   UNL     1       5.722  15.081   2.386  0.00  0.00    +0.000 A 
ATOM      7  C   UNL     1       5.077  14.255   3.325  0.00  0.00    +0.000 A 
ATOM      8  C   UNL     1       4.162  14.749   4.270  0.00  0.00    +0.000 A 
ENDBRANCH   1   6
BRANCH   1   9
ATOM      9  C   UNL     1       7.590  13.509   1.854  0.00  0.00    +0.000 C 
BRANCH   9  10
ATOM     10  C   UNL     1       8.733  14.013   2.768  0.00  0.00    +0.000 C 
ATOM     11  C   UNL     1       8.668  13.350   4.139  0.00  0.00    +0.000 C 
BRANCH  10  12
ATOM     12  O   UNL     1      10.016  13.724   2.195  0.00  0.00    +0.000 OA
ATOM     13  H   UNL     1      10.053  12.771   2.006  0.00  0.00    +0.000 HD
ENDBRANCH  10  12
ENDBRANCH   9  10
ENDBRANCH   1   9
BRANCH   1  14
ATOM     14  C   UNL     1       7.087  15.402   0.299  0.00  0.00    +0.000 C 
BRANCH  14  15
ATOM     15  C   UNL     1       6.251  15.106  -0.969  0.00  0.00    +0.000 C 
ATOM     16  C   UNL     1       5.216  16.184  -1.270  0.00  0.00    +0.000 C 
BRANCH  15  17
ATOM     17  O   UNL     1       7.078  14.954  -2.122  0.00  0.00    +0.000 OA
ATOM     18  H   UNL     1       7.514  15.822  -2.237  0.00  0.00    +0.000 HD
ENDBRANCH  15  17
ENDBRANCH  14  15
ENDBRANCH   1  14
TORSDOF 7
ENDMDL
MODEL 2
REMARK VINA RESULT:    -4.706      2.991      6.026
REMARK INTER + INTRA:          -6.964
REMARK INTER:                  -6.490
REMARK INTRA:                  -0.474
REMARK UNBOUND:                -0.608
REMARK  Name = 
REMARK  10 active torsions:
REMARK  status: ('A' for Active; 'I' for Inactive)
REMARK    1  A    between atoms: C_1  and  C_2
REMARK    2  A    between atoms: C_5  and  N_8
REMARK    3  A    between atoms: N_8  and  C_9
REMARK    4  A    between atoms: N_8  and  C_13
REMARK    5  A    between atoms: C_9  and  C_10
REMARK    6  A    between atoms: C_10  and  C_11
REMARK    7  A    between atoms: C_10  and  O_12
REMARK    8  A    between atoms: C_13  and  C_14
REMARK    9  A    between atoms: C_14  and  C_15
REMARK   10  A    between atoms: C_14  and  O_16
REMARK                            x       y       z     vdW  Elec       q    Type
REMARK                         _______ _______ _______ _____ _____    ______ ____
ROOT
ATOM      1  N   UNL     1       6.092  16.647   0.029  0.00  0.00    +0.000 N 
ENDROOT
BRANCH   1   6
ATOM      2  C   UNL     1       7.578  20.108  -4.346  0.00  0.00    +0.000 C 
ATOM      3  C   UNL     1       7.215  19.200  -3.211  0.00  0.00    +0.000 A 
ATOM      4  C   UNL     1       6.610  17.970  -3.446  0.00  0.00    +0.000 A 
ATOM      5  C   UNL     1       6.244  17.136  -2.377  0.00  0.00    +0.000 A 
ATOM      6  C   UNL     1       6.441  17.493  -1.031  0.00  0.00    +0.000 A 
ATOM      7  C   UNL     1       7.057  18.742  -0.831  0.00  0.00    +0.000 A 
ATOM      8  C   UNL     1       7.430  19.585  -1.891  0.00  0.00    +0.000 A 
ENDBRANCH   1   6
BRANCH   1   9
ATOM      9  C   UNL     1       6.104  17.157   1.422  0.00  0.00    +0.000 C 
BRANCH   9  10
ATOM     10  C   UNL     1       4.681  17.384   1.990  0.00  0.00    +0.000 C 
ATOM     11  C   UNL     1       4.662  17.196   3.502  0.00  0.00    +0.000 C 
BRANCH  10  12
ATOM     12  O   UNL     1       4.216  18.710   1.701  0.00  0.00    +0.000 OA
ATOM     13  H   UNL     1       3.435  18.881   2.252  0.00  0.00    +0.000 HD
ENDBRANCH  10  12
ENDBRANCH   9  10
ENDBRANCH   1   9
BRANCH   1  14
ATOM     14  C   UNL     1       6.202  15.171  -0.096  0.00  0.00    +0.000 C 
BRANCH  14  15
ATOM     15  C   UNL     1       7.654  14.675   0.104  0.00  0.00    +0.000 C 
ATOM     16  C   UNL     1       7.792  13.664   1.236  0.00  0.00    +0.000 C 
BRANCH  15  17
ATOM     17  O   UNL     1       8.177  14.082  -1.083  0.00  0.00    +0.000 OA
ATOM     18  H   UNL     1       8.902  13.500  -0.778  0.00  0.00    +0.000 HD
ENDBRANCH  15  17
ENDBRANCH  14  15
ENDBRANCH   1  14
TORSDOF 7
ENDMDL
MODEL 3
REMARK VINA RESULT:    -4.645      3.231      6.070
REMARK INTER + INTRA:          -6.882
REMARK INTER:                  -6.403
REMARK INTRA:                  -0.478
REMARK UNBOUND:                -0.608
REMARK  Name = 
REMARK  10 active torsions:
REMARK  status: ('A' for Active; 'I' for Inactive)
REMARK    1  A    between atoms: C_1  and  C_2
REMARK    2  A    between atoms: C_5  and  N_8
REMARK    3  A    between atoms: N_8  and  C_9
REMARK    4  A    between atoms: N_8  and  C_13
REMARK    5  A    between atoms: C_9  and  C_10
REMARK    6  A    between atoms: C_10  and  C_11
REMARK    7  A    between atoms: C_10  and  O_12
REMARK    8  A    between atoms: C_13  and  C_14
REMARK    9  A    between atoms: C_14  and  C_15
REMARK   10  A    between atoms: C_14  and  O_16
REMARK                            x       y       z     vdW  Elec       q    Type
REMARK                         _______ _______ _______ _____ _____    ______ ____
ROOT
ATOM      1  N   UNL     1       6.652  17.147  -0.133  0.00  0.00    +0.000 N 
ENDROOT
BRANCH   1   6
ATOM      2  C   UNL     1       6.951  20.461  -4.850  0.00  0.00    +0.000 C 
ATOM      3  C   UNL     1       6.898  19.594  -3.629  0.00  0.00    +0.000 A 
ATOM      4  C   UNL     1       6.495  18.266  -3.713  0.00  0.00    +0.000 A 
ATOM      5  C   UNL     1       6.418  17.467  -2.561  0.00  0.00    +0.000 A 
ATOM      6  C   UNL     1       6.713  17.955  -1.275  0.00  0.00    +0.000 A 
ATOM      7  C   UNL     1       7.118  19.301  -1.228  0.00  0.00    +0.000 A 
ATOM      8  C   UNL     1       7.202  20.111  -2.373  0.00  0.00    +0.000 A 
ENDBRANCH   1   6
BRANCH   1   9
ATOM      9  C   UNL     1       6.418  15.689  -0.265  0.00  0.00    +0.000 C 
BRANCH   9  10
ATOM     10  C   UNL     1       7.697  14.851  -0.016  0.00  0.00    +0.000 C 
ATOM     11  C   UNL     1       7.465  13.815   1.078  0.00  0.00    +0.000 C 
BRANCH  10  12
ATOM     12  O   UNL     1       8.098  14.159  -1.206  0.00  0.00    +0.000 OA
ATOM     13  H   UNL     1       8.678  13.424  -0.946  0.00  0.00    +0.000 HD
ENDBRANCH  10  12
ENDBRANCH   9  10
ENDBRANCH   1   9
BRANCH   1  14
ATOM     14  C   UNL     1       6.306  17.717   1.195  0.00  0.00    +0.000 C 
BRANCH  14  15
ATOM     15  C   UNL     1       4.855  17.383   1.614  0.00  0.00    +0.000 C 
ATOM     16  C   UNL     1       4.767  16.679   2.963  0.00  0.00    +0.000 C 
BRANCH  15  17
ATOM     17  O   UNL     1       4.040  18.552   1.673  0.00  0.00    +0.000 OA
ATOM     18  H   UNL     1       4.160  18.899   2.580  0.00  0.00    +0.000 HD
ENDBRANCH  15  17
ENDBRANCH  14  15
ENDBRANCH   1  14
TORSDOF 7
ENDMDL
MODEL 4
REMARK VINA RESULT:    -4.644      3.842      6.880
REMARK INTER + INTRA:          -6.880
REMARK INTER:                  -6.349
REMARK INTRA:                  -0.531
REMARK UNBOUND:                -0.608
REMARK  Name = 
REMARK  10 active torsions:
REMARK  status: ('A' for Active; 'I' for Inactive)
REMARK    1  A    between atoms: C_1  and  C_2
REMARK    2  A    between atoms: C_5  and  N_8
REMARK    3  A    between atoms: N_8  and  C_9
REMARK    4  A    between atoms: N_8  and  C_13
REMARK    5  A    between atoms: C_9  and  C_10
REMARK    6  A    between atoms: C_10  and  C_11
REMARK    7  A    between atoms: C_10  and  O_12
REMARK    8  A    between atoms: C_13  and  C_14
REMARK    9  A    between atoms: C_14  and  C_15
REMARK   10  A    between atoms: C_14  and  O_16
REMARK                            x       y       z     vdW  Elec       q    Type
REMARK                         _______ _______ _______ _____ _____    ______ ____
ROOT
ATOM      1  N   UNL     1       6.814  18.053  -0.869  0.00  0.00    +0.000 N 
ENDROOT
BRANCH   1   6
ATOM      2  C   UNL     1       7.435  20.576  -6.025  0.00  0.00    +0.000 C 
ATOM      3  C   UNL     1       7.252  19.933  -4.684  0.00  0.00    +0.000 A 
ATOM      4  C   UNL     1       7.766  20.521  -3.534  0.00  0.00    +0.000 A 
ATOM      5  C   UNL     1       7.618  19.899  -2.283  0.00  0.00    +0.000 A 
ATOM      6  C   UNL     1       6.976  18.658  -2.122  0.00  0.00    +0.000 A 
ATOM      7  C   UNL     1       6.467  18.093  -3.306  0.00  0.00    +0.000 A 
ATOM      8  C   UNL     1       6.606  18.706  -4.562  0.00  0.00    +0.000 A 
ENDBRANCH   1   6
BRANCH   1   9
ATOM      9  C   UNL     1       5.875  16.917  -0.708  0.00  0.00    +0.000 C 
BRANCH   9  10
ATOM     10  C   UNL     1       6.600  15.562  -0.514  0.00  0.00    +0.000 C 
ATOM     11  C   UNL     1       5.734  14.590   0.280  0.00  0.00    +0.000 C 
BRANCH  10  12
ATOM     12  O   UNL     1       6.905  14.956  -1.777  0.00  0.00    +0.000 OA
ATOM     13  H   UNL     1       6.239  14.270  -1.951  0.00  0.00    +0.000 HD
ENDBRANCH  10  12
ENDBRANCH   9  10
ENDBRANCH   1   9
BRANCH   1  14
ATOM     14  C   UNL     1       7.131  18.784   0.384  0.00  0.00    +0.000 C 
BRANCH  14  15
ATOM     15  C   UNL     1       8.476  18.331   1.001  0.00  0.00    +0.000 C 
ATOM     16  C   UNL     1       8.305  17.423   2.213  0.00  0.00    +0.000 C 
BRANCH  15  17
ATOM     17  O   UNL     1       9.289  17.647   0.049  0.00  0.00    +0.000 OA
ATOM     18  H   UNL     1      10.199  17.966   0.217  0.00  0.00    +0.000 HD
ENDBRANCH  15  17
ENDBRANCH  14  15
ENDBRANCH   1  14
TORSDOF 7
ENDMDL
MODEL 5
REMARK VINA RESULT:    -4.581      2.440      4.850
REMARK INTER + INTRA:          -6.796
REMARK INTER:                  -6.237
REMARK INTRA:                  -0.559
REMARK UNBOUND:                -0.608
REMARK  Name = 
REMARK  10 active torsions:
REMARK  status: ('A' for Active; 'I' for Inactive)
REMARK    1  A    between atoms: C_1  and  C_2
REMARK    2  A    between atoms: C_5  and  N_8
REMARK    3  A    between atoms: N_8  and  C_9
REMARK    4  A    between atoms: N_8  and  C_13
REMARK    5  A    between atoms: C_9  and  C_10
REMARK    6  A    between atoms: C_10  and  C_11
REMARK    7  A    between atoms: C_10  and  O_12
REMARK    8  A    between atoms: C_13  and  C_14
REMARK    9  A    between atoms: C_14  and  C_15
REMARK   10  A    between atoms: C_14  and  O_16
REMARK                            x       y       z     vdW  Elec       q    Type
REMARK                         _______ _______ _______ _____ _____    ______ ____
ROOT
ATOM      1  N   UNL     1       5.479  15.155   1.398  0.00  0.00    +0.000 N 
ENDROOT
BRANCH   1   6
ATOM      2  C   UNL     1       6.977  18.982  -2.655  0.00  0.00    +0.000 C 
ATOM      3  C   UNL     1       6.611  17.979  -1.605  0.00  0.00    +0.000 A 
ATOM      4  C   UNL     1       6.031  16.763  -1.949  0.00  0.00    +0.000 A 
ATOM      5  C   UNL     1       5.662  15.839  -0.958  0.00  0.00    +0.000 A 
ATOM      6  C   UNL     1       5.831  16.089   0.416  0.00  0.00    +0.000 A 
ATOM      7  C   UNL     1       6.422  17.327   0.727  0.00  0.00    +0.000 A 
ATOM      8  C   UNL     1       6.797  18.259  -0.254  0.00  0.00    +0.000 A 
ENDBRANCH   1   6
BRANCH   1   9
ATOM      9  C   UNL     1       4.868  15.608   2.671  0.00  0.00    +0.000 C 
BRANCH   9  10
ATOM     10  C   UNL     1       5.124  14.628   3.842  0.00  0.00    +0.000 C 
ATOM     11  C   UNL     1       5.938  15.296   4.944  0.00  0.00    +0.000 C 
BRANCH  10  12
ATOM     12  O   UNL     1       3.889  14.176   4.414  0.00  0.00    +0.000 OA
ATOM     13  H   UNL     1       3.957  14.257   5.380  0.00  0.00    +0.000 HD
ENDBRANCH  10  12
ENDBRANCH   9  10
ENDBRANCH   1   9
BRANCH   1  14
ATOM     14  C   UNL     1       6.129  13.820   1.458  0.00  0.00    +0.000 C 
BRANCH  14  15
ATOM     15  C   UNL     1       7.662  13.908   1.265  0.00  0.00    +0.000 C 
ATOM     16  C   UNL     1       8.446  13.541   2.519  0.00  0.00    +0.000 C 
BRANCH  15  17
ATOM     17  O   UNL     1       8.108  13.066   0.202  0.00  0.00    +0.000 OA
ATOM     18  H   UNL     1       9.084  13.082   0.261  0.00  0.00    +0.000 HD
ENDBRANCH  15  17
ENDBRANCH  14  15
ENDBRANCH   1  14
TORSDOF 7
ENDMDL
MODEL 6
REMARK VINA RESULT:    -4.573      4.423      7.444
REMARK INTER + INTRA:          -6.784
REMARK INTER:                  -6.269
REMARK INTRA:                  -0.516
REMARK UNBOUND:                -0.608
REMARK  Name = 
REMARK  10 active torsions:
REMARK  status: ('A' for Active; 'I' for Inactive)
REMARK    1  A    between atoms: C_1  and  C_2
REMARK    2  A    between atoms: C_5  and  N_8
REMARK    3  A    between atoms: N_8  and  C_9
REMARK    4  A    between atoms: N_8  and  C_13
REMARK    5  A    between atoms: C_9  and  C_10
REMARK    6  A    between atoms: C_10  and  C_11
REMARK    7  A    between atoms: C_10  and  O_12
REMARK    8  A    between atoms: C_13  and  C_14
REMARK    9  A    between atoms: C_14  and  C_15
REMARK   10  A    between atoms: C_14  and  O_16
REMARK                            x       y       z     vdW  Elec       q    Type
REMARK                         _______ _______ _______ _____ _____    ______ ____
ROOT
ATOM      1  N   UNL     1       6.592  18.086  -1.823  0.00  0.00    +0.000 N 
ENDROOT
BRANCH   1   6
ATOM      2  C   UNL     1       8.294  21.192  -6.382  0.00  0.00    +0.000 C 
ATOM      3  C   UNL     1       7.835  20.403  -5.194  0.00  0.00    +0.000 A 
ATOM      4  C   UNL     1       8.416  20.591  -3.944  0.00  0.00    +0.000 A 
ATOM      5  C   UNL     1       8.002  19.827  -2.840  0.00  0.00    +0.000 A 
ATOM      6  C   UNL     1       7.013  18.831  -2.932  0.00  0.00    +0.000 A 
ATOM      7  C   UNL     1       6.447  18.670  -4.210  0.00  0.00    +0.000 A 
ATOM      8  C   UNL     1       6.850  19.429  -5.321  0.00  0.00    +0.000 A 
ENDBRANCH   1   6
BRANCH   1   9
ATOM      9  C   UNL     1       7.190  18.335  -0.489  0.00  0.00    +0.000 C 
BRANCH   9  10
ATOM     10  C   UNL     1       6.287  19.203   0.421  0.00  0.00    +0.000 C 
ATOM     11  C   UNL     1       6.324  18.703   1.861  0.00  0.00    +0.000 C 
BRANCH  10  12
ATOM     12  O   UNL     1       6.713  20.572   0.415  0.00  0.00    +0.000 OA
ATOM     13  H   UNL     1       7.681  20.587   0.501  0.00  0.00    +0.000 HD
ENDBRANCH  10  12
ENDBRANCH   9  10
ENDBRANCH   1   9
BRANCH   1  14
ATOM     14  C   UNL     1       5.968  16.748  -1.987  0.00  0.00    +0.000 C 
BRANCH  14  15
ATOM     15  C   UNL     1       6.450  15.743  -0.914  0.00  0.00    +0.000 C 
ATOM     16  C   UNL     1       5.306  15.058  -0.176  0.00  0.00    +0.000 C 
BRANCH  15  17
ATOM     17  O   UNL     1       7.282  14.730  -1.477  0.00  0.00    +0.000 OA
ATOM     18  H   UNL     1       7.600  14.209  -0.712  0.00  0.00    +0.000 HD
ENDBRANCH  15  17
ENDBRANCH  14  15
ENDBRANCH   1  14
TORSDOF 7
ENDMDL
MODEL 7
REMARK VINA RESULT:    -4.563      0.560      3.653
REMARK INTER + INTRA:          -6.772
REMARK INTER:                  -6.172
REMARK INTRA:                  -0.600
REMARK UNBOUND:                -0.608
REMARK  Name = 
REMARK  10 active torsions:
REMARK  status: ('A' for Active; 'I' for Inactive)
REMARK    1  A    between atoms: C_1  and  C_2
REMARK    2  A    between atoms: C_5  and  N_8
REMARK    3  A    between atoms: N_8  and  C_9
REMARK    4  A    between atoms: N_8  and  C_13
REMARK    5  A    between atoms: C_9  and  C_10
REMARK    6  A    between atoms: C_10  and  C_11
REMARK    7  A    between atoms: C_10  and  O_12
REMARK    8  A    between atoms: C_13  and  C_14
REMARK    9  A    between atoms: C_14  and  C_15
REMARK   10  A    between atoms: C_14  and  O_16
REMARK                            x       y       z     vdW  Elec       q    Type
REMARK                         _______ _______ _______ _____ _____    ______ ____
ROOT
ATOM      1  N   UNL     1       6.884  15.469   1.558  0.00  0.00    +0.000 N 
ENDROOT
BRANCH   1   6
ATOM      2  C   UNL     1       2.820  16.752   5.453  0.00  0.00    +0.000 C 
ATOM      3  C   UNL     1       3.891  16.416   4.461  0.00  0.00    +0.000 A 
ATOM      4  C   UNL     1       4.670  17.414   3.884  0.00  0.00    +0.000 A 
ATOM      5  C   UNL     1       5.652  17.096   2.932  0.00  0.00    +0.000 A 
ATOM      6  C   UNL     1       5.890  15.781   2.493  0.00  0.00    +0.000 A 
ATOM      7  C   UNL     1       5.086  14.798   3.099  0.00  0.00    +0.000 A 
ATOM      8  C   UNL     1       4.102  15.101   4.054  0.00  0.00    +0.000 A 
ENDBRANCH   1   6
BRANCH   1   9
ATOM      9  C   UNL     1       6.873  16.108   0.220  0.00  0.00    +0.000 C 
BRANCH   9  10
ATOM     10  C   UNL     1       6.069  15.297  -0.826  0.00  0.00    +0.000 C 
ATOM     11  C   UNL     1       4.718  15.946  -1.098  0.00  0.00    +0.000 C 
BRANCH  10  12
ATOM     12  O   UNL     1       6.780  15.212  -2.069  0.00  0.00    +0.000 OA
ATOM     13  H   UNL     1       6.949  16.116  -2.381  0.00  0.00    +0.000 HD
ENDBRANCH  10  12
ENDBRANCH   9  10
ENDBRANCH   1   9
BRANCH   1  14
ATOM     14  C   UNL     1       7.637  14.191   1.633  0.00  0.00    +0.000 C 
BRANCH  14  15
ATOM     15  C   UNL     1       8.732  14.221   2.726  0.00  0.00    +0.000 C 
ATOM     16  C   UNL     1       8.399  13.351   3.933  0.00  0.00    +0.000 C 
BRANCH  15  17
ATOM     17  O   UNL     1       9.998  13.803   2.216  0.00  0.00    +0.000 OA
ATOM     18  H   UNL     1      10.539  14.618   2.187  0.00  0.00    +0.000 HD
ENDBRANCH  15  17
ENDBRANCH  14  15
ENDBRANCH   1  14
TORSDOF 7
ENDMDL
MODEL 8
REMARK VINA RESULT:    -4.529      2.860      5.294
REMARK INTER + INTRA:          -6.725
REMARK INTER:                  -5.972
REMARK INTRA:                  -0.753
REMARK UNBOUND:                -0.608
REMARK  Name = 
REMARK  10 active torsions:
REMARK  status: ('A' for Active; 'I' for Inactive)
REMARK    1  A    between atoms: C_1  and  C_2
REMARK    2  A    between atoms: C_5  and  N_8
REMARK    3  A    between atoms: N_8  and  C_9
REMARK    4  A    between atoms: N_8  and  C_13
REMARK    5  A    between atoms: C_9  and  C_10
REMARK    6  A    between atoms: C_10  and  C_11
REMARK    7  A    between atoms: C_10  and  O_12
REMARK    8  A    between atoms: C_13  and  C_14
REMARK    9  A    between atoms: C_14  and  C_15
REMARK   10  A    between atoms: C_14  and  O_16
REMARK                            x       y       z     vdW  Elec       q    Type
REMARK                         _______ _______ _______ _____ _____    ______ ____
ROOT
ATOM      1  N   UNL     1       6.886  16.182   1.284  0.00  0.00    +0.000 N 
ENDROOT
BRANCH   1   6
ATOM      2  C   UNL     1       8.493  21.321  -0.799  0.00  0.00    +0.000 C 
ATOM      3  C   UNL     1       8.075  19.978  -0.282  0.00  0.00    +0.000 A 
ATOM      4  C   UNL     1       6.732  19.677  -0.078  0.00  0.00    +0.000 A 
ATOM      5  C   UNL     1       6.348  18.428   0.435  0.00  0.00    +0.000 A 
ATOM      6  C   UNL     1       7.277  17.433   0.791  0.00  0.00    +0.000 A 
ATOM      7  C   UNL     1       8.625  17.771   0.570  0.00  0.00    +0.000 A 
ATOM      8  C   UNL     1       9.022  19.016   0.055  0.00  0.00    +0.000 A 
ENDBRANCH   1   6
BRANCH   1   9
ATOM      9  C   UNL     1       5.517  15.674   1.022  0.00  0.00    +0.000 C 
BRANCH   9  10
ATOM     10  C   UNL     1       5.397  14.949  -0.341  0.00  0.00    +0.000 C 
ATOM     11  C   UNL     1       4.454  15.698  -1.275  0.00  0.00    +0.000 C 
BRANCH  10  12
ATOM     12  O   UNL     1       6.675  14.850  -0.986  0.00  0.00    +0.000 OA
ATOM     13  H   UNL     1       7.335  14.615  -0.312  0.00  0.00    +0.000 HD
ENDBRANCH  10  12
ENDBRANCH   9  10
ENDBRANCH   1   9
BRANCH   1  14
ATOM     14  C   UNL     1       7.565  15.570   2.455  0.00  0.00    +0.000 C 
BRANCH  14  15
ATOM     15  C   UNL     1       8.320  14.273   2.081  0.00  0.00    +0.000 C 
ATOM     16  C   UNL     1       7.474  13.016   2.249  0.00  0.00    +0.000 C 
BRANCH  15  17
ATOM     17  O   UNL     1       8.795  14.309   0.736  0.00  0.00    +0.000 OA
ATOM     18  H   UNL     1       9.769  14.371   0.813  0.00  0.00    +0.000 HD
ENDBRANCH  15  17
ENDBRANCH  14  15
ENDBRANCH   1  14
TORSDOF 7
ENDMDL
MODEL 9
REMARK VINA RESULT:    -4.417      4.000      5.751
REMARK INTER + INTRA:          -6.574
REMARK INTER:                  -6.142
REMARK INTRA:                  -0.432
REMARK UNBOUND:                -0.608
REMARK  Name = 
REMARK  10 active torsions:
REMARK  status: ('A' for Active; 'I' for Inactive)
REMARK    1  A    between atoms: C_1  and  C_2
REMARK    2  A    between atoms: C_5  and  N_8
REMARK    3  A    between atoms: N_8  and  C_9
REMARK    4  A    between atoms: N_8  and  C_13
REMARK    5  A    between atoms: C_9  and  C_10
REMARK    6  A    between atoms: C_10  and  C_11
REMARK    7  A    between atoms: C_10  and  O_12
REMARK    8  A    between atoms: C_13  and  C_14
REMARK    9  A    between atoms: C_14  and  C_15
REMARK   10  A    between atoms: C_14  and  O_16
REMARK                            x       y       z     vdW  Elec       q    Type
REMARK                         _______ _______ _______ _____ _____    ______ ____
ROOT
ATOM      1  N   UNL     1       7.004  18.274  -1.608  0.00  0.00    +0.000 N 
ENDROOT
BRANCH   1   6
ATOM      2  C   UNL     1       7.522  18.987   4.098  0.00  0.00    +0.000 C 
ATOM      3  C   UNL     1       7.397  18.825   2.614  0.00  0.00    +0.000 A 
ATOM      4  C   UNL     1       6.213  19.147   1.958  0.00  0.00    +0.000 A 
ATOM      5  C   UNL     1       6.091  18.964   0.571  0.00  0.00    +0.000 A 
ATOM      6  C   UNL     1       7.126  18.435  -0.222  0.00  0.00    +0.000 A 
ATOM      7  C   UNL     1       8.308  18.123   0.474  0.00  0.00    +0.000 A 
ATOM      8  C   UNL     1       8.444  18.303   1.861  0.00  0.00    +0.000 A 
ENDBRANCH   1   6
BRANCH   1   9
ATOM      9  C   UNL     1       7.312  19.404  -2.517  0.00  0.00    +0.000 C 
BRANCH   9  10
ATOM     10  C   UNL     1       7.191  19.020  -4.012  0.00  0.00    +0.000 C 
ATOM     11  C   UNL     1       6.578  20.159  -4.819  0.00  0.00    +0.000 C 
BRANCH  10  12
ATOM     12  O   UNL     1       8.478  18.722  -4.572  0.00  0.00    +0.000 OA
ATOM     13  H   UNL     1       8.400  18.755  -5.540  0.00  0.00    +0.000 HD
ENDBRANCH  10  12
ENDBRANCH   9  10
ENDBRANCH   1   9
BRANCH   1  14
ATOM     14  C   UNL     1       6.118  17.231  -2.186  0.00  0.00    +0.000 C 
BRANCH  14  15
ATOM     15  C   UNL     1       6.257  15.875  -1.453  0.00  0.00    +0.000 C 
ATOM     16  C   UNL     1       4.916  15.235  -1.115  0.00  0.00    +0.000 C 
BRANCH  15  17
ATOM     17  O   UNL     1       7.014  14.937  -2.217  0.00  0.00    +0.000 OA
ATOM     18  H   UNL     1       7.762  15.453  -2.580  0.00  0.00    +0.000 HD
ENDBRANCH  15  17
ENDBRANCH  14  15
ENDBRANCH   1  14
TORSDOF 7
ENDMDL
