MODEL 1
REMARK VINA RESULT:    -5.337      0.000      0.000
REMARK INTER + INTRA:          -7.858
REMARK INTER:                  -7.209
REMARK INTRA:                  -0.649
REMARK UNBOUND:                -0.649
REMARK  Name = 
REMARK  10 active torsions:
REMARK  status: ('A' for Active; 'I' for Inactive)
REMARK    1  A    between atoms: C_1  and  C_2
REMARK    2  A    between atoms: C_5  and  N_8
REMARK    3  A    between atoms: N_8  and  C_9
REMARK    4  A    between atoms: N_8  and  C_13
REMARK    5  A    between atoms: C_9  and  C_10
REMARK    6  A    between atoms: C_10  and  C_11
REMARK    7  A    between atoms: C_10  and  O_12
REMARK    8  A    between atoms: C_13  and  C_14
REMARK    9  A    between atoms: C_14  and  C_15
REMARK   10  A    between atoms: C_14  and  O_16
REMARK                            x       y       z     vdW  Elec       q    Type
REMARK                         _______ _______ _______ _____ _____    ______ ____
ROOT
ATOM      1  N   UNL     1       2.897  14.405  -1.249  0.00  0.00    +0.000 N 
ENDROOT
BRANCH   1   6
ATOM      2  C   UNL     1      -1.181  17.943   0.795  0.00  0.00    +0.000 C 
ATOM      3  C   UNL     1      -0.108  17.045   0.260  0.00  0.00    +0.000 A 
ATOM      4  C   UNL     1      -0.091  16.672  -1.080  0.00  0.00    +0.000 A 
ATOM      5  C   UNL     1       0.900  15.805  -1.570  0.00  0.00    +0.000 A 
ATOM      6  C   UNL     1       1.901  15.253  -0.750  0.00  0.00    +0.000 A 
ATOM      7  C   UNL     1       1.854  15.654   0.598  0.00  0.00    +0.000 A 
ATOM      8  C   UNL     1       0.870  16.521   1.100  0.00  0.00    +0.000 A 
ENDBRANCH   1   6
BRANCH   1   9
ATOM      9  C   UNL     1       4.298  14.550  -0.785  0.00  0.00    +0.000 C 
BRANCH   9  10
ATOM     10  C   UNL     1       4.924  15.910  -1.182  0.00  0.00    +0.000 C 
ATOM     11  C   UNL     1       5.747  16.485  -0.036  0.00  0.00    +0.000 C 
BRANCH  10  12
ATOM     12  O   UNL     1       5.785  15.768  -2.320  0.00  0.00    +0.000 OA
ATOM     13  H   UNL     1       5.239  15.506  -3.080  0.00  0.00    +0.000 HD
ENDBRANCH  10  12
ENDBRANCH   9  10
ENDBRANCH   1   9
BRANCH   1  14
ATOM     14  C   UNL     1       2.741  13.723  -2.560  0.00  0.00    +0.000 C 
BRANCH  14  15
ATOM     15  C   UNL     1       3.980  12.871  -2.926  0.00  0.00    +0.000 C 
ATOM     16  C   UNL     1       3.637  11.421  -3.248  0.00  0.00    +0.000 C 
BRANCH  15  17
ATOM     17  O   UNL     1       4.684  13.416  -4.041  0.00  0.00    +0.000 OA
ATOM     18  H   UNL     1       4.211  14.244  -4.258  0.00  0.00    +0.000 HD
ENDBRANCH  15  17
ENDBRANCH  14  15
ENDBRANCH   1  14
TORSDOF 7
ENDMDL
MODEL 2
REMARK VINA RESULT:    -5.271     12.082     13.766
REMARK INTER + INTRA:          -7.768
REMARK INTER:                  -7.538
REMARK INTRA:                  -0.230
REMARK UNBOUND:                -0.649
REMARK  Name = 
REMARK  10 active torsions:
REMARK  status: ('A' for Active; 'I' for Inactive)
REMARK    1  A    between atoms: C_1  and  C_2
REMARK    2  A    between atoms: C_5  and  N_8
REMARK    3  A    between atoms: N_8  and  C_9
REMARK    4  A    between atoms: N_8  and  C_13
REMARK    5  A    between atoms: C_9  and  C_10
REMARK    6  A    between atoms: C_10  and  C_11
REMARK    7  A    between atoms: C_10  and  O_12
REMARK    8  A    between atoms: C_13  and  C_14
REMARK    9  A    between atoms: C_14  and  C_15
REMARK   10  A    between atoms: C_14  and  O_16
REMARK                            x       y       z     vdW  Elec       q    Type
REMARK                         _______ _______ _______ _____ _____    ______ ____
ROOT
ATOM      1  N   UNL     1      -1.155  15.870 -13.130  0.00  0.00    +0.000 N 
ENDROOT
BRANCH   1   6
ATOM      2  C   UNL     1      -3.403  11.466 -16.110  0.00  0.00    +0.000 C 
ATOM      3  C   UNL     1      -2.825  12.597 -15.315  0.00  0.00    +0.000 A 
ATOM      4  C   UNL     1      -3.618  13.665 -14.910  0.00  0.00    +0.000 A 
ATOM      5  C   UNL     1      -3.063  14.737 -14.192  0.00  0.00    +0.000 A 
ATOM      6  C   UNL     1      -1.697  14.808 -13.864  0.00  0.00    +0.000 A 
ATOM      7  C   UNL     1      -0.926  13.710 -14.287  0.00  0.00    +0.000 A 
ATOM      8  C   UNL     1      -1.468  12.631 -15.005  0.00  0.00    +0.000 A 
ENDBRANCH   1   6
BRANCH   1   9
ATOM      9  C   UNL     1      -0.239  16.835 -13.785  0.00  0.00    +0.000 C 
BRANCH   9  10
ATOM     10  C   UNL     1       1.179  16.256 -14.014  0.00  0.00    +0.000 C 
ATOM     11  C   UNL     1       1.718  16.660 -15.381  0.00  0.00    +0.000 C 
BRANCH  10  12
ATOM     12  O   UNL     1       2.095  16.729 -13.017  0.00  0.00    +0.000 OA
ATOM     13  H   UNL     1       2.348  15.975 -12.459  0.00  0.00    +0.000 HD
ENDBRANCH  10  12
ENDBRANCH   9  10
ENDBRANCH   1   9
BRANCH   1  14
ATOM     14  C   UNL     1      -1.035  15.801 -11.651  0.00  0.00    +0.000 C 
BRANCH  14  15
ATOM     15  C   UNL     1      -2.312  16.307 -10.937  0.00  0.00    +0.000 C 
ATOM     16  C   UNL     1      -2.407  15.854  -9.486  0.00  0.00    +0.000 C 
BRANCH  15  17
ATOM     17  O   UNL     1      -2.401  17.731 -10.962  0.00  0.00    +0.000 OA
ATOM     18  H   UNL     1      -3.271  17.937 -10.565  0.00  0.00    +0.000 HD
ENDBRANCH  15  17
ENDBRANCH  14  15
ENDBRANCH   1  14
TORSDOF 7
ENDMDL
MODEL 3
REMARK VINA RESULT:    -5.265     12.306     13.862
REMARK INTER + INTRA:          -7.761
REMARK INTER:                  -7.482
REMARK INTRA:                  -0.279
REMARK UNBOUND:                -0.649
REMARK  Name = 
REMARK  10 active torsions:
REMARK  status: ('A' for Active; 'I' for Inactive)
REMARK    1  A    between atoms: C_1  and  C_2
REMARK    2  A    between atoms: C_5  and  N_8
REMARK    3  A    between atoms: N_8  and  C_9
REMARK    4  A    between atoms: N_8  and  C_13
REMARK    5  A    between atoms: C_9  and  C_10
REMARK    6  A    between atoms: C_10  and  C_11
REMARK    7  A    between atoms: C_10  and  O_12
REMARK    8  A    between atoms: C_13  and  C_14
REMARK    9  A    between atoms: C_14  and  C_15
REMARK   10  A    between atoms: C_14  and  O_16
REMARK                            x       y       z     vdW  Elec       q    Type
REMARK                         _______ _______ _______ _____ _____    ______ ____
ROOT
ATOM      1  N   UNL     1      -0.718  15.736 -13.424  0.00  0.00    +0.000 N 
ENDROOT
BRANCH   1   6
ATOM      2  C   UNL     1      -4.000  11.611 -15.778  0.00  0.00    +0.000 C 
ATOM      3  C   UNL     1      -3.153  12.672 -15.145  0.00  0.00    +0.000 A 
ATOM      4  C   UNL     1      -3.699  13.897 -14.778  0.00  0.00    +0.000 A 
ATOM      5  C   UNL     1      -2.894  14.899 -14.212  0.00  0.00    +0.000 A 
ATOM      6  C   UNL     1      -1.511  14.739 -14.007  0.00  0.00    +0.000 A 
ATOM      7  C   UNL     1      -0.994  13.488 -14.388  0.00  0.00    +0.000 A 
ATOM      8  C   UNL     1      -1.788  12.476 -14.953  0.00  0.00    +0.000 A 
ENDBRANCH   1   6
BRANCH   1   9
ATOM      9  C   UNL     1      -0.546  15.783 -11.952  0.00  0.00    +0.000 C 
BRANCH   9  10
ATOM     10  C   UNL     1      -1.855  16.139 -11.206  0.00  0.00    +0.000 C 
ATOM     11  C   UNL     1      -1.780  15.717  -9.743  0.00  0.00    +0.000 C 
BRANCH  10  12
ATOM     12  O   UNL     1      -2.103  17.551 -11.249  0.00  0.00    +0.000 OA
ATOM     13  H   UNL     1      -2.953  17.721 -10.808  0.00  0.00    +0.000 HD
ENDBRANCH  10  12
ENDBRANCH   9  10
ENDBRANCH   1   9
BRANCH   1  14
ATOM     14  C   UNL     1      -0.459  17.020 -14.124  0.00  0.00    +0.000 C 
BRANCH  14  15
ATOM     15  C   UNL     1       1.039  17.211 -14.459  0.00  0.00    +0.000 C 
ATOM     16  C   UNL     1       1.722  15.925 -14.910  0.00  0.00    +0.000 C 
BRANCH  15  17
ATOM     17  O   UNL     1       1.231  18.193 -15.477  0.00  0.00    +0.000 OA
ATOM     18  H   UNL     1       1.038  17.728 -16.316  0.00  0.00    +0.000 HD
ENDBRANCH  15  17
ENDBRANCH  14  15
ENDBRANCH   1  14
TORSDOF 7
ENDMDL
MODEL 4
REMARK VINA RESULT:    -5.261     12.041     13.151
REMARK INTER + INTRA:          -7.755
REMARK INTER:                  -7.350
REMARK INTRA:                  -0.405
REMARK UNBOUND:                -0.649
REMARK  Name = 
REMARK  10 active torsions:
REMARK  status: ('A' for Active; 'I' for Inactive)
REMARK    1  A    between atoms: C_1  and  C_2
REMARK    2  A    between atoms: C_5  and  N_8
REMARK    3  A    between atoms: N_8  and  C_9
REMARK    4  A    between atoms: N_8  and  C_13
REMARK    5  A    between atoms: C_9  and  C_10
REMARK    6  A    between atoms: C_10  and  C_11
REMARK    7  A    between atoms: C_10  and  O_12
REMARK    8  A    between atoms: C_13  and  C_14
REMARK    9  A    between atoms: C_14  and  C_15
REMARK   10  A    between atoms: C_14  and  O_16
REMARK                            x       y       z     vdW  Elec       q    Type
REMARK                         _______ _______ _______ _____ _____    ______ ____
ROOT
ATOM      1  N   UNL     1      -0.925  15.455 -14.722  0.00  0.00    +0.000 N 
ENDROOT
BRANCH   1   6
ATOM      2  C   UNL     1      -2.686  16.131  -9.266  0.00  0.00    +0.000 C 
ATOM      3  C   UNL     1      -2.226  15.980 -10.684  0.00  0.00    +0.000 A 
ATOM      4  C   UNL     1      -3.135  15.999 -11.736  0.00  0.00    +0.000 A 
ATOM      5  C   UNL     1      -2.701  15.827 -13.061  0.00  0.00    +0.000 A 
ATOM      6  C   UNL     1      -1.354  15.606 -13.398  0.00  0.00    +0.000 A 
ATOM      7  C   UNL     1      -0.462  15.595 -12.309  0.00  0.00    +0.000 A 
ATOM      8  C   UNL     1      -0.882  15.768 -10.980  0.00  0.00    +0.000 A 
ENDBRANCH   1   6
BRANCH   1   9
ATOM      9  C   UNL     1      -0.445  16.631 -15.487  0.00  0.00    +0.000 C 
BRANCH   9  10
ATOM     10  C   UNL     1       0.921  17.158 -14.983  0.00  0.00    +0.000 C 
ATOM     11  C   UNL     1       1.990  16.075 -15.073  0.00  0.00    +0.000 C 
BRANCH  10  12
ATOM     12  O   UNL     1       1.359  18.280 -15.760  0.00  0.00    +0.000 OA
ATOM     13  H   UNL     1       1.223  18.068 -16.699  0.00  0.00    +0.000 HD
ENDBRANCH  10  12
ENDBRANCH   9  10
ENDBRANCH   1   9
BRANCH   1  14
ATOM     14  C   UNL     1      -1.389  14.316 -15.555  0.00  0.00    +0.000 C 
BRANCH  14  15
ATOM     15  C   UNL     1      -1.218  12.957 -14.834  0.00  0.00    +0.000 C 
ATOM     16  C   UNL     1      -2.349  11.978 -15.124  0.00  0.00    +0.000 C 
BRANCH  15  17
ATOM     17  O   UNL     1       0.013  12.326 -15.184  0.00  0.00    +0.000 OA
ATOM     18  H   UNL     1      -0.244  11.560 -15.736  0.00  0.00    +0.000 HD
ENDBRANCH  15  17
ENDBRANCH  14  15
ENDBRANCH   1  14
TORSDOF 7
ENDMDL
MODEL 5
REMARK VINA RESULT:    -5.189      0.789      3.146
REMARK INTER + INTRA:          -7.658
REMARK INTER:                  -7.177
REMARK INTRA:                  -0.481
REMARK UNBOUND:                -0.649
REMARK  Name = 
REMARK  10 active torsions:
REMARK  status: ('A' for Active; 'I' for Inactive)
REMARK    1  A    between atoms: C_1  and  C_2
REMARK    2  A    between atoms: C_5  and  N_8
REMARK    3  A    between atoms: N_8  and  C_9
REMARK    4  A    between atoms: N_8  and  C_13
REMARK    5  A    between atoms: C_9  and  C_10
REMARK    6  A    between atoms: C_10  and  C_11
REMARK    7  A    between atoms: C_10  and  O_12
REMARK    8  A    between atoms: C_13  and  C_14
REMARK    9  A    between atoms: C_14  and  C_15
REMARK   10  A    between atoms: C_14  and  O_16
REMARK                            x       y       z     vdW  Elec       q    Type
REMARK                         _______ _______ _______ _____ _____    ______ ____
ROOT
ATOM      1  N   UNL     1       3.104  14.393  -0.887  0.00  0.00    +0.000 N 
ENDROOT
BRANCH   1   6
ATOM      2  C   UNL     1      -1.272  17.859   0.585  0.00  0.00    +0.000 C 
ATOM      3  C   UNL     1      -0.123  16.979   0.197  0.00  0.00    +0.000 A 
ATOM      4  C   UNL     1      -0.014  16.474  -1.094  0.00  0.00    +0.000 A 
ATOM      5  C   UNL     1       1.049  15.626  -1.444  0.00  0.00    +0.000 A 
ATOM      6  C   UNL     1       2.036  15.224  -0.526  0.00  0.00    +0.000 A 
ATOM      7  C   UNL     1       1.896  15.755   0.769  0.00  0.00    +0.000 A 
ATOM      8  C   UNL     1       0.838  16.606   1.132  0.00  0.00    +0.000 A 
ENDBRANCH   1   6
BRANCH   1   9
ATOM      9  C   UNL     1       2.855  12.978  -1.254  0.00  0.00    +0.000 C 
BRANCH   9  10
ATOM     10  C   UNL     1       3.377  12.623  -2.667  0.00  0.00    +0.000 C 
ATOM     11  C   UNL     1       3.855  11.177  -2.725  0.00  0.00    +0.000 C 
BRANCH  10  12
ATOM     12  O   UNL     1       2.349  12.791  -3.653  0.00  0.00    +0.000 OA
ATOM     13  H   UNL     1       2.569  13.571  -4.189  0.00  0.00    +0.000 HD
ENDBRANCH  10  12
ENDBRANCH   9  10
ENDBRANCH   1   9
BRANCH   1  14
ATOM     14  C   UNL     1       4.491  14.689  -0.445  0.00  0.00    +0.000 C 
BRANCH  14  15
ATOM     15  C   UNL     1       5.038  15.994  -1.071  0.00  0.00    +0.000 C 
ATOM     16  C   UNL     1       5.935  16.783  -0.124  0.00  0.00    +0.000 C 
BRANCH  15  17
ATOM     17  O   UNL     1       5.774  15.738  -2.266  0.00  0.00    +0.000 OA
ATOM     18  H   UNL     1       6.200  14.870  -2.120  0.00  0.00    +0.000 HD
ENDBRANCH  15  17
ENDBRANCH  14  15
ENDBRANCH   1  14
TORSDOF 7
ENDMDL
MODEL 6
REMARK VINA RESULT:    -5.137     11.941     13.285
REMARK INTER + INTRA:          -7.588
REMARK INTER:                  -7.075
REMARK INTRA:                  -0.513
REMARK UNBOUND:                -0.649
REMARK  Name = 
REMARK  10 active torsions:
REMARK  status: ('A' for Active; 'I' for Inactive)
REMARK    1  A    between atoms: C_1  and  C_2
REMARK    2  A    between atoms: C_5  and  N_8
REMARK    3  A    between atoms: N_8  and  C_9
REMARK    4  A    between atoms: N_8  and  C_13
REMARK    5  A    between atoms: C_9  and  C_10
REMARK    6  A    between atoms: C_10  and  C_11
REMARK    7  A    between atoms: C_10  and  O_12
REMARK    8  A    between atoms: C_13  and  C_14
REMARK    9  A    between atoms: C_14  and  C_15
REMARK   10  A    between atoms: C_14  and  O_16
REMARK                            x       y       z     vdW  Elec       q    Type
REMARK                         _______ _______ _______ _____ _____    ______ ____
ROOT
ATOM      1  N   UNL     1      -0.878  15.863 -14.415  0.00  0.00    +0.000 N 
ENDROOT
BRANCH   1   6
ATOM      2  C   UNL     1      -2.875  15.871  -8.999  0.00  0.00    +0.000 C 
ATOM      3  C   UNL     1      -2.355  15.894 -10.404  0.00  0.00    +0.000 A 
ATOM      4  C   UNL     1      -3.226  15.942 -11.487  0.00  0.00    +0.000 A 
ATOM      5  C   UNL     1      -2.735  15.933 -12.802  0.00  0.00    +0.000 A 
ATOM      6  C   UNL     1      -1.363  15.852 -13.101  0.00  0.00    +0.000 A 
ATOM      7  C   UNL     1      -0.511  15.807 -11.982  0.00  0.00    +0.000 A 
ATOM      8  C   UNL     1      -0.990  15.818 -10.662  0.00  0.00    +0.000 A 
ENDBRANCH   1   6
BRANCH   1   9
ATOM      9  C   UNL     1      -1.131  14.708 -15.311  0.00  0.00    +0.000 C 
BRANCH   9  10
ATOM     10  C   UNL     1      -0.997  13.347 -14.586  0.00  0.00    +0.000 C 
ATOM     11  C   UNL     1      -2.147  12.417 -14.956  0.00  0.00    +0.000 C 
BRANCH  10  12
ATOM     12  O   UNL     1       0.231  12.695 -14.937  0.00  0.00    +0.000 OA
ATOM     13  H   UNL     1       0.016  11.816 -15.291  0.00  0.00    +0.000 HD
ENDBRANCH  10  12
ENDBRANCH   9  10
ENDBRANCH   1   9
BRANCH   1  14
ATOM     14  C   UNL     1       0.279  16.710 -14.801  0.00  0.00    +0.000 C 
BRANCH  14  15
ATOM     15  C   UNL     1       1.131  16.062 -15.920  0.00  0.00    +0.000 C 
ATOM     16  C   UNL     1       1.347  16.981 -17.117  0.00  0.00    +0.000 C 
BRANCH  15  17
ATOM     17  O   UNL     1       2.410  15.654 -15.439  0.00  0.00    +0.000 OA
ATOM     18  H   UNL     1       2.326  14.692 -15.280  0.00  0.00    +0.000 HD
ENDBRANCH  15  17
ENDBRANCH  14  15
ENDBRANCH   1  14
TORSDOF 7
ENDMDL
MODEL 7
REMARK VINA RESULT:    -5.087      2.444      4.568
REMARK INTER + INTRA:          -7.521
REMARK INTER:                  -7.046
REMARK INTRA:                  -0.474
REMARK UNBOUND:                -0.649
REMARK  Name = 
REMARK  10 active torsions:
REMARK  status: ('A' for Active; 'I' for Inactive)
REMARK    1  A    between atoms: C_1  and  C_2
REMARK    2  A    between atoms: C_5  and  N_8
REMARK    3  A    between atoms: N_8  and  C_9
REMARK    4  A    between atoms: N_8  and  C_13
REMARK    5  A    between atoms: C_9  and  C_10
REMARK    6  A    between atoms: C_10  and  C_11
REMARK    7  A    between atoms: C_10  and  O_12
REMARK    8  A    between atoms: C_13  and  C_14
REMARK    9  A    between atoms: C_14  and  C_15
REMARK   10  A    between atoms: C_14  and  O_16
REMARK                            x       y       z     vdW  Elec       q    Type
REMARK                         _______ _______ _______ _____ _____    ______ ____
ROOT
ATOM      1  N   UNL     1       2.903  14.438  -2.060  0.00  0.00    +0.000 N 
ENDROOT
BRANCH   1   6
ATOM      2  C   UNL     1       3.969  19.623  -4.365  0.00  0.00    +0.000 C 
ATOM      3  C   UNL     1       3.702  18.285  -3.745  0.00  0.00    +0.000 A 
ATOM      4  C   UNL     1       4.647  17.267  -3.808  0.00  0.00    +0.000 A 
ATOM      5  C   UNL     1       4.379  16.006  -3.251  0.00  0.00    +0.000 A 
ATOM      6  C   UNL     1       3.156  15.692  -2.630  0.00  0.00    +0.000 A 
ATOM      7  C   UNL     1       2.225  16.746  -2.583  0.00  0.00    +0.000 A 
ATOM      8  C   UNL     1       2.481  18.012  -3.134  0.00  0.00    +0.000 A 
ENDBRANCH   1   6
BRANCH   1   9
ATOM      9  C   UNL     1       2.716  13.251  -2.929  0.00  0.00    +0.000 C 
BRANCH   9  10
ATOM     10  C   UNL     1       4.017  12.433  -3.117  0.00  0.00    +0.000 C 
ATOM     11  C   UNL     1       3.885  11.048  -2.496  0.00  0.00    +0.000 C 
BRANCH  10  12
ATOM     12  O   UNL     1       4.325  12.269  -4.508  0.00  0.00    +0.000 OA
ATOM     13  H   UNL     1       3.672  11.660  -4.891  0.00  0.00    +0.000 HD
ENDBRANCH  10  12
ENDBRANCH   9  10
ENDBRANCH   1   9
BRANCH   1  14
ATOM     14  C   UNL     1       2.318  14.316  -0.700  0.00  0.00    +0.000 C 
BRANCH  14  15
ATOM     15  C   UNL     1       3.361  14.584   0.411  0.00  0.00    +0.000 C 
ATOM     16  C   UNL     1       2.735  14.783   1.786  0.00  0.00    +0.000 C 
BRANCH  15  17
ATOM     17  O   UNL     1       4.312  13.525   0.508  0.00  0.00    +0.000 OA
ATOM     18  H   UNL     1       5.104  13.851   0.034  0.00  0.00    +0.000 HD
ENDBRANCH  15  17
ENDBRANCH  14  15
ENDBRANCH   1  14
TORSDOF 7
ENDMDL
MODEL 8
REMARK VINA RESULT:    -5.053      2.557      3.662
REMARK INTER + INTRA:          -7.475
REMARK INTER:                  -6.922
REMARK INTRA:                  -0.553
REMARK UNBOUND:                -0.649
REMARK  Name = 
REMARK  10 active torsions:
REMARK  status: ('A' for Active; 'I' for Inactive)
REMARK    1  A    between atoms: C_1  and  C_2
REMARK    2  A    between atoms: C_5  and  N_8
REMARK    3  A    between atoms: N_8  and  C_9
REMARK    4  A    between atoms: N_8  and  C_13
REMARK    5  A    between atoms: C_9  and  C_10
REMARK    6  A    between atoms: C_10  and  C_11
REMARK    7  A    between atoms: C_10  and  O_12
REMARK    8  A    between atoms: C_13  and  C_14
REMARK    9  A    between atoms: C_14  and  C_15
REMARK   10  A    between atoms: C_14  and  O_16
REMARK                            x       y       z     vdW  Elec       q    Type
REMARK                         _______ _______ _______ _____ _____    ______ ____
ROOT
ATOM      1  N   UNL     1       3.284  14.432  -1.894  0.00  0.00    +0.000 N 
ENDROOT
BRANCH   1   6
ATOM      2  C   UNL     1       3.666  19.539  -4.557  0.00  0.00    +0.000 C 
ATOM      3  C   UNL     1       3.576  18.225  -3.845  0.00  0.00    +0.000 A 
ATOM      4  C   UNL     1       4.630  17.318  -3.883  0.00  0.00    +0.000 A 
ATOM      5  C   UNL     1       4.528  16.074  -3.238  0.00  0.00    +0.000 A 
ATOM      6  C   UNL     1       3.372  15.666  -2.550  0.00  0.00    +0.000 A 
ATOM      7  C   UNL     1       2.327  16.608  -2.531  0.00  0.00    +0.000 A 
ATOM      8  C   UNL     1       2.416  17.856  -3.170  0.00  0.00    +0.000 A 
ENDBRANCH   1   6
BRANCH   1   9
ATOM      9  C   UNL     1       4.078  14.186  -0.666  0.00  0.00    +0.000 C 
BRANCH   9  10
ATOM     10  C   UNL     1       3.273  14.444   0.631  0.00  0.00    +0.000 C 
ATOM     11  C   UNL     1       3.478  15.872   1.125  0.00  0.00    +0.000 C 
BRANCH  10  12
ATOM     12  O   UNL     1       1.869  14.247   0.413  0.00  0.00    +0.000 OA
ATOM     13  H   UNL     1       1.718  14.186  -0.544  0.00  0.00    +0.000 HD
ENDBRANCH  10  12
ENDBRANCH   9  10
ENDBRANCH   1   9
BRANCH   1  14
ATOM     14  C   UNL     1       2.851  13.207  -2.613  0.00  0.00    +0.000 C 
BRANCH  14  15
ATOM     15  C   UNL     1       4.050  12.398  -3.164  0.00  0.00    +0.000 C 
ATOM     16  C   UNL     1       3.834  10.891  -3.108  0.00  0.00    +0.000 C 
BRANCH  15  17
ATOM     17  O   UNL     1       4.349  12.752  -4.514  0.00  0.00    +0.000 OA
ATOM     18  H   UNL     1       3.593  12.415  -5.037  0.00  0.00    +0.000 HD
ENDBRANCH  15  17
ENDBRANCH  14  15
ENDBRANCH   1  14
TORSDOF 7
ENDMDL
MODEL 9
REMARK VINA RESULT:    -4.808     13.212     15.109
REMARK INTER + INTRA:          -7.144
REMARK INTER:                  -6.593
REMARK INTRA:                  -0.551
REMARK UNBOUND:                -0.649
REMARK  Name = 
REMARK  10 active torsions:
REMARK  status: ('A' for Active; 'I' for Inactive)
REMARK    1  A    between atoms: C_1  and  C_2
REMARK    2  A    between atoms: C_5  and  N_8
REMARK    3  A    between atoms: N_8  and  C_9
REMARK    4  A    between atoms: N_8  and  C_13
REMARK    5  A    between atoms: C_9  and  C_10
REMARK    6  A    between atoms: C_10  and  C_11
REMARK    7  A    between atoms: C_10  and  O_12
REMARK    8  A    between atoms: C_13  and  C_14
REMARK    9  A    between atoms: C_14  and  C_15
REMARK   10  A    between atoms: C_14  and  O_16
REMARK                            x       y       z     vdW  Elec       q    Type
REMARK                         _______ _______ _______ _____ _____    ______ ____
ROOT
ATOM      1  N   UNL     1      -0.088  14.421 -14.909  0.00  0.00    +0.000 N 
ENDROOT
BRANCH   1   6
ATOM      2  C   UNL     1      -2.859  10.111 -17.569  0.00  0.00    +0.000 C 
ATOM      3  C   UNL     1      -2.155  11.246 -16.891  0.00  0.00    +0.000 A 
ATOM      4  C   UNL     1      -1.021  11.822 -17.454  0.00  0.00    +0.000 A 
ATOM      5  C   UNL     1      -0.348  12.866 -16.798  0.00  0.00    +0.000 A 
ATOM      6  C   UNL     1      -0.753  13.367 -15.548  0.00  0.00    +0.000 A 
ATOM      7  C   UNL     1      -1.904  12.762 -15.009  0.00  0.00    +0.000 A 
ATOM      8  C   UNL     1      -2.588  11.719 -15.655  0.00  0.00    +0.000 A 
ENDBRANCH   1   6
BRANCH   1   9
ATOM      9  C   UNL     1       0.152  14.371 -13.447  0.00  0.00    +0.000 C 
BRANCH   9  10
ATOM     10  C   UNL     1       0.124  15.771 -12.786  0.00  0.00    +0.000 C 
ATOM     11  C   UNL     1      -0.812  15.787 -11.583  0.00  0.00    +0.000 C 
BRANCH  10  12
ATOM     12  O   UNL     1       1.431  16.155 -12.337  0.00  0.00    +0.000 OA
ATOM     13  H   UNL     1       2.085  15.734 -12.920  0.00  0.00    +0.000 HD
ENDBRANCH  10  12
ENDBRANCH   9  10
ENDBRANCH   1   9
BRANCH   1  14
ATOM     14  C   UNL     1      -0.060  15.783 -15.500  0.00  0.00    +0.000 C 
BRANCH  14  15
ATOM     15  C   UNL     1       1.264  16.069 -16.248  0.00  0.00    +0.000 C 
ATOM     16  C   UNL     1       1.245  17.382 -17.021  0.00  0.00    +0.000 C 
BRANCH  15  17
ATOM     17  O   UNL     1       2.377  16.099 -15.355  0.00  0.00    +0.000 OA
ATOM     18  H   UNL     1       2.687  15.172 -15.307  0.00  0.00    +0.000 HD
ENDBRANCH  15  17
ENDBRANCH  14  15
ENDBRANCH   1  14
TORSDOF 7
ENDMDL
