MODEL 1
REMARK VINA RESULT:    -4.232      0.000      0.000
REMARK INTER + INTRA:          -6.324
REMARK INTER:                  -5.716
REMARK INTRA:                  -0.609
REMARK UNBOUND:                -0.609
REMARK  Name = 
REMARK  10 active torsions:
REMARK  status: ('A' for Active; 'I' for Inactive)
REMARK    1  A    between atoms: C_1  and  C_2
REMARK    2  A    between atoms: C_5  and  N_8
REMARK    3  A    between atoms: N_8  and  C_9
REMARK    4  A    between atoms: N_8  and  C_13
REMARK    5  A    between atoms: C_9  and  C_10
REMARK    6  A    between atoms: C_10  and  C_11
REMARK    7  A    between atoms: C_10  and  O_12
REMARK    8  A    between atoms: C_13  and  C_14
REMARK    9  A    between atoms: C_14  and  C_15
REMARK   10  A    between atoms: C_14  and  O_16
REMARK                            x       y       z     vdW  Elec       q    Type
REMARK                         _______ _______ _______ _____ _____    ______ ____
ROOT
ATOM      1  N   UNL     1      -5.557  -0.070 -20.329  0.00  0.00    +0.000 N 
ENDROOT
BRANCH   1   6
ATOM      2  C   UNL     1      -2.074   2.897 -23.851  0.00  0.00    +0.000 C 
ATOM      3  C   UNL     1      -2.973   2.143 -22.919  0.00  0.00    +0.000 A 
ATOM      4  C   UNL     1      -2.490   1.078 -22.166  0.00  0.00    +0.000 A 
ATOM      5  C   UNL     1      -3.343   0.356 -21.316  0.00  0.00    +0.000 A 
ATOM      6  C   UNL     1      -4.715   0.642 -21.193  0.00  0.00    +0.000 A 
ATOM      7  C   UNL     1      -5.169   1.726 -21.968  0.00  0.00    +0.000 A 
ATOM      8  C   UNL     1      -4.325   2.457 -22.820  0.00  0.00    +0.000 A 
ENDBRANCH   1   6
BRANCH   1   9
ATOM      9  C   UNL     1      -5.180  -0.252 -18.907  0.00  0.00    +0.000 C 
BRANCH   9  10
ATOM     10  C   UNL     1      -5.563   0.962 -18.025  0.00  0.00    +0.000 C 
ATOM     11  C   UNL     1      -4.638   2.143 -18.291  0.00  0.00    +0.000 C 
BRANCH  10  12
ATOM     12  O   UNL     1      -6.909   1.384 -18.286  0.00  0.00    +0.000 OA
ATOM     13  H   UNL     1      -7.509   0.682 -17.984  0.00  0.00    +0.000 HD
ENDBRANCH  10  12
ENDBRANCH   9  10
ENDBRANCH   1   9
BRANCH   1  14
ATOM     14  C   UNL     1      -6.528  -1.066 -20.850  0.00  0.00    +0.000 C 
BRANCH  14  15
ATOM     15  C   UNL     1      -7.989  -0.566 -20.747  0.00  0.00    +0.000 C 
ATOM     16  C   UNL     1      -8.923  -1.230 -21.751  0.00  0.00    +0.000 C 
BRANCH  15  17
ATOM     17  O   UNL     1      -8.526  -0.772 -19.441  0.00  0.00    +0.000 OA
ATOM     18  H   UNL     1      -8.585  -1.744 -19.343  0.00  0.00    +0.000 HD
ENDBRANCH  15  17
ENDBRANCH  14  15
ENDBRANCH   1  14
TORSDOF 7
ENDMDL
MODEL 2
REMARK VINA RESULT:    -4.131      1.521      2.084
REMARK INTER + INTRA:          -6.189
REMARK INTER:                  -5.628
REMARK INTRA:                  -0.560
REMARK UNBOUND:                -0.609
REMARK  Name = 
REMARK  10 active torsions:
REMARK  status: ('A' for Active; 'I' for Inactive)
REMARK    1  A    between atoms: C_1  and  C_2
REMARK    2  A    between atoms: C_5  and  N_8
REMARK    3  A    between atoms: N_8  and  C_9
REMARK    4  A    between atoms: N_8  and  C_13
REMARK    5  A    between atoms: C_9  and  C_10
REMARK    6  A    between atoms: C_10  and  C_11
REMARK    7  A    between atoms: C_10  and  O_12
REMARK    8  A    between atoms: C_13  and  C_14
REMARK    9  A    between atoms: C_14  and  C_15
REMARK   10  A    between atoms: C_14  and  O_16
REMARK                            x       y       z     vdW  Elec       q    Type
REMARK                         _______ _______ _______ _____ _____    ______ ____
ROOT
ATOM      1  N   UNL     1      -5.081  -0.164 -20.529  0.00  0.00    +0.000 N 
ENDROOT
BRANCH   1   6
ATOM      2  C   UNL     1      -0.199   0.419 -23.556  0.00  0.00    +0.000 C 
ATOM      3  C   UNL     1      -1.479   0.265 -22.792  0.00  0.00    +0.000 A 
ATOM      4  C   UNL     1      -2.221   1.378 -22.411  0.00  0.00    +0.000 A 
ATOM      5  C   UNL     1      -3.404   1.230 -21.669  0.00  0.00    +0.000 A 
ATOM      6  C   UNL     1      -3.890  -0.022 -21.253  0.00  0.00    +0.000 A 
ATOM      7  C   UNL     1      -3.115  -1.125 -21.657  0.00  0.00    +0.000 A 
ATOM      8  C   UNL     1      -1.931  -0.991 -22.401  0.00  0.00    +0.000 A 
ENDBRANCH   1   6
BRANCH   1   9
ATOM      9  C   UNL     1      -5.040  -0.350 -19.059  0.00  0.00    +0.000 C 
BRANCH   9  10
ATOM     10  C   UNL     1      -5.668   0.836 -18.286  0.00  0.00    +0.000 C 
ATOM     11  C   UNL     1      -4.944   2.139 -18.605  0.00  0.00    +0.000 C 
BRANCH  10  12
ATOM     12  O   UNL     1      -7.050   1.000 -18.631  0.00  0.00    +0.000 OA
ATOM     13  H   UNL     1      -7.116   1.725 -19.274  0.00  0.00    +0.000 HD
ENDBRANCH  10  12
ENDBRANCH   9  10
ENDBRANCH   1   9
BRANCH   1  14
ATOM     14  C   UNL     1      -6.326  -0.639 -21.184  0.00  0.00    +0.000 C 
BRANCH  14  15
ATOM     15  C   UNL     1      -6.936   0.428 -22.125  0.00  0.00    +0.000 C 
ATOM     16  C   UNL     1      -8.390   0.149 -22.486  0.00  0.00    +0.000 C 
BRANCH  15  17
ATOM     17  O   UNL     1      -6.865   1.734 -21.555  0.00  0.00    +0.000 OA
ATOM     18  H   UNL     1      -7.694   1.832 -21.044  0.00  0.00    +0.000 HD
ENDBRANCH  15  17
ENDBRANCH  14  15
ENDBRANCH   1  14
TORSDOF 7
ENDMDL
MODEL 3
REMARK VINA RESULT:    -4.043      2.051      3.638
REMARK INTER + INTRA:          -6.070
REMARK INTER:                  -5.543
REMARK INTRA:                  -0.526
REMARK UNBOUND:                -0.609
REMARK  Name = 
REMARK  10 active torsions:
REMARK  status: ('A' for Active; 'I' for Inactive)
REMARK    1  A    between atoms: C_1  and  C_2
REMARK    2  A    between atoms: C_5  and  N_8
REMARK    3  A    between atoms: N_8  and  C_9
REMARK    4  A    between atoms: N_8  and  C_13
REMARK    5  A    between atoms: C_9  and  C_10
REMARK    6  A    between atoms: C_10  and  C_11
REMARK    7  A    between atoms: C_10  and  O_12
REMARK    8  A    between atoms: C_13  and  C_14
REMARK    9  A    between atoms: C_14  and  C_15
REMARK   10  A    between atoms: C_14  and  O_16
REMARK                            x       y       z     vdW  Elec       q    Type
REMARK                         _______ _______ _______ _____ _____    ______ ____
ROOT
ATOM      1  N   UNL     1      -4.484   1.505 -20.881  0.00  0.00    +0.000 N 
ENDROOT
BRANCH   1   6
ATOM      2  C   UNL     1      -0.115  -1.127 -23.585  0.00  0.00    +0.000 C 
ATOM      3  C   UNL     1      -1.263  -0.448 -22.903  0.00  0.00    +0.000 A 
ATOM      4  C   UNL     1      -1.427   0.931 -22.985  0.00  0.00    +0.000 A 
ATOM      5  C   UNL     1      -2.488   1.566 -22.319  0.00  0.00    +0.000 A 
ATOM      6  C   UNL     1      -3.417   0.868 -21.527  0.00  0.00    +0.000 A 
ATOM      7  C   UNL     1      -3.221  -0.524 -21.468  0.00  0.00    +0.000 A 
ATOM      8  C   UNL     1      -2.166  -1.172 -22.131  0.00  0.00    +0.000 A 
ENDBRANCH   1   6
BRANCH   1   9
ATOM      9  C   UNL     1      -5.147   2.670 -21.516  0.00  0.00    +0.000 C 
BRANCH   9  10
ATOM     10  C   UNL     1      -6.000   2.277 -22.747  0.00  0.00    +0.000 C 
ATOM     11  C   UNL     1      -6.977   1.160 -22.400  0.00  0.00    +0.000 C 
BRANCH  10  12
ATOM     12  O   UNL     1      -6.758   3.397 -23.227  0.00  0.00    +0.000 OA
ATOM     13  H   UNL     1      -6.352   3.703 -24.054  0.00  0.00    +0.000 HD
ENDBRANCH  10  12
ENDBRANCH   9  10
ENDBRANCH   1   9
BRANCH   1  14
ATOM     14  C   UNL     1      -4.658   1.413 -19.409  0.00  0.00    +0.000 C 
BRANCH  14  15
ATOM     15  C   UNL     1      -5.995   0.739 -19.020  0.00  0.00    +0.000 C 
ATOM     16  C   UNL     1      -5.809  -0.599 -18.313  0.00  0.00    +0.000 C 
BRANCH  15  17
ATOM     17  O   UNL     1      -6.783   1.578 -18.176  0.00  0.00    +0.000 OA
ATOM     18  H   UNL     1      -7.565   1.814 -18.713  0.00  0.00    +0.000 HD
ENDBRANCH  15  17
ENDBRANCH  14  15
ENDBRANCH   1  14
TORSDOF 7
ENDMDL
MODEL 4
REMARK VINA RESULT:    -3.830      2.992      5.647
REMARK INTER + INTRA:          -5.781
REMARK INTER:                  -5.294
REMARK INTRA:                  -0.487
REMARK UNBOUND:                -0.609
REMARK  Name = 
REMARK  10 active torsions:
REMARK  status: ('A' for Active; 'I' for Inactive)
REMARK    1  A    between atoms: C_1  and  C_2
REMARK    2  A    between atoms: C_5  and  N_8
REMARK    3  A    between atoms: N_8  and  C_9
REMARK    4  A    between atoms: N_8  and  C_13
REMARK    5  A    between atoms: C_9  and  C_10
REMARK    6  A    between atoms: C_10  and  C_11
REMARK    7  A    between atoms: C_10  and  O_12
REMARK    8  A    between atoms: C_13  and  C_14
REMARK    9  A    between atoms: C_14  and  C_15
REMARK   10  A    between atoms: C_14  and  O_16
REMARK                            x       y       z     vdW  Elec       q    Type
REMARK                         _______ _______ _______ _____ _____    ______ ____
ROOT
ATOM      1  N   UNL     1      -4.883   2.683 -22.557  0.00  0.00    +0.000 N 
ENDROOT
BRANCH   1   6
ATOM      2  C   UNL     1      -6.070  -0.675 -18.013  0.00  0.00    +0.000 C 
ATOM      3  C   UNL     1      -5.738   0.192 -19.189  0.00  0.00    +0.000 A 
ATOM      4  C   UNL     1      -5.569   1.564 -19.039  0.00  0.00    +0.000 A 
ATOM      5  C   UNL     1      -5.287   2.377 -20.149  0.00  0.00    +0.000 A 
ATOM      6  C   UNL     1      -5.183   1.869 -21.457  0.00  0.00    +0.000 A 
ATOM      7  C   UNL     1      -5.358   0.478 -21.571  0.00  0.00    +0.000 A 
ATOM      8  C   UNL     1      -5.638  -0.346 -20.468  0.00  0.00    +0.000 A 
ENDBRANCH   1   6
BRANCH   1   9
ATOM      9  C   UNL     1      -5.912   3.595 -23.110  0.00  0.00    +0.000 C 
BRANCH   9  10
ATOM     10  C   UNL     1      -5.574   5.089 -22.886  0.00  0.00    +0.000 C 
ATOM     11  C   UNL     1      -6.546   5.988 -23.640  0.00  0.00    +0.000 C 
BRANCH  10  12
ATOM     12  O   UNL     1      -5.643   5.429 -21.494  0.00  0.00    +0.000 OA
ATOM     13  H   UNL     1      -6.569   5.352 -21.211  0.00  0.00    +0.000 HD
ENDBRANCH  10  12
ENDBRANCH   9  10
ENDBRANCH   1   9
BRANCH   1  14
ATOM     14  C   UNL     1      -3.791   2.328 -23.500  0.00  0.00    +0.000 C 
BRANCH  14  15
ATOM     15  C   UNL     1      -2.394   2.430 -22.841  0.00  0.00    +0.000 C 
ATOM     16  C   UNL     1      -1.617   1.120 -22.878  0.00  0.00    +0.000 C 
BRANCH  15  17
ATOM     17  O   UNL     1      -1.593   3.437 -23.458  0.00  0.00    +0.000 OA
ATOM     18  H   UNL     1      -2.045   4.280 -23.253  0.00  0.00    +0.000 HD
ENDBRANCH  15  17
ENDBRANCH  14  15
ENDBRANCH   1  14
TORSDOF 7
ENDMDL
MODEL 5
REMARK VINA RESULT:    -3.609      2.221      4.664
REMARK INTER + INTRA:          -5.483
REMARK INTER:                  -4.933
REMARK INTRA:                  -0.550
REMARK UNBOUND:                -0.609
REMARK  Name = 
REMARK  10 active torsions:
REMARK  status: ('A' for Active; 'I' for Inactive)
REMARK    1  A    between atoms: C_1  and  C_2
REMARK    2  A    between atoms: C_5  and  N_8
REMARK    3  A    between atoms: N_8  and  C_9
REMARK    4  A    between atoms: N_8  and  C_13
REMARK    5  A    between atoms: C_9  and  C_10
REMARK    6  A    between atoms: C_10  and  C_11
REMARK    7  A    between atoms: C_10  and  O_12
REMARK    8  A    between atoms: C_13  and  C_14
REMARK    9  A    between atoms: C_14  and  C_15
REMARK   10  A    between atoms: C_14  and  O_16
REMARK                            x       y       z     vdW  Elec       q    Type
REMARK                         _______ _______ _______ _____ _____    ______ ____
ROOT
ATOM      1  N   UNL     1      -5.148   0.098 -20.664  0.00  0.00    +0.000 N 
ENDROOT
BRANCH   1   6
ATOM      2  C   UNL     1     -10.400   0.256 -23.055  0.00  0.00    +0.000 C 
ATOM      3  C   UNL     1      -9.045   0.232 -22.418  0.00  0.00    +0.000 A 
ATOM      4  C   UNL     1      -8.026   1.061 -22.875  0.00  0.00    +0.000 A 
ATOM      5  C   UNL     1      -6.748   1.013 -22.294  0.00  0.00    +0.000 A 
ATOM      6  C   UNL     1      -6.419   0.127 -21.252  0.00  0.00    +0.000 A 
ATOM      7  C   UNL     1      -7.473  -0.694 -20.814  0.00  0.00    +0.000 A 
ATOM      8  C   UNL     1      -8.756  -0.655 -21.385  0.00  0.00    +0.000 A 
ENDBRANCH   1   6
BRANCH   1   9
ATOM      9  C   UNL     1      -4.597   1.317 -20.024  0.00  0.00    +0.000 C 
BRANCH   9  10
ATOM     10  C   UNL     1      -5.464   1.819 -18.843  0.00  0.00    +0.000 C 
ATOM     11  C   UNL     1      -5.555   0.763 -17.747  0.00  0.00    +0.000 C 
BRANCH  10  12
ATOM     12  O   UNL     1      -4.909   3.010 -18.268  0.00  0.00    +0.000 OA
ATOM     13  H   UNL     1      -5.229   3.770 -18.782  0.00  0.00    +0.000 HD
ENDBRANCH  10  12
ENDBRANCH   9  10
ENDBRANCH   1   9
BRANCH   1  14
ATOM     14  C   UNL     1      -4.132  -0.903 -21.078  0.00  0.00    +0.000 C 
BRANCH  14  15
ATOM     15  C   UNL     1      -2.977  -0.265 -21.885  0.00  0.00    +0.000 C 
ATOM     16  C   UNL     1      -1.820  -1.225 -22.140  0.00  0.00    +0.000 C 
BRANCH  15  17
ATOM     17  O   UNL     1      -3.425   0.230 -23.146  0.00  0.00    +0.000 OA
ATOM     18  H   UNL     1      -4.392   0.340 -23.045  0.00  0.00    +0.000 HD
ENDBRANCH  15  17
ENDBRANCH  14  15
ENDBRANCH   1  14
TORSDOF 7
ENDMDL
MODEL 6
REMARK VINA RESULT:    -3.586      3.011      5.236
REMARK INTER + INTRA:          -5.452
REMARK INTER:                  -5.006
REMARK INTRA:                  -0.446
REMARK UNBOUND:                -0.609
REMARK  Name = 
REMARK  10 active torsions:
REMARK  status: ('A' for Active; 'I' for Inactive)
REMARK    1  A    between atoms: C_1  and  C_2
REMARK    2  A    between atoms: C_5  and  N_8
REMARK    3  A    between atoms: N_8  and  C_9
REMARK    4  A    between atoms: N_8  and  C_13
REMARK    5  A    between atoms: C_9  and  C_10
REMARK    6  A    between atoms: C_10  and  C_11
REMARK    7  A    between atoms: C_10  and  O_12
REMARK    8  A    between atoms: C_13  and  C_14
REMARK    9  A    between atoms: C_14  and  C_15
REMARK   10  A    between atoms: C_14  and  O_16
REMARK                            x       y       z     vdW  Elec       q    Type
REMARK                         _______ _______ _______ _____ _____    ______ ____
ROOT
ATOM      1  N   UNL     1      -4.509   2.261 -22.479  0.00  0.00    +0.000 N 
ENDROOT
BRANCH   1   6
ATOM      2  C   UNL     1      -5.966  -0.702 -17.743  0.00  0.00    +0.000 C 
ATOM      3  C   UNL     1      -5.612   0.065 -18.980  0.00  0.00    +0.000 A 
ATOM      4  C   UNL     1      -5.129  -0.586 -20.111  0.00  0.00    +0.000 A 
ATOM      5  C   UNL     1      -4.770   0.141 -21.257  0.00  0.00    +0.000 A 
ATOM      6  C   UNL     1      -4.851   1.543 -21.325  0.00  0.00    +0.000 A 
ATOM      7  C   UNL     1      -5.344   2.168 -20.165  0.00  0.00    +0.000 A 
ATOM      8  C   UNL     1      -5.709   1.453 -19.013  0.00  0.00    +0.000 A 
ENDBRANCH   1   6
BRANCH   1   9
ATOM      9  C   UNL     1      -3.404   1.788 -23.348  0.00  0.00    +0.000 C 
BRANCH   9  10
ATOM     10  C   UNL     1      -2.005   2.075 -22.750  0.00  0.00    +0.000 C 
ATOM     11  C   UNL     1      -1.042   0.931 -23.041  0.00  0.00    +0.000 C 
BRANCH  10  12
ATOM     12  O   UNL     1      -1.447   3.277 -23.299  0.00  0.00    +0.000 OA
ATOM     13  H   UNL     1      -1.107   3.072 -24.187  0.00  0.00    +0.000 HD
ENDBRANCH  10  12
ENDBRANCH   9  10
ENDBRANCH   1   9
BRANCH   1  14
ATOM     14  C   UNL     1      -4.834   3.704 -22.612  0.00  0.00    +0.000 C 
BRANCH  14  15
ATOM     15  C   UNL     1      -5.978   3.954 -23.623  0.00  0.00    +0.000 C 
ATOM     16  C   UNL     1      -6.977   2.806 -23.695  0.00  0.00    +0.000 C 
BRANCH  15  17
ATOM     17  O   UNL     1      -6.699   5.148 -23.319  0.00  0.00    +0.000 OA
ATOM     18  H   UNL     1      -6.877   5.098 -22.359  0.00  0.00    +0.000 HD
ENDBRANCH  15  17
ENDBRANCH  14  15
ENDBRANCH   1  14
TORSDOF 7
ENDMDL
MODEL 7
REMARK VINA RESULT:    -3.356     19.766     20.820
REMARK INTER + INTRA:          -5.141
REMARK INTER:                  -4.536
REMARK INTRA:                  -0.605
REMARK UNBOUND:                -0.609
REMARK  Name = 
REMARK  10 active torsions:
REMARK  status: ('A' for Active; 'I' for Inactive)
REMARK    1  A    between atoms: C_1  and  C_2
REMARK    2  A    between atoms: C_5  and  N_8
REMARK    3  A    between atoms: N_8  and  C_9
REMARK    4  A    between atoms: N_8  and  C_13
REMARK    5  A    between atoms: C_9  and  C_10
REMARK    6  A    between atoms: C_10  and  C_11
REMARK    7  A    between atoms: C_10  and  O_12
REMARK    8  A    between atoms: C_13  and  C_14
REMARK    9  A    between atoms: C_14  and  C_15
REMARK   10  A    between atoms: C_14  and  O_16
REMARK                            x       y       z     vdW  Elec       q    Type
REMARK                         _______ _______ _______ _____ _____    ______ ____
ROOT
ATOM      1  N   UNL     1       7.164  17.247 -21.027  0.00  0.00    +0.000 N 
ENDROOT
BRANCH   1   6
ATOM      2  C   UNL     1      11.682  13.795 -20.023  0.00  0.00    +0.000 C 
ATOM      3  C   UNL     1      10.505  14.692 -20.259  0.00  0.00    +0.000 A 
ATOM      4  C   UNL     1       9.243  14.163 -20.508  0.00  0.00    +0.000 A 
ATOM      5  C   UNL     1       8.149  15.008 -20.758  0.00  0.00    +0.000 A 
ATOM      6  C   UNL     1       8.263  16.410 -20.796  0.00  0.00    +0.000 A 
ATOM      7  C   UNL     1       9.553  16.909 -20.538  0.00  0.00    +0.000 A 
ATOM      8  C   UNL     1      10.654  16.075 -20.284  0.00  0.00    +0.000 A 
ENDBRANCH   1   6
BRANCH   1   9
ATOM      9  C   UNL     1       6.721  17.526 -22.414  0.00  0.00    +0.000 C 
BRANCH   9  10
ATOM     10  C   UNL     1       5.388  18.311 -22.471  0.00  0.00    +0.000 C 
ATOM     11  C   UNL     1       5.205  18.976 -23.831  0.00  0.00    +0.000 C 
BRANCH  10  12
ATOM     12  O   UNL     1       4.269  17.443 -22.247  0.00  0.00    +0.000 OA
ATOM     13  H   UNL     1       4.151  17.344 -21.288  0.00  0.00    +0.000 HD
ENDBRANCH  10  12
ENDBRANCH   9  10
ENDBRANCH   1   9
BRANCH   1  14
ATOM     14  C   UNL     1       6.741  18.255 -20.021  0.00  0.00    +0.000 C 
BRANCH  14  15
ATOM     15  C   UNL     1       5.736  17.672 -18.997  0.00  0.00    +0.000 C 
ATOM     16  C   UNL     1       4.570  18.608 -18.703  0.00  0.00    +0.000 C 
BRANCH  15  17
ATOM     17  O   UNL     1       5.202  16.424 -19.435  0.00  0.00    +0.000 OA
ATOM     18  H   UNL     1       5.982  15.889 -19.685  0.00  0.00    +0.000 HD
ENDBRANCH  15  17
ENDBRANCH  14  15
ENDBRANCH   1  14
TORSDOF 7
ENDMDL
