MODEL 1
REMARK VINA RESULT:    -4.911      0.000      0.000
REMARK INTER + INTRA:          -7.167
REMARK INTER:                  -6.634
REMARK INTRA:                  -0.533
REMARK UNBOUND:                -0.533
REMARK  Name = 
REMARK  10 active torsions:
REMARK  status: ('A' for Active; 'I' for Inactive)
REMARK    1  A    between atoms: C_1  and  C_2
REMARK    2  A    between atoms: C_5  and  N_8
REMARK    3  A    between atoms: N_8  and  C_9
REMARK    4  A    between atoms: N_8  and  C_13
REMARK    5  A    between atoms: C_9  and  C_10
REMARK    6  A    between atoms: C_10  and  C_11
REMARK    7  A    between atoms: C_10  and  O_12
REMARK    8  A    between atoms: C_13  and  C_14
REMARK    9  A    between atoms: C_14  and  C_15
REMARK   10  A    between atoms: C_14  and  O_16
REMARK                            x       y       z     vdW  Elec       q    Type
REMARK                         _______ _______ _______ _____ _____    ______ ____
ROOT
ATOM      1  N   UNL     1       3.484  16.298  -0.124  0.00  0.00    +0.000 N 
ENDROOT
BRANCH   1   6
ATOM      2  C   UNL     1       4.635  14.834   5.341  0.00  0.00    +0.000 C 
ATOM      3  C   UNL     1       4.360  15.218   3.919  0.00  0.00    +0.000 A 
ATOM      4  C   UNL     1       4.049  16.531   3.581  0.00  0.00    +0.000 A 
ATOM      5  C   UNL     1       3.763  16.879   2.251  0.00  0.00    +0.000 A 
ATOM      6  C   UNL     1       3.751  15.940   1.204  0.00  0.00    +0.000 A 
ATOM      7  C   UNL     1       4.072  14.623   1.582  0.00  0.00    +0.000 A 
ATOM      8  C   UNL     1       4.362  14.262   2.908  0.00  0.00    +0.000 A 
ENDBRANCH   1   6
BRANCH   1   9
ATOM      9  C   UNL     1       4.480  17.078  -0.898  0.00  0.00    +0.000 C 
BRANCH   9  10
ATOM     10  C   UNL     1       4.304  16.923  -2.428  0.00  0.00    +0.000 C 
ATOM     11  C   UNL     1       5.339  17.750  -3.182  0.00  0.00    +0.000 C 
BRANCH  10  12
ATOM     12  O   UNL     1       4.453  15.554  -2.828  0.00  0.00    +0.000 OA
ATOM     13  H   UNL     1       4.082  15.459  -3.721  0.00  0.00    +0.000 HD
ENDBRANCH  10  12
ENDBRANCH   9  10
ENDBRANCH   1   9
BRANCH   1  14
ATOM     14  C   UNL     1       2.091  16.386  -0.631  0.00  0.00    +0.000 C 
BRANCH  14  15
ATOM     15  C   UNL     1       1.498  14.994  -0.955  0.00  0.00    +0.000 C 
ATOM     16  C   UNL     1      -0.021  14.946  -0.836  0.00  0.00    +0.000 C 
BRANCH  15  17
ATOM     17  O   UNL     1       1.852  14.562  -2.268  0.00  0.00    +0.000 OA
ATOM     18  H   UNL     1       2.793  14.304  -2.204  0.00  0.00    +0.000 HD
ENDBRANCH  15  17
ENDBRANCH  14  15
ENDBRANCH   1  14
TORSDOF 7
ENDMDL
MODEL 2
REMARK VINA RESULT:    -4.885      4.482      5.992
REMARK INTER + INTRA:          -7.132
REMARK INTER:                  -6.338
REMARK INTRA:                  -0.794
REMARK UNBOUND:                -0.533
REMARK  Name = 
REMARK  10 active torsions:
REMARK  status: ('A' for Active; 'I' for Inactive)
REMARK    1  A    between atoms: C_1  and  C_2
REMARK    2  A    between atoms: C_5  and  N_8
REMARK    3  A    between atoms: N_8  and  C_9
REMARK    4  A    between atoms: N_8  and  C_13
REMARK    5  A    between atoms: C_9  and  C_10
REMARK    6  A    between atoms: C_10  and  C_11
REMARK    7  A    between atoms: C_10  and  O_12
REMARK    8  A    between atoms: C_13  and  C_14
REMARK    9  A    between atoms: C_14  and  C_15
REMARK   10  A    between atoms: C_14  and  O_16
REMARK                            x       y       z     vdW  Elec       q    Type
REMARK                         _______ _______ _______ _____ _____    ______ ____
ROOT
ATOM      1  N   UNL     1       4.390  15.147   4.551  0.00  0.00    +0.000 N 
ENDROOT
BRANCH   1   6
ATOM      2  C   UNL     1       1.412  13.959   9.352  0.00  0.00    +0.000 C 
ATOM      3  C   UNL     1       2.199  14.282   8.119  0.00  0.00    +0.000 A 
ATOM      4  C   UNL     1       1.813  15.319   7.277  0.00  0.00    +0.000 A 
ATOM      5  C   UNL     1       2.538  15.599   6.107  0.00  0.00    +0.000 A 
ATOM      6  C   UNL     1       3.660  14.850   5.709  0.00  0.00    +0.000 A 
ATOM      7  C   UNL     1       4.023  13.812   6.586  0.00  0.00    +0.000 A 
ATOM      8  C   UNL     1       3.309  13.522   7.760  0.00  0.00    +0.000 A 
ENDBRANCH   1   6
BRANCH   1   9
ATOM      9  C   UNL     1       5.040  16.471   4.402  0.00  0.00    +0.000 C 
BRANCH   9  10
ATOM     10  C   UNL     1       6.451  16.523   5.039  0.00  0.00    +0.000 C 
ATOM     11  C   UNL     1       6.383  17.040   6.471  0.00  0.00    +0.000 C 
BRANCH  10  12
ATOM     12  O   UNL     1       7.052  15.221   5.065  0.00  0.00    +0.000 OA
ATOM     13  H   UNL     1       7.009  14.887   5.976  0.00  0.00    +0.000 HD
ENDBRANCH  10  12
ENDBRANCH   9  10
ENDBRANCH   1   9
BRANCH   1  14
ATOM     14  C   UNL     1       4.134  14.430   3.276  0.00  0.00    +0.000 C 
BRANCH  14  15
ATOM     15  C   UNL     1       5.159  13.297   3.028  0.00  0.00    +0.000 C 
ATOM     16  C   UNL     1       4.608  12.169   2.163  0.00  0.00    +0.000 C 
BRANCH  15  17
ATOM     17  O   UNL     1       6.347  13.787   2.409  0.00  0.00    +0.000 OA
ATOM     18  H   UNL     1       6.194  13.683   1.449  0.00  0.00    +0.000 HD
ENDBRANCH  15  17
ENDBRANCH  14  15
ENDBRANCH   1  14
TORSDOF 7
ENDMDL
MODEL 3
REMARK VINA RESULT:    -4.859      4.498      6.080
REMARK INTER + INTRA:          -7.096
REMARK INTER:                  -6.317
REMARK INTRA:                  -0.779
REMARK UNBOUND:                -0.533
REMARK  Name = 
REMARK  10 active torsions:
REMARK  status: ('A' for Active; 'I' for Inactive)
REMARK    1  A    between atoms: C_1  and  C_2
REMARK    2  A    between atoms: C_5  and  N_8
REMARK    3  A    between atoms: N_8  and  C_9
REMARK    4  A    between atoms: N_8  and  C_13
REMARK    5  A    between atoms: C_9  and  C_10
REMARK    6  A    between atoms: C_10  and  C_11
REMARK    7  A    between atoms: C_10  and  O_12
REMARK    8  A    between atoms: C_13  and  C_14
REMARK    9  A    between atoms: C_14  and  C_15
REMARK   10  A    between atoms: C_14  and  O_16
REMARK                            x       y       z     vdW  Elec       q    Type
REMARK                         _______ _______ _______ _____ _____    ______ ____
ROOT
ATOM      1  N   UNL     1       4.396  15.125   4.572  0.00  0.00    +0.000 N 
ENDROOT
BRANCH   1   6
ATOM      2  C   UNL     1       1.469  13.858   9.384  0.00  0.00    +0.000 C 
ATOM      3  C   UNL     1       2.214  14.171   8.122  0.00  0.00    +0.000 A 
ATOM      4  C   UNL     1       3.352  13.454   7.768  0.00  0.00    +0.000 A 
ATOM      5  C   UNL     1       4.063  13.771   6.599  0.00  0.00    +0.000 A 
ATOM      6  C   UNL     1       3.693  14.826   5.746  0.00  0.00    +0.000 A 
ATOM      7  C   UNL     1       2.537  15.528   6.134  0.00  0.00    +0.000 A 
ATOM      8  C   UNL     1       1.815  15.219   7.298  0.00  0.00    +0.000 A 
ENDBRANCH   1   6
BRANCH   1   9
ATOM      9  C   UNL     1       5.025  16.457   4.401  0.00  0.00    +0.000 C 
BRANCH   9  10
ATOM     10  C   UNL     1       6.454  16.527   4.992  0.00  0.00    +0.000 C 
ATOM     11  C   UNL     1       6.430  17.074   6.414  0.00  0.00    +0.000 C 
BRANCH  10  12
ATOM     12  O   UNL     1       7.061  15.227   5.026  0.00  0.00    +0.000 OA
ATOM     13  H   UNL     1       7.838  15.242   4.443  0.00  0.00    +0.000 HD
ENDBRANCH  10  12
ENDBRANCH   9  10
ENDBRANCH   1   9
BRANCH   1  14
ATOM     14  C   UNL     1       4.127  14.394   3.307  0.00  0.00    +0.000 C 
BRANCH  14  15
ATOM     15  C   UNL     1       5.170  13.283   3.041  0.00  0.00    +0.000 C 
ATOM     16  C   UNL     1       4.622  12.135   2.201  0.00  0.00    +0.000 C 
BRANCH  15  17
ATOM     17  O   UNL     1       6.330  13.794   2.386  0.00  0.00    +0.000 OA
ATOM     18  H   UNL     1       7.085  13.369   2.841  0.00  0.00    +0.000 HD
ENDBRANCH  15  17
ENDBRANCH  14  15
ENDBRANCH   1  14
TORSDOF 7
ENDMDL
MODEL 4
REMARK VINA RESULT:    -4.519      4.259      6.173
REMARK INTER + INTRA:          -6.637
REMARK INTER:                  -6.020
REMARK INTRA:                  -0.617
REMARK UNBOUND:                -0.533
REMARK  Name = 
REMARK  10 active torsions:
REMARK  status: ('A' for Active; 'I' for Inactive)
REMARK    1  A    between atoms: C_1  and  C_2
REMARK    2  A    between atoms: C_5  and  N_8
REMARK    3  A    between atoms: N_8  and  C_9
REMARK    4  A    between atoms: N_8  and  C_13
REMARK    5  A    between atoms: C_9  and  C_10
REMARK    6  A    between atoms: C_10  and  C_11
REMARK    7  A    between atoms: C_10  and  O_12
REMARK    8  A    between atoms: C_13  and  C_14
REMARK    9  A    between atoms: C_14  and  C_15
REMARK   10  A    between atoms: C_14  and  O_16
REMARK                            x       y       z     vdW  Elec       q    Type
REMARK                         _______ _______ _______ _____ _____    ______ ____
ROOT
ATOM      1  N   UNL     1       5.080  15.621   4.649  0.00  0.00    +0.000 N 
ENDROOT
BRANCH   1   6
ATOM      2  C   UNL     1       1.732  14.230   9.141  0.00  0.00    +0.000 C 
ATOM      3  C   UNL     1       2.587  14.612   7.972  0.00  0.00    +0.000 A 
ATOM      4  C   UNL     1       2.292  14.155   6.692  0.00  0.00    +0.000 A 
ATOM      5  C   UNL     1       3.114  14.491   5.604  0.00  0.00    +0.000 A 
ATOM      6  C   UNL     1       4.275  15.274   5.741  0.00  0.00    +0.000 A 
ATOM      7  C   UNL     1       4.541  15.720   7.048  0.00  0.00    +0.000 A 
ATOM      8  C   UNL     1       3.726  15.393   8.145  0.00  0.00    +0.000 A 
ENDBRANCH   1   6
BRANCH   1   9
ATOM      9  C   UNL     1       4.675  15.237   3.275  0.00  0.00    +0.000 C 
BRANCH   9  10
ATOM     10  C   UNL     1       5.563  14.116   2.679  0.00  0.00    +0.000 C 
ATOM     11  C   UNL     1       4.785  12.811   2.559  0.00  0.00    +0.000 C 
BRANCH  10  12
ATOM     12  O   UNL     1       6.036  14.474   1.373  0.00  0.00    +0.000 OA
ATOM     13  H   UNL     1       6.475  15.338   1.438  0.00  0.00    +0.000 HD
ENDBRANCH  10  12
ENDBRANCH   9  10
ENDBRANCH   1   9
BRANCH   1  14
ATOM     14  C   UNL     1       6.530  15.896   4.818  0.00  0.00    +0.000 C 
BRANCH  14  15
ATOM     15  C   UNL     1       6.933  17.277   4.247  0.00  0.00    +0.000 C 
ATOM     16  C   UNL     1       5.984  18.397   4.659  0.00  0.00    +0.000 C 
BRANCH  15  17
ATOM     17  O   UNL     1       8.252  17.647   4.645  0.00  0.00    +0.000 OA
ATOM     18  H   UNL     1       8.742  16.803   4.713  0.00  0.00    +0.000 HD
ENDBRANCH  15  17
ENDBRANCH  14  15
ENDBRANCH   1  14
TORSDOF 7
ENDMDL
MODEL 5
REMARK VINA RESULT:    -4.357      1.510      5.376
REMARK INTER + INTRA:          -6.418
REMARK INTER:                  -6.061
REMARK INTRA:                  -0.357
REMARK UNBOUND:                -0.533
REMARK  Name = 
REMARK  10 active torsions:
REMARK  status: ('A' for Active; 'I' for Inactive)
REMARK    1  A    between atoms: C_1  and  C_2
REMARK    2  A    between atoms: C_5  and  N_8
REMARK    3  A    between atoms: N_8  and  C_9
REMARK    4  A    between atoms: N_8  and  C_13
REMARK    5  A    between atoms: C_9  and  C_10
REMARK    6  A    between atoms: C_10  and  C_11
REMARK    7  A    between atoms: C_10  and  O_12
REMARK    8  A    between atoms: C_13  and  C_14
REMARK    9  A    between atoms: C_14  and  C_15
REMARK   10  A    between atoms: C_14  and  O_16
REMARK                            x       y       z     vdW  Elec       q    Type
REMARK                         _______ _______ _______ _____ _____    ______ ____
ROOT
ATOM      1  N   UNL     1       3.400  16.999  -0.630  0.00  0.00    +0.000 N 
ENDROOT
BRANCH   1   6
ATOM      2  C   UNL     1       7.522  19.239  -3.994  0.00  0.00    +0.000 C 
ATOM      3  C   UNL     1       6.435  18.671  -3.134  0.00  0.00    +0.000 A 
ATOM      4  C   UNL     1       6.087  19.276  -1.931  0.00  0.00    +0.000 A 
ATOM      5  C   UNL     1       5.088  18.723  -1.114  0.00  0.00    +0.000 A 
ATOM      6  C   UNL     1       4.409  17.535  -1.440  0.00  0.00    +0.000 A 
ATOM      7  C   UNL     1       4.785  16.952  -2.664  0.00  0.00    +0.000 A 
ATOM      8  C   UNL     1       5.781  17.496  -3.492  0.00  0.00    +0.000 A 
ENDBRANCH   1   6
BRANCH   1   9
ATOM      9  C   UNL     1       2.069  16.691  -1.206  0.00  0.00    +0.000 C 
BRANCH   9  10
ATOM     10  C   UNL     1       1.743  15.178  -1.190  0.00  0.00    +0.000 C 
ATOM     11  C   UNL     1       0.269  14.940  -0.887  0.00  0.00    +0.000 C 
BRANCH  10  12
ATOM     12  O   UNL     1       2.039  14.574  -2.457  0.00  0.00    +0.000 OA
ATOM     13  H   UNL     1       2.046  13.610  -2.338  0.00  0.00    +0.000 HD
ENDBRANCH  10  12
ENDBRANCH   9  10
ENDBRANCH   1   9
BRANCH   1  14
ATOM     14  C   UNL     1       3.413  17.191   0.843  0.00  0.00    +0.000 C 
BRANCH  14  15
ATOM     15  C   UNL     1       4.511  16.345   1.532  0.00  0.00    +0.000 C 
ATOM     16  C   UNL     1       4.090  15.816   2.898  0.00  0.00    +0.000 C 
BRANCH  15  17
ATOM     17  O   UNL     1       4.902  15.233   0.729  0.00  0.00    +0.000 OA
ATOM     18  H   UNL     1       5.880  15.247   0.737  0.00  0.00    +0.000 HD
ENDBRANCH  15  17
ENDBRANCH  14  15
ENDBRANCH   1  14
TORSDOF 7
ENDMDL
MODEL 6
REMARK VINA RESULT:    -4.334      1.499      4.857
REMARK INTER + INTRA:          -6.387
REMARK INTER:                  -6.049
REMARK INTRA:                  -0.338
REMARK UNBOUND:                -0.533
REMARK  Name = 
REMARK  10 active torsions:
REMARK  status: ('A' for Active; 'I' for Inactive)
REMARK    1  A    between atoms: C_1  and  C_2
REMARK    2  A    between atoms: C_5  and  N_8
REMARK    3  A    between atoms: N_8  and  C_9
REMARK    4  A    between atoms: N_8  and  C_13
REMARK    5  A    between atoms: C_9  and  C_10
REMARK    6  A    between atoms: C_10  and  C_11
REMARK    7  A    between atoms: C_10  and  O_12
REMARK    8  A    between atoms: C_13  and  C_14
REMARK    9  A    between atoms: C_14  and  C_15
REMARK   10  A    between atoms: C_14  and  O_16
REMARK                            x       y       z     vdW  Elec       q    Type
REMARK                         _______ _______ _______ _____ _____    ______ ____
ROOT
ATOM      1  N   UNL     1       2.917  16.554  -0.296  0.00  0.00    +0.000 N 
ENDROOT
BRANCH   1   6
ATOM      2  C   UNL     1       7.023  19.185  -3.385  0.00  0.00    +0.000 C 
ATOM      3  C   UNL     1       5.975  18.491  -2.571  0.00  0.00    +0.000 A 
ATOM      4  C   UNL     1       5.435  17.278  -2.985  0.00  0.00    +0.000 A 
ATOM      5  C   UNL     1       4.432  16.646  -2.233  0.00  0.00    +0.000 A 
ATOM      6  C   UNL     1       3.904  17.199  -1.052  0.00  0.00    +0.000 A 
ATOM      7  C   UNL     1       4.475  18.424  -0.662  0.00  0.00    +0.000 A 
ATOM      8  C   UNL     1       5.480  19.065  -1.404  0.00  0.00    +0.000 A 
ENDBRANCH   1   6
BRANCH   1   9
ATOM      9  C   UNL     1       3.295  15.503   0.679  0.00  0.00    +0.000 C 
BRANCH   9  10
ATOM     10  C   UNL     1       4.553  15.873   1.502  0.00  0.00    +0.000 C 
ATOM     11  C   UNL     1       4.246  15.881   2.995  0.00  0.00    +0.000 C 
BRANCH  10  12
ATOM     12  O   UNL     1       5.613  14.935   1.272  0.00  0.00    +0.000 OA
ATOM     13  H   UNL     1       6.225  14.981   2.025  0.00  0.00    +0.000 HD
ENDBRANCH  10  12
ENDBRANCH   9  10
ENDBRANCH   1   9
BRANCH   1  14
ATOM     14  C   UNL     1       1.508  16.495  -0.763  0.00  0.00    +0.000 C 
BRANCH  14  15
ATOM     15  C   UNL     1       1.066  15.051  -1.105  0.00  0.00    +0.000 C 
ATOM     16  C   UNL     1      -0.448  14.877  -1.127  0.00  0.00    +0.000 C 
BRANCH  15  17
ATOM     17  O   UNL     1       1.577  14.628  -2.367  0.00  0.00    +0.000 OA
ATOM     18  H   UNL     1       0.828  14.724  -2.989  0.00  0.00    +0.000 HD
ENDBRANCH  15  17
ENDBRANCH  14  15
ENDBRANCH   1  14
TORSDOF 7
ENDMDL
MODEL 7
REMARK VINA RESULT:    -4.311      2.556      4.344
REMARK INTER + INTRA:          -6.356
REMARK INTER:                  -5.731
REMARK INTRA:                  -0.625
REMARK UNBOUND:                -0.533
REMARK  Name = 
REMARK  10 active torsions:
REMARK  status: ('A' for Active; 'I' for Inactive)
REMARK    1  A    between atoms: C_1  and  C_2
REMARK    2  A    between atoms: C_5  and  N_8
REMARK    3  A    between atoms: N_8  and  C_9
REMARK    4  A    between atoms: N_8  and  C_13
REMARK    5  A    between atoms: C_9  and  C_10
REMARK    6  A    between atoms: C_10  and  C_11
REMARK    7  A    between atoms: C_10  and  O_12
REMARK    8  A    between atoms: C_13  and  C_14
REMARK    9  A    between atoms: C_14  and  C_15
REMARK   10  A    between atoms: C_14  and  O_16
REMARK                            x       y       z     vdW  Elec       q    Type
REMARK                         _______ _______ _______ _____ _____    ______ ____
ROOT
ATOM      1  N   UNL     1       4.565  15.972   2.791  0.00  0.00    +0.000 N 
ENDROOT
BRANCH   1   6
ATOM      2  C   UNL     1       7.730  16.866   7.536  0.00  0.00    +0.000 C 
ATOM      3  C   UNL     1       6.916  16.610   6.305  0.00  0.00    +0.000 A 
ATOM      4  C   UNL     1       7.443  16.846   5.039  0.00  0.00    +0.000 A 
ATOM      5  C   UNL     1       6.666  16.633   3.889  0.00  0.00    +0.000 A 
ATOM      6  C   UNL     1       5.328  16.201   3.943  0.00  0.00    +0.000 A 
ATOM      7  C   UNL     1       4.829  15.971   5.239  0.00  0.00    +0.000 A 
ATOM      8  C   UNL     1       5.597  16.178   6.397  0.00  0.00    +0.000 A 
ENDBRANCH   1   6
BRANCH   1   9
ATOM      9  C   UNL     1       4.118  14.598   2.457  0.00  0.00    +0.000 C 
BRANCH   9  10
ATOM     10  C   UNL     1       5.270  13.564   2.505  0.00  0.00    +0.000 C 
ATOM     11  C   UNL     1       4.744  12.152   2.274  0.00  0.00    +0.000 C 
BRANCH  10  12
ATOM     12  O   UNL     1       6.254  13.842   1.499  0.00  0.00    +0.000 OA
ATOM     13  H   UNL     1       7.045  13.316   1.698  0.00  0.00    +0.000 HD
ENDBRANCH  10  12
ENDBRANCH   9  10
ENDBRANCH   1   9
BRANCH   1  14
ATOM     14  C   UNL     1       4.606  16.913   1.642  0.00  0.00    +0.000 C 
BRANCH  14  15
ATOM     15  C   UNL     1       4.002  16.294   0.359  0.00  0.00    +0.000 C 
ATOM     16  C   UNL     1       3.027  17.224  -0.354  0.00  0.00    +0.000 C 
BRANCH  15  17
ATOM     17  O   UNL     1       5.016  15.918  -0.572  0.00  0.00    +0.000 OA
ATOM     18  H   UNL     1       4.923  14.949  -0.670  0.00  0.00    +0.000 HD
ENDBRANCH  15  17
ENDBRANCH  14  15
ENDBRANCH   1  14
TORSDOF 7
ENDMDL
MODEL 8
REMARK VINA RESULT:    -4.207      4.109      6.295
REMARK INTER + INTRA:          -6.215
REMARK INTER:                  -5.693
REMARK INTRA:                  -0.522
REMARK UNBOUND:                -0.533
REMARK  Name = 
REMARK  10 active torsions:
REMARK  status: ('A' for Active; 'I' for Inactive)
REMARK    1  A    between atoms: C_1  and  C_2
REMARK    2  A    between atoms: C_5  and  N_8
REMARK    3  A    between atoms: N_8  and  C_9
REMARK    4  A    between atoms: N_8  and  C_13
REMARK    5  A    between atoms: C_9  and  C_10
REMARK    6  A    between atoms: C_10  and  C_11
REMARK    7  A    between atoms: C_10  and  O_12
REMARK    8  A    between atoms: C_13  and  C_14
REMARK    9  A    between atoms: C_14  and  C_15
REMARK   10  A    between atoms: C_14  and  O_16
REMARK                            x       y       z     vdW  Elec       q    Type
REMARK                         _______ _______ _______ _____ _____    ______ ____
ROOT
ATOM      1  N   UNL     1       4.186  15.147   4.463  0.00  0.00    +0.000 N 
ENDROOT
BRANCH   1   6
ATOM      2  C   UNL     1       8.295  19.178   4.018  0.00  0.00    +0.000 C 
ATOM      3  C   UNL     1       7.239  18.120   4.114  0.00  0.00    +0.000 A 
ATOM      4  C   UNL     1       6.028  18.256   3.443  0.00  0.00    +0.000 A 
ATOM      5  C   UNL     1       5.030  17.275   3.561  0.00  0.00    +0.000 A 
ATOM      6  C   UNL     1       5.178  16.131   4.366  0.00  0.00    +0.000 A 
ATOM      7  C   UNL     1       6.415  16.025   5.028  0.00  0.00    +0.000 A 
ATOM      8  C   UNL     1       7.423  16.998   4.917  0.00  0.00    +0.000 A 
ENDBRANCH   1   6
BRANCH   1   9
ATOM      9  C   UNL     1       3.111  15.274   5.477  0.00  0.00    +0.000 C 
BRANCH   9  10
ATOM     10  C   UNL     1       3.066  14.076   6.456  0.00  0.00    +0.000 C 
ATOM     11  C   UNL     1       3.801  14.402   7.751  0.00  0.00    +0.000 C 
BRANCH  10  12
ATOM     12  O   UNL     1       1.713  13.733   6.788  0.00  0.00    +0.000 OA
ATOM     13  H   UNL     1       1.690  12.790   7.022  0.00  0.00    +0.000 HD
ENDBRANCH  10  12
ENDBRANCH   9  10
ENDBRANCH   1   9
BRANCH   1  14
ATOM     14  C   UNL     1       4.423  13.765   3.973  0.00  0.00    +0.000 C 
BRANCH  14  15
ATOM     15  C   UNL     1       4.529  13.702   2.431  0.00  0.00    +0.000 C 
ATOM     16  C   UNL     1       5.947  13.929   1.918  0.00  0.00    +0.000 C 
BRANCH  15  17
ATOM     17  O   UNL     1       4.070  12.451   1.921  0.00  0.00    +0.000 OA
ATOM     18  H   UNL     1       3.224  12.285   2.384  0.00  0.00    +0.000 HD
ENDBRANCH  15  17
ENDBRANCH  14  15
ENDBRANCH   1  14
TORSDOF 7
ENDMDL
MODEL 9
REMARK VINA RESULT:    -4.205      3.668      5.327
REMARK INTER + INTRA:          -6.213
REMARK INTER:                  -5.734
REMARK INTRA:                  -0.479
REMARK UNBOUND:                -0.533
REMARK  Name = 
REMARK  10 active torsions:
REMARK  status: ('A' for Active; 'I' for Inactive)
REMARK    1  A    between atoms: C_1  and  C_2
REMARK    2  A    between atoms: C_5  and  N_8
REMARK    3  A    between atoms: N_8  and  C_9
REMARK    4  A    between atoms: N_8  and  C_13
REMARK    5  A    between atoms: C_9  and  C_10
REMARK    6  A    between atoms: C_10  and  C_11
REMARK    7  A    between atoms: C_10  and  O_12
REMARK    8  A    between atoms: C_13  and  C_14
REMARK    9  A    between atoms: C_14  and  C_15
REMARK   10  A    between atoms: C_14  and  O_16
REMARK                            x       y       z     vdW  Elec       q    Type
REMARK                         _______ _______ _______ _____ _____    ______ ____
ROOT
ATOM      1  N   UNL     1       4.412  15.423   3.968  0.00  0.00    +0.000 N 
ENDROOT
BRANCH   1   6
ATOM      2  C   UNL     1       1.785  14.216   8.965  0.00  0.00    +0.000 C 
ATOM      3  C   UNL     1       2.484  14.542   7.681  0.00  0.00    +0.000 A 
ATOM      4  C   UNL     1       2.125  15.661   6.937  0.00  0.00    +0.000 A 
ATOM      5  C   UNL     1       2.764  15.946   5.718  0.00  0.00    +0.000 A 
ATOM      6  C   UNL     1       3.766  15.123   5.174  0.00  0.00    +0.000 A 
ATOM      7  C   UNL     1       4.104  14.002   5.954  0.00  0.00    +0.000 A 
ATOM      8  C   UNL     1       3.476  13.707   7.175  0.00  0.00    +0.000 A 
ENDBRANCH   1   6
BRANCH   1   9
ATOM      9  C   UNL     1       5.748  14.850   3.677  0.00  0.00    +0.000 C 
BRANCH   9  10
ATOM     10  C   UNL     1       5.748  13.926   2.435  0.00  0.00    +0.000 C 
ATOM     11  C   UNL     1       4.536  13.001   2.443  0.00  0.00    +0.000 C 
BRANCH  10  12
ATOM     12  O   UNL     1       5.713  14.693   1.223  0.00  0.00    +0.000 OA
ATOM     13  H   UNL     1       6.168  15.536   1.387  0.00  0.00    +0.000 HD
ENDBRANCH  10  12
ENDBRANCH   9  10
ENDBRANCH   1   9
BRANCH   1  14
ATOM     14  C   UNL     1       4.080  16.652   3.203  0.00  0.00    +0.000 C 
BRANCH  14  15
ATOM     15  C   UNL     1       5.251  17.664   3.188  0.00  0.00    +0.000 C 
ATOM     16  C   UNL     1       5.368  18.427   1.874  0.00  0.00    +0.000 C 
BRANCH  15  17
ATOM     17  O   UNL     1       5.137  18.618   4.243  0.00  0.00    +0.000 OA
ATOM     18  H   UNL     1       5.788  19.315   4.025  0.00  0.00    +0.000 HD
ENDBRANCH  15  17
ENDBRANCH  14  15
ENDBRANCH   1  14
TORSDOF 7
ENDMDL
