MODEL 1
REMARK VINA RESULT:    -3.610      0.000      0.000
REMARK INTER + INTRA:          -3.978
REMARK INTER:                  -3.926
REMARK INTRA:                  -0.052
REMARK UNBOUND:                -0.052
REMARK  Name = 
REMARK  3 active torsions:
REMARK  status: ('A' for Active; 'I' for Inactive)
REMARK    1  A    between atoms: C_1  and  O_2
REMARK    2  A    between atoms: O_2  and  C_3
REMARK    3  A    between atoms: C_8  and  O_9
REMARK                            x       y       z     vdW  Elec       q    Type
REMARK                         _______ _______ _______ _____ _____    ______ ____
ROOT
ATOM      1  C   UNL     1      -0.172  21.817  -7.913  0.00  0.00    +0.000 A 
ATOM      2  C   UNL     1      -0.351  22.172  -6.577  0.00  0.00    +0.000 A 
ATOM      3  C   UNL     1      -0.151  21.221  -5.568  0.00  0.00    +0.000 A 
ATOM      4  C   UNL     1       0.226  19.916  -5.889  0.00  0.00    +0.000 A 
ATOM      5  C   UNL     1       0.407  19.554  -7.222  0.00  0.00    +0.000 A 
ATOM      6  C   UNL     1       0.207  20.503  -8.216  0.00  0.00    +0.000 A 
ENDROOT
BRANCH   1   8
ATOM      7  C   UNL     1       0.522  23.775  -9.067  0.00  0.00    +0.000 C 
ATOM      8  O   UNL     1      -0.332  22.639  -8.999  0.00  0.00    +0.000 OA
ENDBRANCH   1   8
BRANCH   6   9
ATOM      9  O   UNL     1       0.391  20.123  -9.519  0.00  0.00    +0.000 OA
ATOM     10  H   UNL     1      -0.109  19.290  -9.608  0.00  0.00    +0.000 HD
ENDBRANCH   6   9
TORSDOF 2
ENDMDL
MODEL 2
REMARK VINA RESULT:    -3.487      2.910      3.546
REMARK INTER + INTRA:          -3.845
REMARK INTER:                  -3.797
REMARK INTRA:                  -0.048
REMARK UNBOUND:                -0.052
REMARK  Name = 
REMARK  3 active torsions:
REMARK  status: ('A' for Active; 'I' for Inactive)
REMARK    1  A    between atoms: C_1  and  O_2
REMARK    2  A    between atoms: O_2  and  C_3
REMARK    3  A    between atoms: C_8  and  O_9
REMARK                            x       y       z     vdW  Elec       q    Type
REMARK                         _______ _______ _______ _____ _____    ______ ____
ROOT
ATOM      1  C   UNL     1      -0.866  19.148  -6.625  0.00  0.00    +0.000 A 
ATOM      2  C   UNL     1      -1.908  20.005  -6.271  0.00  0.00    +0.000 A 
ATOM      3  C   UNL     1      -3.085  19.484  -5.719  0.00  0.00    +0.000 A 
ATOM      4  C   UNL     1      -3.225  18.109  -5.519  0.00  0.00    +0.000 A 
ATOM      5  C   UNL     1      -2.189  17.247  -5.870  0.00  0.00    +0.000 A 
ATOM      6  C   UNL     1      -1.025  17.773  -6.417  0.00  0.00    +0.000 A 
ENDROOT
BRANCH   1   8
ATOM      7  C   UNL     1       0.283  20.421  -8.270  0.00  0.00    +0.000 C 
ATOM      8  O   UNL     1       0.336  19.517  -7.173  0.00  0.00    +0.000 OA
ENDBRANCH   1   8
BRANCH   6   9
ATOM      9  O   UNL     1      -0.020  16.906  -6.754  0.00  0.00    +0.000 OA
ATOM     10  H   UNL     1      -0.446  16.244  -7.332  0.00  0.00    +0.000 HD
ENDBRANCH   6   9
TORSDOF 2
ENDMDL
MODEL 3
REMARK VINA RESULT:    -3.486      3.053      4.290
REMARK INTER + INTRA:          -3.844
REMARK INTER:                  -3.795
REMARK INTRA:                  -0.049
REMARK UNBOUND:                -0.052
REMARK  Name = 
REMARK  3 active torsions:
REMARK  status: ('A' for Active; 'I' for Inactive)
REMARK    1  A    between atoms: C_1  and  O_2
REMARK    2  A    between atoms: O_2  and  C_3
REMARK    3  A    between atoms: C_8  and  O_9
REMARK                            x       y       z     vdW  Elec       q    Type
REMARK                         _______ _______ _______ _____ _____    ______ ____
ROOT
ATOM      1  C   UNL     1      -1.948  18.626  -6.286  0.00  0.00    +0.000 A 
ATOM      2  C   UNL     1      -2.384  19.908  -5.957  0.00  0.00    +0.000 A 
ATOM      3  C   UNL     1      -1.459  20.953  -5.836  0.00  0.00    +0.000 A 
ATOM      4  C   UNL     1      -0.098  20.720  -6.041  0.00  0.00    +0.000 A 
ATOM      5  C   UNL     1       0.346  19.441  -6.370  0.00  0.00    +0.000 A 
ATOM      6  C   UNL     1      -0.578  18.411  -6.488  0.00  0.00    +0.000 A 
ENDROOT
BRANCH   1   8
ATOM      7  C   UNL     1      -3.656  17.241  -5.386  0.00  0.00    +0.000 C 
ATOM      8  O   UNL     1      -2.737  17.514  -6.437  0.00  0.00    +0.000 OA
ENDBRANCH   1   8
BRANCH   6   9
ATOM      9  O   UNL     1      -0.118  17.163  -6.812  0.00  0.00    +0.000 OA
ATOM     10  H   UNL     1       0.836  17.286  -6.979  0.00  0.00    +0.000 HD
ENDBRANCH   6   9
TORSDOF 2
ENDMDL
MODEL 4
REMARK VINA RESULT:    -3.475      1.280      3.118
REMARK INTER + INTRA:          -3.831
REMARK INTER:                  -3.780
REMARK INTRA:                  -0.051
REMARK UNBOUND:                -0.052
REMARK  Name = 
REMARK  3 active torsions:
REMARK  status: ('A' for Active; 'I' for Inactive)
REMARK    1  A    between atoms: C_1  and  O_2
REMARK    2  A    between atoms: O_2  and  C_3
REMARK    3  A    between atoms: C_8  and  O_9
REMARK                            x       y       z     vdW  Elec       q    Type
REMARK                         _______ _______ _______ _____ _____    ______ ____
ROOT
ATOM      1  C   UNL     1       0.101  20.199  -7.035  0.00  0.00    +0.000 A 
ATOM      2  C   UNL     1      -0.150  21.006  -5.925  0.00  0.00    +0.000 A 
ATOM      3  C   UNL     1      -0.385  22.376  -6.096  0.00  0.00    +0.000 A 
ATOM      4  C   UNL     1      -0.370  22.944  -7.371  0.00  0.00    +0.000 A 
ATOM      5  C   UNL     1      -0.122  22.144  -8.484  0.00  0.00    +0.000 A 
ATOM      6  C   UNL     1       0.111  20.786  -8.306  0.00  0.00    +0.000 A 
ENDROOT
BRANCH   1   8
ATOM      7  C   UNL     1      -0.655  18.030  -6.428  0.00  0.00    +0.000 C 
ATOM      8  O   UNL     1       0.347  18.850  -7.017  0.00  0.00    +0.000 OA
ENDBRANCH   1   8
BRANCH   6   9
ATOM      9  O   UNL     1       0.353  20.021  -9.415  0.00  0.00    +0.000 OA
ATOM     10  H   UNL     1      -0.531  19.833  -9.785  0.00  0.00    +0.000 HD
ENDBRANCH   6   9
TORSDOF 2
ENDMDL
MODEL 5
REMARK VINA RESULT:    -3.409     15.132     16.236
REMARK INTER + INTRA:          -3.760
REMARK INTER:                  -3.708
REMARK INTRA:                  -0.053
REMARK UNBOUND:                -0.052
REMARK  Name = 
REMARK  3 active torsions:
REMARK  status: ('A' for Active; 'I' for Inactive)
REMARK    1  A    between atoms: C_1  and  O_2
REMARK    2  A    between atoms: O_2  and  C_3
REMARK    3  A    between atoms: C_8  and  O_9
REMARK                            x       y       z     vdW  Elec       q    Type
REMARK                         _______ _______ _______ _____ _____    ______ ____
ROOT
ATOM      1  C   UNL     1       7.836  21.173   6.659  0.00  0.00    +0.000 A 
ATOM      2  C   UNL     1       9.120  21.447   7.128  0.00  0.00    +0.000 A 
ATOM      3  C   UNL     1      10.032  22.130   6.313  0.00  0.00    +0.000 A 
ATOM      4  C   UNL     1       9.666  22.539   5.030  0.00  0.00    +0.000 A 
ATOM      5  C   UNL     1       8.385  22.269   4.554  0.00  0.00    +0.000 A 
ATOM      6  C   UNL     1       7.487  21.591   5.369  0.00  0.00    +0.000 A 
ENDROOT
BRANCH   1   8
ATOM      7  C   UNL     1       7.062  19.134   7.601  0.00  0.00    +0.000 C 
ATOM      8  O   UNL     1       6.846  20.516   7.343  0.00  0.00    +0.000 OA
ENDBRANCH   1   8
BRANCH   6   9
ATOM      9  O   UNL     1       6.234  21.337   4.879  0.00  0.00    +0.000 OA
ATOM     10  H   UNL     1       6.220  20.374   4.719  0.00  0.00    +0.000 HD
ENDBRANCH   6   9
TORSDOF 2
ENDMDL
MODEL 6
REMARK VINA RESULT:    -3.391      4.764      5.447
REMARK INTER + INTRA:          -3.740
REMARK INTER:                  -3.695
REMARK INTRA:                  -0.045
REMARK UNBOUND:                -0.052
REMARK  Name = 
REMARK  3 active torsions:
REMARK  status: ('A' for Active; 'I' for Inactive)
REMARK    1  A    between atoms: C_1  and  O_2
REMARK    2  A    between atoms: O_2  and  C_3
REMARK    3  A    between atoms: C_8  and  O_9
REMARK                            x       y       z     vdW  Elec       q    Type
REMARK                         _______ _______ _______ _____ _____    ______ ____
ROOT
ATOM      1  C   UNL     1      -3.589  18.638  -5.672  0.00  0.00    +0.000 A 
ATOM      2  C   UNL     1      -2.733  19.452  -6.412  0.00  0.00    +0.000 A 
ATOM      3  C   UNL     1      -1.439  19.011  -6.718  0.00  0.00    +0.000 A 
ATOM      4  C   UNL     1      -0.997  17.759  -6.285  0.00  0.00    +0.000 A 
ATOM      5  C   UNL     1      -1.847  16.940  -5.545  0.00  0.00    +0.000 A 
ATOM      6  C   UNL     1      -3.129  17.386  -5.246  0.00  0.00    +0.000 A 
ENDROOT
BRANCH   1   8
ATOM      7  C   UNL     1      -5.691  19.561  -6.286  0.00  0.00    +0.000 C 
ATOM      8  O   UNL     1      -4.875  18.939  -5.301  0.00  0.00    +0.000 OA
ENDBRANCH   1   8
BRANCH   6   9
ATOM      9  O   UNL     1      -3.946  16.563  -4.518  0.00  0.00    +0.000 OA
ATOM     10  H   UNL     1      -3.491  15.699  -4.517  0.00  0.00    +0.000 HD
ENDBRANCH   6   9
TORSDOF 2
ENDMDL
MODEL 7
REMARK VINA RESULT:    -3.343      2.771      3.790
REMARK INTER + INTRA:          -3.688
REMARK INTER:                  -3.647
REMARK INTRA:                  -0.042
REMARK UNBOUND:                -0.052
REMARK  Name = 
REMARK  3 active torsions:
REMARK  status: ('A' for Active; 'I' for Inactive)
REMARK    1  A    between atoms: C_1  and  O_2
REMARK    2  A    between atoms: O_2  and  C_3
REMARK    3  A    between atoms: C_8  and  O_9
REMARK                            x       y       z     vdW  Elec       q    Type
REMARK                         _______ _______ _______ _____ _____    ______ ____
ROOT
ATOM      1  C   UNL     1      -2.126  20.267  -6.023  0.00  0.00    +0.000 A 
ATOM      2  C   UNL     1      -2.426  18.916  -6.186  0.00  0.00    +0.000 A 
ATOM      3  C   UNL     1      -1.393  17.983  -6.340  0.00  0.00    +0.000 A 
ATOM      4  C   UNL     1      -0.059  18.397  -6.334  0.00  0.00    +0.000 A 
ATOM      5  C   UNL     1       0.248  19.746  -6.171  0.00  0.00    +0.000 A 
ATOM      6  C   UNL     1      -0.783  20.664  -6.019  0.00  0.00    +0.000 A 
ENDROOT
BRANCH   1   8
ATOM      7  C   UNL     1      -4.232  20.964  -5.170  0.00  0.00    +0.000 C 
ATOM      8  O   UNL     1      -3.032  21.286  -5.863  0.00  0.00    +0.000 OA
ENDBRANCH   1   8
BRANCH   6   9
ATOM      9  O   UNL     1      -0.456  21.984  -5.861  0.00  0.00    +0.000 OA
ATOM     10  H   UNL     1      -1.237  22.384  -5.433  0.00  0.00    +0.000 HD
ENDBRANCH   6   9
TORSDOF 2
ENDMDL
MODEL 8
REMARK VINA RESULT:    -3.301      3.800      5.109
REMARK INTER + INTRA:          -3.642
REMARK INTER:                  -3.604
REMARK INTRA:                  -0.038
REMARK UNBOUND:                -0.052
REMARK  Name = 
REMARK  3 active torsions:
REMARK  status: ('A' for Active; 'I' for Inactive)
REMARK    1  A    between atoms: C_1  and  O_2
REMARK    2  A    between atoms: O_2  and  C_3
REMARK    3  A    between atoms: C_8  and  O_9
REMARK                            x       y       z     vdW  Elec       q    Type
REMARK                         _______ _______ _______ _____ _____    ______ ____
ROOT
ATOM      1  C   UNL     1      -2.749  18.398  -5.828  0.00  0.00    +0.000 A 
ATOM      2  C   UNL     1      -1.879  17.323  -6.004  0.00  0.00    +0.000 A 
ATOM      3  C   UNL     1      -0.544  17.554  -6.359  0.00  0.00    +0.000 A 
ATOM      4  C   UNL     1      -0.075  18.856  -6.539  0.00  0.00    +0.000 A 
ATOM      5  C   UNL     1      -0.938  19.936  -6.364  0.00  0.00    +0.000 A 
ATOM      6  C   UNL     1      -2.261  19.697  -6.013  0.00  0.00    +0.000 A 
ENDROOT
BRANCH   1   8
ATOM      7  C   UNL     1      -4.673  17.031  -5.546  0.00  0.00    +0.000 C 
ATOM      8  O   UNL     1      -4.075  18.321  -5.483  0.00  0.00    +0.000 OA
ENDBRANCH   1   8
BRANCH   6   9
ATOM      9  O   UNL     1      -3.090  20.774  -5.846  0.00  0.00    +0.000 OA
ATOM     10  H   UNL     1      -3.991  20.411  -5.939  0.00  0.00    +0.000 HD
ENDBRANCH   6   9
TORSDOF 2
ENDMDL
MODEL 9
REMARK VINA RESULT:    -3.261     14.872     15.784
REMARK INTER + INTRA:          -3.599
REMARK INTER:                  -3.547
REMARK INTRA:                  -0.052
REMARK UNBOUND:                -0.052
REMARK  Name = 
REMARK  3 active torsions:
REMARK  status: ('A' for Active; 'I' for Inactive)
REMARK    1  A    between atoms: C_1  and  O_2
REMARK    2  A    between atoms: O_2  and  C_3
REMARK    3  A    between atoms: C_8  and  O_9
REMARK                            x       y       z     vdW  Elec       q    Type
REMARK                         _______ _______ _______ _____ _____    ______ ____
ROOT
ATOM      1  C   UNL     1       8.448  22.172   5.356  0.00  0.00    +0.000 A 
ATOM      2  C   UNL     1       9.534  22.131   6.230  0.00  0.00    +0.000 A 
ATOM      3  C   UNL     1       9.491  21.307   7.362  0.00  0.00    +0.000 A 
ATOM      4  C   UNL     1       8.366  20.523   7.624  0.00  0.00    +0.000 A 
ATOM      5  C   UNL     1       7.277  20.558   6.756  0.00  0.00    +0.000 A 
ATOM      6  C   UNL     1       7.328  21.378   5.636  0.00  0.00    +0.000 A 
ENDROOT
BRANCH   1   8
ATOM      7  C   UNL     1       8.357  24.340   4.390  0.00  0.00    +0.000 C 
ATOM      8  O   UNL     1       8.352  22.929   4.216  0.00  0.00    +0.000 OA
ENDBRANCH   1   8
BRANCH   6   9
ATOM      9  O   UNL     1       6.246  21.395   4.797  0.00  0.00    +0.000 OA
ATOM     10  H   UNL     1       6.113  22.338   4.582  0.00  0.00    +0.000 HD
ENDBRANCH   6   9
TORSDOF 2
ENDMDL
