MODEL 1
REMARK VINA RESULT:    -4.796      0.000      0.000
REMARK INTER + INTRA:          -7.082
REMARK INTER:                  -6.478
REMARK INTRA:                  -0.604
REMARK UNBOUND:                -0.604
REMARK  Name = 
REMARK  10 active torsions:
REMARK  status: ('A' for Active; 'I' for Inactive)
REMARK    1  A    between atoms: C_1  and  C_2
REMARK    2  A    between atoms: C_5  and  N_8
REMARK    3  A    between atoms: N_8  and  C_9
REMARK    4  A    between atoms: N_8  and  C_13
REMARK    5  A    between atoms: C_9  and  C_10
REMARK    6  A    between atoms: C_10  and  C_11
REMARK    7  A    between atoms: C_10  and  O_12
REMARK    8  A    between atoms: C_13  and  C_14
REMARK    9  A    between atoms: C_14  and  C_15
REMARK   10  A    between atoms: C_14  and  O_16
REMARK                            x       y       z     vdW  Elec       q    Type
REMARK                         _______ _______ _______ _____ _____    ______ ____
ROOT
ATOM      1  N   UNL     1       6.825  14.609   1.468  0.00  0.00    +0.000 N 
ENDROOT
BRANCH   1   6
ATOM      2  C   UNL     1       2.910  16.612   5.209  0.00  0.00    +0.000 C 
ATOM      3  C   UNL     1       3.943  16.094   4.256  0.00  0.00    +0.000 A 
ATOM      4  C   UNL     1       4.634  16.958   3.413  0.00  0.00    +0.000 A 
ATOM      5  C   UNL     1       5.580  16.464   2.500  0.00  0.00    +0.000 A 
ATOM      6  C   UNL     1       5.866  15.093   2.367  0.00  0.00    +0.000 A 
ATOM      7  C   UNL     1       5.151  14.249   3.236  0.00  0.00    +0.000 A 
ATOM      8  C   UNL     1       4.203  14.731   4.155  0.00  0.00    +0.000 A 
ENDBRANCH   1   6
BRANCH   1   9
ATOM      9  C   UNL     1       7.765  13.542   1.888  0.00  0.00    +0.000 C 
BRANCH   9  10
ATOM     10  C   UNL     1       8.862  14.055   2.854  0.00  0.00    +0.000 C 
ATOM     11  C   UNL     1       8.729  13.402   4.224  0.00  0.00    +0.000 C 
BRANCH  10  12
ATOM     12  O   UNL     1      10.171  13.762   2.347  0.00  0.00    +0.000 OA
ATOM     13  H   UNL     1      10.782  13.714   3.101  0.00  0.00    +0.000 HD
ENDBRANCH  10  12
ENDBRANCH   9  10
ENDBRANCH   1   9
BRANCH   1  14
ATOM     14  C   UNL     1       7.284  15.430   0.318  0.00  0.00    +0.000 C 
BRANCH  14  15
ATOM     15  C   UNL     1       6.361  15.278  -0.914  0.00  0.00    +0.000 C 
ATOM     16  C   UNL     1       5.583  16.547  -1.241  0.00  0.00    +0.000 C 
BRANCH  15  17
ATOM     17  O   UNL     1       7.093  14.896  -2.078  0.00  0.00    +0.000 OA
ATOM     18  H   UNL     1       6.451  14.406  -2.631  0.00  0.00    +0.000 HD
ENDBRANCH  15  17
ENDBRANCH  14  15
ENDBRANCH   1  14
TORSDOF 7
ENDMDL
MODEL 2
REMARK VINA RESULT:    -4.732      2.795      5.979
REMARK INTER + INTRA:          -6.996
REMARK INTER:                  -6.528
REMARK INTRA:                  -0.468
REMARK UNBOUND:                -0.604
REMARK  Name = 
REMARK  10 active torsions:
REMARK  status: ('A' for Active; 'I' for Inactive)
REMARK    1  A    between atoms: C_1  and  C_2
REMARK    2  A    between atoms: C_5  and  N_8
REMARK    3  A    between atoms: N_8  and  C_9
REMARK    4  A    between atoms: N_8  and  C_13
REMARK    5  A    between atoms: C_9  and  C_10
REMARK    6  A    between atoms: C_10  and  C_11
REMARK    7  A    between atoms: C_10  and  O_12
REMARK    8  A    between atoms: C_13  and  C_14
REMARK    9  A    between atoms: C_14  and  C_15
REMARK   10  A    between atoms: C_14  and  O_16
REMARK                            x       y       z     vdW  Elec       q    Type
REMARK                         _______ _______ _______ _____ _____    ______ ____
ROOT
ATOM      1  N   UNL     1       6.144  16.625   0.041  0.00  0.00    +0.000 N 
ENDROOT
BRANCH   1   6
ATOM      2  C   UNL     1       7.671  20.173  -4.250  0.00  0.00    +0.000 C 
ATOM      3  C   UNL     1       7.297  19.241  -3.138  0.00  0.00    +0.000 A 
ATOM      4  C   UNL     1       6.626  18.051  -3.399  0.00  0.00    +0.000 A 
ATOM      5  C   UNL     1       6.251  17.195  -2.350  0.00  0.00    +0.000 A 
ATOM      6  C   UNL     1       6.503  17.492  -0.999  0.00  0.00    +0.000 A 
ATOM      7  C   UNL     1       7.185  18.702  -0.772  0.00  0.00    +0.000 A 
ATOM      8  C   UNL     1       7.567  19.566  -1.812  0.00  0.00    +0.000 A 
ENDBRANCH   1   6
BRANCH   1   9
ATOM      9  C   UNL     1       6.149  17.104   1.444  0.00  0.00    +0.000 C 
BRANCH   9  10
ATOM     10  C   UNL     1       4.724  17.340   2.002  0.00  0.00    +0.000 C 
ATOM     11  C   UNL     1       4.683  17.105   3.508  0.00  0.00    +0.000 C 
BRANCH  10  12
ATOM     12  O   UNL     1       4.289  18.683   1.751  0.00  0.00    +0.000 OA
ATOM     13  H   UNL     1       5.027  19.282   1.954  0.00  0.00    +0.000 HD
ENDBRANCH  10  12
ENDBRANCH   9  10
ENDBRANCH   1   9
BRANCH   1  14
ATOM     14  C   UNL     1       6.249  15.152  -0.116  0.00  0.00    +0.000 C 
BRANCH  14  15
ATOM     15  C   UNL     1       7.696  14.643   0.093  0.00  0.00    +0.000 C 
ATOM     16  C   UNL     1       7.813  13.607   1.204  0.00  0.00    +0.000 C 
BRANCH  15  17
ATOM     17  O   UNL     1       8.232  14.074  -1.101  0.00  0.00    +0.000 OA
ATOM     18  H   UNL     1       9.146  14.420  -1.157  0.00  0.00    +0.000 HD
ENDBRANCH  15  17
ENDBRANCH  14  15
ENDBRANCH   1  14
TORSDOF 7
ENDMDL
MODEL 3
REMARK VINA RESULT:    -4.684      3.089      6.108
REMARK INTER + INTRA:          -6.932
REMARK INTER:                  -6.420
REMARK INTRA:                  -0.512
REMARK UNBOUND:                -0.604
REMARK  Name = 
REMARK  10 active torsions:
REMARK  status: ('A' for Active; 'I' for Inactive)
REMARK    1  A    between atoms: C_1  and  C_2
REMARK    2  A    between atoms: C_5  and  N_8
REMARK    3  A    between atoms: N_8  and  C_9
REMARK    4  A    between atoms: N_8  and  C_13
REMARK    5  A    between atoms: C_9  and  C_10
REMARK    6  A    between atoms: C_10  and  C_11
REMARK    7  A    between atoms: C_10  and  O_12
REMARK    8  A    between atoms: C_13  and  C_14
REMARK    9  A    between atoms: C_14  and  C_15
REMARK   10  A    between atoms: C_14  and  O_16
REMARK                            x       y       z     vdW  Elec       q    Type
REMARK                         _______ _______ _______ _____ _____    ______ ____
ROOT
ATOM      1  N   UNL     1       6.624  17.190  -0.277  0.00  0.00    +0.000 N 
ENDROOT
BRANCH   1   6
ATOM      2  C   UNL     1       7.036  20.537  -4.963  0.00  0.00    +0.000 C 
ATOM      3  C   UNL     1       6.953  19.662  -3.750  0.00  0.00    +0.000 A 
ATOM      4  C   UNL     1       6.540  18.337  -3.851  0.00  0.00    +0.000 A 
ATOM      5  C   UNL     1       6.435  17.530  -2.706  0.00  0.00    +0.000 A 
ATOM      6  C   UNL     1       6.712  18.006  -1.412  0.00  0.00    +0.000 A 
ATOM      7  C   UNL     1       7.128  19.349  -1.347  0.00  0.00    +0.000 A 
ATOM      8  C   UNL     1       7.239  20.166  -2.484  0.00  0.00    +0.000 A 
ENDBRANCH   1   6
BRANCH   1   9
ATOM      9  C   UNL     1       6.395  15.733  -0.425  0.00  0.00    +0.000 C 
BRANCH   9  10
ATOM     10  C   UNL     1       7.568  14.882   0.120  0.00  0.00    +0.000 C 
ATOM     11  C   UNL     1       7.080  13.882   1.161  0.00  0.00    +0.000 C 
BRANCH  10  12
ATOM     12  O   UNL     1       8.206  14.150  -0.935  0.00  0.00    +0.000 OA
ATOM     13  H   UNL     1       7.513  13.787  -1.512  0.00  0.00    +0.000 HD
ENDBRANCH  10  12
ENDBRANCH   9  10
ENDBRANCH   1   9
BRANCH   1  14
ATOM     14  C   UNL     1       6.245  17.751   1.046  0.00  0.00    +0.000 C 
BRANCH  14  15
ATOM     15  C   UNL     1       4.822  17.320   1.477  0.00  0.00    +0.000 C 
ATOM     16  C   UNL     1       4.787  16.657   2.849  0.00  0.00    +0.000 C 
BRANCH  15  17
ATOM     17  O   UNL     1       3.920  18.425   1.497  0.00  0.00    +0.000 OA
ATOM     18  H   UNL     1       4.490  19.214   1.598  0.00  0.00    +0.000 HD
ENDBRANCH  15  17
ENDBRANCH  14  15
ENDBRANCH   1  14
TORSDOF 7
ENDMDL
MODEL 4
REMARK VINA RESULT:    -4.633      3.605      6.814
REMARK INTER + INTRA:          -6.862
REMARK INTER:                  -6.345
REMARK INTRA:                  -0.517
REMARK UNBOUND:                -0.604
REMARK  Name = 
REMARK  10 active torsions:
REMARK  status: ('A' for Active; 'I' for Inactive)
REMARK    1  A    between atoms: C_1  and  C_2
REMARK    2  A    between atoms: C_5  and  N_8
REMARK    3  A    between atoms: N_8  and  C_9
REMARK    4  A    between atoms: N_8  and  C_13
REMARK    5  A    between atoms: C_9  and  C_10
REMARK    6  A    between atoms: C_10  and  C_11
REMARK    7  A    between atoms: C_10  and  O_12
REMARK    8  A    between atoms: C_13  and  C_14
REMARK    9  A    between atoms: C_14  and  C_15
REMARK   10  A    between atoms: C_14  and  O_16
REMARK                            x       y       z     vdW  Elec       q    Type
REMARK                         _______ _______ _______ _____ _____    ______ ____
ROOT
ATOM      1  N   UNL     1       6.816  18.041  -0.872  0.00  0.00    +0.000 N 
ENDROOT
BRANCH   1   6
ATOM      2  C   UNL     1       7.342  20.576  -6.032  0.00  0.00    +0.000 C 
ATOM      3  C   UNL     1       7.182  19.928  -4.690  0.00  0.00    +0.000 A 
ATOM      4  C   UNL     1       7.644  20.553  -3.536  0.00  0.00    +0.000 A 
ATOM      5  C   UNL     1       7.519  19.928  -2.285  0.00  0.00    +0.000 A 
ATOM      6  C   UNL     1       6.954  18.650  -2.125  0.00  0.00    +0.000 A 
ATOM      7  C   UNL     1       6.497  18.049  -3.312  0.00  0.00    +0.000 A 
ATOM      8  C   UNL     1       6.613  18.664  -4.570  0.00  0.00    +0.000 A 
ENDBRANCH   1   6
BRANCH   1   9
ATOM      9  C   UNL     1       5.887  16.897  -0.699  0.00  0.00    +0.000 C 
BRANCH   9  10
ATOM     10  C   UNL     1       6.624  15.559  -0.450  0.00  0.00    +0.000 C 
ATOM     11  C   UNL     1       5.734  14.579   0.305  0.00  0.00    +0.000 C 
BRANCH  10  12
ATOM     12  O   UNL     1       7.009  14.945  -1.688  0.00  0.00    +0.000 OA
ATOM     13  H   UNL     1       6.420  15.278  -2.386  0.00  0.00    +0.000 HD
ENDBRANCH  10  12
ENDBRANCH   9  10
ENDBRANCH   1   9
BRANCH   1  14
ATOM     14  C   UNL     1       7.145  18.772   0.379  0.00  0.00    +0.000 C 
BRANCH  14  15
ATOM     15  C   UNL     1       8.515  18.348   0.960  0.00  0.00    +0.000 C 
ATOM     16  C   UNL     1       8.396  17.483   2.209  0.00  0.00    +0.000 C 
BRANCH  15  17
ATOM     17  O   UNL     1       9.296  17.636   0.002  0.00  0.00    +0.000 OA
ATOM     18  H   UNL     1       8.837  17.772  -0.851  0.00  0.00    +0.000 HD
ENDBRANCH  15  17
ENDBRANCH  14  15
ENDBRANCH   1  14
TORSDOF 7
ENDMDL
MODEL 5
REMARK VINA RESULT:    -4.612      0.500      3.709
REMARK INTER + INTRA:          -6.834
REMARK INTER:                  -6.200
REMARK INTRA:                  -0.633
REMARK UNBOUND:                -0.604
REMARK  Name = 
REMARK  10 active torsions:
REMARK  status: ('A' for Active; 'I' for Inactive)
REMARK    1  A    between atoms: C_1  and  C_2
REMARK    2  A    between atoms: C_5  and  N_8
REMARK    3  A    between atoms: N_8  and  C_9
REMARK    4  A    between atoms: N_8  and  C_13
REMARK    5  A    between atoms: C_9  and  C_10
REMARK    6  A    between atoms: C_10  and  C_11
REMARK    7  A    between atoms: C_10  and  O_12
REMARK    8  A    between atoms: C_13  and  C_14
REMARK    9  A    between atoms: C_14  and  C_15
REMARK   10  A    between atoms: C_14  and  O_16
REMARK                            x       y       z     vdW  Elec       q    Type
REMARK                         _______ _______ _______ _____ _____    ______ ____
ROOT
ATOM      1  N   UNL     1       7.298  15.210   1.744  0.00  0.00    +0.000 N 
ENDROOT
BRANCH   1   6
ATOM      2  C   UNL     1       2.828  16.064   5.296  0.00  0.00    +0.000 C 
ATOM      3  C   UNL     1       4.003  15.841   4.394  0.00  0.00    +0.000 A 
ATOM      4  C   UNL     1       4.739  16.913   3.901  0.00  0.00    +0.000 A 
ATOM      5  C   UNL     1       5.822  16.699   3.032  0.00  0.00    +0.000 A 
ATOM      6  C   UNL     1       6.206  15.418   2.596  0.00  0.00    +0.000 A 
ATOM      7  C   UNL     1       5.440  14.358   3.115  0.00  0.00    +0.000 A 
ATOM      8  C   UNL     1       4.357  14.558   3.987  0.00  0.00    +0.000 A 
ENDBRANCH   1   6
BRANCH   1   9
ATOM      9  C   UNL     1       7.322  15.835   0.400  0.00  0.00    +0.000 C 
BRANCH   9  10
ATOM     10  C   UNL     1       6.347  15.158  -0.594  0.00  0.00    +0.000 C 
ATOM     11  C   UNL     1       5.115  16.025  -0.825  0.00  0.00    +0.000 C 
BRANCH  10  12
ATOM     12  O   UNL     1       6.978  14.936  -1.863  0.00  0.00    +0.000 OA
ATOM     13  H   UNL     1       7.894  15.254  -1.804  0.00  0.00    +0.000 HD
ENDBRANCH  10  12
ENDBRANCH   9  10
ENDBRANCH   1   9
BRANCH   1  14
ATOM     14  C   UNL     1       8.176  14.022   1.896  0.00  0.00    +0.000 C 
BRANCH  14  15
ATOM     15  C   UNL     1       9.220  14.207   3.023  0.00  0.00    +0.000 C 
ATOM     16  C   UNL     1       8.876  13.436   4.292  0.00  0.00    +0.000 C 
BRANCH  15  17
ATOM     17  O   UNL     1      10.525  13.808   2.605  0.00  0.00    +0.000 OA
ATOM     18  H   UNL     1      10.756  14.421   1.878  0.00  0.00    +0.000 HD
ENDBRANCH  15  17
ENDBRANCH  14  15
ENDBRANCH   1  14
TORSDOF 7
ENDMDL
MODEL 6
REMARK VINA RESULT:    -4.573      2.399      4.810
REMARK INTER + INTRA:          -6.781
REMARK INTER:                  -6.221
REMARK INTRA:                  -0.559
REMARK UNBOUND:                -0.604
REMARK  Name = 
REMARK  10 active torsions:
REMARK  status: ('A' for Active; 'I' for Inactive)
REMARK    1  A    between atoms: C_1  and  C_2
REMARK    2  A    between atoms: C_5  and  N_8
REMARK    3  A    between atoms: N_8  and  C_9
REMARK    4  A    between atoms: N_8  and  C_13
REMARK    5  A    between atoms: C_9  and  C_10
REMARK    6  A    between atoms: C_10  and  C_11
REMARK    7  A    between atoms: C_10  and  O_12
REMARK    8  A    between atoms: C_13  and  C_14
REMARK    9  A    between atoms: C_14  and  C_15
REMARK   10  A    between atoms: C_14  and  O_16
REMARK                            x       y       z     vdW  Elec       q    Type
REMARK                         _______ _______ _______ _____ _____    ______ ____
ROOT
ATOM      1  N   UNL     1       5.528  15.191   1.369  0.00  0.00    +0.000 N 
ENDROOT
BRANCH   1   6
ATOM      2  C   UNL     1       6.939  19.104  -2.635  0.00  0.00    +0.000 C 
ATOM      3  C   UNL     1       6.596  18.079  -1.597  0.00  0.00    +0.000 A 
ATOM      4  C   UNL     1       6.024  16.863  -1.956  0.00  0.00    +0.000 A 
ATOM      5  C   UNL     1       5.677  15.918  -0.977  0.00  0.00    +0.000 A 
ATOM      6  C   UNL     1       5.858  16.146   0.399  0.00  0.00    +0.000 A 
ATOM      7  C   UNL     1       6.441  17.385   0.725  0.00  0.00    +0.000 A 
ATOM      8  C   UNL     1       6.795  18.337  -0.244  0.00  0.00    +0.000 A 
ENDBRANCH   1   6
BRANCH   1   9
ATOM      9  C   UNL     1       4.964  15.620   2.672  0.00  0.00    +0.000 C 
BRANCH   9  10
ATOM     10  C   UNL     1       5.169  14.568   3.790  0.00  0.00    +0.000 C 
ATOM     11  C   UNL     1       6.072  15.113   4.891  0.00  0.00    +0.000 C 
BRANCH  10  12
ATOM     12  O   UNL     1       3.918  14.197   4.384  0.00  0.00    +0.000 OA
ATOM     13  H   UNL     1       3.346  14.983   4.397  0.00  0.00    +0.000 HD
ENDBRANCH  10  12
ENDBRANCH   9  10
ENDBRANCH   1   9
BRANCH   1  14
ATOM     14  C   UNL     1       6.164  13.849   1.376  0.00  0.00    +0.000 C 
BRANCH  14  15
ATOM     15  C   UNL     1       7.695  13.927   1.161  0.00  0.00    +0.000 C 
ATOM     16  C   UNL     1       8.494  13.544   2.401  0.00  0.00    +0.000 C 
BRANCH  15  17
ATOM     17  O   UNL     1       8.119  13.091   0.085  0.00  0.00    +0.000 OA
ATOM     18  H   UNL     1       8.056  12.179   0.434  0.00  0.00    +0.000 HD
ENDBRANCH  15  17
ENDBRANCH  14  15
ENDBRANCH   1  14
TORSDOF 7
ENDMDL
MODEL 7
REMARK VINA RESULT:    -4.523      2.675      5.230
REMARK INTER + INTRA:          -6.714
REMARK INTER:                  -5.971
REMARK INTRA:                  -0.743
REMARK UNBOUND:                -0.604
REMARK  Name = 
REMARK  10 active torsions:
REMARK  status: ('A' for Active; 'I' for Inactive)
REMARK    1  A    between atoms: C_1  and  C_2
REMARK    2  A    between atoms: C_5  and  N_8
REMARK    3  A    between atoms: N_8  and  C_9
REMARK    4  A    between atoms: N_8  and  C_13
REMARK    5  A    between atoms: C_9  and  C_10
REMARK    6  A    between atoms: C_10  and  C_11
REMARK    7  A    between atoms: C_10  and  O_12
REMARK    8  A    between atoms: C_13  and  C_14
REMARK    9  A    between atoms: C_14  and  C_15
REMARK   10  A    between atoms: C_14  and  O_16
REMARK                            x       y       z     vdW  Elec       q    Type
REMARK                         _______ _______ _______ _____ _____    ______ ____
ROOT
ATOM      1  N   UNL     1       6.885  16.142   1.368  0.00  0.00    +0.000 N 
ENDROOT
BRANCH   1   6
ATOM      2  C   UNL     1       8.392  21.309  -0.720  0.00  0.00    +0.000 C 
ATOM      3  C   UNL     1       7.999  19.960  -0.202  0.00  0.00    +0.000 A 
ATOM      4  C   UNL     1       6.670  19.664   0.083  0.00  0.00    +0.000 A 
ATOM      5  C   UNL     1       6.310  18.407   0.597  0.00  0.00    +0.000 A 
ATOM      6  C   UNL     1       7.252  17.400   0.873  0.00  0.00    +0.000 A 
ATOM      7  C   UNL     1       8.586  17.733   0.571  0.00  0.00    +0.000 A 
ATOM      8  C   UNL     1       8.958  18.985   0.055  0.00  0.00    +0.000 A 
ENDBRANCH   1   6
BRANCH   1   9
ATOM      9  C   UNL     1       5.527  15.607   1.103  0.00  0.00    +0.000 C 
BRANCH   9  10
ATOM     10  C   UNL     1       5.425  14.878  -0.259  0.00  0.00    +0.000 C 
ATOM     11  C   UNL     1       4.490  15.620  -1.206  0.00  0.00    +0.000 C 
BRANCH  10  12
ATOM     12  O   UNL     1       6.710  14.782  -0.889  0.00  0.00    +0.000 OA
ATOM     13  H   UNL     1       7.040  15.683  -1.040  0.00  0.00    +0.000 HD
ENDBRANCH  10  12
ENDBRANCH   9  10
ENDBRANCH   1   9
BRANCH   1  14
ATOM     14  C   UNL     1       7.572  15.547   2.542  0.00  0.00    +0.000 C 
BRANCH  14  15
ATOM     15  C   UNL     1       8.310  14.234   2.184  0.00  0.00    +0.000 C 
ATOM     16  C   UNL     1       7.433  12.996   2.323  0.00  0.00    +0.000 C 
BRANCH  15  17
ATOM     17  O   UNL     1       8.823  14.265   0.853  0.00  0.00    +0.000 OA
ATOM     18  H   UNL     1       9.793  14.175   0.954  0.00  0.00    +0.000 HD
ENDBRANCH  15  17
ENDBRANCH  14  15
ENDBRANCH   1  14
TORSDOF 7
ENDMDL
MODEL 8
REMARK VINA RESULT:    -4.386      4.969      7.619
REMARK INTER + INTRA:          -6.529
REMARK INTER:                  -5.974
REMARK INTRA:                  -0.555
REMARK UNBOUND:                -0.604
REMARK  Name = 
REMARK  10 active torsions:
REMARK  status: ('A' for Active; 'I' for Inactive)
REMARK    1  A    between atoms: C_1  and  C_2
REMARK    2  A    between atoms: C_5  and  N_8
REMARK    3  A    between atoms: N_8  and  C_9
REMARK    4  A    between atoms: N_8  and  C_13
REMARK    5  A    between atoms: C_9  and  C_10
REMARK    6  A    between atoms: C_10  and  C_11
REMARK    7  A    between atoms: C_10  and  O_12
REMARK    8  A    between atoms: C_13  and  C_14
REMARK    9  A    between atoms: C_14  and  C_15
REMARK   10  A    between atoms: C_14  and  O_16
REMARK                            x       y       z     vdW  Elec       q    Type
REMARK                         _______ _______ _______ _____ _____    ______ ____
ROOT
ATOM      1  N   UNL     1       6.991  19.985  -0.061  0.00  0.00    +0.000 N 
ENDROOT
BRANCH   1   6
ATOM      2  C   UNL     1       7.113  20.180  -5.830  0.00  0.00    +0.000 C 
ATOM      3  C   UNL     1       7.107  20.130  -4.333  0.00  0.00    +0.000 A 
ATOM      4  C   UNL     1       7.089  18.914  -3.659  0.00  0.00    +0.000 A 
ATOM      5  C   UNL     1       7.052  18.873  -2.255  0.00  0.00    +0.000 A 
ATOM      6  C   UNL     1       7.007  20.033  -1.461  0.00  0.00    +0.000 A 
ATOM      7  C   UNL     1       7.029  21.245  -2.176  0.00  0.00    +0.000 A 
ATOM      8  C   UNL     1       7.068  21.300  -3.579  0.00  0.00    +0.000 A 
ENDBRANCH   1   6
BRANCH   1   9
ATOM      9  C   UNL     1       7.644  21.058   0.727  0.00  0.00    +0.000 C 
BRANCH   9  10
ATOM     10  C   UNL     1       7.344  20.956   2.243  0.00  0.00    +0.000 C 
ATOM     11  C   UNL     1       8.434  21.639   3.061  0.00  0.00    +0.000 C 
BRANCH  10  12
ATOM     12  O   UNL     1       6.092  21.578   2.563  0.00  0.00    +0.000 OA
ATOM     13  H   UNL     1       5.675  21.067   3.275  0.00  0.00    +0.000 HD
ENDBRANCH  10  12
ENDBRANCH   9  10
ENDBRANCH   1   9
BRANCH   1  14
ATOM     14  C   UNL     1       6.809  18.701   0.662  0.00  0.00    +0.000 C 
BRANCH  14  15
ATOM     15  C   UNL     1       5.323  18.274   0.733  0.00  0.00    +0.000 C 
ATOM     16  C   UNL     1       5.139  16.778   0.954  0.00  0.00    +0.000 C 
BRANCH  15  17
ATOM     17  O   UNL     1       4.626  18.964   1.769  0.00  0.00    +0.000 OA
ATOM     18  H   UNL     1       4.740  19.913   1.562  0.00  0.00    +0.000 HD
ENDBRANCH  15  17
ENDBRANCH  14  15
ENDBRANCH   1  14
TORSDOF 7
ENDMDL
MODEL 9
REMARK VINA RESULT:    -4.372      1.819      3.491
REMARK INTER + INTRA:          -6.509
REMARK INTER:                  -5.977
REMARK INTRA:                  -0.533
REMARK UNBOUND:                -0.604
REMARK  Name = 
REMARK  10 active torsions:
REMARK  status: ('A' for Active; 'I' for Inactive)
REMARK    1  A    between atoms: C_1  and  C_2
REMARK    2  A    between atoms: C_5  and  N_8
REMARK    3  A    between atoms: N_8  and  C_9
REMARK    4  A    between atoms: N_8  and  C_13
REMARK    5  A    between atoms: C_9  and  C_10
REMARK    6  A    between atoms: C_10  and  C_11
REMARK    7  A    between atoms: C_10  and  O_12
REMARK    8  A    between atoms: C_13  and  C_14
REMARK    9  A    between atoms: C_14  and  C_15
REMARK   10  A    between atoms: C_14  and  O_16
REMARK                            x       y       z     vdW  Elec       q    Type
REMARK                         _______ _______ _______ _____ _____    ______ ____
ROOT
ATOM      1  N   UNL     1       6.738  16.176   1.728  0.00  0.00    +0.000 N 
ENDROOT
BRANCH   1   6
ATOM      2  C   UNL     1       2.504  15.567   5.605  0.00  0.00    +0.000 C 
ATOM      3  C   UNL     1       3.586  15.723   4.581  0.00  0.00    +0.000 A 
ATOM      4  C   UNL     1       4.290  14.619   4.111  0.00  0.00    +0.000 A 
ATOM      5  C   UNL     1       5.323  14.774   3.173  0.00  0.00    +0.000 A 
ATOM      6  C   UNL     1       5.720  16.030   2.678  0.00  0.00    +0.000 A 
ATOM      7  C   UNL     1       4.985  17.123   3.173  0.00  0.00    +0.000 A 
ATOM      8  C   UNL     1       3.948  16.982   4.110  0.00  0.00    +0.000 A 
ENDBRANCH   1   6
BRANCH   1   9
ATOM      9  C   UNL     1       7.411  17.486   1.554  0.00  0.00    +0.000 C 
BRANCH   9  10
ATOM     10  C   UNL     1       7.323  18.017   0.103  0.00  0.00    +0.000 C 
ATOM     11  C   UNL     1       6.529  19.317   0.045  0.00  0.00    +0.000 C 
BRANCH  10  12
ATOM     12  O   UNL     1       8.630  18.271  -0.432  0.00  0.00    +0.000 OA
ATOM     13  H   UNL     1       9.105  18.845   0.193  0.00  0.00    +0.000 HD
ENDBRANCH  10  12
ENDBRANCH   9  10
ENDBRANCH   1   9
BRANCH   1  14
ATOM     14  C   UNL     1       6.836  15.264   0.560  0.00  0.00    +0.000 C 
BRANCH  14  15
ATOM     15  C   UNL     1       8.176  14.489   0.535  0.00  0.00    +0.000 C 
ATOM     16  C   UNL     1       8.497  13.804   1.858  0.00  0.00    +0.000 C 
BRANCH  15  17
ATOM     17  O   UNL     1       8.192  13.497  -0.491  0.00  0.00    +0.000 OA
ATOM     18  H   UNL     1       8.253  14.000  -1.328  0.00  0.00    +0.000 HD
ENDBRANCH  15  17
ENDBRANCH  14  15
ENDBRANCH   1  14
TORSDOF 7
ENDMDL
