MODEL 1
REMARK VINA RESULT:    -5.478      0.000      0.000
REMARK INTER + INTRA:          -6.008
REMARK INTER:                  -5.958
REMARK INTRA:                  -0.050
REMARK UNBOUND:                -0.050
REMARK  Name = 
REMARK  3 active torsions:
REMARK  status: ('A' for Active; 'I' for Inactive)
REMARK    1  A    between atoms: C_1  and  O_2
REMARK    2  A    between atoms: O_2  and  C_3
REMARK    3  A    between atoms: C_8  and  O_9
REMARK                            x       y       z     vdW  Elec       q    Type
REMARK                         _______ _______ _______ _____ _____    ______ ____
ROOT
ATOM      1  C   UNL     1       7.290   8.802  -0.759  0.00  0.00    +0.000 A 
ATOM      2  C   UNL     1       5.899   8.709  -0.764  0.00  0.00    +0.000 A 
ATOM      3  C   UNL     1       5.134   9.623  -0.028  0.00  0.00    +0.000 A 
ATOM      4  C   UNL     1       5.754  10.630   0.714  0.00  0.00    +0.000 A 
ATOM      5  C   UNL     1       7.144  10.730   0.723  0.00  0.00    +0.000 A 
ATOM      6  C   UNL     1       7.894   9.819  -0.009  0.00  0.00    +0.000 A 
ENDROOT
BRANCH   1   8
ATOM      7  C   UNL     1       8.292   6.655  -0.929  0.00  0.00    +0.000 C 
ATOM      8  O   UNL     1       8.160   7.980  -1.428  0.00  0.00    +0.000 OA
ENDBRANCH   1   8
BRANCH   6   9
ATOM      9  O   UNL     1       9.258   9.937   0.016  0.00  0.00    +0.000 OA
ATOM     10  H   UNL     1       9.581   9.042   0.232  0.00  0.00    +0.000 HD
ENDBRANCH   6   9
TORSDOF 2
ENDMDL
MODEL 2
REMARK VINA RESULT:    -5.399      1.395      3.009
REMARK INTER + INTRA:          -5.923
REMARK INTER:                  -5.896
REMARK INTRA:                  -0.027
REMARK UNBOUND:                -0.050
REMARK  Name = 
REMARK  3 active torsions:
REMARK  status: ('A' for Active; 'I' for Inactive)
REMARK    1  A    between atoms: C_1  and  O_2
REMARK    2  A    between atoms: O_2  and  C_3
REMARK    3  A    between atoms: C_8  and  O_9
REMARK                            x       y       z     vdW  Elec       q    Type
REMARK                         _______ _______ _______ _____ _____    ______ ____
ROOT
ATOM      1  C   UNL     1       6.878   9.725   0.045  0.00  0.00    +0.000 A 
ATOM      2  C   UNL     1       5.869   8.837  -0.323  0.00  0.00    +0.000 A 
ATOM      3  C   UNL     1       6.177   7.703  -1.085  0.00  0.00    +0.000 A 
ATOM      4  C   UNL     1       7.492   7.453  -1.482  0.00  0.00    +0.000 A 
ATOM      5  C   UNL     1       8.507   8.336  -1.118  0.00  0.00    +0.000 A 
ATOM      6  C   UNL     1       8.192   9.458  -0.362  0.00  0.00    +0.000 A 
ENDROOT
BRANCH   1   8
ATOM      7  C   UNL     1       6.600  10.704   2.192  0.00  0.00    +0.000 C 
ATOM      8  O   UNL     1       6.722  10.870   0.784  0.00  0.00    +0.000 OA
ENDBRANCH   1   8
BRANCH   6   9
ATOM      9  O   UNL     1       9.206  10.311  -0.017  0.00  0.00    +0.000 OA
ATOM     10  H   UNL     1       9.193  11.003  -0.705  0.00  0.00    +0.000 HD
ENDBRANCH   6   9
TORSDOF 2
ENDMDL
MODEL 3
REMARK VINA RESULT:    -5.361      1.867      3.705
REMARK INTER + INTRA:          -5.881
REMARK INTER:                  -5.925
REMARK INTRA:                   0.044
REMARK UNBOUND:                -0.050
REMARK  Name = 
REMARK  3 active torsions:
REMARK  status: ('A' for Active; 'I' for Inactive)
REMARK    1  A    between atoms: C_1  and  O_2
REMARK    2  A    between atoms: O_2  and  C_3
REMARK    3  A    between atoms: C_8  and  O_9
REMARK                            x       y       z     vdW  Elec       q    Type
REMARK                         _______ _______ _______ _____ _____    ______ ____
ROOT
ATOM      1  C   UNL     1       7.256   9.881   0.103  0.00  0.00    +0.000 A 
ATOM      2  C   UNL     1       8.572   9.649  -0.296  0.00  0.00    +0.000 A 
ATOM      3  C   UNL     1       8.874   8.545  -1.103  0.00  0.00    +0.000 A 
ATOM      4  C   UNL     1       7.866   7.670  -1.512  0.00  0.00    +0.000 A 
ATOM      5  C   UNL     1       6.549   7.895  -1.118  0.00  0.00    +0.000 A 
ATOM      6  C   UNL     1       6.258   8.993  -0.317  0.00  0.00    +0.000 A 
ENDROOT
BRANCH   1   8
ATOM      7  C   UNL     1       6.826  10.694   2.295  0.00  0.00    +0.000 C 
ATOM      8  O   UNL     1       6.817  10.916   0.889  0.00  0.00    +0.000 OA
ENDBRANCH   1   8
BRANCH   6   9
ATOM      9  O   UNL     1       4.957   9.193   0.058  0.00  0.00    +0.000 OA
ATOM     10  H   UNL     1       4.690   8.358   0.487  0.00  0.00    +0.000 HD
ENDBRANCH   6   9
TORSDOF 2
ENDMDL
MODEL 4
REMARK VINA RESULT:    -5.265      1.977      2.775
REMARK INTER + INTRA:          -5.777
REMARK INTER:                  -5.737
REMARK INTRA:                  -0.040
REMARK UNBOUND:                -0.050
REMARK  Name = 
REMARK  3 active torsions:
REMARK  status: ('A' for Active; 'I' for Inactive)
REMARK    1  A    between atoms: C_1  and  O_2
REMARK    2  A    between atoms: O_2  and  C_3
REMARK    3  A    between atoms: C_8  and  O_9
REMARK                            x       y       z     vdW  Elec       q    Type
REMARK                         _______ _______ _______ _____ _____    ______ ____
ROOT
ATOM      1  C   UNL     1       6.724   7.827  -0.915  0.00  0.00    +0.000 A 
ATOM      2  C   UNL     1       8.074   7.687  -1.234  0.00  0.00    +0.000 A 
ATOM      3  C   UNL     1       8.972   8.723  -0.948  0.00  0.00    +0.000 A 
ATOM      4  C   UNL     1       8.525   9.901  -0.345  0.00  0.00    +0.000 A 
ATOM      5  C   UNL     1       7.177  10.048  -0.024  0.00  0.00    +0.000 A 
ATOM      6  C   UNL     1       6.295   9.015  -0.311  0.00  0.00    +0.000 A 
ENDROOT
BRANCH   1   8
ATOM      7  C   UNL     1       6.150   5.539  -1.208  0.00  0.00    +0.000 C 
ATOM      8  O   UNL     1       5.738   6.899  -1.137  0.00  0.00    +0.000 OA
ENDBRANCH   1   8
BRANCH   6   9
ATOM      9  O   UNL     1       4.975   9.183   0.014  0.00  0.00    +0.000 OA
ATOM     10  H   UNL     1       4.689   8.312   0.351  0.00  0.00    +0.000 HD
ENDBRANCH   6   9
TORSDOF 2
ENDMDL
MODEL 5
REMARK VINA RESULT:    -5.196      1.991      3.858
REMARK INTER + INTRA:          -5.701
REMARK INTER:                  -5.653
REMARK INTRA:                  -0.049
REMARK UNBOUND:                -0.050
REMARK  Name = 
REMARK  3 active torsions:
REMARK  status: ('A' for Active; 'I' for Inactive)
REMARK    1  A    between atoms: C_1  and  O_2
REMARK    2  A    between atoms: O_2  and  C_3
REMARK    3  A    between atoms: C_8  and  O_9
REMARK                            x       y       z     vdW  Elec       q    Type
REMARK                         _______ _______ _______ _____ _____    ______ ____
ROOT
ATOM      1  C   UNL     1       6.603   8.617  -0.999  0.00  0.00    +0.000 A 
ATOM      2  C   UNL     1       7.724   9.442  -1.080  0.00  0.00    +0.000 A 
ATOM      3  C   UNL     1       9.005   8.879  -1.124  0.00  0.00    +0.000 A 
ATOM      4  C   UNL     1       9.171   7.494  -1.087  0.00  0.00    +0.000 A 
ATOM      5  C   UNL     1       8.056   6.663  -1.007  0.00  0.00    +0.000 A 
ATOM      6  C   UNL     1       6.789   7.230  -0.963  0.00  0.00    +0.000 A 
ENDROOT
BRANCH   1   8
ATOM      7  C   UNL     1       4.979  10.021   0.021  0.00  0.00    +0.000 C 
ATOM      8  O   UNL     1       5.295   9.028  -0.948  0.00  0.00    +0.000 OA
ENDBRANCH   1   8
BRANCH   6   9
ATOM      9  O   UNL     1       5.709   6.392  -0.884  0.00  0.00    +0.000 OA
ATOM     10  H   UNL     1       5.323   6.566  -0.004  0.00  0.00    +0.000 HD
ENDBRANCH   6   9
TORSDOF 2
ENDMDL
MODEL 6
REMARK VINA RESULT:    -5.131      0.992      2.243
REMARK INTER + INTRA:          -5.631
REMARK INTER:                  -5.779
REMARK INTRA:                   0.147
REMARK UNBOUND:                -0.050
REMARK  Name = 
REMARK  3 active torsions:
REMARK  status: ('A' for Active; 'I' for Inactive)
REMARK    1  A    between atoms: C_1  and  O_2
REMARK    2  A    between atoms: O_2  and  C_3
REMARK    3  A    between atoms: C_8  and  O_9
REMARK                            x       y       z     vdW  Elec       q    Type
REMARK                         _______ _______ _______ _____ _____    ______ ____
ROOT
ATOM      1  C   UNL     1       7.509   8.704  -0.697  0.00  0.00    +0.000 A 
ATOM      2  C   UNL     1       8.151   9.732  -0.008  0.00  0.00    +0.000 A 
ATOM      3  C   UNL     1       7.399  10.661   0.722  0.00  0.00    +0.000 A 
ATOM      4  C   UNL     1       6.007  10.567   0.766  0.00  0.00    +0.000 A 
ATOM      5  C   UNL     1       5.358   9.542   0.081  0.00  0.00    +0.000 A 
ATOM      6  C   UNL     1       6.112   8.625  -0.641  0.00  0.00    +0.000 A 
ENDROOT
BRANCH   1   8
ATOM      7  C   UNL     1       8.324   6.474  -0.812  0.00  0.00    +0.000 C 
ATOM      8  O   UNL     1       8.116   7.730  -1.448  0.00  0.00    +0.000 OA
ENDBRANCH   1   8
BRANCH   6   9
ATOM      9  O   UNL     1       5.453   7.627  -1.307  0.00  0.00    +0.000 OA
ATOM     10  H   UNL     1       5.165   7.010  -0.607  0.00  0.00    +0.000 HD
ENDBRANCH   6   9
TORSDOF 2
ENDMDL
MODEL 7
REMARK VINA RESULT:    -5.094      2.285      3.056
REMARK INTER + INTRA:          -5.591
REMARK INTER:                  -5.547
REMARK INTRA:                  -0.044
REMARK UNBOUND:                -0.050
REMARK  Name = 
REMARK  3 active torsions:
REMARK  status: ('A' for Active; 'I' for Inactive)
REMARK    1  A    between atoms: C_1  and  O_2
REMARK    2  A    between atoms: O_2  and  C_3
REMARK    3  A    between atoms: C_8  and  O_9
REMARK                            x       y       z     vdW  Elec       q    Type
REMARK                         _______ _______ _______ _____ _____    ______ ____
ROOT
ATOM      1  C   UNL     1       6.755   6.925  -1.079  0.00  0.00    +0.000 A 
ATOM      2  C   UNL     1       6.082   8.122  -1.322  0.00  0.00    +0.000 A 
ATOM      3  C   UNL     1       6.804   9.314  -1.463  0.00  0.00    +0.000 A 
ATOM      4  C   UNL     1       8.196   9.315  -1.361  0.00  0.00    +0.000 A 
ATOM      5  C   UNL     1       8.876   8.123  -1.119  0.00  0.00    +0.000 A 
ATOM      6  C   UNL     1       8.152   6.945  -0.980  0.00  0.00    +0.000 A 
ENDROOT
BRANCH   1   8
ATOM      7  C   UNL     1       5.077   5.389  -1.766  0.00  0.00    +0.000 C 
ATOM      8  O   UNL     1       6.181   5.689  -0.920  0.00  0.00    +0.000 OA
ENDBRANCH   1   8
BRANCH   6   9
ATOM      9  O   UNL     1       8.842   5.787  -0.743  0.00  0.00    +0.000 OA
ATOM     10  H   UNL     1       8.640   5.216  -1.509  0.00  0.00    +0.000 HD
ENDBRANCH   6   9
TORSDOF 2
ENDMDL
MODEL 8
REMARK VINA RESULT:    -4.959      9.465      9.940
REMARK INTER + INTRA:          -5.443
REMARK INTER:                  -5.397
REMARK INTRA:                  -0.046
REMARK UNBOUND:                -0.050
REMARK  Name = 
REMARK  3 active torsions:
REMARK  status: ('A' for Active; 'I' for Inactive)
REMARK    1  A    between atoms: C_1  and  O_2
REMARK    2  A    between atoms: O_2  and  C_3
REMARK    3  A    between atoms: C_8  and  O_9
REMARK                            x       y       z     vdW  Elec       q    Type
REMARK                         _______ _______ _______ _____ _____    ______ ____
ROOT
ATOM      1  C   UNL     1      11.746   2.457   5.159  0.00  0.00    +0.000 A 
ATOM      2  C   UNL     1      11.411   2.950   6.419  0.00  0.00    +0.000 A 
ATOM      3  C   UNL     1      12.183   3.962   7.003  0.00  0.00    +0.000 A 
ATOM      4  C   UNL     1      13.290   4.483   6.331  0.00  0.00    +0.000 A 
ATOM      5  C   UNL     1      13.631   3.996   5.071  0.00  0.00    +0.000 A 
ATOM      6  C   UNL     1      12.860   2.992   4.501  0.00  0.00    +0.000 A 
ENDROOT
BRANCH   1   8
ATOM      7  C   UNL     1       9.664   1.555   4.453  0.00  0.00    +0.000 C 
ATOM      8  O   UNL     1      11.084   1.472   4.471  0.00  0.00    +0.000 OA
ENDBRANCH   1   8
BRANCH   6   9
ATOM      9  O   UNL     1      13.215   2.529   3.262  0.00  0.00    +0.000 OA
ATOM     10  H   UNL     1      12.414   2.087   2.922  0.00  0.00    +0.000 HD
ENDBRANCH   6   9
TORSDOF 2
ENDMDL
MODEL 9
REMARK VINA RESULT:    -4.825     10.018     11.257
REMARK INTER + INTRA:          -5.298
REMARK INTER:                  -5.260
REMARK INTRA:                  -0.038
REMARK UNBOUND:                -0.050
REMARK  Name = 
REMARK  3 active torsions:
REMARK  status: ('A' for Active; 'I' for Inactive)
REMARK    1  A    between atoms: C_1  and  O_2
REMARK    2  A    between atoms: O_2  and  C_3
REMARK    3  A    between atoms: C_8  and  O_9
REMARK                            x       y       z     vdW  Elec       q    Type
REMARK                         _______ _______ _______ _____ _____    ______ ____
ROOT
ATOM      1  C   UNL     1      14.165   3.137   6.696  0.00  0.00    +0.000 A 
ATOM      2  C   UNL     1      13.124   3.526   7.538  0.00  0.00    +0.000 A 
ATOM      3  C   UNL     1      11.888   3.899   6.996  0.00  0.00    +0.000 A 
ATOM      4  C   UNL     1      11.688   3.887   5.615  0.00  0.00    +0.000 A 
ATOM      5  C   UNL     1      12.723   3.499   4.767  0.00  0.00    +0.000 A 
ATOM      6  C   UNL     1      13.946   3.130   5.313  0.00  0.00    +0.000 A 
ENDROOT
BRANCH   1   8
ATOM      7  C   UNL     1      15.574   2.366   8.447  0.00  0.00    +0.000 C 
ATOM      8  O   UNL     1      15.422   2.749   7.085  0.00  0.00    +0.000 OA
ENDBRANCH   1   8
BRANCH   6   9
ATOM      9  O   UNL     1      14.948   2.754   4.459  0.00  0.00    +0.000 OA
ATOM     10  H   UNL     1      14.758   3.229   3.628  0.00  0.00    +0.000 HD
ENDBRANCH   6   9
TORSDOF 2
ENDMDL
