MODEL 1
REMARK VINA RESULT:    -4.861      0.000      0.000
REMARK INTER + INTRA:          -7.154
REMARK INTER:                  -6.565
REMARK INTRA:                  -0.588
REMARK UNBOUND:                -0.588
REMARK  Name = 
REMARK  10 active torsions:
REMARK  status: ('A' for Active; 'I' for Inactive)
REMARK    1  A    between atoms: C_1  and  C_2
REMARK    2  A    between atoms: C_5  and  N_8
REMARK    3  A    between atoms: N_8  and  C_9
REMARK    4  A    between atoms: N_8  and  C_13
REMARK    5  A    between atoms: C_9  and  C_10
REMARK    6  A    between atoms: C_10  and  C_11
REMARK    7  A    between atoms: C_10  and  O_12
REMARK    8  A    between atoms: C_13  and  C_14
REMARK    9  A    between atoms: C_14  and  C_15
REMARK   10  A    between atoms: C_14  and  O_16
REMARK                            x       y       z     vdW  Elec       q    Type
REMARK                         _______ _______ _______ _____ _____    ______ ____
ROOT
ATOM      1  N   UNL     1       6.894  14.677   1.340  0.00  0.00    +0.000 N 
ENDROOT
BRANCH   1   6
ATOM      2  C   UNL     1       3.022  16.771   5.075  0.00  0.00    +0.000 C 
ATOM      3  C   UNL     1       4.045  16.230   4.123  0.00  0.00    +0.000 A 
ATOM      4  C   UNL     1       4.746  17.076   3.271  0.00  0.00    +0.000 A 
ATOM      5  C   UNL     1       5.682  16.560   2.360  0.00  0.00    +0.000 A 
ATOM      6  C   UNL     1       5.946  15.183   2.237  0.00  0.00    +0.000 A 
ATOM      7  C   UNL     1       5.220  14.358   3.116  0.00  0.00    +0.000 A 
ATOM      8  C   UNL     1       4.283  14.861   4.033  0.00  0.00    +0.000 A 
ENDBRANCH   1   6
BRANCH   1   9
ATOM      9  C   UNL     1       7.800  13.580   1.757  0.00  0.00    +0.000 C 
BRANCH   9  10
ATOM     10  C   UNL     1       8.887  14.045   2.757  0.00  0.00    +0.000 C 
ATOM     11  C   UNL     1       8.705  13.371   4.112  0.00  0.00    +0.000 C 
BRANCH  10  12
ATOM     12  O   UNL     1      10.200  13.728   2.276  0.00  0.00    +0.000 OA
ATOM     13  H   UNL     1      10.159  12.862   1.838  0.00  0.00    +0.000 HD
ENDBRANCH  10  12
ENDBRANCH   9  10
ENDBRANCH   1   9
BRANCH   1  14
ATOM     14  C   UNL     1       7.384  15.491   0.198  0.00  0.00    +0.000 C 
BRANCH  14  15
ATOM     15  C   UNL     1       6.456  15.385  -1.036  0.00  0.00    +0.000 C 
ATOM     16  C   UNL     1       5.832  16.718  -1.433  0.00  0.00    +0.000 C 
BRANCH  15  17
ATOM     17  O   UNL     1       7.145  14.863  -2.171  0.00  0.00    +0.000 OA
ATOM     18  H   UNL     1       8.057  14.698  -1.858  0.00  0.00    +0.000 HD
ENDBRANCH  15  17
ENDBRANCH  14  15
ENDBRANCH   1  14
TORSDOF 7
ENDMDL
MODEL 2
REMARK VINA RESULT:    -4.741      2.625      5.853
REMARK INTER + INTRA:          -6.992
REMARK INTER:                  -6.518
REMARK INTRA:                  -0.474
REMARK UNBOUND:                -0.588
REMARK  Name = 
REMARK  10 active torsions:
REMARK  status: ('A' for Active; 'I' for Inactive)
REMARK    1  A    between atoms: C_1  and  C_2
REMARK    2  A    between atoms: C_5  and  N_8
REMARK    3  A    between atoms: N_8  and  C_9
REMARK    4  A    between atoms: N_8  and  C_13
REMARK    5  A    between atoms: C_9  and  C_10
REMARK    6  A    between atoms: C_10  and  C_11
REMARK    7  A    between atoms: C_10  and  O_12
REMARK    8  A    between atoms: C_13  and  C_14
REMARK    9  A    between atoms: C_14  and  C_15
REMARK   10  A    between atoms: C_14  and  O_16
REMARK                            x       y       z     vdW  Elec       q    Type
REMARK                         _______ _______ _______ _____ _____    ______ ____
ROOT
ATOM      1  N   UNL     1       6.117  16.566   0.080  0.00  0.00    +0.000 N 
ENDROOT
BRANCH   1   6
ATOM      2  C   UNL     1       7.571  20.124  -4.227  0.00  0.00    +0.000 C 
ATOM      3  C   UNL     1       7.216  19.190  -3.111  0.00  0.00    +0.000 A 
ATOM      4  C   UNL     1       6.591  17.974  -3.368  0.00  0.00    +0.000 A 
ATOM      5  C   UNL     1       6.234  17.116  -2.315  0.00  0.00    +0.000 A 
ATOM      6  C   UNL     1       6.459  17.435  -0.963  0.00  0.00    +0.000 A 
ATOM      7  C   UNL     1       7.094  18.671  -0.741  0.00  0.00    +0.000 A 
ATOM      8  C   UNL     1       7.458  19.537  -1.785  0.00  0.00    +0.000 A 
ENDBRANCH   1   6
BRANCH   1   9
ATOM      9  C   UNL     1       6.129  17.047   1.483  0.00  0.00    +0.000 C 
BRANCH   9  10
ATOM     10  C   UNL     1       4.711  17.350   2.025  0.00  0.00    +0.000 C 
ATOM     11  C   UNL     1       4.644  17.125   3.531  0.00  0.00    +0.000 C 
BRANCH  10  12
ATOM     12  O   UNL     1       4.338  18.709   1.762  0.00  0.00    +0.000 OA
ATOM     13  H   UNL     1       4.176  18.798   0.808  0.00  0.00    +0.000 HD
ENDBRANCH  10  12
ENDBRANCH   9  10
ENDBRANCH   1   9
BRANCH   1  14
ATOM     14  C   UNL     1       6.237  15.093  -0.075  0.00  0.00    +0.000 C 
BRANCH  14  15
ATOM     15  C   UNL     1       7.684  14.596   0.162  0.00  0.00    +0.000 C 
ATOM     16  C   UNL     1       7.785  13.550   1.266  0.00  0.00    +0.000 C 
BRANCH  15  17
ATOM     17  O   UNL     1       8.252  14.044  -1.024  0.00  0.00    +0.000 OA
ATOM     18  H   UNL     1       8.185  14.756  -1.692  0.00  0.00    +0.000 HD
ENDBRANCH  15  17
ENDBRANCH  14  15
ENDBRANCH   1  14
TORSDOF 7
ENDMDL
MODEL 3
REMARK VINA RESULT:    -4.690      0.568      3.702
REMARK INTER + INTRA:          -6.923
REMARK INTER:                  -6.298
REMARK INTRA:                  -0.624
REMARK UNBOUND:                -0.588
REMARK  Name = 
REMARK  10 active torsions:
REMARK  status: ('A' for Active; 'I' for Inactive)
REMARK    1  A    between atoms: C_1  and  C_2
REMARK    2  A    between atoms: C_5  and  N_8
REMARK    3  A    between atoms: N_8  and  C_9
REMARK    4  A    between atoms: N_8  and  C_13
REMARK    5  A    between atoms: C_9  and  C_10
REMARK    6  A    between atoms: C_10  and  C_11
REMARK    7  A    between atoms: C_10  and  O_12
REMARK    8  A    between atoms: C_13  and  C_14
REMARK    9  A    between atoms: C_14  and  C_15
REMARK   10  A    between atoms: C_14  and  O_16
REMARK                            x       y       z     vdW  Elec       q    Type
REMARK                         _______ _______ _______ _____ _____    ______ ____
ROOT
ATOM      1  N   UNL     1       7.140  15.208   1.748  0.00  0.00    +0.000 N 
ENDROOT
BRANCH   1   6
ATOM      2  C   UNL     1       2.691  16.065   5.325  0.00  0.00    +0.000 C 
ATOM      3  C   UNL     1       3.861  15.842   4.417  0.00  0.00    +0.000 A 
ATOM      4  C   UNL     1       4.552  16.916   3.865  0.00  0.00    +0.000 A 
ATOM      5  C   UNL     1       5.629  16.700   2.990  0.00  0.00    +0.000 A 
ATOM      6  C   UNL     1       6.053  15.415   2.606  0.00  0.00    +0.000 A 
ATOM      7  C   UNL     1       5.333  14.354   3.185  0.00  0.00    +0.000 A 
ATOM      8  C   UNL     1       4.255  14.555   4.063  0.00  0.00    +0.000 A 
ENDBRANCH   1   6
BRANCH   1   9
ATOM      9  C   UNL     1       7.183  15.878   0.426  0.00  0.00    +0.000 C 
BRANCH   9  10
ATOM     10  C   UNL     1       6.269  15.197  -0.622  0.00  0.00    +0.000 C 
ATOM     11  C   UNL     1       4.998  16.009  -0.845  0.00  0.00    +0.000 C 
BRANCH  10  12
ATOM     12  O   UNL     1       6.940  15.066  -1.883  0.00  0.00    +0.000 OA
ATOM     13  H   UNL     1       6.771  15.872  -2.399  0.00  0.00    +0.000 HD
ENDBRANCH  10  12
ENDBRANCH   9  10
ENDBRANCH   1   9
BRANCH   1  14
ATOM     14  C   UNL     1       7.985  13.991   1.859  0.00  0.00    +0.000 C 
BRANCH  14  15
ATOM     15  C   UNL     1       9.079  14.137   2.944  0.00  0.00    +0.000 C 
ATOM     16  C   UNL     1       8.783  13.335   4.206  0.00  0.00    +0.000 C 
BRANCH  15  17
ATOM     17  O   UNL     1      10.360  13.737   2.458  0.00  0.00    +0.000 OA
ATOM     18  H   UNL     1      11.001  14.282   2.957  0.00  0.00    +0.000 HD
ENDBRANCH  15  17
ENDBRANCH  14  15
ENDBRANCH   1  14
TORSDOF 7
ENDMDL
MODEL 4
REMARK VINA RESULT:    -4.648      3.450      6.727
REMARK INTER + INTRA:          -6.867
REMARK INTER:                  -6.346
REMARK INTRA:                  -0.521
REMARK UNBOUND:                -0.588
REMARK  Name = 
REMARK  10 active torsions:
REMARK  status: ('A' for Active; 'I' for Inactive)
REMARK    1  A    between atoms: C_1  and  C_2
REMARK    2  A    between atoms: C_5  and  N_8
REMARK    3  A    between atoms: N_8  and  C_9
REMARK    4  A    between atoms: N_8  and  C_13
REMARK    5  A    between atoms: C_9  and  C_10
REMARK    6  A    between atoms: C_10  and  C_11
REMARK    7  A    between atoms: C_10  and  O_12
REMARK    8  A    between atoms: C_13  and  C_14
REMARK    9  A    between atoms: C_14  and  C_15
REMARK   10  A    between atoms: C_14  and  O_16
REMARK                            x       y       z     vdW  Elec       q    Type
REMARK                         _______ _______ _______ _____ _____    ______ ____
ROOT
ATOM      1  N   UNL     1       6.820  18.057  -0.919  0.00  0.00    +0.000 N 
ENDROOT
BRANCH   1   6
ATOM      2  C   UNL     1       7.419  20.594  -6.071  0.00  0.00    +0.000 C 
ATOM      3  C   UNL     1       7.241  19.947  -4.731  0.00  0.00    +0.000 A 
ATOM      4  C   UNL     1       7.712  20.558  -3.574  0.00  0.00    +0.000 A 
ATOM      5  C   UNL     1       7.569  19.932  -2.325  0.00  0.00    +0.000 A 
ATOM      6  C   UNL     1       6.976  18.666  -2.171  0.00  0.00    +0.000 A 
ATOM      7  C   UNL     1       6.509  18.079  -3.361  0.00  0.00    +0.000 A 
ATOM      8  C   UNL     1       6.644  18.695  -4.617  0.00  0.00    +0.000 A 
ENDBRANCH   1   6
BRANCH   1   9
ATOM      9  C   UNL     1       5.888  16.915  -0.760  0.00  0.00    +0.000 C 
BRANCH   9  10
ATOM     10  C   UNL     1       6.619  15.575  -0.503  0.00  0.00    +0.000 C 
ATOM     11  C   UNL     1       5.732  14.610   0.274  0.00  0.00    +0.000 C 
BRANCH  10  12
ATOM     12  O   UNL     1       6.987  14.944  -1.738  0.00  0.00    +0.000 OA
ATOM     13  H   UNL     1       7.674  15.486  -2.160  0.00  0.00    +0.000 HD
ENDBRANCH  10  12
ENDBRANCH   9  10
ENDBRANCH   1   9
BRANCH   1  14
ATOM     14  C   UNL     1       7.133  18.787   0.336  0.00  0.00    +0.000 C 
BRANCH  14  15
ATOM     15  C   UNL     1       8.495  18.362   0.934  0.00  0.00    +0.000 C 
ATOM     16  C   UNL     1       8.358  17.476   2.167  0.00  0.00    +0.000 C 
BRANCH  15  17
ATOM     17  O   UNL     1       9.297  17.669  -0.021  0.00  0.00    +0.000 OA
ATOM     18  H   UNL     1      10.201  18.024   0.103  0.00  0.00    +0.000 HD
ENDBRANCH  15  17
ENDBRANCH  14  15
ENDBRANCH   1  14
TORSDOF 7
ENDMDL
MODEL 5
REMARK VINA RESULT:    -4.635      2.951      6.048
REMARK INTER + INTRA:          -6.848
REMARK INTER:                  -6.345
REMARK INTRA:                  -0.504
REMARK UNBOUND:                -0.588
REMARK  Name = 
REMARK  10 active torsions:
REMARK  status: ('A' for Active; 'I' for Inactive)
REMARK    1  A    between atoms: C_1  and  C_2
REMARK    2  A    between atoms: C_5  and  N_8
REMARK    3  A    between atoms: N_8  and  C_9
REMARK    4  A    between atoms: N_8  and  C_13
REMARK    5  A    between atoms: C_9  and  C_10
REMARK    6  A    between atoms: C_10  and  C_11
REMARK    7  A    between atoms: C_10  and  O_12
REMARK    8  A    between atoms: C_13  and  C_14
REMARK    9  A    between atoms: C_14  and  C_15
REMARK   10  A    between atoms: C_14  and  O_16
REMARK                            x       y       z     vdW  Elec       q    Type
REMARK                         _______ _______ _______ _____ _____    ______ ____
ROOT
ATOM      1  N   UNL     1       6.594  17.243  -0.287  0.00  0.00    +0.000 N 
ENDROOT
BRANCH   1   6
ATOM      2  C   UNL     1       7.071  20.492  -5.035  0.00  0.00    +0.000 C 
ATOM      3  C   UNL     1       6.971  19.642  -3.806  0.00  0.00    +0.000 A 
ATOM      4  C   UNL     1       6.505  18.333  -3.879  0.00  0.00    +0.000 A 
ATOM      5  C   UNL     1       6.384  17.550  -2.719  0.00  0.00    +0.000 A 
ATOM      6  C   UNL     1       6.698  18.036  -1.437  0.00  0.00    +0.000 A 
ATOM      7  C   UNL     1       7.168  19.361  -1.401  0.00  0.00    +0.000 A 
ATOM      8  C   UNL     1       7.295  20.155  -2.553  0.00  0.00    +0.000 A 
ENDBRANCH   1   6
BRANCH   1   9
ATOM      9  C   UNL     1       6.347  15.786  -0.408  0.00  0.00    +0.000 C 
BRANCH   9  10
ATOM     10  C   UNL     1       7.539  14.932   0.090  0.00  0.00    +0.000 C 
ATOM     11  C   UNL     1       7.083  13.912   1.126  0.00  0.00    +0.000 C 
BRANCH  10  12
ATOM     12  O   UNL     1       8.151  14.220  -0.995  0.00  0.00    +0.000 OA
ATOM     13  H   UNL     1       9.022  13.908  -0.697  0.00  0.00    +0.000 HD
ENDBRANCH  10  12
ENDBRANCH   9  10
ENDBRANCH   1   9
BRANCH   1  14
ATOM     14  C   UNL     1       6.215  17.833   1.023  0.00  0.00    +0.000 C 
BRANCH  14  15
ATOM     15  C   UNL     1       4.803  17.391   1.476  0.00  0.00    +0.000 C 
ATOM     16  C   UNL     1       4.782  16.801   2.881  0.00  0.00    +0.000 C 
BRANCH  15  17
ATOM     17  O   UNL     1       3.874  18.473   1.437  0.00  0.00    +0.000 OA
ATOM     18  H   UNL     1       4.398  19.264   1.674  0.00  0.00    +0.000 HD
ENDBRANCH  15  17
ENDBRANCH  14  15
ENDBRANCH   1  14
TORSDOF 7
ENDMDL
MODEL 6
REMARK VINA RESULT:    -4.593      2.329      4.749
REMARK INTER + INTRA:          -6.792
REMARK INTER:                  -6.251
REMARK INTRA:                  -0.541
REMARK UNBOUND:                -0.588
REMARK  Name = 
REMARK  10 active torsions:
REMARK  status: ('A' for Active; 'I' for Inactive)
REMARK    1  A    between atoms: C_1  and  C_2
REMARK    2  A    between atoms: C_5  and  N_8
REMARK    3  A    between atoms: N_8  and  C_9
REMARK    4  A    between atoms: N_8  and  C_13
REMARK    5  A    between atoms: C_9  and  C_10
REMARK    6  A    between atoms: C_10  and  C_11
REMARK    7  A    between atoms: C_10  and  O_12
REMARK    8  A    between atoms: C_13  and  C_14
REMARK    9  A    between atoms: C_14  and  C_15
REMARK   10  A    between atoms: C_14  and  O_16
REMARK                            x       y       z     vdW  Elec       q    Type
REMARK                         _______ _______ _______ _____ _____    ______ ____
ROOT
ATOM      1  N   UNL     1       5.509  15.155   1.316  0.00  0.00    +0.000 N 
ENDROOT
BRANCH   1   6
ATOM      2  C   UNL     1       7.029  19.105  -2.611  0.00  0.00    +0.000 C 
ATOM      3  C   UNL     1       6.658  18.071  -1.593  0.00  0.00    +0.000 A 
ATOM      4  C   UNL     1       6.101  16.856  -1.979  0.00  0.00    +0.000 A 
ATOM      5  C   UNL     1       5.727  15.902  -1.018  0.00  0.00    +0.000 A 
ATOM      6  C   UNL     1       5.867  16.119   0.364  0.00  0.00    +0.000 A 
ATOM      7  C   UNL     1       6.435  17.357   0.718  0.00  0.00    +0.000 A 
ATOM      8  C   UNL     1       6.815  18.318  -0.232  0.00  0.00    +0.000 A 
ENDBRANCH   1   6
BRANCH   1   9
ATOM      9  C   UNL     1       4.810  15.561   2.559  0.00  0.00    +0.000 C 
BRANCH   9  10
ATOM     10  C   UNL     1       5.226  14.714   3.786  0.00  0.00    +0.000 C 
ATOM     11  C   UNL     1       5.972  15.564   4.808  0.00  0.00    +0.000 C 
BRANCH  10  12
ATOM     12  O   UNL     1       4.079  14.146   4.432  0.00  0.00    +0.000 OA
ATOM     13  H   UNL     1       3.284  14.495   3.996  0.00  0.00    +0.000 HD
ENDBRANCH  10  12
ENDBRANCH   9  10
ENDBRANCH   1   9
BRANCH   1  14
ATOM     14  C   UNL     1       6.221  13.854   1.396  0.00  0.00    +0.000 C 
BRANCH  14  15
ATOM     15  C   UNL     1       7.734  13.996   1.103  0.00  0.00    +0.000 C 
ATOM     16  C   UNL     1       8.609  13.709   2.317  0.00  0.00    +0.000 C 
BRANCH  15  17
ATOM     17  O   UNL     1       8.149  13.133   0.045  0.00  0.00    +0.000 OA
ATOM     18  H   UNL     1       7.609  13.401  -0.726  0.00  0.00    +0.000 HD
ENDBRANCH  15  17
ENDBRANCH  14  15
ENDBRANCH   1  14
TORSDOF 7
ENDMDL
MODEL 7
REMARK VINA RESULT:    -4.567      4.186      7.526
REMARK INTER + INTRA:          -6.756
REMARK INTER:                  -6.232
REMARK INTRA:                  -0.525
REMARK UNBOUND:                -0.588
REMARK  Name = 
REMARK  10 active torsions:
REMARK  status: ('A' for Active; 'I' for Inactive)
REMARK    1  A    between atoms: C_1  and  C_2
REMARK    2  A    between atoms: C_5  and  N_8
REMARK    3  A    between atoms: N_8  and  C_9
REMARK    4  A    between atoms: N_8  and  C_13
REMARK    5  A    between atoms: C_9  and  C_10
REMARK    6  A    between atoms: C_10  and  C_11
REMARK    7  A    between atoms: C_10  and  O_12
REMARK    8  A    between atoms: C_13  and  C_14
REMARK    9  A    between atoms: C_14  and  C_15
REMARK   10  A    between atoms: C_14  and  O_16
REMARK                            x       y       z     vdW  Elec       q    Type
REMARK                         _______ _______ _______ _____ _____    ______ ____
ROOT
ATOM      1  N   UNL     1       6.629  18.324  -2.077  0.00  0.00    +0.000 N 
ENDROOT
BRANCH   1   6
ATOM      2  C   UNL     1       8.769  21.408  -6.463  0.00  0.00    +0.000 C 
ATOM      3  C   UNL     1       8.231  20.590  -5.330  0.00  0.00    +0.000 A 
ATOM      4  C   UNL     1       7.189  19.690  -5.529  0.00  0.00    +0.000 A 
ATOM      5  C   UNL     1       6.668  18.948  -4.457  0.00  0.00    +0.000 A 
ATOM      6  C   UNL     1       7.140  19.082  -3.139  0.00  0.00    +0.000 A 
ATOM      7  C   UNL     1       8.194  19.998  -2.974  0.00  0.00    +0.000 A 
ATOM      8  C   UNL     1       8.726  20.745  -4.038  0.00  0.00    +0.000 A 
ENDBRANCH   1   6
BRANCH   1   9
ATOM      9  C   UNL     1       7.233  18.433  -0.728  0.00  0.00    +0.000 C 
BRANCH   9  10
ATOM     10  C   UNL     1       6.298  19.125   0.294  0.00  0.00    +0.000 C 
ATOM     11  C   UNL     1       6.328  18.403   1.636  0.00  0.00    +0.000 C 
BRANCH  10  12
ATOM     12  O   UNL     1       6.692  20.486   0.514  0.00  0.00    +0.000 OA
ATOM     13  H   UNL     1       5.920  20.974   0.846  0.00  0.00    +0.000 HD
ENDBRANCH  10  12
ENDBRANCH   9  10
ENDBRANCH   1   9
BRANCH   1  14
ATOM     14  C   UNL     1       5.870  17.070  -2.323  0.00  0.00    +0.000 C 
BRANCH  14  15
ATOM     15  C   UNL     1       6.345  15.913  -1.412  0.00  0.00    +0.000 C 
ATOM     16  C   UNL     1       5.208  15.245  -0.648  0.00  0.00    +0.000 C 
BRANCH  15  17
ATOM     17  O   UNL     1       7.030  14.905  -2.154  0.00  0.00    +0.000 OA
ATOM     18  H   UNL     1       6.987  15.203  -3.085  0.00  0.00    +0.000 HD
ENDBRANCH  15  17
ENDBRANCH  14  15
ENDBRANCH   1  14
TORSDOF 7
ENDMDL
MODEL 8
REMARK VINA RESULT:    -4.550      2.867      5.833
REMARK INTER + INTRA:          -6.734
REMARK INTER:                  -6.162
REMARK INTRA:                  -0.571
REMARK UNBOUND:                -0.588
REMARK  Name = 
REMARK  10 active torsions:
REMARK  status: ('A' for Active; 'I' for Inactive)
REMARK    1  A    between atoms: C_1  and  C_2
REMARK    2  A    between atoms: C_5  and  N_8
REMARK    3  A    between atoms: N_8  and  C_9
REMARK    4  A    between atoms: N_8  and  C_13
REMARK    5  A    between atoms: C_9  and  C_10
REMARK    6  A    between atoms: C_10  and  C_11
REMARK    7  A    between atoms: C_10  and  O_12
REMARK    8  A    between atoms: C_13  and  C_14
REMARK    9  A    between atoms: C_14  and  C_15
REMARK   10  A    between atoms: C_14  and  O_16
REMARK                            x       y       z     vdW  Elec       q    Type
REMARK                         _______ _______ _______ _____ _____    ______ ____
ROOT
ATOM      1  N   UNL     1       5.909  16.773  -0.292  0.00  0.00    +0.000 N 
ENDROOT
BRANCH   1   6
ATOM      2  C   UNL     1       8.150  20.225  -4.341  0.00  0.00    +0.000 C 
ATOM      3  C   UNL     1       7.548  19.344  -3.290  0.00  0.00    +0.000 A 
ATOM      4  C   UNL     1       7.776  19.584  -1.939  0.00  0.00    +0.000 A 
ATOM      5  C   UNL     1       7.234  18.737  -0.960  0.00  0.00    +0.000 A 
ATOM      6  C   UNL     1       6.463  17.603  -1.275  0.00  0.00    +0.000 A 
ATOM      7  C   UNL     1       6.252  17.392  -2.650  0.00  0.00    +0.000 A 
ATOM      8  C   UNL     1       6.786  18.233  -3.640  0.00  0.00    +0.000 A 
ENDBRANCH   1   6
BRANCH   1   9
ATOM      9  C   UNL     1       6.050  15.301  -0.397  0.00  0.00    +0.000 C 
BRANCH   9  10
ATOM     10  C   UNL     1       7.492  14.814  -0.112  0.00  0.00    +0.000 C 
ATOM     11  C   UNL     1       7.515  13.832   1.053  0.00  0.00    +0.000 C 
BRANCH  10  12
ATOM     12  O   UNL     1       8.049  14.157  -1.259  0.00  0.00    +0.000 OA
ATOM     13  H   UNL     1       7.568  13.323  -1.392  0.00  0.00    +0.000 HD
ENDBRANCH  10  12
ENDBRANCH   9  10
ENDBRANCH   1   9
BRANCH   1  14
ATOM     14  C   UNL     1       4.780  17.234   0.556  0.00  0.00    +0.000 C 
BRANCH  14  15
ATOM     15  C   UNL     1       5.110  17.147   2.066  0.00  0.00    +0.000 C 
ATOM     16  C   UNL     1       6.542  17.557   2.391  0.00  0.00    +0.000 C 
BRANCH  15  17
ATOM     17  O   UNL     1       4.231  17.957   2.845  0.00  0.00    +0.000 OA
ATOM     18  H   UNL     1       4.810  18.621   3.271  0.00  0.00    +0.000 HD
ENDBRANCH  15  17
ENDBRANCH  14  15
ENDBRANCH   1  14
TORSDOF 7
ENDMDL
MODEL 9
REMARK VINA RESULT:    -4.549      2.632      5.182
REMARK INTER + INTRA:          -6.733
REMARK INTER:                  -5.975
REMARK INTRA:                  -0.758
REMARK UNBOUND:                -0.588
REMARK  Name = 
REMARK  10 active torsions:
REMARK  status: ('A' for Active; 'I' for Inactive)
REMARK    1  A    between atoms: C_1  and  C_2
REMARK    2  A    between atoms: C_5  and  N_8
REMARK    3  A    between atoms: N_8  and  C_9
REMARK    4  A    between atoms: N_8  and  C_13
REMARK    5  A    between atoms: C_9  and  C_10
REMARK    6  A    between atoms: C_10  and  C_11
REMARK    7  A    between atoms: C_10  and  O_12
REMARK    8  A    between atoms: C_13  and  C_14
REMARK    9  A    between atoms: C_14  and  C_15
REMARK   10  A    between atoms: C_14  and  O_16
REMARK                            x       y       z     vdW  Elec       q    Type
REMARK                         _______ _______ _______ _____ _____    ______ ____
ROOT
ATOM      1  N   UNL     1       6.831  16.171   1.259  0.00  0.00    +0.000 N 
ENDROOT
BRANCH   1   6
ATOM      2  C   UNL     1       8.454  21.358  -0.689  0.00  0.00    +0.000 C 
ATOM      3  C   UNL     1       8.034  20.020  -0.160  0.00  0.00    +0.000 A 
ATOM      4  C   UNL     1       8.973  19.025   0.090  0.00  0.00    +0.000 A 
ATOM      5  C   UNL     1       8.571  17.763   0.557  0.00  0.00    +0.000 A 
ATOM      6  C   UNL     1       7.223  17.425   0.774  0.00  0.00    +0.000 A 
ATOM      7  C   UNL     1       6.302  18.456   0.513  0.00  0.00    +0.000 A 
ATOM      8  C   UNL     1       6.690  19.723   0.047  0.00  0.00    +0.000 A 
ENDBRANCH   1   6
BRANCH   1   9
ATOM      9  C   UNL     1       5.459  15.670   1.001  0.00  0.00    +0.000 C 
BRANCH   9  10
ATOM     10  C   UNL     1       5.326  14.966  -0.371  0.00  0.00    +0.000 C 
ATOM     11  C   UNL     1       4.421  15.760  -1.306  0.00  0.00    +0.000 C 
BRANCH  10  12
ATOM     12  O   UNL     1       6.605  14.826  -1.005  0.00  0.00    +0.000 OA
ATOM     13  H   UNL     1       7.291  14.981  -0.335  0.00  0.00    +0.000 HD
ENDBRANCH  10  12
ENDBRANCH   9  10
ENDBRANCH   1   9
BRANCH   1  14
ATOM     14  C   UNL     1       7.515  15.547   2.420  0.00  0.00    +0.000 C 
BRANCH  14  15
ATOM     15  C   UNL     1       8.272  14.255   2.028  0.00  0.00    +0.000 C 
ATOM     16  C   UNL     1       7.420  12.998   2.161  0.00  0.00    +0.000 C 
BRANCH  15  17
ATOM     17  O   UNL     1       8.762  14.317   0.689  0.00  0.00    +0.000 OA
ATOM     18  H   UNL     1       7.966  14.243   0.125  0.00  0.00    +0.000 HD
ENDBRANCH  15  17
ENDBRANCH  14  15
ENDBRANCH   1  14
TORSDOF 7
ENDMDL
