MODEL 1
REMARK VINA RESULT:    -4.114      0.000      0.000
REMARK INTER + INTRA:          -6.105
REMARK INTER:                  -5.557
REMARK INTRA:                  -0.548
REMARK UNBOUND:                -0.548
REMARK  Name = 
REMARK  10 active torsions:
REMARK  status: ('A' for Active; 'I' for Inactive)
REMARK    1  A    between atoms: C_1  and  C_2
REMARK    2  A    between atoms: C_5  and  N_8
REMARK    3  A    between atoms: N_8  and  C_9
REMARK    4  A    between atoms: N_8  and  C_13
REMARK    5  A    between atoms: C_9  and  C_10
REMARK    6  A    between atoms: C_10  and  C_11
REMARK    7  A    between atoms: C_10  and  O_12
REMARK    8  A    between atoms: C_13  and  C_14
REMARK    9  A    between atoms: C_14  and  C_15
REMARK   10  A    between atoms: C_14  and  O_16
REMARK                            x       y       z     vdW  Elec       q    Type
REMARK                         _______ _______ _______ _____ _____    ______ ____
ROOT
ATOM      1  N   UNL     1      -5.304  14.729 -13.412  0.00  0.00    +0.000 N 
ENDROOT
BRANCH   1   6
ATOM      2  C   UNL     1      -4.895  15.856  -7.765  0.00  0.00    +0.000 C 
ATOM      3  C   UNL     1      -5.010  15.541  -9.225  0.00  0.00    +0.000 A 
ATOM      4  C   UNL     1      -3.942  14.986  -9.923  0.00  0.00    +0.000 A 
ATOM      5  C   UNL     1      -4.046  14.720 -11.298  0.00  0.00    +0.000 A 
ATOM      6  C   UNL     1      -5.201  15.014 -12.045  0.00  0.00    +0.000 A 
ATOM      7  C   UNL     1      -6.261  15.572 -11.307  0.00  0.00    +0.000 A 
ATOM      8  C   UNL     1      -6.171  15.841  -9.931  0.00  0.00    +0.000 A 
ENDBRANCH   1   6
BRANCH   1   9
ATOM      9  C   UNL     1      -6.147  15.578 -14.287  0.00  0.00    +0.000 C 
BRANCH   9  10
ATOM     10  C   UNL     1      -5.393  16.817 -14.829  0.00  0.00    +0.000 C 
ATOM     11  C   UNL     1      -5.861  18.088 -14.131  0.00  0.00    +0.000 C 
BRANCH  10  12
ATOM     12  O   UNL     1      -3.979  16.690 -14.621  0.00  0.00    +0.000 OA
ATOM     13  H   UNL     1      -3.676  17.471 -14.128  0.00  0.00    +0.000 HD
ENDBRANCH  10  12
ENDBRANCH   9  10
ENDBRANCH   1   9
BRANCH   1  14
ATOM     14  C   UNL     1      -5.039  13.364 -13.935  0.00  0.00    +0.000 C 
BRANCH  14  15
ATOM     15  C   UNL     1      -6.270  12.436 -13.798  0.00  0.00    +0.000 C 
ATOM     16  C   UNL     1      -6.579  11.658 -15.072  0.00  0.00    +0.000 C 
BRANCH  15  17
ATOM     17  O   UNL     1      -6.107  11.498 -12.736  0.00  0.00    +0.000 OA
ATOM     18  H   UNL     1      -6.511  10.670 -13.066  0.00  0.00    +0.000 HD
ENDBRANCH  15  17
ENDBRANCH  14  15
ENDBRANCH   1  14
TORSDOF 7
ENDMDL
MODEL 2
REMARK VINA RESULT:    -4.088      1.858      4.350
REMARK INTER + INTRA:          -6.069
REMARK INTER:                  -5.374
REMARK INTRA:                  -0.696
REMARK UNBOUND:                -0.548
REMARK  Name = 
REMARK  10 active torsions:
REMARK  status: ('A' for Active; 'I' for Inactive)
REMARK    1  A    between atoms: C_1  and  C_2
REMARK    2  A    between atoms: C_5  and  N_8
REMARK    3  A    between atoms: N_8  and  C_9
REMARK    4  A    between atoms: N_8  and  C_13
REMARK    5  A    between atoms: C_9  and  C_10
REMARK    6  A    between atoms: C_10  and  C_11
REMARK    7  A    between atoms: C_10  and  O_12
REMARK    8  A    between atoms: C_13  and  C_14
REMARK    9  A    between atoms: C_14  and  C_15
REMARK   10  A    between atoms: C_14  and  O_16
REMARK                            x       y       z     vdW  Elec       q    Type
REMARK                         _______ _______ _______ _____ _____    ______ ____
ROOT
ATOM      1  N   UNL     1      -5.459  15.149 -12.805  0.00  0.00    +0.000 N 
ENDROOT
BRANCH   1   6
ATOM      2  C   UNL     1      -2.798  19.801 -14.954  0.00  0.00    +0.000 C 
ATOM      3  C   UNL     1      -3.469  18.579 -14.403  0.00  0.00    +0.000 A 
ATOM      4  C   UNL     1      -4.332  17.823 -15.188  0.00  0.00    +0.000 A 
ATOM      5  C   UNL     1      -4.982  16.696 -14.658  0.00  0.00    +0.000 A 
ATOM      6  C   UNL     1      -4.823  16.285 -13.322  0.00  0.00    +0.000 A 
ATOM      7  C   UNL     1      -3.942  17.072 -12.558  0.00  0.00    +0.000 A 
ATOM      8  C   UNL     1      -3.284  18.200 -13.077  0.00  0.00    +0.000 A 
ENDBRANCH   1   6
BRANCH   1   9
ATOM      9  C   UNL     1      -6.215  15.236 -11.533  0.00  0.00    +0.000 C 
BRANCH   9  10
ATOM     10  C   UNL     1      -5.468  14.581 -10.345  0.00  0.00    +0.000 C 
ATOM     11  C   UNL     1      -5.289  15.572  -9.201  0.00  0.00    +0.000 C 
BRANCH  10  12
ATOM     12  O   UNL     1      -6.192  13.449  -9.842  0.00  0.00    +0.000 OA
ATOM     13  H   UNL     1      -7.054  13.420 -10.289  0.00  0.00    +0.000 HD
ENDBRANCH  10  12
ENDBRANCH   9  10
ENDBRANCH   1   9
BRANCH   1  14
ATOM     14  C   UNL     1      -5.009  13.782 -13.173  0.00  0.00    +0.000 C 
BRANCH  14  15
ATOM     15  C   UNL     1      -6.198  12.820 -13.409  0.00  0.00    +0.000 C 
ATOM     16  C   UNL     1      -6.199  12.199 -14.801  0.00  0.00    +0.000 C 
BRANCH  15  17
ATOM     17  O   UNL     1      -6.218  11.762 -12.453  0.00  0.00    +0.000 OA
ATOM     18  H   UNL     1      -6.267  10.942 -12.984  0.00  0.00    +0.000 HD
ENDBRANCH  15  17
ENDBRANCH  14  15
ENDBRANCH   1  14
TORSDOF 7
ENDMDL
MODEL 3
REMARK VINA RESULT:    -4.067     20.252     22.910
REMARK INTER + INTRA:          -6.042
REMARK INTER:                  -5.498
REMARK INTRA:                  -0.544
REMARK UNBOUND:                -0.548
REMARK  Name = 
REMARK  10 active torsions:
REMARK  status: ('A' for Active; 'I' for Inactive)
REMARK    1  A    between atoms: C_1  and  C_2
REMARK    2  A    between atoms: C_5  and  N_8
REMARK    3  A    between atoms: N_8  and  C_9
REMARK    4  A    between atoms: N_8  and  C_13
REMARK    5  A    between atoms: C_9  and  C_10
REMARK    6  A    between atoms: C_10  and  C_11
REMARK    7  A    between atoms: C_10  and  O_12
REMARK    8  A    between atoms: C_13  and  C_14
REMARK    9  A    between atoms: C_14  and  C_15
REMARK   10  A    between atoms: C_14  and  O_16
REMARK                            x       y       z     vdW  Elec       q    Type
REMARK                         _______ _______ _______ _____ _____    ______ ____
ROOT
ATOM      1  N   UNL     1       7.495  21.796   4.409  0.00  0.00    +0.000 N 
ENDROOT
BRANCH   1   6
ATOM      2  C   UNL     1      11.915  24.206   1.584  0.00  0.00    +0.000 C 
ATOM      3  C   UNL     1      10.783  23.563   2.325  0.00  0.00    +0.000 A 
ATOM      4  C   UNL     1       9.969  22.620   1.708  0.00  0.00    +0.000 A 
ATOM      5  C   UNL     1       8.891  22.042   2.398  0.00  0.00    +0.000 A 
ATOM      6  C   UNL     1       8.559  22.390   3.720  0.00  0.00    +0.000 A 
ATOM      7  C   UNL     1       9.405  23.345   4.314  0.00  0.00    +0.000 A 
ATOM      8  C   UNL     1      10.488  23.929   3.635  0.00  0.00    +0.000 A 
ENDBRANCH   1   6
BRANCH   1   9
ATOM      9  C   UNL     1       7.703  21.251   5.772  0.00  0.00    +0.000 C 
BRANCH   9  10
ATOM     10  C   UNL     1       8.697  20.063   5.797  0.00  0.00    +0.000 C 
ATOM     11  C   UNL     1       9.768  20.272   6.861  0.00  0.00    +0.000 C 
BRANCH  10  12
ATOM     12  O   UNL     1       8.019  18.832   6.084  0.00  0.00    +0.000 OA
ATOM     13  H   UNL     1       8.330  18.511   6.947  0.00  0.00    +0.000 HD
ENDBRANCH  10  12
ENDBRANCH   9  10
ENDBRANCH   1   9
BRANCH   1  14
ATOM     14  C   UNL     1       6.328  21.232   3.683  0.00  0.00    +0.000 C 
BRANCH  14  15
ATOM     15  C   UNL     1       5.047  22.075   3.892  0.00  0.00    +0.000 C 
ATOM     16  C   UNL     1       4.693  22.937   2.686  0.00  0.00    +0.000 C 
BRANCH  15  17
ATOM     17  O   UNL     1       3.920  21.255   4.195  0.00  0.00    +0.000 OA
ATOM     18  H   UNL     1       3.149  21.743   3.842  0.00  0.00    +0.000 HD
ENDBRANCH  15  17
ENDBRANCH  14  15
ENDBRANCH   1  14
TORSDOF 7
ENDMDL
MODEL 4
REMARK VINA RESULT:    -4.035      2.249      4.872
REMARK INTER + INTRA:          -5.998
REMARK INTER:                  -5.162
REMARK INTRA:                  -0.836
REMARK UNBOUND:                -0.548
REMARK  Name = 
REMARK  10 active torsions:
REMARK  status: ('A' for Active; 'I' for Inactive)
REMARK    1  A    between atoms: C_1  and  C_2
REMARK    2  A    between atoms: C_5  and  N_8
REMARK    3  A    between atoms: N_8  and  C_9
REMARK    4  A    between atoms: N_8  and  C_13
REMARK    5  A    between atoms: C_9  and  C_10
REMARK    6  A    between atoms: C_10  and  C_11
REMARK    7  A    between atoms: C_10  and  O_12
REMARK    8  A    between atoms: C_13  and  C_14
REMARK    9  A    between atoms: C_14  and  C_15
REMARK   10  A    between atoms: C_14  and  O_16
REMARK                            x       y       z     vdW  Elec       q    Type
REMARK                         _______ _______ _______ _____ _____    ______ ____
ROOT
ATOM      1  N   UNL     1      -5.660  15.821 -12.045  0.00  0.00    +0.000 N 
ENDROOT
BRANCH   1   6
ATOM      2  C   UNL     1      -3.323  20.647 -14.185  0.00  0.00    +0.000 C 
ATOM      3  C   UNL     1      -3.929  19.384 -13.652  0.00  0.00    +0.000 A 
ATOM      4  C   UNL     1      -5.309  19.219 -13.602  0.00  0.00    +0.000 A 
ATOM      5  C   UNL     1      -5.871  18.046 -13.074  0.00  0.00    +0.000 A 
ATOM      6  C   UNL     1      -5.093  16.997 -12.552  0.00  0.00    +0.000 A 
ATOM      7  C   UNL     1      -3.702  17.197 -12.620  0.00  0.00    +0.000 A 
ATOM      8  C   UNL     1      -3.126  18.364 -13.148  0.00  0.00    +0.000 A 
ENDBRANCH   1   6
BRANCH   1   9
ATOM      9  C   UNL     1      -6.124  14.760 -12.971  0.00  0.00    +0.000 C 
BRANCH   9  10
ATOM     10  C   UNL     1      -5.019  13.727 -13.301  0.00  0.00    +0.000 C 
ATOM     11  C   UNL     1      -4.363  14.040 -14.641  0.00  0.00    +0.000 C 
BRANCH  10  12
ATOM     12  O   UNL     1      -3.997  13.727 -12.295  0.00  0.00    +0.000 OA
ATOM     13  H   UNL     1      -3.160  13.982 -12.716  0.00  0.00    +0.000 HD
ENDBRANCH  10  12
ENDBRANCH   9  10
ENDBRANCH   1   9
BRANCH   1  14
ATOM     14  C   UNL     1      -6.279  15.786 -10.695  0.00  0.00    +0.000 C 
BRANCH  14  15
ATOM     15  C   UNL     1      -5.221  15.700  -9.569  0.00  0.00    +0.000 C 
ATOM     16  C   UNL     1      -5.804  15.925  -8.179  0.00  0.00    +0.000 C 
BRANCH  15  17
ATOM     17  O   UNL     1      -4.553  14.439  -9.569  0.00  0.00    +0.000 OA
ATOM     18  H   UNL     1      -3.602  14.656  -9.501  0.00  0.00    +0.000 HD
ENDBRANCH  15  17
ENDBRANCH  14  15
ENDBRANCH   1  14
TORSDOF 7
ENDMDL
MODEL 5
REMARK VINA RESULT:    -3.939      2.256      4.389
REMARK INTER + INTRA:          -5.868
REMARK INTER:                  -5.356
REMARK INTRA:                  -0.511
REMARK UNBOUND:                -0.548
REMARK  Name = 
REMARK  10 active torsions:
REMARK  status: ('A' for Active; 'I' for Inactive)
REMARK    1  A    between atoms: C_1  and  C_2
REMARK    2  A    between atoms: C_5  and  N_8
REMARK    3  A    between atoms: N_8  and  C_9
REMARK    4  A    between atoms: N_8  and  C_13
REMARK    5  A    between atoms: C_9  and  C_10
REMARK    6  A    between atoms: C_10  and  C_11
REMARK    7  A    between atoms: C_10  and  O_12
REMARK    8  A    between atoms: C_13  and  C_14
REMARK    9  A    between atoms: C_14  and  C_15
REMARK   10  A    between atoms: C_14  and  O_16
REMARK                            x       y       z     vdW  Elec       q    Type
REMARK                         _______ _______ _______ _____ _____    ______ ____
ROOT
ATOM      1  N   UNL     1      -4.847  14.940 -11.030  0.00  0.00    +0.000 N 
ENDROOT
BRANCH   1   6
ATOM      2  C   UNL     1      -5.598  19.355 -14.673  0.00  0.00    +0.000 C 
ATOM      3  C   UNL     1      -5.404  18.226 -13.708  0.00  0.00    +0.000 A 
ATOM      4  C   UNL     1      -4.128  17.801 -13.353  0.00  0.00    +0.000 A 
ATOM      5  C   UNL     1      -3.952  16.722 -12.472  0.00  0.00    +0.000 A 
ATOM      6  C   UNL     1      -5.030  16.003 -11.923  0.00  0.00    +0.000 A 
ATOM      7  C   UNL     1      -6.305  16.461 -12.303  0.00  0.00    +0.000 A 
ATOM      8  C   UNL     1      -6.495  17.540 -13.182  0.00  0.00    +0.000 A 
ENDBRANCH   1   6
BRANCH   1   9
ATOM      9  C   UNL     1      -4.230  15.182  -9.703  0.00  0.00    +0.000 C 
BRANCH   9  10
ATOM     10  C   UNL     1      -5.213  15.819  -8.691  0.00  0.00    +0.000 C 
ATOM     11  C   UNL     1      -6.579  15.145  -8.760  0.00  0.00    +0.000 C 
BRANCH  10  12
ATOM     12  O   UNL     1      -4.723  15.692  -7.349  0.00  0.00    +0.000 OA
ATOM     13  H   UNL     1      -5.327  15.108  -6.861  0.00  0.00    +0.000 HD
ENDBRANCH  10  12
ENDBRANCH   9  10
ENDBRANCH   1   9
BRANCH   1  14
ATOM     14  C   UNL     1      -4.765  13.537 -11.510  0.00  0.00    +0.000 C 
BRANCH  14  15
ATOM     15  C   UNL     1      -6.150  12.974 -11.910  0.00  0.00    +0.000 C 
ATOM     16  C   UNL     1      -6.201  12.471 -13.347  0.00  0.00    +0.000 C 
BRANCH  15  17
ATOM     17  O   UNL     1      -6.553  11.907 -11.053  0.00  0.00    +0.000 OA
ATOM     18  H   UNL     1      -7.257  12.287 -10.489  0.00  0.00    +0.000 HD
ENDBRANCH  15  17
ENDBRANCH  14  15
ENDBRANCH   1  14
TORSDOF 7
ENDMDL
MODEL 6
REMARK VINA RESULT:    -3.878      3.033      4.790
REMARK INTER + INTRA:          -5.786
REMARK INTER:                  -5.460
REMARK INTRA:                  -0.326
REMARK UNBOUND:                -0.548
REMARK  Name = 
REMARK  10 active torsions:
REMARK  status: ('A' for Active; 'I' for Inactive)
REMARK    1  A    between atoms: C_1  and  C_2
REMARK    2  A    between atoms: C_5  and  N_8
REMARK    3  A    between atoms: N_8  and  C_9
REMARK    4  A    between atoms: N_8  and  C_13
REMARK    5  A    between atoms: C_9  and  C_10
REMARK    6  A    between atoms: C_10  and  C_11
REMARK    7  A    between atoms: C_10  and  O_12
REMARK    8  A    between atoms: C_13  and  C_14
REMARK    9  A    between atoms: C_14  and  C_15
REMARK   10  A    between atoms: C_14  and  O_16
REMARK                            x       y       z     vdW  Elec       q    Type
REMARK                         _______ _______ _______ _____ _____    ______ ____
ROOT
ATOM      1  N   UNL     1      -4.044  17.520 -14.295  0.00  0.00    +0.000 N 
ENDROOT
BRANCH   1   6
ATOM      2  C   UNL     1      -4.346  12.921 -10.818  0.00  0.00    +0.000 C 
ATOM      3  C   UNL     1      -4.243  14.112 -11.721  0.00  0.00    +0.000 A 
ATOM      4  C   UNL     1      -4.166  15.399 -11.199  0.00  0.00    +0.000 A 
ATOM      5  C   UNL     1      -4.099  16.514 -12.050  0.00  0.00    +0.000 A 
ATOM      6  C   UNL     1      -4.130  16.405 -13.452  0.00  0.00    +0.000 A 
ATOM      7  C   UNL     1      -4.207  15.089 -13.945  0.00  0.00    +0.000 A 
ATOM      8  C   UNL     1      -4.271  13.965 -13.105  0.00  0.00    +0.000 A 
ENDBRANCH   1   6
BRANCH   1   9
ATOM      9  C   UNL     1      -5.276  18.226 -14.721  0.00  0.00    +0.000 C 
BRANCH   9  10
ATOM     10  C   UNL     1      -5.558  19.499 -13.886  0.00  0.00    +0.000 C 
ATOM     11  C   UNL     1      -6.070  20.629 -14.771  0.00  0.00    +0.000 C 
BRANCH  10  12
ATOM     12  O   UNL     1      -6.543  19.244 -12.875  0.00  0.00    +0.000 OA
ATOM     13  H   UNL     1      -7.127  20.019 -12.822  0.00  0.00    +0.000 HD
ENDBRANCH  10  12
ENDBRANCH   9  10
ENDBRANCH   1   9
BRANCH   1  14
ATOM     14  C   UNL     1      -2.869  17.727 -15.179  0.00  0.00    +0.000 C 
BRANCH  14  15
ATOM     15  C   UNL     1      -1.937  18.848 -14.659  0.00  0.00    +0.000 C 
ATOM     16  C   UNL     1      -1.991  19.018 -13.146  0.00  0.00    +0.000 C 
BRANCH  15  17
ATOM     17  O   UNL     1      -0.578  18.618 -15.030  0.00  0.00    +0.000 OA
ATOM     18  H   UNL     1      -0.123  19.467 -14.859  0.00  0.00    +0.000 HD
ENDBRANCH  15  17
ENDBRANCH  14  15
ENDBRANCH   1  14
TORSDOF 7
ENDMDL
MODEL 7
REMARK VINA RESULT:    -3.831      1.271      3.798
REMARK INTER + INTRA:          -5.722
REMARK INTER:                  -5.129
REMARK INTRA:                  -0.593
REMARK UNBOUND:                -0.548
REMARK  Name = 
REMARK  10 active torsions:
REMARK  status: ('A' for Active; 'I' for Inactive)
REMARK    1  A    between atoms: C_1  and  C_2
REMARK    2  A    between atoms: C_5  and  N_8
REMARK    3  A    between atoms: N_8  and  C_9
REMARK    4  A    between atoms: N_8  and  C_13
REMARK    5  A    between atoms: C_9  and  C_10
REMARK    6  A    between atoms: C_10  and  C_11
REMARK    7  A    between atoms: C_10  and  O_12
REMARK    8  A    between atoms: C_13  and  C_14
REMARK    9  A    between atoms: C_14  and  C_15
REMARK   10  A    between atoms: C_14  and  O_16
REMARK                            x       y       z     vdW  Elec       q    Type
REMARK                         _______ _______ _______ _____ _____    ______ ____
ROOT
ATOM      1  N   UNL     1      -5.496  15.490 -13.357  0.00  0.00    +0.000 N 
ENDROOT
BRANCH   1   6
ATOM      2  C   UNL     1      -4.829  15.668  -7.625  0.00  0.00    +0.000 C 
ATOM      3  C   UNL     1      -5.010  15.598  -9.110  0.00  0.00    +0.000 A 
ATOM      4  C   UNL     1      -3.959  15.224  -9.941  0.00  0.00    +0.000 A 
ATOM      5  C   UNL     1      -4.125  15.189 -11.335  0.00  0.00    +0.000 A 
ATOM      6  C   UNL     1      -5.331  15.546 -11.967  0.00  0.00    +0.000 A 
ATOM      7  C   UNL     1      -6.372  15.917 -11.096  0.00  0.00    +0.000 A 
ATOM      8  C   UNL     1      -6.219  15.953  -9.700  0.00  0.00    +0.000 A 
ENDBRANCH   1   6
BRANCH   1   9
ATOM      9  C   UNL     1      -6.234  14.362 -13.973  0.00  0.00    +0.000 C 
BRANCH   9  10
ATOM     10  C   UNL     1      -5.538  12.997 -13.753  0.00  0.00    +0.000 C 
ATOM     11  C   UNL     1      -6.320  12.138 -12.767  0.00  0.00    +0.000 C 
BRANCH  10  12
ATOM     12  O   UNL     1      -5.428  12.271 -14.985  0.00  0.00    +0.000 OA
ATOM     13  H   UNL     1      -4.484  12.137 -15.173  0.00  0.00    +0.000 HD
ENDBRANCH  10  12
ENDBRANCH   9  10
ENDBRANCH   1   9
BRANCH   1  14
ATOM     14  C   UNL     1      -4.565  16.201 -14.271  0.00  0.00    +0.000 C 
BRANCH  14  15
ATOM     15  C   UNL     1      -4.534  17.725 -14.004  0.00  0.00    +0.000 C 
ATOM     16  C   UNL     1      -3.204  18.209 -13.440  0.00  0.00    +0.000 C 
BRANCH  15  17
ATOM     17  O   UNL     1      -4.810  18.472 -15.188  0.00  0.00    +0.000 OA
ATOM     18  H   UNL     1      -4.648  17.848 -15.924  0.00  0.00    +0.000 HD
ENDBRANCH  15  17
ENDBRANCH  14  15
ENDBRANCH   1  14
TORSDOF 7
ENDMDL
MODEL 8
REMARK VINA RESULT:    -3.817     19.404     22.674
REMARK INTER + INTRA:          -5.703
REMARK INTER:                  -5.174
REMARK INTRA:                  -0.529
REMARK UNBOUND:                -0.548
REMARK  Name = 
REMARK  10 active torsions:
REMARK  status: ('A' for Active; 'I' for Inactive)
REMARK    1  A    between atoms: C_1  and  C_2
REMARK    2  A    between atoms: C_5  and  N_8
REMARK    3  A    between atoms: N_8  and  C_9
REMARK    4  A    between atoms: N_8  and  C_13
REMARK    5  A    between atoms: C_9  and  C_10
REMARK    6  A    between atoms: C_10  and  C_11
REMARK    7  A    between atoms: C_10  and  O_12
REMARK    8  A    between atoms: C_13  and  C_14
REMARK    9  A    between atoms: C_14  and  C_15
REMARK   10  A    between atoms: C_14  and  O_16
REMARK                            x       y       z     vdW  Elec       q    Type
REMARK                         _______ _______ _______ _____ _____    ______ ____
ROOT
ATOM      1  N   UNL     1       7.975  22.535   4.562  0.00  0.00    +0.000 N 
ENDROOT
BRANCH   1   6
ATOM      2  C   UNL     1       3.186  23.148   1.397  0.00  0.00    +0.000 C 
ATOM      3  C   UNL     1       4.420  23.005   2.235  0.00  0.00    +0.000 A 
ATOM      4  C   UNL     1       5.527  23.820   2.022  0.00  0.00    +0.000 A 
ATOM      5  C   UNL     1       6.691  23.661   2.791  0.00  0.00    +0.000 A 
ATOM      6  C   UNL     1       6.818  22.675   3.786  0.00  0.00    +0.000 A 
ATOM      7  C   UNL     1       5.679  21.870   3.975  0.00  0.00    +0.000 A 
ATOM      8  C   UNL     1       4.508  22.020   3.214  0.00  0.00    +0.000 A 
ENDBRANCH   1   6
BRANCH   1   9
ATOM      9  C   UNL     1       7.936  21.751   5.820  0.00  0.00    +0.000 C 
BRANCH   9  10
ATOM     10  C   UNL     1       8.643  20.379   5.694  0.00  0.00    +0.000 C 
ATOM     11  C   UNL     1       9.646  20.176   6.824  0.00  0.00    +0.000 C 
BRANCH  10  12
ATOM     12  O   UNL     1       7.693  19.305   5.746  0.00  0.00    +0.000 OA
ATOM     13  H   UNL     1       8.104  18.562   6.219  0.00  0.00    +0.000 HD
ENDBRANCH  10  12
ENDBRANCH   9  10
ENDBRANCH   1   9
BRANCH   1  14
ATOM     14  C   UNL     1       9.084  23.519   4.474  0.00  0.00    +0.000 C 
BRANCH  14  15
ATOM     15  C   UNL     1      10.379  22.892   3.906  0.00  0.00    +0.000 C 
ATOM     16  C   UNL     1      10.168  22.185   2.572  0.00  0.00    +0.000 C 
BRANCH  15  17
ATOM     17  O   UNL     1      11.405  23.868   3.731  0.00  0.00    +0.000 OA
ATOM     18  H   UNL     1      11.528  23.935   2.762  0.00  0.00    +0.000 HD
ENDBRANCH  15  17
ENDBRANCH  14  15
ENDBRANCH   1  14
TORSDOF 7
ENDMDL
MODEL 9
REMARK VINA RESULT:    -3.764     20.189     22.542
REMARK INTER + INTRA:          -5.631
REMARK INTER:                  -5.066
REMARK INTRA:                  -0.566
REMARK UNBOUND:                -0.548
REMARK  Name = 
REMARK  10 active torsions:
REMARK  status: ('A' for Active; 'I' for Inactive)
REMARK    1  A    between atoms: C_1  and  C_2
REMARK    2  A    between atoms: C_5  and  N_8
REMARK    3  A    between atoms: N_8  and  C_9
REMARK    4  A    between atoms: N_8  and  C_13
REMARK    5  A    between atoms: C_9  and  C_10
REMARK    6  A    between atoms: C_10  and  C_11
REMARK    7  A    between atoms: C_10  and  O_12
REMARK    8  A    between atoms: C_13  and  C_14
REMARK    9  A    between atoms: C_14  and  C_15
REMARK   10  A    between atoms: C_14  and  O_16
REMARK                            x       y       z     vdW  Elec       q    Type
REMARK                         _______ _______ _______ _____ _____    ______ ____
ROOT
ATOM      1  N   UNL     1       7.514  21.955   3.955  0.00  0.00    +0.000 N 
ENDROOT
BRANCH   1   6
ATOM      2  C   UNL     1      11.203  24.048   0.038  0.00  0.00    +0.000 C 
ATOM      3  C   UNL     1      10.257  23.518   1.072  0.00  0.00    +0.000 A 
ATOM      4  C   UNL     1      10.533  22.338   1.754  0.00  0.00    +0.000 A 
ATOM      5  C   UNL     1       9.628  21.831   2.701  0.00  0.00    +0.000 A 
ATOM      6  C   UNL     1       8.403  22.456   2.995  0.00  0.00    +0.000 A 
ATOM      7  C   UNL     1       8.159  23.648   2.288  0.00  0.00    +0.000 A 
ATOM      8  C   UNL     1       9.056  24.167   1.340  0.00  0.00    +0.000 A 
ENDBRANCH   1   6
BRANCH   1   9
ATOM      9  C   UNL     1       6.263  21.283   3.530  0.00  0.00    +0.000 C 
BRANCH   9  10
ATOM     10  C   UNL     1       4.995  22.102   3.876  0.00  0.00    +0.000 C 
ATOM     11  C   UNL     1       4.558  22.957   2.693  0.00  0.00    +0.000 C 
BRANCH  10  12
ATOM     12  O   UNL     1       3.905  21.239   4.228  0.00  0.00    +0.000 OA
ATOM     13  H   UNL     1       3.110  21.553   3.765  0.00  0.00    +0.000 HD
ENDBRANCH  10  12
ENDBRANCH   9  10
ENDBRANCH   1   9
BRANCH   1  14
ATOM     14  C   UNL     1       7.496  22.491   5.340  0.00  0.00    +0.000 C 
BRANCH  14  15
ATOM     15  C   UNL     1       8.464  21.726   6.275  0.00  0.00    +0.000 C 
ATOM     16  C   UNL     1       8.600  20.250   5.920  0.00  0.00    +0.000 C 
BRANCH  15  17
ATOM     17  O   UNL     1       9.769  22.304   6.269  0.00  0.00    +0.000 OA
ATOM     18  H   UNL     1       9.998  22.400   5.323  0.00  0.00    +0.000 HD
ENDBRANCH  15  17
ENDBRANCH  14  15
ENDBRANCH   1  14
TORSDOF 7
ENDMDL
