MODEL 1
REMARK VINA RESULT:    -5.375      0.000      0.000
REMARK INTER + INTRA:          -7.725
REMARK INTER:                  -7.261
REMARK INTRA:                  -0.465
REMARK UNBOUND:                -0.465
REMARK  Name = 
REMARK  10 active torsions:
REMARK  status: ('A' for Active; 'I' for Inactive)
REMARK    1  A    between atoms: C_1  and  C_2
REMARK    2  A    between atoms: C_5  and  N_8
REMARK    3  A    between atoms: N_8  and  C_9
REMARK    4  A    between atoms: N_8  and  C_13
REMARK    5  A    between atoms: C_9  and  C_10
REMARK    6  A    between atoms: C_10  and  C_11
REMARK    7  A    between atoms: C_10  and  O_12
REMARK    8  A    between atoms: C_13  and  C_14
REMARK    9  A    between atoms: C_14  and  C_15
REMARK   10  A    between atoms: C_14  and  O_16
REMARK                            x       y       z     vdW  Elec       q    Type
REMARK                         _______ _______ _______ _____ _____    ______ ____
ROOT
ATOM      1  N   UNL     1      12.458   3.181   8.336  0.00  0.00    +0.000 N 
ENDROOT
BRANCH   1   6
ATOM      2  C   UNL     1      17.846   1.745   9.830  0.00  0.00    +0.000 C 
ATOM      3  C   UNL     1      16.443   2.094   9.437  0.00  0.00    +0.000 A 
ATOM      4  C   UNL     1      16.140   2.477   8.135  0.00  0.00    +0.000 A 
ATOM      5  C   UNL     1      14.829   2.832   7.779  0.00  0.00    +0.000 A 
ATOM      6  C   UNL     1      13.767   2.845   8.702  0.00  0.00    +0.000 A 
ATOM      7  C   UNL     1      14.109   2.450  10.008  0.00  0.00    +0.000 A 
ATOM      8  C   UNL     1      15.416   2.091  10.376  0.00  0.00    +0.000 A 
ENDBRANCH   1   6
BRANCH   1   9
ATOM      9  C   UNL     1      11.754   2.399   7.290  0.00  0.00    +0.000 C 
BRANCH   9  10
ATOM     10  C   UNL     1      11.330   3.264   6.078  0.00  0.00    +0.000 C 
ATOM     11  C   UNL     1      12.467   3.387   5.072  0.00  0.00    +0.000 C 
BRANCH  10  12
ATOM     12  O   UNL     1      10.201   2.689   5.405  0.00  0.00    +0.000 OA
ATOM     13  H   UNL     1       9.639   3.414   5.086  0.00  0.00    +0.000 HD
ENDBRANCH  10  12
ENDBRANCH   9  10
ENDBRANCH   1   9
BRANCH   1  14
ATOM     14  C   UNL     1      11.925   4.549   8.557  0.00  0.00    +0.000 C 
BRANCH  14  15
ATOM     15  C   UNL     1      11.299   4.713   9.963  0.00  0.00    +0.000 C 
ATOM     16  C   UNL     1      11.375   6.141  10.490  0.00  0.00    +0.000 C 
BRANCH  15  17
ATOM     17  O   UNL     1       9.932   4.307   9.982  0.00  0.00    +0.000 OA
ATOM     18  H   UNL     1       9.881   3.560   9.353  0.00  0.00    +0.000 HD
ENDBRANCH  15  17
ENDBRANCH  14  15
ENDBRANCH   1  14
TORSDOF 7
ENDMDL
MODEL 2
REMARK VINA RESULT:    -5.339      0.331      3.307
REMARK INTER + INTRA:          -7.676
REMARK INTER:                  -7.483
REMARK INTRA:                  -0.193
REMARK UNBOUND:                -0.465
REMARK  Name = 
REMARK  10 active torsions:
REMARK  status: ('A' for Active; 'I' for Inactive)
REMARK    1  A    between atoms: C_1  and  C_2
REMARK    2  A    between atoms: C_5  and  N_8
REMARK    3  A    between atoms: N_8  and  C_9
REMARK    4  A    between atoms: N_8  and  C_13
REMARK    5  A    between atoms: C_9  and  C_10
REMARK    6  A    between atoms: C_10  and  C_11
REMARK    7  A    between atoms: C_10  and  O_12
REMARK    8  A    between atoms: C_13  and  C_14
REMARK    9  A    between atoms: C_14  and  C_15
REMARK   10  A    between atoms: C_14  and  O_16
REMARK                            x       y       z     vdW  Elec       q    Type
REMARK                         _______ _______ _______ _____ _____    ______ ____
ROOT
ATOM      1  N   UNL     1      12.672   3.447   7.894  0.00  0.00    +0.000 N 
ENDROOT
BRANCH   1   6
ATOM      2  C   UNL     1      17.664   1.454  10.001  0.00  0.00    +0.000 C 
ATOM      3  C   UNL     1      16.362   1.948   9.448  0.00  0.00    +0.000 A 
ATOM      4  C   UNL     1      16.266   2.386   8.131  0.00  0.00    +0.000 A 
ATOM      5  C   UNL     1      15.051   2.876   7.626  0.00  0.00    +0.000 A 
ATOM      6  C   UNL     1      13.886   2.975   8.409  0.00  0.00    +0.000 A 
ATOM      7  C   UNL     1      14.020   2.522   9.734  0.00  0.00    +0.000 A 
ATOM      8  C   UNL     1      15.229   2.028  10.251  0.00  0.00    +0.000 A 
ENDBRANCH   1   6
BRANCH   1   9
ATOM      9  C   UNL     1      12.080   4.702   8.416  0.00  0.00    +0.000 C 
BRANCH   9  10
ATOM     10  C   UNL     1      11.446   4.528   9.818  0.00  0.00    +0.000 C 
ATOM     11  C   UNL     1      11.415   5.853  10.571  0.00  0.00    +0.000 C 
BRANCH  10  12
ATOM     12  O   UNL     1      10.100   4.043   9.717  0.00  0.00    +0.000 OA
ATOM     13  H   UNL     1      10.134   3.077   9.613  0.00  0.00    +0.000 HD
ENDBRANCH  10  12
ENDBRANCH   9  10
ENDBRANCH   1   9
BRANCH   1  14
ATOM     14  C   UNL     1      11.708   2.529   7.235  0.00  0.00    +0.000 C 
BRANCH  14  15
ATOM     15  C   UNL     1      11.247   3.057   5.856  0.00  0.00    +0.000 C 
ATOM     16  C   UNL     1      12.336   2.985   4.791  0.00  0.00    +0.000 C 
BRANCH  15  17
ATOM     17  O   UNL     1      10.109   2.346   5.372  0.00  0.00    +0.000 OA
ATOM     18  H   UNL     1      10.446   1.802   4.633  0.00  0.00    +0.000 HD
ENDBRANCH  15  17
ENDBRANCH  14  15
ENDBRANCH   1  14
TORSDOF 7
ENDMDL
MODEL 3
REMARK VINA RESULT:    -5.285     14.366     15.780
REMARK INTER + INTRA:          -7.603
REMARK INTER:                  -7.276
REMARK INTRA:                  -0.327
REMARK UNBOUND:                -0.465
REMARK  Name = 
REMARK  10 active torsions:
REMARK  status: ('A' for Active; 'I' for Inactive)
REMARK    1  A    between atoms: C_1  and  C_2
REMARK    2  A    between atoms: C_5  and  N_8
REMARK    3  A    between atoms: N_8  and  C_9
REMARK    4  A    between atoms: N_8  and  C_13
REMARK    5  A    between atoms: C_9  and  C_10
REMARK    6  A    between atoms: C_10  and  C_11
REMARK    7  A    between atoms: C_10  and  O_12
REMARK    8  A    between atoms: C_13  and  C_14
REMARK    9  A    between atoms: C_14  and  C_15
REMARK   10  A    between atoms: C_14  and  O_16
REMARK                            x       y       z     vdW  Elec       q    Type
REMARK                         _______ _______ _______ _____ _____    ______ ____
ROOT
ATOM      1  N   UNL     1      19.195  10.224  -4.223  0.00  0.00    +0.000 N 
ENDROOT
BRANCH   1   6
ATOM      2  C   UNL     1      23.029  10.278   0.093  0.00  0.00    +0.000 C 
ATOM      3  C   UNL     1      22.016  10.265  -1.010  0.00  0.00    +0.000 A 
ATOM      4  C   UNL     1      21.528   9.066  -1.519  0.00  0.00    +0.000 A 
ATOM      5  C   UNL     1      20.601   9.059  -2.573  0.00  0.00    +0.000 A 
ATOM      6  C   UNL     1      20.135  10.237  -3.184  0.00  0.00    +0.000 A 
ATOM      7  C   UNL     1      20.647  11.431  -2.643  0.00  0.00    +0.000 A 
ATOM      8  C   UNL     1      21.573  11.451  -1.588  0.00  0.00    +0.000 A 
ENDBRANCH   1   6
BRANCH   1   9
ATOM      9  C   UNL     1      19.628   9.949  -5.614  0.00  0.00    +0.000 C 
BRANCH   9  10
ATOM     10  C   UNL     1      21.153  10.129  -5.814  0.00  0.00    +0.000 C 
ATOM     11  C   UNL     1      21.720   9.025  -6.700  0.00  0.00    +0.000 C 
BRANCH  10  12
ATOM     12  O   UNL     1      21.445  11.389  -6.433  0.00  0.00    +0.000 OA
ATOM     13  H   UNL     1      22.311  11.317  -6.868  0.00  0.00    +0.000 HD
ENDBRANCH  10  12
ENDBRANCH   9  10
ENDBRANCH   1   9
BRANCH   1  14
ATOM     14  C   UNL     1      17.906  10.952  -4.102  0.00  0.00    +0.000 C 
BRANCH  14  15
ATOM     15  C   UNL     1      16.697   9.990  -4.009  0.00  0.00    +0.000 C 
ATOM     16  C   UNL     1      15.971   9.808  -5.336  0.00  0.00    +0.000 C 
BRANCH  15  17
ATOM     17  O   UNL     1      17.085   8.701  -3.537  0.00  0.00    +0.000 OA
ATOM     18  H   UNL     1      17.687   8.877  -2.785  0.00  0.00    +0.000 HD
ENDBRANCH  15  17
ENDBRANCH  14  15
ENDBRANCH   1  14
TORSDOF 7
ENDMDL
MODEL 4
REMARK VINA RESULT:    -5.158     14.508     15.903
REMARK INTER + INTRA:          -7.432
REMARK INTER:                  -7.199
REMARK INTRA:                  -0.233
REMARK UNBOUND:                -0.465
REMARK  Name = 
REMARK  10 active torsions:
REMARK  status: ('A' for Active; 'I' for Inactive)
REMARK    1  A    between atoms: C_1  and  C_2
REMARK    2  A    between atoms: C_5  and  N_8
REMARK    3  A    between atoms: N_8  and  C_9
REMARK    4  A    between atoms: N_8  and  C_13
REMARK    5  A    between atoms: C_9  and  C_10
REMARK    6  A    between atoms: C_10  and  C_11
REMARK    7  A    between atoms: C_10  and  O_12
REMARK    8  A    between atoms: C_13  and  C_14
REMARK    9  A    between atoms: C_14  and  C_15
REMARK   10  A    between atoms: C_14  and  O_16
REMARK                            x       y       z     vdW  Elec       q    Type
REMARK                         _______ _______ _______ _____ _____    ______ ____
ROOT
ATOM      1  N   UNL     1      19.146  10.208  -4.079  0.00  0.00    +0.000 N 
ENDROOT
BRANCH   1   6
ATOM      2  C   UNL     1      23.108  10.331   0.118  0.00  0.00    +0.000 C 
ATOM      3  C   UNL     1      22.062  10.300  -0.954  0.00  0.00    +0.000 A 
ATOM      4  C   UNL     1      21.602   9.092  -1.467  0.00  0.00    +0.000 A 
ATOM      5  C   UNL     1      20.642   9.069  -2.493  0.00  0.00    +0.000 A 
ATOM      6  C   UNL     1      20.117  10.239  -3.070  0.00  0.00    +0.000 A 
ATOM      7  C   UNL     1      20.603  11.441  -2.525  0.00  0.00    +0.000 A 
ATOM      8  C   UNL     1      21.560  11.479  -1.498  0.00  0.00    +0.000 A 
ENDBRANCH   1   6
BRANCH   1   9
ATOM      9  C   UNL     1      17.741   9.867  -3.750  0.00  0.00    +0.000 C 
BRANCH   9  10
ATOM     10  C   UNL     1      16.716  10.736  -4.519  0.00  0.00    +0.000 C 
ATOM     11  C   UNL     1      15.829   9.872  -5.408  0.00  0.00    +0.000 C 
BRANCH  10  12
ATOM     12  O   UNL     1      15.870  11.457  -3.613  0.00  0.00    +0.000 OA
ATOM     13  H   UNL     1      14.947  11.239  -3.825  0.00  0.00    +0.000 HD
ENDBRANCH  10  12
ENDBRANCH   9  10
ENDBRANCH   1   9
BRANCH   1  14
ATOM     14  C   UNL     1      19.522  10.001  -5.501  0.00  0.00    +0.000 C 
BRANCH  14  15
ATOM     15  C   UNL     1      21.052  10.076  -5.718  0.00  0.00    +0.000 C 
ATOM     16  C   UNL     1      21.565   9.059  -6.730  0.00  0.00    +0.000 C 
BRANCH  15  17
ATOM     17  O   UNL     1      21.461  11.373  -6.150  0.00  0.00    +0.000 OA
ATOM     18  H   UNL     1      20.682  11.947  -5.998  0.00  0.00    +0.000 HD
ENDBRANCH  15  17
ENDBRANCH  14  15
ENDBRANCH   1  14
TORSDOF 7
ENDMDL
MODEL 5
REMARK VINA RESULT:    -5.120      2.025      4.604
REMARK INTER + INTRA:          -7.380
REMARK INTER:                  -7.023
REMARK INTRA:                  -0.357
REMARK UNBOUND:                -0.465
REMARK  Name = 
REMARK  10 active torsions:
REMARK  status: ('A' for Active; 'I' for Inactive)
REMARK    1  A    between atoms: C_1  and  C_2
REMARK    2  A    between atoms: C_5  and  N_8
REMARK    3  A    between atoms: N_8  and  C_9
REMARK    4  A    between atoms: N_8  and  C_13
REMARK    5  A    between atoms: C_9  and  C_10
REMARK    6  A    between atoms: C_10  and  C_11
REMARK    7  A    between atoms: C_10  and  O_12
REMARK    8  A    between atoms: C_13  and  C_14
REMARK    9  A    between atoms: C_14  and  C_15
REMARK   10  A    between atoms: C_14  and  O_16
REMARK                            x       y       z     vdW  Elec       q    Type
REMARK                         _______ _______ _______ _____ _____    ______ ____
ROOT
ATOM      1  N   UNL     1      12.634   3.887   9.022  0.00  0.00    +0.000 N 
ENDROOT
BRANCH   1   6
ATOM      2  C   UNL     1      11.798   2.686   3.437  0.00  0.00    +0.000 C 
ATOM      3  C   UNL     1      12.033   2.980   4.887  0.00  0.00    +0.000 A 
ATOM      4  C   UNL     1      11.307   2.325   5.876  0.00  0.00    +0.000 A 
ATOM      5  C   UNL     1      11.510   2.627   7.232  0.00  0.00    +0.000 A 
ATOM      6  C   UNL     1      12.423   3.605   7.666  0.00  0.00    +0.000 A 
ATOM      7  C   UNL     1      13.141   4.245   6.640  0.00  0.00    +0.000 A 
ATOM      8  C   UNL     1      12.949   3.952   5.280  0.00  0.00    +0.000 A 
ENDBRANCH   1   6
BRANCH   1   9
ATOM      9  C   UNL     1      12.867   2.782   9.983  0.00  0.00    +0.000 C 
BRANCH   9  10
ATOM     10  C   UNL     1      14.359   2.628  10.370  0.00  0.00    +0.000 C 
ATOM     11  C   UNL     1      14.604   1.300  11.076  0.00  0.00    +0.000 C 
BRANCH  10  12
ATOM     12  O   UNL     1      15.200   2.677   9.209  0.00  0.00    +0.000 OA
ATOM     13  H   UNL     1      15.731   1.863   9.188  0.00  0.00    +0.000 HD
ENDBRANCH  10  12
ENDBRANCH   9  10
ENDBRANCH   1   9
BRANCH   1  14
ATOM     14  C   UNL     1      12.145   5.151   9.630  0.00  0.00    +0.000 C 
BRANCH  14  15
ATOM     15  C   UNL     1      10.970   4.912  10.608  0.00  0.00    +0.000 C 
ATOM     16  C   UNL     1      10.476   6.191  11.274  0.00  0.00    +0.000 C 
BRANCH  15  17
ATOM     17  O   UNL     1       9.860   4.295   9.958  0.00  0.00    +0.000 OA
ATOM     18  H   UNL     1       9.341   3.885  10.679  0.00  0.00    +0.000 HD
ENDBRANCH  15  17
ENDBRANCH  14  15
ENDBRANCH   1  14
TORSDOF 7
ENDMDL
MODEL 6
REMARK VINA RESULT:    -5.119      1.762      2.497
REMARK INTER + INTRA:          -7.380
REMARK INTER:                  -6.958
REMARK INTRA:                  -0.422
REMARK UNBOUND:                -0.465
REMARK  Name = 
REMARK  10 active torsions:
REMARK  status: ('A' for Active; 'I' for Inactive)
REMARK    1  A    between atoms: C_1  and  C_2
REMARK    2  A    between atoms: C_5  and  N_8
REMARK    3  A    between atoms: N_8  and  C_9
REMARK    4  A    between atoms: N_8  and  C_13
REMARK    5  A    between atoms: C_9  and  C_10
REMARK    6  A    between atoms: C_10  and  C_11
REMARK    7  A    between atoms: C_10  and  O_12
REMARK    8  A    between atoms: C_13  and  C_14
REMARK    9  A    between atoms: C_14  and  C_15
REMARK   10  A    between atoms: C_14  and  O_16
REMARK                            x       y       z     vdW  Elec       q    Type
REMARK                         _______ _______ _______ _____ _____    ______ ____
ROOT
ATOM      1  N   UNL     1      14.086   3.235   7.923  0.00  0.00    +0.000 N 
ENDROOT
BRANCH   1   6
ATOM      2  C   UNL     1      18.068   0.260  10.859  0.00  0.00    +0.000 C 
ATOM      3  C   UNL     1      17.045   1.053  10.105  0.00  0.00    +0.000 A 
ATOM      4  C   UNL     1      15.836   1.406  10.696  0.00  0.00    +0.000 A 
ATOM      5  C   UNL     1      14.869   2.124   9.974  0.00  0.00    +0.000 A 
ATOM      6  C   UNL     1      15.047   2.502   8.631  0.00  0.00    +0.000 A 
ATOM      7  C   UNL     1      16.281   2.130   8.066  0.00  0.00    +0.000 A 
ATOM      8  C   UNL     1      17.258   1.415   8.778  0.00  0.00    +0.000 A 
ENDBRANCH   1   6
BRANCH   1   9
ATOM      9  C   UNL     1      14.421   3.819   6.602  0.00  0.00    +0.000 C 
BRANCH   9  10
ATOM     10  C   UNL     1      13.788   3.039   5.423  0.00  0.00    +0.000 C 
ATOM     11  C   UNL     1      12.683   3.853   4.761  0.00  0.00    +0.000 C 
BRANCH  10  12
ATOM     12  O   UNL     1      14.771   2.728   4.425  0.00  0.00    +0.000 OA
ATOM     13  H   UNL     1      15.650   2.820   4.829  0.00  0.00    +0.000 HD
ENDBRANCH  10  12
ENDBRANCH   9  10
ENDBRANCH   1   9
BRANCH   1  14
ATOM     14  C   UNL     1      12.945   3.882   8.620  0.00  0.00    +0.000 C 
BRANCH  14  15
ATOM     15  C   UNL     1      11.746   2.918   8.798  0.00  0.00    +0.000 C 
ATOM     16  C   UNL     1      10.864   3.273   9.989  0.00  0.00    +0.000 C 
BRANCH  15  17
ATOM     17  O   UNL     1      10.923   2.880   7.633  0.00  0.00    +0.000 OA
ATOM     18  H   UNL     1      11.440   2.374   6.975  0.00  0.00    +0.000 HD
ENDBRANCH  15  17
ENDBRANCH  14  15
ENDBRANCH   1  14
TORSDOF 7
ENDMDL
MODEL 7
REMARK VINA RESULT:    -5.105      1.729      3.784
REMARK INTER + INTRA:          -7.360
REMARK INTER:                  -6.960
REMARK INTRA:                  -0.400
REMARK UNBOUND:                -0.465
REMARK  Name = 
REMARK  10 active torsions:
REMARK  status: ('A' for Active; 'I' for Inactive)
REMARK    1  A    between atoms: C_1  and  C_2
REMARK    2  A    between atoms: C_5  and  N_8
REMARK    3  A    between atoms: N_8  and  C_9
REMARK    4  A    between atoms: N_8  and  C_13
REMARK    5  A    between atoms: C_9  and  C_10
REMARK    6  A    between atoms: C_10  and  C_11
REMARK    7  A    between atoms: C_10  and  O_12
REMARK    8  A    between atoms: C_13  and  C_14
REMARK    9  A    between atoms: C_14  and  C_15
REMARK   10  A    between atoms: C_14  and  O_16
REMARK                            x       y       z     vdW  Elec       q    Type
REMARK                         _______ _______ _______ _____ _____    ______ ____
ROOT
ATOM      1  N   UNL     1      13.486   3.372   7.665  0.00  0.00    +0.000 N 
ENDROOT
BRANCH   1   6
ATOM      2  C   UNL     1      17.992   1.137  10.499  0.00  0.00    +0.000 C 
ATOM      3  C   UNL     1      16.830   1.740   9.771  0.00  0.00    +0.000 A 
ATOM      4  C   UNL     1      15.601   1.907  10.400  0.00  0.00    +0.000 A 
ATOM      5  C   UNL     1      14.507   2.445   9.703  0.00  0.00    +0.000 A 
ATOM      6  C   UNL     1      14.576   2.818   8.348  0.00  0.00    +0.000 A 
ATOM      7  C   UNL     1      15.834   2.637   7.745  0.00  0.00    +0.000 A 
ATOM      8  C   UNL     1      16.937   2.103   8.431  0.00  0.00    +0.000 A 
ENDBRANCH   1   6
BRANCH   1   9
ATOM      9  C   UNL     1      12.112   2.889   7.941  0.00  0.00    +0.000 C 
BRANCH   9  10
ATOM     10  C   UNL     1      11.311   3.848   8.856  0.00  0.00    +0.000 C 
ATOM     11  C   UNL     1      10.950   3.171  10.173  0.00  0.00    +0.000 C 
BRANCH  10  12
ATOM     12  O   UNL     1      12.072   5.027   9.157  0.00  0.00    +0.000 OA
ATOM     13  H   UNL     1      12.579   4.859   9.968  0.00  0.00    +0.000 HD
ENDBRANCH  10  12
ENDBRANCH   9  10
ENDBRANCH   1   9
BRANCH   1  14
ATOM     14  C   UNL     1      13.662   4.036   6.347  0.00  0.00    +0.000 C 
BRANCH  14  15
ATOM     15  C   UNL     1      13.446   3.057   5.167  0.00  0.00    +0.000 C 
ATOM     16  C   UNL     1      12.405   3.545   4.166  0.00  0.00    +0.000 C 
BRANCH  15  17
ATOM     17  O   UNL     1      14.660   2.812   4.458  0.00  0.00    +0.000 OA
ATOM     18  H   UNL     1      14.589   3.347   3.642  0.00  0.00    +0.000 HD
ENDBRANCH  15  17
ENDBRANCH  14  15
ENDBRANCH   1  14
TORSDOF 7
ENDMDL
MODEL 8
REMARK VINA RESULT:    -4.970      2.699      4.830
REMARK INTER + INTRA:          -7.178
REMARK INTER:                  -6.788
REMARK INTRA:                  -0.389
REMARK UNBOUND:                -0.465
REMARK  Name = 
REMARK  10 active torsions:
REMARK  status: ('A' for Active; 'I' for Inactive)
REMARK    1  A    between atoms: C_1  and  C_2
REMARK    2  A    between atoms: C_5  and  N_8
REMARK    3  A    between atoms: N_8  and  C_9
REMARK    4  A    between atoms: N_8  and  C_13
REMARK    5  A    between atoms: C_9  and  C_10
REMARK    6  A    between atoms: C_10  and  C_11
REMARK    7  A    between atoms: C_10  and  O_12
REMARK    8  A    between atoms: C_13  and  C_14
REMARK    9  A    between atoms: C_14  and  C_15
REMARK   10  A    between atoms: C_14  and  O_16
REMARK                            x       y       z     vdW  Elec       q    Type
REMARK                         _______ _______ _______ _____ _____    ______ ____
ROOT
ATOM      1  N   UNL     1      14.539   3.432   7.420  0.00  0.00    +0.000 N 
ENDROOT
BRANCH   1   6
ATOM      2  C   UNL     1      10.269   3.048  11.286  0.00  0.00    +0.000 C 
ATOM      3  C   UNL     1      11.368   3.127  10.271  0.00  0.00    +0.000 A 
ATOM      4  C   UNL     1      12.591   2.502  10.492  0.00  0.00    +0.000 A 
ATOM      5  C   UNL     1      13.628   2.605   9.551  0.00  0.00    +0.000 A 
ATOM      6  C   UNL     1      13.507   3.350   8.364  0.00  0.00    +0.000 A 
ATOM      7  C   UNL     1      12.257   3.966   8.172  0.00  0.00    +0.000 A 
ATOM      8  C   UNL     1      11.211   3.870   9.105  0.00  0.00    +0.000 A 
ENDBRANCH   1   6
BRANCH   1   9
ATOM      9  C   UNL     1      14.321   4.150   6.141  0.00  0.00    +0.000 C 
BRANCH   9  10
ATOM     10  C   UNL     1      13.852   3.215   5.000  0.00  0.00    +0.000 C 
ATOM     11  C   UNL     1      12.443   3.575   4.545  0.00  0.00    +0.000 C 
BRANCH  10  12
ATOM     12  O   UNL     1      14.723   3.311   3.865  0.00  0.00    +0.000 OA
ATOM     13  H   UNL     1      14.766   4.243   3.596  0.00  0.00    +0.000 HD
ENDBRANCH  10  12
ENDBRANCH   9  10
ENDBRANCH   1   9
BRANCH   1  14
ATOM     14  C   UNL     1      15.642   2.437   7.397  0.00  0.00    +0.000 C 
BRANCH  14  15
ATOM     15  C   UNL     1      16.833   2.864   8.288  0.00  0.00    +0.000 C 
ATOM     16  C   UNL     1      17.163   1.848   9.375  0.00  0.00    +0.000 C 
BRANCH  15  17
ATOM     17  O   UNL     1      18.013   3.086   7.518  0.00  0.00    +0.000 OA
ATOM     18  H   UNL     1      18.434   2.206   7.440  0.00  0.00    +0.000 HD
ENDBRANCH  15  17
ENDBRANCH  14  15
ENDBRANCH   1  14
TORSDOF 7
ENDMDL
MODEL 9
REMARK VINA RESULT:    -4.915      2.565      4.456
REMARK INTER + INTRA:          -7.103
REMARK INTER:                  -6.830
REMARK INTRA:                  -0.274
REMARK UNBOUND:                -0.465
REMARK  Name = 
REMARK  10 active torsions:
REMARK  status: ('A' for Active; 'I' for Inactive)
REMARK    1  A    between atoms: C_1  and  C_2
REMARK    2  A    between atoms: C_5  and  N_8
REMARK    3  A    between atoms: N_8  and  C_9
REMARK    4  A    between atoms: N_8  and  C_13
REMARK    5  A    between atoms: C_9  and  C_10
REMARK    6  A    between atoms: C_10  and  C_11
REMARK    7  A    between atoms: C_10  and  O_12
REMARK    8  A    between atoms: C_13  and  C_14
REMARK    9  A    between atoms: C_14  and  C_15
REMARK   10  A    between atoms: C_14  and  O_16
REMARK                            x       y       z     vdW  Elec       q    Type
REMARK                         _______ _______ _______ _____ _____    ______ ____
ROOT
ATOM      1  N   UNL     1      11.875   3.586   9.467  0.00  0.00    +0.000 N 
ENDROOT
BRANCH   1   6
ATOM      2  C   UNL     1      14.319   3.225   4.249  0.00  0.00    +0.000 C 
ATOM      3  C   UNL     1      13.689   3.344   5.603  0.00  0.00    +0.000 A 
ATOM      4  C   UNL     1      14.443   3.173   6.760  0.00  0.00    +0.000 A 
ATOM      5  C   UNL     1      13.841   3.255   8.026  0.00  0.00    +0.000 A 
ATOM      6  C   UNL     1      12.465   3.486   8.201  0.00  0.00    +0.000 A 
ATOM      7  C   UNL     1      11.734   3.655   7.011  0.00  0.00    +0.000 A 
ATOM      8  C   UNL     1      12.324   3.578   5.738  0.00  0.00    +0.000 A 
ENDBRANCH   1   6
BRANCH   1   9
ATOM      9  C   UNL     1      10.595   4.315   9.635  0.00  0.00    +0.000 C 
BRANCH   9  10
ATOM     10  C   UNL     1      10.595   5.251  10.869  0.00  0.00    +0.000 C 
ATOM     11  C   UNL     1      11.333   6.549  10.567  0.00  0.00    +0.000 C 
BRANCH  10  12
ATOM     12  O   UNL     1       9.256   5.582  11.264  0.00  0.00    +0.000 OA
ATOM     13  H   UNL     1       9.296   6.367  11.835  0.00  0.00    +0.000 HD
ENDBRANCH  10  12
ENDBRANCH   9  10
ENDBRANCH   1   9
BRANCH   1  14
ATOM     14  C   UNL     1      12.684   3.451  10.705  0.00  0.00    +0.000 C 
BRANCH  14  15
ATOM     15  C   UNL     1      12.634   2.017  11.284  0.00  0.00    +0.000 C 
ATOM     16  C   UNL     1      11.311   1.309  11.017  0.00  0.00    +0.000 C 
BRANCH  15  17
ATOM     17  O   UNL     1      13.683   1.202  10.765  0.00  0.00    +0.000 OA
ATOM     18  H   UNL     1      13.310   0.792   9.959  0.00  0.00    +0.000 HD
ENDBRANCH  15  17
ENDBRANCH  14  15
ENDBRANCH   1  14
TORSDOF 7
ENDMDL
