MODEL 1
REMARK VINA RESULT:    -5.393      0.000      0.000
REMARK INTER + INTRA:          -7.716
REMARK INTER:                  -7.285
REMARK INTRA:                  -0.431
REMARK UNBOUND:                -0.431
REMARK  Name = 
REMARK  10 active torsions:
REMARK  status: ('A' for Active; 'I' for Inactive)
REMARK    1  A    between atoms: C_1  and  C_2
REMARK    2  A    between atoms: C_5  and  N_8
REMARK    3  A    between atoms: N_8  and  C_9
REMARK    4  A    between atoms: N_8  and  C_13
REMARK    5  A    between atoms: C_9  and  C_10
REMARK    6  A    between atoms: C_10  and  C_11
REMARK    7  A    between atoms: C_10  and  O_12
REMARK    8  A    between atoms: C_13  and  C_14
REMARK    9  A    between atoms: C_14  and  C_15
REMARK   10  A    between atoms: C_14  and  O_16
REMARK                            x       y       z     vdW  Elec       q    Type
REMARK                         _______ _______ _______ _____ _____    ______ ____
ROOT
ATOM      1  N   UNL     1      12.582   6.496   6.907  0.00  0.00    +0.000 N 
ENDROOT
BRANCH   1   6
ATOM      2  C   UNL     1      16.610   4.301   3.401  0.00  0.00    +0.000 C 
ATOM      3  C   UNL     1      15.558   4.847   4.317  0.00  0.00    +0.000 A 
ATOM      4  C   UNL     1      14.279   5.128   3.849  0.00  0.00    +0.000 A 
ATOM      5  C   UNL     1      13.305   5.668   4.705  0.00  0.00    +0.000 A 
ATOM      6  C   UNL     1      13.563   5.975   6.054  0.00  0.00    +0.000 A 
ATOM      7  C   UNL     1      14.866   5.676   6.493  0.00  0.00    +0.000 A 
ATOM      8  C   UNL     1      15.848   5.134   5.648  0.00  0.00    +0.000 A 
ENDBRANCH   1   6
BRANCH   1   9
ATOM      9  C   UNL     1      12.664   6.256   8.368  0.00  0.00    +0.000 C 
BRANCH   9  10
ATOM     10  C   UNL     1      12.016   7.390   9.199  0.00  0.00    +0.000 C 
ATOM     11  C   UNL     1      12.043   7.058  10.687  0.00  0.00    +0.000 C 
BRANCH  10  12
ATOM     12  O   UNL     1      12.711   8.630   9.008  0.00  0.00    +0.000 OA
ATOM     13  H   UNL     1      12.552   8.927   8.097  0.00  0.00    +0.000 HD
ENDBRANCH  10  12
ENDBRANCH   9  10
ENDBRANCH   1   9
BRANCH   1  14
ATOM     14  C   UNL     1      11.225   6.831   6.404  0.00  0.00    +0.000 C 
BRANCH  14  15
ATOM     15  C   UNL     1      10.239   5.647   6.551  0.00  0.00    +0.000 C 
ATOM     16  C   UNL     1       9.002   5.995   7.369  0.00  0.00    +0.000 C 
BRANCH  15  17
ATOM     17  O   UNL     1       9.807   5.161   5.281  0.00  0.00    +0.000 OA
ATOM     18  H   UNL     1       8.843   5.020   5.379  0.00  0.00    +0.000 HD
ENDBRANCH  15  17
ENDBRANCH  14  15
ENDBRANCH   1  14
TORSDOF 7
ENDMDL
MODEL 2
REMARK VINA RESULT:    -5.385      1.011      3.097
REMARK INTER + INTRA:          -7.705
REMARK INTER:                  -7.302
REMARK INTRA:                  -0.403
REMARK UNBOUND:                -0.431
REMARK  Name = 
REMARK  10 active torsions:
REMARK  status: ('A' for Active; 'I' for Inactive)
REMARK    1  A    between atoms: C_1  and  C_2
REMARK    2  A    between atoms: C_5  and  N_8
REMARK    3  A    between atoms: N_8  and  C_9
REMARK    4  A    between atoms: N_8  and  C_13
REMARK    5  A    between atoms: C_9  and  C_10
REMARK    6  A    between atoms: C_10  and  C_11
REMARK    7  A    between atoms: C_10  and  O_12
REMARK    8  A    between atoms: C_13  and  C_14
REMARK    9  A    between atoms: C_14  and  C_15
REMARK   10  A    between atoms: C_14  and  O_16
REMARK                            x       y       z     vdW  Elec       q    Type
REMARK                         _______ _______ _______ _____ _____    ______ ____
ROOT
ATOM      1  N   UNL     1      13.196   6.597   6.322  0.00  0.00    +0.000 N 
ENDROOT
BRANCH   1   6
ATOM      2  C   UNL     1      16.629   3.740   2.664  0.00  0.00    +0.000 C 
ATOM      3  C   UNL     1      15.728   4.460   3.620  0.00  0.00    +0.000 A 
ATOM      4  C   UNL     1      14.492   4.946   3.209  0.00  0.00    +0.000 A 
ATOM      5  C   UNL     1      13.665   5.647   4.102  0.00  0.00    +0.000 A 
ATOM      6  C   UNL     1      14.035   5.915   5.432  0.00  0.00    +0.000 A 
ATOM      7  C   UNL     1      15.290   5.407   5.814  0.00  0.00    +0.000 A 
ATOM      8  C   UNL     1      16.127   4.703   4.932  0.00  0.00    +0.000 A 
ENDBRANCH   1   6
BRANCH   1   9
ATOM      9  C   UNL     1      11.769   6.812   5.983  0.00  0.00    +0.000 C 
BRANCH   9  10
ATOM     10  C   UNL     1      10.872   5.611   6.372  0.00  0.00    +0.000 C 
ATOM     11  C   UNL     1       9.993   5.953   7.568  0.00  0.00    +0.000 C 
BRANCH  10  12
ATOM     12  O   UNL     1      10.017   5.234   5.284  0.00  0.00    +0.000 OA
ATOM     13  H   UNL     1      10.511   5.352   4.456  0.00  0.00    +0.000 HD
ENDBRANCH  10  12
ENDBRANCH   9  10
ENDBRANCH   1   9
BRANCH   1  14
ATOM     14  C   UNL     1      13.748   7.541   7.328  0.00  0.00    +0.000 C 
BRANCH  14  15
ATOM     15  C   UNL     1      12.635   8.238   8.147  0.00  0.00    +0.000 C 
ATOM     16  C   UNL     1      12.721   7.952   9.641  0.00  0.00    +0.000 C 
BRANCH  15  17
ATOM     17  O   UNL     1      12.656   9.653   7.966  0.00  0.00    +0.000 OA
ATOM     18  H   UNL     1      13.604   9.896   7.980  0.00  0.00    +0.000 HD
ENDBRANCH  15  17
ENDBRANCH  14  15
ENDBRANCH   1  14
TORSDOF 7
ENDMDL
MODEL 3
REMARK VINA RESULT:    -5.383      1.030      3.322
REMARK INTER + INTRA:          -7.702
REMARK INTER:                  -7.287
REMARK INTRA:                  -0.415
REMARK UNBOUND:                -0.431
REMARK  Name = 
REMARK  10 active torsions:
REMARK  status: ('A' for Active; 'I' for Inactive)
REMARK    1  A    between atoms: C_1  and  C_2
REMARK    2  A    between atoms: C_5  and  N_8
REMARK    3  A    between atoms: N_8  and  C_9
REMARK    4  A    between atoms: N_8  and  C_13
REMARK    5  A    between atoms: C_9  and  C_10
REMARK    6  A    between atoms: C_10  and  C_11
REMARK    7  A    between atoms: C_10  and  O_12
REMARK    8  A    between atoms: C_13  and  C_14
REMARK    9  A    between atoms: C_14  and  C_15
REMARK   10  A    between atoms: C_14  and  O_16
REMARK                            x       y       z     vdW  Elec       q    Type
REMARK                         _______ _______ _______ _____ _____    ______ ____
ROOT
ATOM      1  N   UNL     1      13.198   6.599   6.316  0.00  0.00    +0.000 N 
ENDROOT
BRANCH   1   6
ATOM      2  C   UNL     1      16.634   3.694   2.698  0.00  0.00    +0.000 C 
ATOM      3  C   UNL     1      15.752   4.470   3.629  0.00  0.00    +0.000 A 
ATOM      4  C   UNL     1      16.150   4.735   4.935  0.00  0.00    +0.000 A 
ATOM      5  C   UNL     1      15.307   5.436   5.812  0.00  0.00    +0.000 A 
ATOM      6  C   UNL     1      14.026   5.883   5.442  0.00  0.00    +0.000 A 
ATOM      7  C   UNL     1      13.657   5.599   4.114  0.00  0.00    +0.000 A 
ATOM      8  C   UNL     1      14.492   4.901   3.226  0.00  0.00    +0.000 A 
ENDBRANCH   1   6
BRANCH   1   9
ATOM      9  C   UNL     1      11.771   6.814   5.979  0.00  0.00    +0.000 C 
BRANCH   9  10
ATOM     10  C   UNL     1      10.871   5.621   6.385  0.00  0.00    +0.000 C 
ATOM     11  C   UNL     1      10.001   5.977   7.584  0.00  0.00    +0.000 C 
BRANCH  10  12
ATOM     12  O   UNL     1      10.007   5.238   5.307  0.00  0.00    +0.000 OA
ATOM     13  H   UNL     1       9.890   6.008   4.726  0.00  0.00    +0.000 HD
ENDBRANCH  10  12
ENDBRANCH   9  10
ENDBRANCH   1   9
BRANCH   1  14
ATOM     14  C   UNL     1      13.763   7.569   7.289  0.00  0.00    +0.000 C 
BRANCH  14  15
ATOM     15  C   UNL     1      12.662   8.284   8.108  0.00  0.00    +0.000 C 
ATOM     16  C   UNL     1      12.751   8.007   9.604  0.00  0.00    +0.000 C 
BRANCH  15  17
ATOM     17  O   UNL     1      12.698   9.698   7.917  0.00  0.00    +0.000 OA
ATOM     18  H   UNL     1      12.255  10.070   8.706  0.00  0.00    +0.000 HD
ENDBRANCH  15  17
ENDBRANCH  14  15
ENDBRANCH   1  14
TORSDOF 7
ENDMDL
MODEL 4
REMARK VINA RESULT:    -5.365      0.064      1.192
REMARK INTER + INTRA:          -7.677
REMARK INTER:                  -7.245
REMARK INTRA:                  -0.432
REMARK UNBOUND:                -0.431
REMARK  Name = 
REMARK  10 active torsions:
REMARK  status: ('A' for Active; 'I' for Inactive)
REMARK    1  A    between atoms: C_1  and  C_2
REMARK    2  A    between atoms: C_5  and  N_8
REMARK    3  A    between atoms: N_8  and  C_9
REMARK    4  A    between atoms: N_8  and  C_13
REMARK    5  A    between atoms: C_9  and  C_10
REMARK    6  A    between atoms: C_10  and  C_11
REMARK    7  A    between atoms: C_10  and  O_12
REMARK    8  A    between atoms: C_13  and  C_14
REMARK    9  A    between atoms: C_14  and  C_15
REMARK   10  A    between atoms: C_14  and  O_16
REMARK                            x       y       z     vdW  Elec       q    Type
REMARK                         _______ _______ _______ _____ _____    ______ ____
ROOT
ATOM      1  N   UNL     1      12.564   6.497   6.921  0.00  0.00    +0.000 N 
ENDROOT
BRANCH   1   6
ATOM      2  C   UNL     1      16.631   4.384   3.411  0.00  0.00    +0.000 C 
ATOM      3  C   UNL     1      15.583   4.956   4.316  0.00  0.00    +0.000 A 
ATOM      4  C   UNL     1      15.848   5.182   5.662  0.00  0.00    +0.000 A 
ATOM      5  C   UNL     1      14.852   5.690   6.512  0.00  0.00    +0.000 A 
ATOM      6  C   UNL     1      13.547   5.973   6.072  0.00  0.00    +0.000 A 
ATOM      7  C   UNL     1      13.315   5.733   4.705  0.00  0.00    +0.000 A 
ATOM      8  C   UNL     1      14.302   5.228   3.843  0.00  0.00    +0.000 A 
ENDBRANCH   1   6
BRANCH   1   9
ATOM      9  C   UNL     1      12.632   6.245   8.381  0.00  0.00    +0.000 C 
BRANCH   9  10
ATOM     10  C   UNL     1      11.982   7.376   9.216  0.00  0.00    +0.000 C 
ATOM     11  C   UNL     1      12.013   7.042  10.703  0.00  0.00    +0.000 C 
BRANCH  10  12
ATOM     12  O   UNL     1      12.672   8.618   9.025  0.00  0.00    +0.000 OA
ATOM     13  H   UNL     1      13.511   8.431   8.572  0.00  0.00    +0.000 HD
ENDBRANCH  10  12
ENDBRANCH   9  10
ENDBRANCH   1   9
BRANCH   1  14
ATOM     14  C   UNL     1      11.215   6.850   6.411  0.00  0.00    +0.000 C 
BRANCH  14  15
ATOM     15  C   UNL     1      10.209   5.683   6.561  0.00  0.00    +0.000 C 
ATOM     16  C   UNL     1       8.939   6.078   7.304  0.00  0.00    +0.000 C 
BRANCH  15  17
ATOM     17  O   UNL     1       9.831   5.147   5.294  0.00  0.00    +0.000 OA
ATOM     18  H   UNL     1      10.123   4.213   5.317  0.00  0.00    +0.000 HD
ENDBRANCH  15  17
ENDBRANCH  14  15
ENDBRANCH   1  14
TORSDOF 7
ENDMDL
MODEL 5
REMARK VINA RESULT:    -5.234      2.588      4.077
REMARK INTER + INTRA:          -7.501
REMARK INTER:                  -6.868
REMARK INTRA:                  -0.634
REMARK UNBOUND:                -0.431
REMARK  Name = 
REMARK  10 active torsions:
REMARK  status: ('A' for Active; 'I' for Inactive)
REMARK    1  A    between atoms: C_1  and  C_2
REMARK    2  A    between atoms: C_5  and  N_8
REMARK    3  A    between atoms: N_8  and  C_9
REMARK    4  A    between atoms: N_8  and  C_13
REMARK    5  A    between atoms: C_9  and  C_10
REMARK    6  A    between atoms: C_10  and  C_11
REMARK    7  A    between atoms: C_10  and  O_12
REMARK    8  A    between atoms: C_13  and  C_14
REMARK    9  A    between atoms: C_14  and  C_15
REMARK   10  A    between atoms: C_14  and  O_16
REMARK                            x       y       z     vdW  Elec       q    Type
REMARK                         _______ _______ _______ _____ _____    ______ ____
ROOT
ATOM      1  N   UNL     1      14.500   7.069   4.284  0.00  0.00    +0.000 N 
ENDROOT
BRANCH   1   6
ATOM      2  C   UNL     1      17.111   2.884   1.285  0.00  0.00    +0.000 C 
ATOM      3  C   UNL     1      16.455   3.975   2.075  0.00  0.00    +0.000 A 
ATOM      4  C   UNL     1      15.833   3.703   3.288  0.00  0.00    +0.000 A 
ATOM      5  C   UNL     1      15.193   4.725   4.010  0.00  0.00    +0.000 A 
ATOM      6  C   UNL     1      15.123   6.052   3.550  0.00  0.00    +0.000 A 
ATOM      7  C   UNL     1      15.764   6.291   2.321  0.00  0.00    +0.000 A 
ATOM      8  C   UNL     1      16.409   5.279   1.590  0.00  0.00    +0.000 A 
ENDBRANCH   1   6
BRANCH   1   9
ATOM      9  C   UNL     1      15.013   8.459   4.211  0.00  0.00    +0.000 C 
BRANCH   9  10
ATOM     10  C   UNL     1      13.963   9.458   3.666  0.00  0.00    +0.000 C 
ATOM     11  C   UNL     1      13.180   8.849   2.509  0.00  0.00    +0.000 C 
BRANCH  10  12
ATOM     12  O   UNL     1      13.028   9.831   4.687  0.00  0.00    +0.000 OA
ATOM     13  H   UNL     1      12.133   9.646   4.358  0.00  0.00    +0.000 HD
ENDBRANCH  10  12
ENDBRANCH   9  10
ENDBRANCH   1   9
BRANCH   1  14
ATOM     14  C   UNL     1      13.697   6.763   5.495  0.00  0.00    +0.000 C 
BRANCH  14  15
ATOM     15  C   UNL     1      12.269   6.280   5.144  0.00  0.00    +0.000 C 
ATOM     16  C   UNL     1      11.692   5.314   6.172  0.00  0.00    +0.000 C 
BRANCH  15  17
ATOM     17  O   UNL     1      11.362   7.373   5.007  0.00  0.00    +0.000 OA
ATOM     18  H   UNL     1      10.472   6.973   5.074  0.00  0.00    +0.000 HD
ENDBRANCH  15  17
ENDBRANCH  14  15
ENDBRANCH   1  14
TORSDOF 7
ENDMDL
MODEL 6
REMARK VINA RESULT:    -5.221      1.468      1.930
REMARK INTER + INTRA:          -7.483
REMARK INTER:                  -6.749
REMARK INTRA:                  -0.734
REMARK UNBOUND:                -0.431
REMARK  Name = 
REMARK  10 active torsions:
REMARK  status: ('A' for Active; 'I' for Inactive)
REMARK    1  A    between atoms: C_1  and  C_2
REMARK    2  A    between atoms: C_5  and  N_8
REMARK    3  A    between atoms: N_8  and  C_9
REMARK    4  A    between atoms: N_8  and  C_13
REMARK    5  A    between atoms: C_9  and  C_10
REMARK    6  A    between atoms: C_10  and  C_11
REMARK    7  A    between atoms: C_10  and  O_12
REMARK    8  A    between atoms: C_13  and  C_14
REMARK    9  A    between atoms: C_14  and  C_15
REMARK   10  A    between atoms: C_14  and  O_16
REMARK                            x       y       z     vdW  Elec       q    Type
REMARK                         _______ _______ _______ _____ _____    ______ ____
ROOT
ATOM      1  N   UNL     1      12.487   6.174   7.438  0.00  0.00    +0.000 N 
ENDROOT
BRANCH   1   6
ATOM      2  C   UNL     1      16.453   4.561   3.566  0.00  0.00    +0.000 C 
ATOM      3  C   UNL     1      15.429   5.003   4.565  0.00  0.00    +0.000 A 
ATOM      4  C   UNL     1      15.770   5.198   5.899  0.00  0.00    +0.000 A 
ATOM      5  C   UNL     1      14.799   5.584   6.838  0.00  0.00    +0.000 A 
ATOM      6  C   UNL     1      13.446   5.770   6.501  0.00  0.00    +0.000 A 
ATOM      7  C   UNL     1      13.138   5.567   5.143  0.00  0.00    +0.000 A 
ATOM      8  C   UNL     1      14.100   5.183   4.194  0.00  0.00    +0.000 A 
ENDBRANCH   1   6
BRANCH   1   9
ATOM      9  C   UNL     1      12.876   7.046   8.572  0.00  0.00    +0.000 C 
BRANCH   9  10
ATOM     10  C   UNL     1      12.789   6.326   9.940  0.00  0.00    +0.000 C 
ATOM     11  C   UNL     1      14.136   6.348  10.654  0.00  0.00    +0.000 C 
BRANCH  10  12
ATOM     12  O   UNL     1      11.824   6.957  10.793  0.00  0.00    +0.000 OA
ATOM     13  H   UNL     1      10.938   6.738  10.459  0.00  0.00    +0.000 HD
ENDBRANCH  10  12
ENDBRANCH   9  10
ENDBRANCH   1   9
BRANCH   1  14
ATOM     14  C   UNL     1      11.243   5.389   7.652  0.00  0.00    +0.000 C 
BRANCH  14  15
ATOM     15  C   UNL     1       9.980   6.283   7.640  0.00  0.00    +0.000 C 
ATOM     16  C   UNL     1       8.903   5.787   6.682  0.00  0.00    +0.000 C 
BRANCH  15  17
ATOM     17  O   UNL     1       9.399   6.393   8.938  0.00  0.00    +0.000 OA
ATOM     18  H   UNL     1       8.459   6.151   8.816  0.00  0.00    +0.000 HD
ENDBRANCH  15  17
ENDBRANCH  14  15
ENDBRANCH   1  14
TORSDOF 7
ENDMDL
MODEL 7
REMARK VINA RESULT:    -5.199      1.593      2.228
REMARK INTER + INTRA:          -7.454
REMARK INTER:                  -6.947
REMARK INTRA:                  -0.507
REMARK UNBOUND:                -0.431
REMARK  Name = 
REMARK  10 active torsions:
REMARK  status: ('A' for Active; 'I' for Inactive)
REMARK    1  A    between atoms: C_1  and  C_2
REMARK    2  A    between atoms: C_5  and  N_8
REMARK    3  A    between atoms: N_8  and  C_9
REMARK    4  A    between atoms: N_8  and  C_13
REMARK    5  A    between atoms: C_9  and  C_10
REMARK    6  A    between atoms: C_10  and  C_11
REMARK    7  A    between atoms: C_10  and  O_12
REMARK    8  A    between atoms: C_13  and  C_14
REMARK    9  A    between atoms: C_14  and  C_15
REMARK   10  A    between atoms: C_14  and  O_16
REMARK                            x       y       z     vdW  Elec       q    Type
REMARK                         _______ _______ _______ _____ _____    ______ ____
ROOT
ATOM      1  N   UNL     1      13.548   6.669   7.107  0.00  0.00    +0.000 N 
ENDROOT
BRANCH   1   6
ATOM      2  C   UNL     1      16.102   3.651   2.900  0.00  0.00    +0.000 C 
ATOM      3  C   UNL     1      15.433   4.413   4.003  0.00  0.00    +0.000 A 
ATOM      4  C   UNL     1      14.099   4.795   3.900  0.00  0.00    +0.000 A 
ATOM      5  C   UNL     1      13.486   5.535   4.924  0.00  0.00    +0.000 A 
ATOM      6  C   UNL     1      14.171   5.948   6.081  0.00  0.00    +0.000 A 
ATOM      7  C   UNL     1      15.517   5.543   6.151  0.00  0.00    +0.000 A 
ATOM      8  C   UNL     1      16.142   4.801   5.136  0.00  0.00    +0.000 A 
ENDBRANCH   1   6
BRANCH   1   9
ATOM      9  C   UNL     1      14.242   7.818   7.736  0.00  0.00    +0.000 C 
BRANCH   9  10
ATOM     10  C   UNL     1      13.741   9.185   7.207  0.00  0.00    +0.000 C 
ATOM     11  C   UNL     1      13.338   9.087   5.740  0.00  0.00    +0.000 C 
BRANCH  10  12
ATOM     12  O   UNL     1      12.603   9.639   7.951  0.00  0.00    +0.000 OA
ATOM     13  H   UNL     1      12.877   9.765   8.874  0.00  0.00    +0.000 HD
ENDBRANCH  10  12
ENDBRANCH   9  10
ENDBRANCH   1   9
BRANCH   1  14
ATOM     14  C   UNL     1      12.476   6.058   7.934  0.00  0.00    +0.000 C 
BRANCH  14  15
ATOM     15  C   UNL     1      11.106   6.743   7.713  0.00  0.00    +0.000 C 
ATOM     16  C   UNL     1      10.026   5.782   7.231  0.00  0.00    +0.000 C 
BRANCH  15  17
ATOM     17  O   UNL     1      10.635   7.375   8.903  0.00  0.00    +0.000 OA
ATOM     18  H   UNL     1       9.676   7.183   8.928  0.00  0.00    +0.000 HD
ENDBRANCH  15  17
ENDBRANCH  14  15
ENDBRANCH   1  14
TORSDOF 7
ENDMDL
MODEL 8
REMARK VINA RESULT:    -5.081      3.710      5.783
REMARK INTER + INTRA:          -7.294
REMARK INTER:                  -6.853
REMARK INTRA:                  -0.440
REMARK UNBOUND:                -0.431
REMARK  Name = 
REMARK  10 active torsions:
REMARK  status: ('A' for Active; 'I' for Inactive)
REMARK    1  A    between atoms: C_1  and  C_2
REMARK    2  A    between atoms: C_5  and  N_8
REMARK    3  A    between atoms: N_8  and  C_9
REMARK    4  A    between atoms: N_8  and  C_13
REMARK    5  A    between atoms: C_9  and  C_10
REMARK    6  A    between atoms: C_10  and  C_11
REMARK    7  A    between atoms: C_10  and  O_12
REMARK    8  A    between atoms: C_13  and  C_14
REMARK    9  A    between atoms: C_14  and  C_15
REMARK   10  A    between atoms: C_14  and  O_16
REMARK                            x       y       z     vdW  Elec       q    Type
REMARK                         _______ _______ _______ _____ _____    ______ ____
ROOT
ATOM      1  N   UNL     1      13.162   5.986  10.820  0.00  0.00    +0.000 N 
ENDROOT
BRANCH   1   6
ATOM      2  C   UNL     1       9.762   5.894   6.155  0.00  0.00    +0.000 C 
ATOM      3  C   UNL     1      10.657   5.937   7.356  0.00  0.00    +0.000 A 
ATOM      4  C   UNL     1      11.811   5.163   7.415  0.00  0.00    +0.000 A 
ATOM      5  C   UNL     1      12.630   5.185   8.555  0.00  0.00    +0.000 A 
ATOM      6  C   UNL     1      12.330   5.954   9.694  0.00  0.00    +0.000 A 
ATOM      7  C   UNL     1      11.157   6.726   9.598  0.00  0.00    +0.000 A 
ATOM      8  C   UNL     1      10.330   6.715   8.463  0.00  0.00    +0.000 A 
ENDBRANCH   1   6
BRANCH   1   9
ATOM      9  C   UNL     1      12.589   6.260  12.160  0.00  0.00    +0.000 C 
BRANCH   9  10
ATOM     10  C   UNL     1      12.884   5.135  13.181  0.00  0.00    +0.000 C 
ATOM     11  C   UNL     1      13.730   5.655  14.337  0.00  0.00    +0.000 C 
BRANCH  10  12
ATOM     12  O   UNL     1      11.669   4.602  13.725  0.00  0.00    +0.000 OA
ATOM     13  H   UNL     1      11.615   4.867  14.658  0.00  0.00    +0.000 HD
ENDBRANCH  10  12
ENDBRANCH   9  10
ENDBRANCH   1   9
BRANCH   1  14
ATOM     14  C   UNL     1      14.616   6.262  10.695  0.00  0.00    +0.000 C 
BRANCH  14  15
ATOM     15  C   UNL     1      15.016   7.601  11.359  0.00  0.00    +0.000 C 
ATOM     16  C   UNL     1      16.524   7.815  11.416  0.00  0.00    +0.000 C 
BRANCH  15  17
ATOM     17  O   UNL     1      14.437   8.718  10.685  0.00  0.00    +0.000 OA
ATOM     18  H   UNL     1      15.172   9.352  10.570  0.00  0.00    +0.000 HD
ENDBRANCH  15  17
ENDBRANCH  14  15
ENDBRANCH   1  14
TORSDOF 7
ENDMDL
MODEL 9
REMARK VINA RESULT:    -5.047      2.475      5.324
REMARK INTER + INTRA:          -7.248
REMARK INTER:                  -6.675
REMARK INTRA:                  -0.573
REMARK UNBOUND:                -0.431
REMARK  Name = 
REMARK  10 active torsions:
REMARK  status: ('A' for Active; 'I' for Inactive)
REMARK    1  A    between atoms: C_1  and  C_2
REMARK    2  A    between atoms: C_5  and  N_8
REMARK    3  A    between atoms: N_8  and  C_9
REMARK    4  A    between atoms: N_8  and  C_13
REMARK    5  A    between atoms: C_9  and  C_10
REMARK    6  A    between atoms: C_10  and  C_11
REMARK    7  A    between atoms: C_10  and  O_12
REMARK    8  A    between atoms: C_13  and  C_14
REMARK    9  A    between atoms: C_14  and  C_15
REMARK   10  A    between atoms: C_14  and  O_16
REMARK                            x       y       z     vdW  Elec       q    Type
REMARK                         _______ _______ _______ _____ _____    ______ ____
ROOT
ATOM      1  N   UNL     1      12.339   5.963   8.065  0.00  0.00    +0.000 N 
ENDROOT
BRANCH   1   6
ATOM      2  C   UNL     1      14.472   6.209  13.424  0.00  0.00    +0.000 C 
ATOM      3  C   UNL     1      13.922   6.120  12.033  0.00  0.00    +0.000 A 
ATOM      4  C   UNL     1      14.752   6.260  10.926  0.00  0.00    +0.000 A 
ATOM      5  C   UNL     1      14.226   6.206   9.625  0.00  0.00    +0.000 A 
ATOM      6  C   UNL     1      12.854   6.035   9.365  0.00  0.00    +0.000 A 
ATOM      7  C   UNL     1      12.045   5.895  10.508  0.00  0.00    +0.000 A 
ATOM      8  C   UNL     1      12.558   5.945  11.814  0.00  0.00    +0.000 A 
ENDBRANCH   1   6
BRANCH   1   9
ATOM      9  C   UNL     1      11.039   5.293   7.816  0.00  0.00    +0.000 C 
BRANCH   9  10
ATOM     10  C   UNL     1       9.884   6.295   7.573  0.00  0.00    +0.000 C 
ATOM     11  C   UNL     1       9.072   5.903   6.344  0.00  0.00    +0.000 C 
BRANCH  10  12
ATOM     12  O   UNL     1       8.995   6.339   8.698  0.00  0.00    +0.000 OA
ATOM     13  H   UNL     1       8.312   5.659   8.569  0.00  0.00    +0.000 HD
ENDBRANCH  10  12
ENDBRANCH   9  10
ENDBRANCH   1   9
BRANCH   1  14
ATOM     14  C   UNL     1      13.228   6.061   6.879  0.00  0.00    +0.000 C 
BRANCH  14  15
ATOM     15  C   UNL     1      13.128   7.441   6.186  0.00  0.00    +0.000 C 
ATOM     16  C   UNL     1      12.252   7.424   4.939  0.00  0.00    +0.000 C 
BRANCH  15  17
ATOM     17  O   UNL     1      12.620   8.439   7.070  0.00  0.00    +0.000 OA
ATOM     18  H   UNL     1      12.005   8.971   6.525  0.00  0.00    +0.000 HD
ENDBRANCH  15  17
ENDBRANCH  14  15
ENDBRANCH   1  14
TORSDOF 7
ENDMDL
