MODEL 1
REMARK VINA RESULT:    -4.133      0.000      0.000
REMARK INTER + INTRA:          -4.531
REMARK INTER:                  -4.495
REMARK INTRA:                  -0.036
REMARK UNBOUND:                -0.036
REMARK  Name = 
REMARK  3 active torsions:
REMARK  status: ('A' for Active; 'I' for Inactive)
REMARK    1  A    between atoms: C_1  and  O_2
REMARK    2  A    between atoms: O_2  and  C_3
REMARK    3  A    between atoms: C_8  and  O_9
REMARK                            x       y       z     vdW  Elec       q    Type
REMARK                         _______ _______ _______ _____ _____    ______ ____
ROOT
ATOM      1  C   UNL     1       6.419  14.189   4.370  0.00  0.00    +0.000 A 
ATOM      2  C   UNL     1       5.621  13.192   4.929  0.00  0.00    +0.000 A 
ATOM      3  C   UNL     1       4.756  13.500   5.987  0.00  0.00    +0.000 A 
ATOM      4  C   UNL     1       4.685  14.801   6.488  0.00  0.00    +0.000 A 
ATOM      5  C   UNL     1       5.479  15.802   5.934  0.00  0.00    +0.000 A 
ATOM      6  C   UNL     1       6.334  15.488   4.886  0.00  0.00    +0.000 A 
ENDROOT
BRANCH   1   8
ATOM      7  C   UNL     1       6.752  13.940   2.030  0.00  0.00    +0.000 C 
ATOM      8  O   UNL     1       7.307  14.033   3.336  0.00  0.00    +0.000 OA
ENDBRANCH   1   8
BRANCH   6   9
ATOM      9  O   UNL     1       7.105  16.490   4.358  0.00  0.00    +0.000 OA
ATOM     10  H   UNL     1       6.970  17.249   4.957  0.00  0.00    +0.000 HD
ENDBRANCH   6   9
TORSDOF 2
ENDMDL
MODEL 2
REMARK VINA RESULT:    -4.123      1.647      1.776
REMARK INTER + INTRA:          -4.520
REMARK INTER:                  -4.483
REMARK INTRA:                  -0.037
REMARK UNBOUND:                -0.036
REMARK  Name = 
REMARK  3 active torsions:
REMARK  status: ('A' for Active; 'I' for Inactive)
REMARK    1  A    between atoms: C_1  and  O_2
REMARK    2  A    between atoms: O_2  and  C_3
REMARK    3  A    between atoms: C_8  and  O_9
REMARK                            x       y       z     vdW  Elec       q    Type
REMARK                         _______ _______ _______ _____ _____    ______ ____
ROOT
ATOM      1  C   UNL     1       6.825  13.707   4.348  0.00  0.00    +0.000 A 
ATOM      2  C   UNL     1       5.521  13.265   4.564  0.00  0.00    +0.000 A 
ATOM      3  C   UNL     1       5.086  12.978   5.864  0.00  0.00    +0.000 A 
ATOM      4  C   UNL     1       5.952  13.130   6.950  0.00  0.00    +0.000 A 
ATOM      5  C   UNL     1       7.256  13.571   6.741  0.00  0.00    +0.000 A 
ATOM      6  C   UNL     1       7.679  13.853   5.448  0.00  0.00    +0.000 A 
ENDROOT
BRANCH   1   8
ATOM      7  C   UNL     1       6.551  13.865   1.992  0.00  0.00    +0.000 C 
ATOM      8  O   UNL     1       7.383  14.023   3.135  0.00  0.00    +0.000 OA
ENDBRANCH   1   8
BRANCH   6   9
ATOM      9  O   UNL     1       8.965  14.286   5.268  0.00  0.00    +0.000 OA
ATOM     10  H   UNL     1       9.110  14.241   4.304  0.00  0.00    +0.000 HD
ENDBRANCH   6   9
TORSDOF 2
ENDMDL
MODEL 3
REMARK VINA RESULT:    -4.095      1.842      2.833
REMARK INTER + INTRA:          -4.490
REMARK INTER:                  -4.439
REMARK INTRA:                  -0.051
REMARK UNBOUND:                -0.036
REMARK  Name = 
REMARK  3 active torsions:
REMARK  status: ('A' for Active; 'I' for Inactive)
REMARK    1  A    between atoms: C_1  and  O_2
REMARK    2  A    between atoms: O_2  and  C_3
REMARK    3  A    between atoms: C_8  and  O_9
REMARK                            x       y       z     vdW  Elec       q    Type
REMARK                         _______ _______ _______ _____ _____    ______ ____
ROOT
ATOM      1  C   UNL     1       7.405  13.811   5.646  0.00  0.00    +0.000 A 
ATOM      2  C   UNL     1       6.520  13.403   6.643  0.00  0.00    +0.000 A 
ATOM      3  C   UNL     1       5.268  12.881   6.297  0.00  0.00    +0.000 A 
ATOM      4  C   UNL     1       4.895  12.767   4.956  0.00  0.00    +0.000 A 
ATOM      5  C   UNL     1       5.773  13.173   3.954  0.00  0.00    +0.000 A 
ATOM      6  C   UNL     1       7.013  13.690   4.307  0.00  0.00    +0.000 A 
ENDROOT
BRANCH   1   8
ATOM      7  C   UNL     1       8.739  15.495   6.663  0.00  0.00    +0.000 C 
ATOM      8  O   UNL     1       8.657  14.338   5.839  0.00  0.00    +0.000 OA
ENDBRANCH   1   8
BRANCH   6   9
ATOM      9  O   UNL     1       7.860  14.082   3.304  0.00  0.00    +0.000 OA
ATOM     10  H   UNL     1       8.744  13.791   3.598  0.00  0.00    +0.000 HD
ENDBRANCH   6   9
TORSDOF 2
ENDMDL
MODEL 4
REMARK VINA RESULT:    -3.948      2.748      3.948
REMARK INTER + INTRA:          -4.330
REMARK INTER:                  -4.278
REMARK INTRA:                  -0.052
REMARK UNBOUND:                -0.036
REMARK  Name = 
REMARK  3 active torsions:
REMARK  status: ('A' for Active; 'I' for Inactive)
REMARK    1  A    between atoms: C_1  and  O_2
REMARK    2  A    between atoms: O_2  and  C_3
REMARK    3  A    between atoms: C_8  and  O_9
REMARK                            x       y       z     vdW  Elec       q    Type
REMARK                         _______ _______ _______ _____ _____    ______ ____
ROOT
ATOM      1  C   UNL     1       6.993  13.524   6.273  0.00  0.00    +0.000 A 
ATOM      2  C   UNL     1       7.741  14.093   5.243  0.00  0.00    +0.000 A 
ATOM      3  C   UNL     1       7.311  13.969   3.916  0.00  0.00    +0.000 A 
ATOM      4  C   UNL     1       6.137  13.277   3.614  0.00  0.00    +0.000 A 
ATOM      5  C   UNL     1       5.384  12.706   4.637  0.00  0.00    +0.000 A 
ATOM      6  C   UNL     1       5.818  12.834   5.951  0.00  0.00    +0.000 A 
ENDROOT
BRANCH   1   8
ATOM      7  C   UNL     1       8.506  12.940   8.010  0.00  0.00    +0.000 C 
ATOM      8  O   UNL     1       7.293  13.566   7.611  0.00  0.00    +0.000 OA
ENDBRANCH   1   8
BRANCH   6   9
ATOM      9  O   UNL     1       5.062  12.264   6.940  0.00  0.00    +0.000 OA
ATOM     10  H   UNL     1       5.168  11.302   6.811  0.00  0.00    +0.000 HD
ENDBRANCH   6   9
TORSDOF 2
ENDMDL
MODEL 5
REMARK VINA RESULT:    -3.894      3.673      4.405
REMARK INTER + INTRA:          -4.272
REMARK INTER:                  -4.227
REMARK INTRA:                  -0.045
REMARK UNBOUND:                -0.036
REMARK  Name = 
REMARK  3 active torsions:
REMARK  status: ('A' for Active; 'I' for Inactive)
REMARK    1  A    between atoms: C_1  and  O_2
REMARK    2  A    between atoms: O_2  and  C_3
REMARK    3  A    between atoms: C_8  and  O_9
REMARK                            x       y       z     vdW  Elec       q    Type
REMARK                         _______ _______ _______ _____ _____    ______ ____
ROOT
ATOM      1  C   UNL     1       7.469  13.523   6.807  0.00  0.00    +0.000 A 
ATOM      2  C   UNL     1       7.699  14.821   6.353  0.00  0.00    +0.000 A 
ATOM      3  C   UNL     1       8.894  15.474   6.678  0.00  0.00    +0.000 A 
ATOM      4  C   UNL     1       9.861  14.836   7.458  0.00  0.00    +0.000 A 
ATOM      5  C   UNL     1       9.638  13.539   7.916  0.00  0.00    +0.000 A 
ATOM      6  C   UNL     1       8.450  12.898   7.588  0.00  0.00    +0.000 A 
ENDROOT
BRANCH   1   8
ATOM      7  C   UNL     1       5.808  12.835   5.254  0.00  0.00    +0.000 C 
ATOM      8  O   UNL     1       6.350  12.766   6.567  0.00  0.00    +0.000 OA
ENDBRANCH   1   8
BRANCH   6   9
ATOM      9  O   UNL     1       8.254  11.624   8.049  0.00  0.00    +0.000 OA
ATOM     10  H   UNL     1       9.111  11.366   8.439  0.00  0.00    +0.000 HD
ENDBRANCH   6   9
TORSDOF 2
ENDMDL
MODEL 6
REMARK VINA RESULT:    -3.837      1.773      3.248
REMARK INTER + INTRA:          -4.209
REMARK INTER:                  -4.171
REMARK INTRA:                  -0.038
REMARK UNBOUND:                -0.036
REMARK  Name = 
REMARK  3 active torsions:
REMARK  status: ('A' for Active; 'I' for Inactive)
REMARK    1  A    between atoms: C_1  and  O_2
REMARK    2  A    between atoms: O_2  and  C_3
REMARK    3  A    between atoms: C_8  and  O_9
REMARK                            x       y       z     vdW  Elec       q    Type
REMARK                         _______ _______ _______ _____ _____    ______ ____
ROOT
ATOM      1  C   UNL     1       4.942  14.407   5.861  0.00  0.00    +0.000 A 
ATOM      2  C   UNL     1       4.854  13.125   5.319  0.00  0.00    +0.000 A 
ATOM      3  C   UNL     1       5.714  12.743   4.282  0.00  0.00    +0.000 A 
ATOM      4  C   UNL     1       6.662  13.638   3.783  0.00  0.00    +0.000 A 
ATOM      5  C   UNL     1       6.757  14.920   4.319  0.00  0.00    +0.000 A 
ATOM      6  C   UNL     1       5.900  15.290   5.347  0.00  0.00    +0.000 A 
ENDROOT
BRANCH   1   8
ATOM      7  C   UNL     1       2.954  14.228   7.149  0.00  0.00    +0.000 C 
ATOM      8  O   UNL     1       4.169  14.914   6.874  0.00  0.00    +0.000 OA
ENDBRANCH   1   8
BRANCH   6   9
ATOM      9  O   UNL     1       6.012  16.556   5.858  0.00  0.00    +0.000 OA
ATOM     10  H   UNL     1       6.790  16.937   5.408  0.00  0.00    +0.000 HD
ENDBRANCH   6   9
TORSDOF 2
ENDMDL
MODEL 7
REMARK VINA RESULT:    -3.790      2.139      2.677
REMARK INTER + INTRA:          -4.159
REMARK INTER:                  -4.108
REMARK INTRA:                  -0.051
REMARK UNBOUND:                -0.036
REMARK  Name = 
REMARK  3 active torsions:
REMARK  status: ('A' for Active; 'I' for Inactive)
REMARK    1  A    between atoms: C_1  and  O_2
REMARK    2  A    between atoms: O_2  and  C_3
REMARK    3  A    between atoms: C_8  and  O_9
REMARK                            x       y       z     vdW  Elec       q    Type
REMARK                         _______ _______ _______ _____ _____    ______ ____
ROOT
ATOM      1  C   UNL     1       7.163  14.891   5.106  0.00  0.00    +0.000 A 
ATOM      2  C   UNL     1       8.164  14.115   5.688  0.00  0.00    +0.000 A 
ATOM      3  C   UNL     1       9.090  14.705   6.559  0.00  0.00    +0.000 A 
ATOM      4  C   UNL     1       9.019  16.068   6.849  0.00  0.00    +0.000 A 
ATOM      5  C   UNL     1       8.021  16.850   6.272  0.00  0.00    +0.000 A 
ATOM      6  C   UNL     1       7.108  16.257   5.409  0.00  0.00    +0.000 A 
ENDROOT
BRANCH   1   8
ATOM      7  C   UNL     1       6.650  13.816   3.050  0.00  0.00    +0.000 C 
ATOM      8  O   UNL     1       6.196  14.450   4.240  0.00  0.00    +0.000 OA
ENDBRANCH   1   8
BRANCH   6   9
ATOM      9  O   UNL     1       6.137  17.047   4.854  0.00  0.00    +0.000 OA
ATOM     10  H   UNL     1       6.249  17.917   5.282  0.00  0.00    +0.000 HD
ENDBRANCH   6   9
TORSDOF 2
ENDMDL
MODEL 8
REMARK VINA RESULT:    -3.738      2.314      3.486
REMARK INTER + INTRA:          -4.102
REMARK INTER:                  -4.058
REMARK INTRA:                  -0.044
REMARK UNBOUND:                -0.036
REMARK  Name = 
REMARK  3 active torsions:
REMARK  status: ('A' for Active; 'I' for Inactive)
REMARK    1  A    between atoms: C_1  and  O_2
REMARK    2  A    between atoms: O_2  and  C_3
REMARK    3  A    between atoms: C_8  and  O_9
REMARK                            x       y       z     vdW  Elec       q    Type
REMARK                         _______ _______ _______ _____ _____    ______ ____
ROOT
ATOM      1  C   UNL     1       7.934  16.180   6.202  0.00  0.00    +0.000 A 
ATOM      2  C   UNL     1       8.244  14.916   6.700  0.00  0.00    +0.000 A 
ATOM      3  C   UNL     1       7.567  13.789   6.217  0.00  0.00    +0.000 A 
ATOM      4  C   UNL     1       6.579  13.921   5.240  0.00  0.00    +0.000 A 
ATOM      5  C   UNL     1       6.264  15.181   4.737  0.00  0.00    +0.000 A 
ATOM      6  C   UNL     1       6.941  16.294   5.222  0.00  0.00    +0.000 A 
ENDROOT
BRANCH   1   8
ATOM      7  C   UNL     1       9.910  17.333   6.847  0.00  0.00    +0.000 C 
ATOM      8  O   UNL     1       8.513  17.365   6.581  0.00  0.00    +0.000 OA
ENDBRANCH   1   8
BRANCH   6   9
ATOM      9  O   UNL     1       6.613  17.522   4.713  0.00  0.00    +0.000 OA
ATOM     10  H   UNL     1       6.603  17.395   3.745  0.00  0.00    +0.000 HD
ENDBRANCH   6   9
TORSDOF 2
ENDMDL
MODEL 9
REMARK VINA RESULT:    -3.723      1.957      2.601
REMARK INTER + INTRA:          -4.085
REMARK INTER:                  -4.047
REMARK INTRA:                  -0.038
REMARK UNBOUND:                -0.036
REMARK  Name = 
REMARK  3 active torsions:
REMARK  status: ('A' for Active; 'I' for Inactive)
REMARK    1  A    between atoms: C_1  and  O_2
REMARK    2  A    between atoms: O_2  and  C_3
REMARK    3  A    between atoms: C_8  and  O_9
REMARK                            x       y       z     vdW  Elec       q    Type
REMARK                         _______ _______ _______ _____ _____    ______ ____
ROOT
ATOM      1  C   UNL     1       6.248  13.464   4.616  0.00  0.00    +0.000 A 
ATOM      2  C   UNL     1       7.490  13.909   5.069  0.00  0.00    +0.000 A 
ATOM      3  C   UNL     1       7.721  14.059   6.442  0.00  0.00    +0.000 A 
ATOM      4  C   UNL     1       6.714  13.768   7.365  0.00  0.00    +0.000 A 
ATOM      5  C   UNL     1       5.472  13.323   6.920  0.00  0.00    +0.000 A 
ATOM      6  C   UNL     1       5.251  13.177   5.557  0.00  0.00    +0.000 A 
ENDROOT
BRANCH   1   8
ATOM      7  C   UNL     1       6.699  13.898   2.323  0.00  0.00    +0.000 C 
ATOM      8  O   UNL     1       5.883  13.273   3.307  0.00  0.00    +0.000 OA
ENDBRANCH   1   8
BRANCH   6   9
ATOM      9  O   UNL     1       4.022  12.738   5.144  0.00  0.00    +0.000 OA
ATOM     10  H   UNL     1       3.771  12.055   5.793  0.00  0.00    +0.000 HD
ENDBRANCH   6   9
TORSDOF 2
ENDMDL
