MODEL 1
REMARK VINA RESULT:    -5.377      0.000      0.000
REMARK INTER + INTRA:          -7.709
REMARK INTER:                  -7.263
REMARK INTRA:                  -0.446
REMARK UNBOUND:                -0.446
REMARK  Name = 
REMARK  10 active torsions:
REMARK  status: ('A' for Active; 'I' for Inactive)
REMARK    1  A    between atoms: C_1  and  C_2
REMARK    2  A    between atoms: C_5  and  N_8
REMARK    3  A    between atoms: N_8  and  C_9
REMARK    4  A    between atoms: N_8  and  C_13
REMARK    5  A    between atoms: C_9  and  C_10
REMARK    6  A    between atoms: C_10  and  C_11
REMARK    7  A    between atoms: C_10  and  O_12
REMARK    8  A    between atoms: C_13  and  C_14
REMARK    9  A    between atoms: C_14  and  C_15
REMARK   10  A    between atoms: C_14  and  O_16
REMARK                            x       y       z     vdW  Elec       q    Type
REMARK                         _______ _______ _______ _____ _____    ______ ____
ROOT
ATOM      1  N   UNL     1      12.560   6.494   6.894  0.00  0.00    +0.000 N 
ENDROOT
BRANCH   1   6
ATOM      2  C   UNL     1      16.651   4.347   3.433  0.00  0.00    +0.000 C 
ATOM      3  C   UNL     1      15.583   4.881   4.337  0.00  0.00    +0.000 A 
ATOM      4  C   UNL     1      14.308   5.152   3.854  0.00  0.00    +0.000 A 
ATOM      5  C   UNL     1      13.319   5.681   4.699  0.00  0.00    +0.000 A 
ATOM      6  C   UNL     1      13.557   5.985   6.052  0.00  0.00    +0.000 A 
ATOM      7  C   UNL     1      14.856   5.696   6.507  0.00  0.00    +0.000 A 
ATOM      8  C   UNL     1      15.854   5.165   5.673  0.00  0.00    +0.000 A 
ENDBRANCH   1   6
BRANCH   1   9
ATOM      9  C   UNL     1      12.620   6.240   8.354  0.00  0.00    +0.000 C 
BRANCH   9  10
ATOM     10  C   UNL     1      12.006   7.391   9.189  0.00  0.00    +0.000 C 
ATOM     11  C   UNL     1      12.069   7.077  10.679  0.00  0.00    +0.000 C 
BRANCH  10  12
ATOM     12  O   UNL     1      12.709   8.621   8.964  0.00  0.00    +0.000 OA
ATOM     13  H   UNL     1      13.162   8.557   8.107  0.00  0.00    +0.000 HD
ENDBRANCH  10  12
ENDBRANCH   9  10
ENDBRANCH   1   9
BRANCH   1  14
ATOM     14  C   UNL     1      11.210   6.829   6.373  0.00  0.00    +0.000 C 
BRANCH  14  15
ATOM     15  C   UNL     1      10.216   5.653   6.528  0.00  0.00    +0.000 C 
ATOM     16  C   UNL     1       8.978   6.017   7.339  0.00  0.00    +0.000 C 
BRANCH  15  17
ATOM     17  O   UNL     1       9.785   5.157   5.262  0.00  0.00    +0.000 OA
ATOM     18  H   UNL     1       9.109   5.795   4.957  0.00  0.00    +0.000 HD
ENDBRANCH  15  17
ENDBRANCH  14  15
ENDBRANCH   1  14
TORSDOF 7
ENDMDL
MODEL 2
REMARK VINA RESULT:    -5.325      1.107      3.138
REMARK INTER + INTRA:          -7.639
REMARK INTER:                  -7.203
REMARK INTRA:                  -0.435
REMARK UNBOUND:                -0.446
REMARK  Name = 
REMARK  10 active torsions:
REMARK  status: ('A' for Active; 'I' for Inactive)
REMARK    1  A    between atoms: C_1  and  C_2
REMARK    2  A    between atoms: C_5  and  N_8
REMARK    3  A    between atoms: N_8  and  C_9
REMARK    4  A    between atoms: N_8  and  C_13
REMARK    5  A    between atoms: C_9  and  C_10
REMARK    6  A    between atoms: C_10  and  C_11
REMARK    7  A    between atoms: C_10  and  O_12
REMARK    8  A    between atoms: C_13  and  C_14
REMARK    9  A    between atoms: C_14  and  C_15
REMARK   10  A    between atoms: C_14  and  O_16
REMARK                            x       y       z     vdW  Elec       q    Type
REMARK                         _______ _______ _______ _____ _____    ______ ____
ROOT
ATOM      1  N   UNL     1      13.241   6.685   6.157  0.00  0.00    +0.000 N 
ENDROOT
BRANCH   1   6
ATOM      2  C   UNL     1      16.635   3.775   2.505  0.00  0.00    +0.000 C 
ATOM      3  C   UNL     1      15.742   4.509   3.457  0.00  0.00    +0.000 A 
ATOM      4  C   UNL     1      14.600   5.162   3.006  0.00  0.00    +0.000 A 
ATOM      5  C   UNL     1      13.782   5.874   3.898  0.00  0.00    +0.000 A 
ATOM      6  C   UNL     1      14.072   5.990   5.269  0.00  0.00    +0.000 A 
ATOM      7  C   UNL     1      15.233   5.316   5.691  0.00  0.00    +0.000 A 
ATOM      8  C   UNL     1      16.058   4.598   4.810  0.00  0.00    +0.000 A 
ENDBRANCH   1   6
BRANCH   1   9
ATOM      9  C   UNL     1      11.792   6.815   5.873  0.00  0.00    +0.000 C 
BRANCH   9  10
ATOM     10  C   UNL     1      10.980   5.573   6.314  0.00  0.00    +0.000 C 
ATOM     11  C   UNL     1      10.197   5.859   7.591  0.00  0.00    +0.000 C 
BRANCH  10  12
ATOM     12  O   UNL     1      10.046   5.180   5.299  0.00  0.00    +0.000 OA
ATOM     13  H   UNL     1       9.165   5.126   5.705  0.00  0.00    +0.000 HD
ENDBRANCH  10  12
ENDBRANCH   9  10
ENDBRANCH   1   9
BRANCH   1  14
ATOM     14  C   UNL     1      13.791   7.712   7.080  0.00  0.00    +0.000 C 
BRANCH  14  15
ATOM     15  C   UNL     1      12.699   8.322   7.991  0.00  0.00    +0.000 C 
ATOM     16  C   UNL     1      12.850   7.928   9.456  0.00  0.00    +0.000 C 
BRANCH  15  17
ATOM     17  O   UNL     1      12.686   9.747   7.917  0.00  0.00    +0.000 OA
ATOM     18  H   UNL     1      12.166  10.036   8.694  0.00  0.00    +0.000 HD
ENDBRANCH  15  17
ENDBRANCH  14  15
ENDBRANCH   1  14
TORSDOF 7
ENDMDL
MODEL 3
REMARK VINA RESULT:    -5.304      2.884      4.458
REMARK INTER + INTRA:          -7.610
REMARK INTER:                  -7.015
REMARK INTRA:                  -0.595
REMARK UNBOUND:                -0.446
REMARK  Name = 
REMARK  10 active torsions:
REMARK  status: ('A' for Active; 'I' for Inactive)
REMARK    1  A    between atoms: C_1  and  C_2
REMARK    2  A    between atoms: C_5  and  N_8
REMARK    3  A    between atoms: N_8  and  C_9
REMARK    4  A    between atoms: N_8  and  C_13
REMARK    5  A    between atoms: C_9  and  C_10
REMARK    6  A    between atoms: C_10  and  C_11
REMARK    7  A    between atoms: C_10  and  O_12
REMARK    8  A    between atoms: C_13  and  C_14
REMARK    9  A    between atoms: C_14  and  C_15
REMARK   10  A    between atoms: C_14  and  O_16
REMARK                            x       y       z     vdW  Elec       q    Type
REMARK                         _______ _______ _______ _____ _____    ______ ____
ROOT
ATOM      1  N   UNL     1      11.473   6.533   7.789  0.00  0.00    +0.000 N 
ENDROOT
BRANCH   1   6
ATOM      2  C   UNL     1      14.343  10.418   4.627  0.00  0.00    +0.000 C 
ATOM      3  C   UNL     1      13.620   9.397   5.451  0.00  0.00    +0.000 A 
ATOM      4  C   UNL     1      12.996   8.307   4.852  0.00  0.00    +0.000 A 
ATOM      5  C   UNL     1      12.294   7.369   5.626  0.00  0.00    +0.000 A 
ATOM      6  C   UNL     1      12.159   7.483   7.021  0.00  0.00    +0.000 A 
ATOM      7  C   UNL     1      12.803   8.595   7.593  0.00  0.00    +0.000 A 
ATOM      8  C   UNL     1      13.511   9.539   6.831  0.00  0.00    +0.000 A 
ENDBRANCH   1   6
BRANCH   1   9
ATOM      9  C   UNL     1      10.579   5.550   7.132  0.00  0.00    +0.000 C 
BRANCH   9  10
ATOM     10  C   UNL     1       9.082   5.928   7.250  0.00  0.00    +0.000 C 
ATOM     11  C   UNL     1       8.580   6.576   5.965  0.00  0.00    +0.000 C 
BRANCH  10  12
ATOM     12  O   UNL     1       8.277   4.769   7.506  0.00  0.00    +0.000 OA
ATOM     13  H   UNL     1       7.453   5.062   7.929  0.00  0.00    +0.000 HD
ENDBRANCH  10  12
ENDBRANCH   9  10
ENDBRANCH   1   9
BRANCH   1  14
ATOM     14  C   UNL     1      11.193   6.766   9.229  0.00  0.00    +0.000 C 
BRANCH  14  15
ATOM     15  C   UNL     1      12.136   5.953  10.148  0.00  0.00    +0.000 C 
ATOM     16  C   UNL     1      13.161   6.818  10.872  0.00  0.00    +0.000 C 
BRANCH  15  17
ATOM     17  O   UNL     1      11.410   5.214  11.128  0.00  0.00    +0.000 OA
ATOM     18  H   UNL     1      11.860   4.346  11.175  0.00  0.00    +0.000 HD
ENDBRANCH  15  17
ENDBRANCH  14  15
ENDBRANCH   1  14
TORSDOF 7
ENDMDL
MODEL 4
REMARK VINA RESULT:    -5.220      1.560      1.641
REMARK INTER + INTRA:          -7.496
REMARK INTER:                  -6.865
REMARK INTRA:                  -0.632
REMARK UNBOUND:                -0.446
REMARK  Name = 
REMARK  10 active torsions:
REMARK  status: ('A' for Active; 'I' for Inactive)
REMARK    1  A    between atoms: C_1  and  C_2
REMARK    2  A    between atoms: C_5  and  N_8
REMARK    3  A    between atoms: N_8  and  C_9
REMARK    4  A    between atoms: N_8  and  C_13
REMARK    5  A    between atoms: C_9  and  C_10
REMARK    6  A    between atoms: C_10  and  C_11
REMARK    7  A    between atoms: C_10  and  O_12
REMARK    8  A    between atoms: C_13  and  C_14
REMARK    9  A    between atoms: C_14  and  C_15
REMARK   10  A    between atoms: C_14  and  O_16
REMARK                            x       y       z     vdW  Elec       q    Type
REMARK                         _______ _______ _______ _____ _____    ______ ____
ROOT
ATOM      1  N   UNL     1      12.173   6.172   7.517  0.00  0.00    +0.000 N 
ENDROOT
BRANCH   1   6
ATOM      2  C   UNL     1      16.419   4.799   3.854  0.00  0.00    +0.000 C 
ATOM      3  C   UNL     1      15.314   5.131   4.809  0.00  0.00    +0.000 A 
ATOM      4  C   UNL     1      13.999   5.246   4.369  0.00  0.00    +0.000 A 
ATOM      5  C   UNL     1      12.972   5.587   5.264  0.00  0.00    +0.000 A 
ATOM      6  C   UNL     1      13.205   5.851   6.626  0.00  0.00    +0.000 A 
ATOM      7  C   UNL     1      14.545   5.724   7.036  0.00  0.00    +0.000 A 
ATOM      8  C   UNL     1      15.582   5.381   6.152  0.00  0.00    +0.000 A 
ENDBRANCH   1   6
BRANCH   1   9
ATOM      9  C   UNL     1      12.477   6.880   8.783  0.00  0.00    +0.000 C 
BRANCH   9  10
ATOM     10  C   UNL     1      12.532   5.930  10.004  0.00  0.00    +0.000 C 
ATOM     11  C   UNL     1      13.668   6.314  10.944  0.00  0.00    +0.000 C 
BRANCH  10  12
ATOM     12  O   UNL     1      11.306   5.977  10.748  0.00  0.00    +0.000 OA
ATOM     13  H   UNL     1      11.360   6.720  11.371  0.00  0.00    +0.000 HD
ENDBRANCH  10  12
ENDBRANCH   9  10
ENDBRANCH   1   9
BRANCH   1  14
ATOM     14  C   UNL     1      10.894   5.416   7.516  0.00  0.00    +0.000 C 
BRANCH  14  15
ATOM     15  C   UNL     1       9.662   6.353   7.529  0.00  0.00    +0.000 C 
ATOM     16  C   UNL     1       8.627   5.997   6.469  0.00  0.00    +0.000 C 
BRANCH  15  17
ATOM     17  O   UNL     1       9.012   6.351   8.799  0.00  0.00    +0.000 OA
ATOM     18  H   UNL     1       8.702   7.270   8.926  0.00  0.00    +0.000 HD
ENDBRANCH  15  17
ENDBRANCH  14  15
ENDBRANCH   1  14
TORSDOF 7
ENDMDL
MODEL 5
REMARK VINA RESULT:    -5.191      2.465      3.666
REMARK INTER + INTRA:          -7.458
REMARK INTER:                  -6.964
REMARK INTRA:                  -0.494
REMARK UNBOUND:                -0.446
REMARK  Name = 
REMARK  10 active torsions:
REMARK  status: ('A' for Active; 'I' for Inactive)
REMARK    1  A    between atoms: C_1  and  C_2
REMARK    2  A    between atoms: C_5  and  N_8
REMARK    3  A    between atoms: N_8  and  C_9
REMARK    4  A    between atoms: N_8  and  C_13
REMARK    5  A    between atoms: C_9  and  C_10
REMARK    6  A    between atoms: C_10  and  C_11
REMARK    7  A    between atoms: C_10  and  O_12
REMARK    8  A    between atoms: C_13  and  C_14
REMARK    9  A    between atoms: C_14  and  C_15
REMARK   10  A    between atoms: C_14  and  O_16
REMARK                            x       y       z     vdW  Elec       q    Type
REMARK                         _______ _______ _______ _____ _____    ______ ____
ROOT
ATOM      1  N   UNL     1      13.540   6.820   4.096  0.00  0.00    +0.000 N 
ENDROOT
BRANCH   1   6
ATOM      2  C   UNL     1      17.204   3.198   1.491  0.00  0.00    +0.000 C 
ATOM      3  C   UNL     1      16.272   4.144   2.183  0.00  0.00    +0.000 A 
ATOM      4  C   UNL     1      15.455   3.710   3.221  0.00  0.00    +0.000 A 
ATOM      5  C   UNL     1      14.560   4.595   3.847  0.00  0.00    +0.000 A 
ATOM      6  C   UNL     1      14.420   5.938   3.455  0.00  0.00    +0.000 A 
ATOM      7  C   UNL     1      15.263   6.343   2.404  0.00  0.00    +0.000 A 
ATOM      8  C   UNL     1      16.163   5.469   1.771  0.00  0.00    +0.000 A 
ENDBRANCH   1   6
BRANCH   1   9
ATOM      9  C   UNL     1      13.413   8.219   3.622  0.00  0.00    +0.000 C 
BRANCH   9  10
ATOM     10  C   UNL     1      13.790   9.257   4.707  0.00  0.00    +0.000 C 
ATOM     11  C   UNL     1      15.285   9.555   4.681  0.00  0.00    +0.000 C 
BRANCH  10  12
ATOM     12  O   UNL     1      13.088  10.491   4.505  0.00  0.00    +0.000 OA
ATOM     13  H   UNL     1      12.564  10.410   3.691  0.00  0.00    +0.000 HD
ENDBRANCH  10  12
ENDBRANCH   9  10
ENDBRANCH   1   9
BRANCH   1  14
ATOM     14  C   UNL     1      13.116   6.596   5.502  0.00  0.00    +0.000 C 
BRANCH  14  15
ATOM     15  C   UNL     1      11.666   6.064   5.597  0.00  0.00    +0.000 C 
ATOM     16  C   UNL     1      11.301   5.565   6.991  0.00  0.00    +0.000 C 
BRANCH  15  17
ATOM     17  O   UNL     1      10.714   7.057   5.219  0.00  0.00    +0.000 OA
ATOM     18  H   UNL     1      10.780   7.746   5.911  0.00  0.00    +0.000 HD
ENDBRANCH  15  17
ENDBRANCH  14  15
ENDBRANCH   1  14
TORSDOF 7
ENDMDL
MODEL 6
REMARK VINA RESULT:    -5.188      1.638      2.588
REMARK INTER + INTRA:          -7.453
REMARK INTER:                  -6.908
REMARK INTRA:                  -0.545
REMARK UNBOUND:                -0.446
REMARK  Name = 
REMARK  10 active torsions:
REMARK  status: ('A' for Active; 'I' for Inactive)
REMARK    1  A    between atoms: C_1  and  C_2
REMARK    2  A    between atoms: C_5  and  N_8
REMARK    3  A    between atoms: N_8  and  C_9
REMARK    4  A    between atoms: N_8  and  C_13
REMARK    5  A    between atoms: C_9  and  C_10
REMARK    6  A    between atoms: C_10  and  C_11
REMARK    7  A    between atoms: C_10  and  O_12
REMARK    8  A    between atoms: C_13  and  C_14
REMARK    9  A    between atoms: C_14  and  C_15
REMARK   10  A    between atoms: C_14  and  O_16
REMARK                            x       y       z     vdW  Elec       q    Type
REMARK                         _______ _______ _______ _____ _____    ______ ____
ROOT
ATOM      1  N   UNL     1      13.659   6.754   7.179  0.00  0.00    +0.000 N 
ENDROOT
BRANCH   1   6
ATOM      2  C   UNL     1      15.988   3.630   2.920  0.00  0.00    +0.000 C 
ATOM      3  C   UNL     1      15.390   4.461   4.013  0.00  0.00    +0.000 A 
ATOM      4  C   UNL     1      16.145   4.836   5.120  0.00  0.00    +0.000 A 
ATOM      5  C   UNL     1      15.570   5.590   6.156  0.00  0.00    +0.000 A 
ATOM      6  C   UNL     1      14.220   5.985   6.152  0.00  0.00    +0.000 A 
ATOM      7  C   UNL     1      13.488   5.591   5.017  0.00  0.00    +0.000 A 
ATOM      8  C   UNL     1      14.051   4.839   3.973  0.00  0.00    +0.000 A 
ENDBRANCH   1   6
BRANCH   1   9
ATOM      9  C   UNL     1      14.385   7.936   7.705  0.00  0.00    +0.000 C 
BRANCH   9  10
ATOM     10  C   UNL     1      13.831   9.273   7.155  0.00  0.00    +0.000 C 
ATOM     11  C   UNL     1      13.444   9.141   5.687  0.00  0.00    +0.000 C 
BRANCH  10  12
ATOM     12  O   UNL     1      12.669   9.688   7.886  0.00  0.00    +0.000 OA
ATOM     13  H   UNL     1      12.442  10.590   7.604  0.00  0.00    +0.000 HD
ENDBRANCH  10  12
ENDBRANCH   9  10
ENDBRANCH   1   9
BRANCH   1  14
ATOM     14  C   UNL     1      12.647   6.181   8.103  0.00  0.00    +0.000 C 
BRANCH  14  15
ATOM     15  C   UNL     1      11.223   6.710   7.809  0.00  0.00    +0.000 C 
ATOM     16  C   UNL     1      10.233   5.604   7.463  0.00  0.00    +0.000 C 
BRANCH  15  17
ATOM     17  O   UNL     1      10.695   7.445   8.913  0.00  0.00    +0.000 OA
ATOM     18  H   UNL     1      10.628   6.795   9.641  0.00  0.00    +0.000 HD
ENDBRANCH  15  17
ENDBRANCH  14  15
ENDBRANCH   1  14
TORSDOF 7
ENDMDL
MODEL 7
REMARK VINA RESULT:    -5.145      2.685      5.187
REMARK INTER + INTRA:          -7.395
REMARK INTER:                  -6.910
REMARK INTRA:                  -0.485
REMARK UNBOUND:                -0.446
REMARK  Name = 
REMARK  10 active torsions:
REMARK  status: ('A' for Active; 'I' for Inactive)
REMARK    1  A    between atoms: C_1  and  C_2
REMARK    2  A    between atoms: C_5  and  N_8
REMARK    3  A    between atoms: N_8  and  C_9
REMARK    4  A    between atoms: N_8  and  C_13
REMARK    5  A    between atoms: C_9  and  C_10
REMARK    6  A    between atoms: C_10  and  C_11
REMARK    7  A    between atoms: C_10  and  O_12
REMARK    8  A    between atoms: C_13  and  C_14
REMARK    9  A    between atoms: C_14  and  C_15
REMARK   10  A    between atoms: C_14  and  O_16
REMARK                            x       y       z     vdW  Elec       q    Type
REMARK                         _______ _______ _______ _____ _____    ______ ____
ROOT
ATOM      1  N   UNL     1      12.068   6.164   7.903  0.00  0.00    +0.000 N 
ENDROOT
BRANCH   1   6
ATOM      2  C   UNL     1      14.600   6.218  13.091  0.00  0.00    +0.000 C 
ATOM      3  C   UNL     1      13.945   6.179  11.744  0.00  0.00    +0.000 A 
ATOM      4  C   UNL     1      14.699   6.275  10.580  0.00  0.00    +0.000 A 
ATOM      5  C   UNL     1      14.076   6.268   9.321  0.00  0.00    +0.000 A 
ATOM      6  C   UNL     1      12.681   6.190   9.162  0.00  0.00    +0.000 A 
ATOM      7  C   UNL     1      11.950   6.091  10.361  0.00  0.00    +0.000 A 
ATOM      8  C   UNL     1      12.560   6.095  11.626  0.00  0.00    +0.000 A 
ENDBRANCH   1   6
BRANCH   1   9
ATOM      9  C   UNL     1      10.794   5.430   7.712  0.00  0.00    +0.000 C 
BRANCH   9  10
ATOM     10  C   UNL     1       9.571   6.372   7.586  0.00  0.00    +0.000 C 
ATOM     11  C   UNL     1       8.689   5.966   6.412  0.00  0.00    +0.000 C 
BRANCH  10  12
ATOM     12  O   UNL     1       8.771   6.338   8.776  0.00  0.00    +0.000 OA
ATOM     13  H   UNL     1       8.890   7.182   9.242  0.00  0.00    +0.000 HD
ENDBRANCH  10  12
ENDBRANCH   9  10
ENDBRANCH   1   9
BRANCH   1  14
ATOM     14  C   UNL     1      12.852   6.388   6.662  0.00  0.00    +0.000 C 
BRANCH  14  15
ATOM     15  C   UNL     1      12.473   7.716   5.963  0.00  0.00    +0.000 C 
ATOM     16  C   UNL     1      13.680   8.483   5.437  0.00  0.00    +0.000 C 
BRANCH  15  17
ATOM     17  O   UNL     1      11.576   7.502   4.874  0.00  0.00    +0.000 OA
ATOM     18  H   UNL     1      12.111   7.047   4.193  0.00  0.00    +0.000 HD
ENDBRANCH  15  17
ENDBRANCH  14  15
ENDBRANCH   1  14
TORSDOF 7
ENDMDL
MODEL 8
REMARK VINA RESULT:    -5.133      1.432      3.489
REMARK INTER + INTRA:          -7.380
REMARK INTER:                  -6.813
REMARK INTRA:                  -0.567
REMARK UNBOUND:                -0.446
REMARK  Name = 
REMARK  10 active torsions:
REMARK  status: ('A' for Active; 'I' for Inactive)
REMARK    1  A    between atoms: C_1  and  C_2
REMARK    2  A    between atoms: C_5  and  N_8
REMARK    3  A    between atoms: N_8  and  C_9
REMARK    4  A    between atoms: N_8  and  C_13
REMARK    5  A    between atoms: C_9  and  C_10
REMARK    6  A    between atoms: C_10  and  C_11
REMARK    7  A    between atoms: C_10  and  O_12
REMARK    8  A    between atoms: C_13  and  C_14
REMARK    9  A    between atoms: C_14  and  C_15
REMARK   10  A    between atoms: C_14  and  O_16
REMARK                            x       y       z     vdW  Elec       q    Type
REMARK                         _______ _______ _______ _____ _____    ______ ____
ROOT
ATOM      1  N   UNL     1      12.753   6.072   7.753  0.00  0.00    +0.000 N 
ENDROOT
BRANCH   1   6
ATOM      2  C   UNL     1      16.160   4.620   3.325  0.00  0.00    +0.000 C 
ATOM      3  C   UNL     1      15.280   5.021   4.469  0.00  0.00    +0.000 A 
ATOM      4  C   UNL     1      15.793   5.142   5.756  0.00  0.00    +0.000 A 
ATOM      5  C   UNL     1      14.958   5.489   6.831  0.00  0.00    +0.000 A 
ATOM      6  C   UNL     1      13.576   5.707   6.681  0.00  0.00    +0.000 A 
ATOM      7  C   UNL     1      13.093   5.578   5.366  0.00  0.00    +0.000 A 
ATOM      8  C   UNL     1      13.918   5.234   4.282  0.00  0.00    +0.000 A 
ENDBRANCH   1   6
BRANCH   1   9
ATOM      9  C   UNL     1      11.440   5.408   7.942  0.00  0.00    +0.000 C 
BRANCH   9  10
ATOM     10  C   UNL     1      10.245   6.348   7.650  0.00  0.00    +0.000 C 
ATOM     11  C   UNL     1       9.467   5.875   6.427  0.00  0.00    +0.000 C 
BRANCH  10  12
ATOM     12  O   UNL     1       9.341   6.391   8.762  0.00  0.00    +0.000 OA
ATOM     13  H   UNL     1       8.485   6.036   8.469  0.00  0.00    +0.000 HD
ENDBRANCH  10  12
ENDBRANCH   9  10
ENDBRANCH   1   9
BRANCH   1  14
ATOM     14  C   UNL     1      12.878   7.403   8.401  0.00  0.00    +0.000 C 
BRANCH  14  15
ATOM     15  C   UNL     1      13.123   7.290   9.925  0.00  0.00    +0.000 C 
ATOM     16  C   UNL     1      14.145   6.220  10.291  0.00  0.00    +0.000 C 
BRANCH  15  17
ATOM     17  O   UNL     1      13.561   8.528  10.482  0.00  0.00    +0.000 OA
ATOM     18  H   UNL     1      14.108   8.940   9.783  0.00  0.00    +0.000 HD
ENDBRANCH  15  17
ENDBRANCH  14  15
ENDBRANCH   1  14
TORSDOF 7
ENDMDL
MODEL 9
REMARK VINA RESULT:    -5.132      0.981      3.120
REMARK INTER + INTRA:          -7.378
REMARK INTER:                  -6.781
REMARK INTRA:                  -0.597
REMARK UNBOUND:                -0.446
REMARK  Name = 
REMARK  10 active torsions:
REMARK  status: ('A' for Active; 'I' for Inactive)
REMARK    1  A    between atoms: C_1  and  C_2
REMARK    2  A    between atoms: C_5  and  N_8
REMARK    3  A    between atoms: N_8  and  C_9
REMARK    4  A    between atoms: N_8  and  C_13
REMARK    5  A    between atoms: C_9  and  C_10
REMARK    6  A    between atoms: C_10  and  C_11
REMARK    7  A    between atoms: C_10  and  O_12
REMARK    8  A    between atoms: C_13  and  C_14
REMARK    9  A    between atoms: C_14  and  C_15
REMARK   10  A    between atoms: C_14  and  O_16
REMARK                            x       y       z     vdW  Elec       q    Type
REMARK                         _______ _______ _______ _____ _____    ______ ____
ROOT
ATOM      1  N   UNL     1      12.687   6.542   6.848  0.00  0.00    +0.000 N 
ENDROOT
BRANCH   1   6
ATOM      2  C   UNL     1      16.593   4.239   3.275  0.00  0.00    +0.000 C 
ATOM      3  C   UNL     1      15.588   4.860   4.197  0.00  0.00    +0.000 A 
ATOM      4  C   UNL     1      15.875   5.047   5.545  0.00  0.00    +0.000 A 
ATOM      5  C   UNL     1      14.918   5.601   6.410  0.00  0.00    +0.000 A 
ATOM      6  C   UNL     1      13.630   5.972   5.984  0.00  0.00    +0.000 A 
ATOM      7  C   UNL     1      13.375   5.770   4.615  0.00  0.00    +0.000 A 
ATOM      8  C   UNL     1      14.324   5.218   3.738  0.00  0.00    +0.000 A 
ENDBRANCH   1   6
BRANCH   1   9
ATOM      9  C   UNL     1      11.318   6.840   6.363  0.00  0.00    +0.000 C 
BRANCH   9  10
ATOM     10  C   UNL     1      10.341   5.655   6.557  0.00  0.00    +0.000 C 
ATOM     11  C   UNL     1       9.124   6.079   7.371  0.00  0.00    +0.000 C 
BRANCH  10  12
ATOM     12  O   UNL     1       9.879   5.157   5.293  0.00  0.00    +0.000 OA
ATOM     13  H   UNL     1       9.297   5.828   4.900  0.00  0.00    +0.000 HD
ENDBRANCH  10  12
ENDBRANCH   9  10
ENDBRANCH   1   9
BRANCH   1  14
ATOM     14  C   UNL     1      13.109   7.318   8.042  0.00  0.00    +0.000 C 
BRANCH  14  15
ATOM     15  C   UNL     1      12.767   6.590   9.364  0.00  0.00    +0.000 C 
ATOM     16  C   UNL     1      11.531   7.154  10.056  0.00  0.00    +0.000 C 
BRANCH  15  17
ATOM     17  O   UNL     1      12.559   5.194   9.158  0.00  0.00    +0.000 OA
ATOM     18  H   UNL     1      12.593   5.074   8.188  0.00  0.00    +0.000 HD
ENDBRANCH  15  17
ENDBRANCH  14  15
ENDBRANCH   1  14
TORSDOF 7
ENDMDL
