MODEL 1
REMARK VINA RESULT:    -4.251      0.000      0.000
REMARK INTER + INTRA:          -6.368
REMARK INTER:                  -5.742
REMARK INTRA:                  -0.626
REMARK UNBOUND:                -0.626
REMARK  Name = 
REMARK  10 active torsions:
REMARK  status: ('A' for Active; 'I' for Inactive)
REMARK    1  A    between atoms: C_1  and  C_2
REMARK    2  A    between atoms: C_5  and  N_8
REMARK    3  A    between atoms: N_8  and  C_9
REMARK    4  A    between atoms: N_8  and  C_13
REMARK    5  A    between atoms: C_9  and  C_10
REMARK    6  A    between atoms: C_10  and  C_11
REMARK    7  A    between atoms: C_10  and  O_12
REMARK    8  A    between atoms: C_13  and  C_14
REMARK    9  A    between atoms: C_14  and  C_15
REMARK   10  A    between atoms: C_14  and  O_16
REMARK                            x       y       z     vdW  Elec       q    Type
REMARK                         _______ _______ _______ _____ _____    ______ ____
ROOT
ATOM      1  N   UNL     1      -5.591  -0.070 -20.313  0.00  0.00    +0.000 N 
ENDROOT
BRANCH   1   6
ATOM      2  C   UNL     1      -2.028   2.793 -23.840  0.00  0.00    +0.000 C 
ATOM      3  C   UNL     1      -2.947   2.066 -22.907  0.00  0.00    +0.000 A 
ATOM      4  C   UNL     1      -2.493   0.990 -22.151  0.00  0.00    +0.000 A 
ATOM      5  C   UNL     1      -3.366   0.293 -21.300  0.00  0.00    +0.000 A 
ATOM      6  C   UNL     1      -4.730   0.617 -21.178  0.00  0.00    +0.000 A 
ATOM      7  C   UNL     1      -5.153   1.711 -21.955  0.00  0.00    +0.000 A 
ATOM      8  C   UNL     1      -4.290   2.418 -22.808  0.00  0.00    +0.000 A 
ENDBRANCH   1   6
BRANCH   1   9
ATOM      9  C   UNL     1      -5.216  -0.265 -18.892  0.00  0.00    +0.000 C 
BRANCH   9  10
ATOM     10  C   UNL     1      -5.562   0.957 -18.006  0.00  0.00    +0.000 C 
ATOM     11  C   UNL     1      -4.595   2.107 -18.261  0.00  0.00    +0.000 C 
BRANCH  10  12
ATOM     12  O   UNL     1      -6.891   1.426 -18.273  0.00  0.00    +0.000 OA
ATOM     13  H   UNL     1      -7.338   0.765 -18.828  0.00  0.00    +0.000 HD
ENDBRANCH  10  12
ENDBRANCH   9  10
ENDBRANCH   1   9
BRANCH   1  14
ATOM     14  C   UNL     1      -6.594  -1.034 -20.832  0.00  0.00    +0.000 C 
BRANCH  14  15
ATOM     15  C   UNL     1      -8.032  -0.463 -20.785  0.00  0.00    +0.000 C 
ATOM     16  C   UNL     1      -8.988  -1.163 -21.743  0.00  0.00    +0.000 C 
BRANCH  15  17
ATOM     17  O   UNL     1      -8.587  -0.540 -19.472  0.00  0.00    +0.000 OA
ATOM     18  H   UNL     1      -8.286  -1.402 -19.121  0.00  0.00    +0.000 HD
ENDBRANCH  15  17
ENDBRANCH  14  15
ENDBRANCH   1  14
TORSDOF 7
ENDMDL
MODEL 2
REMARK VINA RESULT:    -4.120      1.524      2.067
REMARK INTER + INTRA:          -6.191
REMARK INTER:                  -5.630
REMARK INTRA:                  -0.561
REMARK UNBOUND:                -0.626
REMARK  Name = 
REMARK  10 active torsions:
REMARK  status: ('A' for Active; 'I' for Inactive)
REMARK    1  A    between atoms: C_1  and  C_2
REMARK    2  A    between atoms: C_5  and  N_8
REMARK    3  A    between atoms: N_8  and  C_9
REMARK    4  A    between atoms: N_8  and  C_13
REMARK    5  A    between atoms: C_9  and  C_10
REMARK    6  A    between atoms: C_10  and  C_11
REMARK    7  A    between atoms: C_10  and  O_12
REMARK    8  A    between atoms: C_13  and  C_14
REMARK    9  A    between atoms: C_14  and  C_15
REMARK   10  A    between atoms: C_14  and  O_16
REMARK                            x       y       z     vdW  Elec       q    Type
REMARK                         _______ _______ _______ _____ _____    ______ ____
ROOT
ATOM      1  N   UNL     1      -5.073  -0.139 -20.520  0.00  0.00    +0.000 N 
ENDROOT
BRANCH   1   6
ATOM      2  C   UNL     1      -0.166   0.384 -23.517  0.00  0.00    +0.000 C 
ATOM      3  C   UNL     1      -1.452   0.246 -22.761  0.00  0.00    +0.000 A 
ATOM      4  C   UNL     1      -2.185   1.368 -22.388  0.00  0.00    +0.000 A 
ATOM      5  C   UNL     1      -3.375   1.234 -21.653  0.00  0.00    +0.000 A 
ATOM      6  C   UNL     1      -3.876  -0.012 -21.236  0.00  0.00    +0.000 A 
ATOM      7  C   UNL     1      -3.110  -1.124 -21.632  0.00  0.00    +0.000 A 
ATOM      8  C   UNL     1      -1.920  -1.005 -22.369  0.00  0.00    +0.000 A 
ENDBRANCH   1   6
BRANCH   1   9
ATOM      9  C   UNL     1      -5.043  -0.330 -19.050  0.00  0.00    +0.000 C 
BRANCH   9  10
ATOM     10  C   UNL     1      -5.670   0.857 -18.278  0.00  0.00    +0.000 C 
ATOM     11  C   UNL     1      -4.941   2.158 -18.593  0.00  0.00    +0.000 C 
BRANCH  10  12
ATOM     12  O   UNL     1      -7.051   1.026 -18.628  0.00  0.00    +0.000 OA
ATOM     13  H   UNL     1      -7.436   0.146 -18.768  0.00  0.00    +0.000 HD
ENDBRANCH  10  12
ENDBRANCH   9  10
ENDBRANCH   1   9
BRANCH   1  14
ATOM     14  C   UNL     1      -6.321  -0.596 -21.184  0.00  0.00    +0.000 C 
BRANCH  14  15
ATOM     15  C   UNL     1      -6.899   0.473 -22.142  0.00  0.00    +0.000 C 
ATOM     16  C   UNL     1      -8.342   0.200 -22.545  0.00  0.00    +0.000 C 
BRANCH  15  17
ATOM     17  O   UNL     1      -6.840   1.780 -21.571  0.00  0.00    +0.000 OA
ATOM     18  H   UNL     1      -5.888   1.943 -21.411  0.00  0.00    +0.000 HD
ENDBRANCH  15  17
ENDBRANCH  14  15
ENDBRANCH   1  14
TORSDOF 7
ENDMDL
MODEL 3
REMARK VINA RESULT:    -3.850      1.453      2.977
REMARK INTER + INTRA:          -5.826
REMARK INTER:                  -5.242
REMARK INTRA:                  -0.584
REMARK UNBOUND:                -0.626
REMARK  Name = 
REMARK  10 active torsions:
REMARK  status: ('A' for Active; 'I' for Inactive)
REMARK    1  A    between atoms: C_1  and  C_2
REMARK    2  A    between atoms: C_5  and  N_8
REMARK    3  A    between atoms: N_8  and  C_9
REMARK    4  A    between atoms: N_8  and  C_13
REMARK    5  A    between atoms: C_9  and  C_10
REMARK    6  A    between atoms: C_10  and  C_11
REMARK    7  A    between atoms: C_10  and  O_12
REMARK    8  A    between atoms: C_13  and  C_14
REMARK    9  A    between atoms: C_14  and  C_15
REMARK   10  A    between atoms: C_14  and  O_16
REMARK                            x       y       z     vdW  Elec       q    Type
REMARK                         _______ _______ _______ _____ _____    ______ ____
ROOT
ATOM      1  N   UNL     1      -5.639   0.451 -21.236  0.00  0.00    +0.000 N 
ENDROOT
BRANCH   1   6
ATOM      2  C   UNL     1      -1.253   3.256 -23.731  0.00  0.00    +0.000 C 
ATOM      3  C   UNL     1      -2.388   2.542 -23.063  0.00  0.00    +0.000 A 
ATOM      4  C   UNL     1      -2.174   1.362 -22.358  0.00  0.00    +0.000 A 
ATOM      5  C   UNL     1      -3.246   0.680 -21.760  0.00  0.00    +0.000 A 
ATOM      6  C   UNL     1      -4.577   1.125 -21.852  0.00  0.00    +0.000 A 
ATOM      7  C   UNL     1      -4.756   2.322 -22.570  0.00  0.00    +0.000 A 
ATOM      8  C   UNL     1      -3.693   3.014 -23.172  0.00  0.00    +0.000 A 
ENDBRANCH   1   6
BRANCH   1   9
ATOM      9  C   UNL     1      -6.647  -0.259 -22.060  0.00  0.00    +0.000 C 
BRANCH   9  10
ATOM     10  C   UNL     1      -7.841   0.644 -22.457  0.00  0.00    +0.000 C 
ATOM     11  C   UNL     1      -8.146   0.522 -23.945  0.00  0.00    +0.000 C 
BRANCH  10  12
ATOM     12  O   UNL     1      -9.024   0.283 -21.730  0.00  0.00    +0.000 OA
ATOM     13  H   UNL     1      -9.010   0.753 -20.880  0.00  0.00    +0.000 HD
ENDBRANCH  10  12
ENDBRANCH   9  10
ENDBRANCH   1   9
BRANCH   1  14
ATOM     14  C   UNL     1      -6.096   0.820 -19.872  0.00  0.00    +0.000 C 
BRANCH  14  15
ATOM     15  C   UNL     1      -6.766  -0.367 -19.139  0.00  0.00    +0.000 C 
ATOM     16  C   UNL     1      -6.016  -0.798 -17.884  0.00  0.00    +0.000 C 
BRANCH  15  17
ATOM     17  O   UNL     1      -8.111  -0.067 -18.768  0.00  0.00    +0.000 OA
ATOM     18  H   UNL     1      -8.091   0.870 -18.486  0.00  0.00    +0.000 HD
ENDBRANCH  15  17
ENDBRANCH  14  15
ENDBRANCH   1  14
TORSDOF 7
ENDMDL
MODEL 4
REMARK VINA RESULT:    -3.796      1.358      3.484
REMARK INTER + INTRA:          -5.752
REMARK INTER:                  -5.442
REMARK INTRA:                  -0.310
REMARK UNBOUND:                -0.626
REMARK  Name = 
REMARK  10 active torsions:
REMARK  status: ('A' for Active; 'I' for Inactive)
REMARK    1  A    between atoms: C_1  and  C_2
REMARK    2  A    between atoms: C_5  and  N_8
REMARK    3  A    between atoms: N_8  and  C_9
REMARK    4  A    between atoms: N_8  and  C_13
REMARK    5  A    between atoms: C_9  and  C_10
REMARK    6  A    between atoms: C_10  and  C_11
REMARK    7  A    between atoms: C_10  and  O_12
REMARK    8  A    between atoms: C_13  and  C_14
REMARK    9  A    between atoms: C_14  and  C_15
REMARK   10  A    between atoms: C_14  and  O_16
REMARK                            x       y       z     vdW  Elec       q    Type
REMARK                         _______ _______ _______ _____ _____    ______ ____
ROOT
ATOM      1  N   UNL     1      -5.333   0.159 -20.479  0.00  0.00    +0.000 N 
ENDROOT
BRANCH   1   6
ATOM      2  C   UNL     1      -0.359  -0.158 -23.393  0.00  0.00    +0.000 C 
ATOM      3  C   UNL     1      -1.662  -0.080 -22.658  0.00  0.00    +0.000 A 
ATOM      4  C   UNL     1      -2.310   1.138 -22.480  0.00  0.00    +0.000 A 
ATOM      5  C   UNL     1      -3.517   1.209 -21.764  0.00  0.00    +0.000 A 
ATOM      6  C   UNL     1      -4.120   0.084 -21.175  0.00  0.00    +0.000 A 
ATOM      7  C   UNL     1      -3.438  -1.131 -21.377  0.00  0.00    +0.000 A 
ATOM      8  C   UNL     1      -2.233  -1.217 -22.093  0.00  0.00    +0.000 A 
ENDBRANCH   1   6
BRANCH   1   9
ATOM      9  C   UNL     1      -6.297  -0.966 -20.542  0.00  0.00    +0.000 C 
BRANCH   9  10
ATOM     10  C   UNL     1      -7.770  -0.491 -20.598  0.00  0.00    +0.000 C 
ATOM     11  C   UNL     1      -8.540  -1.230 -21.686  0.00  0.00    +0.000 C 
BRANCH  10  12
ATOM     12  O   UNL     1      -8.433  -0.723 -19.348  0.00  0.00    +0.000 OA
ATOM     13  H   UNL     1      -9.181  -0.105 -19.284  0.00  0.00    +0.000 HD
ENDBRANCH  10  12
ENDBRANCH   9  10
ENDBRANCH   1   9
BRANCH   1  14
ATOM     14  C   UNL     1      -5.925   1.469 -20.106  0.00  0.00    +0.000 C 
BRANCH  14  15
ATOM     15  C   UNL     1      -5.744   1.785 -18.602  0.00  0.00    +0.000 C 
ATOM     16  C   UNL     1      -5.508   0.542 -17.752  0.00  0.00    +0.000 C 
BRANCH  15  17
ATOM     17  O   UNL     1      -4.660   2.685 -18.379  0.00  0.00    +0.000 OA
ATOM     18  H   UNL     1      -4.929   3.219 -17.604  0.00  0.00    +0.000 HD
ENDBRANCH  15  17
ENDBRANCH  14  15
ENDBRANCH   1  14
TORSDOF 7
ENDMDL
MODEL 5
REMARK VINA RESULT:    -3.764      1.898      3.394
REMARK INTER + INTRA:          -5.709
REMARK INTER:                  -5.277
REMARK INTRA:                  -0.432
REMARK UNBOUND:                -0.626
REMARK  Name = 
REMARK  10 active torsions:
REMARK  status: ('A' for Active; 'I' for Inactive)
REMARK    1  A    between atoms: C_1  and  C_2
REMARK    2  A    between atoms: C_5  and  N_8
REMARK    3  A    between atoms: N_8  and  C_9
REMARK    4  A    between atoms: N_8  and  C_13
REMARK    5  A    between atoms: C_9  and  C_10
REMARK    6  A    between atoms: C_10  and  C_11
REMARK    7  A    between atoms: C_10  and  O_12
REMARK    8  A    between atoms: C_13  and  C_14
REMARK    9  A    between atoms: C_14  and  C_15
REMARK   10  A    between atoms: C_14  and  O_16
REMARK                            x       y       z     vdW  Elec       q    Type
REMARK                         _______ _______ _______ _____ _____    ______ ____
ROOT
ATOM      1  N   UNL     1      -4.543   0.298 -21.111  0.00  0.00    +0.000 N 
ENDROOT
BRANCH   1   6
ATOM      2  C   UNL     1       0.532  -0.025 -23.843  0.00  0.00    +0.000 C 
ATOM      3  C   UNL     1      -0.773   0.059 -23.112  0.00  0.00    +0.000 A 
ATOM      4  C   UNL     1      -1.460  -1.092 -22.742  0.00  0.00    +0.000 A 
ATOM      5  C   UNL     1      -2.697  -1.007 -22.084  0.00  0.00    +0.000 A 
ATOM      6  C   UNL     1      -3.318   0.220 -21.785  0.00  0.00    +0.000 A 
ATOM      7  C   UNL     1      -2.594   1.363 -22.172  0.00  0.00    +0.000 A 
ATOM      8  C   UNL     1      -1.354   1.291 -22.829  0.00  0.00    +0.000 A 
ENDBRANCH   1   6
BRANCH   1   9
ATOM      9  C   UNL     1      -5.815   0.238 -21.871  0.00  0.00    +0.000 C 
BRANCH   9  10
ATOM     10  C   UNL     1      -6.227   1.610 -22.460  0.00  0.00    +0.000 C 
ATOM     11  C   UNL     1      -5.896   1.687 -23.945  0.00  0.00    +0.000 C 
BRANCH  10  12
ATOM     12  O   UNL     1      -7.636   1.833 -22.306  0.00  0.00    +0.000 OA
ATOM     13  H   UNL     1      -7.851   2.688 -22.715  0.00  0.00    +0.000 HD
ENDBRANCH  10  12
ENDBRANCH   9  10
ENDBRANCH   1   9
BRANCH   1  14
ATOM     14  C   UNL     1      -4.645   0.933 -19.772  0.00  0.00    +0.000 C 
BRANCH  14  15
ATOM     15  C   UNL     1      -6.008   0.653 -19.095  0.00  0.00    +0.000 C 
ATOM     16  C   UNL     1      -5.988  -0.575 -18.192  0.00  0.00    +0.000 C 
BRANCH  15  17
ATOM     17  O   UNL     1      -6.449   1.765 -18.318  0.00  0.00    +0.000 OA
ATOM     18  H   UNL     1      -7.426   1.729 -18.356  0.00  0.00    +0.000 HD
ENDBRANCH  15  17
ENDBRANCH  14  15
ENDBRANCH   1  14
TORSDOF 7
ENDMDL
MODEL 6
REMARK VINA RESULT:    -3.564      1.587      2.164
REMARK INTER + INTRA:          -5.439
REMARK INTER:                  -5.223
REMARK INTRA:                  -0.216
REMARK UNBOUND:                -0.626
REMARK  Name = 
REMARK  10 active torsions:
REMARK  status: ('A' for Active; 'I' for Inactive)
REMARK    1  A    between atoms: C_1  and  C_2
REMARK    2  A    between atoms: C_5  and  N_8
REMARK    3  A    between atoms: N_8  and  C_9
REMARK    4  A    between atoms: N_8  and  C_13
REMARK    5  A    between atoms: C_9  and  C_10
REMARK    6  A    between atoms: C_10  and  C_11
REMARK    7  A    between atoms: C_10  and  O_12
REMARK    8  A    between atoms: C_13  and  C_14
REMARK    9  A    between atoms: C_14  and  C_15
REMARK   10  A    between atoms: C_14  and  O_16
REMARK                            x       y       z     vdW  Elec       q    Type
REMARK                         _______ _______ _______ _____ _____    ______ ____
ROOT
ATOM      1  N   UNL     1      -5.958   1.150 -20.893  0.00  0.00    +0.000 N 
ENDROOT
BRANCH   1   6
ATOM      2  C   UNL     1      -1.202   2.865 -23.680  0.00  0.00    +0.000 C 
ATOM      3  C   UNL     1      -2.440   2.403 -22.974  0.00  0.00    +0.000 A 
ATOM      4  C   UNL     1      -3.670   3.001 -23.225  0.00  0.00    +0.000 A 
ATOM      5  C   UNL     1      -4.822   2.584 -22.538  0.00  0.00    +0.000 A 
ATOM      6  C   UNL     1      -4.801   1.574 -21.559  0.00  0.00    +0.000 A 
ATOM      7  C   UNL     1      -3.541   0.990 -21.334  0.00  0.00    +0.000 A 
ATOM      8  C   UNL     1      -2.382   1.397 -22.015  0.00  0.00    +0.000 A 
ENDBRANCH   1   6
BRANCH   1   9
ATOM      9  C   UNL     1      -5.982   1.090 -19.411  0.00  0.00    +0.000 C 
BRANCH   9  10
ATOM     10  C   UNL     1      -6.636  -0.207 -18.874  0.00  0.00    +0.000 C 
ATOM     11  C   UNL     1      -5.984  -0.645 -17.568  0.00  0.00    +0.000 C 
BRANCH  10  12
ATOM     12  O   UNL     1      -8.036  -0.014 -18.629  0.00  0.00    +0.000 OA
ATOM     13  H   UNL     1      -8.144   0.818 -18.138  0.00  0.00    +0.000 HD
ENDBRANCH  10  12
ENDBRANCH   9  10
ENDBRANCH   1   9
BRANCH   1  14
ATOM     14  C   UNL     1      -6.963   0.291 -21.569  0.00  0.00    +0.000 C 
BRANCH  14  15
ATOM     15  C   UNL     1      -7.923   1.110 -22.465  0.00  0.00    +0.000 C 
ATOM     16  C   UNL     1      -7.812   0.755 -23.943  0.00  0.00    +0.000 C 
BRANCH  15  17
ATOM     17  O   UNL     1      -9.284   0.942 -22.072  0.00  0.00    +0.000 OA
ATOM     18  H   UNL     1      -9.417   1.581 -21.342  0.00  0.00    +0.000 HD
ENDBRANCH  15  17
ENDBRANCH  14  15
ENDBRANCH   1  14
TORSDOF 7
ENDMDL
MODEL 7
REMARK VINA RESULT:    -3.468     19.705     21.024
REMARK INTER + INTRA:          -5.310
REMARK INTER:                  -4.815
REMARK INTRA:                  -0.495
REMARK UNBOUND:                -0.626
REMARK  Name = 
REMARK  10 active torsions:
REMARK  status: ('A' for Active; 'I' for Inactive)
REMARK    1  A    between atoms: C_1  and  C_2
REMARK    2  A    between atoms: C_5  and  N_8
REMARK    3  A    between atoms: N_8  and  C_9
REMARK    4  A    between atoms: N_8  and  C_13
REMARK    5  A    between atoms: C_9  and  C_10
REMARK    6  A    between atoms: C_10  and  C_11
REMARK    7  A    between atoms: C_10  and  O_12
REMARK    8  A    between atoms: C_13  and  C_14
REMARK    9  A    between atoms: C_14  and  C_15
REMARK   10  A    between atoms: C_14  and  O_16
REMARK                            x       y       z     vdW  Elec       q    Type
REMARK                         _______ _______ _______ _____ _____    ______ ____
ROOT
ATOM      1  N   UNL     1       8.194  15.595 -20.104  0.00  0.00    +0.000 N 
ENDROOT
BRANCH   1   6
ATOM      2  C   UNL     1       5.490  20.556 -18.915  0.00  0.00    +0.000 C 
ATOM      3  C   UNL     1       6.197  19.266 -19.200  0.00  0.00    +0.000 A 
ATOM      4  C   UNL     1       7.546  19.250 -19.539  0.00  0.00    +0.000 A 
ATOM      5  C   UNL     1       8.196  18.041 -19.834  0.00  0.00    +0.000 A 
ATOM      6  C   UNL     1       7.534  16.800 -19.828  0.00  0.00    +0.000 A 
ATOM      7  C   UNL     1       6.173  16.853 -19.479  0.00  0.00    +0.000 A 
ATOM      8  C   UNL     1       5.511  18.055 -19.179  0.00  0.00    +0.000 A 
ENDBRANCH   1   6
BRANCH   1   9
ATOM      9  C   UNL     1       9.464  15.267 -19.412  0.00  0.00    +0.000 C 
BRANCH   9  10
ATOM     10  C   UNL     1      10.021  13.878 -19.807  0.00  0.00    +0.000 C 
ATOM     11  C   UNL     1      11.434  13.996 -20.366  0.00  0.00    +0.000 C 
BRANCH  10  12
ATOM     12  O   UNL     1      10.063  12.999 -18.675  0.00  0.00    +0.000 OA
ATOM     13  H   UNL     1       9.150  12.758 -18.447  0.00  0.00    +0.000 HD
ENDBRANCH  10  12
ENDBRANCH   9  10
ENDBRANCH   1   9
BRANCH   1  14
ATOM     14  C   UNL     1       7.977  14.876 -21.386  0.00  0.00    +0.000 C 
BRANCH  14  15
ATOM     15  C   UNL     1       8.098  15.816 -22.610  0.00  0.00    +0.000 C 
ATOM     16  C   UNL     1       9.256  15.454 -23.532  0.00  0.00    +0.000 C 
BRANCH  15  17
ATOM     17  O   UNL     1       6.901  15.825 -23.387  0.00  0.00    +0.000 OA
ATOM     18  H   UNL     1       7.036  15.135 -24.067  0.00  0.00    +0.000 HD
ENDBRANCH  15  17
ENDBRANCH  14  15
ENDBRANCH   1  14
TORSDOF 7
ENDMDL
MODEL 8
REMARK VINA RESULT:    -3.414     19.173     21.352
REMARK INTER + INTRA:          -5.237
REMARK INTER:                  -4.816
REMARK INTRA:                  -0.421
REMARK UNBOUND:                -0.626
REMARK  Name = 
REMARK  10 active torsions:
REMARK  status: ('A' for Active; 'I' for Inactive)
REMARK    1  A    between atoms: C_1  and  C_2
REMARK    2  A    between atoms: C_5  and  N_8
REMARK    3  A    between atoms: N_8  and  C_9
REMARK    4  A    between atoms: N_8  and  C_13
REMARK    5  A    between atoms: C_9  and  C_10
REMARK    6  A    between atoms: C_10  and  C_11
REMARK    7  A    between atoms: C_10  and  O_12
REMARK    8  A    between atoms: C_13  and  C_14
REMARK    9  A    between atoms: C_14  and  C_15
REMARK   10  A    between atoms: C_14  and  O_16
REMARK                            x       y       z     vdW  Elec       q    Type
REMARK                         _______ _______ _______ _____ _____    ______ ____
ROOT
ATOM      1  N   UNL     1       6.976  17.964 -20.037  0.00  0.00    +0.000 N 
ENDROOT
BRANCH   1   6
ATOM      2  C   UNL     1      11.357  14.210 -20.254  0.00  0.00    +0.000 C 
ATOM      3  C   UNL     1      10.221  15.187 -20.222  0.00  0.00    +0.000 A 
ATOM      4  C   UNL     1      10.453  16.548 -20.053  0.00  0.00    +0.000 A 
ATOM      5  C   UNL     1       9.383  17.455 -19.994  0.00  0.00    +0.000 A 
ATOM      6  C   UNL     1       8.038  17.051 -20.077  0.00  0.00    +0.000 A 
ATOM      7  C   UNL     1       7.841  15.669 -20.249  0.00  0.00    +0.000 A 
ATOM      8  C   UNL     1       8.902  14.751 -20.312  0.00  0.00    +0.000 A 
ENDBRANCH   1   6
BRANCH   1   9
ATOM      9  C   UNL     1       5.576  17.476 -20.062  0.00  0.00    +0.000 C 
BRANCH   9  10
ATOM     10  C   UNL     1       4.943  17.394 -18.651  0.00  0.00    +0.000 C 
ATOM     11  C   UNL     1       3.449  17.110 -18.740  0.00  0.00    +0.000 C 
BRANCH  10  12
ATOM     12  O   UNL     1       5.549  16.349 -17.876  0.00  0.00    +0.000 OA
ATOM     13  H   UNL     1       5.569  16.636 -16.948  0.00  0.00    +0.000 HD
ENDBRANCH  10  12
ENDBRANCH   9  10
ENDBRANCH   1   9
BRANCH   1  14
ATOM     14  C   UNL     1       7.155  19.372 -20.475  0.00  0.00    +0.000 C 
BRANCH  14  15
ATOM     15  C   UNL     1       7.036  20.369 -19.298  0.00  0.00    +0.000 C 
ATOM     16  C   UNL     1       5.619  20.891 -19.094  0.00  0.00    +0.000 C 
BRANCH  15  17
ATOM     17  O   UNL     1       7.475  19.790 -18.070  0.00  0.00    +0.000 OA
ATOM     18  H   UNL     1       8.452  19.816 -18.113  0.00  0.00    +0.000 HD
ENDBRANCH  15  17
ENDBRANCH  14  15
ENDBRANCH   1  14
TORSDOF 7
ENDMDL
MODEL 9
REMARK VINA RESULT:    -3.328     19.798     20.836
REMARK INTER + INTRA:          -5.120
REMARK INTER:                  -4.523
REMARK INTRA:                  -0.597
REMARK UNBOUND:                -0.626
REMARK  Name = 
REMARK  10 active torsions:
REMARK  status: ('A' for Active; 'I' for Inactive)
REMARK    1  A    between atoms: C_1  and  C_2
REMARK    2  A    between atoms: C_5  and  N_8
REMARK    3  A    between atoms: N_8  and  C_9
REMARK    4  A    between atoms: N_8  and  C_13
REMARK    5  A    between atoms: C_9  and  C_10
REMARK    6  A    between atoms: C_10  and  C_11
REMARK    7  A    between atoms: C_10  and  O_12
REMARK    8  A    between atoms: C_13  and  C_14
REMARK    9  A    between atoms: C_14  and  C_15
REMARK   10  A    between atoms: C_14  and  O_16
REMARK                            x       y       z     vdW  Elec       q    Type
REMARK                         _______ _______ _______ _____ _____    ______ ____
ROOT
ATOM      1  N   UNL     1       7.200  17.270 -21.008  0.00  0.00    +0.000 N 
ENDROOT
BRANCH   1   6
ATOM      2  C   UNL     1      11.682  13.760 -20.050  0.00  0.00    +0.000 C 
ATOM      3  C   UNL     1      10.513  14.670 -20.274  0.00  0.00    +0.000 A 
ATOM      4  C   UNL     1       9.260  14.159 -20.593  0.00  0.00    +0.000 A 
ATOM      5  C   UNL     1       8.175  15.018 -20.832  0.00  0.00    +0.000 A 
ATOM      6  C   UNL     1       8.290  16.420 -20.788  0.00  0.00    +0.000 A 
ATOM      7  C   UNL     1       9.571  16.901 -20.460  0.00  0.00    +0.000 A 
ATOM      8  C   UNL     1      10.664  16.053 -20.217  0.00  0.00    +0.000 A 
ENDBRANCH   1   6
BRANCH   1   9
ATOM      9  C   UNL     1       6.751  17.562 -22.391  0.00  0.00    +0.000 C 
BRANCH   9  10
ATOM     10  C   UNL     1       5.394  18.306 -22.437  0.00  0.00    +0.000 C 
ATOM     11  C   UNL     1       5.185  18.975 -23.790  0.00  0.00    +0.000 C 
BRANCH  10  12
ATOM     12  O   UNL     1       4.303  17.401 -22.216  0.00  0.00    +0.000 OA
ATOM     13  H   UNL     1       3.613  17.875 -21.723  0.00  0.00    +0.000 HD
ENDBRANCH  10  12
ENDBRANCH   9  10
ENDBRANCH   1   9
BRANCH   1  14
ATOM     14  C   UNL     1       6.794  18.278 -19.994  0.00  0.00    +0.000 C 
BRANCH  14  15
ATOM     15  C   UNL     1       5.748  17.718 -19.000  0.00  0.00    +0.000 C 
ATOM     16  C   UNL     1       4.560  18.650 -18.792  0.00  0.00    +0.000 C 
BRANCH  15  17
ATOM     17  O   UNL     1       5.246  16.451 -19.421  0.00  0.00    +0.000 OA
ATOM     18  H   UNL     1       5.747  15.794 -18.897  0.00  0.00    +0.000 HD
ENDBRANCH  15  17
ENDBRANCH  14  15
ENDBRANCH   1  14
TORSDOF 7
ENDMDL
