MODEL 1
REMARK VINA RESULT:    -4.164      0.000      0.000
REMARK INTER + INTRA:          -6.264
REMARK INTER:                  -5.625
REMARK INTRA:                  -0.639
REMARK UNBOUND:                -0.639
REMARK  Name = 
REMARK  10 active torsions:
REMARK  status: ('A' for Active; 'I' for Inactive)
REMARK    1  A    between atoms: C_1  and  C_2
REMARK    2  A    between atoms: C_5  and  N_8
REMARK    3  A    between atoms: N_8  and  C_9
REMARK    4  A    between atoms: N_8  and  C_13
REMARK    5  A    between atoms: C_9  and  C_10
REMARK    6  A    between atoms: C_10  and  C_11
REMARK    7  A    between atoms: C_10  and  O_12
REMARK    8  A    between atoms: C_13  and  C_14
REMARK    9  A    between atoms: C_14  and  C_15
REMARK   10  A    between atoms: C_14  and  O_16
REMARK                            x       y       z     vdW  Elec       q    Type
REMARK                         _______ _______ _______ _____ _____    ______ ____
ROOT
ATOM      1  N   UNL     1      -5.552  -0.070 -20.356  0.00  0.00    +0.000 N 
ENDROOT
BRANCH   1   6
ATOM      2  C   UNL     1      -1.960   2.847 -23.809  0.00  0.00    +0.000 C 
ATOM      3  C   UNL     1      -2.887   2.107 -22.894  0.00  0.00    +0.000 A 
ATOM      4  C   UNL     1      -2.433   1.036 -22.131  0.00  0.00    +0.000 A 
ATOM      5  C   UNL     1      -3.313   0.326 -21.298  0.00  0.00    +0.000 A 
ATOM      6  C   UNL     1      -4.684   0.630 -21.203  0.00  0.00    +0.000 A 
ATOM      7  C   UNL     1      -5.107   1.719 -21.987  0.00  0.00    +0.000 A 
ATOM      8  C   UNL     1      -4.237   2.439 -22.823  0.00  0.00    +0.000 A 
ENDBRANCH   1   6
BRANCH   1   9
ATOM      9  C   UNL     1      -5.208  -0.252 -18.925  0.00  0.00    +0.000 C 
BRANCH   9  10
ATOM     10  C   UNL     1      -5.580   0.976 -18.058  0.00  0.00    +0.000 C 
ATOM     11  C   UNL     1      -4.626   2.136 -18.317  0.00  0.00    +0.000 C 
BRANCH  10  12
ATOM     12  O   UNL     1      -6.912   1.423 -18.344  0.00  0.00    +0.000 OA
ATOM     13  H   UNL     1      -7.512   1.018 -17.696  0.00  0.00    +0.000 HD
ENDBRANCH  10  12
ENDBRANCH   9  10
ENDBRANCH   1   9
BRANCH   1  14
ATOM     14  C   UNL     1      -6.523  -1.056 -20.895  0.00  0.00    +0.000 C 
BRANCH  14  15
ATOM     15  C   UNL     1      -7.970  -0.506 -20.905  0.00  0.00    +0.000 C 
ATOM     16  C   UNL     1      -8.864  -1.189 -21.932  0.00  0.00    +0.000 C 
BRANCH  15  17
ATOM     17  O   UNL     1      -8.590  -0.631 -19.626  0.00  0.00    +0.000 OA
ATOM     18  H   UNL     1      -7.855  -0.804 -19.004  0.00  0.00    +0.000 HD
ENDBRANCH  15  17
ENDBRANCH  14  15
ENDBRANCH   1  14
TORSDOF 7
ENDMDL
MODEL 2
REMARK VINA RESULT:    -4.091      1.509      2.068
REMARK INTER + INTRA:          -6.165
REMARK INTER:                  -5.596
REMARK INTRA:                  -0.570
REMARK UNBOUND:                -0.639
REMARK  Name = 
REMARK  10 active torsions:
REMARK  status: ('A' for Active; 'I' for Inactive)
REMARK    1  A    between atoms: C_1  and  C_2
REMARK    2  A    between atoms: C_5  and  N_8
REMARK    3  A    between atoms: N_8  and  C_9
REMARK    4  A    between atoms: N_8  and  C_13
REMARK    5  A    between atoms: C_9  and  C_10
REMARK    6  A    between atoms: C_10  and  C_11
REMARK    7  A    between atoms: C_10  and  O_12
REMARK    8  A    between atoms: C_13  and  C_14
REMARK    9  A    between atoms: C_14  and  C_15
REMARK   10  A    between atoms: C_14  and  O_16
REMARK                            x       y       z     vdW  Elec       q    Type
REMARK                         _______ _______ _______ _____ _____    ______ ____
ROOT
ATOM      1  N   UNL     1      -5.080  -0.183 -20.527  0.00  0.00    +0.000 N 
ENDROOT
BRANCH   1   6
ATOM      2  C   UNL     1      -0.170   0.264 -23.531  0.00  0.00    +0.000 C 
ATOM      3  C   UNL     1      -1.457   0.146 -22.773  0.00  0.00    +0.000 A 
ATOM      4  C   UNL     1      -2.171   1.279 -22.397  0.00  0.00    +0.000 A 
ATOM      5  C   UNL     1      -3.361   1.164 -21.660  0.00  0.00    +0.000 A 
ATOM      6  C   UNL     1      -3.882  -0.074 -21.244  0.00  0.00    +0.000 A 
ATOM      7  C   UNL     1      -3.135  -1.198 -21.644  0.00  0.00    +0.000 A 
ATOM      8  C   UNL     1      -1.945  -1.097 -22.383  0.00  0.00    +0.000 A 
ENDBRANCH   1   6
BRANCH   1   9
ATOM      9  C   UNL     1      -5.050  -0.380 -19.057  0.00  0.00    +0.000 C 
BRANCH   9  10
ATOM     10  C   UNL     1      -5.654   0.814 -18.279  0.00  0.00    +0.000 C 
ATOM     11  C   UNL     1      -4.895   2.101 -18.581  0.00  0.00    +0.000 C 
BRANCH  10  12
ATOM     12  O   UNL     1      -7.030   1.017 -18.633  0.00  0.00    +0.000 OA
ATOM     13  H   UNL     1      -7.553   0.307 -18.226  0.00  0.00    +0.000 HD
ENDBRANCH  10  12
ENDBRANCH   9  10
ENDBRANCH   1   9
BRANCH   1  14
ATOM     14  C   UNL     1      -6.337  -0.614 -21.189  0.00  0.00    +0.000 C 
BRANCH  14  15
ATOM     15  C   UNL     1      -6.901   0.473 -22.136  0.00  0.00    +0.000 C 
ATOM     16  C   UNL     1      -8.346   0.217 -22.549  0.00  0.00    +0.000 C 
BRANCH  15  17
ATOM     17  O   UNL     1      -6.832   1.771 -21.549  0.00  0.00    +0.000 OA
ATOM     18  H   UNL     1      -5.993   1.776 -21.045  0.00  0.00    +0.000 HD
ENDBRANCH  15  17
ENDBRANCH  14  15
ENDBRANCH   1  14
TORSDOF 7
ENDMDL
MODEL 3
REMARK VINA RESULT:    -3.932      1.382      3.494
REMARK INTER + INTRA:          -5.951
REMARK INTER:                  -5.728
REMARK INTRA:                  -0.223
REMARK UNBOUND:                -0.639
REMARK  Name = 
REMARK  10 active torsions:
REMARK  status: ('A' for Active; 'I' for Inactive)
REMARK    1  A    between atoms: C_1  and  C_2
REMARK    2  A    between atoms: C_5  and  N_8
REMARK    3  A    between atoms: N_8  and  C_9
REMARK    4  A    between atoms: N_8  and  C_13
REMARK    5  A    between atoms: C_9  and  C_10
REMARK    6  A    between atoms: C_10  and  C_11
REMARK    7  A    between atoms: C_10  and  O_12
REMARK    8  A    between atoms: C_13  and  C_14
REMARK    9  A    between atoms: C_14  and  C_15
REMARK   10  A    between atoms: C_14  and  O_16
REMARK                            x       y       z     vdW  Elec       q    Type
REMARK                         _______ _______ _______ _____ _____    ______ ____
ROOT
ATOM      1  N   UNL     1      -5.207   0.239 -20.405  0.00  0.00    +0.000 N 
ENDROOT
BRANCH   1   6
ATOM      2  C   UNL     1      -0.283  -0.153 -23.392  0.00  0.00    +0.000 C 
ATOM      3  C   UNL     1      -1.573  -0.055 -22.638  0.00  0.00    +0.000 A 
ATOM      4  C   UNL     1      -2.187   1.176 -22.428  0.00  0.00    +0.000 A 
ATOM      5  C   UNL     1      -3.381   1.265 -21.695  0.00  0.00    +0.000 A 
ATOM      6  C   UNL     1      -4.006   0.145 -21.118  0.00  0.00    +0.000 A 
ATOM      7  C   UNL     1      -3.359  -1.083 -21.352  0.00  0.00    +0.000 A 
ATOM      8  C   UNL     1      -2.166  -1.186 -22.085  0.00  0.00    +0.000 A 
ENDBRANCH   1   6
BRANCH   1   9
ATOM      9  C   UNL     1      -6.148  -0.907 -20.378  0.00  0.00    +0.000 C 
BRANCH   9  10
ATOM     10  C   UNL     1      -7.624  -0.476 -20.556  0.00  0.00    +0.000 C 
ATOM     11  C   UNL     1      -8.277  -1.230 -21.708  0.00  0.00    +0.000 C 
BRANCH  10  12
ATOM     12  O   UNL     1      -8.383  -0.737 -19.367  0.00  0.00    +0.000 OA
ATOM     13  H   UNL     1      -7.874  -1.352 -18.813  0.00  0.00    +0.000 HD
ENDBRANCH  10  12
ENDBRANCH   9  10
ENDBRANCH   1   9
BRANCH   1  14
ATOM     14  C   UNL     1      -5.821   1.557 -20.103  0.00  0.00    +0.000 C 
BRANCH  14  15
ATOM     15  C   UNL     1      -5.770   1.894 -18.593  0.00  0.00    +0.000 C 
ATOM     16  C   UNL     1      -5.423   0.692 -17.722  0.00  0.00    +0.000 C 
BRANCH  15  17
ATOM     17  O   UNL     1      -4.828   2.928 -18.315  0.00  0.00    +0.000 OA
ATOM     18  H   UNL     1      -5.287   3.759 -18.553  0.00  0.00    +0.000 HD
ENDBRANCH  15  17
ENDBRANCH  14  15
ENDBRANCH   1  14
TORSDOF 7
ENDMDL
MODEL 4
REMARK VINA RESULT:    -3.814      1.394      2.963
REMARK INTER + INTRA:          -5.792
REMARK INTER:                  -5.207
REMARK INTRA:                  -0.585
REMARK UNBOUND:                -0.639
REMARK  Name = 
REMARK  10 active torsions:
REMARK  status: ('A' for Active; 'I' for Inactive)
REMARK    1  A    between atoms: C_1  and  C_2
REMARK    2  A    between atoms: C_5  and  N_8
REMARK    3  A    between atoms: N_8  and  C_9
REMARK    4  A    between atoms: N_8  and  C_13
REMARK    5  A    between atoms: C_9  and  C_10
REMARK    6  A    between atoms: C_10  and  C_11
REMARK    7  A    between atoms: C_10  and  O_12
REMARK    8  A    between atoms: C_13  and  C_14
REMARK    9  A    between atoms: C_14  and  C_15
REMARK   10  A    between atoms: C_14  and  O_16
REMARK                            x       y       z     vdW  Elec       q    Type
REMARK                         _______ _______ _______ _____ _____    ______ ____
ROOT
ATOM      1  N   UNL     1      -5.629   0.463 -21.202  0.00  0.00    +0.000 N 
ENDROOT
BRANCH   1   6
ATOM      2  C   UNL     1      -1.219   3.179 -23.752  0.00  0.00    +0.000 C 
ATOM      3  C   UNL     1      -2.359   2.487 -23.070  0.00  0.00    +0.000 A 
ATOM      4  C   UNL     1      -2.170   1.274 -22.416  0.00  0.00    +0.000 A 
ATOM      5  C   UNL     1      -3.248   0.614 -21.804  0.00  0.00    +0.000 A 
ATOM      6  C   UNL     1      -4.562   1.116 -21.832  0.00  0.00    +0.000 A 
ATOM      7  C   UNL     1      -4.715   2.345 -22.499  0.00  0.00    +0.000 A 
ATOM      8  C   UNL     1      -3.645   3.016 -23.114  0.00  0.00    +0.000 A 
ENDBRANCH   1   6
BRANCH   1   9
ATOM      9  C   UNL     1      -6.634  -0.268 -22.011  0.00  0.00    +0.000 C 
BRANCH   9  10
ATOM     10  C   UNL     1      -7.830   0.623 -22.429  0.00  0.00    +0.000 C 
ATOM     11  C   UNL     1      -8.161   0.433 -23.905  0.00  0.00    +0.000 C 
BRANCH  10  12
ATOM     12  O   UNL     1      -9.002   0.304 -21.666  0.00  0.00    +0.000 OA
ATOM     13  H   UNL     1      -9.502  -0.373 -22.152  0.00  0.00    +0.000 HD
ENDBRANCH  10  12
ENDBRANCH   9  10
ENDBRANCH   1   9
BRANCH   1  14
ATOM     14  C   UNL     1      -6.092   0.873 -19.852  0.00  0.00    +0.000 C 
BRANCH  14  15
ATOM     15  C   UNL     1      -6.770  -0.291 -19.089  0.00  0.00    +0.000 C 
ATOM     16  C   UNL     1      -6.020  -0.698 -17.826  0.00  0.00    +0.000 C 
BRANCH  15  17
ATOM     17  O   UNL     1      -8.111   0.031 -18.721  0.00  0.00    +0.000 OA
ATOM     18  H   UNL     1      -8.395  -0.701 -18.137  0.00  0.00    +0.000 HD
ENDBRANCH  15  17
ENDBRANCH  14  15
ENDBRANCH   1  14
TORSDOF 7
ENDMDL
MODEL 5
REMARK VINA RESULT:    -3.719      1.950      3.385
REMARK INTER + INTRA:          -5.663
REMARK INTER:                  -5.117
REMARK INTRA:                  -0.546
REMARK UNBOUND:                -0.639
REMARK  Name = 
REMARK  10 active torsions:
REMARK  status: ('A' for Active; 'I' for Inactive)
REMARK    1  A    between atoms: C_1  and  C_2
REMARK    2  A    between atoms: C_5  and  N_8
REMARK    3  A    between atoms: N_8  and  C_9
REMARK    4  A    between atoms: N_8  and  C_13
REMARK    5  A    between atoms: C_9  and  C_10
REMARK    6  A    between atoms: C_10  and  C_11
REMARK    7  A    between atoms: C_10  and  O_12
REMARK    8  A    between atoms: C_13  and  C_14
REMARK    9  A    between atoms: C_14  and  C_15
REMARK   10  A    between atoms: C_14  and  O_16
REMARK                            x       y       z     vdW  Elec       q    Type
REMARK                         _______ _______ _______ _____ _____    ______ ____
ROOT
ATOM      1  N   UNL     1      -4.521   0.833 -20.926  0.00  0.00    +0.000 N 
ENDROOT
BRANCH   1   6
ATOM      2  C   UNL     1       0.339  -0.003 -23.927  0.00  0.00    +0.000 C 
ATOM      3  C   UNL     1      -0.935   0.212 -23.170  0.00  0.00    +0.000 A 
ATOM      4  C   UNL     1      -1.405   1.496 -22.914  0.00  0.00    +0.000 A 
ATOM      5  C   UNL     1      -2.585   1.693 -22.177  0.00  0.00    +0.000 A 
ATOM      6  C   UNL     1      -3.335   0.630 -21.643  0.00  0.00    +0.000 A 
ATOM      7  C   UNL     1      -2.832  -0.654 -21.923  0.00  0.00    +0.000 A 
ATOM      8  C   UNL     1      -1.655  -0.865 -22.660  0.00  0.00    +0.000 A 
ENDBRANCH   1   6
BRANCH   1   9
ATOM      9  C   UNL     1      -5.448   1.923 -21.315  0.00  0.00    +0.000 C 
BRANCH   9  10
ATOM     10  C   UNL     1      -6.284   1.579 -22.572  0.00  0.00    +0.000 C 
ATOM     11  C   UNL     1      -6.810   0.150 -22.503  0.00  0.00    +0.000 C 
BRANCH  10  12
ATOM     12  O   UNL     1      -7.408   2.461 -22.700  0.00  0.00    +0.000 OA
ATOM     13  H   UNL     1      -7.224   3.261 -22.180  0.00  0.00    +0.000 HD
ENDBRANCH  10  12
ENDBRANCH   9  10
ENDBRANCH   1   9
BRANCH   1  14
ATOM     14  C   UNL     1      -4.660   0.366 -19.522  0.00  0.00    +0.000 C 
BRANCH  14  15
ATOM     15  C   UNL     1      -5.992   0.828 -18.882  0.00  0.00    +0.000 C 
ATOM     16  C   UNL     1      -7.055  -0.263 -18.858  0.00  0.00    +0.000 C 
BRANCH  15  17
ATOM     17  O   UNL     1      -5.802   1.291 -17.546  0.00  0.00    +0.000 OA
ATOM     18  H   UNL     1      -6.072   0.541 -16.978  0.00  0.00    +0.000 HD
ENDBRANCH  15  17
ENDBRANCH  14  15
ENDBRANCH   1  14
TORSDOF 7
ENDMDL
MODEL 6
REMARK VINA RESULT:    -3.673      2.925      5.642
REMARK INTER + INTRA:          -5.601
REMARK INTER:                  -5.099
REMARK INTRA:                  -0.502
REMARK UNBOUND:                -0.639
REMARK  Name = 
REMARK  10 active torsions:
REMARK  status: ('A' for Active; 'I' for Inactive)
REMARK    1  A    between atoms: C_1  and  C_2
REMARK    2  A    between atoms: C_5  and  N_8
REMARK    3  A    between atoms: N_8  and  C_9
REMARK    4  A    between atoms: N_8  and  C_13
REMARK    5  A    between atoms: C_9  and  C_10
REMARK    6  A    between atoms: C_10  and  C_11
REMARK    7  A    between atoms: C_10  and  O_12
REMARK    8  A    between atoms: C_13  and  C_14
REMARK    9  A    between atoms: C_14  and  C_15
REMARK   10  A    between atoms: C_14  and  O_16
REMARK                            x       y       z     vdW  Elec       q    Type
REMARK                         _______ _______ _______ _____ _____    ______ ____
ROOT
ATOM      1  N   UNL     1      -4.829   2.372 -22.567  0.00  0.00    +0.000 N 
ENDROOT
BRANCH   1   6
ATOM      2  C   UNL     1      -5.852  -0.843 -17.882  0.00  0.00    +0.000 C 
ATOM      3  C   UNL     1      -5.563  -0.006 -19.091  0.00  0.00    +0.000 A 
ATOM      4  C   UNL     1      -5.740   1.373 -19.064  0.00  0.00    +0.000 A 
ATOM      5  C   UNL     1      -5.495   2.149 -20.209  0.00  0.00    +0.000 A 
ATOM      6  C   UNL     1      -5.089   1.590 -21.434  0.00  0.00    +0.000 A 
ATOM      7  C   UNL     1      -4.918   0.194 -21.424  0.00  0.00    +0.000 A 
ATOM      8  C   UNL     1      -5.157  -0.594 -20.285  0.00  0.00    +0.000 A 
ENDBRANCH   1   6
BRANCH   1   9
ATOM      9  C   UNL     1      -5.916   3.165 -23.189  0.00  0.00    +0.000 C 
BRANCH   9  10
ATOM     10  C   UNL     1      -5.657   4.690 -23.127  0.00  0.00    +0.000 C 
ATOM     11  C   UNL     1      -6.755   5.460 -23.851  0.00  0.00    +0.000 C 
BRANCH  10  12
ATOM     12  O   UNL     1      -5.614   5.151 -21.769  0.00  0.00    +0.000 OA
ATOM     13  H   UNL     1      -6.322   4.703 -21.277  0.00  0.00    +0.000 HD
ENDBRANCH  10  12
ENDBRANCH   9  10
ENDBRANCH   1   9
BRANCH   1  14
ATOM     14  C   UNL     1      -3.686   2.067 -23.466  0.00  0.00    +0.000 C 
BRANCH  14  15
ATOM     15  C   UNL     1      -2.334   2.529 -22.870  0.00  0.00    +0.000 C 
ATOM     16  C   UNL     1      -1.271   1.438 -22.879  0.00  0.00    +0.000 C 
BRANCH  15  17
ATOM     17  O   UNL     1      -1.812   3.660 -23.565  0.00  0.00    +0.000 OA
ATOM     18  H   UNL     1      -2.591   4.089 -23.973  0.00  0.00    +0.000 HD
ENDBRANCH  15  17
ENDBRANCH  14  15
ENDBRANCH   1  14
TORSDOF 7
ENDMDL
MODEL 7
REMARK VINA RESULT:    -3.615      2.916      5.488
REMARK INTER + INTRA:          -5.523
REMARK INTER:                  -5.293
REMARK INTRA:                  -0.230
REMARK UNBOUND:                -0.639
REMARK  Name = 
REMARK  10 active torsions:
REMARK  status: ('A' for Active; 'I' for Inactive)
REMARK    1  A    between atoms: C_1  and  C_2
REMARK    2  A    between atoms: C_5  and  N_8
REMARK    3  A    between atoms: N_8  and  C_9
REMARK    4  A    between atoms: N_8  and  C_13
REMARK    5  A    between atoms: C_9  and  C_10
REMARK    6  A    between atoms: C_10  and  C_11
REMARK    7  A    between atoms: C_10  and  O_12
REMARK    8  A    between atoms: C_13  and  C_14
REMARK    9  A    between atoms: C_14  and  C_15
REMARK   10  A    between atoms: C_14  and  O_16
REMARK                            x       y       z     vdW  Elec       q    Type
REMARK                         _______ _______ _______ _____ _____    ______ ____
ROOT
ATOM      1  N   UNL     1      -4.460   2.266 -22.228  0.00  0.00    +0.000 N 
ENDROOT
BRANCH   1   6
ATOM      2  C   UNL     1      -6.006  -0.855 -17.625  0.00  0.00    +0.000 C 
ATOM      3  C   UNL     1      -5.629  -0.046 -18.828  0.00  0.00    +0.000 A 
ATOM      4  C   UNL     1      -5.182  -0.662 -19.992  0.00  0.00    +0.000 A 
ATOM      5  C   UNL     1      -4.800   0.104 -21.106  0.00  0.00    +0.000 A 
ATOM      6  C   UNL     1      -4.823   1.510 -21.107  0.00  0.00    +0.000 A 
ATOM      7  C   UNL     1      -5.282   2.099 -19.914  0.00  0.00    +0.000 A 
ATOM      8  C   UNL     1      -5.668   1.345 -18.794  0.00  0.00    +0.000 A 
ENDBRANCH   1   6
BRANCH   1   9
ATOM      9  C   UNL     1      -5.185   3.520 -22.547  0.00  0.00    +0.000 C 
BRANCH   9  10
ATOM     10  C   UNL     1      -6.244   3.333 -23.661  0.00  0.00    +0.000 C 
ATOM     11  C   UNL     1      -7.232   2.232 -23.296  0.00  0.00    +0.000 C 
BRANCH  10  12
ATOM     12  O   UNL     1      -6.986   4.543 -23.873  0.00  0.00    +0.000 OA
ATOM     13  H   UNL     1      -7.870   4.426 -23.486  0.00  0.00    +0.000 HD
ENDBRANCH  10  12
ENDBRANCH   9  10
ENDBRANCH   1   9
BRANCH   1  14
ATOM     14  C   UNL     1      -3.751   1.646 -23.377  0.00  0.00    +0.000 C 
BRANCH  14  15
ATOM     15  C   UNL     1      -2.220   1.861 -23.304  0.00  0.00    +0.000 C 
ATOM     16  C   UNL     1      -1.806   3.311 -23.524  0.00  0.00    +0.000 C 
BRANCH  15  17
ATOM     17  O   UNL     1      -1.688   1.435 -22.050  0.00  0.00    +0.000 OA
ATOM     18  H   UNL     1      -2.286   1.819 -21.378  0.00  0.00    +0.000 HD
ENDBRANCH  15  17
ENDBRANCH  14  15
ENDBRANCH   1  14
TORSDOF 7
ENDMDL
MODEL 8
REMARK VINA RESULT:    -3.598      2.206      4.635
REMARK INTER + INTRA:          -5.499
REMARK INTER:                  -4.943
REMARK INTRA:                  -0.556
REMARK UNBOUND:                -0.639
REMARK  Name = 
REMARK  10 active torsions:
REMARK  status: ('A' for Active; 'I' for Inactive)
REMARK    1  A    between atoms: C_1  and  C_2
REMARK    2  A    between atoms: C_5  and  N_8
REMARK    3  A    between atoms: N_8  and  C_9
REMARK    4  A    between atoms: N_8  and  C_13
REMARK    5  A    between atoms: C_9  and  C_10
REMARK    6  A    between atoms: C_10  and  C_11
REMARK    7  A    between atoms: C_10  and  O_12
REMARK    8  A    between atoms: C_13  and  C_14
REMARK    9  A    between atoms: C_14  and  C_15
REMARK   10  A    between atoms: C_14  and  O_16
REMARK                            x       y       z     vdW  Elec       q    Type
REMARK                         _______ _______ _______ _____ _____    ______ ____
ROOT
ATOM      1  N   UNL     1      -5.203   0.227 -20.690  0.00  0.00    +0.000 N 
ENDROOT
BRANCH   1   6
ATOM      2  C   UNL     1     -10.354   0.474 -23.285  0.00  0.00    +0.000 C 
ATOM      3  C   UNL     1      -9.026   0.426 -22.594  0.00  0.00    +0.000 A 
ATOM      4  C   UNL     1      -8.004   1.299 -22.950  0.00  0.00    +0.000 A 
ATOM      5  C   UNL     1      -6.750   1.229 -22.320  0.00  0.00    +0.000 A 
ATOM      6  C   UNL     1      -6.449   0.278 -21.328  0.00  0.00    +0.000 A 
ATOM      7  C   UNL     1      -7.506  -0.587 -20.992  0.00  0.00    +0.000 A 
ATOM      8  C   UNL     1      -8.765  -0.527 -21.613  0.00  0.00    +0.000 A 
ENDBRANCH   1   6
BRANCH   1   9
ATOM      9  C   UNL     1      -4.655   1.437 -20.032  0.00  0.00    +0.000 C 
BRANCH   9  10
ATOM     10  C   UNL     1      -5.510   1.906 -18.829  0.00  0.00    +0.000 C 
ATOM     11  C   UNL     1      -5.544   0.842 -17.738  0.00  0.00    +0.000 C 
BRANCH  10  12
ATOM     12  O   UNL     1      -4.980   3.111 -18.259  0.00  0.00    +0.000 OA
ATOM     13  H   UNL     1      -4.391   2.864 -17.526  0.00  0.00    +0.000 HD
ENDBRANCH  10  12
ENDBRANCH   9  10
ENDBRANCH   1   9
BRANCH   1  14
ATOM     14  C   UNL     1      -4.191  -0.795 -21.061  0.00  0.00    +0.000 C 
BRANCH  14  15
ATOM     15  C   UNL     1      -3.023  -0.192 -21.877  0.00  0.00    +0.000 C 
ATOM     16  C   UNL     1      -1.869  -1.166 -22.083  0.00  0.00    +0.000 C 
BRANCH  15  17
ATOM     17  O   UNL     1      -3.454   0.260 -23.160  0.00  0.00    +0.000 OA
ATOM     18  H   UNL     1      -4.432   0.249 -23.116  0.00  0.00    +0.000 HD
ENDBRANCH  15  17
ENDBRANCH  14  15
ENDBRANCH   1  14
TORSDOF 7
ENDMDL
MODEL 9
REMARK VINA RESULT:    -3.469     19.132     21.550
REMARK INTER + INTRA:          -5.325
REMARK INTER:                  -4.796
REMARK INTRA:                  -0.529
REMARK UNBOUND:                -0.639
REMARK  Name = 
REMARK  10 active torsions:
REMARK  status: ('A' for Active; 'I' for Inactive)
REMARK    1  A    between atoms: C_1  and  C_2
REMARK    2  A    between atoms: C_5  and  N_8
REMARK    3  A    between atoms: N_8  and  C_9
REMARK    4  A    between atoms: N_8  and  C_13
REMARK    5  A    between atoms: C_9  and  C_10
REMARK    6  A    between atoms: C_10  and  C_11
REMARK    7  A    between atoms: C_10  and  O_12
REMARK    8  A    between atoms: C_13  and  C_14
REMARK    9  A    between atoms: C_14  and  C_15
REMARK   10  A    between atoms: C_14  and  O_16
REMARK                            x       y       z     vdW  Elec       q    Type
REMARK                         _______ _______ _______ _____ _____    ______ ____
ROOT
ATOM      1  N   UNL     1       7.193  17.924 -19.826  0.00  0.00    +0.000 N 
ENDROOT
BRANCH   1   6
ATOM      2  C   UNL     1      11.401  14.110 -20.865  0.00  0.00    +0.000 C 
ATOM      3  C   UNL     1      10.306  15.103 -20.620  0.00  0.00    +0.000 A 
ATOM      4  C   UNL     1      10.587  16.458 -20.486  0.00  0.00    +0.000 A 
ATOM      5  C   UNL     1       9.559  17.380 -20.227  0.00  0.00    +0.000 A 
ATOM      6  C   UNL     1       8.216  16.997 -20.065  0.00  0.00    +0.000 A 
ATOM      7  C   UNL     1       7.968  15.619 -20.209  0.00  0.00    +0.000 A 
ATOM      8  C   UNL     1       8.986  14.687 -20.471  0.00  0.00    +0.000 A 
ENDBRANCH   1   6
BRANCH   1   9
ATOM      9  C   UNL     1       5.776  17.536 -20.026  0.00  0.00    +0.000 C 
BRANCH   9  10
ATOM     10  C   UNL     1       4.984  17.450 -18.699  0.00  0.00    +0.000 C 
ATOM     11  C   UNL     1       3.544  17.018 -18.950  0.00  0.00    +0.000 C 
BRANCH  10  12
ATOM     12  O   UNL     1       5.582  16.502 -17.803  0.00  0.00    +0.000 OA
ATOM     13  H   UNL     1       5.255  15.618 -18.037  0.00  0.00    +0.000 HD
ENDBRANCH  10  12
ENDBRANCH   9  10
ENDBRANCH   1   9
BRANCH   1  14
ATOM     14  C   UNL     1       7.454  19.385 -19.876  0.00  0.00    +0.000 C 
BRANCH  14  15
ATOM     15  C   UNL     1       7.645  19.993 -18.465  0.00  0.00    +0.000 C 
ATOM     16  C   UNL     1       8.871  20.894 -18.362  0.00  0.00    +0.000 C 
BRANCH  15  17
ATOM     17  O   UNL     1       6.506  20.749 -18.058  0.00  0.00    +0.000 OA
ATOM     18  H   UNL     1       6.866  21.611 -17.766  0.00  0.00    +0.000 HD
ENDBRANCH  15  17
ENDBRANCH  14  15
ENDBRANCH   1  14
TORSDOF 7
ENDMDL
