MODEL 1
REMARK VINA RESULT:    -5.363      0.000      0.000
REMARK INTER + INTRA:          -7.892
REMARK INTER:                  -7.244
REMARK INTRA:                  -0.649
REMARK UNBOUND:                -0.649
REMARK  Name = 
REMARK  10 active torsions:
REMARK  status: ('A' for Active; 'I' for Inactive)
REMARK    1  A    between atoms: C_1  and  C_2
REMARK    2  A    between atoms: C_5  and  N_8
REMARK    3  A    between atoms: N_8  and  C_9
REMARK    4  A    between atoms: N_8  and  C_13
REMARK    5  A    between atoms: C_9  and  C_10
REMARK    6  A    between atoms: C_10  and  C_11
REMARK    7  A    between atoms: C_10  and  O_12
REMARK    8  A    between atoms: C_13  and  C_14
REMARK    9  A    between atoms: C_14  and  C_15
REMARK   10  A    between atoms: C_14  and  O_16
REMARK                            x       y       z     vdW  Elec       q    Type
REMARK                         _______ _______ _______ _____ _____    ______ ____
ROOT
ATOM      1  N   UNL     1       2.935  14.346  -1.218  0.00  0.00    +0.000 N 
ENDROOT
BRANCH   1   6
ATOM      2  C   UNL     1      -1.106  17.916   0.845  0.00  0.00    +0.000 C 
ATOM      3  C   UNL     1      -0.042  17.009   0.305  0.00  0.00    +0.000 A 
ATOM      4  C   UNL     1      -0.028  16.645  -1.037  0.00  0.00    +0.000 A 
ATOM      5  C   UNL     1       0.954  15.771  -1.531  0.00  0.00    +0.000 A 
ATOM      6  C   UNL     1       1.948  15.202  -0.715  0.00  0.00    +0.000 A 
ATOM      7  C   UNL     1       1.904  15.594   0.636  0.00  0.00    +0.000 A 
ATOM      8  C   UNL     1       0.929  16.469   1.143  0.00  0.00    +0.000 A 
ENDBRANCH   1   6
BRANCH   1   9
ATOM      9  C   UNL     1       4.341  14.486  -0.767  0.00  0.00    +0.000 C 
BRANCH   9  10
ATOM     10  C   UNL     1       4.959  15.854  -1.147  0.00  0.00    +0.000 C 
ATOM     11  C   UNL     1       5.789  16.415   0.002  0.00  0.00    +0.000 C 
BRANCH  10  12
ATOM     12  O   UNL     1       5.813  15.733  -2.293  0.00  0.00    +0.000 OA
ATOM     13  H   UNL     1       6.389  14.962  -2.159  0.00  0.00    +0.000 HD
ENDBRANCH  10  12
ENDBRANCH   9  10
ENDBRANCH   1   9
BRANCH   1  14
ATOM     14  C   UNL     1       2.764  13.659  -2.524  0.00  0.00    +0.000 C 
BRANCH  14  15
ATOM     15  C   UNL     1       4.006  12.820  -2.910  0.00  0.00    +0.000 C 
ATOM     16  C   UNL     1       3.670  11.371  -3.244  0.00  0.00    +0.000 C 
BRANCH  15  17
ATOM     17  O   UNL     1       4.697  13.382  -4.024  0.00  0.00    +0.000 OA
ATOM     18  H   UNL     1       4.364  12.890  -4.802  0.00  0.00    +0.000 HD
ENDBRANCH  15  17
ENDBRANCH  14  15
ENDBRANCH   1  14
TORSDOF 7
ENDMDL
MODEL 2
REMARK VINA RESULT:    -5.267     12.125     13.807
REMARK INTER + INTRA:          -7.763
REMARK INTER:                  -7.518
REMARK INTRA:                  -0.245
REMARK UNBOUND:                -0.649
REMARK  Name = 
REMARK  10 active torsions:
REMARK  status: ('A' for Active; 'I' for Inactive)
REMARK    1  A    between atoms: C_1  and  C_2
REMARK    2  A    between atoms: C_5  and  N_8
REMARK    3  A    between atoms: N_8  and  C_9
REMARK    4  A    between atoms: N_8  and  C_13
REMARK    5  A    between atoms: C_9  and  C_10
REMARK    6  A    between atoms: C_10  and  C_11
REMARK    7  A    between atoms: C_10  and  O_12
REMARK    8  A    between atoms: C_13  and  C_14
REMARK    9  A    between atoms: C_14  and  C_15
REMARK   10  A    between atoms: C_14  and  O_16
REMARK                            x       y       z     vdW  Elec       q    Type
REMARK                         _______ _______ _______ _____ _____    ______ ____
ROOT
ATOM      1  N   UNL     1      -1.139  15.883 -13.123  0.00  0.00    +0.000 N 
ENDROOT
BRANCH   1   6
ATOM      2  C   UNL     1      -3.442  11.525 -16.128  0.00  0.00    +0.000 C 
ATOM      3  C   UNL     1      -2.850  12.643 -15.327  0.00  0.00    +0.000 A 
ATOM      4  C   UNL     1      -3.628  13.723 -14.923  0.00  0.00    +0.000 A 
ATOM      5  C   UNL     1      -3.060  14.784 -14.199  0.00  0.00    +0.000 A 
ATOM      6  C   UNL     1      -1.695  14.832 -13.863  0.00  0.00    +0.000 A 
ATOM      7  C   UNL     1      -0.939  13.723 -14.286  0.00  0.00    +0.000 A 
ATOM      8  C   UNL     1      -1.495  12.655 -15.009  0.00  0.00    +0.000 A 
ENDBRANCH   1   6
BRANCH   1   9
ATOM      9  C   UNL     1      -0.208  16.838 -13.772  0.00  0.00    +0.000 C 
BRANCH   9  10
ATOM     10  C   UNL     1       1.201  16.239 -14.003  0.00  0.00    +0.000 C 
ATOM     11  C   UNL     1       1.720  16.588 -15.393  0.00  0.00    +0.000 C 
BRANCH  10  12
ATOM     12  O   UNL     1       2.138  16.741 -13.040  0.00  0.00    +0.000 OA
ATOM     13  H   UNL     1       2.714  17.383 -13.487  0.00  0.00    +0.000 HD
ENDBRANCH  10  12
ENDBRANCH   9  10
ENDBRANCH   1   9
BRANCH   1  14
ATOM     14  C   UNL     1      -1.024  15.806 -11.645  0.00  0.00    +0.000 C 
BRANCH  14  15
ATOM     15  C   UNL     1      -2.299  16.317 -10.932  0.00  0.00    +0.000 C 
ATOM     16  C   UNL     1      -2.403  15.853  -9.484  0.00  0.00    +0.000 C 
BRANCH  15  17
ATOM     17  O   UNL     1      -2.375  17.742 -10.945  0.00  0.00    +0.000 OA
ATOM     18  H   UNL     1      -3.187  17.956 -10.443  0.00  0.00    +0.000 HD
ENDBRANCH  15  17
ENDBRANCH  14  15
ENDBRANCH   1  14
TORSDOF 7
ENDMDL
MODEL 3
REMARK VINA RESULT:    -5.265     12.349     13.919
REMARK INTER + INTRA:          -7.760
REMARK INTER:                  -7.447
REMARK INTRA:                  -0.313
REMARK UNBOUND:                -0.649
REMARK  Name = 
REMARK  10 active torsions:
REMARK  status: ('A' for Active; 'I' for Inactive)
REMARK    1  A    between atoms: C_1  and  C_2
REMARK    2  A    between atoms: C_5  and  N_8
REMARK    3  A    between atoms: N_8  and  C_9
REMARK    4  A    between atoms: N_8  and  C_13
REMARK    5  A    between atoms: C_9  and  C_10
REMARK    6  A    between atoms: C_10  and  C_11
REMARK    7  A    between atoms: C_10  and  O_12
REMARK    8  A    between atoms: C_13  and  C_14
REMARK    9  A    between atoms: C_14  and  C_15
REMARK   10  A    between atoms: C_14  and  O_16
REMARK                            x       y       z     vdW  Elec       q    Type
REMARK                         _______ _______ _______ _____ _____    ______ ____
ROOT
ATOM      1  N   UNL     1      -0.665  15.764 -13.443  0.00  0.00    +0.000 N 
ENDROOT
BRANCH   1   6
ATOM      2  C   UNL     1      -3.965  11.624 -15.744  0.00  0.00    +0.000 C 
ATOM      3  C   UNL     1      -3.105  12.707 -15.169  0.00  0.00    +0.000 A 
ATOM      4  C   UNL     1      -1.744  12.506 -14.965  0.00  0.00    +0.000 A 
ATOM      5  C   UNL     1      -0.948  13.514 -14.398  0.00  0.00    +0.000 A 
ATOM      6  C   UNL     1      -1.469  14.755 -13.989  0.00  0.00    +0.000 A 
ATOM      7  C   UNL     1      -2.847  14.925 -14.213  0.00  0.00    +0.000 A 
ATOM      8  C   UNL     1      -3.655  13.925 -14.780  0.00  0.00    +0.000 A 
ENDBRANCH   1   6
BRANCH   1   9
ATOM      9  C   UNL     1      -0.457  15.836 -11.976  0.00  0.00    +0.000 C 
BRANCH   9  10
ATOM     10  C   UNL     1      -1.764  16.127 -11.199  0.00  0.00    +0.000 C 
ATOM     11  C   UNL     1      -1.635  15.705  -9.740  0.00  0.00    +0.000 C 
BRANCH  10  12
ATOM     12  O   UNL     1      -2.082  17.525 -11.230  0.00  0.00    +0.000 OA
ATOM     13  H   UNL     1      -1.990  17.876 -10.329  0.00  0.00    +0.000 HD
ENDBRANCH  10  12
ENDBRANCH   9  10
ENDBRANCH   1   9
BRANCH   1  14
ATOM     14  C   UNL     1      -0.429  17.037 -14.170  0.00  0.00    +0.000 C 
BRANCH  14  15
ATOM     15  C   UNL     1       1.063  17.233 -14.536  0.00  0.00    +0.000 C 
ATOM     16  C   UNL     1       1.744  15.945 -14.983  0.00  0.00    +0.000 C 
BRANCH  15  17
ATOM     17  O   UNL     1       1.229  18.203 -15.569  0.00  0.00    +0.000 OA
ATOM     18  H   UNL     1       0.364  18.654 -15.634  0.00  0.00    +0.000 HD
ENDBRANCH  15  17
ENDBRANCH  14  15
ENDBRANCH   1  14
TORSDOF 7
ENDMDL
MODEL 4
REMARK VINA RESULT:    -5.206     12.519     13.687
REMARK INTER + INTRA:          -7.680
REMARK INTER:                  -7.204
REMARK INTRA:                  -0.476
REMARK UNBOUND:                -0.649
REMARK  Name = 
REMARK  10 active torsions:
REMARK  status: ('A' for Active; 'I' for Inactive)
REMARK    1  A    between atoms: C_1  and  C_2
REMARK    2  A    between atoms: C_5  and  N_8
REMARK    3  A    between atoms: N_8  and  C_9
REMARK    4  A    between atoms: N_8  and  C_13
REMARK    5  A    between atoms: C_9  and  C_10
REMARK    6  A    between atoms: C_10  and  C_11
REMARK    7  A    between atoms: C_10  and  O_12
REMARK    8  A    between atoms: C_13  and  C_14
REMARK    9  A    between atoms: C_14  and  C_15
REMARK   10  A    between atoms: C_14  and  O_16
REMARK                            x       y       z     vdW  Elec       q    Type
REMARK                         _______ _______ _______ _____ _____    ______ ____
ROOT
ATOM      1  N   UNL     1       0.379  15.902 -14.730  0.00  0.00    +0.000 N 
ENDROOT
BRANCH   1   6
ATOM      2  C   UNL     1      -2.550  16.154  -9.761  0.00  0.00    +0.000 C 
ATOM      3  C   UNL     1      -1.797  16.064 -11.053  0.00  0.00    +0.000 A 
ATOM      4  C   UNL     1      -0.443  15.745 -11.070  0.00  0.00    +0.000 A 
ATOM      5  C   UNL     1       0.266  15.693 -12.281  0.00  0.00    +0.000 A 
ATOM      6  C   UNL     1      -0.329  15.976 -13.524  0.00  0.00    +0.000 A 
ATOM      7  C   UNL     1      -1.699  16.292 -13.469  0.00  0.00    +0.000 A 
ATOM      8  C   UNL     1      -2.420  16.346 -12.265  0.00  0.00    +0.000 A 
ENDBRANCH   1   6
BRANCH   1   9
ATOM      9  C   UNL     1       0.104  16.876 -15.814  0.00  0.00    +0.000 C 
BRANCH   9  10
ATOM     10  C   UNL     1       1.394  17.410 -16.482  0.00  0.00    +0.000 C 
ATOM     11  C   UNL     1       1.305  17.307 -18.000  0.00  0.00    +0.000 C 
BRANCH  10  12
ATOM     12  O   UNL     1       1.618  18.786 -16.142  0.00  0.00    +0.000 OA
ATOM     13  H   UNL     1       2.577  18.941 -16.130  0.00  0.00    +0.000 HD
ENDBRANCH  10  12
ENDBRANCH   9  10
ENDBRANCH   1   9
BRANCH   1  14
ATOM     14  C   UNL     1       1.008  14.633 -15.176  0.00  0.00    +0.000 C 
BRANCH  14  15
ATOM     15  C   UNL     1      -0.032  13.623 -15.717  0.00  0.00    +0.000 C 
ATOM     16  C   UNL     1       0.127  13.336 -17.205  0.00  0.00    +0.000 C 
BRANCH  15  17
ATOM     17  O   UNL     1       0.027  12.380 -15.019  0.00  0.00    +0.000 OA
ATOM     18  H   UNL     1      -0.283  11.713 -15.664  0.00  0.00    +0.000 HD
ENDBRANCH  15  17
ENDBRANCH  14  15
ENDBRANCH   1  14
TORSDOF 7
ENDMDL
MODEL 5
REMARK VINA RESULT:    -5.181      0.773      3.132
REMARK INTER + INTRA:          -7.647
REMARK INTER:                  -7.169
REMARK INTRA:                  -0.478
REMARK UNBOUND:                -0.649
REMARK  Name = 
REMARK  10 active torsions:
REMARK  status: ('A' for Active; 'I' for Inactive)
REMARK    1  A    between atoms: C_1  and  C_2
REMARK    2  A    between atoms: C_5  and  N_8
REMARK    3  A    between atoms: N_8  and  C_9
REMARK    4  A    between atoms: N_8  and  C_13
REMARK    5  A    between atoms: C_9  and  C_10
REMARK    6  A    between atoms: C_10  and  C_11
REMARK    7  A    between atoms: C_10  and  O_12
REMARK    8  A    between atoms: C_13  and  C_14
REMARK    9  A    between atoms: C_14  and  C_15
REMARK   10  A    between atoms: C_14  and  O_16
REMARK                            x       y       z     vdW  Elec       q    Type
REMARK                         _______ _______ _______ _____ _____    ______ ____
ROOT
ATOM      1  N   UNL     1       3.018  14.428  -0.894  0.00  0.00    +0.000 N 
ENDROOT
BRANCH   1   6
ATOM      2  C   UNL     1      -1.328  17.923   0.598  0.00  0.00    +0.000 C 
ATOM      3  C   UNL     1      -0.186  17.036   0.205  0.00  0.00    +0.000 A 
ATOM      4  C   UNL     1      -0.086  16.531  -1.088  0.00  0.00    +0.000 A 
ATOM      5  C   UNL     1       0.970  15.676  -1.442  0.00  0.00    +0.000 A 
ATOM      6  C   UNL     1       1.957  15.265  -0.528  0.00  0.00    +0.000 A 
ATOM      7  C   UNL     1       1.825  15.796   0.768  0.00  0.00    +0.000 A 
ATOM      8  C   UNL     1       0.776  16.654   1.136  0.00  0.00    +0.000 A 
ENDBRANCH   1   6
BRANCH   1   9
ATOM      9  C   UNL     1       2.755  13.023  -1.290  0.00  0.00    +0.000 C 
BRANCH   9  10
ATOM     10  C   UNL     1       3.358  12.665  -2.670  0.00  0.00    +0.000 C 
ATOM     11  C   UNL     1       3.917  11.247  -2.669  0.00  0.00    +0.000 C 
BRANCH  10  12
ATOM     12  O   UNL     1       2.367  12.752  -3.703  0.00  0.00    +0.000 OA
ATOM     13  H   UNL     1       2.199  13.692  -3.881  0.00  0.00    +0.000 HD
ENDBRANCH  10  12
ENDBRANCH   9  10
ENDBRANCH   1   9
BRANCH   1  14
ATOM     14  C   UNL     1       4.404  14.696  -0.431  0.00  0.00    +0.000 C 
BRANCH  14  15
ATOM     15  C   UNL     1       4.987  15.989  -1.051  0.00  0.00    +0.000 C 
ATOM     16  C   UNL     1       5.860  16.777  -0.083  0.00  0.00    +0.000 C 
BRANCH  15  17
ATOM     17  O   UNL     1       5.760  15.712  -2.218  0.00  0.00    +0.000 OA
ATOM     18  H   UNL     1       5.527  14.794  -2.464  0.00  0.00    +0.000 HD
ENDBRANCH  15  17
ENDBRANCH  14  15
ENDBRANCH   1  14
TORSDOF 7
ENDMDL
MODEL 6
REMARK VINA RESULT:    -5.140     12.339     13.724
REMARK INTER + INTRA:          -7.592
REMARK INTER:                  -7.139
REMARK INTRA:                  -0.453
REMARK UNBOUND:                -0.649
REMARK  Name = 
REMARK  10 active torsions:
REMARK  status: ('A' for Active; 'I' for Inactive)
REMARK    1  A    between atoms: C_1  and  C_2
REMARK    2  A    between atoms: C_5  and  N_8
REMARK    3  A    between atoms: N_8  and  C_9
REMARK    4  A    between atoms: N_8  and  C_13
REMARK    5  A    between atoms: C_9  and  C_10
REMARK    6  A    between atoms: C_10  and  C_11
REMARK    7  A    between atoms: C_10  and  O_12
REMARK    8  A    between atoms: C_13  and  C_14
REMARK    9  A    between atoms: C_14  and  C_15
REMARK   10  A    between atoms: C_14  and  O_16
REMARK                            x       y       z     vdW  Elec       q    Type
REMARK                         _______ _______ _______ _____ _____    ______ ____
ROOT
ATOM      1  N   UNL     1      -1.176  15.523 -15.013  0.00  0.00    +0.000 N 
ENDROOT
BRANCH   1   6
ATOM      2  C   UNL     1      -2.546  16.101  -9.435  0.00  0.00    +0.000 C 
ATOM      3  C   UNL     1      -2.189  15.976 -10.884  0.00  0.00    +0.000 A 
ATOM      4  C   UNL     1      -3.177  15.925 -11.862  0.00  0.00    +0.000 A 
ATOM      5  C   UNL     1      -2.837  15.778 -13.217  0.00  0.00    +0.000 A 
ATOM      6  C   UNL     1      -1.508  15.650 -13.659  0.00  0.00    +0.000 A 
ATOM      7  C   UNL     1      -0.536  15.708 -12.644  0.00  0.00    +0.000 A 
ATOM      8  C   UNL     1      -0.862  15.857 -11.285  0.00  0.00    +0.000 A 
ENDBRANCH   1   6
BRANCH   1   9
ATOM      9  C   UNL     1      -1.484  14.267 -15.739  0.00  0.00    +0.000 C 
BRANCH   9  10
ATOM     10  C   UNL     1      -1.346  13.009 -14.847  0.00  0.00    +0.000 C 
ATOM     11  C   UNL     1      -2.417  11.979 -15.189  0.00  0.00    +0.000 C 
BRANCH  10  12
ATOM     12  O   UNL     1      -0.064  12.392 -15.022  0.00  0.00    +0.000 OA
ATOM     13  H   UNL     1      -0.184  11.594 -15.563  0.00  0.00    +0.000 HD
ENDBRANCH  10  12
ENDBRANCH   9  10
ENDBRANCH   1   9
BRANCH   1  14
ATOM     14  C   UNL     1      -0.102  16.349 -15.622  0.00  0.00    +0.000 C 
BRANCH  14  15
ATOM     15  C   UNL     1       1.102  15.494 -16.084  0.00  0.00    +0.000 C 
ATOM     16  C   UNL     1       1.398  15.628 -17.573  0.00  0.00    +0.000 C 
BRANCH  15  17
ATOM     17  O   UNL     1       2.290  15.825 -15.367  0.00  0.00    +0.000 OA
ATOM     18  H   UNL     1       2.243  15.299 -14.543  0.00  0.00    +0.000 HD
ENDBRANCH  15  17
ENDBRANCH  14  15
ENDBRANCH   1  14
TORSDOF 7
ENDMDL
MODEL 7
REMARK VINA RESULT:    -5.073      2.605      3.637
REMARK INTER + INTRA:          -7.502
REMARK INTER:                  -6.939
REMARK INTRA:                  -0.563
REMARK UNBOUND:                -0.649
REMARK  Name = 
REMARK  10 active torsions:
REMARK  status: ('A' for Active; 'I' for Inactive)
REMARK    1  A    between atoms: C_1  and  C_2
REMARK    2  A    between atoms: C_5  and  N_8
REMARK    3  A    between atoms: N_8  and  C_9
REMARK    4  A    between atoms: N_8  and  C_13
REMARK    5  A    between atoms: C_9  and  C_10
REMARK    6  A    between atoms: C_10  and  C_11
REMARK    7  A    between atoms: C_10  and  O_12
REMARK    8  A    between atoms: C_13  and  C_14
REMARK    9  A    between atoms: C_14  and  C_15
REMARK   10  A    between atoms: C_14  and  O_16
REMARK                            x       y       z     vdW  Elec       q    Type
REMARK                         _______ _______ _______ _____ _____    ______ ____
ROOT
ATOM      1  N   UNL     1       3.268  14.512  -1.983  0.00  0.00    +0.000 N 
ENDROOT
BRANCH   1   6
ATOM      2  C   UNL     1       3.609  19.707  -4.477  0.00  0.00    +0.000 C 
ATOM      3  C   UNL     1       3.530  18.369  -3.809  0.00  0.00    +0.000 A 
ATOM      4  C   UNL     1       4.583  17.464  -3.894  0.00  0.00    +0.000 A 
ATOM      5  C   UNL     1       4.491  16.199  -3.291  0.00  0.00    +0.000 A 
ATOM      6  C   UNL     1       3.345  15.768  -2.599  0.00  0.00    +0.000 A 
ATOM      7  C   UNL     1       2.301  16.709  -2.531  0.00  0.00    +0.000 A 
ATOM      8  C   UNL     1       2.381  17.978  -3.128  0.00  0.00    +0.000 A 
ENDBRANCH   1   6
BRANCH   1   9
ATOM      9  C   UNL     1       4.097  14.217  -0.790  0.00  0.00    +0.000 C 
BRANCH   9  10
ATOM     10  C   UNL     1       3.340  14.452   0.540  0.00  0.00    +0.000 C 
ATOM     11  C   UNL     1       3.525  15.885   1.027  0.00  0.00    +0.000 C 
BRANCH  10  12
ATOM     12  O   UNL     1       1.934  14.215   0.381  0.00  0.00    +0.000 OA
ATOM     13  H   UNL     1       1.459  15.004   0.691  0.00  0.00    +0.000 HD
ENDBRANCH  10  12
ENDBRANCH   9  10
ENDBRANCH   1   9
BRANCH   1  14
ATOM     14  C   UNL     1       2.803  13.316  -2.731  0.00  0.00    +0.000 C 
BRANCH  14  15
ATOM     15  C   UNL     1       3.979  12.434  -3.212  0.00  0.00    +0.000 C 
ATOM     16  C   UNL     1       3.666  10.943  -3.174  0.00  0.00    +0.000 C 
BRANCH  15  17
ATOM     17  O   UNL     1       4.379  12.767  -4.541  0.00  0.00    +0.000 OA
ATOM     18  H   UNL     1       5.276  12.390  -4.637  0.00  0.00    +0.000 HD
ENDBRANCH  15  17
ENDBRANCH  14  15
ENDBRANCH   1  14
TORSDOF 7
ENDMDL
MODEL 8
REMARK VINA RESULT:    -5.046      2.512      4.576
REMARK INTER + INTRA:          -7.465
REMARK INTER:                  -6.964
REMARK INTRA:                  -0.501
REMARK UNBOUND:                -0.649
REMARK  Name = 
REMARK  10 active torsions:
REMARK  status: ('A' for Active; 'I' for Inactive)
REMARK    1  A    between atoms: C_1  and  C_2
REMARK    2  A    between atoms: C_5  and  N_8
REMARK    3  A    between atoms: N_8  and  C_9
REMARK    4  A    between atoms: N_8  and  C_13
REMARK    5  A    between atoms: C_9  and  C_10
REMARK    6  A    between atoms: C_10  and  C_11
REMARK    7  A    between atoms: C_10  and  O_12
REMARK    8  A    between atoms: C_13  and  C_14
REMARK    9  A    between atoms: C_14  and  C_15
REMARK   10  A    between atoms: C_14  and  O_16
REMARK                            x       y       z     vdW  Elec       q    Type
REMARK                         _______ _______ _______ _____ _____    ______ ____
ROOT
ATOM      1  N   UNL     1       2.898  14.556  -2.082  0.00  0.00    +0.000 N 
ENDROOT
BRANCH   1   6
ATOM      2  C   UNL     1       4.015  19.689  -4.478  0.00  0.00    +0.000 C 
ATOM      3  C   UNL     1       3.716  18.349  -3.878  0.00  0.00    +0.000 A 
ATOM      4  C   UNL     1       2.507  18.109  -3.233  0.00  0.00    +0.000 A 
ATOM      5  C   UNL     1       2.244  16.860  -2.646  0.00  0.00    +0.000 A 
ATOM      6  C   UNL     1       3.175  15.805  -2.652  0.00  0.00    +0.000 A 
ATOM      7  C   UNL     1       4.385  16.083  -3.314  0.00  0.00    +0.000 A 
ATOM      8  C   UNL     1       4.660  17.326  -3.907  0.00  0.00    +0.000 A 
ENDBRANCH   1   6
BRANCH   1   9
ATOM      9  C   UNL     1       2.702  13.370  -2.949  0.00  0.00    +0.000 C 
BRANCH   9  10
ATOM     10  C   UNL     1       3.962  12.474  -3.034  0.00  0.00    +0.000 C 
ATOM     11  C   UNL     1       3.765  11.182  -2.249  0.00  0.00    +0.000 C 
BRANCH  10  12
ATOM     12  O   UNL     1       4.257  12.127  -4.394  0.00  0.00    +0.000 OA
ATOM     13  H   UNL     1       4.367  11.163  -4.442  0.00  0.00    +0.000 HD
ENDBRANCH  10  12
ENDBRANCH   9  10
ENDBRANCH   1   9
BRANCH   1  14
ATOM     14  C   UNL     1       2.298  14.446  -0.727  0.00  0.00    +0.000 C 
BRANCH  14  15
ATOM     15  C   UNL     1       3.347  14.639   0.394  0.00  0.00    +0.000 C 
ATOM     16  C   UNL     1       2.725  14.796   1.776  0.00  0.00    +0.000 C 
BRANCH  15  17
ATOM     17  O   UNL     1       4.270  13.553   0.446  0.00  0.00    +0.000 OA
ATOM     18  H   UNL     1       4.598  13.455  -0.471  0.00  0.00    +0.000 HD
ENDBRANCH  15  17
ENDBRANCH  14  15
ENDBRANCH   1  14
TORSDOF 7
ENDMDL
MODEL 9
REMARK VINA RESULT:    -4.988      1.481      3.385
REMARK INTER + INTRA:          -7.386
REMARK INTER:                  -6.859
REMARK INTRA:                  -0.526
REMARK UNBOUND:                -0.649
REMARK  Name = 
REMARK  10 active torsions:
REMARK  status: ('A' for Active; 'I' for Inactive)
REMARK    1  A    between atoms: C_1  and  C_2
REMARK    2  A    between atoms: C_5  and  N_8
REMARK    3  A    between atoms: N_8  and  C_9
REMARK    4  A    between atoms: N_8  and  C_13
REMARK    5  A    between atoms: C_9  and  C_10
REMARK    6  A    between atoms: C_10  and  C_11
REMARK    7  A    between atoms: C_10  and  O_12
REMARK    8  A    between atoms: C_13  and  C_14
REMARK    9  A    between atoms: C_14  and  C_15
REMARK   10  A    between atoms: C_14  and  O_16
REMARK                            x       y       z     vdW  Elec       q    Type
REMARK                         _______ _______ _______ _____ _____    ______ ____
ROOT
ATOM      1  N   UNL     1       3.358  14.898  -1.830  0.00  0.00    +0.000 N 
ENDROOT
BRANCH   1   6
ATOM      2  C   UNL     1      -0.839  17.736   0.937  0.00  0.00    +0.000 C 
ATOM      3  C   UNL     1       0.243  16.978   0.231  0.00  0.00    +0.000 A 
ATOM      4  C   UNL     1       1.521  16.887   0.772  0.00  0.00    +0.000 A 
ATOM      5  C   UNL     1       2.540  16.201   0.090  0.00  0.00    +0.000 A 
ATOM      6  C   UNL     1       2.343  15.597  -1.165  0.00  0.00    +0.000 A 
ATOM      7  C   UNL     1       1.039  15.708  -1.681  0.00  0.00    +0.000 A 
ATOM      8  C   UNL     1       0.010  16.389  -1.009  0.00  0.00    +0.000 A 
ENDBRANCH   1   6
BRANCH   1   9
ATOM      9  C   UNL     1       3.576  13.459  -1.549  0.00  0.00    +0.000 C 
BRANCH   9  10
ATOM     10  C   UNL     1       3.655  12.602  -2.837  0.00  0.00    +0.000 C 
ATOM     11  C   UNL     1       3.926  11.140  -2.502  0.00  0.00    +0.000 C 
BRANCH  10  12
ATOM     12  O   UNL     1       2.427  12.669  -3.575  0.00  0.00    +0.000 OA
ATOM     13  H   UNL     1       1.959  13.478  -3.310  0.00  0.00    +0.000 HD
ENDBRANCH  10  12
ENDBRANCH   9  10
ENDBRANCH   1   9
BRANCH   1  14
ATOM     14  C   UNL     1       4.531  15.607  -2.404  0.00  0.00    +0.000 C 
BRANCH  14  15
ATOM     15  C   UNL     1       4.113  16.806  -3.289  0.00  0.00    +0.000 C 
ATOM     16  C   UNL     1       4.440  18.156  -2.663  0.00  0.00    +0.000 C 
BRANCH  15  17
ATOM     17  O   UNL     1       4.731  16.753  -4.574  0.00  0.00    +0.000 OA
ATOM     18  H   UNL     1       5.453  17.412  -4.534  0.00  0.00    +0.000 HD
ENDBRANCH  15  17
ENDBRANCH  14  15
ENDBRANCH   1  14
TORSDOF 7
ENDMDL
