MODEL 1
REMARK VINA RESULT:    -5.383      0.000      0.000
REMARK INTER + INTRA:          -7.713
REMARK INTER:                  -7.270
REMARK INTRA:                  -0.442
REMARK UNBOUND:                -0.442
REMARK  Name = 
REMARK  10 active torsions:
REMARK  status: ('A' for Active; 'I' for Inactive)
REMARK    1  A    between atoms: C_1  and  C_2
REMARK    2  A    between atoms: C_5  and  N_8
REMARK    3  A    between atoms: N_8  and  C_9
REMARK    4  A    between atoms: N_8  and  C_13
REMARK    5  A    between atoms: C_9  and  C_10
REMARK    6  A    between atoms: C_10  and  C_11
REMARK    7  A    between atoms: C_10  and  O_12
REMARK    8  A    between atoms: C_13  and  C_14
REMARK    9  A    between atoms: C_14  and  C_15
REMARK   10  A    between atoms: C_14  and  O_16
REMARK                            x       y       z     vdW  Elec       q    Type
REMARK                         _______ _______ _______ _____ _____    ______ ____
ROOT
ATOM      1  N   UNL     1      13.176   6.672   6.304  0.00  0.00    +0.000 N 
ENDROOT
BRANCH   1   6
ATOM      2  C   UNL     1      16.609   3.782   2.671  0.00  0.00    +0.000 C 
ATOM      3  C   UNL     1      15.730   4.553   3.608  0.00  0.00    +0.000 A 
ATOM      4  C   UNL     1      16.077   4.713   4.945  0.00  0.00    +0.000 A 
ATOM      5  C   UNL     1      15.235   5.412   5.825  0.00  0.00    +0.000 A 
ATOM      6  C   UNL     1      14.003   5.960   5.425  0.00  0.00    +0.000 A 
ATOM      7  C   UNL     1      13.685   5.781   4.066  0.00  0.00    +0.000 A 
ATOM      8  C   UNL     1      14.519   5.086   3.175  0.00  0.00    +0.000 A 
ENDBRANCH   1   6
BRANCH   1   9
ATOM      9  C   UNL     1      11.740   6.857   5.988  0.00  0.00    +0.000 C 
BRANCH   9  10
ATOM     10  C   UNL     1      10.874   5.640   6.397  0.00  0.00    +0.000 C 
ATOM     11  C   UNL     1       9.992   5.977   7.593  0.00  0.00    +0.000 C 
BRANCH  10  12
ATOM     12  O   UNL     1      10.022   5.228   5.319  0.00  0.00    +0.000 OA
ATOM     13  H   UNL     1       9.417   5.961   5.116  0.00  0.00    +0.000 HD
ENDBRANCH  10  12
ENDBRANCH   9  10
ENDBRANCH   1   9
BRANCH   1  14
ATOM     14  C   UNL     1      13.740   7.665   7.254  0.00  0.00    +0.000 C 
BRANCH  14  15
ATOM     15  C   UNL     1      12.646   8.317   8.134  0.00  0.00    +0.000 C 
ATOM     16  C   UNL     1      12.800   7.998   9.616  0.00  0.00    +0.000 C 
BRANCH  15  17
ATOM     17  O   UNL     1      12.628   9.736   7.987  0.00  0.00    +0.000 OA
ATOM     18  H   UNL     1      12.590   9.890   7.022  0.00  0.00    +0.000 HD
ENDBRANCH  15  17
ENDBRANCH  14  15
ENDBRANCH   1  14
TORSDOF 7
ENDMDL
MODEL 2
REMARK VINA RESULT:    -5.380      1.047      3.329
REMARK INTER + INTRA:          -7.709
REMARK INTER:                  -7.277
REMARK INTRA:                  -0.432
REMARK UNBOUND:                -0.442
REMARK  Name = 
REMARK  10 active torsions:
REMARK  status: ('A' for Active; 'I' for Inactive)
REMARK    1  A    between atoms: C_1  and  C_2
REMARK    2  A    between atoms: C_5  and  N_8
REMARK    3  A    between atoms: N_8  and  C_9
REMARK    4  A    between atoms: N_8  and  C_13
REMARK    5  A    between atoms: C_9  and  C_10
REMARK    6  A    between atoms: C_10  and  C_11
REMARK    7  A    between atoms: C_10  and  O_12
REMARK    8  A    between atoms: C_13  and  C_14
REMARK    9  A    between atoms: C_14  and  C_15
REMARK   10  A    between atoms: C_14  and  O_16
REMARK                            x       y       z     vdW  Elec       q    Type
REMARK                         _______ _______ _______ _____ _____    ______ ____
ROOT
ATOM      1  N   UNL     1      12.556   6.485   6.897  0.00  0.00    +0.000 N 
ENDROOT
BRANCH   1   6
ATOM      2  C   UNL     1      16.605   4.288   3.417  0.00  0.00    +0.000 C 
ATOM      3  C   UNL     1      15.548   4.835   4.327  0.00  0.00    +0.000 A 
ATOM      4  C   UNL     1      14.267   5.102   3.854  0.00  0.00    +0.000 A 
ATOM      5  C   UNL     1      13.289   5.643   4.704  0.00  0.00    +0.000 A 
ATOM      6  C   UNL     1      13.542   5.964   6.050  0.00  0.00    +0.000 A 
ATOM      7  C   UNL     1      14.847   5.679   6.494  0.00  0.00    +0.000 A 
ATOM      8  C   UNL     1      15.834   5.136   5.655  0.00  0.00    +0.000 A 
ENDBRANCH   1   6
BRANCH   1   9
ATOM      9  C   UNL     1      12.623   6.237   8.357  0.00  0.00    +0.000 C 
BRANCH   9  10
ATOM     10  C   UNL     1      11.998   7.383   9.190  0.00  0.00    +0.000 C 
ATOM     11  C   UNL     1      12.045   7.062  10.679  0.00  0.00    +0.000 C 
BRANCH  10  12
ATOM     12  O   UNL     1      12.702   8.615   8.979  0.00  0.00    +0.000 OA
ATOM     13  H   UNL     1      12.255   9.309   9.492  0.00  0.00    +0.000 HD
ENDBRANCH  10  12
ENDBRANCH   9  10
ENDBRANCH   1   9
BRANCH   1  14
ATOM     14  C   UNL     1      11.205   6.830   6.383  0.00  0.00    +0.000 C 
BRANCH  14  15
ATOM     15  C   UNL     1      10.209   5.654   6.525  0.00  0.00    +0.000 C 
ATOM     16  C   UNL     1       8.963   6.017   7.324  0.00  0.00    +0.000 C 
BRANCH  15  17
ATOM     17  O   UNL     1       9.790   5.161   5.253  0.00  0.00    +0.000 OA
ATOM     18  H   UNL     1       9.933   4.194   5.298  0.00  0.00    +0.000 HD
ENDBRANCH  15  17
ENDBRANCH  14  15
ENDBRANCH   1  14
TORSDOF 7
ENDMDL
MODEL 3
REMARK VINA RESULT:    -5.348      0.832      1.443
REMARK INTER + INTRA:          -7.666
REMARK INTER:                  -7.245
REMARK INTRA:                  -0.421
REMARK UNBOUND:                -0.442
REMARK  Name = 
REMARK  10 active torsions:
REMARK  status: ('A' for Active; 'I' for Inactive)
REMARK    1  A    between atoms: C_1  and  C_2
REMARK    2  A    between atoms: C_5  and  N_8
REMARK    3  A    between atoms: N_8  and  C_9
REMARK    4  A    between atoms: N_8  and  C_13
REMARK    5  A    between atoms: C_9  and  C_10
REMARK    6  A    between atoms: C_10  and  C_11
REMARK    7  A    between atoms: C_10  and  O_12
REMARK    8  A    between atoms: C_13  and  C_14
REMARK    9  A    between atoms: C_14  and  C_15
REMARK   10  A    between atoms: C_14  and  O_16
REMARK                            x       y       z     vdW  Elec       q    Type
REMARK                         _______ _______ _______ _____ _____    ______ ____
ROOT
ATOM      1  N   UNL     1      12.888   6.130   6.905  0.00  0.00    +0.000 N 
ENDROOT
BRANCH   1   6
ATOM      2  C   UNL     1      16.822   4.367   3.065  0.00  0.00    +0.000 C 
ATOM      3  C   UNL     1      15.797   4.801   4.069  0.00  0.00    +0.000 A 
ATOM      4  C   UNL     1      14.462   4.947   3.708  0.00  0.00    +0.000 A 
ATOM      5  C   UNL     1      13.511   5.383   4.645  0.00  0.00    +0.000 A 
ATOM      6  C   UNL     1      13.845   5.714   5.971  0.00  0.00    +0.000 A 
ATOM      7  C   UNL     1      15.203   5.552   6.301  0.00  0.00    +0.000 A 
ATOM      8  C   UNL     1      16.164   5.115   5.374  0.00  0.00    +0.000 A 
ENDBRANCH   1   6
BRANCH   1   9
ATOM      9  C   UNL     1      11.565   6.619   6.447  0.00  0.00    +0.000 C 
BRANCH   9  10
ATOM     10  C   UNL     1      10.462   5.537   6.535  0.00  0.00    +0.000 C 
ATOM     11  C   UNL     1       9.295   6.016   7.391  0.00  0.00    +0.000 C 
BRANCH  10  12
ATOM     12  O   UNL     1       9.954   5.212   5.234  0.00  0.00    +0.000 OA
ATOM     13  H   UNL     1      10.050   5.997   4.669  0.00  0.00    +0.000 HD
ENDBRANCH  10  12
ENDBRANCH   9  10
ENDBRANCH   1   9
BRANCH   1  14
ATOM     14  C   UNL     1      13.285   6.582   8.263  0.00  0.00    +0.000 C 
BRANCH  14  15
ATOM     15  C   UNL     1      12.261   7.569   8.873  0.00  0.00    +0.000 C 
ATOM     16  C   UNL     1      11.907   7.247  10.320  0.00  0.00    +0.000 C 
BRANCH  15  17
ATOM     17  O   UNL     1      12.731   8.915   8.823  0.00  0.00    +0.000 OA
ATOM     18  H   UNL     1      13.357   8.993   9.571  0.00  0.00    +0.000 HD
ENDBRANCH  15  17
ENDBRANCH  14  15
ENDBRANCH   1  14
TORSDOF 7
ENDMDL
MODEL 4
REMARK VINA RESULT:    -5.261      0.786      3.026
REMARK INTER + INTRA:          -7.548
REMARK INTER:                  -6.970
REMARK INTRA:                  -0.578
REMARK UNBOUND:                -0.442
REMARK  Name = 
REMARK  10 active torsions:
REMARK  status: ('A' for Active; 'I' for Inactive)
REMARK    1  A    between atoms: C_1  and  C_2
REMARK    2  A    between atoms: C_5  and  N_8
REMARK    3  A    between atoms: N_8  and  C_9
REMARK    4  A    between atoms: N_8  and  C_13
REMARK    5  A    between atoms: C_9  and  C_10
REMARK    6  A    between atoms: C_10  and  C_11
REMARK    7  A    between atoms: C_10  and  O_12
REMARK    8  A    between atoms: C_13  and  C_14
REMARK    9  A    between atoms: C_14  and  C_15
REMARK   10  A    between atoms: C_14  and  O_16
REMARK                            x       y       z     vdW  Elec       q    Type
REMARK                         _______ _______ _______ _____ _____    ______ ____
ROOT
ATOM      1  N   UNL     1      13.180   7.302   5.491  0.00  0.00    +0.000 N 
ENDROOT
BRANCH   1   6
ATOM      2  C   UNL     1      16.556   3.667   2.539  0.00  0.00    +0.000 C 
ATOM      3  C   UNL     1      15.698   4.627   3.305  0.00  0.00    +0.000 A 
ATOM      4  C   UNL     1      15.689   4.625   4.696  0.00  0.00    +0.000 A 
ATOM      5  C   UNL     1      14.861   5.507   5.408  0.00  0.00    +0.000 A 
ATOM      6  C   UNL     1      13.989   6.412   4.775  0.00  0.00    +0.000 A 
ATOM      7  C   UNL     1      14.026   6.388   3.368  0.00  0.00    +0.000 A 
ATOM      8  C   UNL     1      14.851   5.512   2.644  0.00  0.00    +0.000 A 
ENDBRANCH   1   6
BRANCH   1   9
ATOM      9  C   UNL     1      13.780   8.198   6.508  0.00  0.00    +0.000 C 
BRANCH   9  10
ATOM     10  C   UNL     1      12.809   8.522   7.670  0.00  0.00    +0.000 C 
ATOM     11  C   UNL     1      13.327   7.956   8.987  0.00  0.00    +0.000 C 
BRANCH  10  12
ATOM     12  O   UNL     1      12.649   9.939   7.828  0.00  0.00    +0.000 OA
ATOM     13  H   UNL     1      13.458  10.371   7.507  0.00  0.00    +0.000 HD
ENDBRANCH  10  12
ENDBRANCH   9  10
ENDBRANCH   1   9
BRANCH   1  14
ATOM     14  C   UNL     1      11.724   7.054   5.658  0.00  0.00    +0.000 C 
BRANCH  14  15
ATOM     15  C   UNL     1      11.405   5.551   5.842  0.00  0.00    +0.000 C 
ATOM     16  C   UNL     1      11.555   5.079   7.284  0.00  0.00    +0.000 C 
BRANCH  15  17
ATOM     17  O   UNL     1      10.082   5.236   5.410  0.00  0.00    +0.000 OA
ATOM     18  H   UNL     1       9.771   4.546   6.030  0.00  0.00    +0.000 HD
ENDBRANCH  15  17
ENDBRANCH  14  15
ENDBRANCH   1  14
TORSDOF 7
ENDMDL
MODEL 5
REMARK VINA RESULT:    -5.230      1.848      3.269
REMARK INTER + INTRA:          -7.506
REMARK INTER:                  -6.804
REMARK INTRA:                  -0.702
REMARK UNBOUND:                -0.442
REMARK  Name = 
REMARK  10 active torsions:
REMARK  status: ('A' for Active; 'I' for Inactive)
REMARK    1  A    between atoms: C_1  and  C_2
REMARK    2  A    between atoms: C_5  and  N_8
REMARK    3  A    between atoms: N_8  and  C_9
REMARK    4  A    between atoms: N_8  and  C_13
REMARK    5  A    between atoms: C_9  and  C_10
REMARK    6  A    between atoms: C_10  and  C_11
REMARK    7  A    between atoms: C_10  and  O_12
REMARK    8  A    between atoms: C_13  and  C_14
REMARK    9  A    between atoms: C_14  and  C_15
REMARK   10  A    between atoms: C_14  and  O_16
REMARK                            x       y       z     vdW  Elec       q    Type
REMARK                         _______ _______ _______ _____ _____    ______ ____
ROOT
ATOM      1  N   UNL     1      12.944   6.296   7.620  0.00  0.00    +0.000 N 
ENDROOT
BRANCH   1   6
ATOM      2  C   UNL     1      16.257   4.301   3.334  0.00  0.00    +0.000 C 
ATOM      3  C   UNL     1      15.403   4.842   4.440  0.00  0.00    +0.000 A 
ATOM      4  C   UNL     1      15.919   5.017   5.719  0.00  0.00    +0.000 A 
ATOM      5  C   UNL     1      15.106   5.496   6.759  0.00  0.00    +0.000 A 
ATOM      6  C   UNL     1      13.744   5.800   6.583  0.00  0.00    +0.000 A 
ATOM      7  C   UNL     1      13.257   5.613   5.276  0.00  0.00    +0.000 A 
ATOM      8  C   UNL     1      14.060   5.136   4.226  0.00  0.00    +0.000 A 
ENDBRANCH   1   6
BRANCH   1   9
ATOM      9  C   UNL     1      13.538   7.157   8.671  0.00  0.00    +0.000 C 
BRANCH   9  10
ATOM     10  C   UNL     1      13.409   6.548  10.089  0.00  0.00    +0.000 C 
ATOM     11  C   UNL     1      14.780   6.358  10.727  0.00  0.00    +0.000 C 
BRANCH  10  12
ATOM     12  O   UNL     1      12.635   7.399  10.945  0.00  0.00    +0.000 OA
ATOM     13  H   UNL     1      12.025   6.840  11.454  0.00  0.00    +0.000 HD
ENDBRANCH  10  12
ENDBRANCH   9  10
ENDBRANCH   1   9
BRANCH   1  14
ATOM     14  C   UNL     1      11.682   5.616   8.010  0.00  0.00    +0.000 C 
BRANCH  14  15
ATOM     15  C   UNL     1      10.453   6.548   7.882  0.00  0.00    +0.000 C 
ATOM     16  C   UNL     1       9.208   5.832   7.371  0.00  0.00    +0.000 C 
BRANCH  15  17
ATOM     17  O   UNL     1      10.128   7.166   9.126  0.00  0.00    +0.000 OA
ATOM     18  H   UNL     1      10.278   6.472   9.800  0.00  0.00    +0.000 HD
ENDBRANCH  15  17
ENDBRANCH  14  15
ENDBRANCH   1  14
TORSDOF 7
ENDMDL
MODEL 6
REMARK VINA RESULT:    -5.224     20.760     21.782
REMARK INTER + INTRA:          -7.499
REMARK INTER:                  -6.827
REMARK INTRA:                  -0.672
REMARK UNBOUND:                -0.442
REMARK  Name = 
REMARK  10 active torsions:
REMARK  status: ('A' for Active; 'I' for Inactive)
REMARK    1  A    between atoms: C_1  and  C_2
REMARK    2  A    between atoms: C_5  and  N_8
REMARK    3  A    between atoms: N_8  and  C_9
REMARK    4  A    between atoms: N_8  and  C_13
REMARK    5  A    between atoms: C_9  and  C_10
REMARK    6  A    between atoms: C_10  and  C_11
REMARK    7  A    between atoms: C_10  and  O_12
REMARK    8  A    between atoms: C_13  and  C_14
REMARK    9  A    between atoms: C_14  and  C_15
REMARK   10  A    between atoms: C_14  and  O_16
REMARK                            x       y       z     vdW  Elec       q    Type
REMARK                         _______ _______ _______ _____ _____    ______ ____
ROOT
ATOM      1  N   UNL     1      -0.299   0.157  22.179  0.00  0.00    +0.000 N 
ENDROOT
BRANCH   1   6
ATOM      2  C   UNL     1      -3.435   0.325  17.335  0.00  0.00    +0.000 C 
ATOM      3  C   UNL     1      -2.637   0.298  18.602  0.00  0.00    +0.000 A 
ATOM      4  C   UNL     1      -1.551   1.149  18.781  0.00  0.00    +0.000 A 
ATOM      5  C   UNL     1      -0.788   1.099  19.959  0.00  0.00    +0.000 A 
ATOM      6  C   UNL     1      -1.052   0.189  20.999  0.00  0.00    +0.000 A 
ATOM      7  C   UNL     1      -2.157  -0.655  20.785  0.00  0.00    +0.000 A 
ATOM      8  C   UNL     1      -2.930  -0.613  19.612  0.00  0.00    +0.000 A 
ENDBRANCH   1   6
BRANCH   1   9
ATOM      9  C   UNL     1      -0.159  -1.109  22.938  0.00  0.00    +0.000 C 
BRANCH   9  10
ATOM     10  C   UNL     1       0.979  -2.010  22.397  0.00  0.00    +0.000 C 
ATOM     11  C   UNL     1       0.436  -3.045  21.419  0.00  0.00    +0.000 C 
BRANCH  10  12
ATOM     12  O   UNL     1       1.972  -1.232  21.714  0.00  0.00    +0.000 OA
ATOM     13  H   UNL     1       2.204  -0.477  22.280  0.00  0.00    +0.000 HD
ENDBRANCH  10  12
ENDBRANCH   9  10
ENDBRANCH   1   9
BRANCH   1  14
ATOM     14  C   UNL     1      -0.061   1.390  22.973  0.00  0.00    +0.000 C 
BRANCH  14  15
ATOM     15  C   UNL     1       1.277   2.074  22.602  0.00  0.00    +0.000 C 
ATOM     16  C   UNL     1       1.447   3.446  23.243  0.00  0.00    +0.000 C 
BRANCH  15  17
ATOM     17  O   UNL     1       2.399   1.273  22.970  0.00  0.00    +0.000 OA
ATOM     18  H   UNL     1       2.629   1.561  23.876  0.00  0.00    +0.000 HD
ENDBRANCH  15  17
ENDBRANCH  14  15
ENDBRANCH   1  14
TORSDOF 7
ENDMDL
MODEL 7
REMARK VINA RESULT:    -5.204      2.087      3.603
REMARK INTER + INTRA:          -7.471
REMARK INTER:                  -6.988
REMARK INTRA:                  -0.483
REMARK UNBOUND:                -0.442
REMARK  Name = 
REMARK  10 active torsions:
REMARK  status: ('A' for Active; 'I' for Inactive)
REMARK    1  A    between atoms: C_1  and  C_2
REMARK    2  A    between atoms: C_5  and  N_8
REMARK    3  A    between atoms: N_8  and  C_9
REMARK    4  A    between atoms: N_8  and  C_13
REMARK    5  A    between atoms: C_9  and  C_10
REMARK    6  A    between atoms: C_10  and  C_11
REMARK    7  A    between atoms: C_10  and  O_12
REMARK    8  A    between atoms: C_13  and  C_14
REMARK    9  A    between atoms: C_14  and  C_15
REMARK   10  A    between atoms: C_14  and  O_16
REMARK                            x       y       z     vdW  Elec       q    Type
REMARK                         _______ _______ _______ _____ _____    ______ ____
ROOT
ATOM      1  N   UNL     1      13.464   6.839   4.051  0.00  0.00    +0.000 N 
ENDROOT
BRANCH   1   6
ATOM      2  C   UNL     1      17.215   3.248   1.530  0.00  0.00    +0.000 C 
ATOM      3  C   UNL     1      16.260   4.186   2.201  0.00  0.00    +0.000 A 
ATOM      4  C   UNL     1      15.417   3.743   3.215  0.00  0.00    +0.000 A 
ATOM      5  C   UNL     1      14.501   4.620   3.819  0.00  0.00    +0.000 A 
ATOM      6  C   UNL     1      14.365   5.965   3.431  0.00  0.00    +0.000 A 
ATOM      7  C   UNL     1      15.235   6.379   2.405  0.00  0.00    +0.000 A 
ATOM      8  C   UNL     1      16.156   5.513   1.793  0.00  0.00    +0.000 A 
ENDBRANCH   1   6
BRANCH   1   9
ATOM      9  C   UNL     1      13.323   8.232   3.563  0.00  0.00    +0.000 C 
BRANCH   9  10
ATOM     10  C   UNL     1      13.740   9.284   4.620  0.00  0.00    +0.000 C 
ATOM     11  C   UNL     1      15.239   9.550   4.562  0.00  0.00    +0.000 C 
BRANCH  10  12
ATOM     12  O   UNL     1      13.059  10.528   4.404  0.00  0.00    +0.000 OA
ATOM     13  H   UNL     1      13.012  10.684   3.446  0.00  0.00    +0.000 HD
ENDBRANCH  10  12
ENDBRANCH   9  10
ENDBRANCH   1   9
BRANCH   1  14
ATOM     14  C   UNL     1      13.024   6.622   5.453  0.00  0.00    +0.000 C 
BRANCH  14  15
ATOM     15  C   UNL     1      11.558   6.134   5.536  0.00  0.00    +0.000 C 
ATOM     16  C   UNL     1      11.162   5.658   6.929  0.00  0.00    +0.000 C 
BRANCH  15  17
ATOM     17  O   UNL     1      10.640   7.151   5.139  0.00  0.00    +0.000 OA
ATOM     18  H   UNL     1      11.060   7.585   4.370  0.00  0.00    +0.000 HD
ENDBRANCH  15  17
ENDBRANCH  14  15
ENDBRANCH   1  14
TORSDOF 7
ENDMDL
MODEL 8
REMARK VINA RESULT:    -5.141      3.056      5.263
REMARK INTER + INTRA:          -7.386
REMARK INTER:                  -6.889
REMARK INTRA:                  -0.497
REMARK UNBOUND:                -0.442
REMARK  Name = 
REMARK  10 active torsions:
REMARK  status: ('A' for Active; 'I' for Inactive)
REMARK    1  A    between atoms: C_1  and  C_2
REMARK    2  A    between atoms: C_5  and  N_8
REMARK    3  A    between atoms: N_8  and  C_9
REMARK    4  A    between atoms: N_8  and  C_13
REMARK    5  A    between atoms: C_9  and  C_10
REMARK    6  A    between atoms: C_10  and  C_11
REMARK    7  A    between atoms: C_10  and  O_12
REMARK    8  A    between atoms: C_13  and  C_14
REMARK    9  A    between atoms: C_14  and  C_15
REMARK   10  A    between atoms: C_14  and  O_16
REMARK                            x       y       z     vdW  Elec       q    Type
REMARK                         _______ _______ _______ _____ _____    ______ ____
ROOT
ATOM      1  N   UNL     1      12.053   6.136   7.845  0.00  0.00    +0.000 N 
ENDROOT
BRANCH   1   6
ATOM      2  C   UNL     1      14.647   6.222  13.002  0.00  0.00    +0.000 C 
ATOM      3  C   UNL     1      13.975   6.175  11.664  0.00  0.00    +0.000 A 
ATOM      4  C   UNL     1      14.715   6.277  10.490  0.00  0.00    +0.000 A 
ATOM      5  C   UNL     1      14.077   6.262   9.239  0.00  0.00    +0.000 A 
ATOM      6  C   UNL     1      12.681   6.170   9.097  0.00  0.00    +0.000 A 
ATOM      7  C   UNL     1      11.966   6.066  10.304  0.00  0.00    +0.000 A 
ATOM      8  C   UNL     1      12.591   6.078  11.562  0.00  0.00    +0.000 A 
ENDBRANCH   1   6
BRANCH   1   9
ATOM      9  C   UNL     1      10.771   5.412   7.676  0.00  0.00    +0.000 C 
BRANCH   9  10
ATOM     10  C   UNL     1       9.554   6.363   7.566  0.00  0.00    +0.000 C 
ATOM     11  C   UNL     1       8.663   5.975   6.392  0.00  0.00    +0.000 C 
BRANCH  10  12
ATOM     12  O   UNL     1       8.759   6.322   8.759  0.00  0.00    +0.000 OA
ATOM     13  H   UNL     1       8.624   7.235   9.062  0.00  0.00    +0.000 HD
ENDBRANCH  10  12
ENDBRANCH   9  10
ENDBRANCH   1   9
BRANCH   1  14
ATOM     14  C   UNL     1      12.825   6.341   6.593  0.00  0.00    +0.000 C 
BRANCH  14  15
ATOM     15  C   UNL     1      12.479   7.685   5.907  0.00  0.00    +0.000 C 
ATOM     16  C   UNL     1      13.700   8.401   5.342  0.00  0.00    +0.000 C 
BRANCH  15  17
ATOM     17  O   UNL     1      11.540   7.510   4.847  0.00  0.00    +0.000 OA
ATOM     18  H   UNL     1      11.983   7.874   4.054  0.00  0.00    +0.000 HD
ENDBRANCH  15  17
ENDBRANCH  14  15
ENDBRANCH   1  14
TORSDOF 7
ENDMDL
MODEL 9
REMARK VINA RESULT:    -5.106      1.479      3.142
REMARK INTER + INTRA:          -7.338
REMARK INTER:                  -6.912
REMARK INTRA:                  -0.426
REMARK UNBOUND:                -0.442
REMARK  Name = 
REMARK  10 active torsions:
REMARK  status: ('A' for Active; 'I' for Inactive)
REMARK    1  A    between atoms: C_1  and  C_2
REMARK    2  A    between atoms: C_5  and  N_8
REMARK    3  A    between atoms: N_8  and  C_9
REMARK    4  A    between atoms: N_8  and  C_13
REMARK    5  A    between atoms: C_9  and  C_10
REMARK    6  A    between atoms: C_10  and  C_11
REMARK    7  A    between atoms: C_10  and  O_12
REMARK    8  A    between atoms: C_13  and  C_14
REMARK    9  A    between atoms: C_14  and  C_15
REMARK   10  A    between atoms: C_14  and  O_16
REMARK                            x       y       z     vdW  Elec       q    Type
REMARK                         _______ _______ _______ _____ _____    ______ ____
ROOT
ATOM      1  N   UNL     1      13.599   6.836   7.113  0.00  0.00    +0.000 N 
ENDROOT
BRANCH   1   6
ATOM      2  C   UNL     1      15.966   3.654   2.917  0.00  0.00    +0.000 C 
ATOM      3  C   UNL     1      15.345   4.459   4.018  0.00  0.00    +0.000 A 
ATOM      4  C   UNL     1      14.024   4.885   3.933  0.00  0.00    +0.000 A 
ATOM      5  C   UNL     1      13.456   5.664   4.954  0.00  0.00    +0.000 A 
ATOM      6  C   UNL     1      14.177   6.075   6.089  0.00  0.00    +0.000 A 
ATOM      7  C   UNL     1      15.509   5.624   6.143  0.00  0.00    +0.000 A 
ATOM      8  C   UNL     1      16.089   4.842   5.130  0.00  0.00    +0.000 A 
ENDBRANCH   1   6
BRANCH   1   9
ATOM      9  C   UNL     1      14.321   8.005   7.669  0.00  0.00    +0.000 C 
BRANCH   9  10
ATOM     10  C   UNL     1      13.805   9.352   7.107  0.00  0.00    +0.000 C 
ATOM     11  C   UNL     1      13.388   9.211   5.648  0.00  0.00    +0.000 C 
BRANCH  10  12
ATOM     12  O   UNL     1      12.669   9.818   7.849  0.00  0.00    +0.000 OA
ATOM     13  H   UNL     1      12.963  10.019   8.754  0.00  0.00    +0.000 HD
ENDBRANCH  10  12
ENDBRANCH   9  10
ENDBRANCH   1   9
BRANCH   1  14
ATOM     14  C   UNL     1      12.561   6.260   8.006  0.00  0.00    +0.000 C 
BRANCH  14  15
ATOM     15  C   UNL     1      11.150   6.815   7.696  0.00  0.00    +0.000 C 
ATOM     16  C   UNL     1      10.259   5.814   6.969  0.00  0.00    +0.000 C 
BRANCH  15  17
ATOM     17  O   UNL     1      10.473   7.228   8.882  0.00  0.00    +0.000 OA
ATOM     18  H   UNL     1      10.758   6.593   9.570  0.00  0.00    +0.000 HD
ENDBRANCH  15  17
ENDBRANCH  14  15
ENDBRANCH   1  14
TORSDOF 7
ENDMDL
