MODEL 1
REMARK VINA RESULT:    -4.365      0.000      0.000
REMARK INTER + INTRA:          -4.800
REMARK INTER:                  -4.747
REMARK INTRA:                  -0.052
REMARK UNBOUND:                -0.052
REMARK  Name = 
REMARK  3 active torsions:
REMARK  status: ('A' for Active; 'I' for Inactive)
REMARK    1  A    between atoms: C_1  and  O_2
REMARK    2  A    between atoms: O_2  and  C_3
REMARK    3  A    between atoms: C_8  and  O_9
REMARK                            x       y       z     vdW  Elec       q    Type
REMARK                         _______ _______ _______ _____ _____    ______ ____
ROOT
ATOM      1  C   UNL     1       5.112  22.703   2.784  0.00  0.00    +0.000 A 
ATOM      2  C   UNL     1       6.342  23.146   2.298  0.00  0.00    +0.000 A 
ATOM      3  C   UNL     1       7.529  22.573   2.771  0.00  0.00    +0.000 A 
ATOM      4  C   UNL     1       7.492  21.559   3.730  0.00  0.00    +0.000 A 
ATOM      5  C   UNL     1       6.267  21.110   4.220  0.00  0.00    +0.000 A 
ATOM      6  C   UNL     1       5.095  21.685   3.745  0.00  0.00    +0.000 A 
ENDROOT
BRANCH   1   8
ATOM      7  C   UNL     1       3.520  23.006   1.046  0.00  0.00    +0.000 C 
ATOM      8  O   UNL     1       3.877  23.171   2.413  0.00  0.00    +0.000 OA
ENDBRANCH   1   8
BRANCH   6   9
ATOM      9  O   UNL     1       3.903  21.228   4.242  0.00  0.00    +0.000 OA
ATOM     10  H   UNL     1       3.856  21.590   5.147  0.00  0.00    +0.000 HD
ENDBRANCH   6   9
TORSDOF 2
ENDMDL
MODEL 2
REMARK VINA RESULT:    -4.030      1.256      3.098
REMARK INTER + INTRA:          -4.436
REMARK INTER:                  -4.394
REMARK INTRA:                  -0.042
REMARK UNBOUND:                -0.052
REMARK  Name = 
REMARK  3 active torsions:
REMARK  status: ('A' for Active; 'I' for Inactive)
REMARK    1  A    between atoms: C_1  and  O_2
REMARK    2  A    between atoms: O_2  and  C_3
REMARK    3  A    between atoms: C_8  and  O_9
REMARK                            x       y       z     vdW  Elec       q    Type
REMARK                         _______ _______ _______ _____ _____    ______ ____
ROOT
ATOM      1  C   UNL     1       6.188  21.752   3.591  0.00  0.00    +0.000 A 
ATOM      2  C   UNL     1       7.062  22.536   2.839  0.00  0.00    +0.000 A 
ATOM      3  C   UNL     1       6.557  23.528   1.990  0.00  0.00    +0.000 A 
ATOM      4  C   UNL     1       5.180  23.740   1.889  0.00  0.00    +0.000 A 
ATOM      5  C   UNL     1       4.301  22.962   2.638  0.00  0.00    +0.000 A 
ATOM      6  C   UNL     1       4.811  21.979   3.477  0.00  0.00    +0.000 A 
ENDROOT
BRANCH   1   8
ATOM      7  C   UNL     1       7.764  20.920   5.164  0.00  0.00    +0.000 C 
ATOM      8  O   UNL     1       6.540  20.749   4.458  0.00  0.00    +0.000 OA
ENDBRANCH   1   8
BRANCH   6   9
ATOM      9  O   UNL     1       3.927  21.226   4.203  0.00  0.00    +0.000 OA
ATOM     10  H   UNL     1       3.424  21.875   4.731  0.00  0.00    +0.000 HD
ENDBRANCH   6   9
TORSDOF 2
ENDMDL
MODEL 3
REMARK VINA RESULT:    -3.549     18.498     20.355
REMARK INTER + INTRA:          -3.912
REMARK INTER:                  -3.860
REMARK INTRA:                  -0.053
REMARK UNBOUND:                -0.052
REMARK  Name = 
REMARK  3 active torsions:
REMARK  status: ('A' for Active; 'I' for Inactive)
REMARK    1  A    between atoms: C_1  and  O_2
REMARK    2  A    between atoms: O_2  and  C_3
REMARK    3  A    between atoms: C_8  and  O_9
REMARK                            x       y       z     vdW  Elec       q    Type
REMARK                         _______ _______ _______ _____ _____    ______ ____
ROOT
ATOM      1  C   UNL     1      -4.394  13.619 -11.531  0.00  0.00    +0.000 A 
ATOM      2  C   UNL     1      -4.024  14.166 -12.759  0.00  0.00    +0.000 A 
ATOM      3  C   UNL     1      -4.718  13.809 -13.921  0.00  0.00    +0.000 A 
ATOM      4  C   UNL     1      -5.782  12.906 -13.862  0.00  0.00    +0.000 A 
ATOM      5  C   UNL     1      -6.158  12.356 -12.638  0.00  0.00    +0.000 A 
ATOM      6  C   UNL     1      -5.463  12.716 -11.490  0.00  0.00    +0.000 A 
ENDROOT
BRANCH   1   8
ATOM      7  C   UNL     1      -3.965  15.192  -9.802  0.00  0.00    +0.000 C 
ATOM      8  O   UNL     1      -3.806  13.876 -10.318  0.00  0.00    +0.000 OA
ENDBRANCH   1   8
BRANCH   6   9
ATOM      9  O   UNL     1      -5.851  12.161 -10.300  0.00  0.00    +0.000 OA
ATOM     10  H   UNL     1      -6.325  12.878  -9.835  0.00  0.00    +0.000 HD
ENDBRANCH   6   9
TORSDOF 2
ENDMDL
MODEL 4
REMARK VINA RESULT:    -3.544     17.719     19.275
REMARK INTER + INTRA:          -3.907
REMARK INTER:                  -3.858
REMARK INTRA:                  -0.050
REMARK UNBOUND:                -0.052
REMARK  Name = 
REMARK  3 active torsions:
REMARK  status: ('A' for Active; 'I' for Inactive)
REMARK    1  A    between atoms: C_1  and  O_2
REMARK    2  A    between atoms: O_2  and  C_3
REMARK    3  A    between atoms: C_8  and  O_9
REMARK                            x       y       z     vdW  Elec       q    Type
REMARK                         _______ _______ _______ _____ _____    ______ ____
ROOT
ATOM      1  C   UNL     1      -5.413  13.495 -10.764  0.00  0.00    +0.000 A 
ATOM      2  C   UNL     1      -6.500  14.163 -10.201  0.00  0.00    +0.000 A 
ATOM      3  C   UNL     1      -6.285  15.254  -9.349  0.00  0.00    +0.000 A 
ATOM      4  C   UNL     1      -4.988  15.680  -9.057  0.00  0.00    +0.000 A 
ATOM      5  C   UNL     1      -3.897  15.018  -9.616  0.00  0.00    +0.000 A 
ATOM      6  C   UNL     1      -4.119  13.937 -10.460  0.00  0.00    +0.000 A 
ENDROOT
BRANCH   1   8
ATOM      7  C   UNL     1      -6.297  12.560 -12.762  0.00  0.00    +0.000 C 
ATOM      8  O   UNL     1      -5.474  12.417 -11.610  0.00  0.00    +0.000 OA
ENDBRANCH   1   8
BRANCH   6   9
ATOM      9  O   UNL     1      -3.031  13.302 -10.997  0.00  0.00    +0.000 OA
ATOM     10  H   UNL     1      -2.408  13.205 -10.252  0.00  0.00    +0.000 HD
ENDBRANCH   6   9
TORSDOF 2
ENDMDL
MODEL 5
REMARK VINA RESULT:    -3.541      2.002      3.242
REMARK INTER + INTRA:          -3.903
REMARK INTER:                  -3.863
REMARK INTRA:                  -0.040
REMARK UNBOUND:                -0.052
REMARK  Name = 
REMARK  3 active torsions:
REMARK  status: ('A' for Active; 'I' for Inactive)
REMARK    1  A    between atoms: C_1  and  O_2
REMARK    2  A    between atoms: O_2  and  C_3
REMARK    3  A    between atoms: C_8  and  O_9
REMARK                            x       y       z     vdW  Elec       q    Type
REMARK                         _______ _______ _______ _____ _____    ______ ____
ROOT
ATOM      1  C   UNL     1       7.145  22.236   3.168  0.00  0.00    +0.000 A 
ATOM      2  C   UNL     1       6.711  23.302   2.380  0.00  0.00    +0.000 A 
ATOM      3  C   UNL     1       5.342  23.569   2.258  0.00  0.00    +0.000 A 
ATOM      4  C   UNL     1       4.403  22.775   2.919  0.00  0.00    +0.000 A 
ATOM      5  C   UNL     1       4.829  21.708   3.708  0.00  0.00    +0.000 A 
ATOM      6  C   UNL     1       6.189  21.450   3.823  0.00  0.00    +0.000 A 
ENDROOT
BRANCH   1   8
ATOM      7  C   UNL     1       9.382  22.223   2.368  0.00  0.00    +0.000 C 
ATOM      8  O   UNL     1       8.447  21.859   3.376  0.00  0.00    +0.000 OA
ENDBRANCH   1   8
BRANCH   6   9
ATOM      9  O   UNL     1       6.583  20.397   4.604  0.00  0.00    +0.000 OA
ATOM     10  H   UNL     1       6.194  19.610   4.175  0.00  0.00    +0.000 HD
ENDBRANCH   6   9
TORSDOF 2
ENDMDL
MODEL 6
REMARK VINA RESULT:    -3.419     18.465     20.048
REMARK INTER + INTRA:          -3.771
REMARK INTER:                  -3.733
REMARK INTRA:                  -0.038
REMARK UNBOUND:                -0.052
REMARK  Name = 
REMARK  3 active torsions:
REMARK  status: ('A' for Active; 'I' for Inactive)
REMARK    1  A    between atoms: C_1  and  O_2
REMARK    2  A    between atoms: O_2  and  C_3
REMARK    3  A    between atoms: C_8  and  O_9
REMARK                            x       y       z     vdW  Elec       q    Type
REMARK                         _______ _______ _______ _____ _____    ______ ____
ROOT
ATOM      1  C   UNL     1      -5.164  13.527 -12.223  0.00  0.00    +0.000 A 
ATOM      2  C   UNL     1      -5.126  14.786 -12.822  0.00  0.00    +0.000 A 
ATOM      3  C   UNL     1      -4.528  15.861 -12.153  0.00  0.00    +0.000 A 
ATOM      4  C   UNL     1      -3.969  15.684 -10.886  0.00  0.00    +0.000 A 
ATOM      5  C   UNL     1      -4.003  14.430 -10.281  0.00  0.00    +0.000 A 
ATOM      6  C   UNL     1      -4.598  13.369 -10.952  0.00  0.00    +0.000 A 
ENDROOT
BRANCH   1   8
ATOM      7  C   UNL     1      -6.039  12.434 -14.143  0.00  0.00    +0.000 C 
ATOM      8  O   UNL     1      -5.714  12.390 -12.759  0.00  0.00    +0.000 OA
ENDBRANCH   1   8
BRANCH   6   9
ATOM      9  O   UNL     1      -4.619  12.145 -10.337  0.00  0.00    +0.000 OA
ATOM     10  H   UNL     1      -4.010  12.238  -9.580  0.00  0.00    +0.000 HD
ENDBRANCH   6   9
TORSDOF 2
ENDMDL
MODEL 7
REMARK VINA RESULT:    -3.418     17.272     18.943
REMARK INTER + INTRA:          -3.770
REMARK INTER:                  -3.718
REMARK INTRA:                  -0.052
REMARK UNBOUND:                -0.052
REMARK  Name = 
REMARK  3 active torsions:
REMARK  status: ('A' for Active; 'I' for Inactive)
REMARK    1  A    between atoms: C_1  and  O_2
REMARK    2  A    between atoms: O_2  and  C_3
REMARK    3  A    between atoms: C_8  and  O_9
REMARK                            x       y       z     vdW  Elec       q    Type
REMARK                         _______ _______ _______ _____ _____    ______ ____
ROOT
ATOM      1  C   UNL     1      -4.271  15.192 -10.574  0.00  0.00    +0.000 A 
ATOM      2  C   UNL     1      -4.234  16.297 -11.423  0.00  0.00    +0.000 A 
ATOM      3  C   UNL     1      -4.269  16.114 -12.811  0.00  0.00    +0.000 A 
ATOM      4  C   UNL     1      -4.339  14.830 -13.355  0.00  0.00    +0.000 A 
ATOM      5  C   UNL     1      -4.376  13.721 -12.513  0.00  0.00    +0.000 A 
ATOM      6  C   UNL     1      -4.341  13.912 -11.137  0.00  0.00    +0.000 A 
ENDROOT
BRANCH   1   8
ATOM      7  C   UNL     1      -5.390  15.758  -8.556  0.00  0.00    +0.000 C 
ATOM      8  O   UNL     1      -4.243  15.221  -9.203  0.00  0.00    +0.000 OA
ENDBRANCH   1   8
BRANCH   6   9
ATOM      9  O   UNL     1      -4.379  12.806 -10.330  0.00  0.00    +0.000 OA
ATOM     10  H   UNL     1      -4.897  12.149 -10.833  0.00  0.00    +0.000 HD
ENDBRANCH   6   9
TORSDOF 2
ENDMDL
MODEL 8
REMARK VINA RESULT:    -3.342      1.805      2.549
REMARK INTER + INTRA:          -3.688
REMARK INTER:                  -3.646
REMARK INTRA:                  -0.042
REMARK UNBOUND:                -0.052
REMARK  Name = 
REMARK  3 active torsions:
REMARK  status: ('A' for Active; 'I' for Inactive)
REMARK    1  A    between atoms: C_1  and  O_2
REMARK    2  A    between atoms: O_2  and  C_3
REMARK    3  A    between atoms: C_8  and  O_9
REMARK                            x       y       z     vdW  Elec       q    Type
REMARK                         _______ _______ _______ _____ _____    ______ ____
ROOT
ATOM      1  C   UNL     1       5.588  23.219   2.234  0.00  0.00    +0.000 A 
ATOM      2  C   UNL     1       4.526  22.544   2.833  0.00  0.00    +0.000 A 
ATOM      3  C   UNL     1       4.777  21.553   3.791  0.00  0.00    +0.000 A 
ATOM      4  C   UNL     1       6.087  21.234   4.152  0.00  0.00    +0.000 A 
ATOM      5  C   UNL     1       7.154  21.905   3.558  0.00  0.00    +0.000 A 
ATOM      6  C   UNL     1       6.896  22.885   2.609  0.00  0.00    +0.000 A 
ENDROOT
BRANCH   1   8
ATOM      7  C   UNL     1       4.404  24.105   0.374  0.00  0.00    +0.000 C 
ATOM      8  O   UNL     1       5.491  24.206   1.286  0.00  0.00    +0.000 OA
ENDBRANCH   1   8
BRANCH   6   9
ATOM      9  O   UNL     1       7.961  23.531   2.039  0.00  0.00    +0.000 OA
ATOM     10  H   UNL     1       8.173  24.254   2.659  0.00  0.00    +0.000 HD
ENDBRANCH   6   9
TORSDOF 2
ENDMDL
