MODEL 1
REMARK VINA RESULT:    -3.597      0.000      0.000
REMARK INTER + INTRA:          -3.964
REMARK INTER:                  -3.912
REMARK INTRA:                  -0.052
REMARK UNBOUND:                -0.052
REMARK  Name = 
REMARK  3 active torsions:
REMARK  status: ('A' for Active; 'I' for Inactive)
REMARK    1  A    between atoms: C_1  and  O_2
REMARK    2  A    between atoms: O_2  and  C_3
REMARK    3  A    between atoms: C_8  and  O_9
REMARK                            x       y       z     vdW  Elec       q    Type
REMARK                         _______ _______ _______ _____ _____    ______ ____
ROOT
ATOM      1  C   UNL     1      -0.166  21.767  -7.863  0.00  0.00    +0.000 A 
ATOM      2  C   UNL     1      -0.308  22.138  -6.527  0.00  0.00    +0.000 A 
ATOM      3  C   UNL     1      -0.063  21.206  -5.511  0.00  0.00    +0.000 A 
ATOM      4  C   UNL     1       0.324  19.901  -5.826  0.00  0.00    +0.000 A 
ATOM      5  C   UNL     1       0.468  19.523  -7.159  0.00  0.00    +0.000 A 
ATOM      6  C   UNL     1       0.222  20.454  -8.160  0.00  0.00    +0.000 A 
ENDROOT
BRANCH   1   8
ATOM      7  C   UNL     1       0.433  23.740  -9.044  0.00  0.00    +0.000 C 
ATOM      8  O   UNL     1      -0.374  22.571  -8.955  0.00  0.00    +0.000 OA
ENDBRANCH   1   8
BRANCH   6   9
ATOM      9  O   UNL     1       0.370  20.059  -9.462  0.00  0.00    +0.000 OA
ATOM     10  H   UNL     1       1.236  19.609  -9.488  0.00  0.00    +0.000 HD
ENDBRANCH   6   9
TORSDOF 2
ENDMDL
MODEL 2
REMARK VINA RESULT:    -3.491      2.933      3.526
REMARK INTER + INTRA:          -3.849
REMARK INTER:                  -3.802
REMARK INTRA:                  -0.048
REMARK UNBOUND:                -0.052
REMARK  Name = 
REMARK  3 active torsions:
REMARK  status: ('A' for Active; 'I' for Inactive)
REMARK    1  A    between atoms: C_1  and  O_2
REMARK    2  A    between atoms: O_2  and  C_3
REMARK    3  A    between atoms: C_8  and  O_9
REMARK                            x       y       z     vdW  Elec       q    Type
REMARK                         _______ _______ _______ _____ _____    ______ ____
ROOT
ATOM      1  C   UNL     1      -0.869  19.152  -6.616  0.00  0.00    +0.000 A 
ATOM      2  C   UNL     1      -1.905  20.012  -6.255  0.00  0.00    +0.000 A 
ATOM      3  C   UNL     1      -3.086  19.494  -5.708  0.00  0.00    +0.000 A 
ATOM      4  C   UNL     1      -3.236  18.119  -5.521  0.00  0.00    +0.000 A 
ATOM      5  C   UNL     1      -2.205  17.253  -5.878  0.00  0.00    +0.000 A 
ATOM      6  C   UNL     1      -1.037  17.776  -6.420  0.00  0.00    +0.000 A 
ENDROOT
BRANCH   1   8
ATOM      7  C   UNL     1       0.289  20.426  -8.254  0.00  0.00    +0.000 C 
ATOM      8  O   UNL     1       0.336  19.517  -7.160  0.00  0.00    +0.000 OA
ENDBRANCH   1   8
BRANCH   6   9
ATOM      9  O   UNL     1      -0.038  16.905  -6.764  0.00  0.00    +0.000 OA
ATOM     10  H   UNL     1       0.678  17.084  -6.125  0.00  0.00    +0.000 HD
ENDBRANCH   6   9
TORSDOF 2
ENDMDL
MODEL 3
REMARK VINA RESULT:    -3.465      2.670      3.095
REMARK INTER + INTRA:          -3.820
REMARK INTER:                  -3.769
REMARK INTRA:                  -0.051
REMARK UNBOUND:                -0.052
REMARK  Name = 
REMARK  3 active torsions:
REMARK  status: ('A' for Active; 'I' for Inactive)
REMARK    1  A    between atoms: C_1  and  O_2
REMARK    2  A    between atoms: O_2  and  C_3
REMARK    3  A    between atoms: C_8  and  O_9
REMARK                            x       y       z     vdW  Elec       q    Type
REMARK                         _______ _______ _______ _____ _____    ______ ____
ROOT
ATOM      1  C   UNL     1      -1.628  19.938  -6.672  0.00  0.00    +0.000 A 
ATOM      2  C   UNL     1      -2.859  19.798  -6.032  0.00  0.00    +0.000 A 
ATOM      3  C   UNL     1      -3.262  18.543  -5.558  0.00  0.00    +0.000 A 
ATOM      4  C   UNL     1      -2.440  17.427  -5.721  0.00  0.00    +0.000 A 
ATOM      5  C   UNL     1      -1.208  17.559  -6.359  0.00  0.00    +0.000 A 
ATOM      6  C   UNL     1      -0.817  18.807  -6.827  0.00  0.00    +0.000 A 
ENDROOT
BRANCH   1   8
ATOM      7  C   UNL     1      -0.697  22.081  -6.241  0.00  0.00    +0.000 C 
ATOM      8  O   UNL     1      -1.108  21.099  -7.185  0.00  0.00    +0.000 OA
ENDBRANCH   1   8
BRANCH   6   9
ATOM      9  O   UNL     1       0.398  18.912  -7.450  0.00  0.00    +0.000 OA
ATOM     10  H   UNL     1       0.257  19.567  -8.160  0.00  0.00    +0.000 HD
ENDBRANCH   6   9
TORSDOF 2
ENDMDL
MODEL 4
REMARK VINA RESULT:    -3.461      1.275      3.101
REMARK INTER + INTRA:          -3.817
REMARK INTER:                  -3.766
REMARK INTRA:                  -0.050
REMARK UNBOUND:                -0.052
REMARK  Name = 
REMARK  3 active torsions:
REMARK  status: ('A' for Active; 'I' for Inactive)
REMARK    1  A    between atoms: C_1  and  O_2
REMARK    2  A    between atoms: O_2  and  C_3
REMARK    3  A    between atoms: C_8  and  O_9
REMARK                            x       y       z     vdW  Elec       q    Type
REMARK                         _______ _______ _______ _____ _____    ______ ____
ROOT
ATOM      1  C   UNL     1       0.084  20.229  -7.078  0.00  0.00    +0.000 A 
ATOM      2  C   UNL     1      -0.197  21.042  -5.982  0.00  0.00    +0.000 A 
ATOM      3  C   UNL     1      -0.439  22.409  -6.168  0.00  0.00    +0.000 A 
ATOM      4  C   UNL     1      -0.398  22.967  -7.448  0.00  0.00    +0.000 A 
ATOM      5  C   UNL     1      -0.118  22.160  -8.548  0.00  0.00    +0.000 A 
ATOM      6  C   UNL     1       0.120  20.806  -8.353  0.00  0.00    +0.000 A 
ENDROOT
BRANCH   1   8
ATOM      7  C   UNL     1      -0.646  18.064  -6.425  0.00  0.00    +0.000 C 
ATOM      8  O   UNL     1       0.340  18.881  -7.044  0.00  0.00    +0.000 OA
ENDBRANCH   1   8
BRANCH   6   9
ATOM      9  O   UNL     1       0.394  20.033  -9.451  0.00  0.00    +0.000 OA
ATOM     10  H   UNL     1       1.081  19.408  -9.149  0.00  0.00    +0.000 HD
ENDBRANCH   6   9
TORSDOF 2
ENDMDL
MODEL 5
REMARK VINA RESULT:    -3.445      2.955      4.182
REMARK INTER + INTRA:          -3.799
REMARK INTER:                  -3.751
REMARK INTRA:                  -0.048
REMARK UNBOUND:                -0.052
REMARK  Name = 
REMARK  3 active torsions:
REMARK  status: ('A' for Active; 'I' for Inactive)
REMARK    1  A    between atoms: C_1  and  O_2
REMARK    2  A    between atoms: O_2  and  C_3
REMARK    3  A    between atoms: C_8  and  O_9
REMARK                            x       y       z     vdW  Elec       q    Type
REMARK                         _______ _______ _______ _____ _____    ______ ____
ROOT
ATOM      1  C   UNL     1      -1.858  18.670  -6.288  0.00  0.00    +0.000 A 
ATOM      2  C   UNL     1      -2.332  19.922  -5.897  0.00  0.00    +0.000 A 
ATOM      3  C   UNL     1      -1.460  21.017  -5.852  0.00  0.00    +0.000 A 
ATOM      4  C   UNL     1      -0.115  20.865  -6.195  0.00  0.00    +0.000 A 
ATOM      5  C   UNL     1       0.366  19.618  -6.586  0.00  0.00    +0.000 A 
ATOM      6  C   UNL     1      -0.506  18.537  -6.628  0.00  0.00    +0.000 A 
ENDROOT
BRANCH   1   8
ATOM      7  C   UNL     1      -3.383  17.177  -5.242  0.00  0.00    +0.000 C 
ATOM      8  O   UNL     1      -2.595  17.516  -6.377  0.00  0.00    +0.000 OA
ENDBRANCH   1   8
BRANCH   6   9
ATOM      9  O   UNL     1      -0.011  17.321  -7.016  0.00  0.00    +0.000 OA
ATOM     10  H   UNL     1      -0.467  16.674  -6.446  0.00  0.00    +0.000 HD
ENDBRANCH   6   9
TORSDOF 2
ENDMDL
MODEL 6
REMARK VINA RESULT:    -3.426      2.900      3.879
REMARK INTER + INTRA:          -3.778
REMARK INTER:                  -3.732
REMARK INTRA:                  -0.045
REMARK UNBOUND:                -0.052
REMARK  Name = 
REMARK  3 active torsions:
REMARK  status: ('A' for Active; 'I' for Inactive)
REMARK    1  A    between atoms: C_1  and  O_2
REMARK    2  A    between atoms: O_2  and  C_3
REMARK    3  A    between atoms: C_8  and  O_9
REMARK                            x       y       z     vdW  Elec       q    Type
REMARK                         _______ _______ _______ _____ _____    ______ ____
ROOT
ATOM      1  C   UNL     1      -2.158  19.930  -6.045  0.00  0.00    +0.000 A 
ATOM      2  C   UNL     1      -2.510  18.590  -6.209  0.00  0.00    +0.000 A 
ATOM      3  C   UNL     1      -1.515  17.625  -6.404  0.00  0.00    +0.000 A 
ATOM      4  C   UNL     1      -0.168  17.992  -6.438  0.00  0.00    +0.000 A 
ATOM      5  C   UNL     1       0.191  19.328  -6.275  0.00  0.00    +0.000 A 
ATOM      6  C   UNL     1      -0.803  20.279  -6.082  0.00  0.00    +0.000 A 
ENDROOT
BRANCH   1   8
ATOM      7  C   UNL     1      -4.097  20.751  -4.943  0.00  0.00    +0.000 C 
ATOM      8  O   UNL     1      -3.022  20.977  -5.848  0.00  0.00    +0.000 OA
ENDBRANCH   1   8
BRANCH   6   9
ATOM      9  O   UNL     1      -0.425  21.586  -5.924  0.00  0.00    +0.000 OA
ATOM     10  H   UNL     1      -1.114  21.977  -5.354  0.00  0.00    +0.000 HD
ENDBRANCH   6   9
TORSDOF 2
ENDMDL
MODEL 7
REMARK VINA RESULT:    -3.422      1.090      2.308
REMARK INTER + INTRA:          -3.774
REMARK INTER:                  -3.731
REMARK INTRA:                  -0.044
REMARK UNBOUND:                -0.052
REMARK  Name = 
REMARK  3 active torsions:
REMARK  status: ('A' for Active; 'I' for Inactive)
REMARK    1  A    between atoms: C_1  and  O_2
REMARK    2  A    between atoms: O_2  and  C_3
REMARK    3  A    between atoms: C_8  and  O_9
REMARK                            x       y       z     vdW  Elec       q    Type
REMARK                         _______ _______ _______ _____ _____    ______ ____
ROOT
ATOM      1  C   UNL     1      -0.368  21.588  -7.927  0.00  0.00    +0.000 A 
ATOM      2  C   UNL     1       0.078  20.298  -8.209  0.00  0.00    +0.000 A 
ATOM      3  C   UNL     1       0.415  19.430  -7.163  0.00  0.00    +0.000 A 
ATOM      4  C   UNL     1       0.308  19.847  -5.835  0.00  0.00    +0.000 A 
ATOM      5  C   UNL     1      -0.137  21.135  -5.545  0.00  0.00    +0.000 A 
ATOM      6  C   UNL     1      -0.468  21.989  -6.589  0.00  0.00    +0.000 A 
ENDROOT
BRANCH   1   8
ATOM      7  C   UNL     1       0.044  22.599 -10.038  0.00  0.00    +0.000 C 
ATOM      8  O   UNL     1      -0.730  22.540  -8.846  0.00  0.00    +0.000 OA
ENDBRANCH   1   8
BRANCH   6   9
ATOM      9  O   UNL     1      -0.903  23.250  -6.279  0.00  0.00    +0.000 OA
ATOM     10  H   UNL     1      -0.891  23.284  -5.303  0.00  0.00    +0.000 HD
ENDBRANCH   6   9
TORSDOF 2
ENDMDL
MODEL 8
REMARK VINA RESULT:    -3.409     15.055     16.184
REMARK INTER + INTRA:          -3.760
REMARK INTER:                  -3.707
REMARK INTRA:                  -0.053
REMARK UNBOUND:                -0.052
REMARK  Name = 
REMARK  3 active torsions:
REMARK  status: ('A' for Active; 'I' for Inactive)
REMARK    1  A    between atoms: C_1  and  O_2
REMARK    2  A    between atoms: O_2  and  C_3
REMARK    3  A    between atoms: C_8  and  O_9
REMARK                            x       y       z     vdW  Elec       q    Type
REMARK                         _______ _______ _______ _____ _____    ______ ____
ROOT
ATOM      1  C   UNL     1       7.840  21.181   6.656  0.00  0.00    +0.000 A 
ATOM      2  C   UNL     1       9.122  21.463   7.125  0.00  0.00    +0.000 A 
ATOM      3  C   UNL     1      10.027  22.157   6.312  0.00  0.00    +0.000 A 
ATOM      4  C   UNL     1       9.656  22.570   5.031  0.00  0.00    +0.000 A 
ATOM      5  C   UNL     1       8.377  22.292   4.556  0.00  0.00    +0.000 A 
ATOM      6  C   UNL     1       7.485  21.603   5.368  0.00  0.00    +0.000 A 
ENDROOT
BRANCH   1   8
ATOM      7  C   UNL     1       7.104  19.142   7.631  0.00  0.00    +0.000 C 
ATOM      8  O   UNL     1       6.855  20.512   7.338  0.00  0.00    +0.000 OA
ENDBRANCH   1   8
BRANCH   6   9
ATOM      9  O   UNL     1       6.233  21.342   4.879  0.00  0.00    +0.000 OA
ATOM     10  H   UNL     1       5.714  22.142   5.085  0.00  0.00    +0.000 HD
ENDBRANCH   6   9
TORSDOF 2
ENDMDL
MODEL 9
REMARK VINA RESULT:    -3.403      3.637      4.321
REMARK INTER + INTRA:          -3.753
REMARK INTER:                  -3.714
REMARK INTRA:                  -0.039
REMARK UNBOUND:                -0.052
REMARK  Name = 
REMARK  3 active torsions:
REMARK  status: ('A' for Active; 'I' for Inactive)
REMARK    1  A    between atoms: C_1  and  O_2
REMARK    2  A    between atoms: O_2  and  C_3
REMARK    3  A    between atoms: C_8  and  O_9
REMARK                            x       y       z     vdW  Elec       q    Type
REMARK                         _______ _______ _______ _____ _____    ______ ____
ROOT
ATOM      1  C   UNL     1      -2.538  19.238  -5.862  0.00  0.00    +0.000 A 
ATOM      2  C   UNL     1      -1.648  20.245  -6.235  0.00  0.00    +0.000 A 
ATOM      3  C   UNL     1      -0.356  19.913  -6.662  0.00  0.00    +0.000 A 
ATOM      4  C   UNL     1       0.050  18.579  -6.717  0.00  0.00    +0.000 A 
ATOM      5  C   UNL     1      -0.833  17.568  -6.347  0.00  0.00    +0.000 A 
ATOM      6  C   UNL     1      -2.113  17.906  -5.925  0.00  0.00    +0.000 A 
ENDROOT
BRANCH   1   8
ATOM      7  C   UNL     1      -4.160  20.711  -4.941  0.00  0.00    +0.000 C 
ATOM      8  O   UNL     1      -3.827  19.416  -5.426  0.00  0.00    +0.000 OA
ENDBRANCH   1   8
BRANCH   6   9
ATOM      9  O   UNL     1      -2.963  16.894  -5.566  0.00  0.00    +0.000 OA
ATOM     10  H   UNL     1      -3.717  16.974  -6.181  0.00  0.00    +0.000 HD
ENDBRANCH   6   9
TORSDOF 2
ENDMDL
