MODEL 1
REMARK VINA RESULT:    -4.386      0.000      0.000
REMARK INTER + INTRA:          -4.815
REMARK INTER:                  -4.771
REMARK INTRA:                  -0.045
REMARK UNBOUND:                -0.045
REMARK  Name = 
REMARK  3 active torsions:
REMARK  status: ('A' for Active; 'I' for Inactive)
REMARK    1  A    between atoms: C_1  and  O_2
REMARK    2  A    between atoms: O_2  and  C_3
REMARK    3  A    between atoms: C_8  and  O_9
REMARK                            x       y       z     vdW  Elec       q    Type
REMARK                         _______ _______ _______ _____ _____    ______ ____
ROOT
ATOM      1  C   UNL     1       3.583  14.035  -2.614  0.00  0.00    +0.000 A 
ATOM      2  C   UNL     1       2.873  13.328  -1.645  0.00  0.00    +0.000 A 
ATOM      3  C   UNL     1       2.865  11.927  -1.667  0.00  0.00    +0.000 A 
ATOM      4  C   UNL     1       3.564  11.231  -2.655  0.00  0.00    +0.000 A 
ATOM      5  C   UNL     1       4.275  11.931  -3.626  0.00  0.00    +0.000 A 
ATOM      6  C   UNL     1       4.278  13.319  -3.597  0.00  0.00    +0.000 A 
ENDROOT
BRANCH   1   8
ATOM      7  C   UNL     1       2.488  16.139  -2.468  0.00  0.00    +0.000 C 
ATOM      8  O   UNL     1       3.678  15.400  -2.715  0.00  0.00    +0.000 OA
ENDBRANCH   1   8
BRANCH   6   9
ATOM      9  O   UNL     1       4.984  13.985  -4.563  0.00  0.00    +0.000 OA
ATOM     10  H   UNL     1       4.800  13.496  -5.387  0.00  0.00    +0.000 HD
ENDBRANCH   6   9
TORSDOF 2
ENDMDL
MODEL 2
REMARK VINA RESULT:    -4.312     11.208     11.928
REMARK INTER + INTRA:          -4.734
REMARK INTER:                  -4.688
REMARK INTRA:                  -0.046
REMARK UNBOUND:                -0.045
REMARK  Name = 
REMARK  3 active torsions:
REMARK  status: ('A' for Active; 'I' for Inactive)
REMARK    1  A    between atoms: C_1  and  O_2
REMARK    2  A    between atoms: O_2  and  C_3
REMARK    3  A    between atoms: C_8  and  O_9
REMARK                            x       y       z     vdW  Elec       q    Type
REMARK                         _______ _______ _______ _____ _____    ______ ____
ROOT
ATOM      1  C   UNL     1      -0.466  15.796 -13.291  0.00  0.00    +0.000 A 
ATOM      2  C   UNL     1       0.372  14.690 -13.430  0.00  0.00    +0.000 A 
ATOM      3  C   UNL     1       1.506  14.769 -14.247  0.00  0.00    +0.000 A 
ATOM      4  C   UNL     1       1.807  15.951 -14.928  0.00  0.00    +0.000 A 
ATOM      5  C   UNL     1       0.976  17.060 -14.794  0.00  0.00    +0.000 A 
ATOM      6  C   UNL     1      -0.148  16.972 -13.981  0.00  0.00    +0.000 A 
ENDROOT
BRANCH   1   8
ATOM      7  C   UNL     1      -1.423  15.923 -11.120  0.00  0.00    +0.000 C 
ATOM      8  O   UNL     1      -1.605  15.861 -12.530  0.00  0.00    +0.000 OA
ENDBRANCH   1   8
BRANCH   6   9
ATOM      9  O   UNL     1      -0.950  18.076 -13.866  0.00  0.00    +0.000 OA
ATOM     10  H   UNL     1      -0.528  18.618 -13.172  0.00  0.00    +0.000 HD
ENDBRANCH   6   9
TORSDOF 2
ENDMDL
MODEL 3
REMARK VINA RESULT:    -4.294      2.229      3.022
REMARK INTER + INTRA:          -4.715
REMARK INTER:                  -4.673
REMARK INTRA:                  -0.042
REMARK UNBOUND:                -0.045
REMARK  Name = 
REMARK  3 active torsions:
REMARK  status: ('A' for Active; 'I' for Inactive)
REMARK    1  A    between atoms: C_1  and  O_2
REMARK    2  A    between atoms: O_2  and  C_3
REMARK    3  A    between atoms: C_8  and  O_9
REMARK                            x       y       z     vdW  Elec       q    Type
REMARK                         _______ _______ _______ _____ _____    ______ ____
ROOT
ATOM      1  C   UNL     1       3.582  13.788  -1.174  0.00  0.00    +0.000 A 
ATOM      2  C   UNL     1       4.252  14.809  -1.846  0.00  0.00    +0.000 A 
ATOM      3  C   UNL     1       4.591  14.653  -3.196  0.00  0.00    +0.000 A 
ATOM      4  C   UNL     1       4.264  13.479  -3.877  0.00  0.00    +0.000 A 
ATOM      5  C   UNL     1       3.593  12.455  -3.212  0.00  0.00    +0.000 A 
ATOM      6  C   UNL     1       3.261  12.618  -1.873  0.00  0.00    +0.000 A 
ENDROOT
BRANCH   1   8
ATOM      7  C   UNL     1       4.032  14.508   1.046  0.00  0.00    +0.000 C 
ATOM      8  O   UNL     1       3.190  13.803   0.141  0.00  0.00    +0.000 OA
ENDBRANCH   1   8
BRANCH   6   9
ATOM      9  O   UNL     1       2.603  11.597  -1.241  0.00  0.00    +0.000 OA
ATOM     10  H   UNL     1       1.796  12.009  -0.878  0.00  0.00    +0.000 HD
ENDBRANCH   6   9
TORSDOF 2
ENDMDL
MODEL 4
REMARK VINA RESULT:    -4.203     10.872     11.549
REMARK INTER + INTRA:          -4.617
REMARK INTER:                  -4.572
REMARK INTRA:                  -0.044
REMARK UNBOUND:                -0.045
REMARK  Name = 
REMARK  3 active torsions:
REMARK  status: ('A' for Active; 'I' for Inactive)
REMARK    1  A    between atoms: C_1  and  O_2
REMARK    2  A    between atoms: O_2  and  C_3
REMARK    3  A    between atoms: C_8  and  O_9
REMARK                            x       y       z     vdW  Elec       q    Type
REMARK                         _______ _______ _______ _____ _____    ______ ____
ROOT
ATOM      1  C   UNL     1       0.001  15.382 -12.968  0.00  0.00    +0.000 A 
ATOM      2  C   UNL     1      -0.807  14.621 -13.811  0.00  0.00    +0.000 A 
ATOM      3  C   UNL     1      -0.387  14.341 -15.118  0.00  0.00    +0.000 A 
ATOM      4  C   UNL     1       0.838  14.820 -15.586  0.00  0.00    +0.000 A 
ATOM      5  C   UNL     1       1.651  15.581 -14.749  0.00  0.00    +0.000 A 
ATOM      6  C   UNL     1       1.227  15.854 -13.455  0.00  0.00    +0.000 A 
ENDROOT
BRANCH   1   8
ATOM      7  C   UNL     1      -1.631  16.082 -11.390  0.00  0.00    +0.000 C 
ATOM      8  O   UNL     1      -0.282  15.732 -11.672  0.00  0.00    +0.000 OA
ENDBRANCH   1   8
BRANCH   6   9
ATOM      9  O   UNL     1       2.043  16.604 -12.651  0.00  0.00    +0.000 OA
ATOM     10  H   UNL     1       2.419  15.967 -12.015  0.00  0.00    +0.000 HD
ENDBRANCH   6   9
TORSDOF 2
ENDMDL
MODEL 5
REMARK VINA RESULT:    -4.194      1.510      2.462
REMARK INTER + INTRA:          -4.606
REMARK INTER:                  -4.554
REMARK INTRA:                  -0.053
REMARK UNBOUND:                -0.045
REMARK  Name = 
REMARK  3 active torsions:
REMARK  status: ('A' for Active; 'I' for Inactive)
REMARK    1  A    between atoms: C_1  and  O_2
REMARK    2  A    between atoms: O_2  and  C_3
REMARK    3  A    between atoms: C_8  and  O_9
REMARK                            x       y       z     vdW  Elec       q    Type
REMARK                         _______ _______ _______ _____ _____    ______ ____
ROOT
ATOM      1  C   UNL     1       3.876  13.861  -2.406  0.00  0.00    +0.000 A 
ATOM      2  C   UNL     1       4.263  13.514  -3.700  0.00  0.00    +0.000 A 
ATOM      3  C   UNL     1       4.266  12.170  -4.092  0.00  0.00    +0.000 A 
ATOM      4  C   UNL     1       3.885  11.170  -3.195  0.00  0.00    +0.000 A 
ATOM      5  C   UNL     1       3.496  11.509  -1.901  0.00  0.00    +0.000 A 
ATOM      6  C   UNL     1       3.496  12.845  -1.521  0.00  0.00    +0.000 A 
ENDROOT
BRANCH   1   8
ATOM      7  C   UNL     1       5.071  15.798  -1.722  0.00  0.00    +0.000 C 
ATOM      8  O   UNL     1       3.826  15.131  -1.888  0.00  0.00    +0.000 OA
ENDBRANCH   1   8
BRANCH   6   9
ATOM      9  O   UNL     1       3.111  13.153  -0.243  0.00  0.00    +0.000 OA
ATOM     10  H   UNL     1       2.596  12.380   0.054  0.00  0.00    +0.000 HD
ENDBRANCH   6   9
TORSDOF 2
ENDMDL
MODEL 6
REMARK VINA RESULT:    -4.186     10.533     11.128
REMARK INTER + INTRA:          -4.597
REMARK INTER:                  -4.546
REMARK INTRA:                  -0.052
REMARK UNBOUND:                -0.045
REMARK  Name = 
REMARK  3 active torsions:
REMARK  status: ('A' for Active; 'I' for Inactive)
REMARK    1  A    between atoms: C_1  and  O_2
REMARK    2  A    between atoms: O_2  and  C_3
REMARK    3  A    between atoms: C_8  and  O_9
REMARK                            x       y       z     vdW  Elec       q    Type
REMARK                         _______ _______ _______ _____ _____    ______ ____
ROOT
ATOM      1  C   UNL     1      -0.731  15.743 -12.177  0.00  0.00    +0.000 A 
ATOM      2  C   UNL     1       0.661  15.676 -12.167  0.00  0.00    +0.000 A 
ATOM      3  C   UNL     1       1.336  14.994 -13.187  0.00  0.00    +0.000 A 
ATOM      4  C   UNL     1       0.625  14.376 -14.217  0.00  0.00    +0.000 A 
ATOM      5  C   UNL     1      -0.767  14.438 -14.234  0.00  0.00    +0.000 A 
ATOM      6  C   UNL     1      -1.428  15.117 -13.218  0.00  0.00    +0.000 A 
ENDROOT
BRANCH   1   8
ATOM      7  C   UNL     1      -1.582  15.775  -9.958  0.00  0.00    +0.000 C 
ATOM      8  O   UNL     1      -1.520  16.373 -11.248  0.00  0.00    +0.000 OA
ENDBRANCH   1   8
BRANCH   6   9
ATOM      9  O   UNL     1      -2.796  15.164 -13.256  0.00  0.00    +0.000 OA
ATOM     10  H   UNL     1      -3.062  14.331 -13.691  0.00  0.00    +0.000 HD
ENDBRANCH   6   9
TORSDOF 2
ENDMDL
MODEL 7
REMARK VINA RESULT:    -4.126     10.426     11.147
REMARK INTER + INTRA:          -4.532
REMARK INTER:                  -4.494
REMARK INTRA:                  -0.038
REMARK UNBOUND:                -0.045
REMARK  Name = 
REMARK  3 active torsions:
REMARK  status: ('A' for Active; 'I' for Inactive)
REMARK    1  A    between atoms: C_1  and  O_2
REMARK    2  A    between atoms: O_2  and  C_3
REMARK    3  A    between atoms: C_8  and  O_9
REMARK                            x       y       z     vdW  Elec       q    Type
REMARK                         _______ _______ _______ _____ _____    ______ ____
ROOT
ATOM      1  C   UNL     1      -1.079  16.065 -11.797  0.00  0.00    +0.000 A 
ATOM      2  C   UNL     1      -2.191  16.472 -12.533  0.00  0.00    +0.000 A 
ATOM      3  C   UNL     1      -2.045  16.844 -13.875  0.00  0.00    +0.000 A 
ATOM      4  C   UNL     1      -0.790  16.812 -14.486  0.00  0.00    +0.000 A 
ATOM      5  C   UNL     1       0.326  16.407 -13.758  0.00  0.00    +0.000 A 
ATOM      6  C   UNL     1       0.172  16.040 -12.427  0.00  0.00    +0.000 A 
ENDROOT
BRANCH   1   8
ATOM      7  C   UNL     1      -2.257  15.942  -9.737  0.00  0.00    +0.000 C 
ATOM      8  O   UNL     1      -1.074  15.676 -10.482  0.00  0.00    +0.000 OA
ENDBRANCH   1   8
BRANCH   6   9
ATOM      9  O   UNL     1       1.284  15.646 -11.732  0.00  0.00    +0.000 OA
ATOM     10  H   UNL     1       1.932  16.362 -11.872  0.00  0.00    +0.000 HD
ENDBRANCH   6   9
TORSDOF 2
ENDMDL
MODEL 8
REMARK VINA RESULT:    -4.052      1.443      3.105
REMARK INTER + INTRA:          -4.452
REMARK INTER:                  -4.399
REMARK INTRA:                  -0.053
REMARK UNBOUND:                -0.045
REMARK  Name = 
REMARK  3 active torsions:
REMARK  status: ('A' for Active; 'I' for Inactive)
REMARK    1  A    between atoms: C_1  and  O_2
REMARK    2  A    between atoms: O_2  and  C_3
REMARK    3  A    between atoms: C_8  and  O_9
REMARK                            x       y       z     vdW  Elec       q    Type
REMARK                         _______ _______ _______ _____ _____    ______ ____
ROOT
ATOM      1  C   UNL     1       3.522  13.237  -2.657  0.00  0.00    +0.000 A 
ATOM      2  C   UNL     1       2.884  13.523  -1.451  0.00  0.00    +0.000 A 
ATOM      3  C   UNL     1       3.102  14.754  -0.819  0.00  0.00    +0.000 A 
ATOM      4  C   UNL     1       3.956  15.700  -1.388  0.00  0.00    +0.000 A 
ATOM      5  C   UNL     1       4.597  15.421  -2.593  0.00  0.00    +0.000 A 
ATOM      6  C   UNL     1       4.376  14.198  -3.212  0.00  0.00    +0.000 A 
ENDROOT
BRANCH   1   8
ATOM      7  C   UNL     1       3.961  10.906  -2.801  0.00  0.00    +0.000 C 
ATOM      8  O   UNL     1       3.404  12.078  -3.382  0.00  0.00    +0.000 OA
ENDBRANCH   1   8
BRANCH   6   9
ATOM      9  O   UNL     1       5.017  13.947  -4.396  0.00  0.00    +0.000 OA
ATOM     10  H   UNL     1       4.329  14.056  -5.079  0.00  0.00    +0.000 HD
ENDBRANCH   6   9
TORSDOF 2
ENDMDL
MODEL 9
REMARK VINA RESULT:    -4.041      2.076      3.809
REMARK INTER + INTRA:          -4.440
REMARK INTER:                  -4.452
REMARK INTRA:                   0.011
REMARK UNBOUND:                -0.045
REMARK  Name = 
REMARK  3 active torsions:
REMARK  status: ('A' for Active; 'I' for Inactive)
REMARK    1  A    between atoms: C_1  and  O_2
REMARK    2  A    between atoms: O_2  and  C_3
REMARK    3  A    between atoms: C_8  and  O_9
REMARK                            x       y       z     vdW  Elec       q    Type
REMARK                         _______ _______ _______ _____ _____    ______ ____
ROOT
ATOM      1  C   UNL     1       3.758  13.518  -2.645  0.00  0.00    +0.000 A 
ATOM      2  C   UNL     1       4.446  14.527  -3.319  0.00  0.00    +0.000 A 
ATOM      3  C   UNL     1       4.988  15.602  -2.603  0.00  0.00    +0.000 A 
ATOM      4  C   UNL     1       4.844  15.674  -1.216  0.00  0.00    +0.000 A 
ATOM      5  C   UNL     1       4.158  14.670  -0.536  0.00  0.00    +0.000 A 
ATOM      6  C   UNL     1       3.624  13.607  -1.254  0.00  0.00    +0.000 A 
ENDROOT
BRANCH   1   8
ATOM      7  C   UNL     1       4.027  11.292  -3.433  0.00  0.00    +0.000 C 
ATOM      8  O   UNL     1       3.178  12.412  -3.214  0.00  0.00    +0.000 OA
ENDBRANCH   1   8
BRANCH   6   9
ATOM      9  O   UNL     1       2.954  12.632  -0.564  0.00  0.00    +0.000 OA
ATOM     10  H   UNL     1       2.856  11.899  -1.201  0.00  0.00    +0.000 HD
ENDBRANCH   6   9
TORSDOF 2
ENDMDL
