MODEL 1
REMARK VINA RESULT:    -4.110      0.000      0.000
REMARK INTER + INTRA:          -6.239
REMARK INTER:                  -5.552
REMARK INTRA:                  -0.687
REMARK UNBOUND:                -0.687
REMARK  Name = 
REMARK  10 active torsions:
REMARK  status: ('A' for Active; 'I' for Inactive)
REMARK    1  A    between atoms: C_1  and  C_2
REMARK    2  A    between atoms: C_5  and  N_8
REMARK    3  A    between atoms: N_8  and  C_9
REMARK    4  A    between atoms: N_8  and  C_13
REMARK    5  A    between atoms: C_9  and  C_10
REMARK    6  A    between atoms: C_10  and  C_11
REMARK    7  A    between atoms: C_10  and  O_12
REMARK    8  A    between atoms: C_13  and  C_14
REMARK    9  A    between atoms: C_14  and  C_15
REMARK   10  A    between atoms: C_14  and  O_16
REMARK                            x       y       z     vdW  Elec       q    Type
REMARK                         _______ _______ _______ _____ _____    ______ ____
ROOT
ATOM      1  N   UNL     1      14.740  10.789  12.327  0.00  0.00    +0.000 N 
ENDROOT
BRANCH   1   6
ATOM      2  C   UNL     1      15.458   8.866  17.723  0.00  0.00    +0.000 C 
ATOM      3  C   UNL     1      15.250   9.352  16.321  0.00  0.00    +0.000 A 
ATOM      4  C   UNL     1      15.790   8.665  15.239  0.00  0.00    +0.000 A 
ATOM      5  C   UNL     1      15.617   9.141  13.929  0.00  0.00    +0.000 A 
ATOM      6  C   UNL     1      14.924  10.330  13.637  0.00  0.00    +0.000 A 
ATOM      7  C   UNL     1      14.391  10.998  14.755  0.00  0.00    +0.000 A 
ATOM      8  C   UNL     1      14.554  10.531  16.069  0.00  0.00    +0.000 A 
ENDBRANCH   1   6
BRANCH   1   9
ATOM      9  C   UNL     1      15.897  11.280  11.541  0.00  0.00    +0.000 C 
BRANCH   9  10
ATOM     10  C   UNL     1      16.060  10.544  10.189  0.00  0.00    +0.000 C 
ATOM     11  C   UNL     1      17.399  10.880   9.543  0.00  0.00    +0.000 C 
BRANCH  10  12
ATOM     12  O   UNL     1      15.996   9.123  10.365  0.00  0.00    +0.000 OA
ATOM     13  H   UNL     1      16.902   8.794  10.491  0.00  0.00    +0.000 HD
ENDBRANCH  10  12
ENDBRANCH   9  10
ENDBRANCH   1   9
BRANCH   1  14
ATOM     14  C   UNL     1      13.417  11.282  11.864  0.00  0.00    +0.000 C 
BRANCH  14  15
ATOM     15  C   UNL     1      12.626  10.197  11.095  0.00  0.00    +0.000 C 
ATOM     16  C   UNL     1      12.452  10.517   9.615  0.00  0.00    +0.000 C 
BRANCH  15  17
ATOM     17  O   UNL     1      13.248   8.917  11.200  0.00  0.00    +0.000 OA
ATOM     18  H   UNL     1      13.667   8.768  10.328  0.00  0.00    +0.000 HD
ENDBRANCH  15  17
ENDBRANCH  14  15
ENDBRANCH   1  14
TORSDOF 7
ENDMDL
MODEL 2
REMARK VINA RESULT:    -3.640      5.740      9.321
REMARK INTER + INTRA:          -5.605
REMARK INTER:                  -5.115
REMARK INTRA:                  -0.489
REMARK UNBOUND:                -0.687
REMARK  Name = 
REMARK  10 active torsions:
REMARK  status: ('A' for Active; 'I' for Inactive)
REMARK    1  A    between atoms: C_1  and  C_2
REMARK    2  A    between atoms: C_5  and  N_8
REMARK    3  A    between atoms: N_8  and  C_9
REMARK    4  A    between atoms: N_8  and  C_13
REMARK    5  A    between atoms: C_9  and  C_10
REMARK    6  A    between atoms: C_10  and  C_11
REMARK    7  A    between atoms: C_10  and  O_12
REMARK    8  A    between atoms: C_13  and  C_14
REMARK    9  A    between atoms: C_14  and  C_15
REMARK   10  A    between atoms: C_14  and  O_16
REMARK                            x       y       z     vdW  Elec       q    Type
REMARK                         _______ _______ _______ _____ _____    ______ ____
ROOT
ATOM      1  N   UNL     1      16.528   7.710  20.636  0.00  0.00    +0.000 N 
ENDROOT
BRANCH   1   6
ATOM      2  C   UNL     1      15.912   8.670  14.977  0.00  0.00    +0.000 C 
ATOM      3  C   UNL     1      16.088   8.440  16.447  0.00  0.00    +0.000 A 
ATOM      4  C   UNL     1      17.059   7.565  16.922  0.00  0.00    +0.000 A 
ATOM      5  C   UNL     1      17.199   7.331  18.299  0.00  0.00    +0.000 A 
ATOM      6  C   UNL     1      16.370   7.934  19.262  0.00  0.00    +0.000 A 
ATOM      7  C   UNL     1      15.401   8.813  18.746  0.00  0.00    +0.000 A 
ATOM      8  C   UNL     1      15.251   9.058  17.371  0.00  0.00    +0.000 A 
ENDBRANCH   1   6
BRANCH   1   9
ATOM      9  C   UNL     1      15.990   6.475  21.255  0.00  0.00    +0.000 C 
BRANCH   9  10
ATOM     10  C   UNL     1      17.061   5.368  21.414  0.00  0.00    +0.000 C 
ATOM     11  C   UNL     1      17.135   4.884  22.857  0.00  0.00    +0.000 C 
BRANCH  10  12
ATOM     12  O   UNL     1      16.762   4.239  20.582  0.00  0.00    +0.000 OA
ATOM     13  H   UNL     1      16.147   3.663  21.065  0.00  0.00    +0.000 HD
ENDBRANCH  10  12
ENDBRANCH   9  10
ENDBRANCH   1   9
BRANCH   1  14
ATOM     14  C   UNL     1      16.744   8.838  21.578  0.00  0.00    +0.000 C 
BRANCH  14  15
ATOM     15  C   UNL     1      15.559   9.017  22.557  0.00  0.00    +0.000 C 
ATOM     16  C   UNL     1      15.974   9.601  23.902  0.00  0.00    +0.000 C 
BRANCH  15  17
ATOM     17  O   UNL     1      14.542   9.853  22.007  0.00  0.00    +0.000 OA
ATOM     18  H   UNL     1      14.631  10.705  22.481  0.00  0.00    +0.000 HD
ENDBRANCH  15  17
ENDBRANCH  14  15
ENDBRANCH   1  14
TORSDOF 7
ENDMDL
MODEL 3
REMARK VINA RESULT:    -3.550      6.182      9.961
REMARK INTER + INTRA:          -5.483
REMARK INTER:                  -4.897
REMARK INTRA:                  -0.585
REMARK UNBOUND:                -0.687
REMARK  Name = 
REMARK  10 active torsions:
REMARK  status: ('A' for Active; 'I' for Inactive)
REMARK    1  A    between atoms: C_1  and  C_2
REMARK    2  A    between atoms: C_5  and  N_8
REMARK    3  A    between atoms: N_8  and  C_9
REMARK    4  A    between atoms: N_8  and  C_13
REMARK    5  A    between atoms: C_9  and  C_10
REMARK    6  A    between atoms: C_10  and  C_11
REMARK    7  A    between atoms: C_10  and  O_12
REMARK    8  A    between atoms: C_13  and  C_14
REMARK    9  A    between atoms: C_14  and  C_15
REMARK   10  A    between atoms: C_14  and  O_16
REMARK                            x       y       z     vdW  Elec       q    Type
REMARK                         _______ _______ _______ _____ _____    ______ ____
ROOT
ATOM      1  N   UNL     1      16.226   7.808  21.086  0.00  0.00    +0.000 N 
ENDROOT
BRANCH   1   6
ATOM      2  C   UNL     1      16.370   8.313  15.337  0.00  0.00    +0.000 C 
ATOM      3  C   UNL     1      16.317   8.162  16.826  0.00  0.00    +0.000 A 
ATOM      4  C   UNL     1      15.381   8.860  17.582  0.00  0.00    +0.000 A 
ATOM      5  C   UNL     1      15.356   8.738  18.981  0.00  0.00    +0.000 A 
ATOM      6  C   UNL     1      16.269   7.940  19.692  0.00  0.00    +0.000 A 
ATOM      7  C   UNL     1      17.200   7.247  18.896  0.00  0.00    +0.000 A 
ATOM      8  C   UNL     1      17.235   7.358  17.496  0.00  0.00    +0.000 A 
ENDBRANCH   1   6
BRANCH   1   9
ATOM      9  C   UNL     1      15.657   8.895  21.918  0.00  0.00    +0.000 C 
BRANCH   9  10
ATOM     10  C   UNL     1      15.689   8.571  23.432  0.00  0.00    +0.000 C 
ATOM     11  C   UNL     1      15.743   9.849  24.261  0.00  0.00    +0.000 C 
BRANCH  10  12
ATOM     12  O   UNL     1      14.522   7.835  23.825  0.00  0.00    +0.000 OA
ATOM     13  H   UNL     1      14.700   7.430  24.690  0.00  0.00    +0.000 HD
ENDBRANCH  10  12
ENDBRANCH   9  10
ENDBRANCH   1   9
BRANCH   1  14
ATOM     14  C   UNL     1      17.154   6.895  21.801  0.00  0.00    +0.000 C 
BRANCH  14  15
ATOM     15  C   UNL     1      16.563   5.474  21.968  0.00  0.00    +0.000 C 
ATOM     16  C   UNL     1      16.982   4.800  23.269  0.00  0.00    +0.000 C 
BRANCH  15  17
ATOM     17  O   UNL     1      15.137   5.487  21.917  0.00  0.00    +0.000 OA
ATOM     18  H   UNL     1      14.879   6.360  22.277  0.00  0.00    +0.000 HD
ENDBRANCH  15  17
ENDBRANCH  14  15
ENDBRANCH   1  14
TORSDOF 7
ENDMDL
MODEL 4
REMARK VINA RESULT:    -3.229      5.139      8.364
REMARK INTER + INTRA:          -5.049
REMARK INTER:                  -4.508
REMARK INTRA:                  -0.541
REMARK UNBOUND:                -0.687
REMARK  Name = 
REMARK  10 active torsions:
REMARK  status: ('A' for Active; 'I' for Inactive)
REMARK    1  A    between atoms: C_1  and  C_2
REMARK    2  A    between atoms: C_5  and  N_8
REMARK    3  A    between atoms: N_8  and  C_9
REMARK    4  A    between atoms: N_8  and  C_13
REMARK    5  A    between atoms: C_9  and  C_10
REMARK    6  A    between atoms: C_10  and  C_11
REMARK    7  A    between atoms: C_10  and  O_12
REMARK    8  A    between atoms: C_13  and  C_14
REMARK    9  A    between atoms: C_14  and  C_15
REMARK   10  A    between atoms: C_14  and  O_16
REMARK                            x       y       z     vdW  Elec       q    Type
REMARK                         _______ _______ _______ _____ _____    ______ ____
ROOT
ATOM      1  N   UNL     1      16.352   8.154  19.226  0.00  0.00    +0.000 N 
ENDROOT
BRANCH   1   6
ATOM      2  C   UNL     1      15.556   9.132  13.592  0.00  0.00    +0.000 C 
ATOM      3  C   UNL     1      15.778   8.897  15.055  0.00  0.00    +0.000 A 
ATOM      4  C   UNL     1      16.761   8.017  15.496  0.00  0.00    +0.000 A 
ATOM      5  C   UNL     1      16.945   7.778  16.867  0.00  0.00    +0.000 A 
ATOM      6  C   UNL     1      16.150   8.382  17.859  0.00  0.00    +0.000 A 
ATOM      7  C   UNL     1      15.169   9.267  17.377  0.00  0.00    +0.000 A 
ATOM      8  C   UNL     1      14.975   9.516  16.008  0.00  0.00    +0.000 A 
ENDBRANCH   1   6
BRANCH   1   9
ATOM      9  C   UNL     1      17.192   7.016  19.673  0.00  0.00    +0.000 C 
BRANCH   9  10
ATOM     10  C   UNL     1      16.728   6.425  21.027  0.00  0.00    +0.000 C 
ATOM     11  C   UNL     1      16.894   4.910  21.046  0.00  0.00    +0.000 C 
BRANCH  10  12
ATOM     12  O   UNL     1      17.490   6.969  22.114  0.00  0.00    +0.000 OA
ATOM     13  H   UNL     1      18.284   6.421  22.230  0.00  0.00    +0.000 HD
ENDBRANCH  10  12
ENDBRANCH   9  10
ENDBRANCH   1   9
BRANCH   1  14
ATOM     14  C   UNL     1      15.391   8.657  20.240  0.00  0.00    +0.000 C 
BRANCH  14  15
ATOM     15  C   UNL     1      15.818  10.026  20.821  0.00  0.00    +0.000 C 
ATOM     16  C   UNL     1      14.763  10.649  21.726  0.00  0.00    +0.000 C 
BRANCH  15  17
ATOM     17  O   UNL     1      17.034   9.928  21.561  0.00  0.00    +0.000 OA
ATOM     18  H   UNL     1      17.453   9.101  21.250  0.00  0.00    +0.000 HD
ENDBRANCH  15  17
ENDBRANCH  14  15
ENDBRANCH   1  14
TORSDOF 7
ENDMDL
MODEL 5
REMARK VINA RESULT:    -3.152      1.521      2.124
REMARK INTER + INTRA:          -4.944
REMARK INTER:                  -5.147
REMARK INTRA:                   0.203
REMARK UNBOUND:                -0.687
REMARK  Name = 
REMARK  10 active torsions:
REMARK  status: ('A' for Active; 'I' for Inactive)
REMARK    1  A    between atoms: C_1  and  C_2
REMARK    2  A    between atoms: C_5  and  N_8
REMARK    3  A    between atoms: N_8  and  C_9
REMARK    4  A    between atoms: N_8  and  C_13
REMARK    5  A    between atoms: C_9  and  C_10
REMARK    6  A    between atoms: C_10  and  C_11
REMARK    7  A    between atoms: C_10  and  O_12
REMARK    8  A    between atoms: C_13  and  C_14
REMARK    9  A    between atoms: C_14  and  C_15
REMARK   10  A    between atoms: C_14  and  O_16
REMARK                            x       y       z     vdW  Elec       q    Type
REMARK                         _______ _______ _______ _____ _____    ______ ____
ROOT
ATOM      1  N   UNL     1      15.387   9.490  13.168  0.00  0.00    +0.000 N 
ENDROOT
BRANCH   1   6
ATOM      2  C   UNL     1      16.335   8.184  18.710  0.00  0.00    +0.000 C 
ATOM      3  C   UNL     1      16.106   8.541  17.274  0.00  0.00    +0.000 A 
ATOM      4  C   UNL     1      15.087   9.416  16.910  0.00  0.00    +0.000 A 
ATOM      5  C   UNL     1      14.857   9.724  15.559  0.00  0.00    +0.000 A 
ATOM      6  C   UNL     1      15.609   9.163  14.511  0.00  0.00    +0.000 A 
ATOM      7  C   UNL     1      16.631   8.285  14.916  0.00  0.00    +0.000 A 
ATOM      8  C   UNL     1      16.874   7.970  16.264  0.00  0.00    +0.000 A 
ENDBRANCH   1   6
BRANCH   1   9
ATOM      9  C   UNL     1      16.410   9.166  12.145  0.00  0.00    +0.000 C 
BRANCH   9  10
ATOM     10  C   UNL     1      17.466  10.286  11.976  0.00  0.00    +0.000 C 
ATOM     11  C   UNL     1      17.321  10.972  10.623  0.00  0.00    +0.000 C 
BRANCH  10  12
ATOM     12  O   UNL     1      17.325  11.284  12.997  0.00  0.00    +0.000 OA
ATOM     13  H   UNL     1      17.992  11.110  13.682  0.00  0.00    +0.000 HD
ENDBRANCH  10  12
ENDBRANCH   9  10
ENDBRANCH   1   9
BRANCH   1  14
ATOM     14  C   UNL     1      14.442  10.571  12.786  0.00  0.00    +0.000 C 
BRANCH  14  15
ATOM     15  C   UNL     1      13.394  10.092  11.753  0.00  0.00    +0.000 C 
ATOM     16  C   UNL     1      13.577  10.722  10.377  0.00  0.00    +0.000 C 
BRANCH  15  17
ATOM     17  O   UNL     1      13.417   8.675  11.596  0.00  0.00    +0.000 OA
ATOM     18  H   UNL     1      13.467   8.320  12.507  0.00  0.00    +0.000 HD
ENDBRANCH  15  17
ENDBRANCH  14  15
ENDBRANCH   1  14
TORSDOF 7
ENDMDL
MODEL 6
REMARK VINA RESULT:    -3.035      5.791      9.141
REMARK INTER + INTRA:          -4.787
REMARK INTER:                  -4.248
REMARK INTRA:                  -0.539
REMARK UNBOUND:                -0.687
REMARK  Name = 
REMARK  10 active torsions:
REMARK  status: ('A' for Active; 'I' for Inactive)
REMARK    1  A    between atoms: C_1  and  C_2
REMARK    2  A    between atoms: C_5  and  N_8
REMARK    3  A    between atoms: N_8  and  C_9
REMARK    4  A    between atoms: N_8  and  C_13
REMARK    5  A    between atoms: C_9  and  C_10
REMARK    6  A    between atoms: C_10  and  C_11
REMARK    7  A    between atoms: C_10  and  O_12
REMARK    8  A    between atoms: C_13  and  C_14
REMARK    9  A    between atoms: C_14  and  C_15
REMARK   10  A    between atoms: C_14  and  O_16
REMARK                            x       y       z     vdW  Elec       q    Type
REMARK                         _______ _______ _______ _____ _____    ______ ____
ROOT
ATOM      1  N   UNL     1      16.462   7.679  20.643  0.00  0.00    +0.000 N 
ENDROOT
BRANCH   1   6
ATOM      2  C   UNL     1      15.974   8.616  14.967  0.00  0.00    +0.000 C 
ATOM      3  C   UNL     1      16.116   8.392  16.442  0.00  0.00    +0.000 A 
ATOM      4  C   UNL     1      17.082   7.525  16.943  0.00  0.00    +0.000 A 
ATOM      5  C   UNL     1      17.191   7.296  18.324  0.00  0.00    +0.000 A 
ATOM      6  C   UNL     1      16.335   7.897  19.265  0.00  0.00    +0.000 A 
ATOM      7  C   UNL     1      15.372   8.768  18.723  0.00  0.00    +0.000 A 
ATOM      8  C   UNL     1      15.254   9.008  17.344  0.00  0.00    +0.000 A 
ENDBRANCH   1   6
BRANCH   1   9
ATOM      9  C   UNL     1      17.498   8.403  21.418  0.00  0.00    +0.000 C 
BRANCH   9  10
ATOM     10  C   UNL     1      16.967   9.713  22.051  0.00  0.00    +0.000 C 
ATOM     11  C   UNL     1      17.311  10.917  21.182  0.00  0.00    +0.000 C 
BRANCH  10  12
ATOM     12  O   UNL     1      15.542   9.669  22.206  0.00  0.00    +0.000 OA
ATOM     13  H   UNL     1      15.276   8.738  22.289  0.00  0.00    +0.000 HD
ENDBRANCH  10  12
ENDBRANCH   9  10
ENDBRANCH   1   9
BRANCH   1  14
ATOM     14  C   UNL     1      15.977   6.423  21.271  0.00  0.00    +0.000 C 
BRANCH  14  15
ATOM     15  C   UNL     1      17.095   5.359  21.388  0.00  0.00    +0.000 C 
ATOM     16  C   UNL     1      17.379   4.943  22.826  0.00  0.00    +0.000 C 
BRANCH  15  17
ATOM     17  O   UNL     1      16.784   4.183  20.641  0.00  0.00    +0.000 OA
ATOM     18  H   UNL     1      16.902   4.440  19.705  0.00  0.00    +0.000 HD
ENDBRANCH  15  17
ENDBRANCH  14  15
ENDBRANCH   1  14
TORSDOF 7
ENDMDL
MODEL 7
REMARK VINA RESULT:    -3.032      5.618      8.592
REMARK INTER + INTRA:          -4.783
REMARK INTER:                  -4.256
REMARK INTRA:                  -0.527
REMARK UNBOUND:                -0.687
REMARK  Name = 
REMARK  10 active torsions:
REMARK  status: ('A' for Active; 'I' for Inactive)
REMARK    1  A    between atoms: C_1  and  C_2
REMARK    2  A    between atoms: C_5  and  N_8
REMARK    3  A    between atoms: N_8  and  C_9
REMARK    4  A    between atoms: N_8  and  C_13
REMARK    5  A    between atoms: C_9  and  C_10
REMARK    6  A    between atoms: C_10  and  C_11
REMARK    7  A    between atoms: C_10  and  O_12
REMARK    8  A    between atoms: C_13  and  C_14
REMARK    9  A    between atoms: C_14  and  C_15
REMARK   10  A    between atoms: C_14  and  O_16
REMARK                            x       y       z     vdW  Elec       q    Type
REMARK                         _______ _______ _______ _____ _____    ______ ____
ROOT
ATOM      1  N   UNL     1      16.854   8.233  20.115  0.00  0.00    +0.000 N 
ENDROOT
BRANCH   1   6
ATOM      2  C   UNL     1      16.805   4.249  24.293  0.00  0.00    +0.000 C 
ATOM      3  C   UNL     1      16.792   5.283  23.209  0.00  0.00    +0.000 A 
ATOM      4  C   UNL     1      16.815   4.913  21.868  0.00  0.00    +0.000 A 
ATOM      5  C   UNL     1      16.834   5.887  20.857  0.00  0.00    +0.000 A 
ATOM      6  C   UNL     1      16.855   7.267  21.129  0.00  0.00    +0.000 A 
ATOM      7  C   UNL     1      16.830   7.605  22.494  0.00  0.00    +0.000 A 
ATOM      8  C   UNL     1      16.809   6.641  23.516  0.00  0.00    +0.000 A 
ENDBRANCH   1   6
BRANCH   1   9
ATOM      9  C   UNL     1      17.421   7.913  18.782  0.00  0.00    +0.000 C 
BRANCH   9  10
ATOM     10  C   UNL     1      16.384   8.046  17.641  0.00  0.00    +0.000 C 
ATOM     11  C   UNL     1      16.693   9.252  16.761  0.00  0.00    +0.000 C 
BRANCH  10  12
ATOM     12  O   UNL     1      16.381   6.878  16.809  0.00  0.00    +0.000 OA
ATOM     13  H   UNL     1      15.809   6.212  17.225  0.00  0.00    +0.000 HD
ENDBRANCH  10  12
ENDBRANCH   9  10
ENDBRANCH   1   9
BRANCH   1  14
ATOM     14  C   UNL     1      16.789   9.682  20.433  0.00  0.00    +0.000 C 
BRANCH  14  15
ATOM     15  C   UNL     1      15.352  10.244  20.309  0.00  0.00    +0.000 C 
ATOM     16  C   UNL     1      14.804  10.786  21.624  0.00  0.00    +0.000 C 
BRANCH  15  17
ATOM     17  O   UNL     1      15.274  11.284  19.336  0.00  0.00    +0.000 OA
ATOM     18  H   UNL     1      15.432  12.110  19.835  0.00  0.00    +0.000 HD
ENDBRANCH  15  17
ENDBRANCH  14  15
ENDBRANCH   1  14
TORSDOF 7
ENDMDL
MODEL 8
REMARK VINA RESULT:    -2.821     24.105     26.021
REMARK INTER + INTRA:          -4.498
REMARK INTER:                  -4.370
REMARK INTRA:                  -0.128
REMARK UNBOUND:                -0.687
REMARK  Name = 
REMARK  10 active torsions:
REMARK  status: ('A' for Active; 'I' for Inactive)
REMARK    1  A    between atoms: C_1  and  C_2
REMARK    2  A    between atoms: C_5  and  N_8
REMARK    3  A    between atoms: N_8  and  C_9
REMARK    4  A    between atoms: N_8  and  C_13
REMARK    5  A    between atoms: C_9  and  C_10
REMARK    6  A    between atoms: C_10  and  C_11
REMARK    7  A    between atoms: C_10  and  O_12
REMARK    8  A    between atoms: C_13  and  C_14
REMARK    9  A    between atoms: C_14  and  C_15
REMARK   10  A    between atoms: C_14  and  O_16
REMARK                            x       y       z     vdW  Elec       q    Type
REMARK                         _______ _______ _______ _____ _____    ______ ____
ROOT
ATOM      1  N   UNL     1       2.475  -9.917  22.286  0.00  0.00    +0.000 N 
ENDROOT
BRANCH   1   6
ATOM      2  C   UNL     1      -3.211 -10.561  21.523  0.00  0.00    +0.000 C 
ATOM      3  C   UNL     1      -1.732 -10.416  21.711  0.00  0.00    +0.000 A 
ATOM      4  C   UNL     1      -1.119 -10.814  22.895  0.00  0.00    +0.000 A 
ATOM      5  C   UNL     1       0.263 -10.648  23.077  0.00  0.00    +0.000 A 
ATOM      6  C   UNL     1       1.094 -10.061  22.105  0.00  0.00    +0.000 A 
ATOM      7  C   UNL     1       0.442  -9.673  20.921  0.00  0.00    +0.000 A 
ATOM      8  C   UNL     1      -0.940  -9.835  20.725  0.00  0.00    +0.000 A 
ENDBRANCH   1   6
BRANCH   1   9
ATOM      9  C   UNL     1       3.290  -9.217  21.263  0.00  0.00    +0.000 C 
BRANCH   9  10
ATOM     10  C   UNL     1       4.580  -8.593  21.847  0.00  0.00    +0.000 C 
ATOM     11  C   UNL     1       5.813  -9.365  21.394  0.00  0.00    +0.000 C 
BRANCH  10  12
ATOM     12  O   UNL     1       4.730  -7.230  21.426  0.00  0.00    +0.000 OA
ATOM     13  H   UNL     1       3.857  -6.901  21.154  0.00  0.00    +0.000 HD
ENDBRANCH  10  12
ENDBRANCH   9  10
ENDBRANCH   1   9
BRANCH   1  14
ATOM     14  C   UNL     1       3.237 -10.841  23.164  0.00  0.00    +0.000 C 
BRANCH  14  15
ATOM     15  C   UNL     1       3.392 -10.287  24.601  0.00  0.00    +0.000 C 
ATOM     16  C   UNL     1       4.835 -10.284  25.090  0.00  0.00    +0.000 C 
BRANCH  15  17
ATOM     17  O   UNL     1       2.885  -8.957  24.710  0.00  0.00    +0.000 OA
ATOM     18  H   UNL     1       3.587  -8.388  24.336  0.00  0.00    +0.000 HD
ENDBRANCH  15  17
ENDBRANCH  14  15
ENDBRANCH   1  14
TORSDOF 7
ENDMDL
