MODEL 1
REMARK VINA RESULT:    -4.001      0.000      0.000
REMARK INTER + INTRA:          -4.398
REMARK INTER:                  -4.352
REMARK INTRA:                  -0.046
REMARK UNBOUND:                -0.046
REMARK  Name = 
REMARK  3 active torsions:
REMARK  status: ('A' for Active; 'I' for Inactive)
REMARK    1  A    between atoms: C_1  and  O_2
REMARK    2  A    between atoms: O_2  and  C_3
REMARK    3  A    between atoms: C_8  and  O_9
REMARK                            x       y       z     vdW  Elec       q    Type
REMARK                         _______ _______ _______ _____ _____    ______ ____
ROOT
ATOM      1  C   UNL     1      -6.317   0.075 -19.395  0.00  0.00    +0.000 A 
ATOM      2  C   UNL     1      -6.004   1.099 -20.289  0.00  0.00    +0.000 A 
ATOM      3  C   UNL     1      -5.292   2.220 -19.846  0.00  0.00    +0.000 A 
ATOM      4  C   UNL     1      -4.891   2.324 -18.513  0.00  0.00    +0.000 A 
ATOM      5  C   UNL     1      -5.200   1.306 -17.614  0.00  0.00    +0.000 A 
ATOM      6  C   UNL     1      -5.907   0.197 -18.061  0.00  0.00    +0.000 A 
ENDROOT
BRANCH   1   8
ATOM      7  C   UNL     1      -8.168  -0.929 -20.496  0.00  0.00    +0.000 C 
ATOM      8  O   UNL     1      -7.006  -1.074 -19.687  0.00  0.00    +0.000 OA
ENDBRANCH   1   8
BRANCH   6   9
ATOM      9  O   UNL     1      -6.199  -0.791 -17.159  0.00  0.00    +0.000 OA
ATOM     10  H   UNL     1      -6.437  -0.317 -16.340  0.00  0.00    +0.000 HD
ENDBRANCH   6   9
TORSDOF 2
ENDMDL
MODEL 2
REMARK VINA RESULT:    -3.989      2.307      3.136
REMARK INTER + INTRA:          -4.384
REMARK INTER:                  -4.347
REMARK INTRA:                  -0.037
REMARK UNBOUND:                -0.046
REMARK  Name = 
REMARK  3 active torsions:
REMARK  status: ('A' for Active; 'I' for Inactive)
REMARK    1  A    between atoms: C_1  and  O_2
REMARK    2  A    between atoms: O_2  and  C_3
REMARK    3  A    between atoms: C_8  and  O_9
REMARK                            x       y       z     vdW  Elec       q    Type
REMARK                         _______ _______ _______ _____ _____    ______ ____
ROOT
ATOM      1  C   UNL     1      -5.474   1.771 -20.166  0.00  0.00    +0.000 A 
ATOM      2  C   UNL     1      -5.739   0.494 -20.660  0.00  0.00    +0.000 A 
ATOM      3  C   UNL     1      -5.889  -0.582 -19.776  0.00  0.00    +0.000 A 
ATOM      4  C   UNL     1      -5.774  -0.387 -18.399  0.00  0.00    +0.000 A 
ATOM      5  C   UNL     1      -5.510   0.886 -17.897  0.00  0.00    +0.000 A 
ATOM      6  C   UNL     1      -5.363   1.947 -18.781  0.00  0.00    +0.000 A 
ENDROOT
BRANCH   1   8
ATOM      7  C   UNL     1      -5.401   2.766 -22.323  0.00  0.00    +0.000 C 
ATOM      8  O   UNL     1      -5.304   2.910 -20.911  0.00  0.00    +0.000 OA
ENDBRANCH   1   8
BRANCH   6   9
ATOM      9  O   UNL     1      -5.104   3.188 -18.264  0.00  0.00    +0.000 OA
ATOM     10  H   UNL     1      -5.976   3.623 -18.213  0.00  0.00    +0.000 HD
ENDBRANCH   6   9
TORSDOF 2
ENDMDL
MODEL 3
REMARK VINA RESULT:    -3.670      1.793      2.842
REMARK INTER + INTRA:          -4.038
REMARK INTER:                  -4.000
REMARK INTRA:                  -0.038
REMARK UNBOUND:                -0.046
REMARK  Name = 
REMARK  3 active torsions:
REMARK  status: ('A' for Active; 'I' for Inactive)
REMARK    1  A    between atoms: C_1  and  O_2
REMARK    2  A    between atoms: O_2  and  C_3
REMARK    3  A    between atoms: C_8  and  O_9
REMARK                            x       y       z     vdW  Elec       q    Type
REMARK                         _______ _______ _______ _____ _____    ______ ____
ROOT
ATOM      1  C   UNL     1      -5.824   0.949 -19.211  0.00  0.00    +0.000 A 
ATOM      2  C   UNL     1      -6.247   0.248 -20.339  0.00  0.00    +0.000 A 
ATOM      3  C   UNL     1      -6.180   0.849 -21.603  0.00  0.00    +0.000 A 
ATOM      4  C   UNL     1      -5.693   2.150 -21.743  0.00  0.00    +0.000 A 
ATOM      5  C   UNL     1      -5.268   2.857 -20.620  0.00  0.00    +0.000 A 
ATOM      6  C   UNL     1      -5.337   2.253 -19.371  0.00  0.00    +0.000 A 
ENDROOT
BRANCH   1   8
ATOM      7  C   UNL     1      -5.992  -0.915 -17.747  0.00  0.00    +0.000 C 
ATOM      8  O   UNL     1      -5.832   0.488 -17.919  0.00  0.00    +0.000 OA
ENDBRANCH   1   8
BRANCH   6   9
ATOM      9  O   UNL     1      -4.914   2.968 -18.283  0.00  0.00    +0.000 OA
ATOM     10  H   UNL     1      -4.442   3.735 -18.658  0.00  0.00    +0.000 HD
ENDBRANCH   6   9
TORSDOF 2
ENDMDL
MODEL 4
REMARK VINA RESULT:    -3.618      1.758      1.990
REMARK INTER + INTRA:          -3.981
REMARK INTER:                  -3.943
REMARK INTRA:                  -0.038
REMARK UNBOUND:                -0.046
REMARK  Name = 
REMARK  3 active torsions:
REMARK  status: ('A' for Active; 'I' for Inactive)
REMARK    1  A    between atoms: C_1  and  O_2
REMARK    2  A    between atoms: O_2  and  C_3
REMARK    3  A    between atoms: C_8  and  O_9
REMARK                            x       y       z     vdW  Elec       q    Type
REMARK                         _______ _______ _______ _____ _____    ______ ____
ROOT
ATOM      1  C   UNL     1      -4.919   0.024 -20.274  0.00  0.00    +0.000 A 
ATOM      2  C   UNL     1      -4.922   1.264 -20.912  0.00  0.00    +0.000 A 
ATOM      3  C   UNL     1      -5.193   2.427 -20.180  0.00  0.00    +0.000 A 
ATOM      4  C   UNL     1      -5.461   2.355 -18.811  0.00  0.00    +0.000 A 
ATOM      5  C   UNL     1      -5.459   1.120 -18.167  0.00  0.00    +0.000 A 
ATOM      6  C   UNL     1      -5.190  -0.028 -18.901  0.00  0.00    +0.000 A 
ENDROOT
BRANCH   1   8
ATOM      7  C   UNL     1      -4.035  -1.161 -22.134  0.00  0.00    +0.000 C 
ATOM      8  O   UNL     1      -4.672  -1.190 -20.863  0.00  0.00    +0.000 OA
ENDBRANCH   1   8
BRANCH   6   9
ATOM      9  O   UNL     1      -5.194  -1.230 -18.246  0.00  0.00    +0.000 OA
ATOM     10  H   UNL     1      -4.402  -1.696 -18.575  0.00  0.00    +0.000 HD
ENDBRANCH   6   9
TORSDOF 2
ENDMDL
MODEL 5
REMARK VINA RESULT:    -3.484      2.516      3.381
REMARK INTER + INTRA:          -3.835
REMARK INTER:                  -3.783
REMARK INTRA:                  -0.052
REMARK UNBOUND:                -0.046
REMARK  Name = 
REMARK  3 active torsions:
REMARK  status: ('A' for Active; 'I' for Inactive)
REMARK    1  A    between atoms: C_1  and  O_2
REMARK    2  A    between atoms: O_2  and  C_3
REMARK    3  A    between atoms: C_8  and  O_9
REMARK                            x       y       z     vdW  Elec       q    Type
REMARK                         _______ _______ _______ _____ _____    ______ ____
ROOT
ATOM      1  C   UNL     1      -4.183   1.047 -20.310  0.00  0.00    +0.000 A 
ATOM      2  C   UNL     1      -5.004   1.955 -19.642  0.00  0.00    +0.000 A 
ATOM      3  C   UNL     1      -5.915   1.499 -18.681  0.00  0.00    +0.000 A 
ATOM      4  C   UNL     1      -6.008   0.138 -18.384  0.00  0.00    +0.000 A 
ATOM      5  C   UNL     1      -5.191  -0.775 -19.046  0.00  0.00    +0.000 A 
ATOM      6  C   UNL     1      -4.291  -0.314 -19.998  0.00  0.00    +0.000 A 
ENDROOT
BRANCH   1   8
ATOM      7  C   UNL     1      -3.754   1.800 -22.522  0.00  0.00    +0.000 C 
ATOM      8  O   UNL     1      -3.251   1.350 -21.270  0.00  0.00    +0.000 OA
ENDBRANCH   1   8
BRANCH   6   9
ATOM      9  O   UNL     1      -3.498  -1.230 -20.636  0.00  0.00    +0.000 OA
ATOM     10  H   UNL     1      -2.681  -1.266 -20.103  0.00  0.00    +0.000 HD
ENDBRANCH   6   9
TORSDOF 2
ENDMDL
MODEL 6
REMARK VINA RESULT:    -3.464      1.301      2.398
REMARK INTER + INTRA:          -3.813
REMARK INTER:                  -3.761
REMARK INTRA:                  -0.052
REMARK UNBOUND:                -0.046
REMARK  Name = 
REMARK  3 active torsions:
REMARK  status: ('A' for Active; 'I' for Inactive)
REMARK    1  A    between atoms: C_1  and  O_2
REMARK    2  A    between atoms: O_2  and  C_3
REMARK    3  A    between atoms: C_8  and  O_9
REMARK                            x       y       z     vdW  Elec       q    Type
REMARK                         _______ _______ _______ _____ _____    ______ ____
ROOT
ATOM      1  C   UNL     1      -6.418   0.301 -19.804  0.00  0.00    +0.000 A 
ATOM      2  C   UNL     1      -6.012   0.027 -18.499  0.00  0.00    +0.000 A 
ATOM      3  C   UNL     1      -5.259   0.969 -17.787  0.00  0.00    +0.000 A 
ATOM      4  C   UNL     1      -4.909   2.186 -18.376  0.00  0.00    +0.000 A 
ATOM      5  C   UNL     1      -5.311   2.467 -19.680  0.00  0.00    +0.000 A 
ATOM      6  C   UNL     1      -6.057   1.526 -20.378  0.00  0.00    +0.000 A 
ENDROOT
BRANCH   1   8
ATOM      7  C   UNL     1      -8.470  -0.839 -20.174  0.00  0.00    +0.000 C 
ATOM      8  O   UNL     1      -7.154  -0.525 -20.615  0.00  0.00    +0.000 OA
ENDBRANCH   1   8
BRANCH   6   9
ATOM      9  O   UNL     1      -6.440   1.826 -21.658  0.00  0.00    +0.000 OA
ATOM     10  H   UNL     1      -5.629   1.722 -22.191  0.00  0.00    +0.000 HD
ENDBRANCH   6   9
TORSDOF 2
ENDMDL
MODEL 7
REMARK VINA RESULT:    -3.454      1.166      1.927
REMARK INTER + INTRA:          -3.802
REMARK INTER:                  -3.765
REMARK INTRA:                  -0.038
REMARK UNBOUND:                -0.046
REMARK  Name = 
REMARK  3 active torsions:
REMARK  status: ('A' for Active; 'I' for Inactive)
REMARK    1  A    between atoms: C_1  and  O_2
REMARK    2  A    between atoms: O_2  and  C_3
REMARK    3  A    between atoms: C_8  and  O_9
REMARK                            x       y       z     vdW  Elec       q    Type
REMARK                         _______ _______ _______ _____ _____    ______ ____
ROOT
ATOM      1  C   UNL     1      -6.243   0.841 -20.281  0.00  0.00    +0.000 A 
ATOM      2  C   UNL     1      -5.508   1.996 -20.021  0.00  0.00    +0.000 A 
ATOM      3  C   UNL     1      -4.974   2.214 -18.744  0.00  0.00    +0.000 A 
ATOM      4  C   UNL     1      -5.173   1.279 -17.726  0.00  0.00    +0.000 A 
ATOM      5  C   UNL     1      -5.905   0.122 -17.978  0.00  0.00    +0.000 A 
ATOM      6  C   UNL     1      -6.431  -0.085 -19.247  0.00  0.00    +0.000 A 
ENDROOT
BRANCH   1   8
ATOM      7  C   UNL     1      -6.746   1.467 -22.517  0.00  0.00    +0.000 C 
ATOM      8  O   UNL     1      -6.821   0.500 -21.477  0.00  0.00    +0.000 OA
ENDBRANCH   1   8
BRANCH   6   9
ATOM      9  O   UNL     1      -7.148  -1.230 -19.471  0.00  0.00    +0.000 OA
ATOM     10  H   UNL     1      -6.715  -1.907 -18.917  0.00  0.00    +0.000 HD
ENDBRANCH   6   9
TORSDOF 2
ENDMDL
MODEL 8
REMARK VINA RESULT:    -3.308      2.351      3.118
REMARK INTER + INTRA:          -3.644
REMARK INTER:                  -3.607
REMARK INTRA:                  -0.038
REMARK UNBOUND:                -0.046
REMARK  Name = 
REMARK  3 active torsions:
REMARK  status: ('A' for Active; 'I' for Inactive)
REMARK    1  A    between atoms: C_1  and  O_2
REMARK    2  A    between atoms: O_2  and  C_3
REMARK    3  A    between atoms: C_8  and  O_9
REMARK                            x       y       z     vdW  Elec       q    Type
REMARK                         _______ _______ _______ _____ _____    ______ ____
ROOT
ATOM      1  C   UNL     1      -4.808   0.171 -19.977  0.00  0.00    +0.000 A 
ATOM      2  C   UNL     1      -5.768   1.156 -20.199  0.00  0.00    +0.000 A 
ATOM      3  C   UNL     1      -5.544   2.146 -21.165  0.00  0.00    +0.000 A 
ATOM      4  C   UNL     1      -4.363   2.154 -21.909  0.00  0.00    +0.000 A 
ATOM      5  C   UNL     1      -3.399   1.173 -21.693  0.00  0.00    +0.000 A 
ATOM      6  C   UNL     1      -3.629   0.196 -20.733  0.00  0.00    +0.000 A 
ENDROOT
BRANCH   1   8
ATOM      7  C   UNL     1      -5.995  -0.815 -18.170  0.00  0.00    +0.000 C 
ATOM      8  O   UNL     1      -4.892  -0.853 -19.068  0.00  0.00    +0.000 OA
ENDBRANCH   1   8
BRANCH   6   9
ATOM      9  O   UNL     1      -2.667  -0.759 -20.538  0.00  0.00    +0.000 OA
ATOM     10  H   UNL     1      -2.009  -0.333 -19.955  0.00  0.00    +0.000 HD
ENDBRANCH   6   9
TORSDOF 2
ENDMDL
MODEL 9
REMARK VINA RESULT:    -3.284      1.582      3.376
REMARK INTER + INTRA:          -3.618
REMARK INTER:                  -3.577
REMARK INTRA:                  -0.041
REMARK UNBOUND:                -0.046
REMARK  Name = 
REMARK  3 active torsions:
REMARK  status: ('A' for Active; 'I' for Inactive)
REMARK    1  A    between atoms: C_1  and  O_2
REMARK    2  A    between atoms: O_2  and  C_3
REMARK    3  A    between atoms: C_8  and  O_9
REMARK                            x       y       z     vdW  Elec       q    Type
REMARK                         _______ _______ _______ _____ _____    ______ ____
ROOT
ATOM      1  C   UNL     1      -5.804   0.334 -19.424  0.00  0.00    +0.000 A 
ATOM      2  C   UNL     1      -4.811   0.150 -20.386  0.00  0.00    +0.000 A 
ATOM      3  C   UNL     1      -5.070  -0.631 -21.519  0.00  0.00    +0.000 A 
ATOM      4  C   UNL     1      -6.319  -1.230 -21.694  0.00  0.00    +0.000 A 
ATOM      5  C   UNL     1      -7.316  -1.051 -20.738  0.00  0.00    +0.000 A 
ATOM      6  C   UNL     1      -7.050  -0.274 -19.618  0.00  0.00    +0.000 A 
ENDROOT
BRANCH   1   8
ATOM      7  C   UNL     1      -4.787   2.168 -18.305  0.00  0.00    +0.000 C 
ATOM      8  O   UNL     1      -5.690   1.069 -18.271  0.00  0.00    +0.000 OA
ENDBRANCH   1   8
BRANCH   6   9
ATOM      9  O   UNL     1      -8.046  -0.113 -18.692  0.00  0.00    +0.000 OA
ATOM     10  H   UNL     1      -7.810  -0.720 -17.965  0.00  0.00    +0.000 HD
ENDBRANCH   6   9
TORSDOF 2
ENDMDL
