MODEL 1
REMARK VINA RESULT:    -5.489      0.000      0.000
REMARK INTER + INTRA:          -6.023
REMARK INTER:                  -5.970
REMARK INTRA:                  -0.053
REMARK UNBOUND:                -0.053
REMARK  Name = 
REMARK  3 active torsions:
REMARK  status: ('A' for Active; 'I' for Inactive)
REMARK    1  A    between atoms: C_1  and  O_2
REMARK    2  A    between atoms: O_2  and  C_3
REMARK    3  A    between atoms: C_8  and  O_9
REMARK                            x       y       z     vdW  Elec       q    Type
REMARK                         _______ _______ _______ _____ _____    ______ ____
ROOT
ATOM      1  C   UNL     1       7.363   8.730  -0.741  0.00  0.00    +0.000 A 
ATOM      2  C   UNL     1       5.974   8.614  -0.744  0.00  0.00    +0.000 A 
ATOM      3  C   UNL     1       5.194   9.534  -0.032  0.00  0.00    +0.000 A 
ATOM      4  C   UNL     1       5.797  10.570   0.683  0.00  0.00    +0.000 A 
ATOM      5  C   UNL     1       7.185  10.693   0.690  0.00  0.00    +0.000 A 
ATOM      6  C   UNL     1       7.951   9.776  -0.018  0.00  0.00    +0.000 A 
ENDROOT
BRANCH   1   8
ATOM      7  C   UNL     1       8.331   6.567  -0.915  0.00  0.00    +0.000 C 
ATOM      8  O   UNL     1       8.248   7.905  -1.389  0.00  0.00    +0.000 OA
ENDBRANCH   1   8
BRANCH   6   9
ATOM      9  O   UNL     1       9.313   9.917   0.004  0.00  0.00    +0.000 OA
ATOM     10  H   UNL     1       9.520  10.452  -0.786  0.00  0.00    +0.000 HD
ENDBRANCH   6   9
TORSDOF 2
ENDMDL
MODEL 2
REMARK VINA RESULT:    -5.399      1.387      3.012
REMARK INTER + INTRA:          -5.925
REMARK INTER:                  -5.896
REMARK INTRA:                  -0.029
REMARK UNBOUND:                -0.053
REMARK  Name = 
REMARK  3 active torsions:
REMARK  status: ('A' for Active; 'I' for Inactive)
REMARK    1  A    between atoms: C_1  and  O_2
REMARK    2  A    between atoms: O_2  and  C_3
REMARK    3  A    between atoms: C_8  and  O_9
REMARK                            x       y       z     vdW  Elec       q    Type
REMARK                         _______ _______ _______ _____ _____    ______ ____
ROOT
ATOM      1  C   UNL     1       6.887   9.736   0.002  0.00  0.00    +0.000 A 
ATOM      2  C   UNL     1       5.885   8.829  -0.338  0.00  0.00    +0.000 A 
ATOM      3  C   UNL     1       6.201   7.682  -1.078  0.00  0.00    +0.000 A 
ATOM      4  C   UNL     1       7.516   7.440  -1.480  0.00  0.00    +0.000 A 
ATOM      5  C   UNL     1       8.523   8.342  -1.144  0.00  0.00    +0.000 A 
ATOM      6  C   UNL     1       8.200   9.476  -0.410  0.00  0.00    +0.000 A 
ENDROOT
BRANCH   1   8
ATOM      7  C   UNL     1       6.608  10.757   2.130  0.00  0.00    +0.000 C 
ATOM      8  O   UNL     1       6.723  10.895   0.718  0.00  0.00    +0.000 OA
ENDBRANCH   1   8
BRANCH   6   9
ATOM      9  O   UNL     1       9.207  10.348  -0.091  0.00  0.00    +0.000 OA
ATOM     10  H   UNL     1       9.413  10.806  -0.928  0.00  0.00    +0.000 HD
ENDBRANCH   6   9
TORSDOF 2
ENDMDL
MODEL 3
REMARK VINA RESULT:    -5.331      1.882      3.704
REMARK INTER + INTRA:          -5.851
REMARK INTER:                  -5.929
REMARK INTRA:                   0.078
REMARK UNBOUND:                -0.053
REMARK  Name = 
REMARK  3 active torsions:
REMARK  status: ('A' for Active; 'I' for Inactive)
REMARK    1  A    between atoms: C_1  and  O_2
REMARK    2  A    between atoms: O_2  and  C_3
REMARK    3  A    between atoms: C_8  and  O_9
REMARK                            x       y       z     vdW  Elec       q    Type
REMARK                         _______ _______ _______ _____ _____    ______ ____
ROOT
ATOM      1  C   UNL     1       7.269   9.835   0.060  0.00  0.00    +0.000 A 
ATOM      2  C   UNL     1       8.579   9.567  -0.336  0.00  0.00    +0.000 A 
ATOM      3  C   UNL     1       8.857   8.435  -1.114  0.00  0.00    +0.000 A 
ATOM      4  C   UNL     1       7.831   7.569  -1.496  0.00  0.00    +0.000 A 
ATOM      5  C   UNL     1       6.520   7.830  -1.104  0.00  0.00    +0.000 A 
ATOM      6  C   UNL     1       6.253   8.955  -0.333  0.00  0.00    +0.000 A 
ENDROOT
BRANCH   1   8
ATOM      7  C   UNL     1       6.796  10.693   2.225  0.00  0.00    +0.000 C 
ATOM      8  O   UNL     1       6.853  10.899   0.819  0.00  0.00    +0.000 OA
ENDBRANCH   1   8
BRANCH   6   9
ATOM      9  O   UNL     1       4.957   9.190   0.040  0.00  0.00    +0.000 OA
ATOM     10  H   UNL     1       4.781   8.544   0.751  0.00  0.00    +0.000 HD
ENDBRANCH   6   9
TORSDOF 2
ENDMDL
MODEL 4
REMARK VINA RESULT:    -5.228      1.972      3.829
REMARK INTER + INTRA:          -5.739
REMARK INTER:                  -5.692
REMARK INTRA:                  -0.047
REMARK UNBOUND:                -0.053
REMARK  Name = 
REMARK  3 active torsions:
REMARK  status: ('A' for Active; 'I' for Inactive)
REMARK    1  A    between atoms: C_1  and  O_2
REMARK    2  A    between atoms: O_2  and  C_3
REMARK    3  A    between atoms: C_8  and  O_9
REMARK                            x       y       z     vdW  Elec       q    Type
REMARK                         _______ _______ _______ _____ _____    ______ ____
ROOT
ATOM      1  C   UNL     1       6.519   8.768  -0.882  0.00  0.00    +0.000 A 
ATOM      2  C   UNL     1       7.642   9.591  -0.950  0.00  0.00    +0.000 A 
ATOM      3  C   UNL     1       8.918   9.027  -1.070  0.00  0.00    +0.000 A 
ATOM      4  C   UNL     1       9.077   7.641  -1.121  0.00  0.00    +0.000 A 
ATOM      5  C   UNL     1       7.960   6.811  -1.054  0.00  0.00    +0.000 A 
ATOM      6  C   UNL     1       6.698   7.380  -0.935  0.00  0.00    +0.000 A 
ENDROOT
BRANCH   1   8
ATOM      7  C   UNL     1       4.957  10.194   0.199  0.00  0.00    +0.000 C 
ATOM      8  O   UNL     1       5.216   9.180  -0.764  0.00  0.00    +0.000 OA
ENDBRANCH   1   8
BRANCH   6   9
ATOM      9  O   UNL     1       5.615   6.544  -0.872  0.00  0.00    +0.000 OA
ATOM     10  H   UNL     1       5.927   5.704  -1.260  0.00  0.00    +0.000 HD
ENDBRANCH   6   9
TORSDOF 2
ENDMDL
MODEL 5
REMARK VINA RESULT:    -5.206      2.027      2.829
REMARK INTER + INTRA:          -5.715
REMARK INTER:                  -5.676
REMARK INTRA:                  -0.039
REMARK UNBOUND:                -0.053
REMARK  Name = 
REMARK  3 active torsions:
REMARK  status: ('A' for Active; 'I' for Inactive)
REMARK    1  A    between atoms: C_1  and  O_2
REMARK    2  A    between atoms: O_2  and  C_3
REMARK    3  A    between atoms: C_8  and  O_9
REMARK                            x       y       z     vdW  Elec       q    Type
REMARK                         _______ _______ _______ _____ _____    ______ ____
ROOT
ATOM      1  C   UNL     1       6.711   7.712  -0.970  0.00  0.00    +0.000 A 
ATOM      2  C   UNL     1       8.072   7.505  -1.196  0.00  0.00    +0.000 A 
ATOM      3  C   UNL     1       8.983   8.547  -0.984  0.00  0.00    +0.000 A 
ATOM      4  C   UNL     1       8.540   9.797  -0.549  0.00  0.00    +0.000 A 
ATOM      5  C   UNL     1       7.182  10.012  -0.321  0.00  0.00    +0.000 A 
ATOM      6  C   UNL     1       6.286   8.972  -0.533  0.00  0.00    +0.000 A 
ENDROOT
BRANCH   1   8
ATOM      7  C   UNL     1       6.100   5.419  -1.100  0.00  0.00    +0.000 C 
ATOM      8  O   UNL     1       5.712   6.787  -1.136  0.00  0.00    +0.000 OA
ENDBRANCH   1   8
BRANCH   6   9
ATOM      9  O   UNL     1       4.957   9.208  -0.302  0.00  0.00    +0.000 OA
ATOM     10  H   UNL     1       4.932   9.676   0.554  0.00  0.00    +0.000 HD
ENDBRANCH   6   9
TORSDOF 2
ENDMDL
MODEL 6
REMARK VINA RESULT:    -5.126      0.981      2.246
REMARK INTER + INTRA:          -5.628
REMARK INTER:                  -5.772
REMARK INTRA:                   0.143
REMARK UNBOUND:                -0.053
REMARK  Name = 
REMARK  3 active torsions:
REMARK  status: ('A' for Active; 'I' for Inactive)
REMARK    1  A    between atoms: C_1  and  O_2
REMARK    2  A    between atoms: O_2  and  C_3
REMARK    3  A    between atoms: C_8  and  O_9
REMARK                            x       y       z     vdW  Elec       q    Type
REMARK                         _______ _______ _______ _____ _____    ______ ____
ROOT
ATOM      1  C   UNL     1       7.511   8.696  -0.695  0.00  0.00    +0.000 A 
ATOM      2  C   UNL     1       8.152   9.722  -0.002  0.00  0.00    +0.000 A 
ATOM      3  C   UNL     1       7.400  10.654   0.722  0.00  0.00    +0.000 A 
ATOM      4  C   UNL     1       6.007  10.566   0.756  0.00  0.00    +0.000 A 
ATOM      5  C   UNL     1       5.358   9.544   0.067  0.00  0.00    +0.000 A 
ATOM      6  C   UNL     1       6.113   8.623  -0.649  0.00  0.00    +0.000 A 
ENDROOT
BRANCH   1   8
ATOM      7  C   UNL     1       8.326   6.466  -0.800  0.00  0.00    +0.000 C 
ATOM      8  O   UNL     1       8.118   7.718  -1.442  0.00  0.00    +0.000 OA
ENDBRANCH   1   8
BRANCH   6   9
ATOM      9  O   UNL     1       5.453   7.627  -1.318  0.00  0.00    +0.000 OA
ATOM     10  H   UNL     1       5.504   6.854  -0.724  0.00  0.00    +0.000 HD
ENDBRANCH   6   9
TORSDOF 2
ENDMDL
MODEL 7
REMARK VINA RESULT:    -4.953      9.417      9.879
REMARK INTER + INTRA:          -5.440
REMARK INTER:                  -5.394
REMARK INTRA:                  -0.046
REMARK UNBOUND:                -0.053
REMARK  Name = 
REMARK  3 active torsions:
REMARK  status: ('A' for Active; 'I' for Inactive)
REMARK    1  A    between atoms: C_1  and  O_2
REMARK    2  A    between atoms: O_2  and  C_3
REMARK    3  A    between atoms: C_8  and  O_9
REMARK                            x       y       z     vdW  Elec       q    Type
REMARK                         _______ _______ _______ _____ _____    ______ ____
ROOT
ATOM      1  C   UNL     1      11.771   2.471   5.169  0.00  0.00    +0.000 A 
ATOM      2  C   UNL     1      11.422   2.970   6.423  0.00  0.00    +0.000 A 
ATOM      3  C   UNL     1      12.187   3.986   7.009  0.00  0.00    +0.000 A 
ATOM      4  C   UNL     1      13.300   4.506   6.346  0.00  0.00    +0.000 A 
ATOM      5  C   UNL     1      13.655   4.013   5.093  0.00  0.00    +0.000 A 
ATOM      6  C   UNL     1      12.891   3.004   4.519  0.00  0.00    +0.000 A 
ENDROOT
BRANCH   1   8
ATOM      7  C   UNL     1       9.696   1.548   4.468  0.00  0.00    +0.000 C 
ATOM      8  O   UNL     1      11.117   1.481   4.479  0.00  0.00    +0.000 OA
ENDBRANCH   1   8
BRANCH   6   9
ATOM      9  O   UNL     1      13.259   2.536   3.286  0.00  0.00    +0.000 OA
ATOM     10  H   UNL     1      13.220   3.317   2.702  0.00  0.00    +0.000 HD
ENDBRANCH   6   9
TORSDOF 2
ENDMDL
MODEL 8
REMARK VINA RESULT:    -4.834      9.438     10.415
REMARK INTER + INTRA:          -5.311
REMARK INTER:                  -5.269
REMARK INTRA:                  -0.041
REMARK UNBOUND:                -0.053
REMARK  Name = 
REMARK  3 active torsions:
REMARK  status: ('A' for Active; 'I' for Inactive)
REMARK    1  A    between atoms: C_1  and  O_2
REMARK    2  A    between atoms: O_2  and  C_3
REMARK    3  A    between atoms: C_8  and  O_9
REMARK                            x       y       z     vdW  Elec       q    Type
REMARK                         _______ _______ _______ _____ _____    ______ ____
ROOT
ATOM      1  C   UNL     1      13.039   3.279   5.994  0.00  0.00    +0.000 A 
ATOM      2  C   UNL     1      11.859   2.764   6.530  0.00  0.00    +0.000 A 
ATOM      3  C   UNL     1      10.903   2.185   5.686  0.00  0.00    +0.000 A 
ATOM      4  C   UNL     1      11.120   2.119   4.309  0.00  0.00    +0.000 A 
ATOM      5  C   UNL     1      12.297   2.631   3.767  0.00  0.00    +0.000 A 
ATOM      6  C   UNL     1      13.240   3.204   4.610  0.00  0.00    +0.000 A 
ENDROOT
BRANCH   1   8
ATOM      7  C   UNL     1      14.909   3.003   7.435  0.00  0.00    +0.000 C 
ATOM      8  O   UNL     1      14.058   3.872   6.696  0.00  0.00    +0.000 OA
ENDBRANCH   1   8
BRANCH   6   9
ATOM      9  O   UNL     1      14.388   3.700   4.054  0.00  0.00    +0.000 OA
ATOM     10  H   UNL     1      14.132   3.967   3.150  0.00  0.00    +0.000 HD
ENDBRANCH   6   9
TORSDOF 2
ENDMDL
MODEL 9
REMARK VINA RESULT:    -4.696      9.500     10.857
REMARK INTER + INTRA:          -5.161
REMARK INTER:                  -5.113
REMARK INTRA:                  -0.048
REMARK UNBOUND:                -0.053
REMARK  Name = 
REMARK  3 active torsions:
REMARK  status: ('A' for Active; 'I' for Inactive)
REMARK    1  A    between atoms: C_1  and  O_2
REMARK    2  A    between atoms: O_2  and  C_3
REMARK    3  A    between atoms: C_8  and  O_9
REMARK                            x       y       z     vdW  Elec       q    Type
REMARK                         _______ _______ _______ _____ _____    ______ ____
ROOT
ATOM      1  C   UNL     1      12.189   2.957   6.952  0.00  0.00    +0.000 A 
ATOM      2  C   UNL     1      13.531   3.337   6.957  0.00  0.00    +0.000 A 
ATOM      3  C   UNL     1      14.193   3.585   5.748  0.00  0.00    +0.000 A 
ATOM      4  C   UNL     1      13.519   3.454   4.533  0.00  0.00    +0.000 A 
ATOM      5  C   UNL     1      12.178   3.075   4.519  0.00  0.00    +0.000 A 
ATOM      6  C   UNL     1      11.530   2.831   5.723  0.00  0.00    +0.000 A 
ENDROOT
BRANCH   1   8
ATOM      7  C   UNL     1      11.474   3.625   9.117  0.00  0.00    +0.000 C 
ATOM      8  O   UNL     1      11.419   2.682   8.053  0.00  0.00    +0.000 OA
ENDBRANCH   1   8
BRANCH   6   9
ATOM      9  O   UNL     1      10.213   2.459   5.684  0.00  0.00    +0.000 OA
ATOM     10  H   UNL     1      10.224   1.537   5.364  0.00  0.00    +0.000 HD
ENDBRANCH   6   9
TORSDOF 2
ENDMDL
