MODEL 1
REMARK VINA RESULT:    -5.475      0.000      0.000
REMARK INTER + INTRA:          -6.007
REMARK INTER:                  -5.955
REMARK INTRA:                  -0.053
REMARK UNBOUND:                -0.053
REMARK  Name = 
REMARK  3 active torsions:
REMARK  status: ('A' for Active; 'I' for Inactive)
REMARK    1  A    between atoms: C_1  and  O_2
REMARK    2  A    between atoms: O_2  and  C_3
REMARK    3  A    between atoms: C_8  and  O_9
REMARK                            x       y       z     vdW  Elec       q    Type
REMARK                         _______ _______ _______ _____ _____    ______ ____
ROOT
ATOM      1  C   UNL     1       7.349   8.776  -0.747  0.00  0.00    +0.000 A 
ATOM      2  C   UNL     1       5.960   8.665  -0.772  0.00  0.00    +0.000 A 
ATOM      3  C   UNL     1       5.173   9.578  -0.058  0.00  0.00    +0.000 A 
ATOM      4  C   UNL     1       5.769  10.600   0.682  0.00  0.00    +0.000 A 
ATOM      5  C   UNL     1       7.157  10.718   0.711  0.00  0.00    +0.000 A 
ATOM      6  C   UNL     1       7.930   9.808   0.000  0.00  0.00    +0.000 A 
ENDROOT
BRANCH   1   8
ATOM      7  C   UNL     1       8.319   6.614  -0.932  0.00  0.00    +0.000 C 
ATOM      8  O   UNL     1       8.240   7.957  -1.394  0.00  0.00    +0.000 OA
ENDBRANCH   1   8
BRANCH   6   9
ATOM      9  O   UNL     1       9.292   9.943   0.044  0.00  0.00    +0.000 OA
ATOM     10  H   UNL     1       9.637   9.056  -0.173  0.00  0.00    +0.000 HD
ENDBRANCH   6   9
TORSDOF 2
ENDMDL
MODEL 2
REMARK VINA RESULT:    -5.407      1.380      3.009
REMARK INTER + INTRA:          -5.934
REMARK INTER:                  -5.897
REMARK INTRA:                  -0.037
REMARK UNBOUND:                -0.053
REMARK  Name = 
REMARK  3 active torsions:
REMARK  status: ('A' for Active; 'I' for Inactive)
REMARK    1  A    between atoms: C_1  and  O_2
REMARK    2  A    between atoms: O_2  and  C_3
REMARK    3  A    between atoms: C_8  and  O_9
REMARK                            x       y       z     vdW  Elec       q    Type
REMARK                         _______ _______ _______ _____ _____    ______ ____
ROOT
ATOM      1  C   UNL     1       6.914   9.716   0.033  0.00  0.00    +0.000 A 
ATOM      2  C   UNL     1       5.897   8.832  -0.325  0.00  0.00    +0.000 A 
ATOM      3  C   UNL     1       6.194   7.691  -1.081  0.00  0.00    +0.000 A 
ATOM      4  C   UNL     1       7.506   7.430  -1.482  0.00  0.00    +0.000 A 
ATOM      5  C   UNL     1       8.528   8.308  -1.129  0.00  0.00    +0.000 A 
ATOM      6  C   UNL     1       8.223   9.437  -0.379  0.00  0.00    +0.000 A 
ENDROOT
BRANCH   1   8
ATOM      7  C   UNL     1       6.598  10.707   2.169  0.00  0.00    +0.000 C 
ATOM      8  O   UNL     1       6.769  10.866   0.766  0.00  0.00    +0.000 OA
ENDBRANCH   1   8
BRANCH   6   9
ATOM      9  O   UNL     1       9.245  10.285  -0.044  0.00  0.00    +0.000 OA
ATOM     10  H   UNL     1       9.246  10.300   0.932  0.00  0.00    +0.000 HD
ENDBRANCH   6   9
TORSDOF 2
ENDMDL
MODEL 3
REMARK VINA RESULT:    -5.379      1.915      3.704
REMARK INTER + INTRA:          -5.903
REMARK INTER:                  -5.939
REMARK INTRA:                   0.036
REMARK UNBOUND:                -0.053
REMARK  Name = 
REMARK  3 active torsions:
REMARK  status: ('A' for Active; 'I' for Inactive)
REMARK    1  A    between atoms: C_1  and  O_2
REMARK    2  A    between atoms: O_2  and  C_3
REMARK    3  A    between atoms: C_8  and  O_9
REMARK                            x       y       z     vdW  Elec       q    Type
REMARK                         _______ _______ _______ _____ _____    ______ ____
ROOT
ATOM      1  C   UNL     1       7.213  10.059   0.119  0.00  0.00    +0.000 A 
ATOM      2  C   UNL     1       8.526   9.938  -0.335  0.00  0.00    +0.000 A 
ATOM      3  C   UNL     1       8.865   8.917  -1.233  0.00  0.00    +0.000 A 
ATOM      4  C   UNL     1       7.895   8.017  -1.679  0.00  0.00    +0.000 A 
ATOM      5  C   UNL     1       6.581   8.132  -1.231  0.00  0.00    +0.000 A 
ATOM      6  C   UNL     1       6.255   9.147  -0.340  0.00  0.00    +0.000 A 
ENDROOT
BRANCH   1   8
ATOM      7  C   UNL     1       6.831  10.688   2.378  0.00  0.00    +0.000 C 
ATOM      8  O   UNL     1       6.742  11.004   0.994  0.00  0.00    +0.000 OA
ENDBRANCH   1   8
BRANCH   6   9
ATOM      9  O   UNL     1       4.957   9.240   0.087  0.00  0.00    +0.000 OA
ATOM     10  H   UNL     1       4.674   8.316   0.225  0.00  0.00    +0.000 HD
ENDBRANCH   6   9
TORSDOF 2
ENDMDL
MODEL 4
REMARK VINA RESULT:    -5.216      2.059      3.873
REMARK INTER + INTRA:          -5.726
REMARK INTER:                  -5.676
REMARK INTRA:                  -0.050
REMARK UNBOUND:                -0.053
REMARK  Name = 
REMARK  3 active torsions:
REMARK  status: ('A' for Active; 'I' for Inactive)
REMARK    1  A    between atoms: C_1  and  O_2
REMARK    2  A    between atoms: O_2  and  C_3
REMARK    3  A    between atoms: C_8  and  O_9
REMARK                            x       y       z     vdW  Elec       q    Type
REMARK                         _______ _______ _______ _____ _____    ______ ____
ROOT
ATOM      1  C   UNL     1       6.626   8.635  -1.149  0.00  0.00    +0.000 A 
ATOM      2  C   UNL     1       7.783   9.395  -1.315  0.00  0.00    +0.000 A 
ATOM      3  C   UNL     1       9.037   8.771  -1.314  0.00  0.00    +0.000 A 
ATOM      4  C   UNL     1       9.139   7.388  -1.148  0.00  0.00    +0.000 A 
ATOM      5  C   UNL     1       7.988   6.622  -0.983  0.00  0.00    +0.000 A 
ATOM      6  C   UNL     1       6.749   7.250  -0.984  0.00  0.00    +0.000 A 
ENDROOT
BRANCH   1   8
ATOM      7  C   UNL     1       4.959   9.861   0.019  0.00  0.00    +0.000 C 
ATOM      8  O   UNL     1       5.339   9.110  -1.128  0.00  0.00    +0.000 OA
ENDBRANCH   1   8
BRANCH   6   9
ATOM      9  O   UNL     1       5.631   6.475  -0.819  0.00  0.00    +0.000 OA
ATOM     10  H   UNL     1       5.813   5.665  -1.332  0.00  0.00    +0.000 HD
ENDBRANCH   6   9
TORSDOF 2
ENDMDL
MODEL 5
REMARK VINA RESULT:    -5.069      1.202      2.360
REMARK INTER + INTRA:          -5.566
REMARK INTER:                  -5.519
REMARK INTRA:                  -0.046
REMARK UNBOUND:                -0.053
REMARK  Name = 
REMARK  3 active torsions:
REMARK  status: ('A' for Active; 'I' for Inactive)
REMARK    1  A    between atoms: C_1  and  O_2
REMARK    2  A    between atoms: O_2  and  C_3
REMARK    3  A    between atoms: C_8  and  O_9
REMARK                            x       y       z     vdW  Elec       q    Type
REMARK                         _______ _______ _______ _____ _____    ______ ____
ROOT
ATOM      1  C   UNL     1       7.602   8.781  -0.645  0.00  0.00    +0.000 A 
ATOM      2  C   UNL     1       8.131   9.871   0.044  0.00  0.00    +0.000 A 
ATOM      3  C   UNL     1       7.280  10.734   0.747  0.00  0.00    +0.000 A 
ATOM      4  C   UNL     1       5.902  10.511   0.764  0.00  0.00    +0.000 A 
ATOM      5  C   UNL     1       5.366   9.423   0.078  0.00  0.00    +0.000 A 
ATOM      6  C   UNL     1       6.217   8.573  -0.617  0.00  0.00    +0.000 A 
ENDROOT
BRANCH   1   8
ATOM      7  C   UNL     1       9.310   8.373  -2.246  0.00  0.00    +0.000 C 
ATOM      8  O   UNL     1       8.312   7.859  -1.372  0.00  0.00    +0.000 OA
ENDBRANCH   1   8
BRANCH   6   9
ATOM      9  O   UNL     1       5.667   7.511  -1.284  0.00  0.00    +0.000 OA
ATOM     10  H   UNL     1       4.711   7.705  -1.314  0.00  0.00    +0.000 HD
ENDBRANCH   6   9
TORSDOF 2
ENDMDL
MODEL 6
REMARK VINA RESULT:    -4.972      1.575      2.170
REMARK INTER + INTRA:          -5.461
REMARK INTER:                  -5.422
REMARK INTRA:                  -0.039
REMARK UNBOUND:                -0.053
REMARK  Name = 
REMARK  3 active torsions:
REMARK  status: ('A' for Active; 'I' for Inactive)
REMARK    1  A    between atoms: C_1  and  O_2
REMARK    2  A    between atoms: O_2  and  C_3
REMARK    3  A    between atoms: C_8  and  O_9
REMARK                            x       y       z     vdW  Elec       q    Type
REMARK                         _______ _______ _______ _____ _____    ______ ____
ROOT
ATOM      1  C   UNL     1       7.226   7.382  -0.850  0.00  0.00    +0.000 A 
ATOM      2  C   UNL     1       6.155   8.207  -0.507  0.00  0.00    +0.000 A 
ATOM      3  C   UNL     1       6.360   9.581  -0.329  0.00  0.00    +0.000 A 
ATOM      4  C   UNL     1       7.631  10.135  -0.492  0.00  0.00    +0.000 A 
ATOM      5  C   UNL     1       8.706   9.317  -0.836  0.00  0.00    +0.000 A 
ATOM      6  C   UNL     1       8.494   7.955  -1.009  0.00  0.00    +0.000 A 
ENDROOT
BRANCH   1   8
ATOM      7  C   UNL     1       5.888   5.475  -1.320  0.00  0.00    +0.000 C 
ATOM      8  O   UNL     1       7.172   6.027  -1.053  0.00  0.00    +0.000 OA
ENDBRANCH   1   8
BRANCH   6   9
ATOM      9  O   UNL     1       9.565   7.172  -1.346  0.00  0.00    +0.000 OA
ATOM     10  H   UNL     1       9.395   6.317  -0.908  0.00  0.00    +0.000 HD
ENDBRANCH   6   9
TORSDOF 2
ENDMDL
MODEL 7
REMARK VINA RESULT:    -4.913      9.441      9.905
REMARK INTER + INTRA:          -5.397
REMARK INTER:                  -5.351
REMARK INTRA:                  -0.046
REMARK UNBOUND:                -0.053
REMARK  Name = 
REMARK  3 active torsions:
REMARK  status: ('A' for Active; 'I' for Inactive)
REMARK    1  A    between atoms: C_1  and  O_2
REMARK    2  A    between atoms: O_2  and  C_3
REMARK    3  A    between atoms: C_8  and  O_9
REMARK                            x       y       z     vdW  Elec       q    Type
REMARK                         _______ _______ _______ _____ _____    ______ ____
ROOT
ATOM      1  C   UNL     1      11.665   2.433   5.198  0.00  0.00    +0.000 A 
ATOM      2  C   UNL     1      11.326   2.926   6.457  0.00  0.00    +0.000 A 
ATOM      3  C   UNL     1      12.095   3.939   7.042  0.00  0.00    +0.000 A 
ATOM      4  C   UNL     1      13.205   4.461   6.374  0.00  0.00    +0.000 A 
ATOM      5  C   UNL     1      13.550   3.974   5.116  0.00  0.00    +0.000 A 
ATOM      6  C   UNL     1      12.781   2.969   4.543  0.00  0.00    +0.000 A 
ENDROOT
BRANCH   1   8
ATOM      7  C   UNL     1       9.586   1.527   4.490  0.00  0.00    +0.000 C 
ATOM      8  O   UNL     1      11.006   1.447   4.508  0.00  0.00    +0.000 OA
ENDBRANCH   1   8
BRANCH   6   9
ATOM      9  O   UNL     1      13.141   2.506   3.305  0.00  0.00    +0.000 OA
ATOM     10  H   UNL     1      13.022   3.270   2.710  0.00  0.00    +0.000 HD
ENDBRANCH   6   9
TORSDOF 2
ENDMDL
MODEL 8
REMARK VINA RESULT:    -4.833      9.983     11.205
REMARK INTER + INTRA:          -5.309
REMARK INTER:                  -5.271
REMARK INTRA:                  -0.038
REMARK UNBOUND:                -0.053
REMARK  Name = 
REMARK  3 active torsions:
REMARK  status: ('A' for Active; 'I' for Inactive)
REMARK    1  A    between atoms: C_1  and  O_2
REMARK    2  A    between atoms: O_2  and  C_3
REMARK    3  A    between atoms: C_8  and  O_9
REMARK                            x       y       z     vdW  Elec       q    Type
REMARK                         _______ _______ _______ _____ _____    ______ ____
ROOT
ATOM      1  C   UNL     1      14.143   3.156   6.715  0.00  0.00    +0.000 A 
ATOM      2  C   UNL     1      13.091   3.558   7.537  0.00  0.00    +0.000 A 
ATOM      3  C   UNL     1      11.871   3.948   6.971  0.00  0.00    +0.000 A 
ATOM      4  C   UNL     1      11.698   3.938   5.586  0.00  0.00    +0.000 A 
ATOM      5  C   UNL     1      12.744   3.537   4.758  0.00  0.00    +0.000 A 
ATOM      6  C   UNL     1      13.951   3.153   5.328  0.00  0.00    +0.000 A 
ENDROOT
BRANCH   1   8
ATOM      7  C   UNL     1      15.513   2.389   8.499  0.00  0.00    +0.000 C 
ATOM      8  O   UNL     1      15.387   2.751   7.130  0.00  0.00    +0.000 OA
ENDBRANCH   1   8
BRANCH   6   9
ATOM      9  O   UNL     1      14.965   2.763   4.494  0.00  0.00    +0.000 OA
ATOM     10  H   UNL     1      15.291   3.592   4.095  0.00  0.00    +0.000 HD
ENDBRANCH   6   9
TORSDOF 2
ENDMDL
