MODEL 1
REMARK VINA RESULT:    -4.379      0.000      0.000
REMARK INTER + INTRA:          -4.808
REMARK INTER:                  -4.763
REMARK INTRA:                  -0.045
REMARK UNBOUND:                -0.045
REMARK  Name = 
REMARK  3 active torsions:
REMARK  status: ('A' for Active; 'I' for Inactive)
REMARK    1  A    between atoms: C_1  and  O_2
REMARK    2  A    between atoms: O_2  and  C_3
REMARK    3  A    between atoms: C_8  and  O_9
REMARK                            x       y       z     vdW  Elec       q    Type
REMARK                         _______ _______ _______ _____ _____    ______ ____
ROOT
ATOM      1  C   UNL     1       3.591  14.023  -2.619  0.00  0.00    +0.000 A 
ATOM      2  C   UNL     1       2.865  13.325  -1.654  0.00  0.00    +0.000 A 
ATOM      3  C   UNL     1       2.846  11.925  -1.671  0.00  0.00    +0.000 A 
ATOM      4  C   UNL     1       3.549  11.219  -2.648  0.00  0.00    +0.000 A 
ATOM      5  C   UNL     1       4.277  11.909  -3.615  0.00  0.00    +0.000 A 
ATOM      6  C   UNL     1       4.290  13.298  -3.591  0.00  0.00    +0.000 A 
ENDROOT
BRANCH   1   8
ATOM      7  C   UNL     1       2.505  16.135  -2.518  0.00  0.00    +0.000 C 
ATOM      8  O   UNL     1       3.697  15.387  -2.724  0.00  0.00    +0.000 OA
ENDBRANCH   1   8
BRANCH   6   9
ATOM      9  O   UNL     1       5.012  13.954  -4.552  0.00  0.00    +0.000 OA
ATOM     10  H   UNL     1       5.237  14.815  -4.149  0.00  0.00    +0.000 HD
ENDBRANCH   6   9
TORSDOF 2
ENDMDL
MODEL 2
REMARK VINA RESULT:    -4.305     11.232     11.948
REMARK INTER + INTRA:          -4.728
REMARK INTER:                  -4.686
REMARK INTRA:                  -0.042
REMARK UNBOUND:                -0.045
REMARK  Name = 
REMARK  3 active torsions:
REMARK  status: ('A' for Active; 'I' for Inactive)
REMARK    1  A    between atoms: C_1  and  O_2
REMARK    2  A    between atoms: O_2  and  C_3
REMARK    3  A    between atoms: C_8  and  O_9
REMARK                            x       y       z     vdW  Elec       q    Type
REMARK                         _______ _______ _______ _____ _____    ______ ____
ROOT
ATOM      1  C   UNL     1      -0.505  15.792 -13.314  0.00  0.00    +0.000 A 
ATOM      2  C   UNL     1       0.315  14.673 -13.460  0.00  0.00    +0.000 A 
ATOM      3  C   UNL     1       1.462  14.747 -14.260  0.00  0.00    +0.000 A 
ATOM      4  C   UNL     1       1.792  15.934 -14.916  0.00  0.00    +0.000 A 
ATOM      5  C   UNL     1       0.978  17.056 -14.775  0.00  0.00    +0.000 A 
ATOM      6  C   UNL     1      -0.158  16.974 -13.979  0.00  0.00    +0.000 A 
ENDROOT
BRANCH   1   8
ATOM      7  C   UNL     1      -1.489  15.935 -11.155  0.00  0.00    +0.000 C 
ATOM      8  O   UNL     1      -1.654  15.863 -12.566  0.00  0.00    +0.000 OA
ENDBRANCH   1   8
BRANCH   6   9
ATOM      9  O   UNL     1      -0.942  18.089 -13.855  0.00  0.00    +0.000 OA
ATOM     10  H   UNL     1      -0.333  18.789 -13.553  0.00  0.00    +0.000 HD
ENDBRANCH   6   9
TORSDOF 2
ENDMDL
MODEL 3
REMARK VINA RESULT:    -4.272      2.227      2.919
REMARK INTER + INTRA:          -4.692
REMARK INTER:                  -4.639
REMARK INTRA:                  -0.053
REMARK UNBOUND:                -0.045
REMARK  Name = 
REMARK  3 active torsions:
REMARK  status: ('A' for Active; 'I' for Inactive)
REMARK    1  A    between atoms: C_1  and  O_2
REMARK    2  A    between atoms: O_2  and  C_3
REMARK    3  A    between atoms: C_8  and  O_9
REMARK                            x       y       z     vdW  Elec       q    Type
REMARK                         _______ _______ _______ _____ _____    ______ ____
ROOT
ATOM      1  C   UNL     1       3.549  13.822  -1.132  0.00  0.00    +0.000 A 
ATOM      2  C   UNL     1       4.204  14.850  -1.810  0.00  0.00    +0.000 A 
ATOM      3  C   UNL     1       4.560  14.685  -3.154  0.00  0.00    +0.000 A 
ATOM      4  C   UNL     1       4.265  13.497  -3.825  0.00  0.00    +0.000 A 
ATOM      5  C   UNL     1       3.610  12.466  -3.154  0.00  0.00    +0.000 A 
ATOM      6  C   UNL     1       3.261  12.637  -1.821  0.00  0.00    +0.000 A 
ENDROOT
BRANCH   1   8
ATOM      7  C   UNL     1       2.106  14.760   0.506  0.00  0.00    +0.000 C 
ATOM      8  O   UNL     1       3.144  13.844   0.178  0.00  0.00    +0.000 OA
ENDBRANCH   1   8
BRANCH   6   9
ATOM      9  O   UNL     1       2.619  11.610  -1.183  0.00  0.00    +0.000 OA
ATOM     10  H   UNL     1       3.146  11.450  -0.377  0.00  0.00    +0.000 HD
ENDBRANCH   6   9
TORSDOF 2
ENDMDL
MODEL 4
REMARK VINA RESULT:    -4.263      1.467      2.492
REMARK INTER + INTRA:          -4.682
REMARK INTER:                  -4.629
REMARK INTRA:                  -0.052
REMARK UNBOUND:                -0.045
REMARK  Name = 
REMARK  3 active torsions:
REMARK  status: ('A' for Active; 'I' for Inactive)
REMARK    1  A    between atoms: C_1  and  O_2
REMARK    2  A    between atoms: O_2  and  C_3
REMARK    3  A    between atoms: C_8  and  O_9
REMARK                            x       y       z     vdW  Elec       q    Type
REMARK                         _______ _______ _______ _____ _____    ______ ____
ROOT
ATOM      1  C   UNL     1       3.808  13.836  -2.331  0.00  0.00    +0.000 A 
ATOM      2  C   UNL     1       4.234  13.383  -3.580  0.00  0.00    +0.000 A 
ATOM      3  C   UNL     1       4.146  12.022  -3.898  0.00  0.00    +0.000 A 
ATOM      4  C   UNL     1       3.636  11.111  -2.972  0.00  0.00    +0.000 A 
ATOM      5  C   UNL     1       3.208  11.555  -1.723  0.00  0.00    +0.000 A 
ATOM      6  C   UNL     1       3.299  12.906  -1.416  0.00  0.00    +0.000 A 
ENDROOT
BRANCH   1   8
ATOM      7  C   UNL     1       5.121  15.697  -1.654  0.00  0.00    +0.000 C 
ATOM      8  O   UNL     1       3.836  15.133  -1.886  0.00  0.00    +0.000 OA
ENDBRANCH   1   8
BRANCH   6   9
ATOM      9  O   UNL     1       2.873  13.319  -0.182  0.00  0.00    +0.000 OA
ATOM     10  H   UNL     1       2.621  12.498   0.282  0.00  0.00    +0.000 HD
ENDBRANCH   6   9
TORSDOF 2
ENDMDL
MODEL 5
REMARK VINA RESULT:    -4.247     10.656     11.232
REMARK INTER + INTRA:          -4.665
REMARK INTER:                  -4.620
REMARK INTRA:                  -0.046
REMARK UNBOUND:                -0.045
REMARK  Name = 
REMARK  3 active torsions:
REMARK  status: ('A' for Active; 'I' for Inactive)
REMARK    1  A    between atoms: C_1  and  O_2
REMARK    2  A    between atoms: O_2  and  C_3
REMARK    3  A    between atoms: C_8  and  O_9
REMARK                            x       y       z     vdW  Elec       q    Type
REMARK                         _______ _______ _______ _____ _____    ______ ____
ROOT
ATOM      1  C   UNL     1      -0.692  15.629 -12.685  0.00  0.00    +0.000 A 
ATOM      2  C   UNL     1      -1.586  15.003 -13.553  0.00  0.00    +0.000 A 
ATOM      3  C   UNL     1      -1.103  14.233 -14.618  0.00  0.00    +0.000 A 
ATOM      4  C   UNL     1       0.271  14.086 -14.821  0.00  0.00    +0.000 A 
ATOM      5  C   UNL     1       1.170  14.708 -13.958  0.00  0.00    +0.000 A 
ATOM      6  C   UNL     1       0.682  15.471 -12.904  0.00  0.00    +0.000 A 
ENDROOT
BRANCH   1   8
ATOM      7  C   UNL     1      -2.082  15.941 -10.783  0.00  0.00    +0.000 C 
ATOM      8  O   UNL     1      -1.021  16.410 -11.606  0.00  0.00    +0.000 OA
ENDBRANCH   1   8
BRANCH   6   9
ATOM      9  O   UNL     1       1.586  16.073 -12.069  0.00  0.00    +0.000 OA
ATOM     10  H   UNL     1       1.679  16.980 -12.417  0.00  0.00    +0.000 HD
ENDBRANCH   6   9
TORSDOF 2
ENDMDL
MODEL 6
REMARK VINA RESULT:    -4.184     10.560     11.144
REMARK INTER + INTRA:          -4.596
REMARK INTER:                  -4.559
REMARK INTRA:                  -0.037
REMARK UNBOUND:                -0.045
REMARK  Name = 
REMARK  3 active torsions:
REMARK  status: ('A' for Active; 'I' for Inactive)
REMARK    1  A    between atoms: C_1  and  O_2
REMARK    2  A    between atoms: O_2  and  C_3
REMARK    3  A    between atoms: C_8  and  O_9
REMARK                            x       y       z     vdW  Elec       q    Type
REMARK                         _______ _______ _______ _____ _____    ______ ____
ROOT
ATOM      1  C   UNL     1      -0.791  15.772 -12.157  0.00  0.00    +0.000 A 
ATOM      2  C   UNL     1       0.600  15.688 -12.193  0.00  0.00    +0.000 A 
ATOM      3  C   UNL     1       1.231  14.966 -13.214  0.00  0.00    +0.000 A 
ATOM      4  C   UNL     1       0.477  14.328 -14.200  0.00  0.00    +0.000 A 
ATOM      5  C   UNL     1      -0.914  14.409 -14.172  0.00  0.00    +0.000 A 
ATOM      6  C   UNL     1      -1.531  15.126 -13.155  0.00  0.00    +0.000 A 
ENDROOT
BRANCH   1   8
ATOM      7  C   UNL     1      -1.680  15.809  -9.954  0.00  0.00    +0.000 C 
ATOM      8  O   UNL     1      -1.539  16.440 -11.221  0.00  0.00    +0.000 OA
ENDBRANCH   1   8
BRANCH   6   9
ATOM      9  O   UNL     1      -2.899  15.191 -13.148  0.00  0.00    +0.000 OA
ATOM     10  H   UNL     1      -3.187  14.410 -13.659  0.00  0.00    +0.000 HD
ENDBRANCH   6   9
TORSDOF 2
ENDMDL
MODEL 7
REMARK VINA RESULT:    -4.072      1.363      3.121
REMARK INTER + INTRA:          -4.474
REMARK INTER:                  -4.422
REMARK INTRA:                  -0.052
REMARK UNBOUND:                -0.045
REMARK  Name = 
REMARK  3 active torsions:
REMARK  status: ('A' for Active; 'I' for Inactive)
REMARK    1  A    between atoms: C_1  and  O_2
REMARK    2  A    between atoms: O_2  and  C_3
REMARK    3  A    between atoms: C_8  and  O_9
REMARK                            x       y       z     vdW  Elec       q    Type
REMARK                         _______ _______ _______ _____ _____    ______ ____
ROOT
ATOM      1  C   UNL     1       3.469  13.214  -2.734  0.00  0.00    +0.000 A 
ATOM      2  C   UNL     1       2.679  13.536  -1.632  0.00  0.00    +0.000 A 
ATOM      3  C   UNL     1       2.712  14.832  -1.101  0.00  0.00    +0.000 A 
ATOM      4  C   UNL     1       3.534  15.808  -1.668  0.00  0.00    +0.000 A 
ATOM      5  C   UNL     1       4.327  15.494  -2.770  0.00  0.00    +0.000 A 
ATOM      6  C   UNL     1       4.287  14.206  -3.289  0.00  0.00    +0.000 A 
ENDROOT
BRANCH   1   8
ATOM      7  C   UNL     1       4.017  10.908  -2.569  0.00  0.00    +0.000 C 
ATOM      8  O   UNL     1       3.537  11.992  -3.354  0.00  0.00    +0.000 OA
ENDBRANCH   1   8
BRANCH   6   9
ATOM      9  O   UNL     1       5.075  13.921  -4.373  0.00  0.00    +0.000 OA
ATOM     10  H   UNL     1       5.805  13.382  -4.014  0.00  0.00    +0.000 HD
ENDBRANCH   6   9
TORSDOF 2
ENDMDL
MODEL 8
REMARK VINA RESULT:    -4.036      2.084      3.813
REMARK INTER + INTRA:          -4.436
REMARK INTER:                  -4.449
REMARK INTRA:                   0.014
REMARK UNBOUND:                -0.045
REMARK  Name = 
REMARK  3 active torsions:
REMARK  status: ('A' for Active; 'I' for Inactive)
REMARK    1  A    between atoms: C_1  and  O_2
REMARK    2  A    between atoms: O_2  and  C_3
REMARK    3  A    between atoms: C_8  and  O_9
REMARK                            x       y       z     vdW  Elec       q    Type
REMARK                         _______ _______ _______ _____ _____    ______ ____
ROOT
ATOM      1  C   UNL     1       3.744  13.568  -2.629  0.00  0.00    +0.000 A 
ATOM      2  C   UNL     1       4.430  14.574  -3.308  0.00  0.00    +0.000 A 
ATOM      3  C   UNL     1       4.981  15.648  -2.597  0.00  0.00    +0.000 A 
ATOM      4  C   UNL     1       4.848  15.720  -1.209  0.00  0.00    +0.000 A 
ATOM      5  C   UNL     1       4.164  14.718  -0.523  0.00  0.00    +0.000 A 
ATOM      6  C   UNL     1       3.621  13.658  -1.237  0.00  0.00    +0.000 A 
ENDROOT
BRANCH   1   8
ATOM      7  C   UNL     1       3.997  11.339  -3.412  0.00  0.00    +0.000 C 
ATOM      8  O   UNL     1       3.156  12.465  -3.193  0.00  0.00    +0.000 OA
ENDBRANCH   1   8
BRANCH   6   9
ATOM      9  O   UNL     1       2.953  12.685  -0.541  0.00  0.00    +0.000 OA
ATOM     10  H   UNL     1       2.655  12.053  -1.222  0.00  0.00    +0.000 HD
ENDBRANCH   6   9
TORSDOF 2
ENDMDL
MODEL 9
REMARK VINA RESULT:    -3.957      2.027      3.687
REMARK INTER + INTRA:          -4.349
REMARK INTER:                  -4.301
REMARK INTRA:                  -0.048
REMARK UNBOUND:                -0.045
REMARK  Name = 
REMARK  3 active torsions:
REMARK  status: ('A' for Active; 'I' for Inactive)
REMARK    1  A    between atoms: C_1  and  O_2
REMARK    2  A    between atoms: O_2  and  C_3
REMARK    3  A    between atoms: C_8  and  O_9
REMARK                            x       y       z     vdW  Elec       q    Type
REMARK                         _______ _______ _______ _____ _____    ______ ____
ROOT
ATOM      1  C   UNL     1       3.049  13.350  -1.886  0.00  0.00    +0.000 A 
ATOM      2  C   UNL     1       3.868  13.477  -0.765  0.00  0.00    +0.000 A 
ATOM      3  C   UNL     1       3.445  14.243   0.328  0.00  0.00    +0.000 A 
ATOM      4  C   UNL     1       2.205  14.884   0.305  0.00  0.00    +0.000 A 
ATOM      5  C   UNL     1       1.380  14.762  -0.811  0.00  0.00    +0.000 A 
ATOM      6  C   UNL     1       1.809  14.000  -1.891  0.00  0.00    +0.000 A 
ENDROOT
BRANCH   1   8
ATOM      7  C   UNL     1       3.782  11.299  -2.836  0.00  0.00    +0.000 C 
ATOM      8  O   UNL     1       3.334  12.636  -3.023  0.00  0.00    +0.000 OA
ENDBRANCH   1   8
BRANCH   6   9
ATOM      9  O   UNL     1       0.981  13.895  -2.977  0.00  0.00    +0.000 OA
ATOM     10  H   UNL     1       0.292  14.571  -2.830  0.00  0.00    +0.000 HD
ENDBRANCH   6   9
TORSDOF 2
ENDMDL
