MODEL 1
REMARK VINA RESULT:    -4.391      0.000      0.000
REMARK INTER + INTRA:          -4.823
REMARK INTER:                  -4.776
REMARK INTRA:                  -0.047
REMARK UNBOUND:                -0.047
REMARK  Name = 
REMARK  3 active torsions:
REMARK  status: ('A' for Active; 'I' for Inactive)
REMARK    1  A    between atoms: C_1  and  O_2
REMARK    2  A    between atoms: O_2  and  C_3
REMARK    3  A    between atoms: C_8  and  O_9
REMARK                            x       y       z     vdW  Elec       q    Type
REMARK                         _______ _______ _______ _____ _____    ______ ____
ROOT
ATOM      1  C   UNL     1       3.607  14.046  -2.575  0.00  0.00    +0.000 A 
ATOM      2  C   UNL     1       2.904  13.330  -1.606  0.00  0.00    +0.000 A 
ATOM      3  C   UNL     1       2.884  11.931  -1.649  0.00  0.00    +0.000 A 
ATOM      4  C   UNL     1       3.562  11.243  -2.657  0.00  0.00    +0.000 A 
ATOM      5  C   UNL     1       4.266  11.952  -3.628  0.00  0.00    +0.000 A 
ATOM      6  C   UNL     1       4.281  13.340  -3.578  0.00  0.00    +0.000 A 
ENDROOT
BRANCH   1   8
ATOM      7  C   UNL     1       2.506  16.151  -2.509  0.00  0.00    +0.000 C 
ATOM      8  O   UNL     1       3.712  15.412  -2.656  0.00  0.00    +0.000 OA
ENDBRANCH   1   8
BRANCH   6   9
ATOM      9  O   UNL     1       4.980  14.014  -4.543  0.00  0.00    +0.000 OA
ATOM     10  H   UNL     1       5.337  14.800  -4.088  0.00  0.00    +0.000 HD
ENDBRANCH   6   9
TORSDOF 2
ENDMDL
MODEL 2
REMARK VINA RESULT:    -4.308     11.227     11.955
REMARK INTER + INTRA:          -4.732
REMARK INTER:                  -4.687
REMARK INTRA:                  -0.045
REMARK UNBOUND:                -0.047
REMARK  Name = 
REMARK  3 active torsions:
REMARK  status: ('A' for Active; 'I' for Inactive)
REMARK    1  A    between atoms: C_1  and  O_2
REMARK    2  A    between atoms: O_2  and  C_3
REMARK    3  A    between atoms: C_8  and  O_9
REMARK                            x       y       z     vdW  Elec       q    Type
REMARK                         _______ _______ _______ _____ _____    ______ ____
ROOT
ATOM      1  C   UNL     1      -0.511  15.814 -13.301  0.00  0.00    +0.000 A 
ATOM      2  C   UNL     1       0.306  14.691 -13.427  0.00  0.00    +0.000 A 
ATOM      3  C   UNL     1       1.452  14.746 -14.231  0.00  0.00    +0.000 A 
ATOM      4  C   UNL     1       1.784  15.920 -14.911  0.00  0.00    +0.000 A 
ATOM      5  C   UNL     1       0.973  17.046 -14.789  0.00  0.00    +0.000 A 
ATOM      6  C   UNL     1      -0.161  16.982 -13.990  0.00  0.00    +0.000 A 
ENDROOT
BRANCH   1   8
ATOM      7  C   UNL     1      -1.490  15.971 -11.142  0.00  0.00    +0.000 C 
ATOM      8  O   UNL     1      -1.657  15.903 -12.553  0.00  0.00    +0.000 OA
ENDBRANCH   1   8
BRANCH   6   9
ATOM      9  O   UNL     1      -0.943  18.102 -13.886  0.00  0.00    +0.000 OA
ATOM     10  H   UNL     1      -1.755  17.885 -14.384  0.00  0.00    +0.000 HD
ENDBRANCH   6   9
TORSDOF 2
ENDMDL
MODEL 3
REMARK VINA RESULT:    -4.307      2.206      3.006
REMARK INTER + INTRA:          -4.732
REMARK INTER:                  -4.689
REMARK INTRA:                  -0.043
REMARK UNBOUND:                -0.047
REMARK  Name = 
REMARK  3 active torsions:
REMARK  status: ('A' for Active; 'I' for Inactive)
REMARK    1  A    between atoms: C_1  and  O_2
REMARK    2  A    between atoms: O_2  and  C_3
REMARK    3  A    between atoms: C_8  and  O_9
REMARK                            x       y       z     vdW  Elec       q    Type
REMARK                         _______ _______ _______ _____ _____    ______ ____
ROOT
ATOM      1  C   UNL     1       3.567  13.786  -1.193  0.00  0.00    +0.000 A 
ATOM      2  C   UNL     1       4.234  14.789  -1.894  0.00  0.00    +0.000 A 
ATOM      3  C   UNL     1       4.568  14.598  -3.241  0.00  0.00    +0.000 A 
ATOM      4  C   UNL     1       4.238  13.407  -3.890  0.00  0.00    +0.000 A 
ATOM      5  C   UNL     1       3.572  12.400  -3.196  0.00  0.00    +0.000 A 
ATOM      6  C   UNL     1       3.245  12.598  -1.861  0.00  0.00    +0.000 A 
ENDROOT
BRANCH   1   8
ATOM      7  C   UNL     1       4.058  14.509   1.017  0.00  0.00    +0.000 C 
ATOM      8  O   UNL     1       3.181  13.835   0.122  0.00  0.00    +0.000 OA
ENDBRANCH   1   8
BRANCH   6   9
ATOM      9  O   UNL     1       2.590  11.593  -1.200  0.00  0.00    +0.000 OA
ATOM     10  H   UNL     1       3.252  10.882  -1.110  0.00  0.00    +0.000 HD
ENDBRANCH   6   9
TORSDOF 2
ENDMDL
MODEL 4
REMARK VINA RESULT:    -4.243      1.459      2.496
REMARK INTER + INTRA:          -4.662
REMARK INTER:                  -4.609
REMARK INTRA:                  -0.053
REMARK UNBOUND:                -0.047
REMARK  Name = 
REMARK  3 active torsions:
REMARK  status: ('A' for Active; 'I' for Inactive)
REMARK    1  A    between atoms: C_1  and  O_2
REMARK    2  A    between atoms: O_2  and  C_3
REMARK    3  A    between atoms: C_8  and  O_9
REMARK                            x       y       z     vdW  Elec       q    Type
REMARK                         _______ _______ _______ _____ _____    ______ ____
ROOT
ATOM      1  C   UNL     1       3.833  13.906  -2.292  0.00  0.00    +0.000 A 
ATOM      2  C   UNL     1       4.255  13.473  -3.549  0.00  0.00    +0.000 A 
ATOM      3  C   UNL     1       4.159  12.119  -3.891  0.00  0.00    +0.000 A 
ATOM      4  C   UNL     1       3.644  11.194  -2.980  0.00  0.00    +0.000 A 
ATOM      5  C   UNL     1       3.221  11.618  -1.723  0.00  0.00    +0.000 A 
ATOM      6  C   UNL     1       3.320  12.964  -1.393  0.00  0.00    +0.000 A 
ENDROOT
BRANCH   1   8
ATOM      7  C   UNL     1       5.158  15.755  -1.602  0.00  0.00    +0.000 C 
ATOM      8  O   UNL     1       3.869  15.195  -1.824  0.00  0.00    +0.000 OA
ENDBRANCH   1   8
BRANCH   6   9
ATOM      9  O   UNL     1       2.897  13.358  -0.151  0.00  0.00    +0.000 OA
ATOM     10  H   UNL     1       2.516  14.246  -0.288  0.00  0.00    +0.000 HD
ENDBRANCH   6   9
TORSDOF 2
ENDMDL
MODEL 5
REMARK VINA RESULT:    -4.202     10.894     11.575
REMARK INTER + INTRA:          -4.617
REMARK INTER:                  -4.574
REMARK INTRA:                  -0.044
REMARK UNBOUND:                -0.047
REMARK  Name = 
REMARK  3 active torsions:
REMARK  status: ('A' for Active; 'I' for Inactive)
REMARK    1  A    between atoms: C_1  and  O_2
REMARK    2  A    between atoms: O_2  and  C_3
REMARK    3  A    between atoms: C_8  and  O_9
REMARK                            x       y       z     vdW  Elec       q    Type
REMARK                         _______ _______ _______ _____ _____    ______ ____
ROOT
ATOM      1  C   UNL     1      -0.002  15.370 -12.986  0.00  0.00    +0.000 A 
ATOM      2  C   UNL     1      -0.828  14.615 -13.818  0.00  0.00    +0.000 A 
ATOM      3  C   UNL     1      -0.417  14.311 -15.122  0.00  0.00    +0.000 A 
ATOM      4  C   UNL     1       0.816  14.760 -15.599  0.00  0.00    +0.000 A 
ATOM      5  C   UNL     1       1.647  15.514 -14.774  0.00  0.00    +0.000 A 
ATOM      6  C   UNL     1       1.232  15.811 -13.482  0.00  0.00    +0.000 A 
ENDROOT
BRANCH   1   8
ATOM      7  C   UNL     1      -1.620  16.100 -11.407  0.00  0.00    +0.000 C 
ATOM      8  O   UNL     1      -0.274  15.742 -11.694  0.00  0.00    +0.000 OA
ENDBRANCH   1   8
BRANCH   6   9
ATOM      9  O   UNL     1       2.065  16.554 -12.689  0.00  0.00    +0.000 OA
ATOM     10  H   UNL     1       1.985  16.156 -11.802  0.00  0.00    +0.000 HD
ENDBRANCH   6   9
TORSDOF 2
ENDMDL
MODEL 6
REMARK VINA RESULT:    -4.069      1.363      3.122
REMARK INTER + INTRA:          -4.473
REMARK INTER:                  -4.421
REMARK INTRA:                  -0.052
REMARK UNBOUND:                -0.047
REMARK  Name = 
REMARK  3 active torsions:
REMARK  status: ('A' for Active; 'I' for Inactive)
REMARK    1  A    between atoms: C_1  and  O_2
REMARK    2  A    between atoms: O_2  and  C_3
REMARK    3  A    between atoms: C_8  and  O_9
REMARK                            x       y       z     vdW  Elec       q    Type
REMARK                         _______ _______ _______ _____ _____    ______ ____
ROOT
ATOM      1  C   UNL     1       3.498  13.242  -2.724  0.00  0.00    +0.000 A 
ATOM      2  C   UNL     1       2.718  13.556  -1.611  0.00  0.00    +0.000 A 
ATOM      3  C   UNL     1       2.747  14.851  -1.079  0.00  0.00    +0.000 A 
ATOM      4  C   UNL     1       3.554  15.835  -1.654  0.00  0.00    +0.000 A 
ATOM      5  C   UNL     1       4.335  15.529  -2.766  0.00  0.00    +0.000 A 
ATOM      6  C   UNL     1       4.300  14.242  -3.287  0.00  0.00    +0.000 A 
ENDROOT
BRANCH   1   8
ATOM      7  C   UNL     1       4.003  10.927  -2.549  0.00  0.00    +0.000 C 
ATOM      8  O   UNL     1       3.568  12.022  -3.346  0.00  0.00    +0.000 OA
ENDBRANCH   1   8
BRANCH   6   9
ATOM      9  O   UNL     1       5.077  13.966  -4.381  0.00  0.00    +0.000 OA
ATOM     10  H   UNL     1       5.988  14.166  -4.095  0.00  0.00    +0.000 HD
ENDBRANCH   6   9
TORSDOF 2
ENDMDL
MODEL 7
REMARK VINA RESULT:    -4.045     11.029     11.758
REMARK INTER + INTRA:          -4.447
REMARK INTER:                  -4.400
REMARK INTRA:                  -0.047
REMARK UNBOUND:                -0.047
REMARK  Name = 
REMARK  3 active torsions:
REMARK  status: ('A' for Active; 'I' for Inactive)
REMARK    1  A    between atoms: C_1  and  O_2
REMARK    2  A    between atoms: O_2  and  C_3
REMARK    3  A    between atoms: C_8  and  O_9
REMARK                            x       y       z     vdW  Elec       q    Type
REMARK                         _______ _______ _______ _____ _____    ______ ____
ROOT
ATOM      1  C   UNL     1       0.069  15.462 -12.968  0.00  0.00    +0.000 A 
ATOM      2  C   UNL     1       1.188  16.285 -13.090  0.00  0.00    +0.000 A 
ATOM      3  C   UNL     1       1.983  16.217 -14.241  0.00  0.00    +0.000 A 
ATOM      4  C   UNL     1       1.664  15.330 -15.271  0.00  0.00    +0.000 A 
ATOM      5  C   UNL     1       0.547  14.506 -15.156  0.00  0.00    +0.000 A 
ATOM      6  C   UNL     1      -0.236  14.579 -14.011  0.00  0.00    +0.000 A 
ENDROOT
BRANCH   1   8
ATOM      7  C   UNL     1      -1.683  16.524 -11.762  0.00  0.00    +0.000 C 
ATOM      8  O   UNL     1      -0.795  15.421 -11.902  0.00  0.00    +0.000 OA
ENDBRANCH   1   8
BRANCH   6   9
ATOM      9  O   UNL     1      -1.328  13.758 -13.921  0.00  0.00    +0.000 OA
ATOM     10  H   UNL     1      -1.909  14.037 -14.655  0.00  0.00    +0.000 HD
ENDBRANCH   6   9
TORSDOF 2
ENDMDL
MODEL 8
REMARK VINA RESULT:    -4.027      2.130      3.691
REMARK INTER + INTRA:          -4.427
REMARK INTER:                  -4.385
REMARK INTRA:                  -0.042
REMARK UNBOUND:                -0.047
REMARK  Name = 
REMARK  3 active torsions:
REMARK  status: ('A' for Active; 'I' for Inactive)
REMARK    1  A    between atoms: C_1  and  O_2
REMARK    2  A    between atoms: O_2  and  C_3
REMARK    3  A    between atoms: C_8  and  O_9
REMARK                            x       y       z     vdW  Elec       q    Type
REMARK                         _______ _______ _______ _____ _____    ______ ____
ROOT
ATOM      1  C   UNL     1       2.638  13.531  -2.011  0.00  0.00    +0.000 A 
ATOM      2  C   UNL     1       1.549  14.293  -2.433  0.00  0.00    +0.000 A 
ATOM      3  C   UNL     1       0.942  15.195  -1.551  0.00  0.00    +0.000 A 
ATOM      4  C   UNL     1       1.419  15.339  -0.247  0.00  0.00    +0.000 A 
ATOM      5  C   UNL     1       2.507  14.582   0.182  0.00  0.00    +0.000 A 
ATOM      6  C   UNL     1       3.102  13.690  -0.700  0.00  0.00    +0.000 A 
ENDROOT
BRANCH   1   8
ATOM      7  C   UNL     1       4.212  13.134  -3.746  0.00  0.00    +0.000 C 
ATOM      8  O   UNL     1       3.326  12.613  -2.763  0.00  0.00    +0.000 OA
ENDBRANCH   1   8
BRANCH   6   9
ATOM      9  O   UNL     1       4.170  12.956  -0.255  0.00  0.00    +0.000 OA
ATOM     10  H   UNL     1       3.830  12.044  -0.178  0.00  0.00    +0.000 HD
ENDBRANCH   6   9
TORSDOF 2
ENDMDL
MODEL 9
REMARK VINA RESULT:    -3.992     10.795     11.655
REMARK INTER + INTRA:          -4.389
REMARK INTER:                  -4.338
REMARK INTRA:                  -0.051
REMARK UNBOUND:                -0.047
REMARK  Name = 
REMARK  3 active torsions:
REMARK  status: ('A' for Active; 'I' for Inactive)
REMARK    1  A    between atoms: C_1  and  O_2
REMARK    2  A    between atoms: O_2  and  C_3
REMARK    3  A    between atoms: C_8  and  O_9
REMARK                            x       y       z     vdW  Elec       q    Type
REMARK                         _______ _______ _______ _____ _____    ______ ____
ROOT
ATOM      1  C   UNL     1      -0.014  15.062 -13.597  0.00  0.00    +0.000 A 
ATOM      2  C   UNL     1      -1.274  14.945 -14.181  0.00  0.00    +0.000 A 
ATOM      3  C   UNL     1      -2.407  15.405 -13.499  0.00  0.00    +0.000 A 
ATOM      4  C   UNL     1      -2.286  15.983 -12.234  0.00  0.00    +0.000 A 
ATOM      5  C   UNL     1      -1.030  16.104 -11.644  0.00  0.00    +0.000 A 
ATOM      6  C   UNL     1       0.088  15.644 -12.327  0.00  0.00    +0.000 A 
ENDROOT
BRANCH   1   8
ATOM      7  C   UNL     1       1.654  15.411 -15.253  0.00  0.00    +0.000 C 
ATOM      8  O   UNL     1       1.176  14.656 -14.146  0.00  0.00    +0.000 OA
ENDBRANCH   1   8
BRANCH   6   9
ATOM      9  O   UNL     1       1.312  15.775 -11.727  0.00  0.00    +0.000 OA
ATOM     10  H   UNL     1       1.953  15.486 -12.404  0.00  0.00    +0.000 HD
ENDBRANCH   6   9
TORSDOF 2
ENDMDL
