MODEL 1
REMARK VINA RESULT:    -5.474      0.000      0.000
REMARK INTER + INTRA:          -7.983
REMARK INTER:                  -7.395
REMARK INTRA:                  -0.588
REMARK UNBOUND:                -0.588
REMARK  Name = 
REMARK  10 active torsions:
REMARK  status: ('A' for Active; 'I' for Inactive)
REMARK    1  A    between atoms: C_1  and  C_2
REMARK    2  A    between atoms: C_5  and  N_8
REMARK    3  A    between atoms: N_8  and  C_9
REMARK    4  A    between atoms: N_8  and  C_13
REMARK    5  A    between atoms: C_9  and  C_10
REMARK    6  A    between atoms: C_10  and  C_11
REMARK    7  A    between atoms: C_10  and  O_12
REMARK    8  A    between atoms: C_13  and  C_14
REMARK    9  A    between atoms: C_14  and  C_15
REMARK   10  A    between atoms: C_14  and  O_16
REMARK                            x       y       z     vdW  Elec       q    Type
REMARK                         _______ _______ _______ _____ _____    ______ ____
ROOT
ATOM      1  N   UNL     1       6.971  14.961   5.997  0.00  0.00    +0.000 N 
ENDROOT
BRANCH   1   6
ATOM      2  C   UNL     1      12.236  16.815   7.472  0.00  0.00    +0.000 C 
ATOM      3  C   UNL     1      10.863  16.334   7.113  0.00  0.00    +0.000 A 
ATOM      4  C   UNL     1      10.590  14.975   6.998  0.00  0.00    +0.000 A 
ATOM      5  C   UNL     1       9.309  14.530   6.632  0.00  0.00    +0.000 A 
ATOM      6  C   UNL     1       8.252  15.411   6.343  0.00  0.00    +0.000 A 
ATOM      7  C   UNL     1       8.563  16.777   6.471  0.00  0.00    +0.000 A 
ATOM      8  C   UNL     1       9.839  17.235   6.838  0.00  0.00    +0.000 A 
ENDBRANCH   1   6
BRANCH   1   9
ATOM      9  C   UNL     1       6.484  15.103   4.604  0.00  0.00    +0.000 C 
BRANCH   9  10
ATOM     10  C   UNL     1       7.065  14.029   3.652  0.00  0.00    +0.000 C 
ATOM     11  C   UNL     1       6.029  12.954   3.345  0.00  0.00    +0.000 C 
BRANCH  10  12
ATOM     12  O   UNL     1       7.481  14.613   2.410  0.00  0.00    +0.000 OA
ATOM     13  H   UNL     1       8.412  14.377   2.264  0.00  0.00    +0.000 HD
ENDBRANCH  10  12
ENDBRANCH   9  10
ENDBRANCH   1   9
BRANCH   1  14
ATOM     14  C   UNL     1       5.904  14.819   7.021  0.00  0.00    +0.000 C 
BRANCH  14  15
ATOM     15  C   UNL     1       5.527  13.338   7.270  0.00  0.00    +0.000 C 
ATOM     16  C   UNL     1       4.250  12.917   6.553  0.00  0.00    +0.000 C 
BRANCH  15  17
ATOM     17  O   UNL     1       6.571  12.453   6.869  0.00  0.00    +0.000 OA
ATOM     18  H   UNL     1       6.981  12.882   6.091  0.00  0.00    +0.000 HD
ENDBRANCH  15  17
ENDBRANCH  14  15
ENDBRANCH   1  14
TORSDOF 7
ENDMDL
MODEL 2
REMARK VINA RESULT:    -5.471      0.094      1.194
REMARK INTER + INTRA:          -7.978
REMARK INTER:                  -7.391
REMARK INTRA:                  -0.587
REMARK UNBOUND:                -0.588
REMARK  Name = 
REMARK  10 active torsions:
REMARK  status: ('A' for Active; 'I' for Inactive)
REMARK    1  A    between atoms: C_1  and  C_2
REMARK    2  A    between atoms: C_5  and  N_8
REMARK    3  A    between atoms: N_8  and  C_9
REMARK    4  A    between atoms: N_8  and  C_13
REMARK    5  A    between atoms: C_9  and  C_10
REMARK    6  A    between atoms: C_10  and  C_11
REMARK    7  A    between atoms: C_10  and  O_12
REMARK    8  A    between atoms: C_13  and  C_14
REMARK    9  A    between atoms: C_14  and  C_15
REMARK   10  A    between atoms: C_14  and  O_16
REMARK                            x       y       z     vdW  Elec       q    Type
REMARK                         _______ _______ _______ _____ _____    ______ ____
ROOT
ATOM      1  N   UNL     1       6.961  14.964   6.026  0.00  0.00    +0.000 N 
ENDROOT
BRANCH   1   6
ATOM      2  C   UNL     1      12.174  16.979   7.475  0.00  0.00    +0.000 C 
ATOM      3  C   UNL     1      10.828  16.457   7.075  0.00  0.00    +0.000 A 
ATOM      4  C   UNL     1       9.768  17.324   6.831  0.00  0.00    +0.000 A 
ATOM      5  C   UNL     1       8.501  16.827   6.486  0.00  0.00    +0.000 A 
ATOM      6  C   UNL     1       8.223  15.452   6.390  0.00  0.00    +0.000 A 
ATOM      7  C   UNL     1       9.318  14.604   6.641  0.00  0.00    +0.000 A 
ATOM      8  C   UNL     1      10.591  15.088   6.985  0.00  0.00    +0.000 A 
ENDBRANCH   1   6
BRANCH   1   9
ATOM      9  C   UNL     1       6.483  15.106   4.630  0.00  0.00    +0.000 C 
BRANCH   9  10
ATOM     10  C   UNL     1       7.072  14.034   3.681  0.00  0.00    +0.000 C 
ATOM     11  C   UNL     1       6.046  12.947   3.384  0.00  0.00    +0.000 C 
BRANCH  10  12
ATOM     12  O   UNL     1       7.477  14.616   2.434  0.00  0.00    +0.000 OA
ATOM     13  H   UNL     1       8.447  14.581   2.386  0.00  0.00    +0.000 HD
ENDBRANCH  10  12
ENDBRANCH   9  10
ENDBRANCH   1   9
BRANCH   1  14
ATOM     14  C   UNL     1       5.889  14.775   7.037  0.00  0.00    +0.000 C 
BRANCH  14  15
ATOM     15  C   UNL     1       5.591  13.279   7.299  0.00  0.00    +0.000 C 
ATOM     16  C   UNL     1       4.316  12.793   6.619  0.00  0.00    +0.000 C 
BRANCH  15  17
ATOM     17  O   UNL     1       6.665  12.444   6.871  0.00  0.00    +0.000 OA
ATOM     18  H   UNL     1       7.411  12.668   7.463  0.00  0.00    +0.000 HD
ENDBRANCH  15  17
ENDBRANCH  14  15
ENDBRANCH   1  14
TORSDOF 7
ENDMDL
MODEL 3
REMARK VINA RESULT:    -5.084      1.719      2.383
REMARK INTER + INTRA:          -7.456
REMARK INTER:                  -6.991
REMARK INTRA:                  -0.465
REMARK UNBOUND:                -0.588
REMARK  Name = 
REMARK  10 active torsions:
REMARK  status: ('A' for Active; 'I' for Inactive)
REMARK    1  A    between atoms: C_1  and  C_2
REMARK    2  A    between atoms: C_5  and  N_8
REMARK    3  A    between atoms: N_8  and  C_9
REMARK    4  A    between atoms: N_8  and  C_13
REMARK    5  A    between atoms: C_9  and  C_10
REMARK    6  A    between atoms: C_10  and  C_11
REMARK    7  A    between atoms: C_10  and  O_12
REMARK    8  A    between atoms: C_13  and  C_14
REMARK    9  A    between atoms: C_14  and  C_15
REMARK   10  A    between atoms: C_14  and  O_16
REMARK                            x       y       z     vdW  Elec       q    Type
REMARK                         _______ _______ _______ _____ _____    ______ ____
ROOT
ATOM      1  N   UNL     1       5.786  13.673   6.029  0.00  0.00    +0.000 N 
ENDROOT
BRANCH   1   6
ATOM      2  C   UNL     1      10.427  16.945   7.070  0.00  0.00    +0.000 C 
ATOM      3  C   UNL     1       9.231  16.092   6.777  0.00  0.00    +0.000 A 
ATOM      4  C   UNL     1       8.049  16.656   6.308  0.00  0.00    +0.000 A 
ATOM      5  C   UNL     1       6.921  15.855   6.063  0.00  0.00    +0.000 A 
ATOM      6  C   UNL     1       6.908  14.468   6.294  0.00  0.00    +0.000 A 
ATOM      7  C   UNL     1       8.120  13.932   6.766  0.00  0.00    +0.000 A 
ATOM      8  C   UNL     1       9.256  14.721   7.013  0.00  0.00    +0.000 A 
ENDBRANCH   1   6
BRANCH   1   9
ATOM      9  C   UNL     1       5.853  12.613   4.994  0.00  0.00    +0.000 C 
BRANCH   9  10
ATOM     10  C   UNL     1       5.456  13.123   3.587  0.00  0.00    +0.000 C 
ATOM     11  C   UNL     1       6.685  13.560   2.799  0.00  0.00    +0.000 C 
BRANCH  10  12
ATOM     12  O   UNL     1       4.789  12.099   2.838  0.00  0.00    +0.000 OA
ATOM     13  H   UNL     1       4.128  11.684   3.417  0.00  0.00    +0.000 HD
ENDBRANCH  10  12
ENDBRANCH   9  10
ENDBRANCH   1   9
BRANCH   1  14
ATOM     14  C   UNL     1       4.415  14.146   6.350  0.00  0.00    +0.000 C 
BRANCH  14  15
ATOM     15  C   UNL     1       3.891  13.560   7.683  0.00  0.00    +0.000 C 
ATOM     16  C   UNL     1       2.533  14.118   8.091  0.00  0.00    +0.000 C 
BRANCH  15  17
ATOM     17  O   UNL     1       3.787  12.138   7.629  0.00  0.00    +0.000 OA
ATOM     18  H   UNL     1       3.948  11.837   8.546  0.00  0.00    +0.000 HD
ENDBRANCH  15  17
ENDBRANCH  14  15
ENDBRANCH   1  14
TORSDOF 7
ENDMDL
MODEL 4
REMARK VINA RESULT:    -5.004      1.162      3.111
REMARK INTER + INTRA:          -7.348
REMARK INTER:                  -6.860
REMARK INTRA:                  -0.488
REMARK UNBOUND:                -0.588
REMARK  Name = 
REMARK  10 active torsions:
REMARK  status: ('A' for Active; 'I' for Inactive)
REMARK    1  A    between atoms: C_1  and  C_2
REMARK    2  A    between atoms: C_5  and  N_8
REMARK    3  A    between atoms: N_8  and  C_9
REMARK    4  A    between atoms: N_8  and  C_13
REMARK    5  A    between atoms: C_9  and  C_10
REMARK    6  A    between atoms: C_10  and  C_11
REMARK    7  A    between atoms: C_10  and  O_12
REMARK    8  A    between atoms: C_13  and  C_14
REMARK    9  A    between atoms: C_14  and  C_15
REMARK   10  A    between atoms: C_14  and  O_16
REMARK                            x       y       z     vdW  Elec       q    Type
REMARK                         _______ _______ _______ _____ _____    ______ ____
ROOT
ATOM      1  N   UNL     1       6.756  15.143   6.294  0.00  0.00    +0.000 N 
ENDROOT
BRANCH   1   6
ATOM      2  C   UNL     1      12.206  16.721   7.364  0.00  0.00    +0.000 C 
ATOM      3  C   UNL     1      10.797  16.310   7.062  0.00  0.00    +0.000 A 
ATOM      4  C   UNL     1       9.816  17.260   6.801  0.00  0.00    +0.000 A 
ATOM      5  C   UNL     1       8.490  16.870   6.549  0.00  0.00    +0.000 A 
ATOM      6  C   UNL     1       8.076  15.526   6.566  0.00  0.00    +0.000 A 
ATOM      7  C   UNL     1       9.094  14.593   6.831  0.00  0.00    +0.000 A 
ATOM      8  C   UNL     1      10.424  14.969   7.083  0.00  0.00    +0.000 A 
ENDBRANCH   1   6
BRANCH   1   9
ATOM      9  C   UNL     1       5.970  14.409   7.314  0.00  0.00    +0.000 C 
BRANCH   9  10
ATOM     10  C   UNL     1       4.463  14.329   6.967  0.00  0.00    +0.000 C 
ATOM     11  C   UNL     1       3.969  12.888   7.013  0.00  0.00    +0.000 C 
BRANCH  10  12
ATOM     12  O   UNL     1       3.680  15.096   7.892  0.00  0.00    +0.000 OA
ATOM     13  H   UNL     1       4.075  14.999   8.774  0.00  0.00    +0.000 HD
ENDBRANCH  10  12
ENDBRANCH   9  10
ENDBRANCH   1   9
BRANCH   1  14
ATOM     14  C   UNL     1       6.276  14.979   4.898  0.00  0.00    +0.000 C 
BRANCH  14  15
ATOM     15  C   UNL     1       6.819  13.688   4.241  0.00  0.00    +0.000 C 
ATOM     16  C   UNL     1       5.728  12.832   3.608  0.00  0.00    +0.000 C 
BRANCH  15  17
ATOM     17  O   UNL     1       7.792  13.976   3.238  0.00  0.00    +0.000 OA
ATOM     18  H   UNL     1       7.644  14.914   3.004  0.00  0.00    +0.000 HD
ENDBRANCH  15  17
ENDBRANCH  14  15
ENDBRANCH   1  14
TORSDOF 7
ENDMDL
MODEL 5
REMARK VINA RESULT:    -4.819      1.760      5.197
REMARK INTER + INTRA:          -7.098
REMARK INTER:                  -6.685
REMARK INTRA:                  -0.413
REMARK UNBOUND:                -0.588
REMARK  Name = 
REMARK  10 active torsions:
REMARK  status: ('A' for Active; 'I' for Inactive)
REMARK    1  A    between atoms: C_1  and  C_2
REMARK    2  A    between atoms: C_5  and  N_8
REMARK    3  A    between atoms: N_8  and  C_9
REMARK    4  A    between atoms: N_8  and  C_13
REMARK    5  A    between atoms: C_9  and  C_10
REMARK    6  A    between atoms: C_10  and  C_11
REMARK    7  A    between atoms: C_10  and  O_12
REMARK    8  A    between atoms: C_13  and  C_14
REMARK    9  A    between atoms: C_14  and  C_15
REMARK   10  A    between atoms: C_14  and  O_16
REMARK                            x       y       z     vdW  Elec       q    Type
REMARK                         _______ _______ _______ _____ _____    ______ ____
ROOT
ATOM      1  N   UNL     1       6.989  14.360   5.650  0.00  0.00    +0.000 N 
ENDROOT
BRANCH   1   6
ATOM      2  C   UNL     1       1.830  13.493   8.091  0.00  0.00    +0.000 C 
ATOM      3  C   UNL     1       3.158  13.713   7.435  0.00  0.00    +0.000 A 
ATOM      4  C   UNL     1       4.069  12.670   7.299  0.00  0.00    +0.000 A 
ATOM      5  C   UNL     1       5.325  12.889   6.710  0.00  0.00    +0.000 A 
ATOM      6  C   UNL     1       5.742  14.153   6.254  0.00  0.00    +0.000 A 
ATOM      7  C   UNL     1       4.796  15.182   6.406  0.00  0.00    +0.000 A 
ATOM      8  C   UNL     1       3.535  14.977   6.991  0.00  0.00    +0.000 A 
ENDBRANCH   1   6
BRANCH   1   9
ATOM      9  C   UNL     1       7.375  13.574   4.453  0.00  0.00    +0.000 C 
BRANCH   9  10
ATOM     10  C   UNL     1       6.288  13.586   3.351  0.00  0.00    +0.000 C 
ATOM     11  C   UNL     1       6.886  13.962   2.000  0.00  0.00    +0.000 C 
BRANCH  10  12
ATOM     12  O   UNL     1       5.672  12.297   3.221  0.00  0.00    +0.000 OA
ATOM     13  H   UNL     1       4.914  12.385   2.620  0.00  0.00    +0.000 HD
ENDBRANCH  10  12
ENDBRANCH   9  10
ENDBRANCH   1   9
BRANCH   1  14
ATOM     14  C   UNL     1       8.126  14.936   6.412  0.00  0.00    +0.000 C 
BRANCH  14  15
ATOM     15  C   UNL     1       8.131  16.483   6.374  0.00  0.00    +0.000 C 
ATOM     16  C   UNL     1       9.479  17.087   6.748  0.00  0.00    +0.000 C 
BRANCH  15  17
ATOM     17  O   UNL     1       7.766  16.979   5.087  0.00  0.00    +0.000 OA
ATOM     18  H   UNL     1       7.148  16.313   4.725  0.00  0.00    +0.000 HD
ENDBRANCH  15  17
ENDBRANCH  14  15
ENDBRANCH   1  14
TORSDOF 7
ENDMDL
MODEL 6
REMARK VINA RESULT:    -4.577      1.735      5.618
REMARK INTER + INTRA:          -6.771
REMARK INTER:                  -6.480
REMARK INTRA:                  -0.291
REMARK UNBOUND:                -0.588
REMARK  Name = 
REMARK  10 active torsions:
REMARK  status: ('A' for Active; 'I' for Inactive)
REMARK    1  A    between atoms: C_1  and  C_2
REMARK    2  A    between atoms: C_5  and  N_8
REMARK    3  A    between atoms: N_8  and  C_9
REMARK    4  A    between atoms: N_8  and  C_13
REMARK    5  A    between atoms: C_9  and  C_10
REMARK    6  A    between atoms: C_10  and  C_11
REMARK    7  A    between atoms: C_10  and  O_12
REMARK    8  A    between atoms: C_13  and  C_14
REMARK    9  A    between atoms: C_14  and  C_15
REMARK   10  A    between atoms: C_14  and  O_16
REMARK                            x       y       z     vdW  Elec       q    Type
REMARK                         _______ _______ _______ _____ _____    ______ ____
ROOT
ATOM      1  N   UNL     1       7.353  13.971   6.636  0.00  0.00    +0.000 N 
ENDROOT
BRANCH   1   6
ATOM      2  C   UNL     1       1.767  13.861   8.091  0.00  0.00    +0.000 C 
ATOM      3  C   UNL     1       3.211  13.902   7.693  0.00  0.00    +0.000 A 
ATOM      4  C   UNL     1       3.779  12.867   6.957  0.00  0.00    +0.000 A 
ATOM      5  C   UNL     1       5.140  12.896   6.612  0.00  0.00    +0.000 A 
ATOM      6  C   UNL     1       6.001  13.938   7.000  0.00  0.00    +0.000 A 
ATOM      7  C   UNL     1       5.393  14.968   7.741  0.00  0.00    +0.000 A 
ATOM      8  C   UNL     1       4.032  14.952   8.091  0.00  0.00    +0.000 A 
ENDBRANCH   1   6
BRANCH   1   9
ATOM      9  C   UNL     1       8.364  14.511   7.577  0.00  0.00    +0.000 C 
BRANCH   9  10
ATOM     10  C   UNL     1       9.795  14.004   7.277  0.00  0.00    +0.000 C 
ATOM     11  C   UNL     1      10.841  14.991   7.783  0.00  0.00    +0.000 C 
BRANCH  10  12
ATOM     12  O   UNL     1      10.037  12.739   7.907  0.00  0.00    +0.000 OA
ATOM     13  H   UNL     1      10.012  12.051   7.222  0.00  0.00    +0.000 HD
ENDBRANCH  10  12
ENDBRANCH   9  10
ENDBRANCH   1   9
BRANCH   1  14
ATOM     14  C   UNL     1       7.765  13.972   5.209  0.00  0.00    +0.000 C 
BRANCH  14  15
ATOM     15  C   UNL     1       6.943  14.974   4.364  0.00  0.00    +0.000 C 
ATOM     16  C   UNL     1       7.046  16.409   4.868  0.00  0.00    +0.000 C 
BRANCH  15  17
ATOM     17  O   UNL     1       7.338  14.957   2.994  0.00  0.00    +0.000 OA
ATOM     18  H   UNL     1       8.309  15.082   3.009  0.00  0.00    +0.000 HD
ENDBRANCH  15  17
ENDBRANCH  14  15
ENDBRANCH   1  14
TORSDOF 7
ENDMDL
MODEL 7
REMARK VINA RESULT:    -4.567      1.977      5.551
REMARK INTER + INTRA:          -6.757
REMARK INTER:                  -6.377
REMARK INTRA:                  -0.381
REMARK UNBOUND:                -0.588
REMARK  Name = 
REMARK  10 active torsions:
REMARK  status: ('A' for Active; 'I' for Inactive)
REMARK    1  A    between atoms: C_1  and  C_2
REMARK    2  A    between atoms: C_5  and  N_8
REMARK    3  A    between atoms: N_8  and  C_9
REMARK    4  A    between atoms: N_8  and  C_13
REMARK    5  A    between atoms: C_9  and  C_10
REMARK    6  A    between atoms: C_10  and  C_11
REMARK    7  A    between atoms: C_10  and  O_12
REMARK    8  A    between atoms: C_13  and  C_14
REMARK    9  A    between atoms: C_14  and  C_15
REMARK   10  A    between atoms: C_14  and  O_16
REMARK                            x       y       z     vdW  Elec       q    Type
REMARK                         _______ _______ _______ _____ _____    ______ ____
ROOT
ATOM      1  N   UNL     1       6.772  13.758   5.644  0.00  0.00    +0.000 N 
ENDROOT
BRANCH   1   6
ATOM      2  C   UNL     1       1.545  13.615   8.091  0.00  0.00    +0.000 C 
ATOM      3  C   UNL     1       2.891  13.645   7.434  0.00  0.00    +0.000 A 
ATOM      4  C   UNL     1       3.712  12.523   7.436  0.00  0.00    +0.000 A 
ATOM      5  C   UNL     1       4.985  12.566   6.845  0.00  0.00    +0.000 A 
ATOM      6  C   UNL     1       5.509  13.727   6.249  0.00  0.00    +0.000 A 
ATOM      7  C   UNL     1       4.650  14.842   6.263  0.00  0.00    +0.000 A 
ATOM      8  C   UNL     1       3.374  14.812   6.849  0.00  0.00    +0.000 A 
ENDBRANCH   1   6
BRANCH   1   9
ATOM      9  C   UNL     1       7.996  13.775   6.480  0.00  0.00    +0.000 C 
BRANCH   9  10
ATOM     10  C   UNL     1       8.657  15.174   6.547  0.00  0.00    +0.000 C 
ATOM     11  C   UNL     1       8.534  15.769   7.945  0.00  0.00    +0.000 C 
BRANCH  10  12
ATOM     12  O   UNL     1      10.051  15.101   6.216  0.00  0.00    +0.000 OA
ATOM     13  H   UNL     1      10.355  15.996   5.992  0.00  0.00    +0.000 HD
ENDBRANCH  10  12
ENDBRANCH   9  10
ENDBRANCH   1   9
BRANCH   1  14
ATOM     14  C   UNL     1       6.951  14.276   4.263  0.00  0.00    +0.000 C 
BRANCH  14  15
ATOM     15  C   UNL     1       6.673  13.194   3.192  0.00  0.00    +0.000 C 
ATOM     16  C   UNL     1       5.222  12.729   3.173  0.00  0.00    +0.000 C 
BRANCH  15  17
ATOM     17  O   UNL     1       7.007  13.651   1.883  0.00  0.00    +0.000 OA
ATOM     18  H   UNL     1       7.122  14.618   1.974  0.00  0.00    +0.000 HD
ENDBRANCH  15  17
ENDBRANCH  14  15
ENDBRANCH   1  14
TORSDOF 7
ENDMDL
MODEL 8
REMARK VINA RESULT:    -4.377      2.718      4.997
REMARK INTER + INTRA:          -6.501
REMARK INTER:                  -6.117
REMARK INTRA:                  -0.384
REMARK UNBOUND:                -0.588
REMARK  Name = 
REMARK  10 active torsions:
REMARK  status: ('A' for Active; 'I' for Inactive)
REMARK    1  A    between atoms: C_1  and  C_2
REMARK    2  A    between atoms: C_5  and  N_8
REMARK    3  A    between atoms: N_8  and  C_9
REMARK    4  A    between atoms: N_8  and  C_13
REMARK    5  A    between atoms: C_9  and  C_10
REMARK    6  A    between atoms: C_10  and  C_11
REMARK    7  A    between atoms: C_10  and  O_12
REMARK    8  A    between atoms: C_13  and  C_14
REMARK    9  A    between atoms: C_14  and  C_15
REMARK   10  A    between atoms: C_14  and  O_16
REMARK                            x       y       z     vdW  Elec       q    Type
REMARK                         _______ _______ _______ _____ _____    ______ ____
ROOT
ATOM      1  N   UNL     1       6.497  13.627   7.061  0.00  0.00    +0.000 N 
ENDROOT
BRANCH   1   6
ATOM      2  C   UNL     1       6.313  13.949   1.300  0.00  0.00    +0.000 C 
ATOM      3  C   UNL     1       6.380  13.850   2.794  0.00  0.00    +0.000 A 
ATOM      4  C   UNL     1       5.647  12.887   3.480  0.00  0.00    +0.000 A 
ATOM      5  C   UNL     1       5.691  12.819   4.882  0.00  0.00    +0.000 A 
ATOM      6  C   UNL     1       6.442  13.713   5.665  0.00  0.00    +0.000 A 
ATOM      7  C   UNL     1       7.172  14.672   4.938  0.00  0.00    +0.000 A 
ATOM      8  C   UNL     1       7.139  14.750   3.536  0.00  0.00    +0.000 A 
ENDBRANCH   1   6
BRANCH   1   9
ATOM      9  C   UNL     1       5.247  13.677   7.858  0.00  0.00    +0.000 C 
BRANCH   9  10
ATOM     10  C   UNL     1       4.259  14.758   7.358  0.00  0.00    +0.000 C 
ATOM     11  C   UNL     1       2.816  14.295   7.521  0.00  0.00    +0.000 C 
BRANCH  10  12
ATOM     12  O   UNL     1       4.419  15.981   8.091  0.00  0.00    +0.000 OA
ATOM     13  H   UNL     1       3.615  16.123   8.618  0.00  0.00    +0.000 HD
ENDBRANCH  10  12
ENDBRANCH   9  10
ENDBRANCH   1   9
BRANCH   1  14
ATOM     14  C   UNL     1       7.728  13.993   7.807  0.00  0.00    +0.000 C 
BRANCH  14  15
ATOM     15  C   UNL     1       8.895  13.017   7.523  0.00  0.00    +0.000 C 
ATOM     16  C   UNL     1      10.231  13.504   8.073  0.00  0.00    +0.000 C 
BRANCH  15  17
ATOM     17  O   UNL     1       8.641  11.721   8.063  0.00  0.00    +0.000 OA
ATOM     18  H   UNL     1       7.706  11.535   7.845  0.00  0.00    +0.000 HD
ENDBRANCH  15  17
ENDBRANCH  14  15
ENDBRANCH   1  14
TORSDOF 7
ENDMDL
MODEL 9
REMARK VINA RESULT:    -4.318      2.713      4.778
REMARK INTER + INTRA:          -6.421
REMARK INTER:                  -6.273
REMARK INTRA:                  -0.148
REMARK UNBOUND:                -0.588
REMARK  Name = 
REMARK  10 active torsions:
REMARK  status: ('A' for Active; 'I' for Inactive)
REMARK    1  A    between atoms: C_1  and  C_2
REMARK    2  A    between atoms: C_5  and  N_8
REMARK    3  A    between atoms: N_8  and  C_9
REMARK    4  A    between atoms: N_8  and  C_13
REMARK    5  A    between atoms: C_9  and  C_10
REMARK    6  A    between atoms: C_10  and  C_11
REMARK    7  A    between atoms: C_10  and  O_12
REMARK    8  A    between atoms: C_13  and  C_14
REMARK    9  A    between atoms: C_14  and  C_15
REMARK   10  A    between atoms: C_14  and  O_16
REMARK                            x       y       z     vdW  Elec       q    Type
REMARK                         _______ _______ _______ _____ _____    ______ ____
ROOT
ATOM      1  N   UNL     1       5.833  13.468   7.145  0.00  0.00    +0.000 N 
ENDROOT
BRANCH   1   6
ATOM      2  C   UNL     1       6.791  14.033   1.480  0.00  0.00    +0.000 C 
ATOM      3  C   UNL     1       6.563  13.873   2.952  0.00  0.00    +0.000 A 
ATOM      4  C   UNL     1       5.772  12.840   3.444  0.00  0.00    +0.000 A 
ATOM      5  C   UNL     1       5.537  12.712   4.823  0.00  0.00    +0.000 A 
ATOM      6  C   UNL     1       6.056  13.613   5.770  0.00  0.00    +0.000 A 
ATOM      7  C   UNL     1       6.853  14.643   5.238  0.00  0.00    +0.000 A 
ATOM      8  C   UNL     1       7.097  14.781   3.861  0.00  0.00    +0.000 A 
ENDBRANCH   1   6
BRANCH   1   9
ATOM      9  C   UNL     1       6.975  13.509   8.091  0.00  0.00    +0.000 C 
BRANCH   9  10
ATOM     10  C   UNL     1       8.262  12.878   7.506  0.00  0.00    +0.000 C 
ATOM     11  C   UNL     1       9.478  13.746   7.803  0.00  0.00    +0.000 C 
BRANCH  10  12
ATOM     12  O   UNL     1       8.497  11.577   8.063  0.00  0.00    +0.000 OA
ATOM     13  H   UNL     1       7.913  10.945   7.612  0.00  0.00    +0.000 HD
ENDBRANCH  10  12
ENDBRANCH   9  10
ENDBRANCH   1   9
BRANCH   1  14
ATOM     14  C   UNL     1       4.620  12.784   7.660  0.00  0.00    +0.000 C 
BRANCH  14  15
ATOM     15  C   UNL     1       3.462  13.774   7.932  0.00  0.00    +0.000 C 
ATOM     16  C   UNL     1       3.821  15.220   7.610  0.00  0.00    +0.000 C 
BRANCH  15  17
ATOM     17  O   UNL     1       2.292  13.433   7.190  0.00  0.00    +0.000 OA
ATOM     18  H   UNL     1       2.374  13.925   6.348  0.00  0.00    +0.000 HD
ENDBRANCH  15  17
ENDBRANCH  14  15
ENDBRANCH   1  14
TORSDOF 7
ENDMDL
