MODEL 1
REMARK VINA RESULT:    -3.641      0.000      0.000
REMARK INTER + INTRA:          -3.958
REMARK INTER:                  -3.961
REMARK INTRA:                   0.003
REMARK UNBOUND:                 0.003
REMARK  Name = 
REMARK  3 active torsions:
REMARK  status: ('A' for Active; 'I' for Inactive)
REMARK    1  A    between atoms: C_1  and  O_2
REMARK    2  A    between atoms: O_2  and  C_3
REMARK    3  A    between atoms: C_8  and  O_9
REMARK                            x       y       z     vdW  Elec       q    Type
REMARK                         _______ _______ _______ _____ _____    ______ ____
ROOT
ATOM      1  C   UNL     1       4.690  13.935   3.106  0.00  0.00    +0.000 A 
ATOM      2  C   UNL     1       4.428  14.068   4.469  0.00  0.00    +0.000 A 
ATOM      3  C   UNL     1       5.087  15.052   5.215  0.00  0.00    +0.000 A 
ATOM      4  C   UNL     1       6.009  15.905   4.605  0.00  0.00    +0.000 A 
ATOM      5  C   UNL     1       6.276  15.779   3.244  0.00  0.00    +0.000 A 
ATOM      6  C   UNL     1       5.618  14.799   2.511  0.00  0.00    +0.000 A 
ENDROOT
BRANCH   1   8
ATOM      7  C   UNL     1       4.717  11.728   2.224  0.00  0.00    +0.000 C 
ATOM      8  O   UNL     1       4.122  13.020   2.256  0.00  0.00    +0.000 OA
ENDBRANCH   1   8
BRANCH   6   9
ATOM      9  O   UNL     1       5.897  14.694   1.175  0.00  0.00    +0.000 OA
ATOM     10  H   UNL     1       6.358  13.838   1.084  0.00  0.00    +0.000 HD
ENDBRANCH   6   9
TORSDOF 2
ENDMDL
MODEL 2
REMARK VINA RESULT:    -3.488      4.535      5.831
REMARK INTER + INTRA:          -3.792
REMARK INTER:                  -3.754
REMARK INTRA:                  -0.037
REMARK UNBOUND:                 0.003
REMARK  Name = 
REMARK  3 active torsions:
REMARK  status: ('A' for Active; 'I' for Inactive)
REMARK    1  A    between atoms: C_1  and  O_2
REMARK    2  A    between atoms: O_2  and  C_3
REMARK    3  A    between atoms: C_8  and  O_9
REMARK                            x       y       z     vdW  Elec       q    Type
REMARK                         _______ _______ _______ _____ _____    ______ ____
ROOT
ATOM      1  C   UNL     1       2.965  14.018   7.214  0.00  0.00    +0.000 A 
ATOM      2  C   UNL     1       1.767  14.730   7.227  0.00  0.00    +0.000 A 
ATOM      3  C   UNL     1       0.952  14.707   8.366  0.00  0.00    +0.000 A 
ATOM      4  C   UNL     1       1.331  13.974   9.493  0.00  0.00    +0.000 A 
ATOM      5  C   UNL     1       2.527  13.261   9.488  0.00  0.00    +0.000 A 
ATOM      6  C   UNL     1       3.328  13.289   8.353  0.00  0.00    +0.000 A 
ENDROOT
BRANCH   1   8
ATOM      7  C   UNL     1       3.605  14.804   5.065  0.00  0.00    +0.000 C 
ATOM      8  O   UNL     1       3.857  13.949   6.173  0.00  0.00    +0.000 OA
ENDBRANCH   1   8
BRANCH   6   9
ATOM      9  O   UNL     1       4.499  12.579   8.372  0.00  0.00    +0.000 OA
ATOM     10  H   UNL     1       4.633  12.297   7.447  0.00  0.00    +0.000 HD
ENDBRANCH   6   9
TORSDOF 2
ENDMDL
MODEL 3
REMARK VINA RESULT:    -3.405      6.054      6.959
REMARK INTER + INTRA:          -3.701
REMARK INTER:                  -3.650
REMARK INTRA:                  -0.050
REMARK UNBOUND:                 0.003
REMARK  Name = 
REMARK  3 active torsions:
REMARK  status: ('A' for Active; 'I' for Inactive)
REMARK    1  A    between atoms: C_1  and  O_2
REMARK    2  A    between atoms: O_2  and  C_3
REMARK    3  A    between atoms: C_8  and  O_9
REMARK                            x       y       z     vdW  Elec       q    Type
REMARK                         _______ _______ _______ _____ _____    ______ ____
ROOT
ATOM      1  C   UNL     1       1.326  16.646  -1.245  0.00  0.00    +0.000 A 
ATOM      2  C   UNL     1       0.457  17.557  -0.647  0.00  0.00    +0.000 A 
ATOM      3  C   UNL     1      -0.796  17.131  -0.187  0.00  0.00    +0.000 A 
ATOM      4  C   UNL     1      -1.183  15.796  -0.322  0.00  0.00    +0.000 A 
ATOM      5  C   UNL     1      -0.320  14.880  -0.918  0.00  0.00    +0.000 A 
ATOM      6  C   UNL     1       0.920  15.312  -1.372  0.00  0.00    +0.000 A 
ENDROOT
BRANCH   1   8
ATOM      7  C   UNL     1       3.589  17.202  -0.782  0.00  0.00    +0.000 C 
ATOM      8  O   UNL     1       2.575  16.922  -1.740  0.00  0.00    +0.000 OA
ENDBRANCH   1   8
BRANCH   6   9
ATOM      9  O   UNL     1       1.751  14.392  -1.955  0.00  0.00    +0.000 OA
ATOM     10  H   UNL     1       2.600  14.862  -2.069  0.00  0.00    +0.000 HD
ENDBRANCH   6   9
TORSDOF 2
ENDMDL
MODEL 4
REMARK VINA RESULT:    -3.373      4.903      6.331
REMARK INTER + INTRA:          -3.666
REMARK INTER:                  -3.620
REMARK INTRA:                  -0.046
REMARK UNBOUND:                 0.003
REMARK  Name = 
REMARK  3 active torsions:
REMARK  status: ('A' for Active; 'I' for Inactive)
REMARK    1  A    between atoms: C_1  and  O_2
REMARK    2  A    between atoms: O_2  and  C_3
REMARK    3  A    between atoms: C_8  and  O_9
REMARK                            x       y       z     vdW  Elec       q    Type
REMARK                         _______ _______ _______ _____ _____    ______ ____
ROOT
ATOM      1  C   UNL     1       2.467  14.229   7.508  0.00  0.00    +0.000 A 
ATOM      2  C   UNL     1       3.674  13.531   7.504  0.00  0.00    +0.000 A 
ATOM      3  C   UNL     1       4.077  12.823   8.643  0.00  0.00    +0.000 A 
ATOM      4  C   UNL     1       3.277  12.810   9.788  0.00  0.00    +0.000 A 
ATOM      5  C   UNL     1       2.070  13.505   9.800  0.00  0.00    +0.000 A 
ATOM      6  C   UNL     1       1.679  14.205   8.665  0.00  0.00    +0.000 A 
ENDROOT
BRANCH   1   8
ATOM      7  C   UNL     1       2.858  15.816   5.783  0.00  0.00    +0.000 C 
ATOM      8  O   UNL     1       1.950  14.962   6.470  0.00  0.00    +0.000 OA
ENDBRANCH   1   8
BRANCH   6   9
ATOM      9  O   UNL     1       0.488  14.880   8.701  0.00  0.00    +0.000 OA
ATOM     10  H   UNL     1      -0.185  14.209   8.477  0.00  0.00    +0.000 HD
ENDBRANCH   6   9
TORSDOF 2
ENDMDL
MODEL 5
REMARK VINA RESULT:    -3.358      1.731      2.621
REMARK INTER + INTRA:          -3.649
REMARK INTER:                  -3.604
REMARK INTRA:                  -0.046
REMARK UNBOUND:                 0.003
REMARK  Name = 
REMARK  3 active torsions:
REMARK  status: ('A' for Active; 'I' for Inactive)
REMARK    1  A    between atoms: C_1  and  O_2
REMARK    2  A    between atoms: O_2  and  C_3
REMARK    3  A    between atoms: C_8  and  O_9
REMARK                            x       y       z     vdW  Elec       q    Type
REMARK                         _______ _______ _______ _____ _____    ______ ____
ROOT
ATOM      1  C   UNL     1       4.574  15.420   2.147  0.00  0.00    +0.000 A 
ATOM      2  C   UNL     1       3.879  16.130   3.126  0.00  0.00    +0.000 A 
ATOM      3  C   UNL     1       3.790  15.623   4.428  0.00  0.00    +0.000 A 
ATOM      4  C   UNL     1       4.394  14.408   4.757  0.00  0.00    +0.000 A 
ATOM      5  C   UNL     1       5.090  13.693   3.785  0.00  0.00    +0.000 A 
ATOM      6  C   UNL     1       5.172  14.203   2.496  0.00  0.00    +0.000 A 
ENDROOT
BRANCH   1   8
ATOM      7  C   UNL     1       3.594  16.318   0.178  0.00  0.00    +0.000 C 
ATOM      8  O   UNL     1       4.740  15.794   0.838  0.00  0.00    +0.000 OA
ENDBRANCH   1   8
BRANCH   6   9
ATOM      9  O   UNL     1       5.862  13.482   1.558  0.00  0.00    +0.000 OA
ATOM     10  H   UNL     1       5.964  12.595   1.952  0.00  0.00    +0.000 HD
ENDBRANCH   6   9
TORSDOF 2
ENDMDL
MODEL 6
REMARK VINA RESULT:    -3.346      1.867      2.387
REMARK INTER + INTRA:          -3.637
REMARK INTER:                  -3.590
REMARK INTRA:                  -0.047
REMARK UNBOUND:                 0.003
REMARK  Name = 
REMARK  3 active torsions:
REMARK  status: ('A' for Active; 'I' for Inactive)
REMARK    1  A    between atoms: C_1  and  O_2
REMARK    2  A    between atoms: O_2  and  C_3
REMARK    3  A    between atoms: C_8  and  O_9
REMARK                            x       y       z     vdW  Elec       q    Type
REMARK                         _______ _______ _______ _____ _____    ______ ____
ROOT
ATOM      1  C   UNL     1       4.935  14.848   3.029  0.00  0.00    +0.000 A 
ATOM      2  C   UNL     1       4.152  15.478   2.063  0.00  0.00    +0.000 A 
ATOM      3  C   UNL     1       4.395  16.817   1.731  0.00  0.00    +0.000 A 
ATOM      4  C   UNL     1       5.417  17.529   2.361  0.00  0.00    +0.000 A 
ATOM      5  C   UNL     1       6.204  16.905   3.326  0.00  0.00    +0.000 A 
ATOM      6  C   UNL     1       5.956  15.578   3.650  0.00  0.00    +0.000 A 
ENDROOT
BRANCH   1   8
ATOM      7  C   UNL     1       4.686  12.559   2.439  0.00  0.00    +0.000 C 
ATOM      8  O   UNL     1       4.810  13.549   3.453  0.00  0.00    +0.000 OA
ENDBRANCH   1   8
BRANCH   6   9
ATOM      9  O   UNL     1       6.743  14.987   4.603  0.00  0.00    +0.000 OA
ATOM     10  H   UNL     1       7.583  15.483   4.574  0.00  0.00    +0.000 HD
ENDBRANCH   6   9
TORSDOF 2
ENDMDL
MODEL 7
REMARK VINA RESULT:    -3.326      9.107     10.267
REMARK INTER + INTRA:          -3.615
REMARK INTER:                  -3.568
REMARK INTRA:                  -0.047
REMARK UNBOUND:                 0.003
REMARK  Name = 
REMARK  3 active torsions:
REMARK  status: ('A' for Active; 'I' for Inactive)
REMARK    1  A    between atoms: C_1  and  O_2
REMARK    2  A    between atoms: O_2  and  C_3
REMARK    3  A    between atoms: C_8  and  O_9
REMARK                            x       y       z     vdW  Elec       q    Type
REMARK                         _______ _______ _______ _____ _____    ______ ____
ROOT
ATOM      1  C   UNL     1       9.064  18.623  -4.667  0.00  0.00    +0.000 A 
ATOM      2  C   UNL     1       8.291  17.632  -4.064  0.00  0.00    +0.000 A 
ATOM      3  C   UNL     1       6.971  17.423  -4.482  0.00  0.00    +0.000 A 
ATOM      4  C   UNL     1       6.420  18.202  -5.502  0.00  0.00    +0.000 A 
ATOM      5  C   UNL     1       7.186  19.194  -6.110  0.00  0.00    +0.000 A 
ATOM      6  C   UNL     1       8.495  19.394  -5.688  0.00  0.00    +0.000 A 
ENDROOT
BRANCH   1   8
ATOM      7  C   UNL     1      11.271  17.847  -4.251  0.00  0.00    +0.000 C 
ATOM      8  O   UNL     1      10.364  18.937  -4.359  0.00  0.00    +0.000 OA
ENDBRANCH   1   8
BRANCH   6   9
ATOM      9  O   UNL     1       9.228  20.375  -6.300  0.00  0.00    +0.000 OA
ATOM     10  H   UNL     1      10.153  20.067  -6.241  0.00  0.00    +0.000 HD
ENDBRANCH   6   9
TORSDOF 2
ENDMDL
MODEL 8
REMARK VINA RESULT:    -3.301      1.975      2.963
REMARK INTER + INTRA:          -3.588
REMARK INTER:                  -3.551
REMARK INTRA:                  -0.037
REMARK UNBOUND:                 0.003
REMARK  Name = 
REMARK  3 active torsions:
REMARK  status: ('A' for Active; 'I' for Inactive)
REMARK    1  A    between atoms: C_1  and  O_2
REMARK    2  A    between atoms: O_2  and  C_3
REMARK    3  A    between atoms: C_8  and  O_9
REMARK                            x       y       z     vdW  Elec       q    Type
REMARK                         _______ _______ _______ _____ _____    ______ ____
ROOT
ATOM      1  C   UNL     1       4.286  15.644   1.706  0.00  0.00    +0.000 A 
ATOM      2  C   UNL     1       4.911  16.821   2.113  0.00  0.00    +0.000 A 
ATOM      3  C   UNL     1       5.917  16.779   3.087  0.00  0.00    +0.000 A 
ATOM      4  C   UNL     1       6.299  15.563   3.657  0.00  0.00    +0.000 A 
ATOM      5  C   UNL     1       5.679  14.382   3.255  0.00  0.00    +0.000 A 
ATOM      6  C   UNL     1       4.683  14.434   2.289  0.00  0.00    +0.000 A 
ENDROOT
BRANCH   1   8
ATOM      7  C   UNL     1       2.908  16.737   0.108  0.00  0.00    +0.000 C 
ATOM      8  O   UNL     1       3.290  15.536   0.768  0.00  0.00    +0.000 OA
ENDBRANCH   1   8
BRANCH   6   9
ATOM      9  O   UNL     1       4.088  13.260   1.910  0.00  0.00    +0.000 OA
ATOM     10  H   UNL     1       4.005  13.325   0.939  0.00  0.00    +0.000 HD
ENDBRANCH   6   9
TORSDOF 2
ENDMDL
