MODEL 1
REMARK VINA RESULT:    -4.143      0.000      0.000
REMARK INTER + INTRA:          -4.541
REMARK INTER:                  -4.507
REMARK INTRA:                  -0.035
REMARK UNBOUND:                -0.035
REMARK  Name = 
REMARK  3 active torsions:
REMARK  status: ('A' for Active; 'I' for Inactive)
REMARK    1  A    between atoms: C_1  and  O_2
REMARK    2  A    between atoms: O_2  and  C_3
REMARK    3  A    between atoms: C_8  and  O_9
REMARK                            x       y       z     vdW  Elec       q    Type
REMARK                         _______ _______ _______ _____ _____    ______ ____
ROOT
ATOM      1  C   UNL     1       6.361  14.147   4.395  0.00  0.00    +0.000 A 
ATOM      2  C   UNL     1       5.573  13.115   4.903  0.00  0.00    +0.000 A 
ATOM      3  C   UNL     1       4.658  13.375   5.932  0.00  0.00    +0.000 A 
ATOM      4  C   UNL     1       4.530  14.662   6.456  0.00  0.00    +0.000 A 
ATOM      5  C   UNL     1       5.314  15.698   5.954  0.00  0.00    +0.000 A 
ATOM      6  C   UNL     1       6.218  15.432   4.934  0.00  0.00    +0.000 A 
ENDROOT
BRANCH   1   8
ATOM      7  C   UNL     1       6.792  13.966   2.066  0.00  0.00    +0.000 C 
ATOM      8  O   UNL     1       7.294  14.038   3.395  0.00  0.00    +0.000 OA
ENDBRANCH   1   8
BRANCH   6   9
ATOM      9  O   UNL     1       6.978  16.466   4.457  0.00  0.00    +0.000 OA
ATOM     10  H   UNL     1       7.439  16.819   5.243  0.00  0.00    +0.000 HD
ENDBRANCH   6   9
TORSDOF 2
ENDMDL
MODEL 2
REMARK VINA RESULT:    -4.081     11.352     12.366
REMARK INTER + INTRA:          -4.473
REMARK INTER:                  -4.436
REMARK INTRA:                  -0.038
REMARK UNBOUND:                -0.035
REMARK  Name = 
REMARK  3 active torsions:
REMARK  status: ('A' for Active; 'I' for Inactive)
REMARK    1  A    between atoms: C_1  and  O_2
REMARK    2  A    between atoms: O_2  and  C_3
REMARK    3  A    between atoms: C_8  and  O_9
REMARK                            x       y       z     vdW  Elec       q    Type
REMARK                         _______ _______ _______ _____ _____    ______ ____
ROOT
ATOM      1  C   UNL     1       9.944   2.851   7.998  0.00  0.00    +0.000 A 
ATOM      2  C   UNL     1       8.664   2.299   7.996  0.00  0.00    +0.000 A 
ATOM      3  C   UNL     1       7.541   3.135   8.041  0.00  0.00    +0.000 A 
ATOM      4  C   UNL     1       7.693   4.522   8.089  0.00  0.00    +0.000 A 
ATOM      5  C   UNL     1       8.969   5.081   8.091  0.00  0.00    +0.000 A 
ATOM      6  C   UNL     1      10.077   4.244   8.046  0.00  0.00    +0.000 A 
ENDROOT
BRANCH   1   8
ATOM      7  C   UNL     1      11.039   0.744   8.090  0.00  0.00    +0.000 C 
ATOM      8  O   UNL     1      11.127   2.157   7.957  0.00  0.00    +0.000 OA
ENDBRANCH   1   8
BRANCH   6   9
ATOM      9  O   UNL     1      11.320   4.817   8.049  0.00  0.00    +0.000 OA
ATOM     10  H   UNL     1      11.930   4.087   8.270  0.00  0.00    +0.000 HD
ENDBRANCH   6   9
TORSDOF 2
ENDMDL
MODEL 3
REMARK VINA RESULT:    -4.079      1.820      2.812
REMARK INTER + INTRA:          -4.471
REMARK INTER:                  -4.421
REMARK INTRA:                  -0.050
REMARK UNBOUND:                -0.035
REMARK  Name = 
REMARK  3 active torsions:
REMARK  status: ('A' for Active; 'I' for Inactive)
REMARK    1  A    between atoms: C_1  and  O_2
REMARK    2  A    between atoms: O_2  and  C_3
REMARK    3  A    between atoms: C_8  and  O_9
REMARK                            x       y       z     vdW  Elec       q    Type
REMARK                         _______ _______ _______ _____ _____    ______ ____
ROOT
ATOM      1  C   UNL     1       7.473  13.857   5.676  0.00  0.00    +0.000 A 
ATOM      2  C   UNL     1       6.604  13.454   6.690  0.00  0.00    +0.000 A 
ATOM      3  C   UNL     1       5.336  12.954   6.367  0.00  0.00    +0.000 A 
ATOM      4  C   UNL     1       4.932  12.856   5.034  0.00  0.00    +0.000 A 
ATOM      5  C   UNL     1       5.795  13.256   4.016  0.00  0.00    +0.000 A 
ATOM      6  C   UNL     1       7.050  13.751   4.345  0.00  0.00    +0.000 A 
ENDROOT
BRANCH   1   8
ATOM      7  C   UNL     1       8.857  15.497   6.695  0.00  0.00    +0.000 C 
ATOM      8  O   UNL     1       8.737  14.363   5.845  0.00  0.00    +0.000 OA
ENDBRANCH   1   8
BRANCH   6   9
ATOM      9  O   UNL     1       7.881  14.137   3.327  0.00  0.00    +0.000 OA
ATOM     10  H   UNL     1       7.364  13.984   2.513  0.00  0.00    +0.000 HD
ENDBRANCH   6   9
TORSDOF 2
ENDMDL
MODEL 4
REMARK VINA RESULT:    -3.908      3.753      4.519
REMARK INTER + INTRA:          -4.286
REMARK INTER:                  -4.239
REMARK INTRA:                  -0.047
REMARK UNBOUND:                -0.035
REMARK  Name = 
REMARK  3 active torsions:
REMARK  status: ('A' for Active; 'I' for Inactive)
REMARK    1  A    between atoms: C_1  and  O_2
REMARK    2  A    between atoms: O_2  and  C_3
REMARK    3  A    between atoms: C_8  and  O_9
REMARK                            x       y       z     vdW  Elec       q    Type
REMARK                         _______ _______ _______ _____ _____    ______ ____
ROOT
ATOM      1  C   UNL     1       7.545  13.551   6.849  0.00  0.00    +0.000 A 
ATOM      2  C   UNL     1       7.811  14.844   6.401  0.00  0.00    +0.000 A 
ATOM      3  C   UNL     1       9.038  15.450   6.699  0.00  0.00    +0.000 A 
ATOM      4  C   UNL     1      10.000  14.769   7.446  0.00  0.00    +0.000 A 
ATOM      5  C   UNL     1       9.743  13.477   7.898  0.00  0.00    +0.000 A 
ATOM      6  C   UNL     1       8.523  12.884   7.597  0.00  0.00    +0.000 A 
ENDROOT
BRANCH   1   8
ATOM      7  C   UNL     1       5.886  12.839   5.304  0.00  0.00    +0.000 C 
ATOM      8  O   UNL     1       6.393  12.838   6.633  0.00  0.00    +0.000 OA
ENDBRANCH   1   8
BRANCH   6   9
ATOM      9  O   UNL     1       8.293  11.613   8.052  0.00  0.00    +0.000 OA
ATOM     10  H   UNL     1       8.254  11.063   7.246  0.00  0.00    +0.000 HD
ENDBRANCH   6   9
TORSDOF 2
ENDMDL
MODEL 5
REMARK VINA RESULT:    -3.788      2.345      3.466
REMARK INTER + INTRA:          -4.155
REMARK INTER:                  -4.109
REMARK INTRA:                  -0.046
REMARK UNBOUND:                -0.035
REMARK  Name = 
REMARK  3 active torsions:
REMARK  status: ('A' for Active; 'I' for Inactive)
REMARK    1  A    between atoms: C_1  and  O_2
REMARK    2  A    between atoms: O_2  and  C_3
REMARK    3  A    between atoms: C_8  and  O_9
REMARK                            x       y       z     vdW  Elec       q    Type
REMARK                         _______ _______ _______ _____ _____    ______ ____
ROOT
ATOM      1  C   UNL     1       7.261  13.958   5.545  0.00  0.00    +0.000 A 
ATOM      2  C   UNL     1       7.483  14.206   4.191  0.00  0.00    +0.000 A 
ATOM      3  C   UNL     1       6.657  13.614   3.227  0.00  0.00    +0.000 A 
ATOM      4  C   UNL     1       5.610  12.774   3.611  0.00  0.00    +0.000 A 
ATOM      5  C   UNL     1       5.381  12.522   4.961  0.00  0.00    +0.000 A 
ATOM      6  C   UNL     1       6.205  13.113   5.911  0.00  0.00    +0.000 A 
ENDROOT
BRANCH   1   8
ATOM      7  C   UNL     1       9.402  14.435   6.457  0.00  0.00    +0.000 C 
ATOM      8  O   UNL     1       7.987  14.466   6.593  0.00  0.00    +0.000 OA
ENDBRANCH   1   8
BRANCH   6   9
ATOM      9  O   UNL     1       5.961  12.850   7.232  0.00  0.00    +0.000 OA
ATOM     10  H   UNL     1       6.064  11.883   7.316  0.00  0.00    +0.000 HD
ENDBRANCH   6   9
TORSDOF 2
ENDMDL
MODEL 6
REMARK VINA RESULT:    -3.781      2.233      2.777
REMARK INTER + INTRA:          -4.148
REMARK INTER:                  -4.097
REMARK INTRA:                  -0.051
REMARK UNBOUND:                -0.035
REMARK  Name = 
REMARK  3 active torsions:
REMARK  status: ('A' for Active; 'I' for Inactive)
REMARK    1  A    between atoms: C_1  and  O_2
REMARK    2  A    between atoms: O_2  and  C_3
REMARK    3  A    between atoms: C_8  and  O_9
REMARK                            x       y       z     vdW  Elec       q    Type
REMARK                         _______ _______ _______ _____ _____    ______ ____
ROOT
ATOM      1  C   UNL     1       7.223  15.095   5.115  0.00  0.00    +0.000 A 
ATOM      2  C   UNL     1       8.020  14.182   5.805  0.00  0.00    +0.000 A 
ATOM      3  C   UNL     1       8.910  14.633   6.789  0.00  0.00    +0.000 A 
ATOM      4  C   UNL     1       9.007  15.994   7.085  0.00  0.00    +0.000 A 
ATOM      5  C   UNL     1       8.214  16.912   6.400  0.00  0.00    +0.000 A 
ATOM      6  C   UNL     1       7.335  16.456   5.426  0.00  0.00    +0.000 A 
ENDROOT
BRANCH   1   8
ATOM      7  C   UNL     1       6.807  14.080   3.008  0.00  0.00    +0.000 C 
ATOM      8  O   UNL     1       6.314  14.797   4.133  0.00  0.00    +0.000 OA
ENDBRANCH   1   8
BRANCH   6   9
ATOM      9  O   UNL     1       6.566  17.377   4.767  0.00  0.00    +0.000 OA
ATOM     10  H   UNL     1       6.320  18.030   5.449  0.00  0.00    +0.000 HD
ENDBRANCH   6   9
TORSDOF 2
ENDMDL
MODEL 7
REMARK VINA RESULT:    -3.709      2.008      2.614
REMARK INTER + INTRA:          -4.069
REMARK INTER:                  -4.031
REMARK INTRA:                  -0.038
REMARK UNBOUND:                -0.035
REMARK  Name = 
REMARK  3 active torsions:
REMARK  status: ('A' for Active; 'I' for Inactive)
REMARK    1  A    between atoms: C_1  and  O_2
REMARK    2  A    between atoms: O_2  and  C_3
REMARK    3  A    between atoms: C_8  and  O_9
REMARK                            x       y       z     vdW  Elec       q    Type
REMARK                         _______ _______ _______ _____ _____    ______ ____
ROOT
ATOM      1  C   UNL     1       6.248  13.475   4.677  0.00  0.00    +0.000 A 
ATOM      2  C   UNL     1       7.496  13.914   5.116  0.00  0.00    +0.000 A 
ATOM      3  C   UNL     1       7.752  14.035   6.488  0.00  0.00    +0.000 A 
ATOM      4  C   UNL     1       6.765  13.719   7.423  0.00  0.00    +0.000 A 
ATOM      5  C   UNL     1       5.515  13.280   6.992  0.00  0.00    +0.000 A 
ATOM      6  C   UNL     1       5.270  13.164   5.630  0.00  0.00    +0.000 A 
ENDROOT
BRANCH   1   8
ATOM      7  C   UNL     1       6.697  13.895   2.381  0.00  0.00    +0.000 C 
ATOM      8  O   UNL     1       5.859  13.312   3.372  0.00  0.00    +0.000 OA
ENDBRANCH   1   8
BRANCH   6   9
ATOM      9  O   UNL     1       4.034  12.730   5.230  0.00  0.00    +0.000 OA
ATOM     10  H   UNL     1       4.216  12.057   4.547  0.00  0.00    +0.000 HD
ENDBRANCH   6   9
TORSDOF 2
ENDMDL
MODEL 8
REMARK VINA RESULT:    -3.663      2.744      3.879
REMARK INTER + INTRA:          -4.019
REMARK INTER:                  -3.977
REMARK INTRA:                  -0.043
REMARK UNBOUND:                -0.035
REMARK  Name = 
REMARK  3 active torsions:
REMARK  status: ('A' for Active; 'I' for Inactive)
REMARK    1  A    between atoms: C_1  and  O_2
REMARK    2  A    between atoms: O_2  and  C_3
REMARK    3  A    between atoms: C_8  and  O_9
REMARK                            x       y       z     vdW  Elec       q    Type
REMARK                         _______ _______ _______ _____ _____    ______ ____
ROOT
ATOM      1  C   UNL     1       5.079  13.971   6.250  0.00  0.00    +0.000 A 
ATOM      2  C   UNL     1       5.210  15.320   5.924  0.00  0.00    +0.000 A 
ATOM      3  C   UNL     1       6.484  15.882   5.767  0.00  0.00    +0.000 A 
ATOM      4  C   UNL     1       7.628  15.100   5.936  0.00  0.00    +0.000 A 
ATOM      5  C   UNL     1       7.505  13.751   6.261  0.00  0.00    +0.000 A 
ATOM      6  C   UNL     1       6.238  13.202   6.415  0.00  0.00    +0.000 A 
ENDROOT
BRANCH   1   8
ATOM      7  C   UNL     1       2.841  14.015   7.047  0.00  0.00    +0.000 C 
ATOM      8  O   UNL     1       3.902  13.292   6.435  0.00  0.00    +0.000 OA
ENDBRANCH   1   8
BRANCH   6   9
ATOM      9  O   UNL     1       6.143  11.874   6.735  0.00  0.00    +0.000 OA
ATOM     10  H   UNL     1       5.652  11.474   5.992  0.00  0.00    +0.000 HD
ENDBRANCH   6   9
TORSDOF 2
ENDMDL
MODEL 9
REMARK VINA RESULT:    -3.647      1.924      2.940
REMARK INTER + INTRA:          -4.001
REMARK INTER:                  -3.949
REMARK INTRA:                  -0.052
REMARK UNBOUND:                -0.035
REMARK  Name = 
REMARK  3 active torsions:
REMARK  status: ('A' for Active; 'I' for Inactive)
REMARK    1  A    between atoms: C_1  and  O_2
REMARK    2  A    between atoms: O_2  and  C_3
REMARK    3  A    between atoms: C_8  and  O_9
REMARK                            x       y       z     vdW  Elec       q    Type
REMARK                         _______ _______ _______ _____ _____    ______ ____
ROOT
ATOM      1  C   UNL     1       7.277  15.064   6.157  0.00  0.00    +0.000 A 
ATOM      2  C   UNL     1       7.038  14.020   7.050  0.00  0.00    +0.000 A 
ATOM      3  C   UNL     1       6.334  12.886   6.627  0.00  0.00    +0.000 A 
ATOM      4  C   UNL     1       5.867  12.791   5.314  0.00  0.00    +0.000 A 
ATOM      5  C   UNL     1       6.102  13.830   4.417  0.00  0.00    +0.000 A 
ATOM      6  C   UNL     1       6.801  14.951   4.845  0.00  0.00    +0.000 A 
ENDROOT
BRANCH   1   8
ATOM      7  C   UNL     1       9.318  16.102   6.792  0.00  0.00    +0.000 C 
ATOM      8  O   UNL     1       7.948  16.229   6.432  0.00  0.00    +0.000 OA
ENDBRANCH   1   8
BRANCH   6   9
ATOM      9  O   UNL     1       7.020  15.960   3.945  0.00  0.00    +0.000 OA
ATOM     10  H   UNL     1       7.877  15.742   3.532  0.00  0.00    +0.000 HD
ENDBRANCH   6   9
TORSDOF 2
ENDMDL
