MODEL 1
REMARK VINA RESULT:    -4.590      0.000      0.000
REMARK INTER + INTRA:          -6.680
REMARK INTER:                  -6.200
REMARK INTRA:                  -0.480
REMARK UNBOUND:                -0.480
REMARK  Name = 
REMARK  10 active torsions:
REMARK  status: ('A' for Active; 'I' for Inactive)
REMARK    1  A    between atoms: C_1  and  C_2
REMARK    2  A    between atoms: C_5  and  N_8
REMARK    3  A    between atoms: N_8  and  C_9
REMARK    4  A    between atoms: N_8  and  C_13
REMARK    5  A    between atoms: C_9  and  C_10
REMARK    6  A    between atoms: C_10  and  C_11
REMARK    7  A    between atoms: C_10  and  O_12
REMARK    8  A    between atoms: C_13  and  C_14
REMARK    9  A    between atoms: C_14  and  C_15
REMARK   10  A    between atoms: C_14  and  O_16
REMARK                            x       y       z     vdW  Elec       q    Type
REMARK                         _______ _______ _______ _____ _____    ______ ____
ROOT
ATOM      1  N   UNL     1      -3.384  18.777  -6.089  0.00  0.00    +0.000 N 
ENDROOT
BRANCH   1   6
ATOM      2  C   UNL     1       0.320  20.776 -10.040  0.00  0.00    +0.000 C 
ATOM      3  C   UNL     1      -0.645  20.281  -9.007  0.00  0.00    +0.000 A 
ATOM      4  C   UNL     1      -0.209  19.918  -7.737  0.00  0.00    +0.000 A 
ATOM      5  C   UNL     1      -1.114  19.426  -6.782  0.00  0.00    +0.000 A 
ATOM      6  C   UNL     1      -2.484  19.250  -7.052  0.00  0.00    +0.000 A 
ATOM      7  C   UNL     1      -2.889  19.629  -8.344  0.00  0.00    +0.000 A 
ATOM      8  C   UNL     1      -1.995  20.124  -9.308  0.00  0.00    +0.000 A 
ENDBRANCH   1   6
BRANCH   1   9
ATOM      9  C   UNL     1      -3.465  17.325  -5.797  0.00  0.00    +0.000 C 
BRANCH   9  10
ATOM     10  C   UNL     1      -4.807  16.920  -5.138  0.00  0.00    +0.000 C 
ATOM     11  C   UNL     1      -5.668  16.117  -6.106  0.00  0.00    +0.000 C 
BRANCH  10  12
ATOM     12  O   UNL     1      -4.585  16.117  -3.970  0.00  0.00    +0.000 OA
ATOM     13  H   UNL     1      -5.450  15.894  -3.589  0.00  0.00    +0.000 HD
ENDBRANCH  10  12
ENDBRANCH   9  10
ENDBRANCH   1   9
BRANCH   1  14
ATOM     14  C   UNL     1      -4.592  19.557  -5.716  0.00  0.00    +0.000 C 
BRANCH  14  15
ATOM     15  C   UNL     1      -4.233  20.945  -5.133  0.00  0.00    +0.000 C 
ATOM     16  C   UNL     1      -4.801  22.102  -5.946  0.00  0.00    +0.000 C 
BRANCH  15  17
ATOM     17  O   UNL     1      -4.689  21.085  -3.788  0.00  0.00    +0.000 OA
ATOM     18  H   UNL     1      -4.264  21.904  -3.461  0.00  0.00    +0.000 HD
ENDBRANCH  15  17
ENDBRANCH  14  15
ENDBRANCH   1  14
TORSDOF 7
ENDMDL
MODEL 2
REMARK VINA RESULT:    -4.399      0.300      3.468
REMARK INTER + INTRA:          -6.423
REMARK INTER:                  -5.934
REMARK INTRA:                  -0.489
REMARK UNBOUND:                -0.480
REMARK  Name = 
REMARK  10 active torsions:
REMARK  status: ('A' for Active; 'I' for Inactive)
REMARK    1  A    between atoms: C_1  and  C_2
REMARK    2  A    between atoms: C_5  and  N_8
REMARK    3  A    between atoms: N_8  and  C_9
REMARK    4  A    between atoms: N_8  and  C_13
REMARK    5  A    between atoms: C_9  and  C_10
REMARK    6  A    between atoms: C_10  and  C_11
REMARK    7  A    between atoms: C_10  and  O_12
REMARK    8  A    between atoms: C_13  and  C_14
REMARK    9  A    between atoms: C_14  and  C_15
REMARK   10  A    between atoms: C_14  and  O_16
REMARK                            x       y       z     vdW  Elec       q    Type
REMARK                         _______ _______ _______ _____ _____    ______ ____
ROOT
ATOM      1  N   UNL     1      -3.747  18.875  -6.457  0.00  0.00    +0.000 N 
ENDROOT
BRANCH   1   6
ATOM      2  C   UNL     1       0.277  20.864 -10.088  0.00  0.00    +0.000 C 
ATOM      3  C   UNL     1      -0.763  20.325  -9.154  0.00  0.00    +0.000 A 
ATOM      4  C   UNL     1      -2.102  20.273  -9.529  0.00  0.00    +0.000 A 
ATOM      5  C   UNL     1      -3.077  19.795  -8.638  0.00  0.00    +0.000 A 
ATOM      6  C   UNL     1      -2.772  19.369  -7.333  0.00  0.00    +0.000 A 
ATOM      7  C   UNL     1      -1.409  19.433  -6.989  0.00  0.00    +0.000 A 
ATOM      8  C   UNL     1      -0.424  19.907  -7.870  0.00  0.00    +0.000 A 
ENDBRANCH   1   6
BRANCH   1   9
ATOM      9  C   UNL     1      -4.833  19.762  -5.976  0.00  0.00    +0.000 C 
BRANCH   9  10
ATOM     10  C   UNL     1      -4.302  21.047  -5.296  0.00  0.00    +0.000 C 
ATOM     11  C   UNL     1      -4.882  22.293  -5.955  0.00  0.00    +0.000 C 
BRANCH  10  12
ATOM     12  O   UNL     1      -4.653  21.076  -3.905  0.00  0.00    +0.000 OA
ATOM     13  H   UNL     1      -5.601  21.280  -3.838  0.00  0.00    +0.000 HD
ENDBRANCH  10  12
ENDBRANCH   9  10
ENDBRANCH   1   9
BRANCH   1  14
ATOM     14  C   UNL     1      -3.480  17.693  -5.597  0.00  0.00    +0.000 C 
BRANCH  14  15
ATOM     15  C   UNL     1      -4.784  17.008  -5.124  0.00  0.00    +0.000 C 
ATOM     16  C   UNL     1      -5.482  16.220  -6.227  0.00  0.00    +0.000 C 
BRANCH  15  17
ATOM     17  O   UNL     1      -4.548  16.122  -4.031  0.00  0.00    +0.000 OA
ATOM     18  H   UNL     1      -4.827  15.242  -4.354  0.00  0.00    +0.000 HD
ENDBRANCH  15  17
ENDBRANCH  14  15
ENDBRANCH   1  14
TORSDOF 7
ENDMDL
MODEL 3
REMARK VINA RESULT:    -4.389      3.053      4.412
REMARK INTER + INTRA:          -6.409
REMARK INTER:                  -5.640
REMARK INTRA:                  -0.769
REMARK UNBOUND:                -0.480
REMARK  Name = 
REMARK  10 active torsions:
REMARK  status: ('A' for Active; 'I' for Inactive)
REMARK    1  A    between atoms: C_1  and  C_2
REMARK    2  A    between atoms: C_5  and  N_8
REMARK    3  A    between atoms: N_8  and  C_9
REMARK    4  A    between atoms: N_8  and  C_13
REMARK    5  A    between atoms: C_9  and  C_10
REMARK    6  A    between atoms: C_10  and  C_11
REMARK    7  A    between atoms: C_10  and  O_12
REMARK    8  A    between atoms: C_13  and  C_14
REMARK    9  A    between atoms: C_14  and  C_15
REMARK   10  A    between atoms: C_14  and  O_16
REMARK                            x       y       z     vdW  Elec       q    Type
REMARK                         _______ _______ _______ _____ _____    ______ ____
ROOT
ATOM      1  N   UNL     1      -4.023  21.468  -7.746  0.00  0.00    +0.000 N 
ENDROOT
BRANCH   1   6
ATOM      2  C   UNL     1      -0.281  17.310  -6.319  0.00  0.00    +0.000 C 
ATOM      3  C   UNL     1      -1.265  18.384  -6.668  0.00  0.00    +0.000 A 
ATOM      4  C   UNL     1      -2.388  18.102  -7.439  0.00  0.00    +0.000 A 
ATOM      5  C   UNL     1      -3.291  19.119  -7.788  0.00  0.00    +0.000 A 
ATOM      6  C   UNL     1      -3.108  20.462  -7.411  0.00  0.00    +0.000 A 
ATOM      7  C   UNL     1      -1.964  20.710  -6.631  0.00  0.00    +0.000 A 
ATOM      8  C   UNL     1      -1.054  19.702  -6.273  0.00  0.00    +0.000 A 
ENDBRANCH   1   6
BRANCH   1   9
ATOM      9  C   UNL     1      -5.402  21.430  -7.202  0.00  0.00    +0.000 C 
BRANCH   9  10
ATOM     10  C   UNL     1      -5.542  22.206  -5.869  0.00  0.00    +0.000 C 
ATOM     11  C   UNL     1      -5.253  21.299  -4.679  0.00  0.00    +0.000 C 
BRANCH  10  12
ATOM     12  O   UNL     1      -4.630  23.311  -5.818  0.00  0.00    +0.000 OA
ATOM     13  H   UNL     1      -4.243  23.342  -4.927  0.00  0.00    +0.000 HD
ENDBRANCH  10  12
ENDBRANCH   9  10
ENDBRANCH   1   9
BRANCH   1  14
ATOM     14  C   UNL     1      -3.863  22.271  -8.986  0.00  0.00    +0.000 C 
BRANCH  14  15
ATOM     15  C   UNL     1      -2.711  23.298  -8.871  0.00  0.00    +0.000 C 
ATOM     16  C   UNL     1      -2.361  23.958 -10.200  0.00  0.00    +0.000 C 
BRANCH  15  17
ATOM     17  O   UNL     1      -3.017  24.330  -7.933  0.00  0.00    +0.000 OA
ATOM     18  H   UNL     1      -3.983  24.265  -7.793  0.00  0.00    +0.000 HD
ENDBRANCH  15  17
ENDBRANCH  14  15
ENDBRANCH   1  14
TORSDOF 7
ENDMDL
MODEL 4
REMARK VINA RESULT:    -4.381      1.076      3.347
REMARK INTER + INTRA:          -6.398
REMARK INTER:                  -5.788
REMARK INTRA:                  -0.611
REMARK UNBOUND:                -0.480
REMARK  Name = 
REMARK  10 active torsions:
REMARK  status: ('A' for Active; 'I' for Inactive)
REMARK    1  A    between atoms: C_1  and  C_2
REMARK    2  A    between atoms: C_5  and  N_8
REMARK    3  A    between atoms: N_8  and  C_9
REMARK    4  A    between atoms: N_8  and  C_13
REMARK    5  A    between atoms: C_9  and  C_10
REMARK    6  A    between atoms: C_10  and  C_11
REMARK    7  A    between atoms: C_10  and  O_12
REMARK    8  A    between atoms: C_13  and  C_14
REMARK    9  A    between atoms: C_14  and  C_15
REMARK   10  A    between atoms: C_14  and  O_16
REMARK                            x       y       z     vdW  Elec       q    Type
REMARK                         _______ _______ _______ _____ _____    ______ ____
ROOT
ATOM      1  N   UNL     1      -3.047  19.560  -6.240  0.00  0.00    +0.000 N 
ENDROOT
BRANCH   1   6
ATOM      2  C   UNL     1       0.333  20.789 -10.757  0.00  0.00    +0.000 C 
ATOM      3  C   UNL     1      -0.553  20.493  -9.585  0.00  0.00    +0.000 A 
ATOM      4  C   UNL     1      -0.096  20.664  -8.283  0.00  0.00    +0.000 A 
ATOM      5  C   UNL     1      -0.921  20.357  -7.188  0.00  0.00    +0.000 A 
ATOM      6  C   UNL     1      -2.223  19.846  -7.336  0.00  0.00    +0.000 A 
ATOM      7  C   UNL     1      -2.653  19.688  -8.666  0.00  0.00    +0.000 A 
ATOM      8  C   UNL     1      -1.839  19.993  -9.770  0.00  0.00    +0.000 A 
ENDBRANCH   1   6
BRANCH   1   9
ATOM      9  C   UNL     1      -3.614  20.664  -5.429  0.00  0.00    +0.000 C 
BRANCH   9  10
ATOM     10  C   UNL     1      -4.381  21.703  -6.283  0.00  0.00    +0.000 C 
ATOM     11  C   UNL     1      -5.690  21.122  -6.803  0.00  0.00    +0.000 C 
BRANCH  10  12
ATOM     12  O   UNL     1      -4.689  22.874  -5.514  0.00  0.00    +0.000 OA
ATOM     13  H   UNL     1      -4.760  22.612  -4.581  0.00  0.00    +0.000 HD
ENDBRANCH  10  12
ENDBRANCH   9  10
ENDBRANCH   1   9
BRANCH   1  14
ATOM     14  C   UNL     1      -2.977  18.248  -5.547  0.00  0.00    +0.000 C 
BRANCH  14  15
ATOM     15  C   UNL     1      -4.350  17.534  -5.507  0.00  0.00    +0.000 C 
ATOM     16  C   UNL     1      -4.742  16.914  -6.843  0.00  0.00    +0.000 C 
BRANCH  15  17
ATOM     17  O   UNL     1      -4.382  16.508  -4.517  0.00  0.00    +0.000 OA
ATOM     18  H   UNL     1      -4.951  16.862  -3.804  0.00  0.00    +0.000 HD
ENDBRANCH  15  17
ENDBRANCH  14  15
ENDBRANCH   1  14
TORSDOF 7
ENDMDL
MODEL 5
REMARK VINA RESULT:    -4.381      2.461      5.534
REMARK INTER + INTRA:          -6.398
REMARK INTER:                  -6.142
REMARK INTRA:                  -0.256
REMARK UNBOUND:                -0.480
REMARK  Name = 
REMARK  10 active torsions:
REMARK  status: ('A' for Active; 'I' for Inactive)
REMARK    1  A    between atoms: C_1  and  C_2
REMARK    2  A    between atoms: C_5  and  N_8
REMARK    3  A    between atoms: N_8  and  C_9
REMARK    4  A    between atoms: N_8  and  C_13
REMARK    5  A    between atoms: C_9  and  C_10
REMARK    6  A    between atoms: C_10  and  C_11
REMARK    7  A    between atoms: C_10  and  O_12
REMARK    8  A    between atoms: C_13  and  C_14
REMARK    9  A    between atoms: C_14  and  C_15
REMARK   10  A    between atoms: C_14  and  O_16
REMARK                            x       y       z     vdW  Elec       q    Type
REMARK                         _______ _______ _______ _____ _____    ______ ____
ROOT
ATOM      1  N   UNL     1      -2.571  20.864  -7.598  0.00  0.00    +0.000 N 
ENDROOT
BRANCH   1   6
ATOM      2  C   UNL     1      -5.007  16.416  -4.838  0.00  0.00    +0.000 C 
ATOM      3  C   UNL     1      -4.388  17.564  -5.575  0.00  0.00    +0.000 A 
ATOM      4  C   UNL     1      -3.171  17.418  -6.233  0.00  0.00    +0.000 A 
ATOM      5  C   UNL     1      -2.580  18.505  -6.896  0.00  0.00    +0.000 A 
ATOM      6  C   UNL     1      -3.156  19.788  -6.918  0.00  0.00    +0.000 A 
ATOM      7  C   UNL     1      -4.387  19.899  -6.244  0.00  0.00    +0.000 A 
ATOM      8  C   UNL     1      -4.990  18.819  -5.579  0.00  0.00    +0.000 A 
ENDBRANCH   1   6
BRANCH   1   9
ATOM      9  C   UNL     1      -3.325  22.127  -7.780  0.00  0.00    +0.000 C 
BRANCH   9  10
ATOM     10  C   UNL     1      -3.147  23.108  -6.595  0.00  0.00    +0.000 C 
ATOM     11  C   UNL     1      -2.514  24.414  -7.059  0.00  0.00    +0.000 C 
BRANCH  10  12
ATOM     12  O   UNL     1      -4.410  23.417  -5.988  0.00  0.00    +0.000 OA
ATOM     13  H   UNL     1      -4.958  23.873  -6.649  0.00  0.00    +0.000 HD
ENDBRANCH  10  12
ENDBRANCH   9  10
ENDBRANCH   1   9
BRANCH   1  14
ATOM     14  C   UNL     1      -1.467  20.650  -8.569  0.00  0.00    +0.000 C 
BRANCH  14  15
ATOM     15  C   UNL     1      -0.074  20.795  -7.911  0.00  0.00    +0.000 C 
ATOM     16  C   UNL     1      -0.143  21.227  -6.451  0.00  0.00    +0.000 C 
BRANCH  15  17
ATOM     17  O   UNL     1       0.670  19.580  -7.978  0.00  0.00    +0.000 OA
ATOM     18  H   UNL     1       0.177  18.951  -7.413  0.00  0.00    +0.000 HD
ENDBRANCH  15  17
ENDBRANCH  14  15
ENDBRANCH   1  14
TORSDOF 7
ENDMDL
MODEL 6
REMARK VINA RESULT:    -4.365      3.542      5.551
REMARK INTER + INTRA:          -6.376
REMARK INTER:                  -5.892
REMARK INTRA:                  -0.484
REMARK UNBOUND:                -0.480
REMARK  Name = 
REMARK  10 active torsions:
REMARK  status: ('A' for Active; 'I' for Inactive)
REMARK    1  A    between atoms: C_1  and  C_2
REMARK    2  A    between atoms: C_5  and  N_8
REMARK    3  A    between atoms: N_8  and  C_9
REMARK    4  A    between atoms: N_8  and  C_13
REMARK    5  A    between atoms: C_9  and  C_10
REMARK    6  A    between atoms: C_10  and  C_11
REMARK    7  A    between atoms: C_10  and  O_12
REMARK    8  A    between atoms: C_13  and  C_14
REMARK    9  A    between atoms: C_14  and  C_15
REMARK   10  A    between atoms: C_14  and  O_16
REMARK                            x       y       z     vdW  Elec       q    Type
REMARK                         _______ _______ _______ _____ _____    ______ ____
ROOT
ATOM      1  N   UNL     1      -1.499  22.119  -8.265  0.00  0.00    +0.000 N 
ENDROOT
BRANCH   1   6
ATOM      2  C   UNL     1      -0.241  16.904  -6.132  0.00  0.00    +0.000 C 
ATOM      3  C   UNL     1      -0.578  18.264  -6.664  0.00  0.00    +0.000 A 
ATOM      4  C   UNL     1      -1.756  18.482  -7.370  0.00  0.00    +0.000 A 
ATOM      5  C   UNL     1      -2.054  19.751  -7.892  0.00  0.00    +0.000 A 
ATOM      6  C   UNL     1      -1.187  20.851  -7.759  0.00  0.00    +0.000 A 
ATOM      7  C   UNL     1      -0.006  20.595  -7.038  0.00  0.00    +0.000 A 
ATOM      8  C   UNL     1       0.302  19.331  -6.508  0.00  0.00    +0.000 A 
ENDBRANCH   1   6
BRANCH   1   9
ATOM      9  C   UNL     1      -1.446  22.370  -9.726  0.00  0.00    +0.000 C 
BRANCH   9  10
ATOM     10  C   UNL     1      -0.046  22.099 -10.331  0.00  0.00    +0.000 C 
ATOM     11  C   UNL     1      -0.129  21.084 -11.464  0.00  0.00    +0.000 C 
BRANCH  10  12
ATOM     12  O   UNL     1       0.530  23.304 -10.854  0.00  0.00    +0.000 OA
ATOM     13  H   UNL     1       0.937  23.788 -10.117  0.00  0.00    +0.000 HD
ENDBRANCH  10  12
ENDBRANCH   9  10
ENDBRANCH   1   9
BRANCH   1  14
ATOM     14  C   UNL     1      -1.385  23.335  -7.419  0.00  0.00    +0.000 C 
BRANCH  14  15
ATOM     15  C   UNL     1      -2.770  23.918  -7.046  0.00  0.00    +0.000 C 
ATOM     16  C   UNL     1      -3.813  22.847  -6.754  0.00  0.00    +0.000 C 
BRANCH  15  17
ATOM     17  O   UNL     1      -2.690  24.779  -5.911  0.00  0.00    +0.000 OA
ATOM     18  H   UNL     1      -2.991  25.652  -6.235  0.00  0.00    +0.000 HD
ENDBRANCH  15  17
ENDBRANCH  14  15
ENDBRANCH   1  14
TORSDOF 7
ENDMDL
MODEL 7
REMARK VINA RESULT:    -4.358      1.820      3.504
REMARK INTER + INTRA:          -6.367
REMARK INTER:                  -5.766
REMARK INTRA:                  -0.600
REMARK UNBOUND:                -0.480
REMARK  Name = 
REMARK  10 active torsions:
REMARK  status: ('A' for Active; 'I' for Inactive)
REMARK    1  A    between atoms: C_1  and  C_2
REMARK    2  A    between atoms: C_5  and  N_8
REMARK    3  A    between atoms: N_8  and  C_9
REMARK    4  A    between atoms: N_8  and  C_13
REMARK    5  A    between atoms: C_9  and  C_10
REMARK    6  A    between atoms: C_10  and  C_11
REMARK    7  A    between atoms: C_10  and  O_12
REMARK    8  A    between atoms: C_13  and  C_14
REMARK    9  A    between atoms: C_14  and  C_15
REMARK   10  A    between atoms: C_14  and  O_16
REMARK                            x       y       z     vdW  Elec       q    Type
REMARK                         _______ _______ _______ _____ _____    ______ ____
ROOT
ATOM      1  N   UNL     1      -2.653  19.926  -6.178  0.00  0.00    +0.000 N 
ENDROOT
BRANCH   1   6
ATOM      2  C   UNL     1       0.438  23.814  -9.120  0.00  0.00    +0.000 C 
ATOM      3  C   UNL     1      -0.382  22.822  -8.355  0.00  0.00    +0.000 A 
ATOM      4  C   UNL     1      -0.264  22.712  -6.973  0.00  0.00    +0.000 A 
ATOM      5  C   UNL     1      -1.014  21.759  -6.264  0.00  0.00    +0.000 A 
ATOM      6  C   UNL     1      -1.894  20.861  -6.894  0.00  0.00    +0.000 A 
ATOM      7  C   UNL     1      -1.990  21.002  -8.290  0.00  0.00    +0.000 A 
ATOM      8  C   UNL     1      -1.247  21.952  -9.011  0.00  0.00    +0.000 A 
ENDBRANCH   1   6
BRANCH   1   9
ATOM      9  C   UNL     1      -3.498  20.368  -5.043  0.00  0.00    +0.000 C 
BRANCH   9  10
ATOM     10  C   UNL     1      -4.630  21.331  -5.477  0.00  0.00    +0.000 C 
ATOM     11  C   UNL     1      -5.692  20.594  -6.286  0.00  0.00    +0.000 C 
BRANCH  10  12
ATOM     12  O   UNL     1      -5.271  21.920  -4.337  0.00  0.00    +0.000 OA
ATOM     13  H   UNL     1      -4.587  22.110  -3.673  0.00  0.00    +0.000 HD
ENDBRANCH  10  12
ENDBRANCH   9  10
ENDBRANCH   1   9
BRANCH   1  14
ATOM     14  C   UNL     1      -2.281  18.488  -6.157  0.00  0.00    +0.000 C 
BRANCH  14  15
ATOM     15  C   UNL     1      -3.326  17.626  -5.409  0.00  0.00    +0.000 C 
ATOM     16  C   UNL     1      -4.353  16.989  -6.338  0.00  0.00    +0.000 C 
BRANCH  15  17
ATOM     17  O   UNL     1      -2.708  16.585  -4.655  0.00  0.00    +0.000 OA
ATOM     18  H   UNL     1      -1.878  16.977  -4.316  0.00  0.00    +0.000 HD
ENDBRANCH  15  17
ENDBRANCH  14  15
ENDBRANCH   1  14
TORSDOF 7
ENDMDL
MODEL 8
REMARK VINA RESULT:    -4.341      3.269      5.549
REMARK INTER + INTRA:          -6.344
REMARK INTER:                  -5.670
REMARK INTRA:                  -0.674
REMARK UNBOUND:                -0.480
REMARK  Name = 
REMARK  10 active torsions:
REMARK  status: ('A' for Active; 'I' for Inactive)
REMARK    1  A    between atoms: C_1  and  C_2
REMARK    2  A    between atoms: C_5  and  N_8
REMARK    3  A    between atoms: N_8  and  C_9
REMARK    4  A    between atoms: N_8  and  C_13
REMARK    5  A    between atoms: C_9  and  C_10
REMARK    6  A    between atoms: C_10  and  C_11
REMARK    7  A    between atoms: C_10  and  O_12
REMARK    8  A    between atoms: C_13  and  C_14
REMARK    9  A    between atoms: C_14  and  C_15
REMARK   10  A    between atoms: C_14  and  O_16
REMARK                            x       y       z     vdW  Elec       q    Type
REMARK                         _______ _______ _______ _____ _____    ______ ____
ROOT
ATOM      1  N   UNL     1      -2.340  21.972  -8.665  0.00  0.00    +0.000 N 
ENDROOT
BRANCH   1   6
ATOM      2  C   UNL     1      -0.163  17.216  -6.223  0.00  0.00    +0.000 C 
ATOM      3  C   UNL     1      -0.734  18.458  -6.834  0.00  0.00    +0.000 A 
ATOM      4  C   UNL     1      -2.056  18.499  -7.266  0.00  0.00    +0.000 A 
ATOM      5  C   UNL     1      -2.577  19.657  -7.866  0.00  0.00    +0.000 A 
ATOM      6  C   UNL     1      -1.808  20.814  -8.084  0.00  0.00    +0.000 A 
ATOM      7  C   UNL     1      -0.477  20.738  -7.633  0.00  0.00    +0.000 A 
ATOM      8  C   UNL     1       0.057  19.587  -7.030  0.00  0.00    +0.000 A 
ENDBRANCH   1   6
BRANCH   1   9
ATOM      9  C   UNL     1      -3.553  22.602  -8.091  0.00  0.00    +0.000 C 
BRANCH   9  10
ATOM     10  C   UNL     1      -3.311  23.197  -6.683  0.00  0.00    +0.000 C 
ATOM     11  C   UNL     1      -2.623  24.554  -6.776  0.00  0.00    +0.000 C 
BRANCH  10  12
ATOM     12  O   UNL     1      -4.548  23.374  -5.979  0.00  0.00    +0.000 OA
ATOM     13  H   UNL     1      -4.849  24.286  -6.124  0.00  0.00    +0.000 HD
ENDBRANCH  10  12
ENDBRANCH   9  10
ENDBRANCH   1   9
BRANCH   1  14
ATOM     14  C   UNL     1      -2.074  22.311 -10.087  0.00  0.00    +0.000 C 
BRANCH  14  15
ATOM     15  C   UNL     1      -1.452  23.719 -10.245  0.00  0.00    +0.000 C 
ATOM     16  C   UNL     1      -0.135  23.881  -9.496  0.00  0.00    +0.000 C 
BRANCH  15  17
ATOM     17  O   UNL     1      -1.224  24.044 -11.616  0.00  0.00    +0.000 OA
ATOM     18  H   UNL     1      -1.216  25.022 -11.646  0.00  0.00    +0.000 HD
ENDBRANCH  15  17
ENDBRANCH  14  15
ENDBRANCH   1  14
TORSDOF 7
ENDMDL
MODEL 9
REMARK VINA RESULT:    -4.258      1.840      2.256
REMARK INTER + INTRA:          -6.232
REMARK INTER:                  -5.696
REMARK INTRA:                  -0.536
REMARK UNBOUND:                -0.480
REMARK  Name = 
REMARK  10 active torsions:
REMARK  status: ('A' for Active; 'I' for Inactive)
REMARK    1  A    between atoms: C_1  and  C_2
REMARK    2  A    between atoms: C_5  and  N_8
REMARK    3  A    between atoms: N_8  and  C_9
REMARK    4  A    between atoms: N_8  and  C_13
REMARK    5  A    between atoms: C_9  and  C_10
REMARK    6  A    between atoms: C_10  and  C_11
REMARK    7  A    between atoms: C_10  and  O_12
REMARK    8  A    between atoms: C_13  and  C_14
REMARK    9  A    between atoms: C_14  and  C_15
REMARK   10  A    between atoms: C_14  and  O_16
REMARK                            x       y       z     vdW  Elec       q    Type
REMARK                         _______ _______ _______ _____ _____    ______ ____
ROOT
ATOM      1  N   UNL     1      -2.306  19.892  -5.992  0.00  0.00    +0.000 N 
ENDROOT
BRANCH   1   6
ATOM      2  C   UNL     1       0.375  23.691  -9.413  0.00  0.00    +0.000 C 
ATOM      3  C   UNL     1      -0.299  22.692  -8.523  0.00  0.00    +0.000 A 
ATOM      4  C   UNL     1      -0.950  21.585  -9.056  0.00  0.00    +0.000 A 
ATOM      5  C   UNL     1      -1.606  20.668  -8.219  0.00  0.00    +0.000 A 
ATOM      6  C   UNL     1      -1.666  20.820  -6.822  0.00  0.00    +0.000 A 
ATOM      7  C   UNL     1      -0.997  21.950  -6.318  0.00  0.00    +0.000 A 
ATOM      8  C   UNL     1      -0.335  22.874  -7.143  0.00  0.00    +0.000 A 
ENDBRANCH   1   6
BRANCH   1   9
ATOM      9  C   UNL     1      -2.189  18.440  -6.271  0.00  0.00    +0.000 C 
BRANCH   9  10
ATOM     10  C   UNL     1      -3.206  17.591  -5.470  0.00  0.00    +0.000 C 
ATOM     11  C   UNL     1      -4.231  16.949  -6.398  0.00  0.00    +0.000 C 
BRANCH  10  12
ATOM     12  O   UNL     1      -2.545  16.544  -4.746  0.00  0.00    +0.000 OA
ATOM     13  H   UNL     1      -1.688  16.378  -5.172  0.00  0.00    +0.000 HD
ENDBRANCH  10  12
ENDBRANCH   9  10
ENDBRANCH   1   9
BRANCH   1  14
ATOM     14  C   UNL     1      -3.482  20.276  -5.171  0.00  0.00    +0.000 C 
BRANCH  14  15
ATOM     15  C   UNL     1      -4.452  21.206  -5.939  0.00  0.00    +0.000 C 
ATOM     16  C   UNL     1      -5.682  20.481  -6.473  0.00  0.00    +0.000 C 
BRANCH  15  17
ATOM     17  O   UNL     1      -4.897  22.291  -5.126  0.00  0.00    +0.000 OA
ATOM     18  H   UNL     1      -4.189  22.418  -4.464  0.00  0.00    +0.000 HD
ENDBRANCH  15  17
ENDBRANCH  14  15
ENDBRANCH   1  14
TORSDOF 7
ENDMDL
