MODEL 1
REMARK VINA RESULT:    -3.984      0.000      0.000
REMARK INTER + INTRA:          -6.045
REMARK INTER:                  -5.381
REMARK INTRA:                  -0.665
REMARK UNBOUND:                -0.665
REMARK  Name = 
REMARK  10 active torsions:
REMARK  status: ('A' for Active; 'I' for Inactive)
REMARK    1  A    between atoms: C_1  and  C_2
REMARK    2  A    between atoms: C_5  and  N_8
REMARK    3  A    between atoms: N_8  and  C_9
REMARK    4  A    between atoms: N_8  and  C_13
REMARK    5  A    between atoms: C_9  and  C_10
REMARK    6  A    between atoms: C_10  and  C_11
REMARK    7  A    between atoms: C_10  and  O_12
REMARK    8  A    between atoms: C_13  and  C_14
REMARK    9  A    between atoms: C_14  and  C_15
REMARK   10  A    between atoms: C_14  and  O_16
REMARK                            x       y       z     vdW  Elec       q    Type
REMARK                         _______ _______ _______ _____ _____    ______ ____
ROOT
ATOM      1  N   UNL     1      15.229  10.576  12.791  0.00  0.00    +0.000 N 
ENDROOT
BRANCH   1   6
ATOM      2  C   UNL     1      16.834   7.516  17.416  0.00  0.00    +0.000 C 
ATOM      3  C   UNL     1      16.404   8.291  16.208  0.00  0.00    +0.000 A 
ATOM      4  C   UNL     1      17.153   8.263  15.037  0.00  0.00    +0.000 A 
ATOM      5  C   UNL     1      16.761   9.015  13.918  0.00  0.00    +0.000 A 
ATOM      6  C   UNL     1      15.625   9.844  13.918  0.00  0.00    +0.000 A 
ATOM      7  C   UNL     1      14.890   9.847  15.118  0.00  0.00    +0.000 A 
ATOM      8  C   UNL     1      15.270   9.098  16.244  0.00  0.00    +0.000 A 
ENDBRANCH   1   6
BRANCH   1   9
ATOM      9  C   UNL     1      16.247  11.098  11.848  0.00  0.00    +0.000 C 
BRANCH   9  10
ATOM     10  C   UNL     1      16.080  10.536  10.415  0.00  0.00    +0.000 C 
ATOM     11  C   UNL     1      17.277  10.900   9.544  0.00  0.00    +0.000 C 
BRANCH  10  12
ATOM     12  O   UNL     1      15.961   9.107  10.432  0.00  0.00    +0.000 OA
ATOM     13  H   UNL     1      15.364   8.846   9.711  0.00  0.00    +0.000 HD
ENDBRANCH  10  12
ENDBRANCH   9  10
ENDBRANCH   1   9
BRANCH   1  14
ATOM     14  C   UNL     1      13.923  11.284  12.754  0.00  0.00    +0.000 C 
BRANCH  14  15
ATOM     15  C   UNL     1      12.871  10.523  11.913  0.00  0.00    +0.000 C 
ATOM     16  C   UNL     1      12.535  11.220  10.600  0.00  0.00    +0.000 C 
BRANCH  15  17
ATOM     17  O   UNL     1      13.296   9.195  11.612  0.00  0.00    +0.000 OA
ATOM     18  H   UNL     1      13.676   9.249  10.712  0.00  0.00    +0.000 HD
ENDBRANCH  15  17
ENDBRANCH  14  15
ENDBRANCH   1  14
TORSDOF 7
ENDMDL
MODEL 2
REMARK VINA RESULT:    -3.694      1.737      2.191
REMARK INTER + INTRA:          -5.655
REMARK INTER:                  -5.506
REMARK INTRA:                  -0.149
REMARK UNBOUND:                -0.665
REMARK  Name = 
REMARK  10 active torsions:
REMARK  status: ('A' for Active; 'I' for Inactive)
REMARK    1  A    between atoms: C_1  and  C_2
REMARK    2  A    between atoms: C_5  and  N_8
REMARK    3  A    between atoms: N_8  and  C_9
REMARK    4  A    between atoms: N_8  and  C_13
REMARK    5  A    between atoms: C_9  and  C_10
REMARK    6  A    between atoms: C_10  and  C_11
REMARK    7  A    between atoms: C_10  and  O_12
REMARK    8  A    between atoms: C_13  and  C_14
REMARK    9  A    between atoms: C_14  and  C_15
REMARK   10  A    between atoms: C_14  and  O_16
REMARK                            x       y       z     vdW  Elec       q    Type
REMARK                         _______ _______ _______ _____ _____    ______ ____
ROOT
ATOM      1  N   UNL     1      14.477  10.294  11.182  0.00  0.00    +0.000 N 
ENDROOT
BRANCH   1   6
ATOM      2  C   UNL     1      15.208  10.266  16.909  0.00  0.00    +0.000 C 
ATOM      3  C   UNL     1      14.997  10.260  15.425  0.00  0.00    +0.000 A 
ATOM      4  C   UNL     1      15.552   9.264  14.629  0.00  0.00    +0.000 A 
ATOM      5  C   UNL     1      15.376   9.280  13.236  0.00  0.00    +0.000 A 
ATOM      6  C   UNL     1      14.665  10.294  12.570  0.00  0.00    +0.000 A 
ATOM      7  C   UNL     1      14.116  11.284  13.406  0.00  0.00    +0.000 A 
ATOM      8  C   UNL     1      14.282  11.278  14.801  0.00  0.00    +0.000 A 
ENDBRANCH   1   6
BRANCH   1   9
ATOM      9  C   UNL     1      15.544   9.783  10.288  0.00  0.00    +0.000 C 
BRANCH   9  10
ATOM     10  C   UNL     1      16.036  10.845   9.274  0.00  0.00    +0.000 C 
ATOM     11  C   UNL     1      17.490  11.219   9.539  0.00  0.00    +0.000 C 
BRANCH  10  12
ATOM     12  O   UNL     1      15.941  10.355   7.929  0.00  0.00    +0.000 OA
ATOM     13  H   UNL     1      16.563   9.615   7.833  0.00  0.00    +0.000 HD
ENDBRANCH  10  12
ENDBRANCH   9  10
ENDBRANCH   1   9
BRANCH   1  14
ATOM     14  C   UNL     1      13.511  11.219  10.536  0.00  0.00    +0.000 C 
BRANCH  14  15
ATOM     15  C   UNL     1      12.432  10.463   9.723  0.00  0.00    +0.000 C 
ATOM     16  C   UNL     1      12.076  11.155   8.412  0.00  0.00    +0.000 C 
BRANCH  15  17
ATOM     17  O   UNL     1      12.837   9.129   9.423  0.00  0.00    +0.000 OA
ATOM     18  H   UNL     1      13.516   8.913  10.094  0.00  0.00    +0.000 HD
ENDBRANCH  15  17
ENDBRANCH  14  15
ENDBRANCH   1  14
TORSDOF 7
ENDMDL
MODEL 3
REMARK VINA RESULT:    -3.692      1.297      3.126
REMARK INTER + INTRA:          -5.652
REMARK INTER:                  -5.601
REMARK INTRA:                  -0.052
REMARK UNBOUND:                -0.665
REMARK  Name = 
REMARK  10 active torsions:
REMARK  status: ('A' for Active; 'I' for Inactive)
REMARK    1  A    between atoms: C_1  and  C_2
REMARK    2  A    between atoms: C_5  and  N_8
REMARK    3  A    between atoms: N_8  and  C_9
REMARK    4  A    between atoms: N_8  and  C_13
REMARK    5  A    between atoms: C_9  and  C_10
REMARK    6  A    between atoms: C_10  and  C_11
REMARK    7  A    between atoms: C_10  and  O_12
REMARK    8  A    between atoms: C_13  and  C_14
REMARK    9  A    between atoms: C_14  and  C_15
REMARK   10  A    between atoms: C_14  and  O_16
REMARK                            x       y       z     vdW  Elec       q    Type
REMARK                         _______ _______ _______ _____ _____    ______ ____
ROOT
ATOM      1  N   UNL     1      15.106  10.580  11.791  0.00  0.00    +0.000 N 
ENDROOT
BRANCH   1   6
ATOM      2  C   UNL     1      15.256   8.989  17.339  0.00  0.00    +0.000 C 
ATOM      3  C   UNL     1      15.237   9.416  15.903  0.00  0.00    +0.000 A 
ATOM      4  C   UNL     1      14.506  10.527  15.497  0.00  0.00    +0.000 A 
ATOM      5  C   UNL     1      14.468  10.905  14.145  0.00  0.00    +0.000 A 
ATOM      6  C   UNL     1      15.132  10.186  13.135  0.00  0.00    +0.000 A 
ATOM      7  C   UNL     1      15.863   9.070  13.582  0.00  0.00    +0.000 A 
ATOM      8  C   UNL     1      15.911   8.683  14.931  0.00  0.00    +0.000 A 
ENDBRANCH   1   6
BRANCH   1   9
ATOM      9  C   UNL     1      13.886  11.203  11.223  0.00  0.00    +0.000 C 
BRANCH   9  10
ATOM     10  C   UNL     1      12.810  10.163  10.826  0.00  0.00    +0.000 C 
ATOM     11  C   UNL     1      12.079  10.592   9.559  0.00  0.00    +0.000 C 
BRANCH  10  12
ATOM     12  O   UNL     1      13.400   8.878  10.585  0.00  0.00    +0.000 OA
ATOM     13  H   UNL     1      14.355   9.004  10.458  0.00  0.00    +0.000 HD
ENDBRANCH  10  12
ENDBRANCH   9  10
ENDBRANCH   1   9
BRANCH   1  14
ATOM     14  C   UNL     1      16.016   9.965  10.792  0.00  0.00    +0.000 C 
BRANCH  14  15
ATOM     15  C   UNL     1      16.075  10.778   9.476  0.00  0.00    +0.000 C 
ATOM     16  C   UNL     1      17.498  11.045   9.000  0.00  0.00    +0.000 C 
BRANCH  15  17
ATOM     17  O   UNL     1      15.371  10.125   8.421  0.00  0.00    +0.000 OA
ATOM     18  H   UNL     1      14.436  10.115   8.710  0.00  0.00    +0.000 HD
ENDBRANCH  15  17
ENDBRANCH  14  15
ENDBRANCH   1  14
TORSDOF 7
ENDMDL
MODEL 4
REMARK VINA RESULT:    -3.691      5.497      8.984
REMARK INTER + INTRA:          -5.651
REMARK INTER:                  -5.156
REMARK INTRA:                  -0.495
REMARK UNBOUND:                -0.665
REMARK  Name = 
REMARK  10 active torsions:
REMARK  status: ('A' for Active; 'I' for Inactive)
REMARK    1  A    between atoms: C_1  and  C_2
REMARK    2  A    between atoms: C_5  and  N_8
REMARK    3  A    between atoms: N_8  and  C_9
REMARK    4  A    between atoms: N_8  and  C_13
REMARK    5  A    between atoms: C_9  and  C_10
REMARK    6  A    between atoms: C_10  and  C_11
REMARK    7  A    between atoms: C_10  and  O_12
REMARK    8  A    between atoms: C_13  and  C_14
REMARK    9  A    between atoms: C_14  and  C_15
REMARK   10  A    between atoms: C_14  and  O_16
REMARK                            x       y       z     vdW  Elec       q    Type
REMARK                         _______ _______ _______ _____ _____    ______ ____
ROOT
ATOM      1  N   UNL     1      16.508   7.693  20.630  0.00  0.00    +0.000 N 
ENDROOT
BRANCH   1   6
ATOM      2  C   UNL     1      15.917   8.652  14.968  0.00  0.00    +0.000 C 
ATOM      3  C   UNL     1      16.055   8.383  16.436  0.00  0.00    +0.000 A 
ATOM      4  C   UNL     1      15.224   9.012  17.358  0.00  0.00    +0.000 A 
ATOM      5  C   UNL     1      15.378   8.779  18.734  0.00  0.00    +0.000 A 
ATOM      6  C   UNL     1      16.373   7.935  19.257  0.00  0.00    +0.000 A 
ATOM      7  C   UNL     1      17.193   7.315  18.297  0.00  0.00    +0.000 A 
ATOM      8  C   UNL     1      17.049   7.537  16.917  0.00  0.00    +0.000 A 
ENDBRANCH   1   6
BRANCH   1   9
ATOM      9  C   UNL     1      15.979   6.439  21.219  0.00  0.00    +0.000 C 
BRANCH   9  10
ATOM     10  C   UNL     1      17.071   5.358  21.412  0.00  0.00    +0.000 C 
ATOM     11  C   UNL     1      17.159   4.925  22.870  0.00  0.00    +0.000 C 
BRANCH  10  12
ATOM     12  O   UNL     1      16.791   4.196  20.619  0.00  0.00    +0.000 OA
ATOM     13  H   UNL     1      17.105   3.416  21.106  0.00  0.00    +0.000 HD
ENDBRANCH  10  12
ENDBRANCH   9  10
ENDBRANCH   1   9
BRANCH   1  14
ATOM     14  C   UNL     1      16.686   8.809  21.594  0.00  0.00    +0.000 C 
BRANCH  14  15
ATOM     15  C   UNL     1      15.472   8.961  22.543  0.00  0.00    +0.000 C 
ATOM     16  C   UNL     1      15.857   9.450  23.934  0.00  0.00    +0.000 C 
BRANCH  15  17
ATOM     17  O   UNL     1      14.498   9.857  22.012  0.00  0.00    +0.000 OA
ATOM     18  H   UNL     1      14.614  10.686  22.520  0.00  0.00    +0.000 HD
ENDBRANCH  15  17
ENDBRANCH  14  15
ENDBRANCH   1  14
TORSDOF 7
ENDMDL
MODEL 5
REMARK VINA RESULT:    -3.523      5.848      9.366
REMARK INTER + INTRA:          -5.424
REMARK INTER:                  -4.838
REMARK INTRA:                  -0.585
REMARK UNBOUND:                -0.665
REMARK  Name = 
REMARK  10 active torsions:
REMARK  status: ('A' for Active; 'I' for Inactive)
REMARK    1  A    between atoms: C_1  and  C_2
REMARK    2  A    between atoms: C_5  and  N_8
REMARK    3  A    between atoms: N_8  and  C_9
REMARK    4  A    between atoms: N_8  and  C_13
REMARK    5  A    between atoms: C_9  and  C_10
REMARK    6  A    between atoms: C_10  and  C_11
REMARK    7  A    between atoms: C_10  and  O_12
REMARK    8  A    between atoms: C_13  and  C_14
REMARK    9  A    between atoms: C_14  and  C_15
REMARK   10  A    between atoms: C_14  and  O_16
REMARK                            x       y       z     vdW  Elec       q    Type
REMARK                         _______ _______ _______ _____ _____    ______ ____
ROOT
ATOM      1  N   UNL     1      16.208   7.882  20.870  0.00  0.00    +0.000 N 
ENDROOT
BRANCH   1   6
ATOM      2  C   UNL     1      16.218   8.396  15.119  0.00  0.00    +0.000 C 
ATOM      3  C   UNL     1      16.231   8.282  16.613  0.00  0.00    +0.000 A 
ATOM      4  C   UNL     1      17.158   7.473  17.260  0.00  0.00    +0.000 A 
ATOM      5  C   UNL     1      17.146   7.347  18.659  0.00  0.00    +0.000 A 
ATOM      6  C   UNL     1      16.202   7.997  19.474  0.00  0.00    +0.000 A 
ATOM      7  C   UNL     1      15.281   8.808  18.786  0.00  0.00    +0.000 A 
ATOM      8  C   UNL     1      15.283   8.945  17.388  0.00  0.00    +0.000 A 
ENDBRANCH   1   6
BRANCH   1   9
ATOM      9  C   UNL     1      15.630   8.961  21.707  0.00  0.00    +0.000 C 
BRANCH   9  10
ATOM     10  C   UNL     1      15.747   8.671  23.223  0.00  0.00    +0.000 C 
ATOM     11  C   UNL     1      15.780   9.968  24.024  0.00  0.00    +0.000 C 
BRANCH  10  12
ATOM     12  O   UNL     1      14.636   7.891  23.686  0.00  0.00    +0.000 OA
ATOM     13  H   UNL     1      14.829   7.600  24.593  0.00  0.00    +0.000 HD
ENDBRANCH  10  12
ENDBRANCH   9  10
ENDBRANCH   1   9
BRANCH   1  14
ATOM     14  C   UNL     1      17.189   7.010  21.565  0.00  0.00    +0.000 C 
BRANCH  14  15
ATOM     15  C   UNL     1      16.640   5.581  21.795  0.00  0.00    +0.000 C 
ATOM     16  C   UNL     1      17.137   4.949  23.089  0.00  0.00    +0.000 C 
BRANCH  15  17
ATOM     17  O   UNL     1      15.214   5.560  21.812  0.00  0.00    +0.000 OA
ATOM     18  H   UNL     1      14.951   5.490  20.873  0.00  0.00    +0.000 HD
ENDBRANCH  15  17
ENDBRANCH  14  15
ENDBRANCH   1  14
TORSDOF 7
ENDMDL
MODEL 6
REMARK VINA RESULT:    -3.443      1.423      3.047
REMARK INTER + INTRA:          -5.316
REMARK INTER:                  -4.839
REMARK INTRA:                  -0.476
REMARK UNBOUND:                -0.665
REMARK  Name = 
REMARK  10 active torsions:
REMARK  status: ('A' for Active; 'I' for Inactive)
REMARK    1  A    between atoms: C_1  and  C_2
REMARK    2  A    between atoms: C_5  and  N_8
REMARK    3  A    between atoms: N_8  and  C_9
REMARK    4  A    between atoms: N_8  and  C_13
REMARK    5  A    between atoms: C_9  and  C_10
REMARK    6  A    between atoms: C_10  and  C_11
REMARK    7  A    between atoms: C_10  and  O_12
REMARK    8  A    between atoms: C_13  and  C_14
REMARK    9  A    between atoms: C_14  and  C_15
REMARK   10  A    between atoms: C_14  and  O_16
REMARK                            x       y       z     vdW  Elec       q    Type
REMARK                         _______ _______ _______ _____ _____    ______ ____
ROOT
ATOM      1  N   UNL     1      15.001  10.663  13.340  0.00  0.00    +0.000 N 
ENDROOT
BRANCH   1   6
ATOM      2  C   UNL     1      15.881   9.097  18.827  0.00  0.00    +0.000 C 
ATOM      3  C   UNL     1      15.628   9.501  17.407  0.00  0.00    +0.000 A 
ATOM      4  C   UNL     1      15.645   8.559  16.383  0.00  0.00    +0.000 A 
ATOM      5  C   UNL     1      15.437   8.948  15.049  0.00  0.00    +0.000 A 
ATOM      6  C   UNL     1      15.227  10.286  14.670  0.00  0.00    +0.000 A 
ATOM      7  C   UNL     1      15.214  11.210  15.731  0.00  0.00    +0.000 A 
ATOM      8  C   UNL     1      15.419  10.835  17.069  0.00  0.00    +0.000 A 
ENDBRANCH   1   6
BRANCH   1   9
ATOM      9  C   UNL     1      13.903  10.036  12.566  0.00  0.00    +0.000 C 
BRANCH   9  10
ATOM     10  C   UNL     1      13.078  11.064  11.754  0.00  0.00    +0.000 C 
ATOM     11  C   UNL     1      12.863  10.583  10.324  0.00  0.00    +0.000 C 
BRANCH  10  12
ATOM     12  O   UNL     1      11.791  11.277  12.350  0.00  0.00    +0.000 OA
ATOM     13  H   UNL     1      11.148  10.714  11.887  0.00  0.00    +0.000 HD
ENDBRANCH  10  12
ENDBRANCH   9  10
ENDBRANCH   1   9
BRANCH   1  14
ATOM     14  C   UNL     1      16.082  11.263  12.517  0.00  0.00    +0.000 C 
BRANCH  14  15
ATOM     15  C   UNL     1      16.637  10.271  11.467  0.00  0.00    +0.000 C 
ATOM     16  C   UNL     1      17.402  10.955  10.341  0.00  0.00    +0.000 C 
BRANCH  15  17
ATOM     17  O   UNL     1      17.498   9.301  12.062  0.00  0.00    +0.000 OA
ATOM     18  H   UNL     1      16.995   8.463  12.030  0.00  0.00    +0.000 HD
ENDBRANCH  15  17
ENDBRANCH  14  15
ENDBRANCH   1  14
TORSDOF 7
ENDMDL
MODEL 7
REMARK VINA RESULT:    -2.555      4.903      7.847
REMARK INTER + INTRA:          -4.116
REMARK INTER:                  -3.879
REMARK INTRA:                  -0.236
REMARK UNBOUND:                -0.665
REMARK  Name = 
REMARK  10 active torsions:
REMARK  status: ('A' for Active; 'I' for Inactive)
REMARK    1  A    between atoms: C_1  and  C_2
REMARK    2  A    between atoms: C_5  and  N_8
REMARK    3  A    between atoms: N_8  and  C_9
REMARK    4  A    between atoms: N_8  and  C_13
REMARK    5  A    between atoms: C_9  and  C_10
REMARK    6  A    between atoms: C_10  and  C_11
REMARK    7  A    between atoms: C_10  and  O_12
REMARK    8  A    between atoms: C_13  and  C_14
REMARK    9  A    between atoms: C_14  and  C_15
REMARK   10  A    between atoms: C_14  and  O_16
REMARK                            x       y       z     vdW  Elec       q    Type
REMARK                         _______ _______ _______ _____ _____    ______ ____
ROOT
ATOM      1  N   UNL     1      17.450   7.798  19.302  0.00  0.00    +0.000 N 
ENDROOT
BRANCH   1   6
ATOM      2  C   UNL     1      16.736   4.561  24.029  0.00  0.00    +0.000 C 
ATOM      3  C   UNL     1      16.945   5.394  22.801  0.00  0.00    +0.000 A 
ATOM      4  C   UNL     1      17.332   6.726  22.898  0.00  0.00    +0.000 A 
ATOM      5  C   UNL     1      17.498   7.510  21.745  0.00  0.00    +0.000 A 
ATOM      6  C   UNL     1      17.265   7.016  20.449  0.00  0.00    +0.000 A 
ATOM      7  C   UNL     1      16.877   5.665  20.388  0.00  0.00    +0.000 A 
ATOM      8  C   UNL     1      16.710   4.869  21.533  0.00  0.00    +0.000 A 
ENDBRANCH   1   6
BRANCH   1   9
ATOM      9  C   UNL     1      17.326   9.274  19.380  0.00  0.00    +0.000 C 
BRANCH   9  10
ATOM     10  C   UNL     1      15.927   9.734  19.857  0.00  0.00    +0.000 C 
ATOM     11  C   UNL     1      16.040  10.684  21.043  0.00  0.00    +0.000 C 
BRANCH  10  12
ATOM     12  O   UNL     1      15.223  10.414  18.808  0.00  0.00    +0.000 OA
ATOM     13  H   UNL     1      15.722  11.216  18.582  0.00  0.00    +0.000 HD
ENDBRANCH  10  12
ENDBRANCH   9  10
ENDBRANCH   1   9
BRANCH   1  14
ATOM     14  C   UNL     1      17.264   7.227  17.943  0.00  0.00    +0.000 C 
BRANCH  14  15
ATOM     15  C   UNL     1      16.777   8.287  16.926  0.00  0.00    +0.000 C 
ATOM     16  C   UNL     1      17.496   8.205  15.585  0.00  0.00    +0.000 C 
BRANCH  15  17
ATOM     17  O   UNL     1      15.376   8.180  16.683  0.00  0.00    +0.000 OA
ATOM     18  H   UNL     1      15.207   7.220  16.597  0.00  0.00    +0.000 HD
ENDBRANCH  15  17
ENDBRANCH  14  15
ENDBRANCH   1  14
TORSDOF 7
ENDMDL
