MODEL 1
REMARK VINA RESULT:    -4.910      0.000      0.000
REMARK INTER + INTRA:          -5.388
REMARK INTER:                  -5.341
REMARK INTRA:                  -0.048
REMARK UNBOUND:                -0.048
REMARK  Name = 
REMARK  3 active torsions:
REMARK  status: ('A' for Active; 'I' for Inactive)
REMARK    1  A    between atoms: C_1  and  O_2
REMARK    2  A    between atoms: O_2  and  C_3
REMARK    3  A    between atoms: C_8  and  O_9
REMARK                            x       y       z     vdW  Elec       q    Type
REMARK                         _______ _______ _______ _____ _____    ______ ____
ROOT
ATOM      1  C   UNL     1      -1.217  14.284 -18.584  0.00  0.00    +0.000 A 
ATOM      2  C   UNL     1      -0.033  14.192 -19.315  0.00  0.00    +0.000 A 
ATOM      3  C   UNL     1       0.104  13.210 -20.304  0.00  0.00    +0.000 A 
ATOM      4  C   UNL     1      -0.937  12.318 -20.565  0.00  0.00    +0.000 A 
ATOM      5  C   UNL     1      -2.123  12.403 -19.839  0.00  0.00    +0.000 A 
ATOM      6  C   UNL     1      -2.251  13.380 -18.860  0.00  0.00    +0.000 A 
ENDROOT
BRANCH   1   8
ATOM      7  C   UNL     1      -0.490  15.357 -16.592  0.00  0.00    +0.000 C 
ATOM      8  O   UNL     1      -1.489  15.191 -17.591  0.00  0.00    +0.000 OA
ENDBRANCH   1   8
BRANCH   6   9
ATOM      9  O   UNL     1      -3.426  13.445 -18.160  0.00  0.00    +0.000 OA
ATOM     10  H   UNL     1      -4.030  12.842 -18.634  0.00  0.00    +0.000 HD
ENDBRANCH   6   9
TORSDOF 2
ENDMDL
MODEL 2
REMARK VINA RESULT:    -4.563     13.101     13.539
REMARK INTER + INTRA:          -5.010
REMARK INTER:                  -5.031
REMARK INTRA:                   0.021
REMARK UNBOUND:                -0.048
REMARK  Name = 
REMARK  3 active torsions:
REMARK  status: ('A' for Active; 'I' for Inactive)
REMARK    1  A    between atoms: C_1  and  O_2
REMARK    2  A    between atoms: O_2  and  C_3
REMARK    3  A    between atoms: C_8  and  O_9
REMARK                            x       y       z     vdW  Elec       q    Type
REMARK                         _______ _______ _______ _____ _____    ______ ____
ROOT
ATOM      1  C   UNL     1     -11.404  21.926 -22.784  0.00  0.00    +0.000 A 
ATOM      2  C   UNL     1     -11.696  22.369 -21.495  0.00  0.00    +0.000 A 
ATOM      3  C   UNL     1     -12.323  21.508 -20.585  0.00  0.00    +0.000 A 
ATOM      4  C   UNL     1     -12.661  20.206 -20.960  0.00  0.00    +0.000 A 
ATOM      5  C   UNL     1     -12.372  19.757 -22.246  0.00  0.00    +0.000 A 
ATOM      6  C   UNL     1     -11.750  20.617 -23.142  0.00  0.00    +0.000 A 
ENDROOT
BRANCH   1   8
ATOM      7  C   UNL     1      -9.374  22.654 -23.782  0.00  0.00    +0.000 C 
ATOM      8  O   UNL     1     -10.796  22.657 -23.774  0.00  0.00    +0.000 OA
ENDBRANCH   1   8
BRANCH   6   9
ATOM      9  O   UNL     1     -11.476  20.153 -24.401  0.00  0.00    +0.000 OA
ATOM     10  H   UNL     1     -11.702  20.895 -24.994  0.00  0.00    +0.000 HD
ENDBRANCH   6   9
TORSDOF 2
ENDMDL
MODEL 3
REMARK VINA RESULT:    -4.428     13.130     13.536
REMARK INTER + INTRA:          -4.864
REMARK INTER:                  -4.816
REMARK INTRA:                  -0.048
REMARK UNBOUND:                -0.048
REMARK  Name = 
REMARK  3 active torsions:
REMARK  status: ('A' for Active; 'I' for Inactive)
REMARK    1  A    between atoms: C_1  and  O_2
REMARK    2  A    between atoms: O_2  and  C_3
REMARK    3  A    between atoms: C_8  and  O_9
REMARK                            x       y       z     vdW  Elec       q    Type
REMARK                         _______ _______ _______ _____ _____    ______ ____
ROOT
ATOM      1  C   UNL     1     -11.336  21.766 -22.808  0.00  0.00    +0.000 A 
ATOM      2  C   UNL     1     -11.479  20.530 -23.437  0.00  0.00    +0.000 A 
ATOM      3  C   UNL     1     -12.212  19.510 -22.818  0.00  0.00    +0.000 A 
ATOM      4  C   UNL     1     -12.804  19.720 -21.571  0.00  0.00    +0.000 A 
ATOM      5  C   UNL     1     -12.666  20.953 -20.936  0.00  0.00    +0.000 A 
ATOM      6  C   UNL     1     -11.937  21.958 -21.558  0.00  0.00    +0.000 A 
ENDROOT
BRANCH   1   8
ATOM      7  C   UNL     1      -9.342  22.598 -23.797  0.00  0.00    +0.000 C 
ATOM      8  O   UNL     1     -10.649  22.849 -23.295  0.00  0.00    +0.000 OA
ENDBRANCH   1   8
BRANCH   6   9
ATOM      9  O   UNL     1     -11.815  23.161 -20.914  0.00  0.00    +0.000 OA
ATOM     10  H   UNL     1     -12.732  23.427 -20.710  0.00  0.00    +0.000 HD
ENDBRANCH   6   9
TORSDOF 2
ENDMDL
MODEL 4
REMARK VINA RESULT:    -4.272     17.405     18.285
REMARK INTER + INTRA:          -4.694
REMARK INTER:                  -4.648
REMARK INTRA:                  -0.046
REMARK UNBOUND:                -0.048
REMARK  Name = 
REMARK  3 active torsions:
REMARK  status: ('A' for Active; 'I' for Inactive)
REMARK    1  A    between atoms: C_1  and  O_2
REMARK    2  A    between atoms: O_2  and  C_3
REMARK    3  A    between atoms: C_8  and  O_9
REMARK                            x       y       z     vdW  Elec       q    Type
REMARK                         _______ _______ _______ _____ _____    ______ ____
ROOT
ATOM      1  C   UNL     1      -0.754  30.525 -24.163  0.00  0.00    +0.000 A 
ATOM      2  C   UNL     1      -0.763  31.167 -22.926  0.00  0.00    +0.000 A 
ATOM      3  C   UNL     1      -1.512  32.337 -22.749  0.00  0.00    +0.000 A 
ATOM      4  C   UNL     1      -2.253  32.868 -23.806  0.00  0.00    +0.000 A 
ATOM      5  C   UNL     1      -2.250  32.233 -25.045  0.00  0.00    +0.000 A 
ATOM      6  C   UNL     1      -1.504  31.073 -25.211  0.00  0.00    +0.000 A 
ENDROOT
BRANCH   1   8
ATOM      7  C   UNL     1      -0.125  28.324 -23.525  0.00  0.00    +0.000 C 
ATOM      8  O   UNL     1      -0.069  29.379 -24.478  0.00  0.00    +0.000 OA
ENDBRANCH   1   8
BRANCH   6   9
ATOM      9  O   UNL     1      -1.516  30.466 -26.439  0.00  0.00    +0.000 OA
ATOM     10  H   UNL     1      -2.453  30.238 -26.593  0.00  0.00    +0.000 HD
ENDBRANCH   6   9
TORSDOF 2
ENDMDL
MODEL 5
REMARK VINA RESULT:    -4.155     16.647     17.623
REMARK INTER + INTRA:          -4.567
REMARK INTER:                  -4.529
REMARK INTRA:                  -0.038
REMARK UNBOUND:                -0.048
REMARK  Name = 
REMARK  3 active torsions:
REMARK  status: ('A' for Active; 'I' for Inactive)
REMARK    1  A    between atoms: C_1  and  O_2
REMARK    2  A    between atoms: O_2  and  C_3
REMARK    3  A    between atoms: C_8  and  O_9
REMARK                            x       y       z     vdW  Elec       q    Type
REMARK                         _______ _______ _______ _____ _____    ______ ____
ROOT
ATOM      1  C   UNL     1      -0.526  29.924 -23.577  0.00  0.00    +0.000 A 
ATOM      2  C   UNL     1      -1.314  30.176 -24.699  0.00  0.00    +0.000 A 
ATOM      3  C   UNL     1      -2.021  31.380 -24.801  0.00  0.00    +0.000 A 
ATOM      4  C   UNL     1      -1.946  32.334 -23.784  0.00  0.00    +0.000 A 
ATOM      5  C   UNL     1      -1.161  32.090 -22.660  0.00  0.00    +0.000 A 
ATOM      6  C   UNL     1      -0.462  30.893 -22.567  0.00  0.00    +0.000 A 
ENDROOT
BRANCH   1   8
ATOM      7  C   UNL     1      -0.065  27.669 -24.167  0.00  0.00    +0.000 C 
ATOM      8  O   UNL     1       0.217  28.795 -23.344  0.00  0.00    +0.000 OA
ENDBRANCH   1   8
BRANCH   6   9
ATOM      9  O   UNL     1       0.303  30.675 -21.452  0.00  0.00    +0.000 OA
ATOM     10  H   UNL     1       0.608  31.563 -21.183  0.00  0.00    +0.000 HD
ENDBRANCH   6   9
TORSDOF 2
ENDMDL
MODEL 6
REMARK VINA RESULT:    -4.059     17.584     18.388
REMARK INTER + INTRA:          -4.463
REMARK INTER:                  -4.410
REMARK INTRA:                  -0.052
REMARK UNBOUND:                -0.048
REMARK  Name = 
REMARK  3 active torsions:
REMARK  status: ('A' for Active; 'I' for Inactive)
REMARK    1  A    between atoms: C_1  and  O_2
REMARK    2  A    between atoms: O_2  and  C_3
REMARK    3  A    between atoms: C_8  and  O_9
REMARK                            x       y       z     vdW  Elec       q    Type
REMARK                         _______ _______ _______ _____ _____    ______ ____
ROOT
ATOM      1  C   UNL     1      -1.621  31.623 -24.255  0.00  0.00    +0.000 A 
ATOM      2  C   UNL     1      -1.224  31.697 -22.921  0.00  0.00    +0.000 A 
ATOM      3  C   UNL     1      -0.472  30.660 -22.356  0.00  0.00    +0.000 A 
ATOM      4  C   UNL     1      -0.114  29.548 -23.120  0.00  0.00    +0.000 A 
ATOM      5  C   UNL     1      -0.506  29.467 -24.454  0.00  0.00    +0.000 A 
ATOM      6  C   UNL     1      -1.253  30.500 -25.006  0.00  0.00    +0.000 A 
ENDROOT
BRANCH   1   8
ATOM      7  C   UNL     1      -1.763  33.843 -25.091  0.00  0.00    +0.000 C 
ATOM      8  O   UNL     1      -2.357  32.560 -24.936  0.00  0.00    +0.000 OA
ENDBRANCH   1   8
BRANCH   6   9
ATOM      9  O   UNL     1      -1.626  30.398 -26.320  0.00  0.00    +0.000 OA
ATOM     10  H   UNL     1      -0.919  30.854 -26.815  0.00  0.00    +0.000 HD
ENDBRANCH   6   9
TORSDOF 2
ENDMDL
MODEL 7
REMARK VINA RESULT:    -3.965     17.306     18.144
REMARK INTER + INTRA:          -4.360
REMARK INTER:                  -4.308
REMARK INTRA:                  -0.052
REMARK UNBOUND:                -0.048
REMARK  Name = 
REMARK  3 active torsions:
REMARK  status: ('A' for Active; 'I' for Inactive)
REMARK    1  A    between atoms: C_1  and  O_2
REMARK    2  A    between atoms: O_2  and  C_3
REMARK    3  A    between atoms: C_8  and  O_9
REMARK                            x       y       z     vdW  Elec       q    Type
REMARK                         _______ _______ _______ _____ _____    ______ ____
ROOT
ATOM      1  C   UNL     1      -1.145  31.816 -22.890  0.00  0.00    +0.000 A 
ATOM      2  C   UNL     1      -1.865  31.809 -24.084  0.00  0.00    +0.000 A 
ATOM      3  C   UNL     1      -1.854  30.672 -24.901  0.00  0.00    +0.000 A 
ATOM      4  C   UNL     1      -1.124  29.541 -24.530  0.00  0.00    +0.000 A 
ATOM      5  C   UNL     1      -0.403  29.540 -23.338  0.00  0.00    +0.000 A 
ATOM      6  C   UNL     1      -0.419  30.673 -22.534  0.00  0.00    +0.000 A 
ENDROOT
BRANCH   1   8
ATOM      7  C   UNL     1      -0.346  34.006 -22.425  0.00  0.00    +0.000 C 
ATOM      8  O   UNL     1      -1.065  32.855 -21.997  0.00  0.00    +0.000 OA
ENDBRANCH   1   8
BRANCH   6   9
ATOM      9  O   UNL     1       0.298  30.648 -21.368  0.00  0.00    +0.000 OA
ATOM     10  H   UNL     1       1.178  30.994 -21.611  0.00  0.00    +0.000 HD
ENDBRANCH   6   9
TORSDOF 2
ENDMDL
MODEL 8
REMARK VINA RESULT:    -3.934      1.814      3.154
REMARK INTER + INTRA:          -4.327
REMARK INTER:                  -4.284
REMARK INTRA:                  -0.043
REMARK UNBOUND:                -0.048
REMARK  Name = 
REMARK  3 active torsions:
REMARK  status: ('A' for Active; 'I' for Inactive)
REMARK    1  A    between atoms: C_1  and  O_2
REMARK    2  A    between atoms: O_2  and  C_3
REMARK    3  A    between atoms: C_8  and  O_9
REMARK                            x       y       z     vdW  Elec       q    Type
REMARK                         _______ _______ _______ _____ _____    ______ ____
ROOT
ATOM      1  C   UNL     1      -0.666  13.312 -19.808  0.00  0.00    +0.000 A 
ATOM      2  C   UNL     1       0.244  14.191 -19.223  0.00  0.00    +0.000 A 
ATOM      3  C   UNL     1      -0.118  14.914 -18.079  0.00  0.00    +0.000 A 
ATOM      4  C   UNL     1      -1.388  14.762 -17.519  0.00  0.00    +0.000 A 
ATOM      5  C   UNL     1      -2.302  13.885 -18.098  0.00  0.00    +0.000 A 
ATOM      6  C   UNL     1      -1.934  13.173 -19.232  0.00  0.00    +0.000 A 
ENDROOT
BRANCH   1   8
ATOM      7  C   UNL     1       0.357  13.121 -21.945  0.00  0.00    +0.000 C 
ATOM      8  O   UNL     1      -0.449  12.544 -20.924  0.00  0.00    +0.000 OA
ENDBRANCH   1   8
BRANCH   6   9
ATOM      9  O   UNL     1      -2.851  12.318 -19.783  0.00  0.00    +0.000 OA
ATOM     10  H   UNL     1      -2.920  12.596 -20.717  0.00  0.00    +0.000 HD
ENDBRANCH   6   9
TORSDOF 2
ENDMDL
MODEL 9
REMARK VINA RESULT:    -3.830     15.776     16.338
REMARK INTER + INTRA:          -4.214
REMARK INTER:                  -4.193
REMARK INTRA:                  -0.021
REMARK UNBOUND:                -0.048
REMARK  Name = 
REMARK  3 active torsions:
REMARK  status: ('A' for Active; 'I' for Inactive)
REMARK    1  A    between atoms: C_1  and  O_2
REMARK    2  A    between atoms: O_2  and  C_3
REMARK    3  A    between atoms: C_8  and  O_9
REMARK                            x       y       z     vdW  Elec       q    Type
REMARK                         _______ _______ _______ _____ _____    ______ ____
ROOT
ATOM      1  C   UNL     1      -0.834  22.852 -32.225  0.00  0.00    +0.000 A 
ATOM      2  C   UNL     1      -0.657  22.504 -33.563  0.00  0.00    +0.000 A 
ATOM      3  C   UNL     1      -1.754  22.487 -34.433  0.00  0.00    +0.000 A 
ATOM      4  C   UNL     1      -3.029  22.817 -33.970  0.00  0.00    +0.000 A 
ATOM      5  C   UNL     1      -3.215  23.167 -32.634  0.00  0.00    +0.000 A 
ATOM      6  C   UNL     1      -2.120  23.180 -31.779  0.00  0.00    +0.000 A 
ENDROOT
BRANCH   1   8
ATOM      7  C   UNL     1       0.538  21.672 -30.685  0.00  0.00    +0.000 C 
ATOM      8  O   UNL     1       0.145  22.910 -31.265  0.00  0.00    +0.000 OA
ENDBRANCH   1   8
BRANCH   6   9
ATOM      9  O   UNL     1      -2.327  23.527 -30.470  0.00  0.00    +0.000 OA
ATOM     10  H   UNL     1      -2.490  22.681 -30.012  0.00  0.00    +0.000 HD
ENDBRANCH   6   9
TORSDOF 2
ENDMDL
