MODEL 1
REMARK VINA RESULT:    -3.542      0.000      0.000
REMARK INTER + INTRA:          -3.890
REMARK INTER:                  -3.852
REMARK INTRA:                  -0.038
REMARK UNBOUND:                -0.038
REMARK  Name = 
REMARK  3 active torsions:
REMARK  status: ('A' for Active; 'I' for Inactive)
REMARK    1  A    between atoms: C_1  and  O_2
REMARK    2  A    between atoms: O_2  and  C_3
REMARK    3  A    between atoms: C_8  and  O_9
REMARK                            x       y       z     vdW  Elec       q    Type
REMARK                         _______ _______ _______ _____ _____    ______ ____
ROOT
ATOM      1  C   UNL     1      15.217  21.032   5.552  0.00  0.00    +0.000 A 
ATOM      2  C   UNL     1      15.709  19.728   5.604  0.00  0.00    +0.000 A 
ATOM      3  C   UNL     1      14.820  18.648   5.680  0.00  0.00    +0.000 A 
ATOM      4  C   UNL     1      13.441  18.866   5.704  0.00  0.00    +0.000 A 
ATOM      5  C   UNL     1      12.943  20.166   5.652  0.00  0.00    +0.000 A 
ATOM      6  C   UNL     1      13.831  21.231   5.577  0.00  0.00    +0.000 A 
ENDROOT
BRANCH   1   8
ATOM      7  C   UNL     1      17.337  22.020   5.132  0.00  0.00    +0.000 C 
ATOM      8  O   UNL     1      15.966  22.179   5.477  0.00  0.00    +0.000 OA
ENDBRANCH   1   8
BRANCH   6   9
ATOM      9  O   UNL     1      13.317  22.499   5.527  0.00  0.00    +0.000 OA
ATOM     10  H   UNL     1      12.491  22.412   5.014  0.00  0.00    +0.000 HD
ENDBRANCH   6   9
TORSDOF 2
ENDMDL
MODEL 2
REMARK VINA RESULT:    -3.491      1.191      2.031
REMARK INTER + INTRA:          -3.835
REMARK INTER:                  -3.783
REMARK INTRA:                  -0.053
REMARK UNBOUND:                -0.038
REMARK  Name = 
REMARK  3 active torsions:
REMARK  status: ('A' for Active; 'I' for Inactive)
REMARK    1  A    between atoms: C_1  and  O_2
REMARK    2  A    between atoms: O_2  and  C_3
REMARK    3  A    between atoms: C_8  and  O_9
REMARK                            x       y       z     vdW  Elec       q    Type
REMARK                         _______ _______ _______ _____ _____    ______ ____
ROOT
ATOM      1  C   UNL     1      14.167  21.184   5.648  0.00  0.00    +0.000 A 
ATOM      2  C   UNL     1      15.497  20.824   5.433  0.00  0.00    +0.000 A 
ATOM      3  C   UNL     1      15.847  19.473   5.321  0.00  0.00    +0.000 A 
ATOM      4  C   UNL     1      14.872  18.478   5.422  0.00  0.00    +0.000 A 
ATOM      5  C   UNL     1      13.541  18.830   5.636  0.00  0.00    +0.000 A 
ATOM      6  C   UNL     1      13.203  20.172   5.747  0.00  0.00    +0.000 A 
ENDROOT
BRANCH   1   8
ATOM      7  C   UNL     1      14.078  23.173   6.944  0.00  0.00    +0.000 C 
ATOM      8  O   UNL     1      13.683  22.461   5.778  0.00  0.00    +0.000 OA
ENDBRANCH   1   8
BRANCH   6   9
ATOM      9  O   UNL     1      11.889  20.493   5.957  0.00  0.00    +0.000 OA
ATOM     10  H   UNL     1      11.904  21.423   6.251  0.00  0.00    +0.000 HD
ENDBRANCH   6   9
TORSDOF 2
ENDMDL
MODEL 3
REMARK VINA RESULT:    -3.425      1.231      3.284
REMARK INTER + INTRA:          -3.764
REMARK INTER:                  -3.726
REMARK INTRA:                  -0.038
REMARK UNBOUND:                -0.038
REMARK  Name = 
REMARK  3 active torsions:
REMARK  status: ('A' for Active; 'I' for Inactive)
REMARK    1  A    between atoms: C_1  and  O_2
REMARK    2  A    between atoms: O_2  and  C_3
REMARK    3  A    between atoms: C_8  and  O_9
REMARK                            x       y       z     vdW  Elec       q    Type
REMARK                         _______ _______ _______ _____ _____    ______ ____
ROOT
ATOM      1  C   UNL     1      13.030  19.978   5.709  0.00  0.00    +0.000 A 
ATOM      2  C   UNL     1      13.603  18.707   5.698  0.00  0.00    +0.000 A 
ATOM      3  C   UNL     1      14.985  18.564   5.524  0.00  0.00    +0.000 A 
ATOM      4  C   UNL     1      15.798  19.687   5.360  0.00  0.00    +0.000 A 
ATOM      5  C   UNL     1      15.233  20.960   5.371  0.00  0.00    +0.000 A 
ATOM      6  C   UNL     1      13.862  21.093   5.544  0.00  0.00    +0.000 A 
ENDROOT
BRANCH   1   8
ATOM      7  C   UNL     1      10.792  19.180   5.720  0.00  0.00    +0.000 C 
ATOM      8  O   UNL     1      11.699  20.266   5.869  0.00  0.00    +0.000 OA
ENDBRANCH   1   8
BRANCH   6   9
ATOM      9  O   UNL     1      13.330  22.355   5.551  0.00  0.00    +0.000 OA
ATOM     10  H   UNL     1      13.836  22.834   6.234  0.00  0.00    +0.000 HD
ENDBRANCH   6   9
TORSDOF 2
ENDMDL
MODEL 4
REMARK VINA RESULT:    -3.297      2.956      3.836
REMARK INTER + INTRA:          -3.624
REMARK INTER:                  -3.586
REMARK INTRA:                  -0.038
REMARK UNBOUND:                -0.038
REMARK  Name = 
REMARK  3 active torsions:
REMARK  status: ('A' for Active; 'I' for Inactive)
REMARK    1  A    between atoms: C_1  and  O_2
REMARK    2  A    between atoms: O_2  and  C_3
REMARK    3  A    between atoms: C_8  and  O_9
REMARK                            x       y       z     vdW  Elec       q    Type
REMARK                         _______ _______ _______ _____ _____    ______ ____
ROOT
ATOM      1  C   UNL     1      14.079  18.248   6.963  0.00  0.00    +0.000 A 
ATOM      2  C   UNL     1      15.065  19.233   6.966  0.00  0.00    +0.000 A 
ATOM      3  C   UNL     1      14.855  20.435   6.279  0.00  0.00    +0.000 A 
ATOM      4  C   UNL     1      13.662  20.656   5.588  0.00  0.00    +0.000 A 
ATOM      5  C   UNL     1      12.672  19.676   5.581  0.00  0.00    +0.000 A 
ATOM      6  C   UNL     1      12.890  18.487   6.265  0.00  0.00    +0.000 A 
ENDROOT
BRANCH   1   8
ATOM      7  C   UNL     1      15.405  16.679   8.158  0.00  0.00    +0.000 C 
ATOM      8  O   UNL     1      14.149  17.029   7.589  0.00  0.00    +0.000 OA
ENDBRANCH   1   8
BRANCH   6   9
ATOM      9  O   UNL     1      11.902  17.539   6.243  0.00  0.00    +0.000 OA
ATOM     10  H   UNL     1      11.453  17.667   5.386  0.00  0.00    +0.000 HD
ENDBRANCH   6   9
TORSDOF 2
ENDMDL
MODEL 5
REMARK VINA RESULT:    -3.176     21.108     22.317
REMARK INTER + INTRA:          -3.493
REMARK INTER:                  -3.440
REMARK INTRA:                  -0.052
REMARK UNBOUND:                -0.038
REMARK  Name = 
REMARK  3 active torsions:
REMARK  status: ('A' for Active; 'I' for Inactive)
REMARK    1  A    between atoms: C_1  and  O_2
REMARK    2  A    between atoms: O_2  and  C_3
REMARK    3  A    between atoms: C_8  and  O_9
REMARK                            x       y       z     vdW  Elec       q    Type
REMARK                         _______ _______ _______ _____ _____    ______ ____
ROOT
ATOM      1  C   UNL     1      -1.347  16.547  -9.148  0.00  0.00    +0.000 A 
ATOM      2  C   UNL     1      -1.317  16.890 -10.499  0.00  0.00    +0.000 A 
ATOM      3  C   UNL     1      -1.857  18.111 -10.923  0.00  0.00    +0.000 A 
ATOM      4  C   UNL     1      -2.428  18.990 -10.001  0.00  0.00    +0.000 A 
ATOM      5  C   UNL     1      -2.461  18.655  -8.649  0.00  0.00    +0.000 A 
ATOM      6  C   UNL     1      -1.923  17.442  -8.238  0.00  0.00    +0.000 A 
ENDROOT
BRANCH   1   8
ATOM      7  C   UNL     1       0.543  15.175  -8.708  0.00  0.00    +0.000 C 
ATOM      8  O   UNL     1      -0.858  15.391  -8.594  0.00  0.00    +0.000 OA
ENDBRANCH   1   8
BRANCH   6   9
ATOM      9  O   UNL     1      -1.967  17.134  -6.905  0.00  0.00    +0.000 OA
ATOM     10  H   UNL     1      -1.074  16.798  -6.698  0.00  0.00    +0.000 HD
ENDBRANCH   6   9
TORSDOF 2
ENDMDL
MODEL 6
REMARK VINA RESULT:    -3.030      2.196      2.932
REMARK INTER + INTRA:          -3.334
REMARK INTER:                  -3.296
REMARK INTRA:                  -0.038
REMARK UNBOUND:                -0.038
REMARK  Name = 
REMARK  3 active torsions:
REMARK  status: ('A' for Active; 'I' for Inactive)
REMARK    1  A    between atoms: C_1  and  O_2
REMARK    2  A    between atoms: O_2  and  C_3
REMARK    3  A    between atoms: C_8  and  O_9
REMARK                            x       y       z     vdW  Elec       q    Type
REMARK                         _______ _______ _______ _____ _____    ______ ____
ROOT
ATOM      1  C   UNL     1      15.227  19.364   5.295  0.00  0.00    +0.000 A 
ATOM      2  C   UNL     1      15.949  20.557   5.289  0.00  0.00    +0.000 A 
ATOM      3  C   UNL     1      15.306  21.765   5.589  0.00  0.00    +0.000 A 
ATOM      4  C   UNL     1      13.944  21.785   5.894  0.00  0.00    +0.000 A 
ATOM      5  C   UNL     1      13.216  20.597   5.902  0.00  0.00    +0.000 A 
ATOM      6  C   UNL     1      13.862  19.404   5.603  0.00  0.00    +0.000 A 
ENDROOT
BRANCH   1   8
ATOM      7  C   UNL     1      17.140  17.984   5.007  0.00  0.00    +0.000 C 
ATOM      8  O   UNL     1      15.724  18.115   5.022  0.00  0.00    +0.000 OA
ENDBRANCH   1   8
BRANCH   6   9
ATOM      9  O   UNL     1      13.126  18.249   5.617  0.00  0.00    +0.000 OA
ATOM     10  H   UNL     1      13.430  17.771   6.412  0.00  0.00    +0.000 HD
ENDBRANCH   6   9
TORSDOF 2
ENDMDL
MODEL 7
REMARK VINA RESULT:    -3.019      1.179      1.550
REMARK INTER + INTRA:          -3.321
REMARK INTER:                  -3.271
REMARK INTRA:                  -0.050
REMARK UNBOUND:                -0.038
REMARK  Name = 
REMARK  3 active torsions:
REMARK  status: ('A' for Active; 'I' for Inactive)
REMARK    1  A    between atoms: C_1  and  O_2
REMARK    2  A    between atoms: O_2  and  C_3
REMARK    3  A    between atoms: C_8  and  O_9
REMARK                            x       y       z     vdW  Elec       q    Type
REMARK                         _______ _______ _______ _____ _____    ______ ____
ROOT
ATOM      1  C   UNL     1      15.616  19.931   5.394  0.00  0.00    +0.000 A 
ATOM      2  C   UNL     1      15.065  18.658   5.529  0.00  0.00    +0.000 A 
ATOM      3  C   UNL     1      13.688  18.509   5.735  0.00  0.00    +0.000 A 
ATOM      4  C   UNL     1      12.858  19.629   5.808  0.00  0.00    +0.000 A 
ATOM      5  C   UNL     1      13.401  20.905   5.674  0.00  0.00    +0.000 A 
ATOM      6  C   UNL     1      14.768  21.043   5.470  0.00  0.00    +0.000 A 
ENDROOT
BRANCH   1   8
ATOM      7  C   UNL     1      17.470  19.911   3.908  0.00  0.00    +0.000 C 
ATOM      8  O   UNL     1      16.940  20.225   5.190  0.00  0.00    +0.000 OA
ENDBRANCH   1   8
BRANCH   6   9
ATOM      9  O   UNL     1      15.278  22.308   5.342  0.00  0.00    +0.000 OA
ATOM     10  H   UNL     1      15.801  22.282   4.518  0.00  0.00    +0.000 HD
ENDBRANCH   6   9
TORSDOF 2
ENDMDL
MODEL 8
REMARK VINA RESULT:    -2.978     19.476     20.522
REMARK INTER + INTRA:          -3.277
REMARK INTER:                  -3.235
REMARK INTRA:                  -0.042
REMARK UNBOUND:                -0.038
REMARK  Name = 
REMARK  3 active torsions:
REMARK  status: ('A' for Active; 'I' for Inactive)
REMARK    1  A    between atoms: C_1  and  O_2
REMARK    2  A    between atoms: O_2  and  C_3
REMARK    3  A    between atoms: C_8  and  O_9
REMARK                            x       y       z     vdW  Elec       q    Type
REMARK                         _______ _______ _______ _____ _____    ______ ____
ROOT
ATOM      1  C   UNL     1       2.709  21.004 -11.334  0.00  0.00    +0.000 A 
ATOM      2  C   UNL     1       1.685  21.747 -10.747  0.00  0.00    +0.000 A 
ATOM      3  C   UNL     1       1.984  22.684  -9.750  0.00  0.00    +0.000 A 
ATOM      4  C   UNL     1       3.303  22.882  -9.337  0.00  0.00    +0.000 A 
ATOM      5  C   UNL     1       4.331  22.145  -9.920  0.00  0.00    +0.000 A 
ATOM      6  C   UNL     1       4.026  21.217 -10.907  0.00  0.00    +0.000 A 
ENDROOT
BRANCH   1   8
ATOM      7  C   UNL     1       1.359  19.299 -12.293  0.00  0.00    +0.000 C 
ATOM      8  O   UNL     1       2.563  20.057 -12.316  0.00  0.00    +0.000 OA
ENDBRANCH   1   8
BRANCH   6   9
ATOM      9  O   UNL     1       5.053  20.504 -11.465  0.00  0.00    +0.000 OA
ATOM     10  H   UNL     1       5.153  20.873 -12.363  0.00  0.00    +0.000 HD
ENDBRANCH   6   9
TORSDOF 2
ENDMDL
MODEL 9
REMARK VINA RESULT:    -1.672     16.525     17.841
REMARK INTER + INTRA:          -1.856
REMARK INTER:                  -1.819
REMARK INTRA:                  -0.037
REMARK UNBOUND:                -0.038
REMARK  Name = 
REMARK  3 active torsions:
REMARK  status: ('A' for Active; 'I' for Inactive)
REMARK    1  A    between atoms: C_1  and  O_2
REMARK    2  A    between atoms: O_2  and  C_3
REMARK    3  A    between atoms: C_8  and  O_9
REMARK                            x       y       z     vdW  Elec       q    Type
REMARK                         _______ _______ _______ _____ _____    ______ ____
ROOT
ATOM      1  C   UNL     1       8.992   4.337   8.282  0.00  0.00    +0.000 A 
ATOM      2  C   UNL     1       9.641   5.540   8.557  0.00  0.00    +0.000 A 
ATOM      3  C   UNL     1      11.035   5.621   8.458  0.00  0.00    +0.000 A 
ATOM      4  C   UNL     1      11.785   4.504   8.086  0.00  0.00    +0.000 A 
ATOM      5  C   UNL     1      11.143   3.298   7.809  0.00  0.00    +0.000 A 
ATOM      6  C   UNL     1       9.760   3.227   7.910  0.00  0.00    +0.000 A 
ENDROOT
BRANCH   1   8
ATOM      7  C   UNL     1       6.816   5.254   8.554  0.00  0.00    +0.000 C 
ATOM      8  O   UNL     1       7.639   4.114   8.339  0.00  0.00    +0.000 OA
ENDBRANCH   1   8
BRANCH   6   9
ATOM      9  O   UNL     1       9.152   2.032   7.633  0.00  0.00    +0.000 OA
ATOM     10  H   UNL     1       8.764   2.150   6.745  0.00  0.00    +0.000 HD
ENDBRANCH   6   9
TORSDOF 2
ENDMDL
