MODEL 1
REMARK VINA RESULT:    -4.372      0.000      0.000
REMARK INTER + INTRA:          -4.801
REMARK INTER:                  -4.756
REMARK INTRA:                  -0.045
REMARK UNBOUND:                -0.045
REMARK  Name = 
REMARK  3 active torsions:
REMARK  status: ('A' for Active; 'I' for Inactive)
REMARK    1  A    between atoms: C_1  and  O_2
REMARK    2  A    between atoms: O_2  and  C_3
REMARK    3  A    between atoms: C_8  and  O_9
REMARK                            x       y       z     vdW  Elec       q    Type
REMARK                         _______ _______ _______ _____ _____    ______ ____
ROOT
ATOM      1  C   UNL     1       3.573  14.046  -2.604  0.00  0.00    +0.000 A 
ATOM      2  C   UNL     1       2.872  13.331  -1.635  0.00  0.00    +0.000 A 
ATOM      3  C   UNL     1       2.879  11.931  -1.656  0.00  0.00    +0.000 A 
ATOM      4  C   UNL     1       3.584  11.242  -2.644  0.00  0.00    +0.000 A 
ATOM      5  C   UNL     1       4.288  11.949  -3.616  0.00  0.00    +0.000 A 
ATOM      6  C   UNL     1       4.275  13.338  -3.588  0.00  0.00    +0.000 A 
ENDROOT
BRANCH   1   8
ATOM      7  C   UNL     1       2.454  16.138  -2.461  0.00  0.00    +0.000 C 
ATOM      8  O   UNL     1       3.653  15.412  -2.705  0.00  0.00    +0.000 OA
ENDBRANCH   1   8
BRANCH   6   9
ATOM      9  O   UNL     1       4.974  14.011  -4.554  0.00  0.00    +0.000 OA
ATOM     10  H   UNL     1       5.567  14.609  -4.060  0.00  0.00    +0.000 HD
ENDBRANCH   6   9
TORSDOF 2
ENDMDL
MODEL 2
REMARK VINA RESULT:    -4.305      2.207      3.013
REMARK INTER + INTRA:          -4.727
REMARK INTER:                  -4.682
REMARK INTRA:                  -0.045
REMARK UNBOUND:                -0.045
REMARK  Name = 
REMARK  3 active torsions:
REMARK  status: ('A' for Active; 'I' for Inactive)
REMARK    1  A    between atoms: C_1  and  O_2
REMARK    2  A    between atoms: O_2  and  C_3
REMARK    3  A    between atoms: C_8  and  O_9
REMARK                            x       y       z     vdW  Elec       q    Type
REMARK                         _______ _______ _______ _____ _____    ______ ____
ROOT
ATOM      1  C   UNL     1       3.519  13.826  -1.192  0.00  0.00    +0.000 A 
ATOM      2  C   UNL     1       4.192  14.837  -1.876  0.00  0.00    +0.000 A 
ATOM      3  C   UNL     1       4.574  14.646  -3.210  0.00  0.00    +0.000 A 
ATOM      4  C   UNL     1       4.287  13.446  -3.863  0.00  0.00    +0.000 A 
ATOM      5  C   UNL     1       3.615  12.430  -3.187  0.00  0.00    +0.000 A 
ATOM      6  C   UNL     1       3.240  12.629  -1.864  0.00  0.00    +0.000 A 
ENDROOT
BRANCH   1   8
ATOM      7  C   UNL     1       3.979  14.459   1.051  0.00  0.00    +0.000 C 
ATOM      8  O   UNL     1       3.088  13.874   0.109  0.00  0.00    +0.000 OA
ENDBRANCH   1   8
BRANCH   6   9
ATOM      9  O   UNL     1       2.580  11.616  -1.220  0.00  0.00    +0.000 OA
ATOM     10  H   UNL     1       3.110  11.446  -0.418  0.00  0.00    +0.000 HD
ENDBRANCH   6   9
TORSDOF 2
ENDMDL
MODEL 3
REMARK VINA RESULT:    -4.291     11.222     11.940
REMARK INTER + INTRA:          -4.713
REMARK INTER:                  -4.678
REMARK INTRA:                  -0.035
REMARK UNBOUND:                -0.045
REMARK  Name = 
REMARK  3 active torsions:
REMARK  status: ('A' for Active; 'I' for Inactive)
REMARK    1  A    between atoms: C_1  and  O_2
REMARK    2  A    between atoms: O_2  and  C_3
REMARK    3  A    between atoms: C_8  and  O_9
REMARK                            x       y       z     vdW  Elec       q    Type
REMARK                         _______ _______ _______ _____ _____    ______ ____
ROOT
ATOM      1  C   UNL     1      -0.523  15.739 -13.305  0.00  0.00    +0.000 A 
ATOM      2  C   UNL     1       0.304  14.627 -13.461  0.00  0.00    +0.000 A 
ATOM      3  C   UNL     1       1.445  14.712 -14.269  0.00  0.00    +0.000 A 
ATOM      4  C   UNL     1       1.762  15.903 -14.923  0.00  0.00    +0.000 A 
ATOM      5  C   UNL     1       0.941  17.018 -14.773  0.00  0.00    +0.000 A 
ATOM      6  C   UNL     1      -0.189  16.925 -13.970  0.00  0.00    +0.000 A 
ENDROOT
BRANCH   1   8
ATOM      7  C   UNL     1      -1.492  15.913 -11.143  0.00  0.00    +0.000 C 
ATOM      8  O   UNL     1      -1.666  15.799 -12.550  0.00  0.00    +0.000 OA
ENDBRANCH   1   8
BRANCH   6   9
ATOM      9  O   UNL     1      -0.981  18.035 -13.837  0.00  0.00    +0.000 OA
ATOM     10  H   UNL     1      -1.837  17.691 -13.519  0.00  0.00    +0.000 HD
ENDBRANCH   6   9
TORSDOF 2
ENDMDL
MODEL 4
REMARK VINA RESULT:    -4.236      1.467      2.496
REMARK INTER + INTRA:          -4.653
REMARK INTER:                  -4.604
REMARK INTRA:                  -0.049
REMARK UNBOUND:                -0.045
REMARK  Name = 
REMARK  3 active torsions:
REMARK  status: ('A' for Active; 'I' for Inactive)
REMARK    1  A    between atoms: C_1  and  O_2
REMARK    2  A    between atoms: O_2  and  C_3
REMARK    3  A    between atoms: C_8  and  O_9
REMARK                            x       y       z     vdW  Elec       q    Type
REMARK                         _______ _______ _______ _____ _____    ______ ____
ROOT
ATOM      1  C   UNL     1       3.803  13.850  -2.320  0.00  0.00    +0.000 A 
ATOM      2  C   UNL     1       4.263  13.408  -3.559  0.00  0.00    +0.000 A 
ATOM      3  C   UNL     1       4.210  12.045  -3.879  0.00  0.00    +0.000 A 
ATOM      4  C   UNL     1       3.699  11.123  -2.964  0.00  0.00    +0.000 A 
ATOM      5  C   UNL     1       3.237  11.557  -1.724  0.00  0.00    +0.000 A 
ATOM      6  C   UNL     1       3.294  12.910  -1.415  0.00  0.00    +0.000 A 
ENDROOT
BRANCH   1   8
ATOM      7  C   UNL     1       5.058  15.714  -1.546  0.00  0.00    +0.000 C 
ATOM      8  O   UNL     1       3.795  15.148  -1.873  0.00  0.00    +0.000 OA
ENDBRANCH   1   8
BRANCH   6   9
ATOM      9  O   UNL     1       2.834  13.313  -0.190  0.00  0.00    +0.000 OA
ATOM     10  H   UNL     1       2.944  12.533   0.386  0.00  0.00    +0.000 HD
ENDBRANCH   6   9
TORSDOF 2
ENDMDL
MODEL 5
REMARK VINA RESULT:    -4.205     10.527     11.116
REMARK INTER + INTRA:          -4.618
REMARK INTER:                  -4.586
REMARK INTRA:                  -0.033
REMARK UNBOUND:                -0.045
REMARK  Name = 
REMARK  3 active torsions:
REMARK  status: ('A' for Active; 'I' for Inactive)
REMARK    1  A    between atoms: C_1  and  O_2
REMARK    2  A    between atoms: O_2  and  C_3
REMARK    3  A    between atoms: C_8  and  O_9
REMARK                            x       y       z     vdW  Elec       q    Type
REMARK                         _______ _______ _______ _____ _____    ______ ____
ROOT
ATOM      1  C   UNL     1      -0.817  15.794 -12.110  0.00  0.00    +0.000 A 
ATOM      2  C   UNL     1       0.574  15.693 -12.126  0.00  0.00    +0.000 A 
ATOM      3  C   UNL     1       1.210  14.965 -13.139  0.00  0.00    +0.000 A 
ATOM      4  C   UNL     1       0.462  14.337 -14.137  0.00  0.00    +0.000 A 
ATOM      5  C   UNL     1      -0.927  14.434 -14.128  0.00  0.00    +0.000 A 
ATOM      6  C   UNL     1      -1.550  15.157 -13.119  0.00  0.00    +0.000 A 
ENDROOT
BRANCH   1   8
ATOM      7  C   UNL     1      -1.759  15.827  -9.929  0.00  0.00    +0.000 C 
ATOM      8  O   UNL     1      -1.570  16.469 -11.183  0.00  0.00    +0.000 OA
ENDBRANCH   1   8
BRANCH   6   9
ATOM      9  O   UNL     1      -2.917  15.238 -13.131  0.00  0.00    +0.000 OA
ATOM     10  H   UNL     1      -3.140  15.539 -14.033  0.00  0.00    +0.000 HD
ENDBRANCH   6   9
TORSDOF 2
ENDMDL
MODEL 6
REMARK VINA RESULT:    -4.195     10.895     11.570
REMARK INTER + INTRA:          -4.607
REMARK INTER:                  -4.564
REMARK INTRA:                  -0.043
REMARK UNBOUND:                -0.045
REMARK  Name = 
REMARK  3 active torsions:
REMARK  status: ('A' for Active; 'I' for Inactive)
REMARK    1  A    between atoms: C_1  and  O_2
REMARK    2  A    between atoms: O_2  and  C_3
REMARK    3  A    between atoms: C_8  and  O_9
REMARK                            x       y       z     vdW  Elec       q    Type
REMARK                         _______ _______ _______ _____ _____    ______ ____
ROOT
ATOM      1  C   UNL     1      -0.021  15.399 -12.992  0.00  0.00    +0.000 A 
ATOM      2  C   UNL     1      -0.833  14.633 -13.827  0.00  0.00    +0.000 A 
ATOM      3  C   UNL     1      -0.403  14.315 -15.122  0.00  0.00    +0.000 A 
ATOM      4  C   UNL     1       0.836  14.761 -15.586  0.00  0.00    +0.000 A 
ATOM      5  C   UNL     1       1.653  15.527 -14.757  0.00  0.00    +0.000 A 
ATOM      6  C   UNL     1       1.218  15.838 -13.475  0.00  0.00    +0.000 A 
ENDROOT
BRANCH   1   8
ATOM      7  C   UNL     1      -1.672  16.099 -11.433  0.00  0.00    +0.000 C 
ATOM      8  O   UNL     1      -0.312  15.785 -11.708  0.00  0.00    +0.000 OA
ENDBRANCH   1   8
BRANCH   6   9
ATOM      9  O   UNL     1       2.039  16.592 -12.679  0.00  0.00    +0.000 OA
ATOM     10  H   UNL     1       2.840  16.738 -13.217  0.00  0.00    +0.000 HD
ENDBRANCH   6   9
TORSDOF 2
ENDMDL
MODEL 7
REMARK VINA RESULT:    -4.037      1.729      3.128
REMARK INTER + INTRA:          -4.436
REMARK INTER:                  -4.383
REMARK INTRA:                  -0.053
REMARK UNBOUND:                -0.045
REMARK  Name = 
REMARK  3 active torsions:
REMARK  status: ('A' for Active; 'I' for Inactive)
REMARK    1  A    between atoms: C_1  and  O_2
REMARK    2  A    between atoms: O_2  and  C_3
REMARK    3  A    between atoms: C_8  and  O_9
REMARK                            x       y       z     vdW  Elec       q    Type
REMARK                         _______ _______ _______ _____ _____    ______ ____
ROOT
ATOM      1  C   UNL     1       3.718  13.474  -2.261  0.00  0.00    +0.000 A 
ATOM      2  C   UNL     1       3.402  13.402  -0.905  0.00  0.00    +0.000 A 
ATOM      3  C   UNL     1       3.874  14.383  -0.024  0.00  0.00    +0.000 A 
ATOM      4  C   UNL     1       4.662  15.436  -0.493  0.00  0.00    +0.000 A 
ATOM      5  C   UNL     1       4.981  15.515  -1.846  0.00  0.00    +0.000 A 
ATOM      6  C   UNL     1       4.509  14.537  -2.713  0.00  0.00    +0.000 A 
ENDROOT
BRANCH   1   8
ATOM      7  C   UNL     1       3.871  11.276  -3.151  0.00  0.00    +0.000 C 
ATOM      8  O   UNL     1       3.327  12.588  -3.233  0.00  0.00    +0.000 OA
ENDBRANCH   1   8
BRANCH   6   9
ATOM      9  O   UNL     1       4.836  14.636  -4.039  0.00  0.00    +0.000 OA
ATOM     10  H   UNL     1       5.531  13.965  -4.174  0.00  0.00    +0.000 HD
ENDBRANCH   6   9
TORSDOF 2
ENDMDL
MODEL 8
REMARK VINA RESULT:    -4.027      2.120      3.687
REMARK INTER + INTRA:          -4.425
REMARK INTER:                  -4.392
REMARK INTRA:                  -0.034
REMARK UNBOUND:                -0.045
REMARK  Name = 
REMARK  3 active torsions:
REMARK  status: ('A' for Active; 'I' for Inactive)
REMARK    1  A    between atoms: C_1  and  O_2
REMARK    2  A    between atoms: O_2  and  C_3
REMARK    3  A    between atoms: C_8  and  O_9
REMARK                            x       y       z     vdW  Elec       q    Type
REMARK                         _______ _______ _______ _____ _____    ______ ____
ROOT
ATOM      1  C   UNL     1       2.609  13.510  -2.035  0.00  0.00    +0.000 A 
ATOM      2  C   UNL     1       1.537  14.309  -2.430  0.00  0.00    +0.000 A 
ATOM      3  C   UNL     1       0.978  15.226  -1.531  0.00  0.00    +0.000 A 
ATOM      4  C   UNL     1       1.487  15.347  -0.237  0.00  0.00    +0.000 A 
ATOM      5  C   UNL     1       2.558  14.553   0.166  0.00  0.00    +0.000 A 
ATOM      6  C   UNL     1       3.105  13.646  -0.733  0.00  0.00    +0.000 A 
ENDROOT
BRANCH   1   8
ATOM      7  C   UNL     1       4.172  13.069  -3.769  0.00  0.00    +0.000 C 
ATOM      8  O   UNL     1       3.250  12.574  -2.806  0.00  0.00    +0.000 OA
ENDBRANCH   1   8
BRANCH   6   9
ATOM      9  O   UNL     1       4.158  12.876  -0.314  0.00  0.00    +0.000 OA
ATOM     10  H   UNL     1       3.929  11.969  -0.595  0.00  0.00    +0.000 HD
ENDBRANCH   6   9
TORSDOF 2
ENDMDL
MODEL 9
REMARK VINA RESULT:    -3.885     11.449     12.353
REMARK INTER + INTRA:          -4.271
REMARK INTER:                  -4.223
REMARK INTRA:                  -0.048
REMARK UNBOUND:                -0.045
REMARK  Name = 
REMARK  3 active torsions:
REMARK  status: ('A' for Active; 'I' for Inactive)
REMARK    1  A    between atoms: C_1  and  O_2
REMARK    2  A    between atoms: O_2  and  C_3
REMARK    3  A    between atoms: C_8  and  O_9
REMARK                            x       y       z     vdW  Elec       q    Type
REMARK                         _______ _______ _______ _____ _____    ______ ____
ROOT
ATOM      1  C   UNL     1      -0.622  14.623 -14.322  0.00  0.00    +0.000 A 
ATOM      2  C   UNL     1       0.528  14.686 -15.108  0.00  0.00    +0.000 A 
ATOM      3  C   UNL     1       1.627  15.441 -14.680  0.00  0.00    +0.000 A 
ATOM      4  C   UNL     1       1.582  16.134 -13.469  0.00  0.00    +0.000 A 
ATOM      5  C   UNL     1       0.437  16.076 -12.678  0.00  0.00    +0.000 A 
ATOM      6  C   UNL     1      -0.649  15.325 -13.111  0.00  0.00    +0.000 A 
ENDROOT
BRANCH   1   8
ATOM      7  C   UNL     1      -1.602  12.577 -15.028  0.00  0.00    +0.000 C 
ATOM      8  O   UNL     1      -1.768  13.928 -14.615  0.00  0.00    +0.000 OA
ENDBRANCH   1   8
BRANCH   6   9
ATOM      9  O   UNL     1      -1.764  15.283 -12.316  0.00  0.00    +0.000 OA
ATOM     10  H   UNL     1      -2.446  15.769 -12.819  0.00  0.00    +0.000 HD
ENDBRANCH   6   9
TORSDOF 2
ENDMDL
