MODEL 1
REMARK VINA RESULT:    -3.986      0.000      0.000
REMARK INTER + INTRA:          -4.385
REMARK INTER:                  -4.336
REMARK INTRA:                  -0.049
REMARK UNBOUND:                -0.049
REMARK  Name = 
REMARK  3 active torsions:
REMARK  status: ('A' for Active; 'I' for Inactive)
REMARK    1  A    between atoms: C_1  and  O_2
REMARK    2  A    between atoms: O_2  and  C_3
REMARK    3  A    between atoms: C_8  and  O_9
REMARK                            x       y       z     vdW  Elec       q    Type
REMARK                         _______ _______ _______ _____ _____    ______ ____
ROOT
ATOM      1  C   UNL     1      -6.316   0.069 -19.431  0.00  0.00    +0.000 A 
ATOM      2  C   UNL     1      -5.987   1.077 -20.335  0.00  0.00    +0.000 A 
ATOM      3  C   UNL     1      -5.272   2.201 -19.901  0.00  0.00    +0.000 A 
ATOM      4  C   UNL     1      -4.887   2.321 -18.565  0.00  0.00    +0.000 A 
ATOM      5  C   UNL     1      -5.212   1.318 -17.655  0.00  0.00    +0.000 A 
ATOM      6  C   UNL     1      -5.921   0.207 -18.094  0.00  0.00    +0.000 A 
ENDROOT
BRANCH   1   8
ATOM      7  C   UNL     1      -8.244  -0.923 -20.404  0.00  0.00    +0.000 C 
ATOM      8  O   UNL     1      -7.009  -1.080 -19.714  0.00  0.00    +0.000 OA
ENDBRANCH   1   8
BRANCH   6   9
ATOM      9  O   UNL     1      -6.229  -0.766 -17.182  0.00  0.00    +0.000 OA
ATOM     10  H   UNL     1      -6.811  -1.383 -17.664  0.00  0.00    +0.000 HD
ENDBRANCH   6   9
TORSDOF 2
ENDMDL
MODEL 2
REMARK VINA RESULT:    -3.981      2.300      3.146
REMARK INTER + INTRA:          -4.379
REMARK INTER:                  -4.341
REMARK INTRA:                  -0.037
REMARK UNBOUND:                -0.049
REMARK  Name = 
REMARK  3 active torsions:
REMARK  status: ('A' for Active; 'I' for Inactive)
REMARK    1  A    between atoms: C_1  and  O_2
REMARK    2  A    between atoms: O_2  and  C_3
REMARK    3  A    between atoms: C_8  and  O_9
REMARK                            x       y       z     vdW  Elec       q    Type
REMARK                         _______ _______ _______ _____ _____    ______ ____
ROOT
ATOM      1  C   UNL     1      -5.427   1.775 -20.146  0.00  0.00    +0.000 A 
ATOM      2  C   UNL     1      -5.672   0.496 -20.644  0.00  0.00    +0.000 A 
ATOM      3  C   UNL     1      -5.827  -0.581 -19.761  0.00  0.00    +0.000 A 
ATOM      4  C   UNL     1      -5.736  -0.384 -18.382  0.00  0.00    +0.000 A 
ATOM      5  C   UNL     1      -5.491   0.891 -17.877  0.00  0.00    +0.000 A 
ATOM      6  C   UNL     1      -5.339   1.953 -18.760  0.00  0.00    +0.000 A 
ENDROOT
BRANCH   1   8
ATOM      7  C   UNL     1      -5.373   2.777 -22.300  0.00  0.00    +0.000 C 
ATOM      8  O   UNL     1      -5.255   2.915 -20.890  0.00  0.00    +0.000 OA
ENDBRANCH   1   8
BRANCH   6   9
ATOM      9  O   UNL     1      -5.099   3.197 -18.240  0.00  0.00    +0.000 OA
ATOM     10  H   UNL     1      -4.586   3.660 -18.930  0.00  0.00    +0.000 HD
ENDBRANCH   6   9
TORSDOF 2
ENDMDL
MODEL 3
REMARK VINA RESULT:    -3.491      2.469      3.381
REMARK INTER + INTRA:          -3.846
REMARK INTER:                  -3.794
REMARK INTRA:                  -0.052
REMARK UNBOUND:                -0.049
REMARK  Name = 
REMARK  3 active torsions:
REMARK  status: ('A' for Active; 'I' for Inactive)
REMARK    1  A    between atoms: C_1  and  O_2
REMARK    2  A    between atoms: O_2  and  C_3
REMARK    3  A    between atoms: C_8  and  O_9
REMARK                            x       y       z     vdW  Elec       q    Type
REMARK                         _______ _______ _______ _____ _____    ______ ____
ROOT
ATOM      1  C   UNL     1      -4.233   1.035 -20.292  0.00  0.00    +0.000 A 
ATOM      2  C   UNL     1      -5.065   1.929 -19.620  0.00  0.00    +0.000 A 
ATOM      3  C   UNL     1      -5.956   1.459 -18.647  0.00  0.00    +0.000 A 
ATOM      4  C   UNL     1      -6.020   0.098 -18.344  0.00  0.00    +0.000 A 
ATOM      5  C   UNL     1      -5.192  -0.802 -19.011  0.00  0.00    +0.000 A 
ATOM      6  C   UNL     1      -4.311  -0.327 -19.975  0.00  0.00    +0.000 A 
ENDROOT
BRANCH   1   8
ATOM      7  C   UNL     1      -3.833   1.928 -22.458  0.00  0.00    +0.000 C 
ATOM      8  O   UNL     1      -3.317   1.352 -21.263  0.00  0.00    +0.000 OA
ENDBRANCH   1   8
BRANCH   6   9
ATOM      9  O   UNL     1      -3.507  -1.230 -20.617  0.00  0.00    +0.000 OA
ATOM     10  H   UNL     1      -3.634  -2.067 -20.130  0.00  0.00    +0.000 HD
ENDBRANCH   6   9
TORSDOF 2
ENDMDL
MODEL 4
REMARK VINA RESULT:    -3.395      1.944      2.964
REMARK INTER + INTRA:          -3.742
REMARK INTER:                  -3.694
REMARK INTRA:                  -0.047
REMARK UNBOUND:                -0.049
REMARK  Name = 
REMARK  3 active torsions:
REMARK  status: ('A' for Active; 'I' for Inactive)
REMARK    1  A    between atoms: C_1  and  O_2
REMARK    2  A    between atoms: O_2  and  C_3
REMARK    3  A    between atoms: C_8  and  O_9
REMARK                            x       y       z     vdW  Elec       q    Type
REMARK                         _______ _______ _______ _____ _____    ______ ____
ROOT
ATOM      1  C   UNL     1      -5.181   0.896 -19.390  0.00  0.00    +0.000 A 
ATOM      2  C   UNL     1      -5.102   0.066 -20.508  0.00  0.00    +0.000 A 
ATOM      3  C   UNL     1      -5.096   0.623 -21.793  0.00  0.00    +0.000 A 
ATOM      4  C   UNL     1      -5.169   2.007 -21.965  0.00  0.00    +0.000 A 
ATOM      5  C   UNL     1      -5.248   2.842 -20.853  0.00  0.00    +0.000 A 
ATOM      6  C   UNL     1      -5.254   2.281 -19.582  0.00  0.00    +0.000 A 
ENDROOT
BRANCH   1   8
ATOM      7  C   UNL     1      -6.084  -0.573 -17.754  0.00  0.00    +0.000 C 
ATOM      8  O   UNL     1      -5.197   0.491 -18.079  0.00  0.00    +0.000 OA
ENDBRANCH   1   8
BRANCH   6   9
ATOM      9  O   UNL     1      -5.332   3.122 -18.504  0.00  0.00    +0.000 OA
ATOM     10  H   UNL     1      -4.430   3.481 -18.404  0.00  0.00    +0.000 HD
ENDBRANCH   6   9
TORSDOF 2
ENDMDL
MODEL 5
REMARK VINA RESULT:    -3.391      2.078      2.904
REMARK INTER + INTRA:          -3.738
REMARK INTER:                  -3.685
REMARK INTRA:                  -0.053
REMARK UNBOUND:                -0.049
REMARK  Name = 
REMARK  3 active torsions:
REMARK  status: ('A' for Active; 'I' for Inactive)
REMARK    1  A    between atoms: C_1  and  O_2
REMARK    2  A    between atoms: O_2  and  C_3
REMARK    3  A    between atoms: C_8  and  O_9
REMARK                            x       y       z     vdW  Elec       q    Type
REMARK                         _______ _______ _______ _____ _____    ______ ____
ROOT
ATOM      1  C   UNL     1      -5.967   0.852 -20.513  0.00  0.00    +0.000 A 
ATOM      2  C   UNL     1      -6.045  -0.121 -19.518  0.00  0.00    +0.000 A 
ATOM      3  C   UNL     1      -5.688   0.194 -18.201  0.00  0.00    +0.000 A 
ATOM      4  C   UNL     1      -5.252   1.480 -17.875  0.00  0.00    +0.000 A 
ATOM      5  C   UNL     1      -5.172   2.458 -18.863  0.00  0.00    +0.000 A 
ATOM      6  C   UNL     1      -5.528   2.136 -20.167  0.00  0.00    +0.000 A 
ENDROOT
BRANCH   1   8
ATOM      7  C   UNL     1      -5.436  -0.178 -22.587  0.00  0.00    +0.000 C 
ATOM      8  O   UNL     1      -6.283   0.685 -21.838  0.00  0.00    +0.000 OA
ENDBRANCH   1   8
BRANCH   6   9
ATOM      9  O   UNL     1      -5.441   3.114 -21.121  0.00  0.00    +0.000 OA
ATOM     10  H   UNL     1      -5.599   3.947 -20.638  0.00  0.00    +0.000 HD
ENDBRANCH   6   9
TORSDOF 2
ENDMDL
MODEL 6
REMARK VINA RESULT:    -3.026     24.361     25.365
REMARK INTER + INTRA:          -3.340
REMARK INTER:                  -3.288
REMARK INTRA:                  -0.052
REMARK UNBOUND:                -0.049
REMARK  Name = 
REMARK  3 active torsions:
REMARK  status: ('A' for Active; 'I' for Inactive)
REMARK    1  A    between atoms: C_1  and  O_2
REMARK    2  A    between atoms: O_2  and  C_3
REMARK    3  A    between atoms: C_8  and  O_9
REMARK                            x       y       z     vdW  Elec       q    Type
REMARK                         _______ _______ _______ _____ _____    ______ ____
ROOT
ATOM      1  C   UNL     1       0.773  19.386  -3.464  0.00  0.00    +0.000 A 
ATOM      2  C   UNL     1       1.879  20.145  -3.082  0.00  0.00    +0.000 A 
ATOM      3  C   UNL     1       2.576  20.894  -4.038  0.00  0.00    +0.000 A 
ATOM      4  C   UNL     1       2.173  20.888  -5.374  0.00  0.00    +0.000 A 
ATOM      5  C   UNL     1       1.069  20.133  -5.763  0.00  0.00    +0.000 A 
ATOM      6  C   UNL     1       0.384  19.392  -4.809  0.00  0.00    +0.000 A 
ENDROOT
BRANCH   1   8
ATOM      7  C   UNL     1       0.660  17.532  -1.981  0.00  0.00    +0.000 C 
ATOM      8  O   UNL     1       0.001  18.607  -2.640  0.00  0.00    +0.000 OA
ENDBRANCH   1   8
BRANCH   6   9
ATOM      9  O   UNL     1      -0.698  18.657  -5.215  0.00  0.00    +0.000 OA
ATOM     10  H   UNL     1      -1.314  19.312  -5.597  0.00  0.00    +0.000 HD
ENDBRANCH   6   9
TORSDOF 2
ENDMDL
MODEL 7
REMARK VINA RESULT:    -2.975     24.068     25.264
REMARK INTER + INTRA:          -3.285
REMARK INTER:                  -3.247
REMARK INTRA:                  -0.038
REMARK UNBOUND:                -0.049
REMARK  Name = 
REMARK  3 active torsions:
REMARK  status: ('A' for Active; 'I' for Inactive)
REMARK    1  A    between atoms: C_1  and  O_2
REMARK    2  A    between atoms: O_2  and  C_3
REMARK    3  A    between atoms: C_8  and  O_9
REMARK                            x       y       z     vdW  Elec       q    Type
REMARK                         _______ _______ _______ _____ _____    ______ ____
ROOT
ATOM      1  C   UNL     1       0.520  19.511  -4.286  0.00  0.00    +0.000 A 
ATOM      2  C   UNL     1       1.486  20.513  -4.202  0.00  0.00    +0.000 A 
ATOM      3  C   UNL     1       2.412  20.506  -3.151  0.00  0.00    +0.000 A 
ATOM      4  C   UNL     1       2.376  19.501  -2.183  0.00  0.00    +0.000 A 
ATOM      5  C   UNL     1       1.414  18.496  -2.260  0.00  0.00    +0.000 A 
ATOM      6  C   UNL     1       0.500  18.511  -3.305  0.00  0.00    +0.000 A 
ENDROOT
BRANCH   1   8
ATOM      7  C   UNL     1      -0.271  20.186  -6.423  0.00  0.00    +0.000 C 
ATOM      8  O   UNL     1      -0.444  19.393  -5.255  0.00  0.00    +0.000 OA
ENDBRANCH   1   8
BRANCH   6   9
ATOM      9  O   UNL     1      -0.436  17.513  -3.360  0.00  0.00    +0.000 OA
ATOM     10  H   UNL     1       0.078  16.700  -3.533  0.00  0.00    +0.000 HD
ENDBRANCH   6   9
TORSDOF 2
ENDMDL
MODEL 8
REMARK VINA RESULT:    -2.967      7.052      8.137
REMARK INTER + INTRA:          -3.276
REMARK INTER:                  -3.231
REMARK INTRA:                  -0.045
REMARK UNBOUND:                -0.049
REMARK  Name = 
REMARK  3 active torsions:
REMARK  status: ('A' for Active; 'I' for Inactive)
REMARK    1  A    between atoms: C_1  and  O_2
REMARK    2  A    between atoms: O_2  and  C_3
REMARK    3  A    between atoms: C_8  and  O_9
REMARK                            x       y       z     vdW  Elec       q    Type
REMARK                         _______ _______ _______ _____ _____    ______ ____
ROOT
ATOM      1  C   UNL     1      -0.520   3.478 -23.565  0.00  0.00    +0.000 A 
ATOM      2  C   UNL     1      -1.905   3.318 -23.575  0.00  0.00    +0.000 A 
ATOM      3  C   UNL     1      -2.466   2.063 -23.312  0.00  0.00    +0.000 A 
ATOM      4  C   UNL     1      -1.648   0.965 -23.037  0.00  0.00    +0.000 A 
ATOM      5  C   UNL     1      -0.264   1.117 -23.024  0.00  0.00    +0.000 A 
ATOM      6  C   UNL     1       0.284   2.366 -23.287  0.00  0.00    +0.000 A 
ENDROOT
BRANCH   1   8
ATOM      7  C   UNL     1      -0.374   5.825 -23.225  0.00  0.00    +0.000 C 
ATOM      8  O   UNL     1       0.164   4.643 -23.805  0.00  0.00    +0.000 OA
ENDBRANCH   1   8
BRANCH   6   9
ATOM      9  O   UNL     1       1.648   2.490 -23.269  0.00  0.00    +0.000 OA
ATOM     10  H   UNL     1       1.823   3.214 -22.638  0.00  0.00    +0.000 HD
ENDBRANCH   6   9
TORSDOF 2
ENDMDL
