MODEL 1
REMARK VINA RESULT:    -4.625      0.000      0.000
REMARK INTER + INTRA:          -5.003
REMARK INTER:                  -5.031
REMARK INTRA:                   0.028
REMARK UNBOUND:                 0.028
REMARK  Name = 
REMARK  3 active torsions:
REMARK  status: ('A' for Active; 'I' for Inactive)
REMARK    1  A    between atoms: C_1  and  O_2
REMARK    2  A    between atoms: O_2  and  C_3
REMARK    3  A    between atoms: C_8  and  O_9
REMARK                            x       y       z     vdW  Elec       q    Type
REMARK                         _______ _______ _______ _____ _____    ______ ____
ROOT
ATOM      1  C   UNL     1     -11.380  21.949 -22.783  0.00  0.00    +0.000 A 
ATOM      2  C   UNL     1     -11.698  22.355 -21.488  0.00  0.00    +0.000 A 
ATOM      3  C   UNL     1     -12.336  21.467 -20.613  0.00  0.00    +0.000 A 
ATOM      4  C   UNL     1     -12.660  20.174 -21.028  0.00  0.00    +0.000 A 
ATOM      5  C   UNL     1     -12.345  19.761 -22.321  0.00  0.00    +0.000 A 
ATOM      6  C   UNL     1     -11.712  20.648 -23.182  0.00  0.00    +0.000 A 
ENDROOT
BRANCH   1   8
ATOM      7  C   UNL     1      -9.337  22.694 -23.740  0.00  0.00    +0.000 C 
ATOM      8  O   UNL     1     -10.759  22.708 -23.742  0.00  0.00    +0.000 OA
ENDBRANCH   1   8
BRANCH   6   9
ATOM      9  O   UNL     1     -11.414  20.219 -24.448  0.00  0.00    +0.000 OA
ATOM     10  H   UNL     1     -11.702  20.947 -25.031  0.00  0.00    +0.000 HD
ENDBRANCH   6   9
TORSDOF 2
ENDMDL
MODEL 2
REMARK VINA RESULT:    -4.514      1.121      2.257
REMARK INTER + INTRA:          -4.882
REMARK INTER:                  -4.834
REMARK INTRA:                  -0.048
REMARK UNBOUND:                 0.028
REMARK  Name = 
REMARK  3 active torsions:
REMARK  status: ('A' for Active; 'I' for Inactive)
REMARK    1  A    between atoms: C_1  and  O_2
REMARK    2  A    between atoms: O_2  and  C_3
REMARK    3  A    between atoms: C_8  and  O_9
REMARK                            x       y       z     vdW  Elec       q    Type
REMARK                         _______ _______ _______ _____ _____    ______ ____
ROOT
ATOM      1  C   UNL     1     -11.333  21.765 -22.810  0.00  0.00    +0.000 A 
ATOM      2  C   UNL     1     -11.478  20.532 -23.445  0.00  0.00    +0.000 A 
ATOM      3  C   UNL     1     -12.208  19.509 -22.826  0.00  0.00    +0.000 A 
ATOM      4  C   UNL     1     -12.792  19.713 -21.575  0.00  0.00    +0.000 A 
ATOM      5  C   UNL     1     -12.652  20.943 -20.935  0.00  0.00    +0.000 A 
ATOM      6  C   UNL     1     -11.926  21.952 -21.556  0.00  0.00    +0.000 A 
ENDROOT
BRANCH   1   8
ATOM      7  C   UNL     1      -9.334  22.608 -23.780  0.00  0.00    +0.000 C 
ATOM      8  O   UNL     1     -10.649  22.851 -23.295  0.00  0.00    +0.000 OA
ENDBRANCH   1   8
BRANCH   6   9
ATOM      9  O   UNL     1     -11.802  23.151 -20.907  0.00  0.00    +0.000 OA
ATOM     10  H   UNL     1     -12.681  23.313 -20.513  0.00  0.00    +0.000 HD
ENDBRANCH   6   9
TORSDOF 2
ENDMDL
MODEL 3
REMARK VINA RESULT:    -4.343     13.636     14.453
REMARK INTER + INTRA:          -4.696
REMARK INTER:                  -4.648
REMARK INTRA:                  -0.048
REMARK UNBOUND:                 0.028
REMARK  Name = 
REMARK  3 active torsions:
REMARK  status: ('A' for Active; 'I' for Inactive)
REMARK    1  A    between atoms: C_1  and  O_2
REMARK    2  A    between atoms: O_2  and  C_3
REMARK    3  A    between atoms: C_8  and  O_9
REMARK                            x       y       z     vdW  Elec       q    Type
REMARK                         _______ _______ _______ _____ _____    ______ ____
ROOT
ATOM      1  C   UNL     1      -0.753  30.602 -24.192  0.00  0.00    +0.000 A 
ATOM      2  C   UNL     1      -0.814  31.288 -22.979  0.00  0.00    +0.000 A 
ATOM      3  C   UNL     1      -1.592  32.447 -22.870  0.00  0.00    +0.000 A 
ATOM      4  C   UNL     1      -2.309  32.925 -23.968  0.00  0.00    +0.000 A 
ATOM      5  C   UNL     1      -2.253  32.245 -25.183  0.00  0.00    +0.000 A 
ATOM      6  C   UNL     1      -1.479  31.096 -25.283  0.00  0.00    +0.000 A 
ENDROOT
BRANCH   1   8
ATOM      7  C   UNL     1      -0.166  28.407 -23.495  0.00  0.00    +0.000 C 
ATOM      8  O   UNL     1      -0.035  29.460 -24.443  0.00  0.00    +0.000 OA
ENDBRANCH   1   8
BRANCH   6   9
ATOM      9  O   UNL     1      -1.439  30.446 -26.487  0.00  0.00    +0.000 OA
ATOM     10  H   UNL     1      -2.344  30.102 -26.614  0.00  0.00    +0.000 HD
ENDBRANCH   6   9
TORSDOF 2
ENDMDL
MODEL 4
REMARK VINA RESULT:    -4.193     13.517     14.491
REMARK INTER + INTRA:          -4.532
REMARK INTER:                  -4.493
REMARK INTRA:                  -0.039
REMARK UNBOUND:                 0.028
REMARK  Name = 
REMARK  3 active torsions:
REMARK  status: ('A' for Active; 'I' for Inactive)
REMARK    1  A    between atoms: C_1  and  O_2
REMARK    2  A    between atoms: O_2  and  C_3
REMARK    3  A    between atoms: C_8  and  O_9
REMARK                            x       y       z     vdW  Elec       q    Type
REMARK                         _______ _______ _______ _____ _____    ______ ____
ROOT
ATOM      1  C   UNL     1      -0.494  29.960 -23.648  0.00  0.00    +0.000 A 
ATOM      2  C   UNL     1      -1.258  30.205 -24.788  0.00  0.00    +0.000 A 
ATOM      3  C   UNL     1      -2.006  31.385 -24.889  0.00  0.00    +0.000 A 
ATOM      4  C   UNL     1      -1.994  32.321 -23.853  0.00  0.00    +0.000 A 
ATOM      5  C   UNL     1      -1.232  32.083 -22.711  0.00  0.00    +0.000 A 
ATOM      6  C   UNL     1      -0.493  30.910 -22.620  0.00  0.00    +0.000 A 
ENDROOT
BRANCH   1   8
ATOM      7  C   UNL     1      -0.066  27.672 -24.126  0.00  0.00    +0.000 C 
ATOM      8  O   UNL     1       0.283  28.853 -23.415  0.00  0.00    +0.000 OA
ENDBRANCH   1   8
BRANCH   6   9
ATOM      9  O   UNL     1       0.247  30.699 -21.488  0.00  0.00    +0.000 OA
ATOM     10  H   UNL     1       0.003  31.431 -20.891  0.00  0.00    +0.000 HD
ENDBRANCH   6   9
TORSDOF 2
ENDMDL
MODEL 5
REMARK VINA RESULT:    -4.123     13.943     14.434
REMARK INTER + INTRA:          -4.456
REMARK INTER:                  -4.403
REMARK INTRA:                  -0.052
REMARK UNBOUND:                 0.028
REMARK  Name = 
REMARK  3 active torsions:
REMARK  status: ('A' for Active; 'I' for Inactive)
REMARK    1  A    between atoms: C_1  and  O_2
REMARK    2  A    between atoms: O_2  and  C_3
REMARK    3  A    between atoms: C_8  and  O_9
REMARK                            x       y       z     vdW  Elec       q    Type
REMARK                         _______ _______ _______ _____ _____    ______ ____
ROOT
ATOM      1  C   UNL     1      -1.623  31.641 -24.265  0.00  0.00    +0.000 A 
ATOM      2  C   UNL     1      -1.240  31.731 -22.927  0.00  0.00    +0.000 A 
ATOM      3  C   UNL     1      -0.490  30.701 -22.344  0.00  0.00    +0.000 A 
ATOM      4  C   UNL     1      -0.123  29.582 -23.093  0.00  0.00    +0.000 A 
ATOM      5  C   UNL     1      -0.502  29.485 -24.430  0.00  0.00    +0.000 A 
ATOM      6  C   UNL     1      -1.245  30.511 -25.000  0.00  0.00    +0.000 A 
ENDROOT
BRANCH   1   8
ATOM      7  C   UNL     1      -1.716  33.812 -25.228  0.00  0.00    +0.000 C 
ATOM      8  O   UNL     1      -2.355  32.569 -24.962  0.00  0.00    +0.000 OA
ENDBRANCH   1   8
BRANCH   6   9
ATOM      9  O   UNL     1      -1.606  30.394 -26.316  0.00  0.00    +0.000 OA
ATOM     10  H   UNL     1      -1.541  31.300 -26.673  0.00  0.00    +0.000 HD
ENDBRANCH   6   9
TORSDOF 2
ENDMDL
MODEL 6
REMARK VINA RESULT:    -4.040     13.977     14.799
REMARK INTER + INTRA:          -4.367
REMARK INTER:                  -4.318
REMARK INTRA:                  -0.049
REMARK UNBOUND:                 0.028
REMARK  Name = 
REMARK  3 active torsions:
REMARK  status: ('A' for Active; 'I' for Inactive)
REMARK    1  A    between atoms: C_1  and  O_2
REMARK    2  A    between atoms: O_2  and  C_3
REMARK    3  A    between atoms: C_8  and  O_9
REMARK                            x       y       z     vdW  Elec       q    Type
REMARK                         _______ _______ _______ _____ _____    ______ ____
ROOT
ATOM      1  C   UNL     1      -1.144  31.787 -22.873  0.00  0.00    +0.000 A 
ATOM      2  C   UNL     1      -1.849  31.802 -24.076  0.00  0.00    +0.000 A 
ATOM      3  C   UNL     1      -1.830  30.679 -24.912  0.00  0.00    +0.000 A 
ATOM      4  C   UNL     1      -1.109  29.539 -24.551  0.00  0.00    +0.000 A 
ATOM      5  C   UNL     1      -0.403  29.516 -23.351  0.00  0.00    +0.000 A 
ATOM      6  C   UNL     1      -0.426  30.635 -22.528  0.00  0.00    +0.000 A 
ENDROOT
BRANCH   1   8
ATOM      7  C   UNL     1      -0.296  33.940 -22.337  0.00  0.00    +0.000 C 
ATOM      8  O   UNL     1      -1.073  32.809 -21.962  0.00  0.00    +0.000 OA
ENDBRANCH   1   8
BRANCH   6   9
ATOM      9  O   UNL     1       0.276  30.588 -21.353  0.00  0.00    +0.000 OA
ATOM     10  H   UNL     1       0.737  29.728 -21.374  0.00  0.00    +0.000 HD
ENDBRANCH   6   9
TORSDOF 2
ENDMDL
MODEL 7
REMARK VINA RESULT:    -3.912     13.184     14.390
REMARK INTER + INTRA:          -4.226
REMARK INTER:                  -4.208
REMARK INTRA:                  -0.018
REMARK UNBOUND:                 0.028
REMARK  Name = 
REMARK  3 active torsions:
REMARK  status: ('A' for Active; 'I' for Inactive)
REMARK    1  A    between atoms: C_1  and  O_2
REMARK    2  A    between atoms: O_2  and  C_3
REMARK    3  A    between atoms: C_8  and  O_9
REMARK                            x       y       z     vdW  Elec       q    Type
REMARK                         _______ _______ _______ _____ _____    ______ ____
ROOT
ATOM      1  C   UNL     1      -0.865  22.824 -32.205  0.00  0.00    +0.000 A 
ATOM      2  C   UNL     1      -0.629  22.485 -33.537  0.00  0.00    +0.000 A 
ATOM      3  C   UNL     1      -1.686  22.483 -34.456  0.00  0.00    +0.000 A 
ATOM      4  C   UNL     1      -2.979  22.817 -34.048  0.00  0.00    +0.000 A 
ATOM      5  C   UNL     1      -3.222  23.157 -32.719  0.00  0.00    +0.000 A 
ATOM      6  C   UNL     1      -2.168  23.156 -31.815  0.00  0.00    +0.000 A 
ENDROOT
BRANCH   1   8
ATOM      7  C   UNL     1       0.421  21.623 -30.608  0.00  0.00    +0.000 C 
ATOM      8  O   UNL     1       0.070  22.867 -31.202  0.00  0.00    +0.000 OA
ENDBRANCH   1   8
BRANCH   6   9
ATOM      9  O   UNL     1      -2.432  23.493 -30.514  0.00  0.00    +0.000 OA
ATOM     10  H   UNL     1      -2.729  24.422 -30.554  0.00  0.00    +0.000 HD
ENDBRANCH   6   9
TORSDOF 2
ENDMDL
MODEL 8
REMARK VINA RESULT:    -3.821     11.942     13.947
REMARK INTER + INTRA:          -4.128
REMARK INTER:                  -4.078
REMARK INTRA:                  -0.050
REMARK UNBOUND:                 0.028
REMARK  Name = 
REMARK  3 active torsions:
REMARK  status: ('A' for Active; 'I' for Inactive)
REMARK    1  A    between atoms: C_1  and  O_2
REMARK    2  A    between atoms: O_2  and  C_3
REMARK    3  A    between atoms: C_8  and  O_9
REMARK                            x       y       z     vdW  Elec       q    Type
REMARK                         _______ _______ _______ _____ _____    ______ ____
ROOT
ATOM      1  C   UNL     1      -3.217  22.839 -32.531  0.00  0.00    +0.000 A 
ATOM      2  C   UNL     1      -3.062  22.454 -33.862  0.00  0.00    +0.000 A 
ATOM      3  C   UNL     1      -1.783  22.400 -34.430  0.00  0.00    +0.000 A 
ATOM      4  C   UNL     1      -0.658  22.731 -33.674  0.00  0.00    +0.000 A 
ATOM      5  C   UNL     1      -0.804  23.117 -32.343  0.00  0.00    +0.000 A 
ATOM      6  C   UNL     1      -2.076  23.168 -31.788  0.00  0.00    +0.000 A 
ENDROOT
BRANCH   1   8
ATOM      7  C   UNL     1      -5.255  24.018 -32.207  0.00  0.00    +0.000 C 
ATOM      8  O   UNL     1      -4.402  22.937 -31.848  0.00  0.00    +0.000 OA
ENDBRANCH   1   8
BRANCH   6   9
ATOM      9  O   UNL     1      -2.195  23.550 -30.478  0.00  0.00    +0.000 OA
ATOM     10  H   UNL     1      -2.977  24.134 -30.460  0.00  0.00    +0.000 HD
ENDBRANCH   6   9
TORSDOF 2
ENDMDL
MODEL 9
REMARK VINA RESULT:    -3.690     12.147     13.504
REMARK INTER + INTRA:          -3.986
REMARK INTER:                  -3.943
REMARK INTRA:                  -0.043
REMARK UNBOUND:                 0.028
REMARK  Name = 
REMARK  3 active torsions:
REMARK  status: ('A' for Active; 'I' for Inactive)
REMARK    1  A    between atoms: C_1  and  O_2
REMARK    2  A    between atoms: O_2  and  C_3
REMARK    3  A    between atoms: C_8  and  O_9
REMARK                            x       y       z     vdW  Elec       q    Type
REMARK                         _______ _______ _______ _____ _____    ______ ____
ROOT
ATOM      1  C   UNL     1      -5.034  32.747 -17.939  0.00  0.00    +0.000 A 
ATOM      2  C   UNL     1      -5.470  33.268 -19.157  0.00  0.00    +0.000 A 
ATOM      3  C   UNL     1      -6.511  32.641 -19.852  0.00  0.00    +0.000 A 
ATOM      4  C   UNL     1      -7.118  31.495 -19.336  0.00  0.00    +0.000 A 
ATOM      5  C   UNL     1      -6.689  30.969 -18.119  0.00  0.00    +0.000 A 
ATOM      6  C   UNL     1      -5.655  31.597 -17.436  0.00  0.00    +0.000 A 
ENDROOT
BRANCH   1   8
ATOM      7  C   UNL     1      -2.699  33.039 -17.608  0.00  0.00    +0.000 C 
ATOM      8  O   UNL     1      -4.029  33.254 -17.153  0.00  0.00    +0.000 OA
ENDBRANCH   1   8
BRANCH   6   9
ATOM      9  O   UNL     1      -5.250  31.062 -16.243  0.00  0.00    +0.000 OA
ATOM     10  H   UNL     1      -4.304  31.295 -16.174  0.00  0.00    +0.000 HD
ENDBRANCH   6   9
TORSDOF 2
ENDMDL
