MODEL 1
REMARK VINA RESULT:    -4.802      0.000      0.000
REMARK INTER + INTRA:          -7.077
REMARK INTER:                  -6.486
REMARK INTRA:                  -0.591
REMARK UNBOUND:                -0.591
REMARK  Name = 
REMARK  10 active torsions:
REMARK  status: ('A' for Active; 'I' for Inactive)
REMARK    1  A    between atoms: C_1  and  C_2
REMARK    2  A    between atoms: C_5  and  N_8
REMARK    3  A    between atoms: N_8  and  C_9
REMARK    4  A    between atoms: N_8  and  C_13
REMARK    5  A    between atoms: C_9  and  C_10
REMARK    6  A    between atoms: C_10  and  C_11
REMARK    7  A    between atoms: C_10  and  O_12
REMARK    8  A    between atoms: C_13  and  C_14
REMARK    9  A    between atoms: C_14  and  C_15
REMARK   10  A    between atoms: C_14  and  O_16
REMARK                            x       y       z     vdW  Elec       q    Type
REMARK                         _______ _______ _______ _____ _____    ______ ____
ROOT
ATOM      1  N   UNL     1       6.644  14.668   1.394  0.00  0.00    +0.000 N 
ENDROOT
BRANCH   1   6
ATOM      2  C   UNL     1       2.861  16.597   5.306  0.00  0.00    +0.000 C 
ATOM      3  C   UNL     1       3.861  16.100   4.307  0.00  0.00    +0.000 A 
ATOM      4  C   UNL     1       4.464  16.971   3.406  0.00  0.00    +0.000 A 
ATOM      5  C   UNL     1       5.378  16.494   2.452  0.00  0.00    +0.000 A 
ATOM      6  C   UNL     1       5.716  15.134   2.335  0.00  0.00    +0.000 A 
ATOM      7  C   UNL     1       5.089  14.283   3.264  0.00  0.00    +0.000 A 
ATOM      8  C   UNL     1       4.175  14.746   4.224  0.00  0.00    +0.000 A 
ENDBRANCH   1   6
BRANCH   1   9
ATOM      9  C   UNL     1       7.591  13.587   1.757  0.00  0.00    +0.000 C 
BRANCH   9  10
ATOM     10  C   UNL     1       8.722  14.069   2.697  0.00  0.00    +0.000 C 
ATOM     11  C   UNL     1       8.629  13.388   4.057  0.00  0.00    +0.000 C 
BRANCH  10  12
ATOM     12  O   UNL     1      10.012  13.778   2.142  0.00  0.00    +0.000 OA
ATOM     13  H   UNL     1      10.232  14.479   1.506  0.00  0.00    +0.000 HD
ENDBRANCH  10  12
ENDBRANCH   9  10
ENDBRANCH   1   9
BRANCH   1  14
ATOM     14  C   UNL     1       7.071  15.516   0.252  0.00  0.00    +0.000 C 
BRANCH  14  15
ATOM     15  C   UNL     1       6.254  15.225  -1.029  0.00  0.00    +0.000 C 
ATOM     16  C   UNL     1       5.345  16.379  -1.435  0.00  0.00    +0.000 C 
BRANCH  15  17
ATOM     17  O   UNL     1       7.100  14.919  -2.137  0.00  0.00    +0.000 OA
ATOM     18  H   UNL     1       7.889  15.485  -2.016  0.00  0.00    +0.000 HD
ENDBRANCH  15  17
ENDBRANCH  14  15
ENDBRANCH   1  14
TORSDOF 7
ENDMDL
MODEL 2
REMARK VINA RESULT:    -4.678      0.538      3.859
REMARK INTER + INTRA:          -6.909
REMARK INTER:                  -6.271
REMARK INTRA:                  -0.639
REMARK UNBOUND:                -0.591
REMARK  Name = 
REMARK  10 active torsions:
REMARK  status: ('A' for Active; 'I' for Inactive)
REMARK    1  A    between atoms: C_1  and  C_2
REMARK    2  A    between atoms: C_5  and  N_8
REMARK    3  A    between atoms: N_8  and  C_9
REMARK    4  A    between atoms: N_8  and  C_13
REMARK    5  A    between atoms: C_9  and  C_10
REMARK    6  A    between atoms: C_10  and  C_11
REMARK    7  A    between atoms: C_10  and  O_12
REMARK    8  A    between atoms: C_13  and  C_14
REMARK    9  A    between atoms: C_14  and  C_15
REMARK   10  A    between atoms: C_14  and  O_16
REMARK                            x       y       z     vdW  Elec       q    Type
REMARK                         _______ _______ _______ _____ _____    ______ ____
ROOT
ATOM      1  N   UNL     1       7.185  15.211   1.789  0.00  0.00    +0.000 N 
ENDROOT
BRANCH   1   6
ATOM      2  C   UNL     1       2.720  16.030   5.356  0.00  0.00    +0.000 C 
ATOM      3  C   UNL     1       3.863  15.819   4.410  0.00  0.00    +0.000 A 
ATOM      4  C   UNL     1       4.259  14.537   4.043  0.00  0.00    +0.000 A 
ATOM      5  C   UNL     1       5.351  14.344   3.181  0.00  0.00    +0.000 A 
ATOM      6  C   UNL     1       6.110  15.410   2.664  0.00  0.00    +0.000 A 
ATOM      7  C   UNL     1       5.680  16.691   3.055  0.00  0.00    +0.000 A 
ATOM      8  C   UNL     1       4.589  16.898   3.915  0.00  0.00    +0.000 A 
ENDBRANCH   1   6
BRANCH   1   9
ATOM      9  C   UNL     1       7.201  15.882   0.467  0.00  0.00    +0.000 C 
BRANCH   9  10
ATOM     10  C   UNL     1       6.272  15.197  -0.565  0.00  0.00    +0.000 C 
ATOM     11  C   UNL     1       5.018  16.029  -0.805  0.00  0.00    +0.000 C 
BRANCH  10  12
ATOM     12  O   UNL     1       6.938  15.024  -1.823  0.00  0.00    +0.000 OA
ATOM     13  H   UNL     1       6.602  15.698  -2.437  0.00  0.00    +0.000 HD
ENDBRANCH  10  12
ENDBRANCH   9  10
ENDBRANCH   1   9
BRANCH   1  14
ATOM     14  C   UNL     1       8.042  14.002   1.886  0.00  0.00    +0.000 C 
BRANCH  14  15
ATOM     15  C   UNL     1       9.130  14.142   2.978  0.00  0.00    +0.000 C 
ATOM     16  C   UNL     1       8.820  13.343   4.239  0.00  0.00    +0.000 C 
BRANCH  15  17
ATOM     17  O   UNL     1      10.412  13.736   2.501  0.00  0.00    +0.000 OA
ATOM     18  H   UNL     1      11.051  14.128   3.129  0.00  0.00    +0.000 HD
ENDBRANCH  15  17
ENDBRANCH  14  15
ENDBRANCH   1  14
TORSDOF 7
ENDMDL
MODEL 3
REMARK VINA RESULT:    -4.678      2.890      5.990
REMARK INTER + INTRA:          -6.909
REMARK INTER:                  -6.462
REMARK INTRA:                  -0.447
REMARK UNBOUND:                -0.591
REMARK  Name = 
REMARK  10 active torsions:
REMARK  status: ('A' for Active; 'I' for Inactive)
REMARK    1  A    between atoms: C_1  and  C_2
REMARK    2  A    between atoms: C_5  and  N_8
REMARK    3  A    between atoms: N_8  and  C_9
REMARK    4  A    between atoms: N_8  and  C_13
REMARK    5  A    between atoms: C_9  and  C_10
REMARK    6  A    between atoms: C_10  and  C_11
REMARK    7  A    between atoms: C_10  and  O_12
REMARK    8  A    between atoms: C_13  and  C_14
REMARK    9  A    between atoms: C_14  and  C_15
REMARK   10  A    between atoms: C_14  and  O_16
REMARK                            x       y       z     vdW  Elec       q    Type
REMARK                         _______ _______ _______ _____ _____    ______ ____
ROOT
ATOM      1  N   UNL     1       6.168  16.708   0.077  0.00  0.00    +0.000 N 
ENDROOT
BRANCH   1   6
ATOM      2  C   UNL     1       7.728  19.988  -4.411  0.00  0.00    +0.000 C 
ATOM      3  C   UNL     1       7.302  19.150  -3.244  0.00  0.00    +0.000 A 
ATOM      4  C   UNL     1       7.657  19.499  -1.946  0.00  0.00    +0.000 A 
ATOM      5  C   UNL     1       7.280  18.694  -0.859  0.00  0.00    +0.000 A 
ATOM      6  C   UNL     1       6.557  17.497  -1.013  0.00  0.00    +0.000 A 
ATOM      7  C   UNL     1       6.214  17.176  -2.339  0.00  0.00    +0.000 A 
ATOM      8  C   UNL     1       6.582  17.974  -3.435  0.00  0.00    +0.000 A 
ENDBRANCH   1   6
BRANCH   1   9
ATOM      9  C   UNL     1       6.100  17.299   1.435  0.00  0.00    +0.000 C 
BRANCH   9  10
ATOM     10  C   UNL     1       4.658  17.346   1.997  0.00  0.00    +0.000 C 
ATOM     11  C   UNL     1       4.651  17.103   3.502  0.00  0.00    +0.000 C 
BRANCH  10  12
ATOM     12  O   UNL     1       4.050  18.621   1.751  0.00  0.00    +0.000 OA
ATOM     13  H   UNL     1       3.331  18.742   2.393  0.00  0.00    +0.000 HD
ENDBRANCH  10  12
ENDBRANCH   9  10
ENDBRANCH   1   9
BRANCH   1  14
ATOM     14  C   UNL     1       6.310  15.230   0.046  0.00  0.00    +0.000 C 
BRANCH  14  15
ATOM     15  C   UNL     1       7.786  14.781   0.162  0.00  0.00    +0.000 C 
ATOM     16  C   UNL     1       8.042  13.864   1.352  0.00  0.00    +0.000 C 
BRANCH  15  17
ATOM     17  O   UNL     1       8.228  14.110  -1.017  0.00  0.00    +0.000 OA
ATOM     18  H   UNL     1       9.203  14.183  -0.999  0.00  0.00    +0.000 HD
ENDBRANCH  15  17
ENDBRANCH  14  15
ENDBRANCH   1  14
TORSDOF 7
ENDMDL
MODEL 4
REMARK VINA RESULT:    -4.669      3.699      6.844
REMARK INTER + INTRA:          -6.897
REMARK INTER:                  -6.363
REMARK INTRA:                  -0.535
REMARK UNBOUND:                -0.591
REMARK  Name = 
REMARK  10 active torsions:
REMARK  status: ('A' for Active; 'I' for Inactive)
REMARK    1  A    between atoms: C_1  and  C_2
REMARK    2  A    between atoms: C_5  and  N_8
REMARK    3  A    between atoms: N_8  and  C_9
REMARK    4  A    between atoms: N_8  and  C_13
REMARK    5  A    between atoms: C_9  and  C_10
REMARK    6  A    between atoms: C_10  and  C_11
REMARK    7  A    between atoms: C_10  and  O_12
REMARK    8  A    between atoms: C_13  and  C_14
REMARK    9  A    between atoms: C_14  and  C_15
REMARK   10  A    between atoms: C_14  and  O_16
REMARK                            x       y       z     vdW  Elec       q    Type
REMARK                         _______ _______ _______ _____ _____    ______ ____
ROOT
ATOM      1  N   UNL     1       6.847  18.092  -0.841  0.00  0.00    +0.000 N 
ENDROOT
BRANCH   1   6
ATOM      2  C   UNL     1       7.418  20.602  -6.009  0.00  0.00    +0.000 C 
ATOM      3  C   UNL     1       7.248  19.962  -4.665  0.00  0.00    +0.000 A 
ATOM      4  C   UNL     1       7.750  20.566  -3.517  0.00  0.00    +0.000 A 
ATOM      5  C   UNL     1       7.613  19.948  -2.264  0.00  0.00    +0.000 A 
ATOM      6  C   UNL     1       6.996  18.695  -2.096  0.00  0.00    +0.000 A 
ATOM      7  C   UNL     1       6.499  18.114  -3.278  0.00  0.00    +0.000 A 
ATOM      8  C   UNL     1       6.627  18.723  -4.537  0.00  0.00    +0.000 A 
ENDBRANCH   1   6
BRANCH   1   9
ATOM      9  C   UNL     1       5.911  16.955  -0.669  0.00  0.00    +0.000 C 
BRANCH   9  10
ATOM     10  C   UNL     1       6.639  15.599  -0.503  0.00  0.00    +0.000 C 
ATOM     11  C   UNL     1       5.810  14.635   0.338  0.00  0.00    +0.000 C 
BRANCH  10  12
ATOM     12  O   UNL     1       6.877  14.984  -1.777  0.00  0.00    +0.000 OA
ATOM     13  H   UNL     1       7.134  14.060  -1.622  0.00  0.00    +0.000 HD
ENDBRANCH  10  12
ENDBRANCH   9  10
ENDBRANCH   1   9
BRANCH   1  14
ATOM     14  C   UNL     1       7.173  18.827   0.408  0.00  0.00    +0.000 C 
BRANCH  14  15
ATOM     15  C   UNL     1       8.521  18.372   1.019  0.00  0.00    +0.000 C 
ATOM     16  C   UNL     1       8.353  17.433   2.208  0.00  0.00    +0.000 C 
BRANCH  15  17
ATOM     17  O   UNL     1       9.343  17.719   0.053  0.00  0.00    +0.000 OA
ATOM     18  H   UNL     1      10.259  17.974   0.287  0.00  0.00    +0.000 HD
ENDBRANCH  15  17
ENDBRANCH  14  15
ENDBRANCH   1  14
TORSDOF 7
ENDMDL
MODEL 5
REMARK VINA RESULT:    -4.646      3.162      6.130
REMARK INTER + INTRA:          -6.866
REMARK INTER:                  -6.369
REMARK INTRA:                  -0.497
REMARK UNBOUND:                -0.591
REMARK  Name = 
REMARK  10 active torsions:
REMARK  status: ('A' for Active; 'I' for Inactive)
REMARK    1  A    between atoms: C_1  and  C_2
REMARK    2  A    between atoms: C_5  and  N_8
REMARK    3  A    between atoms: N_8  and  C_9
REMARK    4  A    between atoms: N_8  and  C_13
REMARK    5  A    between atoms: C_9  and  C_10
REMARK    6  A    between atoms: C_10  and  C_11
REMARK    7  A    between atoms: C_10  and  O_12
REMARK    8  A    between atoms: C_13  and  C_14
REMARK    9  A    between atoms: C_14  and  C_15
REMARK   10  A    between atoms: C_14  and  O_16
REMARK                            x       y       z     vdW  Elec       q    Type
REMARK                         _______ _______ _______ _____ _____    ______ ____
ROOT
ATOM      1  N   UNL     1       6.625  17.218  -0.258  0.00  0.00    +0.000 N 
ENDROOT
BRANCH   1   6
ATOM      2  C   UNL     1       7.032  20.555  -4.951  0.00  0.00    +0.000 C 
ATOM      3  C   UNL     1       6.950  19.683  -3.736  0.00  0.00    +0.000 A 
ATOM      4  C   UNL     1       6.548  18.355  -3.835  0.00  0.00    +0.000 A 
ATOM      5  C   UNL     1       6.445  17.550  -2.689  0.00  0.00    +0.000 A 
ATOM      6  C   UNL     1       6.711  18.032  -1.395  0.00  0.00    +0.000 A 
ATOM      7  C   UNL     1       7.117  19.378  -1.332  0.00  0.00    +0.000 A 
ATOM      8  C   UNL     1       7.226  20.193  -2.471  0.00  0.00    +0.000 A 
ENDBRANCH   1   6
BRANCH   1   9
ATOM      9  C   UNL     1       6.367  15.765  -0.401  0.00  0.00    +0.000 C 
BRANCH   9  10
ATOM     10  C   UNL     1       7.589  14.898  -0.011  0.00  0.00    +0.000 C 
ATOM     11  C   UNL     1       7.221  13.895   1.075  0.00  0.00    +0.000 C 
BRANCH  10  12
ATOM     12  O   UNL     1       8.083  14.167  -1.142  0.00  0.00    +0.000 OA
ATOM     13  H   UNL     1       7.656  14.520  -1.939  0.00  0.00    +0.000 HD
ENDBRANCH  10  12
ENDBRANCH   9  10
ENDBRANCH   1   9
BRANCH   1  14
ATOM     14  C   UNL     1       6.274  17.787   1.069  0.00  0.00    +0.000 C 
BRANCH  14  15
ATOM     15  C   UNL     1       4.859  17.363   1.531  0.00  0.00    +0.000 C 
ATOM     16  C   UNL     1       4.860  16.621   2.862  0.00  0.00    +0.000 C 
BRANCH  15  17
ATOM     17  O   UNL     1       3.986  18.485   1.651  0.00  0.00    +0.000 OA
ATOM     18  H   UNL     1       3.984  18.899   0.764  0.00  0.00    +0.000 HD
ENDBRANCH  15  17
ENDBRANCH  14  15
ENDBRANCH   1  14
TORSDOF 7
ENDMDL
MODEL 6
REMARK VINA RESULT:    -4.579      2.392      4.847
REMARK INTER + INTRA:          -6.776
REMARK INTER:                  -6.226
REMARK INTRA:                  -0.550
REMARK UNBOUND:                -0.591
REMARK  Name = 
REMARK  10 active torsions:
REMARK  status: ('A' for Active; 'I' for Inactive)
REMARK    1  A    between atoms: C_1  and  C_2
REMARK    2  A    between atoms: C_5  and  N_8
REMARK    3  A    between atoms: N_8  and  C_9
REMARK    4  A    between atoms: N_8  and  C_13
REMARK    5  A    between atoms: C_9  and  C_10
REMARK    6  A    between atoms: C_10  and  C_11
REMARK    7  A    between atoms: C_10  and  O_12
REMARK    8  A    between atoms: C_13  and  C_14
REMARK    9  A    between atoms: C_14  and  C_15
REMARK   10  A    between atoms: C_14  and  O_16
REMARK                            x       y       z     vdW  Elec       q    Type
REMARK                         _______ _______ _______ _____ _____    ______ ____
ROOT
ATOM      1  N   UNL     1       5.445  15.161   1.399  0.00  0.00    +0.000 N 
ENDROOT
BRANCH   1   6
ATOM      2  C   UNL     1       6.949  19.033  -2.610  0.00  0.00    +0.000 C 
ATOM      3  C   UNL     1       6.582  18.019  -1.571  0.00  0.00    +0.000 A 
ATOM      4  C   UNL     1       6.012  16.802  -1.930  0.00  0.00    +0.000 A 
ATOM      5  C   UNL     1       5.641  15.867  -0.950  0.00  0.00    +0.000 A 
ATOM      6  C   UNL     1       5.798  16.106   0.427  0.00  0.00    +0.000 A 
ATOM      7  C   UNL     1       6.380  17.345   0.754  0.00  0.00    +0.000 A 
ATOM      8  C   UNL     1       6.756  18.288  -0.217  0.00  0.00    +0.000 A 
ENDBRANCH   1   6
BRANCH   1   9
ATOM      9  C   UNL     1       4.873  15.604   2.693  0.00  0.00    +0.000 C 
BRANCH   9  10
ATOM     10  C   UNL     1       5.081  14.570   3.827  0.00  0.00    +0.000 C 
ATOM     11  C   UNL     1       5.920  15.160   4.954  0.00  0.00    +0.000 C 
BRANCH  10  12
ATOM     12  O   UNL     1       3.826  14.152   4.379  0.00  0.00    +0.000 OA
ATOM     13  H   UNL     1       3.135  14.315   3.716  0.00  0.00    +0.000 HD
ENDBRANCH  10  12
ENDBRANCH   9  10
ENDBRANCH   1   9
BRANCH   1  14
ATOM     14  C   UNL     1       6.064  13.811   1.419  0.00  0.00    +0.000 C 
BRANCH  14  15
ATOM     15  C   UNL     1       7.605  13.873   1.292  0.00  0.00    +0.000 C 
ATOM     16  C   UNL     1       8.330  13.423   2.555  0.00  0.00    +0.000 C 
BRANCH  15  17
ATOM     17  O   UNL     1       8.076  13.077   0.205  0.00  0.00    +0.000 OA
ATOM     18  H   UNL     1       8.244  12.194   0.593  0.00  0.00    +0.000 HD
ENDBRANCH  15  17
ENDBRANCH  14  15
ENDBRANCH   1  14
TORSDOF 7
ENDMDL
MODEL 7
REMARK VINA RESULT:    -4.544      2.785      5.267
REMARK INTER + INTRA:          -6.728
REMARK INTER:                  -5.982
REMARK INTRA:                  -0.746
REMARK UNBOUND:                -0.591
REMARK  Name = 
REMARK  10 active torsions:
REMARK  status: ('A' for Active; 'I' for Inactive)
REMARK    1  A    between atoms: C_1  and  C_2
REMARK    2  A    between atoms: C_5  and  N_8
REMARK    3  A    between atoms: N_8  and  C_9
REMARK    4  A    between atoms: N_8  and  C_13
REMARK    5  A    between atoms: C_9  and  C_10
REMARK    6  A    between atoms: C_10  and  C_11
REMARK    7  A    between atoms: C_10  and  O_12
REMARK    8  A    between atoms: C_13  and  C_14
REMARK    9  A    between atoms: C_14  and  C_15
REMARK   10  A    between atoms: C_14  and  O_16
REMARK                            x       y       z     vdW  Elec       q    Type
REMARK                         _______ _______ _______ _____ _____    ______ ____
ROOT
ATOM      1  N   UNL     1       6.879  16.187   1.273  0.00  0.00    +0.000 N 
ENDROOT
BRANCH   1   6
ATOM      2  C   UNL     1       8.387  21.363  -0.792  0.00  0.00    +0.000 C 
ATOM      3  C   UNL     1       7.995  20.011  -0.280  0.00  0.00    +0.000 A 
ATOM      4  C   UNL     1       6.659  19.687  -0.070  0.00  0.00    +0.000 A 
ATOM      5  C   UNL     1       6.299  18.428   0.440  0.00  0.00    +0.000 A 
ATOM      6  C   UNL     1       7.246  17.447   0.784  0.00  0.00    +0.000 A 
ATOM      7  C   UNL     1       8.587  17.809   0.557  0.00  0.00    +0.000 A 
ATOM      8  C   UNL     1       8.960  19.063   0.046  0.00  0.00    +0.000 A 
ENDBRANCH   1   6
BRANCH   1   9
ATOM      9  C   UNL     1       5.515  15.662   1.024  0.00  0.00    +0.000 C 
BRANCH   9  10
ATOM     10  C   UNL     1       5.390  14.939  -0.339  0.00  0.00    +0.000 C 
ATOM     11  C   UNL     1       4.440  15.685  -1.267  0.00  0.00    +0.000 C 
BRANCH  10  12
ATOM     12  O   UNL     1       6.665  14.845  -0.991  0.00  0.00    +0.000 OA
ATOM     13  H   UNL     1       7.204  15.602  -0.709  0.00  0.00    +0.000 HD
ENDBRANCH  10  12
ENDBRANCH   9  10
ENDBRANCH   1   9
BRANCH   1  14
ATOM     14  C   UNL     1       7.581  15.578   2.431  0.00  0.00    +0.000 C 
BRANCH  14  15
ATOM     15  C   UNL     1       8.326  14.277   2.045  0.00  0.00    +0.000 C 
ATOM     16  C   UNL     1       7.473  13.025   2.213  0.00  0.00    +0.000 C 
BRANCH  15  17
ATOM     17  O   UNL     1       8.791  14.317   0.697  0.00  0.00    +0.000 OA
ATOM     18  H   UNL     1       8.635  13.415   0.349  0.00  0.00    +0.000 HD
ENDBRANCH  15  17
ENDBRANCH  14  15
ENDBRANCH   1  14
TORSDOF 7
ENDMDL
MODEL 8
REMARK VINA RESULT:    -4.537      1.887      4.187
REMARK INTER + INTRA:          -6.719
REMARK INTER:                  -6.040
REMARK INTRA:                  -0.679
REMARK UNBOUND:                -0.591
REMARK  Name = 
REMARK  10 active torsions:
REMARK  status: ('A' for Active; 'I' for Inactive)
REMARK    1  A    between atoms: C_1  and  C_2
REMARK    2  A    between atoms: C_5  and  N_8
REMARK    3  A    between atoms: N_8  and  C_9
REMARK    4  A    between atoms: N_8  and  C_13
REMARK    5  A    between atoms: C_9  and  C_10
REMARK    6  A    between atoms: C_10  and  C_11
REMARK    7  A    between atoms: C_10  and  O_12
REMARK    8  A    between atoms: C_13  and  C_14
REMARK    9  A    between atoms: C_14  and  C_15
REMARK   10  A    between atoms: C_14  and  O_16
REMARK                            x       y       z     vdW  Elec       q    Type
REMARK                         _______ _______ _______ _____ _____    ______ ____
ROOT
ATOM      1  N   UNL     1       5.717  15.511   0.636  0.00  0.00    +0.000 N 
ENDROOT
BRANCH   1   6
ATOM      2  C   UNL     1       6.434  19.915   4.300  0.00  0.00    +0.000 C 
ATOM      3  C   UNL     1       6.235  18.787   3.334  0.00  0.00    +0.000 A 
ATOM      4  C   UNL     1       5.138  17.939   3.441  0.00  0.00    +0.000 A 
ATOM      5  C   UNL     1       4.973  16.866   2.551  0.00  0.00    +0.000 A 
ATOM      6  C   UNL     1       5.898  16.572   1.533  0.00  0.00    +0.000 A 
ATOM      7  C   UNL     1       6.993  17.451   1.453  0.00  0.00    +0.000 A 
ATOM      8  C   UNL     1       7.169  18.530   2.335  0.00  0.00    +0.000 A 
ENDBRANCH   1   6
BRANCH   1   9
ATOM      9  C   UNL     1       4.932  15.713  -0.605  0.00  0.00    +0.000 C 
BRANCH   9  10
ATOM     10  C   UNL     1       5.824  15.863  -1.862  0.00  0.00    +0.000 C 
ATOM     11  C   UNL     1       6.220  17.318  -2.078  0.00  0.00    +0.000 C 
BRANCH  10  12
ATOM     12  O   UNL     1       7.025  15.089  -1.735  0.00  0.00    +0.000 OA
ATOM     13  H   UNL     1       6.778  14.149  -1.728  0.00  0.00    +0.000 HD
ENDBRANCH  10  12
ENDBRANCH   9  10
ENDBRANCH   1   9
BRANCH   1  14
ATOM     14  C   UNL     1       5.825  14.099   1.084  0.00  0.00    +0.000 C 
BRANCH  14  15
ATOM     15  C   UNL     1       7.280  13.709   1.442  0.00  0.00    +0.000 C 
ATOM     16  C   UNL     1       7.368  12.717   2.595  0.00  0.00    +0.000 C 
BRANCH  15  17
ATOM     17  O   UNL     1       7.966  13.149   0.323  0.00  0.00    +0.000 OA
ATOM     18  H   UNL     1       8.112  13.901  -0.286  0.00  0.00    +0.000 HD
ENDBRANCH  15  17
ENDBRANCH  14  15
ENDBRANCH   1  14
TORSDOF 7
ENDMDL
MODEL 9
REMARK VINA RESULT:    -4.509      2.232      3.376
REMARK INTER + INTRA:          -6.681
REMARK INTER:                  -5.944
REMARK INTRA:                  -0.738
REMARK UNBOUND:                -0.591
REMARK  Name = 
REMARK  10 active torsions:
REMARK  status: ('A' for Active; 'I' for Inactive)
REMARK    1  A    between atoms: C_1  and  C_2
REMARK    2  A    between atoms: C_5  and  N_8
REMARK    3  A    between atoms: N_8  and  C_9
REMARK    4  A    between atoms: N_8  and  C_13
REMARK    5  A    between atoms: C_9  and  C_10
REMARK    6  A    between atoms: C_10  and  C_11
REMARK    7  A    between atoms: C_10  and  O_12
REMARK    8  A    between atoms: C_13  and  C_14
REMARK    9  A    between atoms: C_14  and  C_15
REMARK   10  A    between atoms: C_14  and  O_16
REMARK                            x       y       z     vdW  Elec       q    Type
REMARK                         _______ _______ _______ _____ _____    ______ ____
ROOT
ATOM      1  N   UNL     1       6.420  15.983   1.135  0.00  0.00    +0.000 N 
ENDROOT
BRANCH   1   6
ATOM      2  C   UNL     1       7.748  12.422   5.480  0.00  0.00    +0.000 C 
ATOM      3  C   UNL     1       7.428  13.351   4.349  0.00  0.00    +0.000 A 
ATOM      4  C   UNL     1       7.163  14.696   4.583  0.00  0.00    +0.000 A 
ATOM      5  C   UNL     1       6.833  15.555   3.522  0.00  0.00    +0.000 A 
ATOM      6  C   UNL     1       6.729  15.116   2.190  0.00  0.00    +0.000 A 
ATOM      7  C   UNL     1       7.006  13.751   1.991  0.00  0.00    +0.000 A 
ATOM      8  C   UNL     1       7.339  12.881   3.042  0.00  0.00    +0.000 A 
ENDBRANCH   1   6
BRANCH   1   9
ATOM      9  C   UNL     1       6.772  17.420   1.225  0.00  0.00    +0.000 C 
BRANCH   9  10
ATOM     10  C   UNL     1       8.212  17.717   0.740  0.00  0.00    +0.000 C 
ATOM     11  C   UNL     1       9.064  18.277   1.873  0.00  0.00    +0.000 C 
BRANCH  10  12
ATOM     12  O   UNL     1       8.847  16.526   0.255  0.00  0.00    +0.000 OA
ATOM     13  H   UNL     1       8.158  15.939  -0.097  0.00  0.00    +0.000 HD
ENDBRANCH  10  12
ENDBRANCH   9  10
ENDBRANCH   1   9
BRANCH   1  14
ATOM     14  C   UNL     1       5.332  15.666   0.173  0.00  0.00    +0.000 C 
BRANCH  14  15
ATOM     15  C   UNL     1       5.866  15.459  -1.265  0.00  0.00    +0.000 C 
ATOM     16  C   UNL     1       5.932  16.751  -2.071  0.00  0.00    +0.000 C 
BRANCH  15  17
ATOM     17  O   UNL     1       7.166  14.871  -1.265  0.00  0.00    +0.000 OA
ATOM     18  H   UNL     1       7.607  15.234  -2.059  0.00  0.00    +0.000 HD
ENDBRANCH  15  17
ENDBRANCH  14  15
ENDBRANCH   1  14
TORSDOF 7
ENDMDL
