MODEL 1
REMARK VINA RESULT:    -3.548      0.000      0.000
REMARK INTER + INTRA:          -3.897
REMARK INTER:                  -3.859
REMARK INTRA:                  -0.038
REMARK UNBOUND:                -0.038
REMARK  Name = 
REMARK  3 active torsions:
REMARK  status: ('A' for Active; 'I' for Inactive)
REMARK    1  A    between atoms: C_1  and  O_2
REMARK    2  A    between atoms: O_2  and  C_3
REMARK    3  A    between atoms: C_8  and  O_9
REMARK                            x       y       z     vdW  Elec       q    Type
REMARK                         _______ _______ _______ _____ _____    ______ ____
ROOT
ATOM      1  C   UNL     1      15.185  21.015   5.566  0.00  0.00    +0.000 A 
ATOM      2  C   UNL     1      15.691  19.718   5.623  0.00  0.00    +0.000 A 
ATOM      3  C   UNL     1      14.815  18.627   5.692  0.00  0.00    +0.000 A 
ATOM      4  C   UNL     1      13.434  18.829   5.707  0.00  0.00    +0.000 A 
ATOM      5  C   UNL     1      12.920  20.123   5.650  0.00  0.00    +0.000 A 
ATOM      6  C   UNL     1      13.797  21.198   5.582  0.00  0.00    +0.000 A 
ENDROOT
BRANCH   1   8
ATOM      7  C   UNL     1      17.294  22.029   5.150  0.00  0.00    +0.000 C 
ATOM      8  O   UNL     1      15.921  22.171   5.497  0.00  0.00    +0.000 OA
ENDBRANCH   1   8
BRANCH   6   9
ATOM      9  O   UNL     1      13.268  22.460   5.527  0.00  0.00    +0.000 OA
ATOM     10  H   UNL     1      13.512  22.869   6.380  0.00  0.00    +0.000 HD
ENDBRANCH   6   9
TORSDOF 2
ENDMDL
MODEL 2
REMARK VINA RESULT:    -3.302      1.212      3.232
REMARK INTER + INTRA:          -3.629
REMARK INTER:                  -3.581
REMARK INTRA:                  -0.048
REMARK UNBOUND:                -0.038
REMARK  Name = 
REMARK  3 active torsions:
REMARK  status: ('A' for Active; 'I' for Inactive)
REMARK    1  A    between atoms: C_1  and  O_2
REMARK    2  A    between atoms: O_2  and  C_3
REMARK    3  A    between atoms: C_8  and  O_9
REMARK                            x       y       z     vdW  Elec       q    Type
REMARK                         _______ _______ _______ _____ _____    ______ ____
ROOT
ATOM      1  C   UNL     1      13.091  19.968   5.893  0.00  0.00    +0.000 A 
ATOM      2  C   UNL     1      13.697  18.713   5.887  0.00  0.00    +0.000 A 
ATOM      3  C   UNL     1      15.052  18.591   5.554  0.00  0.00    +0.000 A 
ATOM      4  C   UNL     1      15.804  19.721   5.225  0.00  0.00    +0.000 A 
ATOM      5  C   UNL     1      15.206  20.979   5.229  0.00  0.00    +0.000 A 
ATOM      6  C   UNL     1      13.862  21.090   5.561  0.00  0.00    +0.000 A 
ENDROOT
BRANCH   1   8
ATOM      7  C   UNL     1      10.803  19.423   5.557  0.00  0.00    +0.000 C 
ATOM      8  O   UNL     1      11.780  20.235   6.196  0.00  0.00    +0.000 OA
ENDBRANCH   1   8
BRANCH   6   9
ATOM      9  O   UNL     1      13.296  22.337   5.558  0.00  0.00    +0.000 OA
ATOM     10  H   UNL     1      13.422  22.664   4.647  0.00  0.00    +0.000 HD
ENDBRANCH   6   9
TORSDOF 2
ENDMDL
MODEL 3
REMARK VINA RESULT:    -3.297      2.916      3.795
REMARK INTER + INTRA:          -3.624
REMARK INTER:                  -3.586
REMARK INTRA:                  -0.038
REMARK UNBOUND:                -0.038
REMARK  Name = 
REMARK  3 active torsions:
REMARK  status: ('A' for Active; 'I' for Inactive)
REMARK    1  A    between atoms: C_1  and  O_2
REMARK    2  A    between atoms: O_2  and  C_3
REMARK    3  A    between atoms: C_8  and  O_9
REMARK                            x       y       z     vdW  Elec       q    Type
REMARK                         _______ _______ _______ _____ _____    ______ ____
ROOT
ATOM      1  C   UNL     1      14.073  18.304   6.990  0.00  0.00    +0.000 A 
ATOM      2  C   UNL     1      15.047  19.302   6.995  0.00  0.00    +0.000 A 
ATOM      3  C   UNL     1      14.832  20.493   6.290  0.00  0.00    +0.000 A 
ATOM      4  C   UNL     1      13.647  20.690   5.578  0.00  0.00    +0.000 A 
ATOM      5  C   UNL     1      12.669  19.699   5.569  0.00  0.00    +0.000 A 
ATOM      6  C   UNL     1      12.891  18.521   6.271  0.00  0.00    +0.000 A 
ENDROOT
BRANCH   1   8
ATOM      7  C   UNL     1      15.422  16.728   8.149  0.00  0.00    +0.000 C 
ATOM      8  O   UNL     1      14.148  17.094   7.632  0.00  0.00    +0.000 OA
ENDBRANCH   1   8
BRANCH   6   9
ATOM      9  O   UNL     1      11.915  17.560   6.247  0.00  0.00    +0.000 OA
ATOM     10  H   UNL     1      11.205  17.913   6.817  0.00  0.00    +0.000 HD
ENDBRANCH   6   9
TORSDOF 2
ENDMDL
MODEL 4
REMARK VINA RESULT:    -3.266      1.681      2.142
REMARK INTER + INTRA:          -3.590
REMARK INTER:                  -3.544
REMARK INTRA:                  -0.046
REMARK UNBOUND:                -0.038
REMARK  Name = 
REMARK  3 active torsions:
REMARK  status: ('A' for Active; 'I' for Inactive)
REMARK    1  A    between atoms: C_1  and  O_2
REMARK    2  A    between atoms: O_2  and  C_3
REMARK    3  A    between atoms: C_8  and  O_9
REMARK                            x       y       z     vdW  Elec       q    Type
REMARK                         _______ _______ _______ _____ _____    ______ ____
ROOT
ATOM      1  C   UNL     1      13.845  20.562   6.011  0.00  0.00    +0.000 A 
ATOM      2  C   UNL     1      14.948  20.083   6.717  0.00  0.00    +0.000 A 
ATOM      3  C   UNL     1      14.966  18.760   7.174  0.00  0.00    +0.000 A 
ATOM      4  C   UNL     1      13.883  17.912   6.930  0.00  0.00    +0.000 A 
ATOM      5  C   UNL     1      12.778  18.383   6.225  0.00  0.00    +0.000 A 
ATOM      6  C   UNL     1      12.769  19.698   5.776  0.00  0.00    +0.000 A 
ENDROOT
BRANCH   1   8
ATOM      7  C   UNL     1      14.088  22.901   6.354  0.00  0.00    +0.000 C 
ATOM      8  O   UNL     1      13.692  21.829   5.507  0.00  0.00    +0.000 OA
ENDBRANCH   1   8
BRANCH   6   9
ATOM      9  O   UNL     1      11.671  20.138   5.086  0.00  0.00    +0.000 OA
ATOM     10  H   UNL     1      11.284  20.833   5.651  0.00  0.00    +0.000 HD
ENDBRANCH   6   9
TORSDOF 2
ENDMDL
MODEL 5
REMARK VINA RESULT:    -3.031      1.256      1.837
REMARK INTER + INTRA:          -3.335
REMARK INTER:                  -3.283
REMARK INTRA:                  -0.053
REMARK UNBOUND:                -0.038
REMARK  Name = 
REMARK  3 active torsions:
REMARK  status: ('A' for Active; 'I' for Inactive)
REMARK    1  A    between atoms: C_1  and  O_2
REMARK    2  A    between atoms: O_2  and  C_3
REMARK    3  A    between atoms: C_8  and  O_9
REMARK                            x       y       z     vdW  Elec       q    Type
REMARK                         _______ _______ _______ _____ _____    ______ ____
ROOT
ATOM      1  C   UNL     1      15.464  19.645   5.472  0.00  0.00    +0.000 A 
ATOM      2  C   UNL     1      14.769  18.458   5.699  0.00  0.00    +0.000 A 
ATOM      3  C   UNL     1      13.383  18.486   5.896  0.00  0.00    +0.000 A 
ATOM      4  C   UNL     1      12.688  19.697   5.868  0.00  0.00    +0.000 A 
ATOM      5  C   UNL     1      13.375  20.887   5.641  0.00  0.00    +0.000 A 
ATOM      6  C   UNL     1      14.750  20.850   5.447  0.00  0.00    +0.000 A 
ENDROOT
BRANCH   1   8
ATOM      7  C   UNL     1      17.327  19.196   4.066  0.00  0.00    +0.000 C 
ATOM      8  O   UNL     1      16.815  19.767   5.265  0.00  0.00    +0.000 OA
ENDBRANCH   1   8
BRANCH   6   9
ATOM      9  O   UNL     1      15.404  22.032   5.226  0.00  0.00    +0.000 OA
ATOM     10  H   UNL     1      15.246  22.231   4.284  0.00  0.00    +0.000 HD
ENDBRANCH   6   9
TORSDOF 2
ENDMDL
MODEL 6
REMARK VINA RESULT:    -3.017      2.181      2.956
REMARK INTER + INTRA:          -3.320
REMARK INTER:                  -3.275
REMARK INTRA:                  -0.044
REMARK UNBOUND:                -0.038
REMARK  Name = 
REMARK  3 active torsions:
REMARK  status: ('A' for Active; 'I' for Inactive)
REMARK    1  A    between atoms: C_1  and  O_2
REMARK    2  A    between atoms: O_2  and  C_3
REMARK    3  A    between atoms: C_8  and  O_9
REMARK                            x       y       z     vdW  Elec       q    Type
REMARK                         _______ _______ _______ _____ _____    ______ ____
ROOT
ATOM      1  C   UNL     1      15.197  19.394   5.247  0.00  0.00    +0.000 A 
ATOM      2  C   UNL     1      15.940  20.573   5.253  0.00  0.00    +0.000 A 
ATOM      3  C   UNL     1      15.332  21.781   5.616  0.00  0.00    +0.000 A 
ATOM      4  C   UNL     1      13.982  21.816   5.972  0.00  0.00    +0.000 A 
ATOM      5  C   UNL     1      13.233  20.641   5.969  0.00  0.00    +0.000 A 
ATOM      6  C   UNL     1      13.845  19.447   5.607  0.00  0.00    +0.000 A 
ENDROOT
BRANCH   1   8
ATOM      7  C   UNL     1      16.959  17.805   5.380  0.00  0.00    +0.000 C 
ATOM      8  O   UNL     1      15.659  18.145   4.915  0.00  0.00    +0.000 OA
ENDBRANCH   1   8
BRANCH   6   9
ATOM      9  O   UNL     1      13.088  18.306   5.612  0.00  0.00    +0.000 OA
ATOM     10  H   UNL     1      13.493  17.742   6.298  0.00  0.00    +0.000 HD
ENDBRANCH   6   9
TORSDOF 2
ENDMDL
MODEL 7
REMARK VINA RESULT:    -2.962     19.468     20.516
REMARK INTER + INTRA:          -3.259
REMARK INTER:                  -3.218
REMARK INTRA:                  -0.042
REMARK UNBOUND:                -0.038
REMARK  Name = 
REMARK  3 active torsions:
REMARK  status: ('A' for Active; 'I' for Inactive)
REMARK    1  A    between atoms: C_1  and  O_2
REMARK    2  A    between atoms: O_2  and  C_3
REMARK    3  A    between atoms: C_8  and  O_9
REMARK                            x       y       z     vdW  Elec       q    Type
REMARK                         _______ _______ _______ _____ _____    ______ ____
ROOT
ATOM      1  C   UNL     1       2.728  20.990 -11.364  0.00  0.00    +0.000 A 
ATOM      2  C   UNL     1       1.666  21.672 -10.773  0.00  0.00    +0.000 A 
ATOM      3  C   UNL     1       1.907  22.570  -9.725  0.00  0.00    +0.000 A 
ATOM      4  C   UNL     1       3.208  22.788  -9.266  0.00  0.00    +0.000 A 
ATOM      5  C   UNL     1       4.274  22.111  -9.853  0.00  0.00    +0.000 A 
ATOM      6  C   UNL     1       4.025  21.222 -10.891  0.00  0.00    +0.000 A 
ENDROOT
BRANCH   1   8
ATOM      7  C   UNL     1       1.461  19.289 -12.437  0.00  0.00    +0.000 C 
ATOM      8  O   UNL     1       2.639  20.086 -12.392  0.00  0.00    +0.000 OA
ENDBRANCH   1   8
BRANCH   6   9
ATOM      9  O   UNL     1       5.090  20.568 -11.451  0.00  0.00    +0.000 OA
ATOM     10  H   UNL     1       4.908  19.621 -11.297  0.00  0.00    +0.000 HD
ENDBRANCH   6   9
TORSDOF 2
ENDMDL
MODEL 8
REMARK VINA RESULT:    -2.928      1.016      2.425
REMARK INTER + INTRA:          -3.223
REMARK INTER:                  -3.177
REMARK INTRA:                  -0.046
REMARK UNBOUND:                -0.038
REMARK  Name = 
REMARK  3 active torsions:
REMARK  status: ('A' for Active; 'I' for Inactive)
REMARK    1  A    between atoms: C_1  and  O_2
REMARK    2  A    between atoms: O_2  and  C_3
REMARK    3  A    between atoms: C_8  and  O_9
REMARK                            x       y       z     vdW  Elec       q    Type
REMARK                         _______ _______ _______ _____ _____    ______ ____
ROOT
ATOM      1  C   UNL     1      14.073  21.088   5.672  0.00  0.00    +0.000 A 
ATOM      2  C   UNL     1      13.046  20.218   6.034  0.00  0.00    +0.000 A 
ATOM      3  C   UNL     1      13.254  18.833   5.989  0.00  0.00    +0.000 A 
ATOM      4  C   UNL     1      14.485  18.315   5.582  0.00  0.00    +0.000 A 
ATOM      5  C   UNL     1      15.516  19.179   5.219  0.00  0.00    +0.000 A 
ATOM      6  C   UNL     1      15.300  20.550   5.267  0.00  0.00    +0.000 A 
ENDROOT
BRANCH   1   8
ATOM      7  C   UNL     1      14.024  23.099   6.937  0.00  0.00    +0.000 C 
ATOM      8  O   UNL     1      14.010  22.459   5.667  0.00  0.00    +0.000 OA
ENDBRANCH   1   8
BRANCH   6   9
ATOM      9  O   UNL     1      16.329  21.379   4.905  0.00  0.00    +0.000 OA
ATOM     10  H   UNL     1      16.381  22.038   5.623  0.00  0.00    +0.000 HD
ENDBRANCH   6   9
TORSDOF 2
ENDMDL
