MODEL 1
REMARK VINA RESULT:    -5.478      0.000      0.000
REMARK INTER + INTRA:          -7.993
REMARK INTER:                  -7.399
REMARK INTRA:                  -0.593
REMARK UNBOUND:                -0.593
REMARK  Name = 
REMARK  10 active torsions:
REMARK  status: ('A' for Active; 'I' for Inactive)
REMARK    1  A    between atoms: C_1  and  C_2
REMARK    2  A    between atoms: C_5  and  N_8
REMARK    3  A    between atoms: N_8  and  C_9
REMARK    4  A    between atoms: N_8  and  C_13
REMARK    5  A    between atoms: C_9  and  C_10
REMARK    6  A    between atoms: C_10  and  C_11
REMARK    7  A    between atoms: C_10  and  O_12
REMARK    8  A    between atoms: C_13  and  C_14
REMARK    9  A    between atoms: C_14  and  C_15
REMARK   10  A    between atoms: C_14  and  O_16
REMARK                            x       y       z     vdW  Elec       q    Type
REMARK                         _______ _______ _______ _____ _____    ______ ____
ROOT
ATOM      1  N   UNL     1       6.955  14.959   5.996  0.00  0.00    +0.000 N 
ENDROOT
BRANCH   1   6
ATOM      2  C   UNL     1      12.194  16.870   7.491  0.00  0.00    +0.000 C 
ATOM      3  C   UNL     1      10.828  16.374   7.127  0.00  0.00    +0.000 A 
ATOM      4  C   UNL     1      10.568  15.012   7.015  0.00  0.00    +0.000 A 
ATOM      5  C   UNL     1       9.294  14.554   6.645  0.00  0.00    +0.000 A 
ATOM      6  C   UNL     1       8.229  15.423   6.347  0.00  0.00    +0.000 A 
ATOM      7  C   UNL     1       8.527  16.793   6.472  0.00  0.00    +0.000 A 
ATOM      8  C   UNL     1       9.796  17.264   6.844  0.00  0.00    +0.000 A 
ENDBRANCH   1   6
BRANCH   1   9
ATOM      9  C   UNL     1       6.472  15.095   4.601  0.00  0.00    +0.000 C 
BRANCH   9  10
ATOM     10  C   UNL     1       7.057  14.018   3.656  0.00  0.00    +0.000 C 
ATOM     11  C   UNL     1       6.018  12.948   3.340  0.00  0.00    +0.000 C 
BRANCH  10  12
ATOM     12  O   UNL     1       7.487  14.599   2.417  0.00  0.00    +0.000 OA
ATOM     13  H   UNL     1       8.326  14.180   2.163  0.00  0.00    +0.000 HD
ENDBRANCH  10  12
ENDBRANCH   9  10
ENDBRANCH   1   9
BRANCH   1  14
ATOM     14  C   UNL     1       5.885  14.807   7.016  0.00  0.00    +0.000 C 
BRANCH  14  15
ATOM     15  C   UNL     1       5.519  13.323   7.261  0.00  0.00    +0.000 C 
ATOM     16  C   UNL     1       4.236  12.898   6.557  0.00  0.00    +0.000 C 
BRANCH  15  17
ATOM     17  O   UNL     1       6.564  12.446   6.842  0.00  0.00    +0.000 OA
ATOM     18  H   UNL     1       7.156  12.370   7.617  0.00  0.00    +0.000 HD
ENDBRANCH  15  17
ENDBRANCH  14  15
ENDBRANCH   1  14
TORSDOF 7
ENDMDL
MODEL 2
REMARK VINA RESULT:    -5.106      1.087      2.948
REMARK INTER + INTRA:          -7.490
REMARK INTER:                  -7.006
REMARK INTRA:                  -0.483
REMARK UNBOUND:                -0.593
REMARK  Name = 
REMARK  10 active torsions:
REMARK  status: ('A' for Active; 'I' for Inactive)
REMARK    1  A    between atoms: C_1  and  C_2
REMARK    2  A    between atoms: C_5  and  N_8
REMARK    3  A    between atoms: N_8  and  C_9
REMARK    4  A    between atoms: N_8  and  C_13
REMARK    5  A    between atoms: C_9  and  C_10
REMARK    6  A    between atoms: C_10  and  C_11
REMARK    7  A    between atoms: C_10  and  O_12
REMARK    8  A    between atoms: C_13  and  C_14
REMARK    9  A    between atoms: C_14  and  C_15
REMARK   10  A    between atoms: C_14  and  O_16
REMARK                            x       y       z     vdW  Elec       q    Type
REMARK                         _______ _______ _______ _____ _____    ______ ____
ROOT
ATOM      1  N   UNL     1       6.856  15.270   6.015  0.00  0.00    +0.000 N 
ENDROOT
BRANCH   1   6
ATOM      2  C   UNL     1      12.293  16.530   7.494  0.00  0.00    +0.000 C 
ATOM      3  C   UNL     1      10.875  16.204   7.134  0.00  0.00    +0.000 A 
ATOM      4  C   UNL     1      10.447  14.884   7.041  0.00  0.00    +0.000 A 
ATOM      5  C   UNL     1       9.125  14.584   6.674  0.00  0.00    +0.000 A 
ATOM      6  C   UNL     1       8.178  15.576   6.361  0.00  0.00    +0.000 A 
ATOM      7  C   UNL     1       8.645  16.899   6.468  0.00  0.00    +0.000 A 
ATOM      8  C   UNL     1       9.964  17.213   6.836  0.00  0.00    +0.000 A 
ENDBRANCH   1   6
BRANCH   1   9
ATOM      9  C   UNL     1       6.030  14.424   6.909  0.00  0.00    +0.000 C 
BRANCH   9  10
ATOM     10  C   UNL     1       4.511  14.634   6.699  0.00  0.00    +0.000 C 
ATOM     11  C   UNL     1       3.809  13.308   6.430  0.00  0.00    +0.000 C 
BRANCH  10  12
ATOM     12  O   UNL     1       3.908  15.228   7.858  0.00  0.00    +0.000 OA
ATOM     13  H   UNL     1       3.392  15.998   7.567  0.00  0.00    +0.000 HD
ENDBRANCH  10  12
ENDBRANCH   9  10
ENDBRANCH   1   9
BRANCH   1  14
ATOM     14  C   UNL     1       6.402  15.314   4.601  0.00  0.00    +0.000 C 
BRANCH  14  15
ATOM     15  C   UNL     1       7.024  14.179   3.753  0.00  0.00    +0.000 C 
ATOM     16  C   UNL     1       6.053  13.039   3.471  0.00  0.00    +0.000 C 
BRANCH  15  17
ATOM     17  O   UNL     1       7.512  14.663   2.502  0.00  0.00    +0.000 OA
ATOM     18  H   UNL     1       7.208  14.007   1.842  0.00  0.00    +0.000 HD
ENDBRANCH  15  17
ENDBRANCH  14  15
ENDBRANCH   1  14
TORSDOF 7
ENDMDL
MODEL 3
REMARK VINA RESULT:    -5.084      1.599      2.185
REMARK INTER + INTRA:          -7.460
REMARK INTER:                  -7.031
REMARK INTRA:                  -0.430
REMARK UNBOUND:                -0.593
REMARK  Name = 
REMARK  10 active torsions:
REMARK  status: ('A' for Active; 'I' for Inactive)
REMARK    1  A    between atoms: C_1  and  C_2
REMARK    2  A    between atoms: C_5  and  N_8
REMARK    3  A    between atoms: N_8  and  C_9
REMARK    4  A    between atoms: N_8  and  C_13
REMARK    5  A    between atoms: C_9  and  C_10
REMARK    6  A    between atoms: C_10  and  C_11
REMARK    7  A    between atoms: C_10  and  O_12
REMARK    8  A    between atoms: C_13  and  C_14
REMARK    9  A    between atoms: C_14  and  C_15
REMARK   10  A    between atoms: C_14  and  O_16
REMARK                            x       y       z     vdW  Elec       q    Type
REMARK                         _______ _______ _______ _____ _____    ______ ____
ROOT
ATOM      1  N   UNL     1       6.106  13.849   5.850  0.00  0.00    +0.000 N 
ENDROOT
BRANCH   1   6
ATOM      2  C   UNL     1      10.722  17.081   7.107  0.00  0.00    +0.000 C 
ATOM      3  C   UNL     1       9.529  16.244   6.756  0.00  0.00    +0.000 A 
ATOM      4  C   UNL     1       8.278  16.824   6.574  0.00  0.00    +0.000 A 
ATOM      5  C   UNL     1       7.158  16.032   6.275  0.00  0.00    +0.000 A 
ATOM      6  C   UNL     1       7.224  14.631   6.167  0.00  0.00    +0.000 A 
ATOM      7  C   UNL     1       8.504  14.079   6.356  0.00  0.00    +0.000 A 
ATOM      8  C   UNL     1       9.633  14.860   6.653  0.00  0.00    +0.000 A 
ENDBRANCH   1   6
BRANCH   1   9
ATOM      9  C   UNL     1       6.213  12.779   4.829  0.00  0.00    +0.000 C 
BRANCH   9  10
ATOM     10  C   UNL     1       5.554  13.167   3.482  0.00  0.00    +0.000 C 
ATOM     11  C   UNL     1       6.583  13.744   2.518  0.00  0.00    +0.000 C 
BRANCH  10  12
ATOM     12  O   UNL     1       4.951  12.025   2.857  0.00  0.00    +0.000 OA
ATOM     13  H   UNL     1       5.578  11.673   2.204  0.00  0.00    +0.000 HD
ENDBRANCH  10  12
ENDBRANCH   9  10
ENDBRANCH   1   9
BRANCH   1  14
ATOM     14  C   UNL     1       4.727  14.344   6.093  0.00  0.00    +0.000 C 
BRANCH  14  15
ATOM     15  C   UNL     1       4.095  13.714   7.358  0.00  0.00    +0.000 C 
ATOM     16  C   UNL     1       2.678  14.207   7.629  0.00  0.00    +0.000 C 
BRANCH  15  17
ATOM     17  O   UNL     1       4.059  12.290   7.277  0.00  0.00    +0.000 OA
ATOM     18  H   UNL     1       4.438  12.078   6.400  0.00  0.00    +0.000 HD
ENDBRANCH  15  17
ENDBRANCH  14  15
ENDBRANCH   1  14
TORSDOF 7
ENDMDL
MODEL 4
REMARK VINA RESULT:    -4.772      1.649      5.094
REMARK INTER + INTRA:          -7.040
REMARK INTER:                  -6.533
REMARK INTRA:                  -0.507
REMARK UNBOUND:                -0.593
REMARK  Name = 
REMARK  10 active torsions:
REMARK  status: ('A' for Active; 'I' for Inactive)
REMARK    1  A    between atoms: C_1  and  C_2
REMARK    2  A    between atoms: C_5  and  N_8
REMARK    3  A    between atoms: N_8  and  C_9
REMARK    4  A    between atoms: N_8  and  C_13
REMARK    5  A    between atoms: C_9  and  C_10
REMARK    6  A    between atoms: C_10  and  C_11
REMARK    7  A    between atoms: C_10  and  O_12
REMARK    8  A    between atoms: C_13  and  C_14
REMARK    9  A    between atoms: C_14  and  C_15
REMARK   10  A    between atoms: C_14  and  O_16
REMARK                            x       y       z     vdW  Elec       q    Type
REMARK                         _______ _______ _______ _____ _____    ______ ____
ROOT
ATOM      1  N   UNL     1       7.310  14.668   6.287  0.00  0.00    +0.000 N 
ENDROOT
BRANCH   1   6
ATOM      2  C   UNL     1       1.929  13.610   8.088  0.00  0.00    +0.000 C 
ATOM      3  C   UNL     1       3.316  13.890   7.598  0.00  0.00    +0.000 A 
ATOM      4  C   UNL     1       4.115  12.869   7.092  0.00  0.00    +0.000 A 
ATOM      5  C   UNL     1       5.426  13.132   6.662  0.00  0.00    +0.000 A 
ATOM      6  C   UNL     1       6.009  14.410   6.735  0.00  0.00    +0.000 A 
ATOM      7  C   UNL     1       5.173  15.417   7.250  0.00  0.00    +0.000 A 
ATOM      8  C   UNL     1       3.859  15.169   7.681  0.00  0.00    +0.000 A 
ENDBRANCH   1   6
BRANCH   1   9
ATOM      9  C   UNL     1       7.878  13.886   5.162  0.00  0.00    +0.000 C 
BRANCH   9  10
ATOM     10  C   UNL     1       7.295  14.299   3.789  0.00  0.00    +0.000 C 
ATOM     11  C   UNL     1       6.354  13.227   3.252  0.00  0.00    +0.000 C 
BRANCH  10  12
ATOM     12  O   UNL     1       6.559  15.526   3.890  0.00  0.00    +0.000 OA
ATOM     13  H   UNL     1       5.640  15.308   4.118  0.00  0.00    +0.000 HD
ENDBRANCH  10  12
ENDBRANCH   9  10
ENDBRANCH   1   9
BRANCH   1  14
ATOM     14  C   UNL     1       8.316  15.309   7.172  0.00  0.00    +0.000 C 
BRANCH  14  15
ATOM     15  C   UNL     1       8.460  16.824   6.893  0.00  0.00    +0.000 C 
ATOM     16  C   UNL     1       9.911  17.288   6.833  0.00  0.00    +0.000 C 
BRANCH  15  17
ATOM     17  O   UNL     1       7.827  17.197   5.670  0.00  0.00    +0.000 OA
ATOM     18  H   UNL     1       8.390  17.906   5.299  0.00  0.00    +0.000 HD
ENDBRANCH  15  17
ENDBRANCH  14  15
ENDBRANCH   1  14
TORSDOF 7
ENDMDL
MODEL 5
REMARK VINA RESULT:    -4.740      1.863      5.541
REMARK INTER + INTRA:          -6.995
REMARK INTER:                  -6.705
REMARK INTRA:                  -0.290
REMARK UNBOUND:                -0.593
REMARK  Name = 
REMARK  10 active torsions:
REMARK  status: ('A' for Active; 'I' for Inactive)
REMARK    1  A    between atoms: C_1  and  C_2
REMARK    2  A    between atoms: C_5  and  N_8
REMARK    3  A    between atoms: N_8  and  C_9
REMARK    4  A    between atoms: N_8  and  C_13
REMARK    5  A    between atoms: C_9  and  C_10
REMARK    6  A    between atoms: C_10  and  C_11
REMARK    7  A    between atoms: C_10  and  O_12
REMARK    8  A    between atoms: C_13  and  C_14
REMARK    9  A    between atoms: C_14  and  C_15
REMARK   10  A    between atoms: C_14  and  O_16
REMARK                            x       y       z     vdW  Elec       q    Type
REMARK                         _______ _______ _______ _____ _____    ______ ____
ROOT
ATOM      1  N   UNL     1       6.946  14.153   5.244  0.00  0.00    +0.000 N 
ENDROOT
BRANCH   1   6
ATOM      2  C   UNL     1       1.957  13.573   8.091  0.00  0.00    +0.000 C 
ATOM      3  C   UNL     1       3.263  13.731   7.374  0.00  0.00    +0.000 A 
ATOM      4  C   UNL     1       3.590  14.925   6.740  0.00  0.00    +0.000 A 
ATOM      5  C   UNL     1       4.802  15.058   6.044  0.00  0.00    +0.000 A 
ATOM      6  C   UNL     1       5.730  14.007   5.924  0.00  0.00    +0.000 A 
ATOM      7  C   UNL     1       5.368  12.816   6.578  0.00  0.00    +0.000 A 
ATOM      8  C   UNL     1       4.160  12.670   7.280  0.00  0.00    +0.000 A 
ENDBRANCH   1   6
BRANCH   1   9
ATOM      9  C   UNL     1       8.192  14.427   6.000  0.00  0.00    +0.000 C 
BRANCH   9  10
ATOM     10  C   UNL     1       8.165  15.795   6.724  0.00  0.00    +0.000 C 
ATOM     11  C   UNL     1       9.215  15.848   7.828  0.00  0.00    +0.000 C 
BRANCH  10  12
ATOM     12  O   UNL     1       8.429  16.868   5.809  0.00  0.00    +0.000 OA
ATOM     13  H   UNL     1       9.326  16.749   5.456  0.00  0.00    +0.000 HD
ENDBRANCH  10  12
ENDBRANCH   9  10
ENDBRANCH   1   9
BRANCH   1  14
ATOM     14  C   UNL     1       6.984  14.547   3.813  0.00  0.00    +0.000 C 
BRANCH  14  15
ATOM     15  C   UNL     1       6.768  13.340   2.868  0.00  0.00    +0.000 C 
ATOM     16  C   UNL     1       5.330  12.836   2.859  0.00  0.00    +0.000 C 
BRANCH  15  17
ATOM     17  O   UNL     1       7.135  13.650   1.525  0.00  0.00    +0.000 OA
ATOM     18  H   UNL     1       7.561  14.529   1.575  0.00  0.00    +0.000 HD
ENDBRANCH  15  17
ENDBRANCH  14  15
ENDBRANCH   1  14
TORSDOF 7
ENDMDL
MODEL 6
REMARK VINA RESULT:    -4.731      1.807      3.402
REMARK INTER + INTRA:          -6.983
REMARK INTER:                  -6.522
REMARK INTRA:                  -0.461
REMARK UNBOUND:                -0.593
REMARK  Name = 
REMARK  10 active torsions:
REMARK  status: ('A' for Active; 'I' for Inactive)
REMARK    1  A    between atoms: C_1  and  C_2
REMARK    2  A    between atoms: C_5  and  N_8
REMARK    3  A    between atoms: N_8  and  C_9
REMARK    4  A    between atoms: N_8  and  C_13
REMARK    5  A    between atoms: C_9  and  C_10
REMARK    6  A    between atoms: C_10  and  C_11
REMARK    7  A    between atoms: C_10  and  O_12
REMARK    8  A    between atoms: C_13  and  C_14
REMARK    9  A    between atoms: C_14  and  C_15
REMARK   10  A    between atoms: C_14  and  O_16
REMARK                            x       y       z     vdW  Elec       q    Type
REMARK                         _______ _______ _______ _____ _____    ______ ____
ROOT
ATOM      1  N   UNL     1       6.031  13.716   5.971  0.00  0.00    +0.000 N 
ENDROOT
BRANCH   1   6
ATOM      2  C   UNL     1      10.722  16.930   6.966  0.00  0.00    +0.000 C 
ATOM      3  C   UNL     1       9.497  16.099   6.732  0.00  0.00    +0.000 A 
ATOM      4  C   UNL     1       9.531  14.717   6.887  0.00  0.00    +0.000 A 
ATOM      5  C   UNL     1       8.389  13.940   6.637  0.00  0.00    +0.000 A 
ATOM      6  C   UNL     1       7.172  14.495   6.200  0.00  0.00    +0.000 A 
ATOM      7  C   UNL     1       7.173  15.894   6.056  0.00  0.00    +0.000 A 
ATOM      8  C   UNL     1       8.309  16.683   6.305  0.00  0.00    +0.000 A 
ENDBRANCH   1   6
BRANCH   1   9
ATOM      9  C   UNL     1       5.020  13.546   7.042  0.00  0.00    +0.000 C 
BRANCH   9  10
ATOM     10  C   UNL     1       3.976  14.689   7.070  0.00  0.00    +0.000 C 
ATOM     11  C   UNL     1       2.581  14.147   7.355  0.00  0.00    +0.000 C 
BRANCH  10  12
ATOM     12  O   UNL     1       4.295  15.652   8.084  0.00  0.00    +0.000 OA
ATOM     13  H   UNL     1       4.897  15.232   8.720  0.00  0.00    +0.000 HD
ENDBRANCH  10  12
ENDBRANCH   9  10
ENDBRANCH   1   9
BRANCH   1  14
ATOM     14  C   UNL     1       6.018  12.659   4.927  0.00  0.00    +0.000 C 
BRANCH  14  15
ATOM     15  C   UNL     1       5.517  13.193   3.563  0.00  0.00    +0.000 C 
ATOM     16  C   UNL     1       6.641  13.699   2.667  0.00  0.00    +0.000 C 
BRANCH  15  17
ATOM     17  O   UNL     1       4.792  12.198   2.842  0.00  0.00    +0.000 OA
ATOM     18  H   UNL     1       4.613  12.599   1.968  0.00  0.00    +0.000 HD
ENDBRANCH  15  17
ENDBRANCH  14  15
ENDBRANCH   1  14
TORSDOF 7
ENDMDL
MODEL 7
REMARK VINA RESULT:    -4.617      1.960      5.686
REMARK INTER + INTRA:          -6.829
REMARK INTER:                  -6.431
REMARK INTRA:                  -0.398
REMARK UNBOUND:                -0.593
REMARK  Name = 
REMARK  10 active torsions:
REMARK  status: ('A' for Active; 'I' for Inactive)
REMARK    1  A    between atoms: C_1  and  C_2
REMARK    2  A    between atoms: C_5  and  N_8
REMARK    3  A    between atoms: N_8  and  C_9
REMARK    4  A    between atoms: N_8  and  C_13
REMARK    5  A    between atoms: C_9  and  C_10
REMARK    6  A    between atoms: C_10  and  C_11
REMARK    7  A    between atoms: C_10  and  O_12
REMARK    8  A    between atoms: C_13  and  C_14
REMARK    9  A    between atoms: C_14  and  C_15
REMARK   10  A    between atoms: C_14  and  O_16
REMARK                            x       y       z     vdW  Elec       q    Type
REMARK                         _______ _______ _______ _____ _____    ______ ____
ROOT
ATOM      1  N   UNL     1       6.752  14.252   6.399  0.00  0.00    +0.000 N 
ENDROOT
BRANCH   1   6
ATOM      2  C   UNL     1       1.282  13.512   8.091  0.00  0.00    +0.000 C 
ATOM      3  C   UNL     1       2.695  13.696   7.629  0.00  0.00    +0.000 A 
ATOM      4  C   UNL     1       3.638  12.688   7.799  0.00  0.00    +0.000 A 
ATOM      5  C   UNL     1       4.969  12.876   7.391  0.00  0.00    +0.000 A 
ATOM      6  C   UNL     1       5.427  14.078   6.821  0.00  0.00    +0.000 A 
ATOM      7  C   UNL     1       4.446  15.074   6.663  0.00  0.00    +0.000 A 
ATOM      8  C   UNL     1       3.112  14.897   7.064  0.00  0.00    +0.000 A 
ENDBRANCH   1   6
BRANCH   1   9
ATOM      9  C   UNL     1       7.843  14.351   7.397  0.00  0.00    +0.000 C 
BRANCH   9  10
ATOM     10  C   UNL     1       8.845  13.173   7.310  0.00  0.00    +0.000 C 
ATOM     11  C   UNL     1      10.181  13.546   7.942  0.00  0.00    +0.000 C 
BRANCH  10  12
ATOM     12  O   UNL     1       8.339  12.016   7.989  0.00  0.00    +0.000 OA
ATOM     13  H   UNL     1       9.081  11.590   8.451  0.00  0.00    +0.000 HD
ENDBRANCH  10  12
ENDBRANCH   9  10
ENDBRANCH   1   9
BRANCH   1  14
ATOM     14  C   UNL     1       7.064  14.841   5.072  0.00  0.00    +0.000 C 
BRANCH  14  15
ATOM     15  C   UNL     1       7.212  13.761   3.973  0.00  0.00    +0.000 C 
ATOM     16  C   UNL     1       5.932  12.969   3.734  0.00  0.00    +0.000 C 
BRANCH  15  17
ATOM     17  O   UNL     1       7.620  14.327   2.729  0.00  0.00    +0.000 OA
ATOM     18  H   UNL     1       7.525  15.294   2.847  0.00  0.00    +0.000 HD
ENDBRANCH  15  17
ENDBRANCH  14  15
ENDBRANCH   1  14
TORSDOF 7
ENDMDL
MODEL 8
REMARK VINA RESULT:    -4.455      1.990      5.485
REMARK INTER + INTRA:          -6.610
REMARK INTER:                  -6.437
REMARK INTRA:                  -0.173
REMARK UNBOUND:                -0.593
REMARK  Name = 
REMARK  10 active torsions:
REMARK  status: ('A' for Active; 'I' for Inactive)
REMARK    1  A    between atoms: C_1  and  C_2
REMARK    2  A    between atoms: C_5  and  N_8
REMARK    3  A    between atoms: N_8  and  C_9
REMARK    4  A    between atoms: N_8  and  C_13
REMARK    5  A    between atoms: C_9  and  C_10
REMARK    6  A    between atoms: C_10  and  C_11
REMARK    7  A    between atoms: C_10  and  O_12
REMARK    8  A    between atoms: C_13  and  C_14
REMARK    9  A    between atoms: C_14  and  C_15
REMARK   10  A    between atoms: C_14  and  O_16
REMARK                            x       y       z     vdW  Elec       q    Type
REMARK                         _______ _______ _______ _____ _____    ______ ____
ROOT
ATOM      1  N   UNL     1       7.891  14.946   7.226  0.00  0.00    +0.000 N 
ENDROOT
BRANCH   1   6
ATOM      2  C   UNL     1       4.810  12.456   3.026  0.00  0.00    +0.000 C 
ATOM      3  C   UNL     1       5.620  13.080   4.122  0.00  0.00    +0.000 A 
ATOM      4  C   UNL     1       5.097  13.223   5.403  0.00  0.00    +0.000 A 
ATOM      5  C   UNL     1       5.849  13.835   6.419  0.00  0.00    +0.000 A 
ATOM      6  C   UNL     1       7.139  14.354   6.204  0.00  0.00    +0.000 A 
ATOM      7  C   UNL     1       7.636  14.190   4.897  0.00  0.00    +0.000 A 
ATOM      8  C   UNL     1       6.895  13.578   3.873  0.00  0.00    +0.000 A 
ENDBRANCH   1   6
BRANCH   1   9
ATOM      9  C   UNL     1       8.758  14.110   8.091  0.00  0.00    +0.000 C 
BRANCH   9  10
ATOM     10  C   UNL     1      10.112  13.761   7.426  0.00  0.00    +0.000 C 
ATOM     11  C   UNL     1      11.203  14.728   7.870  0.00  0.00    +0.000 C 
BRANCH  10  12
ATOM     12  O   UNL     1      10.527  12.432   7.771  0.00  0.00    +0.000 OA
ATOM     13  H   UNL     1       9.891  11.808   7.384  0.00  0.00    +0.000 HD
ENDBRANCH  10  12
ENDBRANCH   9  10
ENDBRANCH   1   9
BRANCH   1  14
ATOM     14  C   UNL     1       7.495  16.252   7.814  0.00  0.00    +0.000 C 
BRANCH  14  15
ATOM     15  C   UNL     1       8.292  17.431   7.207  0.00  0.00    +0.000 C 
ATOM     16  C   UNL     1       9.626  17.674   7.902  0.00  0.00    +0.000 C 
BRANCH  15  17
ATOM     17  O   UNL     1       8.547  17.235   5.817  0.00  0.00    +0.000 OA
ATOM     18  H   UNL     1       9.285  17.843   5.607  0.00  0.00    +0.000 HD
ENDBRANCH  15  17
ENDBRANCH  14  15
ENDBRANCH   1  14
TORSDOF 7
ENDMDL
