MODEL 1
REMARK VINA RESULT:    -4.174      0.000      0.000
REMARK INTER + INTRA:          -4.579
REMARK INTER:                  -4.540
REMARK INTRA:                  -0.039
REMARK UNBOUND:                -0.039
REMARK  Name = 
REMARK  3 active torsions:
REMARK  status: ('A' for Active; 'I' for Inactive)
REMARK    1  A    between atoms: C_1  and  O_2
REMARK    2  A    between atoms: O_2  and  C_3
REMARK    3  A    between atoms: C_8  and  O_9
REMARK                            x       y       z     vdW  Elec       q    Type
REMARK                         _______ _______ _______ _____ _____    ______ ____
ROOT
ATOM      1  C   UNL     1       6.400  14.140   4.318  0.00  0.00    +0.000 A 
ATOM      2  C   UNL     1       5.598  13.114   4.815  0.00  0.00    +0.000 A 
ATOM      3  C   UNL     1       4.692  13.373   5.852  0.00  0.00    +0.000 A 
ATOM      4  C   UNL     1       4.586  14.655   6.395  0.00  0.00    +0.000 A 
ATOM      5  C   UNL     1       5.384  15.686   5.904  0.00  0.00    +0.000 A 
ATOM      6  C   UNL     1       6.279  15.419   4.876  0.00  0.00    +0.000 A 
ENDROOT
BRANCH   1   8
ATOM      7  C   UNL     1       6.816  13.957   1.986  0.00  0.00    +0.000 C 
ATOM      8  O   UNL     1       7.326  14.031   3.312  0.00  0.00    +0.000 OA
ENDBRANCH   1   8
BRANCH   6   9
ATOM      9  O   UNL     1       7.053  16.449   4.409  0.00  0.00    +0.000 OA
ATOM     10  H   UNL     1       6.514  17.250   4.554  0.00  0.00    +0.000 HD
ENDBRANCH   6   9
TORSDOF 2
ENDMDL
MODEL 2
REMARK VINA RESULT:    -4.095      1.607      1.750
REMARK INTER + INTRA:          -4.493
REMARK INTER:                  -4.455
REMARK INTRA:                  -0.038
REMARK UNBOUND:                -0.039
REMARK  Name = 
REMARK  3 active torsions:
REMARK  status: ('A' for Active; 'I' for Inactive)
REMARK    1  A    between atoms: C_1  and  O_2
REMARK    2  A    between atoms: O_2  and  C_3
REMARK    3  A    between atoms: C_8  and  O_9
REMARK                            x       y       z     vdW  Elec       q    Type
REMARK                         _______ _______ _______ _____ _____    ______ ____
ROOT
ATOM      1  C   UNL     1       6.848  13.632   4.396  0.00  0.00    +0.000 A 
ATOM      2  C   UNL     1       5.531  13.226   4.608  0.00  0.00    +0.000 A 
ATOM      3  C   UNL     1       5.059  13.034   5.913  0.00  0.00    +0.000 A 
ATOM      4  C   UNL     1       5.900  13.246   7.008  0.00  0.00    +0.000 A 
ATOM      5  C   UNL     1       7.217  13.653   6.804  0.00  0.00    +0.000 A 
ATOM      6  C   UNL     1       7.676  13.840   5.506  0.00  0.00    +0.000 A 
ENDROOT
BRANCH   1   8
ATOM      7  C   UNL     1       6.574  13.931   2.054  0.00  0.00    +0.000 C 
ATOM      8  O   UNL     1       7.441  13.857   3.180  0.00  0.00    +0.000 OA
ENDBRANCH   1   8
BRANCH   6   9
ATOM      9  O   UNL     1       8.974  14.240   5.331  0.00  0.00    +0.000 OA
ATOM     10  H   UNL     1       9.120  14.916   6.019  0.00  0.00    +0.000 HD
ENDBRANCH   6   9
TORSDOF 2
ENDMDL
MODEL 3
REMARK VINA RESULT:    -4.093      1.816      2.821
REMARK INTER + INTRA:          -4.492
REMARK INTER:                  -4.440
REMARK INTRA:                  -0.051
REMARK UNBOUND:                -0.039
REMARK  Name = 
REMARK  3 active torsions:
REMARK  status: ('A' for Active; 'I' for Inactive)
REMARK    1  A    between atoms: C_1  and  O_2
REMARK    2  A    between atoms: O_2  and  C_3
REMARK    3  A    between atoms: C_8  and  O_9
REMARK                            x       y       z     vdW  Elec       q    Type
REMARK                         _______ _______ _______ _____ _____    ______ ____
ROOT
ATOM      1  C   UNL     1       7.451  13.843   5.696  0.00  0.00    +0.000 A 
ATOM      2  C   UNL     1       6.578  13.427   6.700  0.00  0.00    +0.000 A 
ATOM      3  C   UNL     1       5.320  12.911   6.365  0.00  0.00    +0.000 A 
ATOM      4  C   UNL     1       4.931  12.809   5.028  0.00  0.00    +0.000 A 
ATOM      5  C   UNL     1       5.798  13.221   4.019  0.00  0.00    +0.000 A 
ATOM      6  C   UNL     1       7.043  13.732   4.361  0.00  0.00    +0.000 A 
ENDROOT
BRANCH   1   8
ATOM      7  C   UNL     1       8.795  15.542   6.673  0.00  0.00    +0.000 C 
ATOM      8  O   UNL     1       8.707  14.366   5.877  0.00  0.00    +0.000 OA
ENDBRANCH   1   8
BRANCH   6   9
ATOM      9  O   UNL     1       7.878  14.131   3.351  0.00  0.00    +0.000 OA
ATOM     10  H   UNL     1       7.693  13.514   2.618  0.00  0.00    +0.000 HD
ENDBRANCH   6   9
TORSDOF 2
ENDMDL
MODEL 4
REMARK VINA RESULT:    -3.974      2.762      3.940
REMARK INTER + INTRA:          -4.362
REMARK INTER:                  -4.311
REMARK INTRA:                  -0.051
REMARK UNBOUND:                -0.039
REMARK  Name = 
REMARK  3 active torsions:
REMARK  status: ('A' for Active; 'I' for Inactive)
REMARK    1  A    between atoms: C_1  and  O_2
REMARK    2  A    between atoms: O_2  and  C_3
REMARK    3  A    between atoms: C_8  and  O_9
REMARK                            x       y       z     vdW  Elec       q    Type
REMARK                         _______ _______ _______ _____ _____    ______ ____
ROOT
ATOM      1  C   UNL     1       6.949  13.501   6.249  0.00  0.00    +0.000 A 
ATOM      2  C   UNL     1       7.708  14.076   5.230  0.00  0.00    +0.000 A 
ATOM      3  C   UNL     1       7.307  13.936   3.895  0.00  0.00    +0.000 A 
ATOM      4  C   UNL     1       6.150  13.222   3.574  0.00  0.00    +0.000 A 
ATOM      5  C   UNL     1       5.387  12.646   4.587  0.00  0.00    +0.000 A 
ATOM      6  C   UNL     1       5.792  12.789   5.907  0.00  0.00    +0.000 A 
ENDROOT
BRANCH   1   8
ATOM      7  C   UNL     1       8.339  12.803   8.045  0.00  0.00    +0.000 C 
ATOM      8  O   UNL     1       7.221  13.556   7.592  0.00  0.00    +0.000 OA
ENDBRANCH   1   8
BRANCH   6   9
ATOM      9  O   UNL     1       5.025  12.213   6.885  0.00  0.00    +0.000 OA
ATOM     10  H   UNL     1       4.476  12.942   7.231  0.00  0.00    +0.000 HD
ENDBRANCH   6   9
TORSDOF 2
ENDMDL
MODEL 5
REMARK VINA RESULT:    -3.910      3.770      4.512
REMARK INTER + INTRA:          -4.292
REMARK INTER:                  -4.247
REMARK INTRA:                  -0.046
REMARK UNBOUND:                -0.039
REMARK  Name = 
REMARK  3 active torsions:
REMARK  status: ('A' for Active; 'I' for Inactive)
REMARK    1  A    between atoms: C_1  and  O_2
REMARK    2  A    between atoms: O_2  and  C_3
REMARK    3  A    between atoms: C_8  and  O_9
REMARK                            x       y       z     vdW  Elec       q    Type
REMARK                         _______ _______ _______ _____ _____    ______ ____
ROOT
ATOM      1  C   UNL     1       7.538  13.510   6.830  0.00  0.00    +0.000 A 
ATOM      2  C   UNL     1       7.791  14.799   6.362  0.00  0.00    +0.000 A 
ATOM      3  C   UNL     1       9.008  15.425   6.661  0.00  0.00    +0.000 A 
ATOM      4  C   UNL     1       9.973  14.768   7.426  0.00  0.00    +0.000 A 
ATOM      5  C   UNL     1       9.727  13.480   7.897  0.00  0.00    +0.000 A 
ATOM      6  C   UNL     1       8.518  12.867   7.596  0.00  0.00    +0.000 A 
ENDROOT
BRANCH   1   8
ATOM      7  C   UNL     1       5.855  12.818   5.301  0.00  0.00    +0.000 C 
ATOM      8  O   UNL     1       6.396  12.780   6.616  0.00  0.00    +0.000 OA
ENDBRANCH   1   8
BRANCH   6   9
ATOM      9  O   UNL     1       8.300  11.601   8.069  0.00  0.00    +0.000 OA
ATOM     10  H   UNL     1       7.519  11.282   7.577  0.00  0.00    +0.000 HD
ENDBRANCH   6   9
TORSDOF 2
ENDMDL
MODEL 6
REMARK VINA RESULT:    -3.827      1.721      3.250
REMARK INTER + INTRA:          -4.202
REMARK INTER:                  -4.164
REMARK INTRA:                  -0.038
REMARK UNBOUND:                -0.039
REMARK  Name = 
REMARK  3 active torsions:
REMARK  status: ('A' for Active; 'I' for Inactive)
REMARK    1  A    between atoms: C_1  and  O_2
REMARK    2  A    between atoms: O_2  and  C_3
REMARK    3  A    between atoms: C_8  and  O_9
REMARK                            x       y       z     vdW  Elec       q    Type
REMARK                         _______ _______ _______ _____ _____    ______ ____
ROOT
ATOM      1  C   UNL     1       4.921  14.417   5.847  0.00  0.00    +0.000 A 
ATOM      2  C   UNL     1       4.848  13.136   5.302  0.00  0.00    +0.000 A 
ATOM      3  C   UNL     1       5.755  12.745   4.308  0.00  0.00    +0.000 A 
ATOM      4  C   UNL     1       6.735  13.631   3.857  0.00  0.00    +0.000 A 
ATOM      5  C   UNL     1       6.815  14.913   4.397  0.00  0.00    +0.000 A 
ATOM      6  C   UNL     1       5.911  15.291   5.382  0.00  0.00    +0.000 A 
ENDROOT
BRANCH   1   8
ATOM      7  C   UNL     1       2.924  14.193   7.114  0.00  0.00    +0.000 C 
ATOM      8  O   UNL     1       4.103  14.932   6.820  0.00  0.00    +0.000 OA
ENDBRANCH   1   8
BRANCH   6   9
ATOM      9  O   UNL     1       6.009  16.556   5.898  0.00  0.00    +0.000 OA
ATOM     10  H   UNL     1       6.247  16.424   6.835  0.00  0.00    +0.000 HD
ENDBRANCH   6   9
TORSDOF 2
ENDMDL
MODEL 7
REMARK VINA RESULT:    -3.780      2.190      2.768
REMARK INTER + INTRA:          -4.151
REMARK INTER:                  -4.098
REMARK INTRA:                  -0.053
REMARK UNBOUND:                -0.039
REMARK  Name = 
REMARK  3 active torsions:
REMARK  status: ('A' for Active; 'I' for Inactive)
REMARK    1  A    between atoms: C_1  and  O_2
REMARK    2  A    between atoms: O_2  and  C_3
REMARK    3  A    between atoms: C_8  and  O_9
REMARK                            x       y       z     vdW  Elec       q    Type
REMARK                         _______ _______ _______ _____ _____    ______ ____
ROOT
ATOM      1  C   UNL     1       7.186  14.922   5.126  0.00  0.00    +0.000 A 
ATOM      2  C   UNL     1       8.166  14.152   5.751  0.00  0.00    +0.000 A 
ATOM      3  C   UNL     1       9.071  14.753   6.635  0.00  0.00    +0.000 A 
ATOM      4  C   UNL     1       9.002  16.123   6.895  0.00  0.00    +0.000 A 
ATOM      5  C   UNL     1       8.026  16.899   6.275  0.00  0.00    +0.000 A 
ATOM      6  C   UNL     1       7.132  16.294   5.400  0.00  0.00    +0.000 A 
ENDROOT
BRANCH   1   8
ATOM      7  C   UNL     1       6.719  13.969   3.000  0.00  0.00    +0.000 C 
ATOM      8  O   UNL     1       6.240  14.469   4.242  0.00  0.00    +0.000 OA
ENDBRANCH   1   8
BRANCH   6   9
ATOM      9  O   UNL     1       6.182  17.078   4.802  0.00  0.00    +0.000 OA
ATOM     10  H   UNL     1       6.524  17.989   4.884  0.00  0.00    +0.000 HD
ENDBRANCH   6   9
TORSDOF 2
ENDMDL
MODEL 8
REMARK VINA RESULT:    -3.694      2.524      3.364
REMARK INTER + INTRA:          -4.057
REMARK INTER:                  -4.010
REMARK INTRA:                  -0.047
REMARK UNBOUND:                -0.039
REMARK  Name = 
REMARK  3 active torsions:
REMARK  status: ('A' for Active; 'I' for Inactive)
REMARK    1  A    between atoms: C_1  and  O_2
REMARK    2  A    between atoms: O_2  and  C_3
REMARK    3  A    between atoms: C_8  and  O_9
REMARK                            x       y       z     vdW  Elec       q    Type
REMARK                         _______ _______ _______ _____ _____    ______ ____
ROOT
ATOM      1  C   UNL     1       8.003  14.521   6.602  0.00  0.00    +0.000 A 
ATOM      2  C   UNL     1       7.138  15.117   7.519  0.00  0.00    +0.000 A 
ATOM      3  C   UNL     1       5.901  15.616   7.090  0.00  0.00    +0.000 A 
ATOM      4  C   UNL     1       5.526  15.523   5.749  0.00  0.00    +0.000 A 
ATOM      5  C   UNL     1       6.385  14.928   4.828  0.00  0.00    +0.000 A 
ATOM      6  C   UNL     1       7.610  14.436   5.261  0.00  0.00    +0.000 A 
ENDROOT
BRANCH   1   8
ATOM      7  C   UNL     1      10.282  14.922   7.141  0.00  0.00    +0.000 C 
ATOM      8  O   UNL     1       9.238  13.992   6.879  0.00  0.00    +0.000 OA
ENDBRANCH   1   8
BRANCH   6   9
ATOM      9  O   UNL     1       8.437  13.856   4.337  0.00  0.00    +0.000 OA
ATOM     10  H   UNL     1       8.467  12.913   4.588  0.00  0.00    +0.000 HD
ENDBRANCH   6   9
TORSDOF 2
ENDMDL
MODEL 9
REMARK VINA RESULT:    -3.658      2.001      2.632
REMARK INTER + INTRA:          -4.018
REMARK INTER:                  -3.980
REMARK INTRA:                  -0.038
REMARK UNBOUND:                -0.039
REMARK  Name = 
REMARK  3 active torsions:
REMARK  status: ('A' for Active; 'I' for Inactive)
REMARK    1  A    between atoms: C_1  and  O_2
REMARK    2  A    between atoms: O_2  and  C_3
REMARK    3  A    between atoms: C_8  and  O_9
REMARK                            x       y       z     vdW  Elec       q    Type
REMARK                         _______ _______ _______ _____ _____    ______ ____
ROOT
ATOM      1  C   UNL     1       6.383  13.515   4.521  0.00  0.00    +0.000 A 
ATOM      2  C   UNL     1       7.642  13.968   4.913  0.00  0.00    +0.000 A 
ATOM      3  C   UNL     1       7.959  14.064   6.274  0.00  0.00    +0.000 A 
ATOM      4  C   UNL     1       7.021  13.711   7.246  0.00  0.00    +0.000 A 
ATOM      5  C   UNL     1       5.761  13.258   6.862  0.00  0.00    +0.000 A 
ATOM      6  C   UNL     1       5.455  13.165   5.510  0.00  0.00    +0.000 A 
ENDROOT
BRANCH   1   8
ATOM      7  C   UNL     1       6.726  13.983   2.217  0.00  0.00    +0.000 C 
ATOM      8  O   UNL     1       5.938  13.372   3.232  0.00  0.00    +0.000 OA
ENDBRANCH   1   8
BRANCH   6   9
ATOM      9  O   UNL     1       4.210  12.717   5.157  0.00  0.00    +0.000 OA
ATOM     10  H   UNL     1       3.780  12.489   6.003  0.00  0.00    +0.000 HD
ENDBRANCH   6   9
TORSDOF 2
ENDMDL
