MODEL 1
REMARK VINA RESULT:    -3.918      0.000      0.000
REMARK INTER + INTRA:          -4.299
REMARK INTER:                  -4.262
REMARK INTRA:                  -0.037
REMARK UNBOUND:                -0.037
REMARK  Name = 
REMARK  3 active torsions:
REMARK  status: ('A' for Active; 'I' for Inactive)
REMARK    1  A    between atoms: C_1  and  O_2
REMARK    2  A    between atoms: O_2  and  C_3
REMARK    3  A    between atoms: C_8  and  O_9
REMARK                            x       y       z     vdW  Elec       q    Type
REMARK                         _______ _______ _______ _____ _____    ______ ____
ROOT
ATOM      1  C   UNL     1       7.796  13.324   3.158  0.00  0.00    +0.000 A 
ATOM      2  C   UNL     1       6.410  13.312   3.010  0.00  0.00    +0.000 A 
ATOM      3  C   UNL     1       5.832  13.722   1.802  0.00  0.00    +0.000 A 
ATOM      4  C   UNL     1       6.634  14.144   0.741  0.00  0.00    +0.000 A 
ATOM      5  C   UNL     1       8.020  14.158   0.881  0.00  0.00    +0.000 A 
ATOM      6  C   UNL     1       8.585  13.750   2.082  0.00  0.00    +0.000 A 
ENDROOT
BRANCH   1   8
ATOM      7  C   UNL     1       7.724  12.539   5.400  0.00  0.00    +0.000 C 
ATOM      8  O   UNL     1       8.496  12.953   4.279  0.00  0.00    +0.000 OA
ENDBRANCH   1   8
BRANCH   6   9
ATOM      9  O   UNL     1       9.949  13.773   2.196  0.00  0.00    +0.000 OA
ATOM     10  H   UNL     1      10.146  13.175   2.942  0.00  0.00    +0.000 HD
ENDBRANCH   6   9
TORSDOF 2
ENDMDL
MODEL 2
REMARK VINA RESULT:    -3.894      2.253      3.837
REMARK INTER + INTRA:          -4.273
REMARK INTER:                  -4.229
REMARK INTRA:                  -0.044
REMARK UNBOUND:                -0.037
REMARK  Name = 
REMARK  3 active torsions:
REMARK  status: ('A' for Active; 'I' for Inactive)
REMARK    1  A    between atoms: C_1  and  O_2
REMARK    2  A    between atoms: O_2  and  C_3
REMARK    3  A    between atoms: C_8  and  O_9
REMARK                            x       y       z     vdW  Elec       q    Type
REMARK                         _______ _______ _______ _____ _____    ______ ____
ROOT
ATOM      1  C   UNL     1       6.239  14.709   0.718  0.00  0.00    +0.000 A 
ATOM      2  C   UNL     1       5.323  15.037   1.716  0.00  0.00    +0.000 A 
ATOM      3  C   UNL     1       5.358  14.367   2.945  0.00  0.00    +0.000 A 
ATOM      4  C   UNL     1       6.305  13.369   3.181  0.00  0.00    +0.000 A 
ATOM      5  C   UNL     1       7.225  13.036   2.188  0.00  0.00    +0.000 A 
ATOM      6  C   UNL     1       7.182  13.706   0.972  0.00  0.00    +0.000 A 
ENDROOT
BRANCH   1   8
ATOM      7  C   UNL     1       5.088  15.589  -1.165  0.00  0.00    +0.000 C 
ATOM      8  O   UNL     1       6.321  15.279  -0.527  0.00  0.00    +0.000 OA
ENDBRANCH   1   8
BRANCH   6   9
ATOM      9  O   UNL     1       8.096  13.361   0.012  0.00  0.00    +0.000 OA
ATOM     10  H   UNL     1       8.483  12.522   0.328  0.00  0.00    +0.000 HD
ENDBRANCH   6   9
TORSDOF 2
ENDMDL
MODEL 3
REMARK VINA RESULT:    -3.754      1.397      2.429
REMARK INTER + INTRA:          -4.121
REMARK INTER:                  -4.069
REMARK INTRA:                  -0.052
REMARK UNBOUND:                -0.037
REMARK  Name = 
REMARK  3 active torsions:
REMARK  status: ('A' for Active; 'I' for Inactive)
REMARK    1  A    between atoms: C_1  and  O_2
REMARK    2  A    between atoms: O_2  and  C_3
REMARK    3  A    between atoms: C_8  and  O_9
REMARK                            x       y       z     vdW  Elec       q    Type
REMARK                         _______ _______ _______ _____ _____    ______ ____
ROOT
ATOM      1  C   UNL     1       7.508  13.360   2.502  0.00  0.00    +0.000 A 
ATOM      2  C   UNL     1       8.359  13.795   1.487  0.00  0.00    +0.000 A 
ATOM      3  C   UNL     1       7.833  14.446   0.364  0.00  0.00    +0.000 A 
ATOM      4  C   UNL     1       6.459  14.663   0.251  0.00  0.00    +0.000 A 
ATOM      5  C   UNL     1       5.602  14.232   1.262  0.00  0.00    +0.000 A 
ATOM      6  C   UNL     1       6.133  13.587   2.372  0.00  0.00    +0.000 A 
ENDROOT
BRANCH   1   8
ATOM      7  C   UNL     1       8.733  13.430   4.537  0.00  0.00    +0.000 C 
ATOM      8  O   UNL     1       7.883  12.711   3.652  0.00  0.00    +0.000 OA
ENDBRANCH   1   8
BRANCH   6   9
ATOM      9  O   UNL     1       5.271  13.172   3.352  0.00  0.00    +0.000 OA
ATOM     10  H   UNL     1       5.232  12.201   3.253  0.00  0.00    +0.000 HD
ENDBRANCH   6   9
TORSDOF 2
ENDMDL
MODEL 4
REMARK VINA RESULT:    -3.613      2.139      3.915
REMARK INTER + INTRA:          -3.967
REMARK INTER:                  -3.928
REMARK INTRA:                  -0.039
REMARK UNBOUND:                -0.037
REMARK  Name = 
REMARK  3 active torsions:
REMARK  status: ('A' for Active; 'I' for Inactive)
REMARK    1  A    between atoms: C_1  and  O_2
REMARK    2  A    between atoms: O_2  and  C_3
REMARK    3  A    between atoms: C_8  and  O_9
REMARK                            x       y       z     vdW  Elec       q    Type
REMARK                         _______ _______ _______ _____ _____    ______ ____
ROOT
ATOM      1  C   UNL     1       6.483  13.872   1.818  0.00  0.00    +0.000 A 
ATOM      2  C   UNL     1       7.799  14.069   1.403  0.00  0.00    +0.000 A 
ATOM      3  C   UNL     1       8.855  13.851   2.297  0.00  0.00    +0.000 A 
ATOM      4  C   UNL     1       8.600  13.438   3.606  0.00  0.00    +0.000 A 
ATOM      5  C   UNL     1       7.287  13.239   4.028  0.00  0.00    +0.000 A 
ATOM      6  C   UNL     1       6.247  13.458   3.135  0.00  0.00    +0.000 A 
ENDROOT
BRANCH   1   8
ATOM      7  C   UNL     1       5.491  14.877  -0.093  0.00  0.00    +0.000 C 
ATOM      8  O   UNL     1       5.357  14.048   1.054  0.00  0.00    +0.000 OA
ENDBRANCH   1   8
BRANCH   6   9
ATOM      9  O   UNL     1       4.965  13.256   3.573  0.00  0.00    +0.000 OA
ATOM     10  H   UNL     1       4.431  13.914   3.090  0.00  0.00    +0.000 HD
ENDBRANCH   6   9
TORSDOF 2
ENDMDL
MODEL 5
REMARK VINA RESULT:    -3.551      1.746      2.139
REMARK INTER + INTRA:          -3.900
REMARK INTER:                  -3.848
REMARK INTRA:                  -0.053
REMARK UNBOUND:                -0.037
REMARK  Name = 
REMARK  3 active torsions:
REMARK  status: ('A' for Active; 'I' for Inactive)
REMARK    1  A    between atoms: C_1  and  O_2
REMARK    2  A    between atoms: O_2  and  C_3
REMARK    3  A    between atoms: C_8  and  O_9
REMARK                            x       y       z     vdW  Elec       q    Type
REMARK                         _______ _______ _______ _____ _____    ______ ____
ROOT
ATOM      1  C   UNL     1       7.181  14.060   2.063  0.00  0.00    +0.000 A 
ATOM      2  C   UNL     1       6.239  14.795   2.781  0.00  0.00    +0.000 A 
ATOM      3  C   UNL     1       5.292  15.571   2.101  0.00  0.00    +0.000 A 
ATOM      4  C   UNL     1       5.283  15.616   0.706  0.00  0.00    +0.000 A 
ATOM      5  C   UNL     1       6.221  14.883  -0.018  0.00  0.00    +0.000 A 
ATOM      6  C   UNL     1       7.157  14.117   0.664  0.00  0.00    +0.000 A 
ENDROOT
BRANCH   1   8
ATOM      7  C   UNL     1       9.192  13.920   3.322  0.00  0.00    +0.000 C 
ATOM      8  O   UNL     1       8.162  13.261   2.594  0.00  0.00    +0.000 OA
ENDBRANCH   1   8
BRANCH   6   9
ATOM      9  O   UNL     1       8.069  13.405  -0.069  0.00  0.00    +0.000 OA
ATOM     10  H   UNL     1       7.870  13.630  -0.998  0.00  0.00    +0.000 HD
ENDBRANCH   6   9
TORSDOF 2
ENDMDL
MODEL 6
REMARK VINA RESULT:    -3.491      5.767      6.888
REMARK INTER + INTRA:          -3.834
REMARK INTER:                  -3.786
REMARK INTRA:                  -0.048
REMARK UNBOUND:                -0.037
REMARK  Name = 
REMARK  3 active torsions:
REMARK  status: ('A' for Active; 'I' for Inactive)
REMARK    1  A    between atoms: C_1  and  O_2
REMARK    2  A    between atoms: O_2  and  C_3
REMARK    3  A    between atoms: C_8  and  O_9
REMARK                            x       y       z     vdW  Elec       q    Type
REMARK                         _______ _______ _______ _____ _____    ______ ____
ROOT
ATOM      1  C   UNL     1       6.381  17.454  -1.683  0.00  0.00    +0.000 A 
ATOM      2  C   UNL     1       6.346  18.150  -0.475  0.00  0.00    +0.000 A 
ATOM      3  C   UNL     1       6.805  19.471  -0.416  0.00  0.00    +0.000 A 
ATOM      4  C   UNL     1       7.301  20.100  -1.560  0.00  0.00    +0.000 A 
ATOM      5  C   UNL     1       7.339  19.411  -2.770  0.00  0.00    +0.000 A 
ATOM      6  C   UNL     1       6.882  18.101  -2.819  0.00  0.00    +0.000 A 
ENDROOT
BRANCH   1   8
ATOM      7  C   UNL     1       4.693  15.813  -1.358  0.00  0.00    +0.000 C 
ATOM      8  O   UNL     1       5.967  16.162  -1.886  0.00  0.00    +0.000 OA
ENDBRANCH   1   8
BRANCH   6   9
ATOM      9  O   UNL     1       6.929  17.444  -4.020  0.00  0.00    +0.000 OA
ATOM     10  H   UNL     1       6.578  18.085  -4.668  0.00  0.00    +0.000 HD
ENDBRANCH   6   9
TORSDOF 2
ENDMDL
MODEL 7
REMARK VINA RESULT:    -3.454      2.841      4.417
REMARK INTER + INTRA:          -3.794
REMARK INTER:                  -3.748
REMARK INTRA:                  -0.046
REMARK UNBOUND:                -0.037
REMARK  Name = 
REMARK  3 active torsions:
REMARK  status: ('A' for Active; 'I' for Inactive)
REMARK    1  A    between atoms: C_1  and  O_2
REMARK    2  A    between atoms: O_2  and  C_3
REMARK    3  A    between atoms: C_8  and  O_9
REMARK                            x       y       z     vdW  Elec       q    Type
REMARK                         _______ _______ _______ _____ _____    ______ ____
ROOT
ATOM      1  C   UNL     1       5.479  14.999   1.219  0.00  0.00    +0.000 A 
ATOM      2  C   UNL     1       5.109  16.242   1.730  0.00  0.00    +0.000 A 
ATOM      3  C   UNL     1       4.846  16.386   3.099  0.00  0.00    +0.000 A 
ATOM      4  C   UNL     1       4.951  15.291   3.958  0.00  0.00    +0.000 A 
ATOM      5  C   UNL     1       5.321  14.046   3.455  0.00  0.00    +0.000 A 
ATOM      6  C   UNL     1       5.580  13.913   2.096  0.00  0.00    +0.000 A 
ENDROOT
BRANCH   1   8
ATOM      7  C   UNL     1       4.880  15.256  -1.066  0.00  0.00    +0.000 C 
ATOM      8  O   UNL     1       5.764  14.714  -0.092  0.00  0.00    +0.000 OA
ENDBRANCH   1   8
BRANCH   6   9
ATOM      9  O   UNL     1       5.941  12.679   1.625  0.00  0.00    +0.000 OA
ATOM     10  H   UNL     1       5.872  12.087   2.398  0.00  0.00    +0.000 HD
ENDBRANCH   6   9
TORSDOF 2
ENDMDL
MODEL 8
REMARK VINA RESULT:    -3.443      7.669      9.388
REMARK INTER + INTRA:          -3.783
REMARK INTER:                  -3.738
REMARK INTRA:                  -0.045
REMARK UNBOUND:                -0.037
REMARK  Name = 
REMARK  3 active torsions:
REMARK  status: ('A' for Active; 'I' for Inactive)
REMARK    1  A    between atoms: C_1  and  O_2
REMARK    2  A    between atoms: O_2  and  C_3
REMARK    3  A    between atoms: C_8  and  O_9
REMARK                            x       y       z     vdW  Elec       q    Type
REMARK                         _______ _______ _______ _____ _____    ______ ____
ROOT
ATOM      1  C   UNL     1       7.899  19.836  -4.063  0.00  0.00    +0.000 A 
ATOM      2  C   UNL     1       8.117  21.006  -3.336  0.00  0.00    +0.000 A 
ATOM      3  C   UNL     1       7.765  21.063  -1.981  0.00  0.00    +0.000 A 
ATOM      4  C   UNL     1       7.194  19.956  -1.350  0.00  0.00    +0.000 A 
ATOM      5  C   UNL     1       6.974  18.784  -2.070  0.00  0.00    +0.000 A 
ATOM      6  C   UNL     1       7.327  18.736  -3.413  0.00  0.00    +0.000 A 
ENDROOT
BRANCH   1   8
ATOM      7  C   UNL     1       7.336  20.273  -6.329  0.00  0.00    +0.000 C 
ATOM      8  O   UNL     1       8.193  19.638  -5.388  0.00  0.00    +0.000 OA
ENDBRANCH   1   8
BRANCH   6   9
ATOM      9  O   UNL     1       7.101  17.572  -4.099  0.00  0.00    +0.000 OA
ATOM     10  H   UNL     1       6.924  17.856  -5.016  0.00  0.00    +0.000 HD
ENDBRANCH   6   9
TORSDOF 2
ENDMDL
MODEL 9
REMARK VINA RESULT:    -3.442      3.463      4.345
REMARK INTER + INTRA:          -3.781
REMARK INTER:                  -3.743
REMARK INTRA:                  -0.038
REMARK UNBOUND:                -0.037
REMARK  Name = 
REMARK  3 active torsions:
REMARK  status: ('A' for Active; 'I' for Inactive)
REMARK    1  A    between atoms: C_1  and  O_2
REMARK    2  A    between atoms: O_2  and  C_3
REMARK    3  A    between atoms: C_8  and  O_9
REMARK                            x       y       z     vdW  Elec       q    Type
REMARK                         _______ _______ _______ _____ _____    ______ ____
ROOT
ATOM      1  C   UNL     1       5.783  14.928   0.415  0.00  0.00    +0.000 A 
ATOM      2  C   UNL     1       6.632  15.926   0.890  0.00  0.00    +0.000 A 
ATOM      3  C   UNL     1       6.888  17.059   0.107  0.00  0.00    +0.000 A 
ATOM      4  C   UNL     1       6.298  17.197  -1.151  0.00  0.00    +0.000 A 
ATOM      5  C   UNL     1       5.448  16.204  -1.633  0.00  0.00    +0.000 A 
ATOM      6  C   UNL     1       5.201  15.084  -0.849  0.00  0.00    +0.000 A 
ENDROOT
BRANCH   1   8
ATOM      7  C   UNL     1       6.183  13.470   2.248  0.00  0.00    +0.000 C 
ATOM      8  O   UNL     1       5.445  13.771   1.070  0.00  0.00    +0.000 OA
ENDBRANCH   1   8
BRANCH   6   9
ATOM      9  O   UNL     1       4.362  14.121  -1.344  0.00  0.00    +0.000 OA
ATOM     10  H   UNL     1       3.482  14.543  -1.359  0.00  0.00    +0.000 HD
ENDBRANCH   6   9
TORSDOF 2
ENDMDL
