MODEL 1
REMARK VINA RESULT:    -3.980      0.000      0.000
REMARK INTER + INTRA:          -4.377
REMARK INTER:                  -4.329
REMARK INTRA:                  -0.049
REMARK UNBOUND:                -0.049
REMARK  Name = 
REMARK  3 active torsions:
REMARK  status: ('A' for Active; 'I' for Inactive)
REMARK    1  A    between atoms: C_1  and  O_2
REMARK    2  A    between atoms: O_2  and  C_3
REMARK    3  A    between atoms: C_8  and  O_9
REMARK                            x       y       z     vdW  Elec       q    Type
REMARK                         _______ _______ _______ _____ _____    ______ ____
ROOT
ATOM      1  C   UNL     1      -6.338   0.108 -19.480  0.00  0.00    +0.000 A 
ATOM      2  C   UNL     1      -6.020   1.115 -20.389  0.00  0.00    +0.000 A 
ATOM      3  C   UNL     1      -5.314   2.247 -19.962  0.00  0.00    +0.000 A 
ATOM      4  C   UNL     1      -4.926   2.376 -18.627  0.00  0.00    +0.000 A 
ATOM      5  C   UNL     1      -5.239   1.373 -17.712  0.00  0.00    +0.000 A 
ATOM      6  C   UNL     1      -5.940   0.255 -18.145  0.00  0.00    +0.000 A 
ENDROOT
BRANCH   1   8
ATOM      7  C   UNL     1      -8.257  -0.906 -20.447  0.00  0.00    +0.000 C 
ATOM      8  O   UNL     1      -7.022  -1.049 -19.756  0.00  0.00    +0.000 OA
ENDBRANCH   1   8
BRANCH   6   9
ATOM      9  O   UNL     1      -6.237  -0.717 -17.227  0.00  0.00    +0.000 OA
ATOM     10  H   UNL     1      -5.569  -1.413 -17.377  0.00  0.00    +0.000 HD
ENDBRANCH   6   9
TORSDOF 2
ENDMDL
MODEL 2
REMARK VINA RESULT:    -3.979      2.311      3.137
REMARK INTER + INTRA:          -4.377
REMARK INTER:                  -4.340
REMARK INTRA:                  -0.037
REMARK UNBOUND:                -0.049
REMARK  Name = 
REMARK  3 active torsions:
REMARK  status: ('A' for Active; 'I' for Inactive)
REMARK    1  A    between atoms: C_1  and  O_2
REMARK    2  A    between atoms: O_2  and  C_3
REMARK    3  A    between atoms: C_8  and  O_9
REMARK                            x       y       z     vdW  Elec       q    Type
REMARK                         _______ _______ _______ _____ _____    ______ ____
ROOT
ATOM      1  C   UNL     1      -5.412   1.779 -20.173  0.00  0.00    +0.000 A 
ATOM      2  C   UNL     1      -5.601   0.492 -20.674  0.00  0.00    +0.000 A 
ATOM      3  C   UNL     1      -5.703  -0.593 -19.793  0.00  0.00    +0.000 A 
ATOM      4  C   UNL     1      -5.615  -0.396 -18.414  0.00  0.00    +0.000 A 
ATOM      5  C   UNL     1      -5.426   0.888 -17.907  0.00  0.00    +0.000 A 
ATOM      6  C   UNL     1      -5.327   1.957 -18.787  0.00  0.00    +0.000 A 
ENDROOT
BRANCH   1   8
ATOM      7  C   UNL     1      -5.366   2.782 -22.327  0.00  0.00    +0.000 C 
ATOM      8  O   UNL     1      -5.296   2.928 -20.914  0.00  0.00    +0.000 OA
ENDBRANCH   1   8
BRANCH   6   9
ATOM      9  O   UNL     1      -5.141   3.210 -18.265  0.00  0.00    +0.000 OA
ATOM     10  H   UNL     1      -4.844   3.055 -17.348  0.00  0.00    +0.000 HD
ENDBRANCH   6   9
TORSDOF 2
ENDMDL
MODEL 3
REMARK VINA RESULT:    -3.672      1.749      2.809
REMARK INTER + INTRA:          -4.043
REMARK INTER:                  -4.005
REMARK INTRA:                  -0.037
REMARK UNBOUND:                -0.049
REMARK  Name = 
REMARK  3 active torsions:
REMARK  status: ('A' for Active; 'I' for Inactive)
REMARK    1  A    between atoms: C_1  and  O_2
REMARK    2  A    between atoms: O_2  and  C_3
REMARK    3  A    between atoms: C_8  and  O_9
REMARK                            x       y       z     vdW  Elec       q    Type
REMARK                         _______ _______ _______ _____ _____    ______ ____
ROOT
ATOM      1  C   UNL     1      -5.686   0.897 -19.160  0.00  0.00    +0.000 A 
ATOM      2  C   UNL     1      -6.040   0.141 -20.276  0.00  0.00    +0.000 A 
ATOM      3  C   UNL     1      -6.036   0.727 -21.548  0.00  0.00    +0.000 A 
ATOM      4  C   UNL     1      -5.679   2.067 -21.709  0.00  0.00    +0.000 A 
ATOM      5  C   UNL     1      -5.323   2.829 -20.598  0.00  0.00    +0.000 A 
ATOM      6  C   UNL     1      -5.331   2.240 -19.340  0.00  0.00    +0.000 A 
ENDROOT
BRANCH   1   8
ATOM      7  C   UNL     1      -6.020  -0.898 -17.639  0.00  0.00    +0.000 C 
ATOM      8  O   UNL     1      -5.646   0.456 -17.861  0.00  0.00    +0.000 OA
ENDBRANCH   1   8
BRANCH   6   9
ATOM      9  O   UNL     1      -4.977   3.009 -18.264  0.00  0.00    +0.000 OA
ATOM     10  H   UNL     1      -5.092   2.422 -17.491  0.00  0.00    +0.000 HD
ENDBRANCH   6   9
TORSDOF 2
ENDMDL
MODEL 4
REMARK VINA RESULT:    -3.492      2.478      3.394
REMARK INTER + INTRA:          -3.847
REMARK INTER:                  -3.795
REMARK INTRA:                  -0.053
REMARK UNBOUND:                -0.049
REMARK  Name = 
REMARK  3 active torsions:
REMARK  status: ('A' for Active; 'I' for Inactive)
REMARK    1  A    between atoms: C_1  and  O_2
REMARK    2  A    between atoms: O_2  and  C_3
REMARK    3  A    between atoms: C_8  and  O_9
REMARK                            x       y       z     vdW  Elec       q    Type
REMARK                         _______ _______ _______ _____ _____    ______ ____
ROOT
ATOM      1  C   UNL     1      -4.187   1.053 -20.278  0.00  0.00    +0.000 A 
ATOM      2  C   UNL     1      -4.997   1.964 -19.601  0.00  0.00    +0.000 A 
ATOM      3  C   UNL     1      -5.915   1.510 -18.647  0.00  0.00    +0.000 A 
ATOM      4  C   UNL     1      -6.029   0.147 -18.366  0.00  0.00    +0.000 A 
ATOM      5  C   UNL     1      -5.223  -0.770 -19.038  0.00  0.00    +0.000 A 
ATOM      6  C   UNL     1      -4.315  -0.310 -19.984  0.00  0.00    +0.000 A 
ENDROOT
BRANCH   1   8
ATOM      7  C   UNL     1      -3.741   1.873 -22.463  0.00  0.00    +0.000 C 
ATOM      8  O   UNL     1      -3.250   1.354 -21.234  0.00  0.00    +0.000 OA
ENDBRANCH   1   8
BRANCH   6   9
ATOM      9  O   UNL     1      -3.535  -1.230 -20.631  0.00  0.00    +0.000 OA
ATOM     10  H   UNL     1      -4.152  -1.714 -21.213  0.00  0.00    +0.000 HD
ENDBRANCH   6   9
TORSDOF 2
ENDMDL
MODEL 5
REMARK VINA RESULT:    -3.379      2.054      2.884
REMARK INTER + INTRA:          -3.724
REMARK INTER:                  -3.674
REMARK INTRA:                  -0.050
REMARK UNBOUND:                -0.049
REMARK  Name = 
REMARK  3 active torsions:
REMARK  status: ('A' for Active; 'I' for Inactive)
REMARK    1  A    between atoms: C_1  and  O_2
REMARK    2  A    between atoms: O_2  and  C_3
REMARK    3  A    between atoms: C_8  and  O_9
REMARK                            x       y       z     vdW  Elec       q    Type
REMARK                         _______ _______ _______ _____ _____    ______ ____
ROOT
ATOM      1  C   UNL     1      -5.964   0.834 -20.510  0.00  0.00    +0.000 A 
ATOM      2  C   UNL     1      -6.040  -0.154 -19.530  0.00  0.00    +0.000 A 
ATOM      3  C   UNL     1      -5.673   0.140 -18.210  0.00  0.00    +0.000 A 
ATOM      4  C   UNL     1      -5.228   1.418 -17.867  0.00  0.00    +0.000 A 
ATOM      5  C   UNL     1      -5.150   2.411 -18.841  0.00  0.00    +0.000 A 
ATOM      6  C   UNL     1      -5.516   2.110 -20.147  0.00  0.00    +0.000 A 
ENDROOT
BRANCH   1   8
ATOM      7  C   UNL     1      -5.403  -0.098 -22.623  0.00  0.00    +0.000 C 
ATOM      8  O   UNL     1      -6.288   0.689 -21.835  0.00  0.00    +0.000 OA
ENDBRANCH   1   8
BRANCH   6   9
ATOM      9  O   UNL     1      -5.430   3.103 -21.087  0.00  0.00    +0.000 OA
ATOM     10  H   UNL     1      -5.789   2.704 -21.902  0.00  0.00    +0.000 HD
ENDBRANCH   6   9
TORSDOF 2
ENDMDL
MODEL 6
REMARK VINA RESULT:    -3.293      2.358      3.107
REMARK INTER + INTRA:          -3.631
REMARK INTER:                  -3.594
REMARK INTRA:                  -0.037
REMARK UNBOUND:                -0.049
REMARK  Name = 
REMARK  3 active torsions:
REMARK  status: ('A' for Active; 'I' for Inactive)
REMARK    1  A    between atoms: C_1  and  O_2
REMARK    2  A    between atoms: O_2  and  C_3
REMARK    3  A    between atoms: C_8  and  O_9
REMARK                            x       y       z     vdW  Elec       q    Type
REMARK                         _______ _______ _______ _____ _____    ______ ____
ROOT
ATOM      1  C   UNL     1      -4.782   0.162 -19.978  0.00  0.00    +0.000 A 
ATOM      2  C   UNL     1      -5.746   1.148 -20.184  0.00  0.00    +0.000 A 
ATOM      3  C   UNL     1      -5.543   2.133 -21.159  0.00  0.00    +0.000 A 
ATOM      4  C   UNL     1      -4.378   2.136 -21.929  0.00  0.00    +0.000 A 
ATOM      5  C   UNL     1      -3.410   1.155 -21.729  0.00  0.00    +0.000 A 
ATOM      6  C   UNL     1      -3.620   0.182 -20.760  0.00  0.00    +0.000 A 
ENDROOT
BRANCH   1   8
ATOM      7  C   UNL     1      -5.979  -0.866 -18.201  0.00  0.00    +0.000 C 
ATOM      8  O   UNL     1      -4.847  -0.858 -19.063  0.00  0.00    +0.000 OA
ENDBRANCH   1   8
BRANCH   6   9
ATOM      9  O   UNL     1      -2.655  -0.773 -20.582  0.00  0.00    +0.000 OA
ATOM     10  H   UNL     1      -3.002  -1.349 -19.875  0.00  0.00    +0.000 HD
ENDBRANCH   6   9
TORSDOF 2
ENDMDL
MODEL 7
REMARK VINA RESULT:    -3.268      2.663      3.476
REMARK INTER + INTRA:          -3.604
REMARK INTER:                  -3.554
REMARK INTRA:                  -0.050
REMARK UNBOUND:                -0.049
REMARK  Name = 
REMARK  3 active torsions:
REMARK  status: ('A' for Active; 'I' for Inactive)
REMARK    1  A    between atoms: C_1  and  O_2
REMARK    2  A    between atoms: O_2  and  C_3
REMARK    3  A    between atoms: C_8  and  O_9
REMARK                            x       y       z     vdW  Elec       q    Type
REMARK                         _______ _______ _______ _____ _____    ______ ____
ROOT
ATOM      1  C   UNL     1      -4.646   0.874 -20.335  0.00  0.00    +0.000 A 
ATOM      2  C   UNL     1      -4.073   1.607 -21.374  0.00  0.00    +0.000 A 
ATOM      3  C   UNL     1      -3.110   1.014 -22.200  0.00  0.00    +0.000 A 
ATOM      4  C   UNL     1      -2.715  -0.308 -21.991  0.00  0.00    +0.000 A 
ATOM      5  C   UNL     1      -3.282  -1.047 -20.956  0.00  0.00    +0.000 A 
ATOM      6  C   UNL     1      -4.237  -0.451 -20.141  0.00  0.00    +0.000 A 
ENDROOT
BRANCH   1   8
ATOM      7  C   UNL     1      -5.288   2.519 -18.746  0.00  0.00    +0.000 C 
ATOM      8  O   UNL     1      -5.595   1.324 -19.453  0.00  0.00    +0.000 OA
ENDBRANCH   1   8
BRANCH   6   9
ATOM      9  O   UNL     1      -4.780  -1.197 -19.129  0.00  0.00    +0.000 OA
ATOM     10  H   UNL     1      -4.524  -0.730 -18.311  0.00  0.00    +0.000 HD
ENDBRANCH   6   9
TORSDOF 2
ENDMDL
MODEL 8
REMARK VINA RESULT:    -3.099      2.603      3.403
REMARK INTER + INTRA:          -3.420
REMARK INTER:                  -3.374
REMARK INTRA:                  -0.046
REMARK UNBOUND:                -0.049
REMARK  Name = 
REMARK  3 active torsions:
REMARK  status: ('A' for Active; 'I' for Inactive)
REMARK    1  A    between atoms: C_1  and  O_2
REMARK    2  A    between atoms: O_2  and  C_3
REMARK    3  A    between atoms: C_8  and  O_9
REMARK                            x       y       z     vdW  Elec       q    Type
REMARK                         _______ _______ _______ _____ _____    ______ ____
ROOT
ATOM      1  C   UNL     1      -5.113   0.620 -20.013  0.00  0.00    +0.000 A 
ATOM      2  C   UNL     1      -4.354  -0.549 -20.015  0.00  0.00    +0.000 A 
ATOM      3  C   UNL     1      -3.274  -0.681 -20.896  0.00  0.00    +0.000 A 
ATOM      4  C   UNL     1      -2.949   0.352 -21.777  0.00  0.00    +0.000 A 
ATOM      5  C   UNL     1      -3.702   1.523 -21.782  0.00  0.00    +0.000 A 
ATOM      6  C   UNL     1      -4.773   1.645 -20.905  0.00  0.00    +0.000 A 
ENDROOT
BRANCH   1   8
ATOM      7  C   UNL     1      -7.142  -0.164 -19.056  0.00  0.00    +0.000 C 
ATOM      8  O   UNL     1      -6.194   0.885 -19.210  0.00  0.00    +0.000 OA
ENDBRANCH   1   8
BRANCH   6   9
ATOM      9  O   UNL     1      -5.498   2.806 -20.928  0.00  0.00    +0.000 OA
ATOM     10  H   UNL     1      -6.279   2.622 -20.371  0.00  0.00    +0.000 HD
ENDBRANCH   6   9
TORSDOF 2
ENDMDL
MODEL 9
REMARK VINA RESULT:    -2.574      1.572      3.336
REMARK INTER + INTRA:          -2.848
REMARK INTER:                  -2.807
REMARK INTRA:                  -0.041
REMARK UNBOUND:                -0.049
REMARK  Name = 
REMARK  3 active torsions:
REMARK  status: ('A' for Active; 'I' for Inactive)
REMARK    1  A    between atoms: C_1  and  O_2
REMARK    2  A    between atoms: O_2  and  C_3
REMARK    3  A    between atoms: C_8  and  O_9
REMARK                            x       y       z     vdW  Elec       q    Type
REMARK                         _______ _______ _______ _____ _____    ______ ____
ROOT
ATOM      1  C   UNL     1      -6.018   0.516 -19.535  0.00  0.00    +0.000 A 
ATOM      2  C   UNL     1      -5.041   0.372 -20.519  0.00  0.00    +0.000 A 
ATOM      3  C   UNL     1      -5.254  -0.501 -21.594  0.00  0.00    +0.000 A 
ATOM      4  C   UNL     1      -6.441  -1.231 -21.688  0.00  0.00    +0.000 A 
ATOM      5  C   UNL     1      -7.422  -1.091 -20.709  0.00  0.00    +0.000 A 
ATOM      6  C   UNL     1      -7.201  -0.224 -19.646  0.00  0.00    +0.000 A 
ENDROOT
BRANCH   1   8
ATOM      7  C   UNL     1      -5.181   2.522 -18.573  0.00  0.00    +0.000 C 
ATOM      8  O   UNL     1      -5.944   1.329 -18.432  0.00  0.00    +0.000 OA
ENDBRANCH   1   8
BRANCH   6   9
ATOM      9  O   UNL     1      -8.180  -0.104 -18.696  0.00  0.00    +0.000 OA
ATOM     10  H   UNL     1      -8.895   0.393 -19.137  0.00  0.00    +0.000 HD
ENDBRANCH   6   9
TORSDOF 2
ENDMDL
