MODEL 1
REMARK VINA RESULT:    -4.910      0.000      0.000
REMARK INTER + INTRA:          -7.166
REMARK INTER:                  -6.632
REMARK INTRA:                  -0.535
REMARK UNBOUND:                -0.535
REMARK  Name = 
REMARK  10 active torsions:
REMARK  status: ('A' for Active; 'I' for Inactive)
REMARK    1  A    between atoms: C_1  and  C_2
REMARK    2  A    between atoms: C_5  and  N_8
REMARK    3  A    between atoms: N_8  and  C_9
REMARK    4  A    between atoms: N_8  and  C_13
REMARK    5  A    between atoms: C_9  and  C_10
REMARK    6  A    between atoms: C_10  and  C_11
REMARK    7  A    between atoms: C_10  and  O_12
REMARK    8  A    between atoms: C_13  and  C_14
REMARK    9  A    between atoms: C_14  and  C_15
REMARK   10  A    between atoms: C_14  and  O_16
REMARK                            x       y       z     vdW  Elec       q    Type
REMARK                         _______ _______ _______ _____ _____    ______ ____
ROOT
ATOM      1  N   UNL     1       3.496  16.316  -0.158  0.00  0.00    +0.000 N 
ENDROOT
BRANCH   1   6
ATOM      2  C   UNL     1       4.651  14.791   5.288  0.00  0.00    +0.000 C 
ATOM      3  C   UNL     1       4.376  15.191   3.871  0.00  0.00    +0.000 A 
ATOM      4  C   UNL     1       4.054  16.505   3.550  0.00  0.00    +0.000 A 
ATOM      5  C   UNL     1       3.768  16.868   2.224  0.00  0.00    +0.000 A 
ATOM      6  C   UNL     1       3.764  15.943   1.165  0.00  0.00    +0.000 A 
ATOM      7  C   UNL     1       4.095  14.624   1.526  0.00  0.00    +0.000 A 
ATOM      8  C   UNL     1       4.386  14.248   2.848  0.00  0.00    +0.000 A 
ENDBRANCH   1   6
BRANCH   1   9
ATOM      9  C   UNL     1       4.488  17.109  -0.923  0.00  0.00    +0.000 C 
BRANCH   9  10
ATOM     10  C   UNL     1       4.342  16.937  -2.455  0.00  0.00    +0.000 C 
ATOM     11  C   UNL     1       5.418  17.722  -3.196  0.00  0.00    +0.000 C 
BRANCH  10  12
ATOM     12  O   UNL     1       4.459  15.558  -2.832  0.00  0.00    +0.000 OA
ATOM     13  H   UNL     1       3.662  15.314  -3.332  0.00  0.00    +0.000 HD
ENDBRANCH  10  12
ENDBRANCH   9  10
ENDBRANCH   1   9
BRANCH   1  14
ATOM     14  C   UNL     1       2.102  16.404  -0.665  0.00  0.00    +0.000 C 
BRANCH  14  15
ATOM     15  C   UNL     1       1.503  15.010  -0.974  0.00  0.00    +0.000 C 
ATOM     16  C   UNL     1      -0.015  14.968  -0.844  0.00  0.00    +0.000 C 
BRANCH  15  17
ATOM     17  O   UNL     1       1.847  14.568  -2.286  0.00  0.00    +0.000 OA
ATOM     18  H   UNL     1       0.993  14.484  -2.756  0.00  0.00    +0.000 HD
ENDBRANCH  15  17
ENDBRANCH  14  15
ENDBRANCH   1  14
TORSDOF 7
ENDMDL
MODEL 2
REMARK VINA RESULT:    -4.890      4.473      5.984
REMARK INTER + INTRA:          -7.140
REMARK INTER:                  -6.350
REMARK INTRA:                  -0.791
REMARK UNBOUND:                -0.535
REMARK  Name = 
REMARK  10 active torsions:
REMARK  status: ('A' for Active; 'I' for Inactive)
REMARK    1  A    between atoms: C_1  and  C_2
REMARK    2  A    between atoms: C_5  and  N_8
REMARK    3  A    between atoms: N_8  and  C_9
REMARK    4  A    between atoms: N_8  and  C_13
REMARK    5  A    between atoms: C_9  and  C_10
REMARK    6  A    between atoms: C_10  and  C_11
REMARK    7  A    between atoms: C_10  and  O_12
REMARK    8  A    between atoms: C_13  and  C_14
REMARK    9  A    between atoms: C_14  and  C_15
REMARK   10  A    between atoms: C_14  and  O_16
REMARK                            x       y       z     vdW  Elec       q    Type
REMARK                         _______ _______ _______ _____ _____    ______ ____
ROOT
ATOM      1  N   UNL     1       4.411  15.182   4.519  0.00  0.00    +0.000 N 
ENDROOT
BRANCH   1   6
ATOM      2  C   UNL     1       1.413  13.957   9.298  0.00  0.00    +0.000 C 
ATOM      3  C   UNL     1       2.205  14.291   8.071  0.00  0.00    +0.000 A 
ATOM      4  C   UNL     1       1.792  15.299   7.206  0.00  0.00    +0.000 A 
ATOM      5  C   UNL     1       2.522  15.587   6.042  0.00  0.00    +0.000 A 
ATOM      6  C   UNL     1       3.677  14.876   5.672  0.00  0.00    +0.000 A 
ATOM      7  C   UNL     1       4.067  13.866   6.570  0.00  0.00    +0.000 A 
ATOM      8  C   UNL     1       3.347  13.568   7.739  0.00  0.00    +0.000 A 
ENDBRANCH   1   6
BRANCH   1   9
ATOM      9  C   UNL     1       5.056  16.509   4.378  0.00  0.00    +0.000 C 
BRANCH   9  10
ATOM     10  C   UNL     1       6.476  16.555   4.994  0.00  0.00    +0.000 C 
ATOM     11  C   UNL     1       6.433  17.083   6.424  0.00  0.00    +0.000 C 
BRANCH  10  12
ATOM     12  O   UNL     1       7.068  15.249   5.021  0.00  0.00    +0.000 OA
ATOM     13  H   UNL     1       8.016  15.345   4.833  0.00  0.00    +0.000 HD
ENDBRANCH  10  12
ENDBRANCH   9  10
ENDBRANCH   1   9
BRANCH   1  14
ATOM     14  C   UNL     1       4.165  14.469   3.239  0.00  0.00    +0.000 C 
BRANCH  14  15
ATOM     15  C   UNL     1       5.166  13.309   3.015  0.00  0.00    +0.000 C 
ATOM     16  C   UNL     1       4.588  12.171   2.182  0.00  0.00    +0.000 C 
BRANCH  15  17
ATOM     17  O   UNL     1       6.360  13.760   2.377  0.00  0.00    +0.000 OA
ATOM     18  H   UNL     1       6.837  14.268   3.065  0.00  0.00    +0.000 HD
ENDBRANCH  15  17
ENDBRANCH  14  15
ENDBRANCH   1  14
TORSDOF 7
ENDMDL
MODEL 3
REMARK VINA RESULT:    -4.531      4.392      6.065
REMARK INTER + INTRA:          -6.655
REMARK INTER:                  -6.097
REMARK INTRA:                  -0.558
REMARK UNBOUND:                -0.535
REMARK  Name = 
REMARK  10 active torsions:
REMARK  status: ('A' for Active; 'I' for Inactive)
REMARK    1  A    between atoms: C_1  and  C_2
REMARK    2  A    between atoms: C_5  and  N_8
REMARK    3  A    between atoms: N_8  and  C_9
REMARK    4  A    between atoms: N_8  and  C_13
REMARK    5  A    between atoms: C_9  and  C_10
REMARK    6  A    between atoms: C_10  and  C_11
REMARK    7  A    between atoms: C_10  and  O_12
REMARK    8  A    between atoms: C_13  and  C_14
REMARK    9  A    between atoms: C_14  and  C_15
REMARK   10  A    between atoms: C_14  and  O_16
REMARK                            x       y       z     vdW  Elec       q    Type
REMARK                         _______ _______ _______ _____ _____    ______ ____
ROOT
ATOM      1  N   UNL     1       4.508  14.857   4.525  0.00  0.00    +0.000 N 
ENDROOT
BRANCH   1   6
ATOM      2  C   UNL     1       1.396  14.107   9.330  0.00  0.00    +0.000 C 
ATOM      3  C   UNL     1       2.189  14.285   8.071  0.00  0.00    +0.000 A 
ATOM      4  C   UNL     1       3.308  13.501   7.815  0.00  0.00    +0.000 A 
ATOM      5  C   UNL     1       4.065  13.693   6.648  0.00  0.00    +0.000 A 
ATOM      6  C   UNL     1       3.760  14.684   5.697  0.00  0.00    +0.000 A 
ATOM      7  C   UNL     1       2.620  15.456   5.987  0.00  0.00    +0.000 A 
ATOM      8  C   UNL     1       1.854  15.273   7.150  0.00  0.00    +0.000 A 
ENDBRANCH   1   6
BRANCH   1   9
ATOM      9  C   UNL     1       4.092  14.183   3.272  0.00  0.00    +0.000 C 
BRANCH   9  10
ATOM     10  C   UNL     1       5.220  13.323   2.651  0.00  0.00    +0.000 C 
ATOM     11  C   UNL     1       4.698  11.950   2.245  0.00  0.00    +0.000 C 
BRANCH  10  12
ATOM     12  O   UNL     1       5.765  13.954   1.483  0.00  0.00    +0.000 OA
ATOM     13  H   UNL     1       6.728  14.017   1.596  0.00  0.00    +0.000 HD
ENDBRANCH  10  12
ENDBRANCH   9  10
ENDBRANCH   1   9
BRANCH   1  14
ATOM     14  C   UNL     1       5.939  15.249   4.578  0.00  0.00    +0.000 C 
BRANCH  14  15
ATOM     15  C   UNL     1       6.173  16.681   4.039  0.00  0.00    +0.000 C 
ATOM     16  C   UNL     1       7.433  17.333   4.595  0.00  0.00    +0.000 C 
BRANCH  15  17
ATOM     17  O   UNL     1       6.256  16.701   2.615  0.00  0.00    +0.000 OA
ATOM     18  H   UNL     1       6.581  15.812   2.368  0.00  0.00    +0.000 HD
ENDBRANCH  15  17
ENDBRANCH  14  15
ENDBRANCH   1  14
TORSDOF 7
ENDMDL
MODEL 4
REMARK VINA RESULT:    -4.427      2.756      5.812
REMARK INTER + INTRA:          -6.515
REMARK INTER:                  -5.738
REMARK INTRA:                  -0.777
REMARK UNBOUND:                -0.535
REMARK  Name = 
REMARK  10 active torsions:
REMARK  status: ('A' for Active; 'I' for Inactive)
REMARK    1  A    between atoms: C_1  and  C_2
REMARK    2  A    between atoms: C_5  and  N_8
REMARK    3  A    between atoms: N_8  and  C_9
REMARK    4  A    between atoms: N_8  and  C_13
REMARK    5  A    between atoms: C_9  and  C_10
REMARK    6  A    between atoms: C_10  and  C_11
REMARK    7  A    between atoms: C_10  and  O_12
REMARK    8  A    between atoms: C_13  and  C_14
REMARK    9  A    between atoms: C_14  and  C_15
REMARK   10  A    between atoms: C_14  and  O_16
REMARK                            x       y       z     vdW  Elec       q    Type
REMARK                         _______ _______ _______ _____ _____    ______ ____
ROOT
ATOM      1  N   UNL     1       2.384  16.990  -1.012  0.00  0.00    +0.000 N 
ENDROOT
BRANCH   1   6
ATOM      2  C   UNL     1      -1.888  20.831  -1.581  0.00  0.00    +0.000 C 
ATOM      3  C   UNL     1      -0.796  19.816  -1.431  0.00  0.00    +0.000 A 
ATOM      4  C   UNL     1      -0.263  19.519  -0.181  0.00  0.00    +0.000 A 
ATOM      5  C   UNL     1       0.781  18.589  -0.050  0.00  0.00    +0.000 A 
ATOM      6  C   UNL     1       1.356  17.931  -1.152  0.00  0.00    +0.000 A 
ATOM      7  C   UNL     1       0.791  18.253  -2.399  0.00  0.00    +0.000 A 
ATOM      8  C   UNL     1      -0.254  19.180  -2.544  0.00  0.00    +0.000 A 
ENDBRANCH   1   6
BRANCH   1   9
ATOM      9  C   UNL     1       2.155  15.750  -0.232  0.00  0.00    +0.000 C 
BRANCH   9  10
ATOM     10  C   UNL     1       1.383  14.671  -1.031  0.00  0.00    +0.000 C 
ATOM     11  C   UNL     1      -0.121  14.896  -0.937  0.00  0.00    +0.000 C 
BRANCH  10  12
ATOM     12  O   UNL     1       1.751  14.697  -2.417  0.00  0.00    +0.000 OA
ATOM     13  H   UNL     1       1.332  15.473  -2.826  0.00  0.00    +0.000 HD
ENDBRANCH  10  12
ENDBRANCH   9  10
ENDBRANCH   1   9
BRANCH   1  14
ATOM     14  C   UNL     1       3.810  17.380  -1.160  0.00  0.00    +0.000 C 
BRANCH  14  15
ATOM     15  C   UNL     1       4.357  17.068  -2.573  0.00  0.00    +0.000 C 
ATOM     16  C   UNL     1       5.734  17.668  -2.829  0.00  0.00    +0.000 C 
BRANCH  15  17
ATOM     17  O   UNL     1       4.437  15.663  -2.809  0.00  0.00    +0.000 OA
ATOM     18  H   UNL     1       4.660  15.273  -1.939  0.00  0.00    +0.000 HD
ENDBRANCH  15  17
ENDBRANCH  14  15
ENDBRANCH   1  14
TORSDOF 7
ENDMDL
MODEL 5
REMARK VINA RESULT:    -4.329      2.549      4.362
REMARK INTER + INTRA:          -6.382
REMARK INTER:                  -5.867
REMARK INTRA:                  -0.515
REMARK UNBOUND:                -0.535
REMARK  Name = 
REMARK  10 active torsions:
REMARK  status: ('A' for Active; 'I' for Inactive)
REMARK    1  A    between atoms: C_1  and  C_2
REMARK    2  A    between atoms: C_5  and  N_8
REMARK    3  A    between atoms: N_8  and  C_9
REMARK    4  A    between atoms: N_8  and  C_13
REMARK    5  A    between atoms: C_9  and  C_10
REMARK    6  A    between atoms: C_10  and  C_11
REMARK    7  A    between atoms: C_10  and  O_12
REMARK    8  A    between atoms: C_13  and  C_14
REMARK    9  A    between atoms: C_14  and  C_15
REMARK   10  A    between atoms: C_14  and  O_16
REMARK                            x       y       z     vdW  Elec       q    Type
REMARK                         _______ _______ _______ _____ _____    ______ ____
ROOT
ATOM      1  N   UNL     1       4.546  15.846   2.785  0.00  0.00    +0.000 N 
ENDROOT
BRANCH   1   6
ATOM      2  C   UNL     1       7.705  16.738   7.534  0.00  0.00    +0.000 C 
ATOM      3  C   UNL     1       6.879  16.531   6.302  0.00  0.00    +0.000 A 
ATOM      4  C   UNL     1       5.551  16.127   6.392  0.00  0.00    +0.000 A 
ATOM      5  C   UNL     1       4.790  15.905   5.233  0.00  0.00    +0.000 A 
ATOM      6  C   UNL     1       5.317  16.050   3.937  0.00  0.00    +0.000 A 
ATOM      7  C   UNL     1       6.661  16.461   3.884  0.00  0.00    +0.000 A 
ATOM      8  C   UNL     1       7.433  16.689   5.035  0.00  0.00    +0.000 A 
ENDBRANCH   1   6
BRANCH   1   9
ATOM      9  C   UNL     1       4.096  14.480   2.425  0.00  0.00    +0.000 C 
BRANCH   9  10
ATOM     10  C   UNL     1       5.221  13.423   2.553  0.00  0.00    +0.000 C 
ATOM     11  C   UNL     1       4.678  12.019   2.319  0.00  0.00    +0.000 C 
BRANCH  10  12
ATOM     12  O   UNL     1       6.263  13.663   1.598  0.00  0.00    +0.000 OA
ATOM     13  H   UNL     1       6.976  14.150   2.045  0.00  0.00    +0.000 HD
ENDBRANCH  10  12
ENDBRANCH   9  10
ENDBRANCH   1   9
BRANCH   1  14
ATOM     14  C   UNL     1       4.581  16.810   1.656  0.00  0.00    +0.000 C 
BRANCH  14  15
ATOM     15  C   UNL     1       3.971  16.218   0.363  0.00  0.00    +0.000 C 
ATOM     16  C   UNL     1       2.869  17.086  -0.233  0.00  0.00    +0.000 C 
BRANCH  15  17
ATOM     17  O   UNL     1       4.962  16.012  -0.642  0.00  0.00    +0.000 OA
ATOM     18  H   UNL     1       5.692  15.546  -0.186  0.00  0.00    +0.000 HD
ENDBRANCH  15  17
ENDBRANCH  14  15
ENDBRANCH   1  14
TORSDOF 7
ENDMDL
MODEL 6
REMARK VINA RESULT:    -4.260      4.085      5.932
REMARK INTER + INTRA:          -6.290
REMARK INTER:                  -5.773
REMARK INTRA:                  -0.516
REMARK UNBOUND:                -0.535
REMARK  Name = 
REMARK  10 active torsions:
REMARK  status: ('A' for Active; 'I' for Inactive)
REMARK    1  A    between atoms: C_1  and  C_2
REMARK    2  A    between atoms: C_5  and  N_8
REMARK    3  A    between atoms: N_8  and  C_9
REMARK    4  A    between atoms: N_8  and  C_13
REMARK    5  A    between atoms: C_9  and  C_10
REMARK    6  A    between atoms: C_10  and  C_11
REMARK    7  A    between atoms: C_10  and  O_12
REMARK    8  A    between atoms: C_13  and  C_14
REMARK    9  A    between atoms: C_14  and  C_15
REMARK   10  A    between atoms: C_14  and  O_16
REMARK                            x       y       z     vdW  Elec       q    Type
REMARK                         _______ _______ _______ _____ _____    ______ ____
ROOT
ATOM      1  N   UNL     1       4.449  15.228   4.153  0.00  0.00    +0.000 N 
ENDROOT
BRANCH   1   6
ATOM      2  C   UNL     1       8.518  19.317   3.929  0.00  0.00    +0.000 C 
ATOM      3  C   UNL     1       7.449  18.270   4.002  0.00  0.00    +0.000 A 
ATOM      4  C   UNL     1       7.492  17.271   4.968  0.00  0.00    +0.000 A 
ATOM      5  C   UNL     1       6.503  16.275   5.013  0.00  0.00    +0.000 A 
ATOM      6  C   UNL     1       5.443  16.213   4.090  0.00  0.00    +0.000 A 
ATOM      7  C   UNL     1       5.430  17.240   3.129  0.00  0.00    +0.000 A 
ATOM      8  C   UNL     1       6.411  18.243   3.074  0.00  0.00    +0.000 A 
ENDBRANCH   1   6
BRANCH   1   9
ATOM      9  C   UNL     1       4.165  14.382   2.969  0.00  0.00    +0.000 C 
BRANCH   9  10
ATOM     10  C   UNL     1       5.263  13.322   2.710  0.00  0.00    +0.000 C 
ATOM     11  C   UNL     1       4.650  12.000   2.264  0.00  0.00    +0.000 C 
BRANCH  10  12
ATOM     12  O   UNL     1       6.169  13.759   1.688  0.00  0.00    +0.000 OA
ATOM     13  H   UNL     1       7.076  13.618   2.009  0.00  0.00    +0.000 HD
ENDBRANCH  10  12
ENDBRANCH   9  10
ENDBRANCH   1   9
BRANCH   1  14
ATOM     14  C   UNL     1       3.341  15.315   5.139  0.00  0.00    +0.000 C 
BRANCH  14  15
ATOM     15  C   UNL     1       3.473  14.258   6.261  0.00  0.00    +0.000 C 
ATOM     16  C   UNL     1       4.109  14.808   7.532  0.00  0.00    +0.000 C 
BRANCH  15  17
ATOM     17  O   UNL     1       2.208  13.697   6.608  0.00  0.00    +0.000 OA
ATOM     18  H   UNL     1       1.672  13.759   5.792  0.00  0.00    +0.000 HD
ENDBRANCH  15  17
ENDBRANCH  14  15
ENDBRANCH   1  14
TORSDOF 7
ENDMDL
MODEL 7
REMARK VINA RESULT:    -4.211      2.994      5.366
REMARK INTER + INTRA:          -6.223
REMARK INTER:                  -5.609
REMARK INTRA:                  -0.614
REMARK UNBOUND:                -0.535
REMARK  Name = 
REMARK  10 active torsions:
REMARK  status: ('A' for Active; 'I' for Inactive)
REMARK    1  A    between atoms: C_1  and  C_2
REMARK    2  A    between atoms: C_5  and  N_8
REMARK    3  A    between atoms: N_8  and  C_9
REMARK    4  A    between atoms: N_8  and  C_13
REMARK    5  A    between atoms: C_9  and  C_10
REMARK    6  A    between atoms: C_10  and  C_11
REMARK    7  A    between atoms: C_10  and  O_12
REMARK    8  A    between atoms: C_13  and  C_14
REMARK    9  A    between atoms: C_14  and  C_15
REMARK   10  A    between atoms: C_14  and  O_16
REMARK                            x       y       z     vdW  Elec       q    Type
REMARK                         _______ _______ _______ _____ _____    ______ ____
ROOT
ATOM      1  N   UNL     1       2.255  17.282  -1.442  0.00  0.00    +0.000 N 
ENDROOT
BRANCH   1   6
ATOM      2  C   UNL     1       6.751  18.899  -4.681  0.00  0.00    +0.000 C 
ATOM      3  C   UNL     1       5.574  18.469  -3.861  0.00  0.00    +0.000 A 
ATOM      4  C   UNL     1       4.483  19.313  -3.680  0.00  0.00    +0.000 A 
ATOM      5  C   UNL     1       3.395  18.916  -2.885  0.00  0.00    +0.000 A 
ATOM      6  C   UNL     1       3.351  17.679  -2.217  0.00  0.00    +0.000 A 
ATOM      7  C   UNL     1       4.470  16.851  -2.424  0.00  0.00    +0.000 A 
ATOM      8  C   UNL     1       5.564  17.235  -3.218  0.00  0.00    +0.000 A 
ENDBRANCH   1   6
BRANCH   1   9
ATOM      9  C   UNL     1       1.182  18.253  -1.119  0.00  0.00    +0.000 C 
BRANCH   9  10
ATOM     10  C   UNL     1      -0.014  18.174  -2.099  0.00  0.00    +0.000 C 
ATOM     11  C   UNL     1      -0.344  19.549  -2.667  0.00  0.00    +0.000 C 
BRANCH  10  12
ATOM     12  O   UNL     1       0.277  17.298  -3.196  0.00  0.00    +0.000 OA
ATOM     13  H   UNL     1       0.501  16.425  -2.834  0.00  0.00    +0.000 HD
ENDBRANCH  10  12
ENDBRANCH   9  10
ENDBRANCH   1   9
BRANCH   1  14
ATOM     14  C   UNL     1       2.346  16.122  -0.518  0.00  0.00    +0.000 C 
BRANCH  14  15
ATOM     15  C   UNL     1       1.589  14.884  -1.058  0.00  0.00    +0.000 C 
ATOM     16  C   UNL     1       0.104  14.892  -0.715  0.00  0.00    +0.000 C 
BRANCH  15  17
ATOM     17  O   UNL     1       1.715  14.766  -2.474  0.00  0.00    +0.000 OA
ATOM     18  H   UNL     1       0.808  14.586  -2.795  0.00  0.00    +0.000 HD
ENDBRANCH  15  17
ENDBRANCH  14  15
ENDBRANCH   1  14
TORSDOF 7
ENDMDL
MODEL 8
REMARK VINA RESULT:    -4.170      4.113      6.347
REMARK INTER + INTRA:          -6.168
REMARK INTER:                  -5.634
REMARK INTRA:                  -0.534
REMARK UNBOUND:                -0.535
REMARK  Name = 
REMARK  10 active torsions:
REMARK  status: ('A' for Active; 'I' for Inactive)
REMARK    1  A    between atoms: C_1  and  C_2
REMARK    2  A    between atoms: C_5  and  N_8
REMARK    3  A    between atoms: N_8  and  C_9
REMARK    4  A    between atoms: N_8  and  C_13
REMARK    5  A    between atoms: C_9  and  C_10
REMARK    6  A    between atoms: C_10  and  C_11
REMARK    7  A    between atoms: C_10  and  O_12
REMARK    8  A    between atoms: C_13  and  C_14
REMARK    9  A    between atoms: C_14  and  C_15
REMARK   10  A    between atoms: C_14  and  O_16
REMARK                            x       y       z     vdW  Elec       q    Type
REMARK                         _______ _______ _______ _____ _____    ______ ____
ROOT
ATOM      1  N   UNL     1       4.217  15.076   4.482  0.00  0.00    +0.000 N 
ENDROOT
BRANCH   1   6
ATOM      2  C   UNL     1       8.301  19.135   4.059  0.00  0.00    +0.000 C 
ATOM      3  C   UNL     1       7.252  18.070   4.149  0.00  0.00    +0.000 A 
ATOM      4  C   UNL     1       6.032  18.212   3.495  0.00  0.00    +0.000 A 
ATOM      5  C   UNL     1       5.040  17.224   3.608  0.00  0.00    +0.000 A 
ATOM      6  C   UNL     1       5.204  16.067   4.390  0.00  0.00    +0.000 A 
ATOM      7  C   UNL     1       6.449  15.955   5.035  0.00  0.00    +0.000 A 
ATOM      8  C   UNL     1       7.451  16.934   4.929  0.00  0.00    +0.000 A 
ENDBRANCH   1   6
BRANCH   1   9
ATOM      9  C   UNL     1       3.161  15.173   5.517  0.00  0.00    +0.000 C 
BRANCH   9  10
ATOM     10  C   UNL     1       3.327  14.124   6.644  0.00  0.00    +0.000 C 
ATOM     11  C   UNL     1       4.067  14.717   7.836  0.00  0.00    +0.000 C 
BRANCH  10  12
ATOM     12  O   UNL     1       2.051  13.654   7.101  0.00  0.00    +0.000 OA
ATOM     13  H   UNL     1       1.541  14.421   7.410  0.00  0.00    +0.000 HD
ENDBRANCH  10  12
ENDBRANCH   9  10
ENDBRANCH   1   9
BRANCH   1  14
ATOM     14  C   UNL     1       4.451  13.708   3.954  0.00  0.00    +0.000 C 
BRANCH  14  15
ATOM     15  C   UNL     1       4.549  13.686   2.409  0.00  0.00    +0.000 C 
ATOM     16  C   UNL     1       5.957  13.960   1.894  0.00  0.00    +0.000 C 
BRANCH  15  17
ATOM     17  O   UNL     1       4.117  12.437   1.871  0.00  0.00    +0.000 OA
ATOM     18  H   UNL     1       3.166  12.559   1.680  0.00  0.00    +0.000 HD
ENDBRANCH  15  17
ENDBRANCH  14  15
ENDBRANCH   1  14
TORSDOF 7
ENDMDL
MODEL 9
REMARK VINA RESULT:    -4.164      1.203      3.367
REMARK INTER + INTRA:          -6.160
REMARK INTER:                  -5.879
REMARK INTRA:                  -0.281
REMARK UNBOUND:                -0.535
REMARK  Name = 
REMARK  10 active torsions:
REMARK  status: ('A' for Active; 'I' for Inactive)
REMARK    1  A    between atoms: C_1  and  C_2
REMARK    2  A    between atoms: C_5  and  N_8
REMARK    3  A    between atoms: N_8  and  C_9
REMARK    4  A    between atoms: N_8  and  C_13
REMARK    5  A    between atoms: C_9  and  C_10
REMARK    6  A    between atoms: C_10  and  C_11
REMARK    7  A    between atoms: C_10  and  O_12
REMARK    8  A    between atoms: C_13  and  C_14
REMARK    9  A    between atoms: C_14  and  C_15
REMARK   10  A    between atoms: C_14  and  O_16
REMARK                            x       y       z     vdW  Elec       q    Type
REMARK                         _______ _______ _______ _____ _____    ______ ____
ROOT
ATOM      1  N   UNL     1       3.483  16.743  -0.740  0.00  0.00    +0.000 N 
ENDROOT
BRANCH   1   6
ATOM      2  C   UNL     1       4.286  16.693   4.976  0.00  0.00    +0.000 C 
ATOM      3  C   UNL     1       4.102  16.712   3.490  0.00  0.00    +0.000 A 
ATOM      4  C   UNL     1       3.718  17.875   2.832  0.00  0.00    +0.000 A 
ATOM      5  C   UNL     1       3.518  17.879   1.442  0.00  0.00    +0.000 A 
ATOM      6  C   UNL     1       3.665  16.727   0.648  0.00  0.00    +0.000 A 
ATOM      7  C   UNL     1       4.055  15.570   1.346  0.00  0.00    +0.000 A 
ATOM      8  C   UNL     1       4.261  15.552   2.736  0.00  0.00    +0.000 A 
ENDBRANCH   1   6
BRANCH   1   9
ATOM      9  C   UNL     1       2.122  16.608  -1.313  0.00  0.00    +0.000 C 
BRANCH   9  10
ATOM     10  C   UNL     1       1.585  15.157  -1.249  0.00  0.00    +0.000 C 
ATOM     11  C   UNL     1       0.079  15.143  -1.012  0.00  0.00    +0.000 C 
BRANCH  10  12
ATOM     12  O   UNL     1       1.848  14.456  -2.472  0.00  0.00    +0.000 OA
ATOM     13  H   UNL     1       1.003  14.326  -2.933  0.00  0.00    +0.000 HD
ENDBRANCH  10  12
ENDBRANCH   9  10
ENDBRANCH   1   9
BRANCH   1  14
ATOM     14  C   UNL     1       4.588  16.381  -1.665  0.00  0.00    +0.000 C 
BRANCH  14  15
ATOM     15  C   UNL     1       5.152  17.614  -2.411  0.00  0.00    +0.000 C 
ATOM     16  C   UNL     1       4.825  18.934  -1.722  0.00  0.00    +0.000 C 
BRANCH  15  17
ATOM     17  O   UNL     1       6.568  17.535  -2.565  0.00  0.00    +0.000 OA
ATOM     18  H   UNL     1       6.723  17.625  -3.527  0.00  0.00    +0.000 HD
ENDBRANCH  15  17
ENDBRANCH  14  15
ENDBRANCH   1  14
TORSDOF 7
ENDMDL
