MODEL 1
REMARK VINA RESULT:    -5.397      0.000      0.000
REMARK INTER + INTRA:          -7.734
REMARK INTER:                  -7.290
REMARK INTRA:                  -0.444
REMARK UNBOUND:                -0.444
REMARK  Name = 
REMARK  10 active torsions:
REMARK  status: ('A' for Active; 'I' for Inactive)
REMARK    1  A    between atoms: C_1  and  C_2
REMARK    2  A    between atoms: C_5  and  N_8
REMARK    3  A    between atoms: N_8  and  C_9
REMARK    4  A    between atoms: N_8  and  C_13
REMARK    5  A    between atoms: C_9  and  C_10
REMARK    6  A    between atoms: C_10  and  C_11
REMARK    7  A    between atoms: C_10  and  O_12
REMARK    8  A    between atoms: C_13  and  C_14
REMARK    9  A    between atoms: C_14  and  C_15
REMARK   10  A    between atoms: C_14  and  O_16
REMARK                            x       y       z     vdW  Elec       q    Type
REMARK                         _______ _______ _______ _____ _____    ______ ____
ROOT
ATOM      1  N   UNL     1      12.488   3.206   8.311  0.00  0.00    +0.000 N 
ENDROOT
BRANCH   1   6
ATOM      2  C   UNL     1      17.838   1.702   9.876  0.00  0.00    +0.000 C 
ATOM      3  C   UNL     1      16.445   2.069   9.464  0.00  0.00    +0.000 A 
ATOM      4  C   UNL     1      16.167   2.471   8.162  0.00  0.00    +0.000 A 
ATOM      5  C   UNL     1      14.865   2.842   7.789  0.00  0.00    +0.000 A 
ATOM      6  C   UNL     1      13.788   2.853   8.694  0.00  0.00    +0.000 A 
ATOM      7  C   UNL     1      14.105   2.438  10.001  0.00  0.00    +0.000 A 
ATOM      8  C   UNL     1      15.402   2.063  10.386  0.00  0.00    +0.000 A 
ENDBRANCH   1   6
BRANCH   1   9
ATOM      9  C   UNL     1      11.809   2.467   7.220  0.00  0.00    +0.000 C 
BRANCH   9  10
ATOM     10  C   UNL     1      11.410   3.379   6.034  0.00  0.00    +0.000 C 
ATOM     11  C   UNL     1      12.584   3.585   5.085  0.00  0.00    +0.000 C 
BRANCH  10  12
ATOM     12  O   UNL     1      10.329   2.807   5.285  0.00  0.00    +0.000 OA
ATOM     13  H   UNL     1       9.513   2.916   5.802  0.00  0.00    +0.000 HD
ENDBRANCH  10  12
ENDBRANCH   9  10
ENDBRANCH   1   9
BRANCH   1  14
ATOM     14  C   UNL     1      11.952   4.566   8.571  0.00  0.00    +0.000 C 
BRANCH  14  15
ATOM     15  C   UNL     1      11.305   4.681   9.973  0.00  0.00    +0.000 C 
ATOM     16  C   UNL     1      11.350   6.094  10.540  0.00  0.00    +0.000 C 
BRANCH  15  17
ATOM     17  O   UNL     1       9.944   4.252   9.961  0.00  0.00    +0.000 OA
ATOM     18  H   UNL     1       9.606   4.460  10.856  0.00  0.00    +0.000 HD
ENDBRANCH  15  17
ENDBRANCH  14  15
ENDBRANCH   1  14
TORSDOF 7
ENDMDL
MODEL 2
REMARK VINA RESULT:    -5.328      0.374      3.323
REMARK INTER + INTRA:          -7.641
REMARK INTER:                  -7.301
REMARK INTRA:                  -0.340
REMARK UNBOUND:                -0.444
REMARK  Name = 
REMARK  10 active torsions:
REMARK  status: ('A' for Active; 'I' for Inactive)
REMARK    1  A    between atoms: C_1  and  C_2
REMARK    2  A    between atoms: C_5  and  N_8
REMARK    3  A    between atoms: N_8  and  C_9
REMARK    4  A    between atoms: N_8  and  C_13
REMARK    5  A    between atoms: C_9  and  C_10
REMARK    6  A    between atoms: C_10  and  C_11
REMARK    7  A    between atoms: C_10  and  O_12
REMARK    8  A    between atoms: C_13  and  C_14
REMARK    9  A    between atoms: C_14  and  C_15
REMARK   10  A    between atoms: C_14  and  O_16
REMARK                            x       y       z     vdW  Elec       q    Type
REMARK                         _______ _______ _______ _____ _____    ______ ____
ROOT
ATOM      1  N   UNL     1      12.674   3.439   8.087  0.00  0.00    +0.000 N 
ENDROOT
BRANCH   1   6
ATOM      2  C   UNL     1      17.725   1.359   9.955  0.00  0.00    +0.000 C 
ATOM      3  C   UNL     1      16.407   1.876   9.464  0.00  0.00    +0.000 A 
ATOM      4  C   UNL     1      16.257   2.318   8.154  0.00  0.00    +0.000 A 
ATOM      5  C   UNL     1      15.027   2.830   7.708  0.00  0.00    +0.000 A 
ATOM      6  C   UNL     1      13.903   2.946   8.544  0.00  0.00    +0.000 A 
ATOM      7  C   UNL     1      14.090   2.488   9.861  0.00  0.00    +0.000 A 
ATOM      8  C   UNL     1      15.314   1.972  10.320  0.00  0.00    +0.000 A 
ENDBRANCH   1   6
BRANCH   1   9
ATOM      9  C   UNL     1      12.074   4.640   8.717  0.00  0.00    +0.000 C 
BRANCH   9  10
ATOM     10  C   UNL     1      11.350   4.321  10.048  0.00  0.00    +0.000 C 
ATOM     11  C   UNL     1      11.719   5.334  11.126  0.00  0.00    +0.000 C 
BRANCH  10  12
ATOM     12  O   UNL     1       9.926   4.352   9.879  0.00  0.00    +0.000 OA
ATOM     13  H   UNL     1       9.575   5.086  10.411  0.00  0.00    +0.000 HD
ENDBRANCH  10  12
ENDBRANCH   9  10
ENDBRANCH   1   9
BRANCH   1  14
ATOM     14  C   UNL     1      11.711   2.562   7.373  0.00  0.00    +0.000 C 
BRANCH  14  15
ATOM     15  C   UNL     1      11.295   3.146   6.001  0.00  0.00    +0.000 C 
ATOM     16  C   UNL     1      12.427   3.142   4.980  0.00  0.00    +0.000 C 
BRANCH  15  17
ATOM     17  O   UNL     1      10.191   2.438   5.440  0.00  0.00    +0.000 OA
ATOM     18  H   UNL     1      10.236   2.619   4.480  0.00  0.00    +0.000 HD
ENDBRANCH  15  17
ENDBRANCH  14  15
ENDBRANCH   1  14
TORSDOF 7
ENDMDL
MODEL 3
REMARK VINA RESULT:    -5.282     14.365     15.768
REMARK INTER + INTRA:          -7.579
REMARK INTER:                  -7.252
REMARK INTRA:                  -0.327
REMARK UNBOUND:                -0.444
REMARK  Name = 
REMARK  10 active torsions:
REMARK  status: ('A' for Active; 'I' for Inactive)
REMARK    1  A    between atoms: C_1  and  C_2
REMARK    2  A    between atoms: C_5  and  N_8
REMARK    3  A    between atoms: N_8  and  C_9
REMARK    4  A    between atoms: N_8  and  C_13
REMARK    5  A    between atoms: C_9  and  C_10
REMARK    6  A    between atoms: C_10  and  C_11
REMARK    7  A    between atoms: C_10  and  O_12
REMARK    8  A    between atoms: C_13  and  C_14
REMARK    9  A    between atoms: C_14  and  C_15
REMARK   10  A    between atoms: C_14  and  O_16
REMARK                            x       y       z     vdW  Elec       q    Type
REMARK                         _______ _______ _______ _____ _____    ______ ____
ROOT
ATOM      1  N   UNL     1      19.174  10.259  -4.237  0.00  0.00    +0.000 N 
ENDROOT
BRANCH   1   6
ATOM      2  C   UNL     1      23.031  10.329   0.057  0.00  0.00    +0.000 C 
ATOM      3  C   UNL     1      22.011  10.312  -1.040  0.00  0.00    +0.000 A 
ATOM      4  C   UNL     1      21.531   9.110  -1.550  0.00  0.00    +0.000 A 
ATOM      5  C   UNL     1      20.598   9.100  -2.599  0.00  0.00    +0.000 A 
ATOM      6  C   UNL     1      20.119  10.276  -3.204  0.00  0.00    +0.000 A 
ATOM      7  C   UNL     1      20.625  11.472  -2.662  0.00  0.00    +0.000 A 
ATOM      8  C   UNL     1      21.557  11.497  -1.612  0.00  0.00    +0.000 A 
ENDBRANCH   1   6
BRANCH   1   9
ATOM      9  C   UNL     1      19.598   9.972  -5.629  0.00  0.00    +0.000 C 
BRANCH   9  10
ATOM     10  C   UNL     1      21.123  10.145  -5.839  0.00  0.00    +0.000 C 
ATOM     11  C   UNL     1      21.674   9.056  -6.751  0.00  0.00    +0.000 C 
BRANCH  10  12
ATOM     12  O   UNL     1      21.420  11.415  -6.434  0.00  0.00    +0.000 OA
ATOM     13  H   UNL     1      20.643  11.697  -6.945  0.00  0.00    +0.000 HD
ENDBRANCH  10  12
ENDBRANCH   9  10
ENDBRANCH   1   9
BRANCH   1  14
ATOM     14  C   UNL     1      17.888  10.993  -4.116  0.00  0.00    +0.000 C 
BRANCH  14  15
ATOM     15  C   UNL     1      16.677  10.036  -4.001  0.00  0.00    +0.000 C 
ATOM     16  C   UNL     1      15.931   9.852  -5.317  0.00  0.00    +0.000 C 
BRANCH  15  17
ATOM     17  O   UNL     1      17.067   8.747  -3.530  0.00  0.00    +0.000 OA
ATOM     18  H   UNL     1      17.935   8.576  -3.949  0.00  0.00    +0.000 HD
ENDBRANCH  15  17
ENDBRANCH  14  15
ENDBRANCH   1  14
TORSDOF 7
ENDMDL
MODEL 4
REMARK VINA RESULT:    -5.179     14.468     15.871
REMARK INTER + INTRA:          -7.439
REMARK INTER:                  -7.208
REMARK INTRA:                  -0.231
REMARK UNBOUND:                -0.444
REMARK  Name = 
REMARK  10 active torsions:
REMARK  status: ('A' for Active; 'I' for Inactive)
REMARK    1  A    between atoms: C_1  and  C_2
REMARK    2  A    between atoms: C_5  and  N_8
REMARK    3  A    between atoms: N_8  and  C_9
REMARK    4  A    between atoms: N_8  and  C_13
REMARK    5  A    between atoms: C_9  and  C_10
REMARK    6  A    between atoms: C_10  and  C_11
REMARK    7  A    between atoms: C_10  and  O_12
REMARK    8  A    between atoms: C_13  and  C_14
REMARK    9  A    between atoms: C_14  and  C_15
REMARK   10  A    between atoms: C_14  and  O_16
REMARK                            x       y       z     vdW  Elec       q    Type
REMARK                         _______ _______ _______ _____ _____    ______ ____
ROOT
ATOM      1  N   UNL     1      19.132  10.205  -4.078  0.00  0.00    +0.000 N 
ENDROOT
BRANCH   1   6
ATOM      2  C   UNL     1      23.105  10.303   0.110  0.00  0.00    +0.000 C 
ATOM      3  C   UNL     1      22.056  10.278  -0.960  0.00  0.00    +0.000 A 
ATOM      4  C   UNL     1      21.588   9.073  -1.472  0.00  0.00    +0.000 A 
ATOM      5  C   UNL     1      20.626   9.056  -2.496  0.00  0.00    +0.000 A 
ATOM      6  C   UNL     1      20.106  10.230  -3.071  0.00  0.00    +0.000 A 
ATOM      7  C   UNL     1      20.601  11.429  -2.527  0.00  0.00    +0.000 A 
ATOM      8  C   UNL     1      21.561  11.460  -1.502  0.00  0.00    +0.000 A 
ENDBRANCH   1   6
BRANCH   1   9
ATOM      9  C   UNL     1      17.730   9.852  -3.748  0.00  0.00    +0.000 C 
BRANCH   9  10
ATOM     10  C   UNL     1      16.698  10.719  -4.511  0.00  0.00    +0.000 C 
ATOM     11  C   UNL     1      15.817   9.855  -5.406  0.00  0.00    +0.000 C 
BRANCH  10  12
ATOM     12  O   UNL     1      15.847  11.427  -3.600  0.00  0.00    +0.000 OA
ATOM     13  H   UNL     1      15.980  12.379  -3.741  0.00  0.00    +0.000 HD
ENDBRANCH  10  12
ENDBRANCH   9  10
ENDBRANCH   1   9
BRANCH   1  14
ATOM     14  C   UNL     1      19.505  10.016  -5.503  0.00  0.00    +0.000 C 
BRANCH  14  15
ATOM     15  C   UNL     1      21.036  10.081  -5.720  0.00  0.00    +0.000 C 
ATOM     16  C   UNL     1      21.542   9.062  -6.735  0.00  0.00    +0.000 C 
BRANCH  15  17
ATOM     17  O   UNL     1      21.454  11.376  -6.149  0.00  0.00    +0.000 OA
ATOM     18  H   UNL     1      22.312  11.526  -5.703  0.00  0.00    +0.000 HD
ENDBRANCH  15  17
ENDBRANCH  14  15
ENDBRANCH   1  14
TORSDOF 7
ENDMDL
MODEL 5
REMARK VINA RESULT:    -5.162      1.694      3.594
REMARK INTER + INTRA:          -7.416
REMARK INTER:                  -7.001
REMARK INTRA:                  -0.415
REMARK UNBOUND:                -0.444
REMARK  Name = 
REMARK  10 active torsions:
REMARK  status: ('A' for Active; 'I' for Inactive)
REMARK    1  A    between atoms: C_1  and  C_2
REMARK    2  A    between atoms: C_5  and  N_8
REMARK    3  A    between atoms: N_8  and  C_9
REMARK    4  A    between atoms: N_8  and  C_13
REMARK    5  A    between atoms: C_9  and  C_10
REMARK    6  A    between atoms: C_10  and  C_11
REMARK    7  A    between atoms: C_10  and  O_12
REMARK    8  A    between atoms: C_13  and  C_14
REMARK    9  A    between atoms: C_14  and  C_15
REMARK   10  A    between atoms: C_14  and  O_16
REMARK                            x       y       z     vdW  Elec       q    Type
REMARK                         _______ _______ _______ _____ _____    ______ ____
ROOT
ATOM      1  N   UNL     1      13.479   3.347   7.702  0.00  0.00    +0.000 N 
ENDROOT
BRANCH   1   6
ATOM      2  C   UNL     1      17.930   0.957  10.496  0.00  0.00    +0.000 C 
ATOM      3  C   UNL     1      16.767   1.555   9.764  0.00  0.00    +0.000 A 
ATOM      4  C   UNL     1      16.895   1.978   8.445  0.00  0.00    +0.000 A 
ATOM      5  C   UNL     1      15.810   2.565   7.773  0.00  0.00    +0.000 A 
ATOM      6  C   UNL     1      14.562   2.779   8.384  0.00  0.00    +0.000 A 
ATOM      7  C   UNL     1      14.468   2.337   9.717  0.00  0.00    +0.000 A 
ATOM      8  C   UNL     1      15.544   1.746  10.400  0.00  0.00    +0.000 A 
ENDBRANCH   1   6
BRANCH   1   9
ATOM      9  C   UNL     1      12.099   2.874   7.972  0.00  0.00    +0.000 C 
BRANCH   9  10
ATOM     10  C   UNL     1      11.307   3.829   8.898  0.00  0.00    +0.000 C 
ATOM     11  C   UNL     1      10.911   3.128  10.192  0.00  0.00    +0.000 C 
BRANCH  10  12
ATOM     12  O   UNL     1      12.089   4.982   9.238  0.00  0.00    +0.000 OA
ATOM     13  H   UNL     1      12.984   4.681   9.470  0.00  0.00    +0.000 HD
ENDBRANCH  10  12
ENDBRANCH   9  10
ENDBRANCH   1   9
BRANCH   1  14
ATOM     14  C   UNL     1      13.663   4.019   6.390  0.00  0.00    +0.000 C 
BRANCH  14  15
ATOM     15  C   UNL     1      13.419   3.057   5.202  0.00  0.00    +0.000 C 
ATOM     16  C   UNL     1      12.372   3.570   4.221  0.00  0.00    +0.000 C 
BRANCH  15  17
ATOM     17  O   UNL     1      14.620   2.804   4.474  0.00  0.00    +0.000 OA
ATOM     18  H   UNL     1      14.652   3.502   3.789  0.00  0.00    +0.000 HD
ENDBRANCH  15  17
ENDBRANCH  14  15
ENDBRANCH   1  14
TORSDOF 7
ENDMDL
MODEL 6
REMARK VINA RESULT:    -5.096      2.031      4.530
REMARK INTER + INTRA:          -7.327
REMARK INTER:                  -6.957
REMARK INTRA:                  -0.370
REMARK UNBOUND:                -0.444
REMARK  Name = 
REMARK  10 active torsions:
REMARK  status: ('A' for Active; 'I' for Inactive)
REMARK    1  A    between atoms: C_1  and  C_2
REMARK    2  A    between atoms: C_5  and  N_8
REMARK    3  A    between atoms: N_8  and  C_9
REMARK    4  A    between atoms: N_8  and  C_13
REMARK    5  A    between atoms: C_9  and  C_10
REMARK    6  A    between atoms: C_10  and  C_11
REMARK    7  A    between atoms: C_10  and  O_12
REMARK    8  A    between atoms: C_13  and  C_14
REMARK    9  A    between atoms: C_14  and  C_15
REMARK   10  A    between atoms: C_14  and  O_16
REMARK                            x       y       z     vdW  Elec       q    Type
REMARK                         _______ _______ _______ _____ _____    ______ ____
ROOT
ATOM      1  N   UNL     1      12.629   3.863   8.965  0.00  0.00    +0.000 N 
ENDROOT
BRANCH   1   6
ATOM      2  C   UNL     1      11.811   2.591   3.393  0.00  0.00    +0.000 C 
ATOM      3  C   UNL     1      12.005   2.937   4.838  0.00  0.00    +0.000 A 
ATOM      4  C   UNL     1      12.891   3.938   5.220  0.00  0.00    +0.000 A 
ATOM      5  C   UNL     1      13.091   4.238   6.577  0.00  0.00    +0.000 A 
ATOM      6  C   UNL     1      12.440   3.546   7.614  0.00  0.00    +0.000 A 
ATOM      7  C   UNL     1      11.549   2.542   7.191  0.00  0.00    +0.000 A 
ATOM      8  C   UNL     1      11.339   2.233   5.837  0.00  0.00    +0.000 A 
ENDBRANCH   1   6
BRANCH   1   9
ATOM      9  C   UNL     1      12.861   2.786   9.956  0.00  0.00    +0.000 C 
BRANCH   9  10
ATOM     10  C   UNL     1      14.350   2.649  10.357  0.00  0.00    +0.000 C 
ATOM     11  C   UNL     1      14.618   1.296  11.004  0.00  0.00    +0.000 C 
BRANCH  10  12
ATOM     12  O   UNL     1      15.204   2.770   9.211  0.00  0.00    +0.000 OA
ATOM     13  H   UNL     1      15.525   1.882   8.979  0.00  0.00    +0.000 HD
ENDBRANCH  10  12
ENDBRANCH   9  10
ENDBRANCH   1   9
BRANCH   1  14
ATOM     14  C   UNL     1      12.117   5.136   9.534  0.00  0.00    +0.000 C 
BRANCH  14  15
ATOM     15  C   UNL     1      10.990   4.903  10.568  0.00  0.00    +0.000 C 
ATOM     16  C   UNL     1      10.561   6.177  11.287  0.00  0.00    +0.000 C 
BRANCH  15  17
ATOM     17  O   UNL     1       9.833   4.324   9.966  0.00  0.00    +0.000 OA
ATOM     18  H   UNL     1       9.710   4.818   9.130  0.00  0.00    +0.000 HD
ENDBRANCH  15  17
ENDBRANCH  14  15
ENDBRANCH   1  14
TORSDOF 7
ENDMDL
MODEL 7
REMARK VINA RESULT:    -4.886      2.575      4.454
REMARK INTER + INTRA:          -7.044
REMARK INTER:                  -6.816
REMARK INTRA:                  -0.228
REMARK UNBOUND:                -0.444
REMARK  Name = 
REMARK  10 active torsions:
REMARK  status: ('A' for Active; 'I' for Inactive)
REMARK    1  A    between atoms: C_1  and  C_2
REMARK    2  A    between atoms: C_5  and  N_8
REMARK    3  A    between atoms: N_8  and  C_9
REMARK    4  A    between atoms: N_8  and  C_13
REMARK    5  A    between atoms: C_9  and  C_10
REMARK    6  A    between atoms: C_10  and  C_11
REMARK    7  A    between atoms: C_10  and  O_12
REMARK    8  A    between atoms: C_13  and  C_14
REMARK    9  A    between atoms: C_14  and  C_15
REMARK   10  A    between atoms: C_14  and  O_16
REMARK                            x       y       z     vdW  Elec       q    Type
REMARK                         _______ _______ _______ _____ _____    ______ ____
ROOT
ATOM      1  N   UNL     1      11.886   3.622   9.456  0.00  0.00    +0.000 N 
ENDROOT
BRANCH   1   6
ATOM      2  C   UNL     1      14.249   3.244   4.202  0.00  0.00    +0.000 C 
ATOM      3  C   UNL     1      13.632   3.317   5.565  0.00  0.00    +0.000 A 
ATOM      4  C   UNL     1      12.274   3.574   5.722  0.00  0.00    +0.000 A 
ATOM      5  C   UNL     1      11.706   3.671   7.003  0.00  0.00    +0.000 A 
ATOM      6  C   UNL     1      12.462   3.543   8.182  0.00  0.00    +0.000 A 
ATOM      7  C   UNL     1      13.831   3.282   7.986  0.00  0.00    +0.000 A 
ATOM      8  C   UNL     1      14.411   3.180   6.710  0.00  0.00    +0.000 A 
ENDBRANCH   1   6
BRANCH   1   9
ATOM      9  C   UNL     1      10.590   4.316   9.644  0.00  0.00    +0.000 C 
BRANCH   9  10
ATOM     10  C   UNL     1      10.581   5.245  10.883  0.00  0.00    +0.000 C 
ATOM     11  C   UNL     1      11.305   6.554  10.588  0.00  0.00    +0.000 C 
BRANCH  10  12
ATOM     12  O   UNL     1       9.240   5.560  11.281  0.00  0.00    +0.000 OA
ATOM     13  H   UNL     1       8.783   5.951  10.517  0.00  0.00    +0.000 HD
ENDBRANCH  10  12
ENDBRANCH   9  10
ENDBRANCH   1   9
BRANCH   1  14
ATOM     14  C   UNL     1      12.715   3.504  10.683  0.00  0.00    +0.000 C 
BRANCH  14  15
ATOM     15  C   UNL     1      12.689   2.072  11.271  0.00  0.00    +0.000 C 
ATOM     16  C   UNL     1      11.345   1.375  11.091  0.00  0.00    +0.000 C 
BRANCH  15  17
ATOM     17  O   UNL     1      13.696   1.245  10.690  0.00  0.00    +0.000 OA
ATOM     18  H   UNL     1      14.481   1.364  11.262  0.00  0.00    +0.000 HD
ENDBRANCH  15  17
ENDBRANCH  14  15
ENDBRANCH   1  14
TORSDOF 7
ENDMDL
MODEL 8
REMARK VINA RESULT:    -4.746      3.457      6.031
REMARK INTER + INTRA:          -6.855
REMARK INTER:                  -6.418
REMARK INTRA:                  -0.437
REMARK UNBOUND:                -0.444
REMARK  Name = 
REMARK  10 active torsions:
REMARK  status: ('A' for Active; 'I' for Inactive)
REMARK    1  A    between atoms: C_1  and  C_2
REMARK    2  A    between atoms: C_5  and  N_8
REMARK    3  A    between atoms: N_8  and  C_9
REMARK    4  A    between atoms: N_8  and  C_13
REMARK    5  A    between atoms: C_9  and  C_10
REMARK    6  A    between atoms: C_10  and  C_11
REMARK    7  A    between atoms: C_10  and  O_12
REMARK    8  A    between atoms: C_13  and  C_14
REMARK    9  A    between atoms: C_14  and  C_15
REMARK   10  A    between atoms: C_14  and  O_16
REMARK                            x       y       z     vdW  Elec       q    Type
REMARK                         _______ _______ _______ _____ _____    ______ ____
ROOT
ATOM      1  N   UNL     1      16.241   2.440   8.935  0.00  0.00    +0.000 N 
ENDROOT
BRANCH   1   6
ATOM      2  C   UNL     1      11.440   3.808   6.035  0.00  0.00    +0.000 C 
ATOM      3  C   UNL     1      12.689   3.477   6.793  0.00  0.00    +0.000 A 
ATOM      4  C   UNL     1      13.919   3.409   6.147  0.00  0.00    +0.000 A 
ATOM      5  C   UNL     1      15.082   3.069   6.857  0.00  0.00    +0.000 A 
ATOM      6  C   UNL     1      15.074   2.760   8.229  0.00  0.00    +0.000 A 
ATOM      7  C   UNL     1      13.814   2.841   8.849  0.00  0.00    +0.000 A 
ATOM      8  C   UNL     1      12.643   3.182   8.152  0.00  0.00    +0.000 A 
ENDBRANCH   1   6
BRANCH   1   9
ATOM      9  C   UNL     1      17.523   2.267   8.211  0.00  0.00    +0.000 C 
BRANCH   9  10
ATOM     10  C   UNL     1      18.405   3.540   8.239  0.00  0.00    +0.000 C 
ATOM     11  C   UNL     1      19.196   3.626   9.539  0.00  0.00    +0.000 C 
BRANCH  10  12
ATOM     12  O   UNL     1      19.338   3.544   7.150  0.00  0.00    +0.000 OA
ATOM     13  H   UNL     1      19.032   4.192   6.493  0.00  0.00    +0.000 HD
ENDBRANCH  10  12
ENDBRANCH   9  10
ENDBRANCH   1   9
BRANCH   1  14
ATOM     14  C   UNL     1      16.179   1.778  10.263  0.00  0.00    +0.000 C 
BRANCH  14  15
ATOM     15  C   UNL     1      16.949   0.436  10.283  0.00  0.00    +0.000 C 
ATOM     16  C   UNL     1      18.096   0.417  11.287  0.00  0.00    +0.000 C 
BRANCH  15  17
ATOM     17  O   UNL     1      16.086  -0.662  10.577  0.00  0.00    +0.000 OA
ATOM     18  H   UNL     1      16.240  -0.858  11.524  0.00  0.00    +0.000 HD
ENDBRANCH  15  17
ENDBRANCH  14  15
ENDBRANCH   1  14
TORSDOF 7
ENDMDL
MODEL 9
REMARK VINA RESULT:    -4.687      1.998      5.001
REMARK INTER + INTRA:          -6.776
REMARK INTER:                  -6.374
REMARK INTRA:                  -0.402
REMARK UNBOUND:                -0.444
REMARK  Name = 
REMARK  10 active torsions:
REMARK  status: ('A' for Active; 'I' for Inactive)
REMARK    1  A    between atoms: C_1  and  C_2
REMARK    2  A    between atoms: C_5  and  N_8
REMARK    3  A    between atoms: N_8  and  C_9
REMARK    4  A    between atoms: N_8  and  C_13
REMARK    5  A    between atoms: C_9  and  C_10
REMARK    6  A    between atoms: C_10  and  C_11
REMARK    7  A    between atoms: C_10  and  O_12
REMARK    8  A    between atoms: C_13  and  C_14
REMARK    9  A    between atoms: C_14  and  C_15
REMARK   10  A    between atoms: C_14  and  O_16
REMARK                            x       y       z     vdW  Elec       q    Type
REMARK                         _______ _______ _______ _____ _____    ______ ____
ROOT
ATOM      1  N   UNL     1      12.519   3.384   9.684  0.00  0.00    +0.000 N 
ENDROOT
BRANCH   1   6
ATOM      2  C   UNL     1      12.061   3.476   3.930  0.00  0.00    +0.000 C 
ATOM      3  C   UNL     1      12.159   3.467   5.424  0.00  0.00    +0.000 A 
ATOM      4  C   UNL     1      12.941   4.402   6.094  0.00  0.00    +0.000 A 
ATOM      5  C   UNL     1      13.054   4.370   7.494  0.00  0.00    +0.000 A 
ATOM      6  C   UNL     1      12.418   3.398   8.287  0.00  0.00    +0.000 A 
ATOM      7  C   UNL     1      11.635   2.470   7.576  0.00  0.00    +0.000 A 
ATOM      8  C   UNL     1      11.511   2.492   6.177  0.00  0.00    +0.000 A 
ENDBRANCH   1   6
BRANCH   1   9
ATOM      9  C   UNL     1      12.280   4.626  10.459  0.00  0.00    +0.000 C 
BRANCH   9  10
ATOM     10  C   UNL     1      10.921   4.618  11.200  0.00  0.00    +0.000 C 
ATOM     11  C   UNL     1      10.151   5.907  10.938  0.00  0.00    +0.000 C 
BRANCH  10  12
ATOM     12  O   UNL     1      10.107   3.519  10.771  0.00  0.00    +0.000 OA
ATOM     13  H   UNL     1       9.326   3.880  10.319  0.00  0.00    +0.000 HD
ENDBRANCH  10  12
ENDBRANCH   9  10
ENDBRANCH   1   9
BRANCH   1  14
ATOM     14  C   UNL     1      13.329   2.356  10.386  0.00  0.00    +0.000 C 
BRANCH  14  15
ATOM     15  C   UNL     1      14.843   2.511  10.102  0.00  0.00    +0.000 C 
ATOM     16  C   UNL     1      15.718   2.119  11.287  0.00  0.00    +0.000 C 
BRANCH  15  17
ATOM     17  O   UNL     1      15.250   1.735   8.976  0.00  0.00    +0.000 OA
ATOM     18  H   UNL     1      15.407   2.388   8.264  0.00  0.00    +0.000 HD
ENDBRANCH  15  17
ENDBRANCH  14  15
ENDBRANCH   1  14
TORSDOF 7
ENDMDL
