MODEL 1
REMARK VINA RESULT:    -4.609      0.000      0.000
REMARK INTER + INTRA:          -6.676
REMARK INTER:                  -6.225
REMARK INTRA:                  -0.451
REMARK UNBOUND:                -0.451
REMARK  Name = 
REMARK  10 active torsions:
REMARK  status: ('A' for Active; 'I' for Inactive)
REMARK    1  A    between atoms: C_1  and  C_2
REMARK    2  A    between atoms: C_5  and  N_8
REMARK    3  A    between atoms: N_8  and  C_9
REMARK    4  A    between atoms: N_8  and  C_13
REMARK    5  A    between atoms: C_9  and  C_10
REMARK    6  A    between atoms: C_10  and  C_11
REMARK    7  A    between atoms: C_10  and  O_12
REMARK    8  A    between atoms: C_13  and  C_14
REMARK    9  A    between atoms: C_14  and  C_15
REMARK   10  A    between atoms: C_14  and  O_16
REMARK                            x       y       z     vdW  Elec       q    Type
REMARK                         _______ _______ _______ _____ _____    ______ ____
ROOT
ATOM      1  N   UNL     1      -3.302  18.930  -5.963  0.00  0.00    +0.000 N 
ENDROOT
BRANCH   1   6
ATOM      2  C   UNL     1       0.307  20.840 -10.045  0.00  0.00    +0.000 C 
ATOM      3  C   UNL     1      -0.626  20.321  -8.994  0.00  0.00    +0.000 A 
ATOM      4  C   UNL     1      -1.995  20.245  -9.228  0.00  0.00    +0.000 A 
ATOM      5  C   UNL     1      -2.869  19.786  -8.229  0.00  0.00    +0.000 A 
ATOM      6  C   UNL     1      -2.428  19.405  -6.949  0.00  0.00    +0.000 A 
ATOM      7  C   UNL     1      -1.038  19.493  -6.748  0.00  0.00    +0.000 A 
ATOM      8  C   UNL     1      -0.153  19.948  -7.739  0.00  0.00    +0.000 A 
ENDBRANCH   1   6
BRANCH   1   9
ATOM      9  C   UNL     1      -3.294  17.495  -5.592  0.00  0.00    +0.000 C 
BRANCH   9  10
ATOM     10  C   UNL     1      -4.680  16.988  -5.124  0.00  0.00    +0.000 C 
ATOM     11  C   UNL     1      -5.404  16.262  -6.251  0.00  0.00    +0.000 C 
BRANCH  10  12
ATOM     12  O   UNL     1      -4.551  16.080  -4.021  0.00  0.00    +0.000 OA
ATOM     13  H   UNL     1      -4.138  16.558  -3.283  0.00  0.00    +0.000 HD
ENDBRANCH  10  12
ENDBRANCH   9  10
ENDBRANCH   1   9
BRANCH   1  14
ATOM     14  C   UNL     1      -4.558  19.652  -5.637  0.00  0.00    +0.000 C 
BRANCH  14  15
ATOM     15  C   UNL     1      -4.288  21.054  -5.040  0.00  0.00    +0.000 C 
ATOM     16  C   UNL     1      -4.881  22.185  -5.872  0.00  0.00    +0.000 C 
BRANCH  15  17
ATOM     17  O   UNL     1      -4.798  21.169  -3.712  0.00  0.00    +0.000 OA
ATOM     18  H   UNL     1      -5.685  21.568  -3.816  0.00  0.00    +0.000 HD
ENDBRANCH  15  17
ENDBRANCH  14  15
ENDBRANCH   1  14
TORSDOF 7
ENDMDL
MODEL 2
REMARK VINA RESULT:    -4.483      0.902      3.452
REMARK INTER + INTRA:          -6.507
REMARK INTER:                  -5.873
REMARK INTRA:                  -0.634
REMARK UNBOUND:                -0.451
REMARK  Name = 
REMARK  10 active torsions:
REMARK  status: ('A' for Active; 'I' for Inactive)
REMARK    1  A    between atoms: C_1  and  C_2
REMARK    2  A    between atoms: C_5  and  N_8
REMARK    3  A    between atoms: N_8  and  C_9
REMARK    4  A    between atoms: N_8  and  C_13
REMARK    5  A    between atoms: C_9  and  C_10
REMARK    6  A    between atoms: C_10  and  C_11
REMARK    7  A    between atoms: C_10  and  O_12
REMARK    8  A    between atoms: C_13  and  C_14
REMARK    9  A    between atoms: C_14  and  C_15
REMARK   10  A    between atoms: C_14  and  O_16
REMARK                            x       y       z     vdW  Elec       q    Type
REMARK                         _______ _______ _______ _____ _____    ______ ____
ROOT
ATOM      1  N   UNL     1      -3.093  19.506  -6.099  0.00  0.00    +0.000 N 
ENDROOT
BRANCH   1   6
ATOM      2  C   UNL     1       0.395  20.727 -10.534  0.00  0.00    +0.000 C 
ATOM      3  C   UNL     1      -0.516  20.434  -9.382  0.00  0.00    +0.000 A 
ATOM      4  C   UNL     1      -0.047  20.466  -8.073  0.00  0.00    +0.000 A 
ATOM      5  C   UNL     1      -0.899  20.162  -6.999  0.00  0.00    +0.000 A 
ATOM      6  C   UNL     1      -2.244  19.790  -7.176  0.00  0.00    +0.000 A 
ATOM      7  C   UNL     1      -2.685  19.770  -8.512  0.00  0.00    +0.000 A 
ATOM      8  C   UNL     1      -1.844  20.075  -9.595  0.00  0.00    +0.000 A 
ENDBRANCH   1   6
BRANCH   1   9
ATOM      9  C   UNL     1      -3.589  20.604  -5.235  0.00  0.00    +0.000 C 
BRANCH   9  10
ATOM     10  C   UNL     1      -4.482  21.612  -5.999  0.00  0.00    +0.000 C 
ATOM     11  C   UNL     1      -5.692  20.916  -6.609  0.00  0.00    +0.000 C 
BRANCH  10  12
ATOM     12  O   UNL     1      -4.958  22.644  -5.124  0.00  0.00    +0.000 OA
ATOM     13  H   UNL     1      -4.186  23.084  -4.729  0.00  0.00    +0.000 HD
ENDBRANCH  10  12
ENDBRANCH   9  10
ENDBRANCH   1   9
BRANCH   1  14
ATOM     14  C   UNL     1      -3.117  18.159  -5.474  0.00  0.00    +0.000 C 
BRANCH  14  15
ATOM     15  C   UNL     1      -4.527  17.522  -5.513  0.00  0.00    +0.000 C 
ATOM     16  C   UNL     1      -4.876  16.921  -6.870  0.00  0.00    +0.000 C 
BRANCH  15  17
ATOM     17  O   UNL     1      -4.673  16.501  -4.527  0.00  0.00    +0.000 OA
ATOM     18  H   UNL     1      -4.618  16.969  -3.669  0.00  0.00    +0.000 HD
ENDBRANCH  15  17
ENDBRANCH  14  15
ENDBRANCH   1  14
TORSDOF 7
ENDMDL
MODEL 3
REMARK VINA RESULT:    -4.441      3.023      5.286
REMARK INTER + INTRA:          -6.450
REMARK INTER:                  -6.015
REMARK INTRA:                  -0.434
REMARK UNBOUND:                -0.451
REMARK  Name = 
REMARK  10 active torsions:
REMARK  status: ('A' for Active; 'I' for Inactive)
REMARK    1  A    between atoms: C_1  and  C_2
REMARK    2  A    between atoms: C_5  and  N_8
REMARK    3  A    between atoms: N_8  and  C_9
REMARK    4  A    between atoms: N_8  and  C_13
REMARK    5  A    between atoms: C_9  and  C_10
REMARK    6  A    between atoms: C_10  and  C_11
REMARK    7  A    between atoms: C_10  and  O_12
REMARK    8  A    between atoms: C_13  and  C_14
REMARK    9  A    between atoms: C_14  and  C_15
REMARK   10  A    between atoms: C_14  and  O_16
REMARK                            x       y       z     vdW  Elec       q    Type
REMARK                         _______ _______ _______ _____ _____    ______ ____
ROOT
ATOM      1  N   UNL     1      -1.165  21.255  -7.019  0.00  0.00    +0.000 N 
ENDROOT
BRANCH   1   6
ATOM      2  C   UNL     1      -4.222  16.755  -5.086  0.00  0.00    +0.000 C 
ATOM      3  C   UNL     1      -3.418  17.925  -5.565  0.00  0.00    +0.000 A 
ATOM      4  C   UNL     1      -3.917  19.220  -5.475  0.00  0.00    +0.000 A 
ATOM      5  C   UNL     1      -3.171  20.310  -5.953  0.00  0.00    +0.000 A 
ATOM      6  C   UNL     1      -1.912  20.162  -6.562  0.00  0.00    +0.000 A 
ATOM      7  C   UNL     1      -1.437  18.839  -6.634  0.00  0.00    +0.000 A 
ATOM      8  C   UNL     1      -2.172  17.741  -6.157  0.00  0.00    +0.000 A 
ENDBRANCH   1   6
BRANCH   1   9
ATOM      9  C   UNL     1       0.008  21.038  -7.900  0.00  0.00    +0.000 C 
BRANCH   9  10
ATOM     10  C   UNL     1      -0.354  21.096  -9.405  0.00  0.00    +0.000 C 
ATOM     11  C   UNL     1       0.021  22.446 -10.003  0.00  0.00    +0.000 C 
BRANCH  10  12
ATOM     12  O   UNL     1       0.338  20.076 -10.140  0.00  0.00    +0.000 OA
ATOM     13  H   UNL     1      -0.276  19.710 -10.798  0.00  0.00    +0.000 HD
ENDBRANCH  10  12
ENDBRANCH   9  10
ENDBRANCH   1   9
BRANCH   1  14
ATOM     14  C   UNL     1      -1.163  22.546  -6.285  0.00  0.00    +0.000 C 
BRANCH  14  15
ATOM     15  C   UNL     1      -1.888  23.666  -7.070  0.00  0.00    +0.000 C 
ATOM     16  C   UNL     1      -3.013  23.145  -7.956  0.00  0.00    +0.000 C 
BRANCH  15  17
ATOM     17  O   UNL     1      -2.434  24.654  -6.197  0.00  0.00    +0.000 OA
ATOM     18  H   UNL     1      -1.969  25.482  -6.432  0.00  0.00    +0.000 HD
ENDBRANCH  15  17
ENDBRANCH  14  15
ENDBRANCH   1  14
TORSDOF 7
ENDMDL
MODEL 4
REMARK VINA RESULT:    -4.421      3.009      4.290
REMARK INTER + INTRA:          -6.423
REMARK INTER:                  -5.643
REMARK INTRA:                  -0.780
REMARK UNBOUND:                -0.451
REMARK  Name = 
REMARK  10 active torsions:
REMARK  status: ('A' for Active; 'I' for Inactive)
REMARK    1  A    between atoms: C_1  and  C_2
REMARK    2  A    between atoms: C_5  and  N_8
REMARK    3  A    between atoms: N_8  and  C_9
REMARK    4  A    between atoms: N_8  and  C_13
REMARK    5  A    between atoms: C_9  and  C_10
REMARK    6  A    between atoms: C_10  and  C_11
REMARK    7  A    between atoms: C_10  and  O_12
REMARK    8  A    between atoms: C_13  and  C_14
REMARK    9  A    between atoms: C_14  and  C_15
REMARK   10  A    between atoms: C_14  and  O_16
REMARK                            x       y       z     vdW  Elec       q    Type
REMARK                         _______ _______ _______ _____ _____    ______ ____
ROOT
ATOM      1  N   UNL     1      -4.061  21.480  -7.759  0.00  0.00    +0.000 N 
ENDROOT
BRANCH   1   6
ATOM      2  C   UNL     1      -0.277  17.349  -6.360  0.00  0.00    +0.000 C 
ATOM      3  C   UNL     1      -1.272  18.417  -6.702  0.00  0.00    +0.000 A 
ATOM      4  C   UNL     1      -2.399  18.126  -7.463  0.00  0.00    +0.000 A 
ATOM      5  C   UNL     1      -3.312  19.136  -7.805  0.00  0.00    +0.000 A 
ATOM      6  C   UNL     1      -3.136  20.481  -7.431  0.00  0.00    +0.000 A 
ATOM      7  C   UNL     1      -1.986  20.738  -6.661  0.00  0.00    +0.000 A 
ATOM      8  C   UNL     1      -1.067  19.736  -6.309  0.00  0.00    +0.000 A 
ENDBRANCH   1   6
BRANCH   1   9
ATOM      9  C   UNL     1      -5.434  21.434  -7.202  0.00  0.00    +0.000 C 
BRANCH   9  10
ATOM     10  C   UNL     1      -5.561  22.192  -5.858  0.00  0.00    +0.000 C 
ATOM     11  C   UNL     1      -5.277  21.266  -4.681  0.00  0.00    +0.000 C 
BRANCH  10  12
ATOM     12  O   UNL     1      -4.638  23.288  -5.795  0.00  0.00    +0.000 OA
ATOM     13  H   UNL     1      -5.091  24.083  -6.121  0.00  0.00    +0.000 HD
ENDBRANCH  10  12
ENDBRANCH   9  10
ENDBRANCH   1   9
BRANCH   1  14
ATOM     14  C   UNL     1      -3.917  22.281  -9.002  0.00  0.00    +0.000 C 
BRANCH  14  15
ATOM     15  C   UNL     1      -2.760  23.304  -8.907  0.00  0.00    +0.000 C 
ATOM     16  C   UNL     1      -2.511  24.051 -10.212  0.00  0.00    +0.000 C 
BRANCH  15  17
ATOM     17  O   UNL     1      -2.993  24.270  -7.882  0.00  0.00    +0.000 OA
ATOM     18  H   UNL     1      -2.423  23.991  -7.138  0.00  0.00    +0.000 HD
ENDBRANCH  15  17
ENDBRANCH  14  15
ENDBRANCH   1  14
TORSDOF 7
ENDMDL
MODEL 5
REMARK VINA RESULT:    -4.398      2.508      5.068
REMARK INTER + INTRA:          -6.392
REMARK INTER:                  -5.895
REMARK INTRA:                  -0.498
REMARK UNBOUND:                -0.451
REMARK  Name = 
REMARK  10 active torsions:
REMARK  status: ('A' for Active; 'I' for Inactive)
REMARK    1  A    between atoms: C_1  and  C_2
REMARK    2  A    between atoms: C_5  and  N_8
REMARK    3  A    between atoms: N_8  and  C_9
REMARK    4  A    between atoms: N_8  and  C_13
REMARK    5  A    between atoms: C_9  and  C_10
REMARK    6  A    between atoms: C_10  and  C_11
REMARK    7  A    between atoms: C_10  and  O_12
REMARK    8  A    between atoms: C_13  and  C_14
REMARK    9  A    between atoms: C_14  and  C_15
REMARK   10  A    between atoms: C_14  and  O_16
REMARK                            x       y       z     vdW  Elec       q    Type
REMARK                         _______ _______ _______ _____ _____    ______ ____
ROOT
ATOM      1  N   UNL     1      -2.683  20.800  -7.390  0.00  0.00    +0.000 N 
ENDROOT
BRANCH   1   6
ATOM      2  C   UNL     1      -5.191  16.273  -4.832  0.00  0.00    +0.000 C 
ATOM      3  C   UNL     1      -4.534  17.457  -5.473  0.00  0.00    +0.000 A 
ATOM      4  C   UNL     1      -5.256  18.613  -5.749  0.00  0.00    +0.000 A 
ATOM      5  C   UNL     1      -4.641  19.708  -6.378  0.00  0.00    +0.000 A 
ATOM      6  C   UNL     1      -3.294  19.697  -6.781  0.00  0.00    +0.000 A 
ATOM      7  C   UNL     1      -2.594  18.512  -6.485  0.00  0.00    +0.000 A 
ATOM      8  C   UNL     1      -3.196  17.411  -5.854  0.00  0.00    +0.000 A 
ENDBRANCH   1   6
BRANCH   1   9
ATOM      9  C   UNL     1      -1.211  20.968  -7.318  0.00  0.00    +0.000 C 
BRANCH   9  10
ATOM     10  C   UNL     1      -0.509  20.698  -8.671  0.00  0.00    +0.000 C 
ATOM     11  C   UNL     1      -0.068  22.002  -9.326  0.00  0.00    +0.000 C 
BRANCH  10  12
ATOM     12  O   UNL     1       0.653  19.876  -8.493  0.00  0.00    +0.000 OA
ATOM     13  H   UNL     1       1.011  19.667  -9.372  0.00  0.00    +0.000 HD
ENDBRANCH  10  12
ENDBRANCH   9  10
ENDBRANCH   1   9
BRANCH   1  14
ATOM     14  C   UNL     1      -3.441  22.048  -7.659  0.00  0.00    +0.000 C 
BRANCH  14  15
ATOM     15  C   UNL     1      -3.244  23.103  -6.544  0.00  0.00    +0.000 C 
ATOM     16  C   UNL     1      -2.632  24.404  -7.052  0.00  0.00    +0.000 C 
BRANCH  15  17
ATOM     17  O   UNL     1      -4.473  23.418  -5.893  0.00  0.00    +0.000 OA
ATOM     18  H   UNL     1      -4.247  24.123  -5.253  0.00  0.00    +0.000 HD
ENDBRANCH  15  17
ENDBRANCH  14  15
ENDBRANCH   1  14
TORSDOF 7
ENDMDL
MODEL 6
REMARK VINA RESULT:    -4.387      3.245      5.425
REMARK INTER + INTRA:          -6.377
REMARK INTER:                  -5.766
REMARK INTRA:                  -0.610
REMARK UNBOUND:                -0.451
REMARK  Name = 
REMARK  10 active torsions:
REMARK  status: ('A' for Active; 'I' for Inactive)
REMARK    1  A    between atoms: C_1  and  C_2
REMARK    2  A    between atoms: C_5  and  N_8
REMARK    3  A    between atoms: N_8  and  C_9
REMARK    4  A    between atoms: N_8  and  C_13
REMARK    5  A    between atoms: C_9  and  C_10
REMARK    6  A    between atoms: C_10  and  C_11
REMARK    7  A    between atoms: C_10  and  O_12
REMARK    8  A    between atoms: C_13  and  C_14
REMARK    9  A    between atoms: C_14  and  C_15
REMARK   10  A    between atoms: C_14  and  O_16
REMARK                            x       y       z     vdW  Elec       q    Type
REMARK                         _______ _______ _______ _____ _____    ______ ____
ROOT
ATOM      1  N   UNL     1      -2.211  21.927  -8.577  0.00  0.00    +0.000 N 
ENDROOT
BRANCH   1   6
ATOM      2  C   UNL     1       0.001  17.155  -6.198  0.00  0.00    +0.000 C 
ATOM      3  C   UNL     1      -0.575  18.403  -6.793  0.00  0.00    +0.000 A 
ATOM      4  C   UNL     1      -1.942  18.519  -7.025  0.00  0.00    +0.000 A 
ATOM      5  C   UNL     1      -2.473  19.680  -7.611  0.00  0.00    +0.000 A 
ATOM      6  C   UNL     1      -1.672  20.764  -8.012  0.00  0.00    +0.000 A 
ATOM      7  C   UNL     1      -0.296  20.614  -7.760  0.00  0.00    +0.000 A 
ATOM      8  C   UNL     1       0.247  19.459  -7.173  0.00  0.00    +0.000 A 
ENDBRANCH   1   6
BRANCH   1   9
ATOM      9  C   UNL     1      -3.466  22.504  -8.037  0.00  0.00    +0.000 C 
BRANCH   9  10
ATOM     10  C   UNL     1      -3.277  23.153  -6.644  0.00  0.00    +0.000 C 
ATOM     11  C   UNL     1      -2.593  24.509  -6.763  0.00  0.00    +0.000 C 
BRANCH  10  12
ATOM     12  O   UNL     1      -4.540  23.348  -5.992  0.00  0.00    +0.000 OA
ATOM     13  H   UNL     1      -4.676  24.303  -5.878  0.00  0.00    +0.000 HD
ENDBRANCH  10  12
ENDBRANCH   9  10
ENDBRANCH   1   9
BRANCH   1  14
ATOM     14  C   UNL     1      -1.892  22.322  -9.973  0.00  0.00    +0.000 C 
BRANCH  14  15
ATOM     15  C   UNL     1      -1.395  23.784 -10.068  0.00  0.00    +0.000 C 
ATOM     16  C   UNL     1       0.043  23.960  -9.592  0.00  0.00    +0.000 C 
BRANCH  15  17
ATOM     17  O   UNL     1      -1.484  24.286 -11.401  0.00  0.00    +0.000 OA
ATOM     18  H   UNL     1      -1.341  25.250 -11.318  0.00  0.00    +0.000 HD
ENDBRANCH  15  17
ENDBRANCH  14  15
ENDBRANCH   1  14
TORSDOF 7
ENDMDL
MODEL 7
REMARK VINA RESULT:    -4.372      2.467      5.587
REMARK INTER + INTRA:          -6.356
REMARK INTER:                  -6.068
REMARK INTRA:                  -0.288
REMARK UNBOUND:                -0.451
REMARK  Name = 
REMARK  10 active torsions:
REMARK  status: ('A' for Active; 'I' for Inactive)
REMARK    1  A    between atoms: C_1  and  C_2
REMARK    2  A    between atoms: C_5  and  N_8
REMARK    3  A    between atoms: N_8  and  C_9
REMARK    4  A    between atoms: N_8  and  C_13
REMARK    5  A    between atoms: C_9  and  C_10
REMARK    6  A    between atoms: C_10  and  C_11
REMARK    7  A    between atoms: C_10  and  O_12
REMARK    8  A    between atoms: C_13  and  C_14
REMARK    9  A    between atoms: C_14  and  C_15
REMARK   10  A    between atoms: C_14  and  O_16
REMARK                            x       y       z     vdW  Elec       q    Type
REMARK                         _______ _______ _______ _____ _____    ______ ____
ROOT
ATOM      1  N   UNL     1      -2.684  20.918  -7.742  0.00  0.00    +0.000 N 
ENDROOT
BRANCH   1   6
ATOM      2  C   UNL     1      -4.837  16.508  -4.702  0.00  0.00    +0.000 C 
ATOM      3  C   UNL     1      -4.279  17.639  -5.512  0.00  0.00    +0.000 A 
ATOM      4  C   UNL     1      -2.906  17.807  -5.653  0.00  0.00    +0.000 A 
ATOM      5  C   UNL     1      -2.388  18.886  -6.388  0.00  0.00    +0.000 A 
ATOM      6  C   UNL     1      -3.206  19.856  -6.994  0.00  0.00    +0.000 A 
ATOM      7  C   UNL     1      -4.589  19.653  -6.833  0.00  0.00    +0.000 A 
ATOM      8  C   UNL     1      -5.120  18.577  -6.102  0.00  0.00    +0.000 A 
ENDBRANCH   1   6
BRANCH   1   9
ATOM      9  C   UNL     1      -3.420  22.203  -7.824  0.00  0.00    +0.000 C 
BRANCH   9  10
ATOM     10  C   UNL     1      -3.271  23.063  -6.546  0.00  0.00    +0.000 C 
ATOM     11  C   UNL     1      -2.644  24.414  -6.868  0.00  0.00    +0.000 C 
BRANCH  10  12
ATOM     12  O   UNL     1      -4.546  23.300  -5.933  0.00  0.00    +0.000 OA
ATOM     13  H   UNL     1      -5.191  22.695  -6.336  0.00  0.00    +0.000 HD
ENDBRANCH  10  12
ENDBRANCH   9  10
ENDBRANCH   1   9
BRANCH   1  14
ATOM     14  C   UNL     1      -1.719  20.680  -8.847  0.00  0.00    +0.000 C 
BRANCH  14  15
ATOM     15  C   UNL     1      -0.251  20.848  -8.387  0.00  0.00    +0.000 C 
ATOM     16  C   UNL     1      -0.112  21.679  -7.116  0.00  0.00    +0.000 C 
BRANCH  15  17
ATOM     17  O   UNL     1       0.378  19.588  -8.161  0.00  0.00    +0.000 OA
ATOM     18  H   UNL     1      -0.298  19.045  -7.709  0.00  0.00    +0.000 HD
ENDBRANCH  15  17
ENDBRANCH  14  15
ENDBRANCH   1  14
TORSDOF 7
ENDMDL
MODEL 8
REMARK VINA RESULT:    -4.372      1.841      2.166
REMARK INTER + INTRA:          -6.356
REMARK INTER:                  -5.802
REMARK INTRA:                  -0.555
REMARK UNBOUND:                -0.451
REMARK  Name = 
REMARK  10 active torsions:
REMARK  status: ('A' for Active; 'I' for Inactive)
REMARK    1  A    between atoms: C_1  and  C_2
REMARK    2  A    between atoms: C_5  and  N_8
REMARK    3  A    between atoms: N_8  and  C_9
REMARK    4  A    between atoms: N_8  and  C_13
REMARK    5  A    between atoms: C_9  and  C_10
REMARK    6  A    between atoms: C_10  and  C_11
REMARK    7  A    between atoms: C_10  and  O_12
REMARK    8  A    between atoms: C_13  and  C_14
REMARK    9  A    between atoms: C_14  and  C_15
REMARK   10  A    between atoms: C_14  and  O_16
REMARK                            x       y       z     vdW  Elec       q    Type
REMARK                         _______ _______ _______ _____ _____    ______ ____
ROOT
ATOM      1  N   UNL     1      -2.612  20.067  -5.906  0.00  0.00    +0.000 N 
ENDROOT
BRANCH   1   6
ATOM      2  C   UNL     1       0.351  23.765  -9.204  0.00  0.00    +0.000 C 
ATOM      3  C   UNL     1      -0.438  22.820  -8.350  0.00  0.00    +0.000 A 
ATOM      4  C   UNL     1      -0.428  22.932  -6.964  0.00  0.00    +0.000 A 
ATOM      5  C   UNL     1      -1.145  22.025  -6.167  0.00  0.00    +0.000 A 
ATOM      6  C   UNL     1      -1.883  20.956  -6.706  0.00  0.00    +0.000 A 
ATOM      7  C   UNL     1      -1.873  20.875  -8.111  0.00  0.00    +0.000 A 
ATOM      8  C   UNL     1      -1.161  21.776  -8.919  0.00  0.00    +0.000 A 
ENDBRANCH   1   6
BRANCH   1   9
ATOM      9  C   UNL     1      -2.571  18.612  -6.185  0.00  0.00    +0.000 C 
BRANCH   9  10
ATOM     10  C   UNL     1      -3.779  17.851  -5.584  0.00  0.00    +0.000 C 
ATOM     11  C   UNL     1      -4.588  17.164  -6.677  0.00  0.00    +0.000 C 
BRANCH  10  12
ATOM     12  O   UNL     1      -3.345  16.848  -4.655  0.00  0.00    +0.000 OA
ATOM     13  H   UNL     1      -3.147  17.285  -3.811  0.00  0.00    +0.000 HD
ENDBRANCH  10  12
ENDBRANCH   9  10
ENDBRANCH   1   9
BRANCH   1  14
ATOM     14  C   UNL     1      -3.798  20.522  -5.135  0.00  0.00    +0.000 C 
BRANCH  14  15
ATOM     15  C   UNL     1      -4.620  21.586  -5.901  0.00  0.00    +0.000 C 
ATOM     16  C   UNL     1      -5.675  20.982  -6.820  0.00  0.00    +0.000 C 
BRANCH  15  17
ATOM     17  O   UNL     1      -5.274  22.489  -5.010  0.00  0.00    +0.000 OA
ATOM     18  H   UNL     1      -4.997  23.380  -5.304  0.00  0.00    +0.000 HD
ENDBRANCH  15  17
ENDBRANCH  14  15
ENDBRANCH   1  14
TORSDOF 7
ENDMDL
MODEL 9
REMARK VINA RESULT:    -4.321      3.965      6.313
REMARK INTER + INTRA:          -6.287
REMARK INTER:                  -5.808
REMARK INTRA:                  -0.479
REMARK UNBOUND:                -0.451
REMARK  Name = 
REMARK  10 active torsions:
REMARK  status: ('A' for Active; 'I' for Inactive)
REMARK    1  A    between atoms: C_1  and  C_2
REMARK    2  A    between atoms: C_5  and  N_8
REMARK    3  A    between atoms: N_8  and  C_9
REMARK    4  A    between atoms: N_8  and  C_13
REMARK    5  A    between atoms: C_9  and  C_10
REMARK    6  A    between atoms: C_10  and  C_11
REMARK    7  A    between atoms: C_10  and  O_12
REMARK    8  A    between atoms: C_13  and  C_14
REMARK    9  A    between atoms: C_14  and  C_15
REMARK   10  A    between atoms: C_14  and  O_16
REMARK                            x       y       z     vdW  Elec       q    Type
REMARK                         _______ _______ _______ _____ _____    ______ ____
ROOT
ATOM      1  N   UNL     1      -0.585  21.812  -9.259  0.00  0.00    +0.000 N 
ENDROOT
BRANCH   1   6
ATOM      2  C   UNL     1      -1.488  17.245  -5.846  0.00  0.00    +0.000 C 
ATOM      3  C   UNL     1      -1.261  18.445  -6.714  0.00  0.00    +0.000 A 
ATOM      4  C   UNL     1      -2.261  18.915  -7.558  0.00  0.00    +0.000 A 
ATOM      5  C   UNL     1      -2.033  20.023  -8.391  0.00  0.00    +0.000 A 
ATOM      6  C   UNL     1      -0.799  20.697  -8.441  0.00  0.00    +0.000 A 
ATOM      7  C   UNL     1       0.188  20.195  -7.572  0.00  0.00    +0.000 A 
ATOM      8  C   UNL     1      -0.028  19.090  -6.733  0.00  0.00    +0.000 A 
ENDBRANCH   1   6
BRANCH   1   9
ATOM      9  C   UNL     1      -0.734  23.180  -8.706  0.00  0.00    +0.000 C 
BRANCH   9  10
ATOM     10  C   UNL     1      -2.212  23.570  -8.460  0.00  0.00    +0.000 C 
ATOM     11  C   UNL     1      -2.444  23.928  -6.997  0.00  0.00    +0.000 C 
BRANCH  10  12
ATOM     12  O   UNL     1      -2.587  24.700  -9.259  0.00  0.00    +0.000 OA
ATOM     13  H   UNL     1      -1.801  24.997  -9.748  0.00  0.00    +0.000 HD
ENDBRANCH  10  12
ENDBRANCH   9  10
ENDBRANCH   1   9
BRANCH   1  14
ATOM     14  C   UNL     1      -0.714  21.719 -10.736  0.00  0.00    +0.000 C 
BRANCH  14  15
ATOM     15  C   UNL     1      -0.066  20.431 -11.299  0.00  0.00    +0.000 C 
ATOM     16  C   UNL     1      -0.951  19.704 -12.305  0.00  0.00    +0.000 C 
BRANCH  15  17
ATOM     17  O   UNL     1       1.186  20.702 -11.927  0.00  0.00    +0.000 OA
ATOM     18  H   UNL     1       1.374  19.909 -12.469  0.00  0.00    +0.000 HD
ENDBRANCH  15  17
ENDBRANCH  14  15
ENDBRANCH   1  14
TORSDOF 7
ENDMDL
