MODEL 1
REMARK VINA RESULT:    -3.590      0.000      0.000
REMARK INTER + INTRA:          -3.957
REMARK INTER:                  -3.905
REMARK INTRA:                  -0.052
REMARK UNBOUND:                -0.052
REMARK  Name = 
REMARK  3 active torsions:
REMARK  status: ('A' for Active; 'I' for Inactive)
REMARK    1  A    between atoms: C_1  and  O_2
REMARK    2  A    between atoms: O_2  and  C_3
REMARK    3  A    between atoms: C_8  and  O_9
REMARK                            x       y       z     vdW  Elec       q    Type
REMARK                         _______ _______ _______ _____ _____    ______ ____
ROOT
ATOM      1  C   UNL     1      -0.175  21.769  -7.863  0.00  0.00    +0.000 A 
ATOM      2  C   UNL     1      -0.304  22.094  -6.514  0.00  0.00    +0.000 A 
ATOM      3  C   UNL     1      -0.055  21.125  -5.534  0.00  0.00    +0.000 A 
ATOM      4  C   UNL     1       0.321  19.830  -5.898  0.00  0.00    +0.000 A 
ATOM      5  C   UNL     1       0.453  19.498  -7.244  0.00  0.00    +0.000 A 
ATOM      6  C   UNL     1       0.204  20.466  -8.209  0.00  0.00    +0.000 A 
ENDROOT
BRANCH   1   8
ATOM      7  C   UNL     1       0.471  23.743  -9.017  0.00  0.00    +0.000 C 
ATOM      8  O   UNL     1      -0.387  22.612  -8.925  0.00  0.00    +0.000 OA
ENDBRANCH   1   8
BRANCH   6   9
ATOM      9  O   UNL     1       0.339  20.115  -9.526  0.00  0.00    +0.000 OA
ATOM     10  H   UNL     1       0.973  19.373  -9.521  0.00  0.00    +0.000 HD
ENDBRANCH   6   9
TORSDOF 2
ENDMDL
MODEL 2
REMARK VINA RESULT:    -3.485      2.943      3.533
REMARK INTER + INTRA:          -3.843
REMARK INTER:                  -3.796
REMARK INTRA:                  -0.048
REMARK UNBOUND:                -0.052
REMARK  Name = 
REMARK  3 active torsions:
REMARK  status: ('A' for Active; 'I' for Inactive)
REMARK    1  A    between atoms: C_1  and  O_2
REMARK    2  A    between atoms: O_2  and  C_3
REMARK    3  A    between atoms: C_8  and  O_9
REMARK                            x       y       z     vdW  Elec       q    Type
REMARK                         _______ _______ _______ _____ _____    ______ ____
ROOT
ATOM      1  C   UNL     1      -0.881  19.158  -6.623  0.00  0.00    +0.000 A 
ATOM      2  C   UNL     1      -1.920  20.016  -6.267  0.00  0.00    +0.000 A 
ATOM      3  C   UNL     1      -3.099  19.497  -5.717  0.00  0.00    +0.000 A 
ATOM      4  C   UNL     1      -3.244  18.122  -5.522  0.00  0.00    +0.000 A 
ATOM      5  C   UNL     1      -2.210  17.258  -5.876  0.00  0.00    +0.000 A 
ATOM      6  C   UNL     1      -1.045  17.782  -6.421  0.00  0.00    +0.000 A 
ENDROOT
BRANCH   1   8
ATOM      7  C   UNL     1       0.271  20.415  -8.278  0.00  0.00    +0.000 C 
ATOM      8  O   UNL     1       0.322  19.524  -7.170  0.00  0.00    +0.000 OA
ENDBRANCH   1   8
BRANCH   6   9
ATOM      9  O   UNL     1      -0.043  16.912  -6.760  0.00  0.00    +0.000 OA
ATOM     10  H   UNL     1      -0.479  16.041  -6.820  0.00  0.00    +0.000 HD
ENDBRANCH   6   9
TORSDOF 2
ENDMDL
MODEL 3
REMARK VINA RESULT:    -3.442      3.015      4.260
REMARK INTER + INTRA:          -3.796
REMARK INTER:                  -3.750
REMARK INTRA:                  -0.046
REMARK UNBOUND:                -0.052
REMARK  Name = 
REMARK  3 active torsions:
REMARK  status: ('A' for Active; 'I' for Inactive)
REMARK    1  A    between atoms: C_1  and  O_2
REMARK    2  A    between atoms: O_2  and  C_3
REMARK    3  A    between atoms: C_8  and  O_9
REMARK                            x       y       z     vdW  Elec       q    Type
REMARK                         _______ _______ _______ _____ _____    ______ ____
ROOT
ATOM      1  C   UNL     1      -1.850  18.572  -6.279  0.00  0.00    +0.000 A 
ATOM      2  C   UNL     1      -2.386  19.811  -5.931  0.00  0.00    +0.000 A 
ATOM      3  C   UNL     1      -1.572  20.950  -5.930  0.00  0.00    +0.000 A 
ATOM      4  C   UNL     1      -0.222  20.856  -6.276  0.00  0.00    +0.000 A 
ATOM      5  C   UNL     1       0.321  19.622  -6.626  0.00  0.00    +0.000 A 
ATOM      6  C   UNL     1      -0.494  18.497  -6.623  0.00  0.00    +0.000 A 
ENDROOT
BRANCH   1   8
ATOM      7  C   UNL     1      -3.403  17.107  -5.236  0.00  0.00    +0.000 C 
ATOM      8  O   UNL     1      -2.526  17.379  -6.322  0.00  0.00    +0.000 OA
ENDBRANCH   1   8
BRANCH   6   9
ATOM      9  O   UNL     1       0.062  17.295  -6.971  0.00  0.00    +0.000 OA
ATOM     10  H   UNL     1       0.270  17.383  -7.921  0.00  0.00    +0.000 HD
ENDBRANCH   6   9
TORSDOF 2
ENDMDL
MODEL 4
REMARK VINA RESULT:    -3.438      4.595      5.250
REMARK INTER + INTRA:          -3.792
REMARK INTER:                  -3.753
REMARK INTRA:                  -0.039
REMARK UNBOUND:                -0.052
REMARK  Name = 
REMARK  3 active torsions:
REMARK  status: ('A' for Active; 'I' for Inactive)
REMARK    1  A    between atoms: C_1  and  O_2
REMARK    2  A    between atoms: O_2  and  C_3
REMARK    3  A    between atoms: C_8  and  O_9
REMARK                            x       y       z     vdW  Elec       q    Type
REMARK                         _______ _______ _______ _____ _____    ______ ____
ROOT
ATOM      1  C   UNL     1      -3.508  18.737  -5.676  0.00  0.00    +0.000 A 
ATOM      2  C   UNL     1      -2.653  19.562  -6.405  0.00  0.00    +0.000 A 
ATOM      3  C   UNL     1      -1.365  19.120  -6.731  0.00  0.00    +0.000 A 
ATOM      4  C   UNL     1      -0.927  17.856  -6.331  0.00  0.00    +0.000 A 
ATOM      5  C   UNL     1      -1.776  17.026  -5.603  0.00  0.00    +0.000 A 
ATOM      6  C   UNL     1      -3.052  17.473  -5.283  0.00  0.00    +0.000 A 
ENDROOT
BRANCH   1   8
ATOM      7  C   UNL     1      -5.137  20.417  -5.260  0.00  0.00    +0.000 C 
ATOM      8  O   UNL     1      -4.789  19.038  -5.286  0.00  0.00    +0.000 OA
ENDBRANCH   1   8
BRANCH   6   9
ATOM      9  O   UNL     1      -3.868  16.639  -4.566  0.00  0.00    +0.000 OA
ATOM     10  H   UNL     1      -3.279  16.217  -3.911  0.00  0.00    +0.000 HD
ENDBRANCH   6   9
TORSDOF 2
ENDMDL
MODEL 5
REMARK VINA RESULT:    -3.425      1.123      2.329
REMARK INTER + INTRA:          -3.778
REMARK INTER:                  -3.741
REMARK INTRA:                  -0.037
REMARK UNBOUND:                -0.052
REMARK  Name = 
REMARK  3 active torsions:
REMARK  status: ('A' for Active; 'I' for Inactive)
REMARK    1  A    between atoms: C_1  and  O_2
REMARK    2  A    between atoms: O_2  and  C_3
REMARK    3  A    between atoms: C_8  and  O_9
REMARK                            x       y       z     vdW  Elec       q    Type
REMARK                         _______ _______ _______ _____ _____    ______ ____
ROOT
ATOM      1  C   UNL     1      -0.117  21.752  -7.937  0.00  0.00    +0.000 A 
ATOM      2  C   UNL     1       0.319  20.460  -8.227  0.00  0.00    +0.000 A 
ATOM      3  C   UNL     1       0.451  19.518  -7.199  0.00  0.00    +0.000 A 
ATOM      4  C   UNL     1       0.148  19.864  -5.880  0.00  0.00    +0.000 A 
ATOM      5  C   UNL     1      -0.289  21.152  -5.583  0.00  0.00    +0.000 A 
ATOM      6  C   UNL     1      -0.416  22.080  -6.609  0.00  0.00    +0.000 A 
ENDROOT
BRANCH   1   8
ATOM      7  C   UNL     1      -0.007  22.469 -10.200  0.00  0.00    +0.000 C 
ATOM      8  O   UNL     1      -0.291  22.771  -8.839  0.00  0.00    +0.000 OA
ENDBRANCH   1   8
BRANCH   6   9
ATOM      9  O   UNL     1      -0.847  23.340  -6.292  0.00  0.00    +0.000 OA
ATOM     10  H   UNL     1      -1.054  23.755  -7.150  0.00  0.00    +0.000 HD
ENDBRANCH   6   9
TORSDOF 2
ENDMDL
MODEL 6
REMARK VINA RESULT:    -3.410      2.882      3.875
REMARK INTER + INTRA:          -3.761
REMARK INTER:                  -3.720
REMARK INTRA:                  -0.041
REMARK UNBOUND:                -0.052
REMARK  Name = 
REMARK  3 active torsions:
REMARK  status: ('A' for Active; 'I' for Inactive)
REMARK    1  A    between atoms: C_1  and  O_2
REMARK    2  A    between atoms: O_2  and  C_3
REMARK    3  A    between atoms: C_8  and  O_9
REMARK                            x       y       z     vdW  Elec       q    Type
REMARK                         _______ _______ _______ _____ _____    ______ ____
ROOT
ATOM      1  C   UNL     1      -2.138  20.040  -5.930  0.00  0.00    +0.000 A 
ATOM      2  C   UNL     1      -2.499  18.707  -6.120  0.00  0.00    +0.000 A 
ATOM      3  C   UNL     1      -1.516  17.748  -6.393  0.00  0.00    +0.000 A 
ATOM      4  C   UNL     1      -0.172  18.116  -6.477  0.00  0.00    +0.000 A 
ATOM      5  C   UNL     1       0.197  19.446  -6.287  0.00  0.00    +0.000 A 
ATOM      6  C   UNL     1      -0.785  20.390  -6.018  0.00  0.00    +0.000 A 
ENDROOT
BRANCH   1   8
ATOM      7  C   UNL     1      -4.173  20.760  -4.937  0.00  0.00    +0.000 C 
ATOM      8  O   UNL     1      -2.990  21.081  -5.659  0.00  0.00    +0.000 OA
ENDBRANCH   1   8
BRANCH   6   9
ATOM      9  O   UNL     1      -0.398  21.691  -5.836  0.00  0.00    +0.000 OA
ATOM     10  H   UNL     1      -1.219  22.164  -5.600  0.00  0.00    +0.000 HD
ENDBRANCH   6   9
TORSDOF 2
ENDMDL
MODEL 7
REMARK VINA RESULT:    -3.401     15.070     16.210
REMARK INTER + INTRA:          -3.751
REMARK INTER:                  -3.698
REMARK INTRA:                  -0.053
REMARK UNBOUND:                -0.052
REMARK  Name = 
REMARK  3 active torsions:
REMARK  status: ('A' for Active; 'I' for Inactive)
REMARK    1  A    between atoms: C_1  and  O_2
REMARK    2  A    between atoms: O_2  and  C_3
REMARK    3  A    between atoms: C_8  and  O_9
REMARK                            x       y       z     vdW  Elec       q    Type
REMARK                         _______ _______ _______ _____ _____    ______ ____
ROOT
ATOM      1  C   UNL     1       7.862  21.195   6.651  0.00  0.00    +0.000 A 
ATOM      2  C   UNL     1       9.146  21.473   7.117  0.00  0.00    +0.000 A 
ATOM      3  C   UNL     1      10.053  22.162   6.302  0.00  0.00    +0.000 A 
ATOM      4  C   UNL     1       9.681  22.574   5.021  0.00  0.00    +0.000 A 
ATOM      5  C   UNL     1       8.400  22.300   4.548  0.00  0.00    +0.000 A 
ATOM      6  C   UNL     1       7.507  21.616   5.363  0.00  0.00    +0.000 A 
ENDROOT
BRANCH   1   8
ATOM      7  C   UNL     1       7.112  19.155   7.612  0.00  0.00    +0.000 C 
ATOM      8  O   UNL     1       6.877  20.531   7.336  0.00  0.00    +0.000 OA
ENDBRANCH   1   8
BRANCH   6   9
ATOM      9  O   UNL     1       6.254  21.358   4.876  0.00  0.00    +0.000 OA
ATOM     10  H   UNL     1       5.684  22.037   5.284  0.00  0.00    +0.000 HD
ENDBRANCH   6   9
TORSDOF 2
ENDMDL
MODEL 8
REMARK VINA RESULT:    -3.344      3.855      4.646
REMARK INTER + INTRA:          -3.689
REMARK INTER:                  -3.651
REMARK INTRA:                  -0.038
REMARK UNBOUND:                -0.052
REMARK  Name = 
REMARK  3 active torsions:
REMARK  status: ('A' for Active; 'I' for Inactive)
REMARK    1  A    between atoms: C_1  and  O_2
REMARK    2  A    between atoms: O_2  and  C_3
REMARK    3  A    between atoms: C_8  and  O_9
REMARK                            x       y       z     vdW  Elec       q    Type
REMARK                         _______ _______ _______ _____ _____    ______ ____
ROOT
ATOM      1  C   UNL     1      -2.909  21.597  -6.048  0.00  0.00    +0.000 A 
ATOM      2  C   UNL     1      -2.550  20.256  -5.921  0.00  0.00    +0.000 A 
ATOM      3  C   UNL     1      -3.523  19.300  -5.602  0.00  0.00    +0.000 A 
ATOM      4  C   UNL     1      -4.852  19.679  -5.410  0.00  0.00    +0.000 A 
ATOM      5  C   UNL     1      -5.218  21.017  -5.536  0.00  0.00    +0.000 A 
ATOM      6  C   UNL     1      -4.247  21.959  -5.852  0.00  0.00    +0.000 A 
ENDROOT
BRANCH   1   8
ATOM      7  C   UNL     1      -0.672  22.359  -6.303  0.00  0.00    +0.000 C 
ATOM      8  O   UNL     1      -2.066  22.636  -6.354  0.00  0.00    +0.000 OA
ENDBRANCH   1   8
BRANCH   6   9
ATOM      9  O   UNL     1      -4.631  23.268  -5.971  0.00  0.00    +0.000 OA
ATOM     10  H   UNL     1      -3.931  23.774  -5.515  0.00  0.00    +0.000 HD
ENDBRANCH   6   9
TORSDOF 2
ENDMDL
MODEL 9
REMARK VINA RESULT:    -3.249      3.359      4.657
REMARK INTER + INTRA:          -3.587
REMARK INTER:                  -3.547
REMARK INTRA:                  -0.039
REMARK UNBOUND:                -0.052
REMARK  Name = 
REMARK  3 active torsions:
REMARK  status: ('A' for Active; 'I' for Inactive)
REMARK    1  A    between atoms: C_1  and  O_2
REMARK    2  A    between atoms: O_2  and  C_3
REMARK    3  A    between atoms: C_8  and  O_9
REMARK                            x       y       z     vdW  Elec       q    Type
REMARK                         _______ _______ _______ _____ _____    ______ ____
ROOT
ATOM      1  C   UNL     1      -2.442  18.913  -6.043  0.00  0.00    +0.000 A 
ATOM      2  C   UNL     1      -1.496  17.918  -6.286  0.00  0.00    +0.000 A 
ATOM      3  C   UNL     1      -0.146  18.257  -6.438  0.00  0.00    +0.000 A 
ATOM      4  C   UNL     1       0.263  19.589  -6.349  0.00  0.00    +0.000 A 
ATOM      5  C   UNL     1      -0.675  20.589  -6.106  0.00  0.00    +0.000 A 
ATOM      6  C   UNL     1      -2.012  20.244  -5.957  0.00  0.00    +0.000 A 
ENDROOT
BRANCH   1   8
ATOM      7  C   UNL     1      -4.209  17.422  -5.495  0.00  0.00    +0.000 C 
ATOM      8  O   UNL     1      -3.790  18.727  -5.875  0.00  0.00    +0.000 OA
ENDBRANCH   1   8
BRANCH   6   9
ATOM      9  O   UNL     1      -2.916  21.244  -5.719  0.00  0.00    +0.000 OA
ATOM     10  H   UNL     1      -2.920  21.350  -4.748  0.00  0.00    +0.000 HD
ENDBRANCH   6   9
TORSDOF 2
ENDMDL
