MODEL 1
REMARK VINA RESULT:    -4.002      0.000      0.000
REMARK INTER + INTRA:          -4.391
REMARK INTER:                  -4.353
REMARK INTRA:                  -0.037
REMARK UNBOUND:                -0.037
REMARK  Name = 
REMARK  3 active torsions:
REMARK  status: ('A' for Active; 'I' for Inactive)
REMARK    1  A    between atoms: C_1  and  O_2
REMARK    2  A    between atoms: O_2  and  C_3
REMARK    3  A    between atoms: C_8  and  O_9
REMARK                            x       y       z     vdW  Elec       q    Type
REMARK                         _______ _______ _______ _____ _____    ______ ____
ROOT
ATOM      1  C   UNL     1      -5.478   1.784 -20.150  0.00  0.00    +0.000 A 
ATOM      2  C   UNL     1      -5.740   0.496 -20.615  0.00  0.00    +0.000 A 
ATOM      3  C   UNL     1      -5.886  -0.560 -19.707  0.00  0.00    +0.000 A 
ATOM      4  C   UNL     1      -5.770  -0.334 -18.334  0.00  0.00    +0.000 A 
ATOM      5  C   UNL     1      -5.509   0.950 -17.862  0.00  0.00    +0.000 A 
ATOM      6  C   UNL     1      -5.365   1.992 -18.770  0.00  0.00    +0.000 A 
ENDROOT
BRANCH   1   8
ATOM      7  C   UNL     1      -5.411   2.729 -22.329  0.00  0.00    +0.000 C 
ATOM      8  O   UNL     1      -5.312   2.906 -20.921  0.00  0.00    +0.000 OA
ENDBRANCH   1   8
BRANCH   6   9
ATOM      9  O   UNL     1      -5.109   3.245 -18.282  0.00  0.00    +0.000 OA
ATOM     10  H   UNL     1      -5.899   3.473 -17.755  0.00  0.00    +0.000 HD
ENDBRANCH   6   9
TORSDOF 2
ENDMDL
MODEL 2
REMARK VINA RESULT:    -3.991      2.285      3.125
REMARK INTER + INTRA:          -4.379
REMARK INTER:                  -4.332
REMARK INTRA:                  -0.047
REMARK UNBOUND:                -0.037
REMARK  Name = 
REMARK  3 active torsions:
REMARK  status: ('A' for Active; 'I' for Inactive)
REMARK    1  A    between atoms: C_1  and  O_2
REMARK    2  A    between atoms: O_2  and  C_3
REMARK    3  A    between atoms: C_8  and  O_9
REMARK                            x       y       z     vdW  Elec       q    Type
REMARK                         _______ _______ _______ _____ _____    ______ ____
ROOT
ATOM      1  C   UNL     1      -6.326   0.079 -19.454  0.00  0.00    +0.000 A 
ATOM      2  C   UNL     1      -6.005   1.078 -20.372  0.00  0.00    +0.000 A 
ATOM      3  C   UNL     1      -5.293   2.209 -19.955  0.00  0.00    +0.000 A 
ATOM      4  C   UNL     1      -4.901   2.347 -18.622  0.00  0.00    +0.000 A 
ATOM      5  C   UNL     1      -5.217   1.354 -17.699  0.00  0.00    +0.000 A 
ATOM      6  C   UNL     1      -5.924   0.235 -18.121  0.00  0.00    +0.000 A 
ENDROOT
BRANCH   1   8
ATOM      7  C   UNL     1      -8.209  -0.942 -20.483  0.00  0.00    +0.000 C 
ATOM      8  O   UNL     1      -7.016  -1.077 -19.720  0.00  0.00    +0.000 OA
ENDBRANCH   1   8
BRANCH   6   9
ATOM      9  O   UNL     1      -6.223  -0.728 -17.195  0.00  0.00    +0.000 OA
ATOM     10  H   UNL     1      -7.155  -0.961 -17.372  0.00  0.00    +0.000 HD
ENDBRANCH   6   9
TORSDOF 2
ENDMDL
MODEL 3
REMARK VINA RESULT:    -3.646      1.279      3.105
REMARK INTER + INTRA:          -4.003
REMARK INTER:                  -3.965
REMARK INTRA:                  -0.038
REMARK UNBOUND:                -0.037
REMARK  Name = 
REMARK  3 active torsions:
REMARK  status: ('A' for Active; 'I' for Inactive)
REMARK    1  A    between atoms: C_1  and  O_2
REMARK    2  A    between atoms: O_2  and  C_3
REMARK    3  A    between atoms: C_8  and  O_9
REMARK                            x       y       z     vdW  Elec       q    Type
REMARK                         _______ _______ _______ _____ _____    ______ ____
ROOT
ATOM      1  C   UNL     1      -5.575   0.856 -19.199  0.00  0.00    +0.000 A 
ATOM      2  C   UNL     1      -5.891   0.102 -20.328  0.00  0.00    +0.000 A 
ATOM      3  C   UNL     1      -5.918   0.709 -21.590  0.00  0.00    +0.000 A 
ATOM      4  C   UNL     1      -5.632   2.068 -21.727  0.00  0.00    +0.000 A 
ATOM      5  C   UNL     1      -5.314   2.829 -20.604  0.00  0.00    +0.000 A 
ATOM      6  C   UNL     1      -5.290   2.218 -19.357  0.00  0.00    +0.000 A 
ENDROOT
BRANCH   1   8
ATOM      7  C   UNL     1      -6.032  -0.906 -17.672  0.00  0.00    +0.000 C 
ATOM      8  O   UNL     1      -5.511   0.396 -17.908  0.00  0.00    +0.000 OA
ENDBRANCH   1   8
BRANCH   6   9
ATOM      9  O   UNL     1      -4.976   2.986 -18.267  0.00  0.00    +0.000 OA
ATOM     10  H   UNL     1      -4.882   3.891 -18.620  0.00  0.00    +0.000 HD
ENDBRANCH   6   9
TORSDOF 2
ENDMDL
MODEL 4
REMARK VINA RESULT:    -3.627      2.306      3.034
REMARK INTER + INTRA:          -3.982
REMARK INTER:                  -3.930
REMARK INTRA:                  -0.053
REMARK UNBOUND:                -0.037
REMARK  Name = 
REMARK  3 active torsions:
REMARK  status: ('A' for Active; 'I' for Inactive)
REMARK    1  A    between atoms: C_1  and  O_2
REMARK    2  A    between atoms: O_2  and  C_3
REMARK    3  A    between atoms: C_8  and  O_9
REMARK                            x       y       z     vdW  Elec       q    Type
REMARK                         _______ _______ _______ _____ _____    ______ ____
ROOT
ATOM      1  C   UNL     1      -4.947   0.158 -20.186  0.00  0.00    +0.000 A 
ATOM      2  C   UNL     1      -4.950   1.405 -20.808  0.00  0.00    +0.000 A 
ATOM      3  C   UNL     1      -5.265   2.554 -20.072  0.00  0.00    +0.000 A 
ATOM      4  C   UNL     1      -5.578   2.461 -18.714  0.00  0.00    +0.000 A 
ATOM      5  C   UNL     1      -5.576   1.219 -18.085  0.00  0.00    +0.000 A 
ATOM      6  C   UNL     1      -5.263   0.084 -18.823  0.00  0.00    +0.000 A 
ENDROOT
BRANCH   1   8
ATOM      7  C   UNL     1      -3.323  -1.228 -21.229  0.00  0.00    +0.000 C 
ATOM      8  O   UNL     1      -4.660  -1.045 -20.780  0.00  0.00    +0.000 OA
ENDBRANCH   1   8
BRANCH   6   9
ATOM      9  O   UNL     1      -5.268  -1.126 -18.183  0.00  0.00    +0.000 OA
ATOM     10  H   UNL     1      -5.825  -1.701 -18.742  0.00  0.00    +0.000 HD
ENDBRANCH   6   9
TORSDOF 2
ENDMDL
MODEL 5
REMARK VINA RESULT:    -3.404      2.040      2.646
REMARK INTER + INTRA:          -3.740
REMARK INTER:                  -3.689
REMARK INTRA:                  -0.051
REMARK UNBOUND:                -0.037
REMARK  Name = 
REMARK  3 active torsions:
REMARK  status: ('A' for Active; 'I' for Inactive)
REMARK    1  A    between atoms: C_1  and  O_2
REMARK    2  A    between atoms: O_2  and  C_3
REMARK    3  A    between atoms: C_8  and  O_9
REMARK                            x       y       z     vdW  Elec       q    Type
REMARK                         _______ _______ _______ _____ _____    ______ ____
ROOT
ATOM      1  C   UNL     1      -4.175   1.036 -20.410  0.00  0.00    +0.000 A 
ATOM      2  C   UNL     1      -4.959   1.927 -19.678  0.00  0.00    +0.000 A 
ATOM      3  C   UNL     1      -5.798   1.451 -18.664  0.00  0.00    +0.000 A 
ATOM      4  C   UNL     1      -5.859   0.086 -18.378  0.00  0.00    +0.000 A 
ATOM      5  C   UNL     1      -5.078  -0.811 -19.104  0.00  0.00    +0.000 A 
ATOM      6  C   UNL     1      -4.249  -0.330 -20.108  0.00  0.00    +0.000 A 
ENDROOT
BRANCH   1   8
ATOM      7  C   UNL     1      -3.872   2.051 -22.537  0.00  0.00    +0.000 C 
ATOM      8  O   UNL     1      -3.312   1.360 -21.426  0.00  0.00    +0.000 OA
ENDBRANCH   1   8
BRANCH   6   9
ATOM      9  O   UNL     1      -3.491  -1.230 -20.809  0.00  0.00    +0.000 OA
ATOM     10  H   UNL     1      -2.925  -0.683 -21.385  0.00  0.00    +0.000 HD
ENDBRANCH   6   9
TORSDOF 2
ENDMDL
MODEL 6
REMARK VINA RESULT:    -3.398      1.277      2.000
REMARK INTER + INTRA:          -3.733
REMARK INTER:                  -3.681
REMARK INTRA:                  -0.052
REMARK UNBOUND:                -0.037
REMARK  Name = 
REMARK  3 active torsions:
REMARK  status: ('A' for Active; 'I' for Inactive)
REMARK    1  A    between atoms: C_1  and  O_2
REMARK    2  A    between atoms: O_2  and  C_3
REMARK    3  A    between atoms: C_8  and  O_9
REMARK                            x       y       z     vdW  Elec       q    Type
REMARK                         _______ _______ _______ _____ _____    ______ ____
ROOT
ATOM      1  C   UNL     1      -5.954   0.904 -20.406  0.00  0.00    +0.000 A 
ATOM      2  C   UNL     1      -6.043  -0.089 -19.431  0.00  0.00    +0.000 A 
ATOM      3  C   UNL     1      -5.671   0.192 -18.111  0.00  0.00    +0.000 A 
ATOM      4  C   UNL     1      -5.209   1.462 -17.760  0.00  0.00    +0.000 A 
ATOM      5  C   UNL     1      -5.118   2.459 -18.728  0.00  0.00    +0.000 A 
ATOM      6  C   UNL     1      -5.488   2.172 -20.036  0.00  0.00    +0.000 A 
ENDROOT
BRANCH   1   8
ATOM      7  C   UNL     1      -5.427  -0.053 -22.517  0.00  0.00    +0.000 C 
ATOM      8  O   UNL     1      -6.281   0.771 -21.732  0.00  0.00    +0.000 OA
ENDBRANCH   1   8
BRANCH   6   9
ATOM      9  O   UNL     1      -5.389   3.168 -20.970  0.00  0.00    +0.000 OA
ATOM     10  H   UNL     1      -5.795   2.795 -21.775  0.00  0.00    +0.000 HD
ENDBRANCH   6   9
TORSDOF 2
ENDMDL
MODEL 7
REMARK VINA RESULT:    -3.339      2.027      3.078
REMARK INTER + INTRA:          -3.669
REMARK INTER:                  -3.631
REMARK INTRA:                  -0.038
REMARK UNBOUND:                -0.037
REMARK  Name = 
REMARK  3 active torsions:
REMARK  status: ('A' for Active; 'I' for Inactive)
REMARK    1  A    between atoms: C_1  and  O_2
REMARK    2  A    between atoms: O_2  and  C_3
REMARK    3  A    between atoms: C_8  and  O_9
REMARK                            x       y       z     vdW  Elec       q    Type
REMARK                         _______ _______ _______ _____ _____    ______ ____
ROOT
ATOM      1  C   UNL     1      -5.932   0.616 -19.418  0.00  0.00    +0.000 A 
ATOM      2  C   UNL     1      -4.891   0.452 -20.331  0.00  0.00    +0.000 A 
ATOM      3  C   UNL     1      -5.017  -0.470 -21.377  0.00  0.00    +0.000 A 
ATOM      4  C   UNL     1      -6.180  -1.230 -21.514  0.00  0.00    +0.000 A 
ATOM      5  C   UNL     1      -7.224  -1.072 -20.606  0.00  0.00    +0.000 A 
ATOM      6  C   UNL     1      -7.090  -0.155 -19.571  0.00  0.00    +0.000 A 
ENDROOT
BRANCH   1   8
ATOM      7  C   UNL     1      -4.982   2.524 -18.366  0.00  0.00    +0.000 C 
ATOM      8  O   UNL     1      -5.945   1.477 -18.350  0.00  0.00    +0.000 OA
ENDBRANCH   1   8
BRANCH   6   9
ATOM      9  O   UNL     1      -8.130  -0.017 -18.691  0.00  0.00    +0.000 OA
ATOM     10  H   UNL     1      -7.707   0.202 -17.839  0.00  0.00    +0.000 HD
ENDBRANCH   6   9
TORSDOF 2
ENDMDL
MODEL 8
REMARK VINA RESULT:    -3.127      1.964      3.211
REMARK INTER + INTRA:          -3.439
REMARK INTER:                  -3.394
REMARK INTRA:                  -0.045
REMARK UNBOUND:                -0.037
REMARK  Name = 
REMARK  3 active torsions:
REMARK  status: ('A' for Active; 'I' for Inactive)
REMARK    1  A    between atoms: C_1  and  O_2
REMARK    2  A    between atoms: O_2  and  C_3
REMARK    3  A    between atoms: C_8  and  O_9
REMARK                            x       y       z     vdW  Elec       q    Type
REMARK                         _______ _______ _______ _____ _____    ______ ____
ROOT
ATOM      1  C   UNL     1      -5.149   0.630 -19.943  0.00  0.00    +0.000 A 
ATOM      2  C   UNL     1      -4.396  -0.544 -19.963  0.00  0.00    +0.000 A 
ATOM      3  C   UNL     1      -3.313  -0.666 -20.842  0.00  0.00    +0.000 A 
ATOM      4  C   UNL     1      -2.978   0.381 -21.702  0.00  0.00    +0.000 A 
ATOM      5  C   UNL     1      -3.724   1.557 -21.688  0.00  0.00    +0.000 A 
ATOM      6  C   UNL     1      -4.798   1.670 -20.814  0.00  0.00    +0.000 A 
ENDROOT
BRANCH   1   8
ATOM      7  C   UNL     1      -7.164  -0.174 -18.975  0.00  0.00    +0.000 C 
ATOM      8  O   UNL     1      -6.231   0.887 -19.140  0.00  0.00    +0.000 OA
ENDBRANCH   1   8
BRANCH   6   9
ATOM      9  O   UNL     1      -5.516   2.835 -20.818  0.00  0.00    +0.000 OA
ATOM     10  H   UNL     1      -5.240   3.301 -20.006  0.00  0.00    +0.000 HD
ENDBRANCH   6   9
TORSDOF 2
ENDMDL
MODEL 9
REMARK VINA RESULT:    -3.115     23.728     24.861
REMARK INTER + INTRA:          -3.425
REMARK INTER:                  -3.377
REMARK INTRA:                  -0.048
REMARK UNBOUND:                -0.037
REMARK  Name = 
REMARK  3 active torsions:
REMARK  status: ('A' for Active; 'I' for Inactive)
REMARK    1  A    between atoms: C_1  and  O_2
REMARK    2  A    between atoms: O_2  and  C_3
REMARK    3  A    between atoms: C_8  and  O_9
REMARK                            x       y       z     vdW  Elec       q    Type
REMARK                         _______ _______ _______ _____ _____    ______ ____
ROOT
ATOM      1  C   UNL     1       0.513  19.443  -3.744  0.00  0.00    +0.000 A 
ATOM      2  C   UNL     1       1.641  20.129  -3.295  0.00  0.00    +0.000 A 
ATOM      3  C   UNL     1       2.426  20.853  -4.201  0.00  0.00    +0.000 A 
ATOM      4  C   UNL     1       2.090  20.893  -5.556  0.00  0.00    +0.000 A 
ATOM      5  C   UNL     1       0.964  20.210  -6.012  0.00  0.00    +0.000 A 
ATOM      6  C   UNL     1       0.191  19.495  -5.106  0.00  0.00    +0.000 A 
ENDROOT
BRANCH   1   8
ATOM      7  C   UNL     1       0.254  17.744  -2.103  0.00  0.00    +0.000 C 
ATOM      8  O   UNL     1      -0.343  18.698  -2.974  0.00  0.00    +0.000 OA
ENDBRANCH   1   8
BRANCH   6   9
ATOM      9  O   UNL     1      -0.910  18.832  -5.578  0.00  0.00    +0.000 OA
ATOM     10  H   UNL     1      -0.869  18.940  -6.548  0.00  0.00    +0.000 HD
ENDBRANCH   6   9
TORSDOF 2
ENDMDL
