MODEL 1
REMARK VINA RESULT:    -3.993      0.000      0.000
REMARK INTER + INTRA:          -4.386
REMARK INTER:                  -4.343
REMARK INTRA:                  -0.043
REMARK UNBOUND:                -0.043
REMARK  Name = 
REMARK  3 active torsions:
REMARK  status: ('A' for Active; 'I' for Inactive)
REMARK    1  A    between atoms: C_1  and  O_2
REMARK    2  A    between atoms: O_2  and  C_3
REMARK    3  A    between atoms: C_8  and  O_9
REMARK                            x       y       z     vdW  Elec       q    Type
REMARK                         _______ _______ _______ _____ _____    ______ ____
ROOT
ATOM      1  C   UNL     1       3.691  10.046   4.104  0.00  0.00    +0.000 A 
ATOM      2  C   UNL     1       4.892  10.756   4.085  0.00  0.00    +0.000 A 
ATOM      3  C   UNL     1       6.036  10.180   3.518  0.00  0.00    +0.000 A 
ATOM      4  C   UNL     1       5.985   8.897   2.970  0.00  0.00    +0.000 A 
ATOM      5  C   UNL     1       4.789   8.182   2.984  0.00  0.00    +0.000 A 
ATOM      6  C   UNL     1       3.660   8.761   3.549  0.00  0.00    +0.000 A 
ENDROOT
BRANCH   1   8
ATOM      7  C   UNL     1       2.574  11.284   5.797  0.00  0.00    +0.000 C 
ATOM      8  O   UNL     1       2.499  10.483   4.624  0.00  0.00    +0.000 OA
ENDBRANCH   1   8
BRANCH   6   9
ATOM      9  O   UNL     1       2.496   8.039   3.552  0.00  0.00    +0.000 OA
ATOM     10  H   UNL     1       1.883   8.554   2.994  0.00  0.00    +0.000 HD
ENDBRANCH   6   9
TORSDOF 2
ENDMDL
MODEL 2
REMARK VINA RESULT:    -3.777     19.279     20.567
REMARK INTER + INTRA:          -4.151
REMARK INTER:                  -4.105
REMARK INTRA:                  -0.046
REMARK UNBOUND:                -0.043
REMARK  Name = 
REMARK  3 active torsions:
REMARK  status: ('A' for Active; 'I' for Inactive)
REMARK    1  A    between atoms: C_1  and  O_2
REMARK    2  A    between atoms: O_2  and  C_3
REMARK    3  A    between atoms: C_8  and  O_9
REMARK                            x       y       z     vdW  Elec       q    Type
REMARK                         _______ _______ _______ _____ _____    ______ ____
ROOT
ATOM      1  C   UNL     1      16.336  -6.536   8.236  0.00  0.00    +0.000 A 
ATOM      2  C   UNL     1      17.164  -6.055   7.223  0.00  0.00    +0.000 A 
ATOM      3  C   UNL     1      17.369  -4.677   7.083  0.00  0.00    +0.000 A 
ATOM      4  C   UNL     1      16.749  -3.777   7.952  0.00  0.00    +0.000 A 
ATOM      5  C   UNL     1      15.921  -4.250   8.967  0.00  0.00    +0.000 A 
ATOM      6  C   UNL     1      15.723  -5.618   9.098  0.00  0.00    +0.000 A 
ENDROOT
BRANCH   1   8
ATOM      7  C   UNL     1      17.141  -8.760   8.470  0.00  0.00    +0.000 C 
ATOM      8  O   UNL     1      16.045  -7.853   8.489  0.00  0.00    +0.000 OA
ENDBRANCH   1   8
BRANCH   6   9
ATOM      9  O   UNL     1      14.904  -6.060  10.103  0.00  0.00    +0.000 OA
ATOM     10  H   UNL     1      14.603  -6.941   9.810  0.00  0.00    +0.000 HD
ENDBRANCH   6   9
TORSDOF 2
ENDMDL
MODEL 3
REMARK VINA RESULT:    -3.649     19.033     19.910
REMARK INTER + INTRA:          -4.012
REMARK INTER:                  -3.959
REMARK INTRA:                  -0.053
REMARK UNBOUND:                -0.043
REMARK  Name = 
REMARK  3 active torsions:
REMARK  status: ('A' for Active; 'I' for Inactive)
REMARK    1  A    between atoms: C_1  and  O_2
REMARK    2  A    between atoms: O_2  and  C_3
REMARK    3  A    between atoms: C_8  and  O_9
REMARK                            x       y       z     vdW  Elec       q    Type
REMARK                         _______ _______ _______ _____ _____    ______ ____
ROOT
ATOM      1  C   UNL     1      16.464  -4.921   9.619  0.00  0.00    +0.000 A 
ATOM      2  C   UNL     1      16.810  -3.642  10.054  0.00  0.00    +0.000 A 
ATOM      3  C   UNL     1      17.143  -2.652   9.122  0.00  0.00    +0.000 A 
ATOM      4  C   UNL     1      17.133  -2.934   7.754  0.00  0.00    +0.000 A 
ATOM      5  C   UNL     1      16.788  -4.209   7.312  0.00  0.00    +0.000 A 
ATOM      6  C   UNL     1      16.459  -5.185   8.244  0.00  0.00    +0.000 A 
ENDROOT
BRANCH   1   8
ATOM      7  C   UNL     1      17.145  -6.517  11.241  0.00  0.00    +0.000 C 
ATOM      8  O   UNL     1      16.118  -5.983  10.415  0.00  0.00    +0.000 OA
ENDBRANCH   1   8
BRANCH   6   9
ATOM      9  O   UNL     1      16.124  -6.431   7.784  0.00  0.00    +0.000 OA
ATOM     10  H   UNL     1      16.953  -6.944   7.830  0.00  0.00    +0.000 HD
ENDBRANCH   6   9
TORSDOF 2
ENDMDL
MODEL 4
REMARK VINA RESULT:    -3.615     18.764     19.900
REMARK INTER + INTRA:          -3.975
REMARK INTER:                  -3.936
REMARK INTRA:                  -0.040
REMARK UNBOUND:                -0.043
REMARK  Name = 
REMARK  3 active torsions:
REMARK  status: ('A' for Active; 'I' for Inactive)
REMARK    1  A    between atoms: C_1  and  O_2
REMARK    2  A    between atoms: O_2  and  C_3
REMARK    3  A    between atoms: C_8  and  O_9
REMARK                            x       y       z     vdW  Elec       q    Type
REMARK                         _______ _______ _______ _____ _____    ______ ____
ROOT
ATOM      1  C   UNL     1      16.515  -4.423   8.302  0.00  0.00    +0.000 A 
ATOM      2  C   UNL     1      15.912  -4.654   9.538  0.00  0.00    +0.000 A 
ATOM      3  C   UNL     1      15.705  -5.966   9.981  0.00  0.00    +0.000 A 
ATOM      4  C   UNL     1      16.098  -7.050   9.193  0.00  0.00    +0.000 A 
ATOM      5  C   UNL     1      16.701  -6.827   7.957  0.00  0.00    +0.000 A 
ATOM      6  C   UNL     1      16.902  -5.522   7.525  0.00  0.00    +0.000 A 
ENDROOT
BRANCH   1   8
ATOM      7  C   UNL     1      16.926  -2.108   8.646  0.00  0.00    +0.000 C 
ATOM      8  O   UNL     1      16.778  -3.198   7.744  0.00  0.00    +0.000 OA
ENDBRANCH   1   8
BRANCH   6   9
ATOM      9  O   UNL     1      17.497  -5.329   6.307  0.00  0.00    +0.000 OA
ATOM     10  H   UNL     1      16.788  -4.974   5.738  0.00  0.00    +0.000 HD
ENDBRANCH   6   9
TORSDOF 2
ENDMDL
MODEL 5
REMARK VINA RESULT:    -3.554     19.632     20.892
REMARK INTER + INTRA:          -3.909
REMARK INTER:                  -3.868
REMARK INTRA:                  -0.040
REMARK UNBOUND:                -0.043
REMARK  Name = 
REMARK  3 active torsions:
REMARK  status: ('A' for Active; 'I' for Inactive)
REMARK    1  A    between atoms: C_1  and  O_2
REMARK    2  A    between atoms: O_2  and  C_3
REMARK    3  A    between atoms: C_8  and  O_9
REMARK                            x       y       z     vdW  Elec       q    Type
REMARK                         _______ _______ _______ _____ _____    ______ ____
ROOT
ATOM      1  C   UNL     1      16.324  -6.747   8.622  0.00  0.00    +0.000 A 
ATOM      2  C   UNL     1      15.896  -6.161   9.813  0.00  0.00    +0.000 A 
ATOM      3  C   UNL     1      15.938  -4.769   9.961  0.00  0.00    +0.000 A 
ATOM      4  C   UNL     1      16.407  -3.960   8.924  0.00  0.00    +0.000 A 
ATOM      5  C   UNL     1      16.836  -4.539   7.732  0.00  0.00    +0.000 A 
ATOM      6  C   UNL     1      16.791  -5.920   7.593  0.00  0.00    +0.000 A 
ENDROOT
BRANCH   1   8
ATOM      7  C   UNL     1      17.369  -8.856   8.953  0.00  0.00    +0.000 C 
ATOM      8  O   UNL     1      16.339  -8.090   8.340  0.00  0.00    +0.000 OA
ENDBRANCH   1   8
BRANCH   6   9
ATOM      9  O   UNL     1      17.218  -6.466   6.412  0.00  0.00    +0.000 OA
ATOM     10  H   UNL     1      17.476  -7.380   6.640  0.00  0.00    +0.000 HD
ENDBRANCH   6   9
TORSDOF 2
ENDMDL
MODEL 6
REMARK VINA RESULT:    -3.511     19.976     20.451
REMARK INTER + INTRA:          -3.862
REMARK INTER:                  -3.818
REMARK INTRA:                  -0.044
REMARK UNBOUND:                -0.043
REMARK  Name = 
REMARK  3 active torsions:
REMARK  status: ('A' for Active; 'I' for Inactive)
REMARK    1  A    between atoms: C_1  and  O_2
REMARK    2  A    between atoms: O_2  and  C_3
REMARK    3  A    between atoms: C_8  and  O_9
REMARK                            x       y       z     vdW  Elec       q    Type
REMARK                         _______ _______ _______ _____ _____    ______ ____
ROOT
ATOM      1  C   UNL     1      16.990  -5.597   7.853  0.00  0.00    +0.000 A 
ATOM      2  C   UNL     1      17.280  -4.410   8.525  0.00  0.00    +0.000 A 
ATOM      3  C   UNL     1      16.739  -4.174   9.795  0.00  0.00    +0.000 A 
ATOM      4  C   UNL     1      15.908  -5.121  10.397  0.00  0.00    +0.000 A 
ATOM      5  C   UNL     1      15.614  -6.310   9.733  0.00  0.00    +0.000 A 
ATOM      6  C   UNL     1      16.155  -6.535   8.473  0.00  0.00    +0.000 A 
ENDROOT
BRANCH   1   8
ATOM      7  C   UNL     1      17.498  -4.930   5.630  0.00  0.00    +0.000 C 
ATOM      8  O   UNL     1      17.447  -5.958   6.611  0.00  0.00    +0.000 OA
ENDBRANCH   1   8
BRANCH   6   9
ATOM      9  O   UNL     1      15.852  -7.710   7.840  0.00  0.00    +0.000 OA
ATOM     10  H   UNL     1      15.899  -8.389   8.540  0.00  0.00    +0.000 HD
ENDBRANCH   6   9
TORSDOF 2
ENDMDL
MODEL 7
REMARK VINA RESULT:    -3.466     11.785     12.610
REMARK INTER + INTRA:          -3.813
REMARK INTER:                  -3.773
REMARK INTRA:                  -0.040
REMARK UNBOUND:                -0.043
REMARK  Name = 
REMARK  3 active torsions:
REMARK  status: ('A' for Active; 'I' for Inactive)
REMARK    1  A    between atoms: C_1  and  O_2
REMARK    2  A    between atoms: O_2  and  C_3
REMARK    3  A    between atoms: C_8  and  O_9
REMARK                            x       y       z     vdW  Elec       q    Type
REMARK                         _______ _______ _______ _____ _____    ______ ____
ROOT
ATOM      1  C   UNL     1      13.413  10.132  10.962  0.00  0.00    +0.000 A 
ATOM      2  C   UNL     1      12.795  11.014  11.848  0.00  0.00    +0.000 A 
ATOM      3  C   UNL     1      13.383  11.284  13.090  0.00  0.00    +0.000 A 
ATOM      4  C   UNL     1      14.586  10.674  13.452  0.00  0.00    +0.000 A 
ATOM      5  C   UNL     1      15.209   9.791  12.572  0.00  0.00    +0.000 A 
ATOM      6  C   UNL     1      14.619   9.530  11.342  0.00  0.00    +0.000 A 
ENDROOT
BRANCH   1   8
ATOM      7  C   UNL     1      12.080  10.697   9.078  0.00  0.00    +0.000 C 
ATOM      8  O   UNL     1      12.953   9.776   9.719  0.00  0.00    +0.000 OA
ENDBRANCH   1   8
BRANCH   6   9
ATOM      9  O   UNL     1      15.250   8.659  10.494  0.00  0.00    +0.000 OA
ATOM     10  H   UNL     1      15.769   9.228   9.895  0.00  0.00    +0.000 HD
ENDBRANCH   6   9
TORSDOF 2
ENDMDL
MODEL 8
REMARK VINA RESULT:    -3.437      1.375      3.083
REMARK INTER + INTRA:          -3.781
REMARK INTER:                  -3.733
REMARK INTRA:                  -0.048
REMARK UNBOUND:                -0.043
REMARK  Name = 
REMARK  3 active torsions:
REMARK  status: ('A' for Active; 'I' for Inactive)
REMARK    1  A    between atoms: C_1  and  O_2
REMARK    2  A    between atoms: O_2  and  C_3
REMARK    3  A    between atoms: C_8  and  O_9
REMARK                            x       y       z     vdW  Elec       q    Type
REMARK                         _______ _______ _______ _____ _____    ______ ____
ROOT
ATOM      1  C   UNL     1       4.760   9.298   3.730  0.00  0.00    +0.000 A 
ATOM      2  C   UNL     1       5.496  10.290   4.376  0.00  0.00    +0.000 A 
ATOM      3  C   UNL     1       4.838  11.277   5.121  0.00  0.00    +0.000 A 
ATOM      4  C   UNL     1       3.445  11.278   5.221  0.00  0.00    +0.000 A 
ATOM      5  C   UNL     1       2.703  10.290   4.578  0.00  0.00    +0.000 A 
ATOM      6  C   UNL     1       3.364   9.315   3.841  0.00  0.00    +0.000 A 
ENDROOT
BRANCH   1   8
ATOM      7  C   UNL     1       6.335   7.529   3.543  0.00  0.00    +0.000 C 
ATOM      8  O   UNL     1       5.268   8.276   2.970  0.00  0.00    +0.000 OA
ENDBRANCH   1   8
BRANCH   6   9
ATOM      9  O   UNL     1       2.612   8.355   3.218  0.00  0.00    +0.000 OA
ATOM     10  H   UNL     1       2.739   8.520   2.264  0.00  0.00    +0.000 HD
ENDBRANCH   6   9
TORSDOF 2
ENDMDL
MODEL 9
REMARK VINA RESULT:    -3.333     12.754     13.526
REMARK INTER + INTRA:          -3.668
REMARK INTER:                  -3.618
REMARK INTRA:                  -0.050
REMARK UNBOUND:                -0.043
REMARK  Name = 
REMARK  3 active torsions:
REMARK  status: ('A' for Active; 'I' for Inactive)
REMARK    1  A    between atoms: C_1  and  O_2
REMARK    2  A    between atoms: O_2  and  C_3
REMARK    3  A    between atoms: C_8  and  O_9
REMARK                            x       y       z     vdW  Elec       q    Type
REMARK                         _______ _______ _______ _____ _____    ______ ____
ROOT
ATOM      1  C   UNL     1      14.798  10.055  12.627  0.00  0.00    +0.000 A 
ATOM      2  C   UNL     1      13.827  10.939  13.096  0.00  0.00    +0.000 A 
ATOM      3  C   UNL     1      12.742  11.284  12.281  0.00  0.00    +0.000 A 
ATOM      4  C   UNL     1      12.623  10.749  10.997  0.00  0.00    +0.000 A 
ATOM      5  C   UNL     1      13.589   9.865  10.521  0.00  0.00    +0.000 A 
ATOM      6  C   UNL     1      14.662   9.529  11.336  0.00  0.00    +0.000 A 
ENDROOT
BRANCH   1   8
ATOM      7  C   UNL     1      15.682   9.048  14.589  0.00  0.00    +0.000 C 
ATOM      8  O   UNL     1      15.908   9.632  13.312  0.00  0.00    +0.000 OA
ENDBRANCH   1   8
BRANCH   6   9
ATOM      9  O   UNL     1      15.598   8.658  10.846  0.00  0.00    +0.000 OA
ATOM     10  H   UNL     1      16.158   9.200  10.258  0.00  0.00    +0.000 HD
ENDBRANCH   6   9
TORSDOF 2
ENDMDL
