MODEL 1
REMARK VINA RESULT:    -4.269      0.000      0.000
REMARK INTER + INTRA:          -4.692
REMARK INTER:                  -4.643
REMARK INTRA:                  -0.049
REMARK UNBOUND:                -0.049
REMARK  Name = 
REMARK  3 active torsions:
REMARK  status: ('A' for Active; 'I' for Inactive)
REMARK    1  A    between atoms: C_1  and  O_2
REMARK    2  A    between atoms: O_2  and  C_3
REMARK    3  A    between atoms: C_8  and  O_9
REMARK                            x       y       z     vdW  Elec       q    Type
REMARK                         _______ _______ _______ _____ _____    ______ ____
ROOT
ATOM      1  C   UNL     1      -1.323   0.240  20.882  0.00  0.00    +0.000 A 
ATOM      2  C   UNL     1      -2.400  -0.637  20.765  0.00  0.00    +0.000 A 
ATOM      3  C   UNL     1      -3.046  -0.791  19.532  0.00  0.00    +0.000 A 
ATOM      4  C   UNL     1      -2.620  -0.070  18.415  0.00  0.00    +0.000 A 
ATOM      5  C   UNL     1      -1.544   0.807  18.524  0.00  0.00    +0.000 A 
ATOM      6  C   UNL     1      -0.909   0.954  19.751  0.00  0.00    +0.000 A 
ENDROOT
BRANCH   1   8
ATOM      7  C   UNL     1      -1.347   0.818  23.187  0.00  0.00    +0.000 C 
ATOM      8  O   UNL     1      -0.600   0.490  22.022  0.00  0.00    +0.000 OA
ENDBRANCH   1   8
BRANCH   6   9
ATOM      9  O   UNL     1       0.146   1.823  19.833  0.00  0.00    +0.000 OA
ATOM     10  H   UNL     1      -0.211   2.678  19.525  0.00  0.00    +0.000 HD
ENDBRANCH   6   9
TORSDOF 2
ENDMDL
MODEL 2
REMARK VINA RESULT:    -4.242     17.616     18.573
REMARK INTER + INTRA:          -4.663
REMARK INTER:                  -4.623
REMARK INTRA:                  -0.039
REMARK UNBOUND:                -0.049
REMARK  Name = 
REMARK  3 active torsions:
REMARK  status: ('A' for Active; 'I' for Inactive)
REMARK    1  A    between atoms: C_1  and  O_2
REMARK    2  A    between atoms: O_2  and  C_3
REMARK    3  A    between atoms: C_8  and  O_9
REMARK                            x       y       z     vdW  Elec       q    Type
REMARK                         _______ _______ _______ _____ _____    ______ ____
ROOT
ATOM      1  C   UNL     1      10.938   6.696   8.438  0.00  0.00    +0.000 A 
ATOM      2  C   UNL     1      12.104   6.630   7.677  0.00  0.00    +0.000 A 
ATOM      3  C   UNL     1      12.053   6.159   6.359  0.00  0.00    +0.000 A 
ATOM      4  C   UNL     1      10.840   5.753   5.799  0.00  0.00    +0.000 A 
ATOM      5  C   UNL     1       9.671   5.816   6.553  0.00  0.00    +0.000 A 
ATOM      6  C   UNL     1       9.731   6.284   7.859  0.00  0.00    +0.000 A 
ENDROOT
BRANCH   1   8
ATOM      7  C   UNL     1      12.024   7.064  10.519  0.00  0.00    +0.000 C 
ATOM      8  O   UNL     1      10.839   7.133   9.735  0.00  0.00    +0.000 OA
ENDBRANCH   1   8
BRANCH   6   9
ATOM      9  O   UNL     1       8.568   6.337   8.581  0.00  0.00    +0.000 OA
ATOM     10  H   UNL     1       8.146   5.469   8.436  0.00  0.00    +0.000 HD
ENDBRANCH   6   9
TORSDOF 2
ENDMDL
MODEL 3
REMARK VINA RESULT:    -4.220      2.094      2.700
REMARK INTER + INTRA:          -4.639
REMARK INTER:                  -4.587
REMARK INTRA:                  -0.053
REMARK UNBOUND:                -0.049
REMARK  Name = 
REMARK  3 active torsions:
REMARK  status: ('A' for Active; 'I' for Inactive)
REMARK    1  A    between atoms: C_1  and  O_2
REMARK    2  A    between atoms: O_2  and  C_3
REMARK    3  A    between atoms: C_8  and  O_9
REMARK                            x       y       z     vdW  Elec       q    Type
REMARK                         _______ _______ _______ _____ _____    ______ ____
ROOT
ATOM      1  C   UNL     1      -0.632  -0.652  19.858  0.00  0.00    +0.000 A 
ATOM      2  C   UNL     1      -0.559   0.740  19.852  0.00  0.00    +0.000 A 
ATOM      3  C   UNL     1      -1.475   1.485  19.099  0.00  0.00    +0.000 A 
ATOM      4  C   UNL     1      -2.464   0.844  18.351  0.00  0.00    +0.000 A 
ATOM      5  C   UNL     1      -2.544  -0.546  18.352  0.00  0.00    +0.000 A 
ATOM      6  C   UNL     1      -1.631  -1.278  19.102  0.00  0.00    +0.000 A 
ENDROOT
BRANCH   1   8
ATOM      7  C   UNL     1       0.103  -1.471  21.965  0.00  0.00    +0.000 C 
ATOM      8  O   UNL     1       0.194  -1.505  20.545  0.00  0.00    +0.000 OA
ENDBRANCH   1   8
BRANCH   6   9
ATOM      9  O   UNL     1      -1.730  -2.643  19.087  0.00  0.00    +0.000 OA
ATOM     10  H   UNL     1      -2.600  -2.825  18.685  0.00  0.00    +0.000 HD
ENDBRANCH   6   9
TORSDOF 2
ENDMDL
MODEL 4
REMARK VINA RESULT:    -4.195     17.415     18.927
REMARK INTER + INTRA:          -4.612
REMARK INTER:                  -4.561
REMARK INTRA:                  -0.051
REMARK UNBOUND:                -0.049
REMARK  Name = 
REMARK  3 active torsions:
REMARK  status: ('A' for Active; 'I' for Inactive)
REMARK    1  A    between atoms: C_1  and  O_2
REMARK    2  A    between atoms: O_2  and  C_3
REMARK    3  A    between atoms: C_8  and  O_9
REMARK                            x       y       z     vdW  Elec       q    Type
REMARK                         _______ _______ _______ _____ _____    ______ ____
ROOT
ATOM      1  C   UNL     1      11.255   6.608   7.347  0.00  0.00    +0.000 A 
ATOM      2  C   UNL     1      10.992   6.038   6.102  0.00  0.00    +0.000 A 
ATOM      3  C   UNL     1       9.703   5.581   5.800  0.00  0.00    +0.000 A 
ATOM      4  C   UNL     1       8.675   5.692   6.738  0.00  0.00    +0.000 A 
ATOM      5  C   UNL     1       8.929   6.261   7.983  0.00  0.00    +0.000 A 
ATOM      6  C   UNL     1      10.211   6.711   8.275  0.00  0.00    +0.000 A 
ENDROOT
BRANCH   1   8
ATOM      7  C   UNL     1      12.917   8.298   7.168  0.00  0.00    +0.000 C 
ATOM      8  O   UNL     1      12.463   7.095   7.777  0.00  0.00    +0.000 OA
ENDBRANCH   1   8
BRANCH   6   9
ATOM      9  O   UNL     1      10.437   7.267   9.506  0.00  0.00    +0.000 OA
ATOM     10  H   UNL     1      11.093   7.972   9.343  0.00  0.00    +0.000 HD
ENDBRANCH   6   9
TORSDOF 2
ENDMDL
MODEL 5
REMARK VINA RESULT:    -4.181     18.378     19.976
REMARK INTER + INTRA:          -4.596
REMARK INTER:                  -4.549
REMARK INTRA:                  -0.047
REMARK UNBOUND:                -0.049
REMARK  Name = 
REMARK  3 active torsions:
REMARK  status: ('A' for Active; 'I' for Inactive)
REMARK    1  A    between atoms: C_1  and  O_2
REMARK    2  A    between atoms: O_2  and  C_3
REMARK    3  A    between atoms: C_8  and  O_9
REMARK                            x       y       z     vdW  Elec       q    Type
REMARK                         _______ _______ _______ _____ _____    ______ ____
ROOT
ATOM      1  C   UNL     1      11.642   6.655   6.242  0.00  0.00    +0.000 A 
ATOM      2  C   UNL     1      12.169   7.334   7.340  0.00  0.00    +0.000 A 
ATOM      3  C   UNL     1      11.509   7.288   8.574  0.00  0.00    +0.000 A 
ATOM      4  C   UNL     1      10.323   6.565   8.716  0.00  0.00    +0.000 A 
ATOM      5  C   UNL     1       9.791   5.883   7.625  0.00  0.00    +0.000 A 
ATOM      6  C   UNL     1      10.452   5.935   6.404  0.00  0.00    +0.000 A 
ENDROOT
BRANCH   1   8
ATOM      7  C   UNL     1      12.595   7.856   4.427  0.00  0.00    +0.000 C 
ATOM      8  O   UNL     1      12.178   6.613   4.980  0.00  0.00    +0.000 OA
ENDBRANCH   1   8
BRANCH   6   9
ATOM      9  O   UNL     1       9.909   5.256   5.345  0.00  0.00    +0.000 OA
ATOM     10  H   UNL     1      10.671   4.840   4.900  0.00  0.00    +0.000 HD
ENDBRANCH   6   9
TORSDOF 2
ENDMDL
MODEL 6
REMARK VINA RESULT:    -4.141     17.957     19.303
REMARK INTER + INTRA:          -4.552
REMARK INTER:                  -4.500
REMARK INTRA:                  -0.052
REMARK UNBOUND:                -0.049
REMARK  Name = 
REMARK  3 active torsions:
REMARK  status: ('A' for Active; 'I' for Inactive)
REMARK    1  A    between atoms: C_1  and  O_2
REMARK    2  A    between atoms: O_2  and  C_3
REMARK    3  A    between atoms: C_8  and  O_9
REMARK                            x       y       z     vdW  Elec       q    Type
REMARK                         _______ _______ _______ _____ _____    ______ ____
ROOT
ATOM      1  C   UNL     1      11.339   6.693   7.282  0.00  0.00    +0.000 A 
ATOM      2  C   UNL     1      10.500   6.669   8.396  0.00  0.00    +0.000 A 
ATOM      3  C   UNL     1       9.184   6.209   8.270  0.00  0.00    +0.000 A 
ATOM      4  C   UNL     1       8.701   5.773   7.035  0.00  0.00    +0.000 A 
ATOM      5  C   UNL     1       9.533   5.793   5.918  0.00  0.00    +0.000 A 
ATOM      6  C   UNL     1      10.837   6.252   6.052  0.00  0.00    +0.000 A 
ENDROOT
BRANCH   1   8
ATOM      7  C   UNL     1      12.870   8.492   7.546  0.00  0.00    +0.000 C 
ATOM      8  O   UNL     1      12.644   7.117   7.259  0.00  0.00    +0.000 OA
ENDBRANCH   1   8
BRANCH   6   9
ATOM      9  O   UNL     1      11.636   6.262   4.940  0.00  0.00    +0.000 OA
ATOM     10  H   UNL     1      12.115   7.112   4.986  0.00  0.00    +0.000 HD
ENDBRANCH   6   9
TORSDOF 2
ENDMDL
MODEL 7
REMARK VINA RESULT:    -4.063     24.109     25.283
REMARK INTER + INTRA:          -4.469
REMARK INTER:                  -4.418
REMARK INTRA:                  -0.051
REMARK UNBOUND:                -0.049
REMARK  Name = 
REMARK  3 active torsions:
REMARK  status: ('A' for Active; 'I' for Inactive)
REMARK    1  A    between atoms: C_1  and  O_2
REMARK    2  A    between atoms: O_2  and  C_3
REMARK    3  A    between atoms: C_8  and  O_9
REMARK                            x       y       z     vdW  Elec       q    Type
REMARK                         _______ _______ _______ _____ _____    ______ ____
ROOT
ATOM      1  C   UNL     1      16.040   5.395   3.000  0.00  0.00    +0.000 A 
ATOM      2  C   UNL     1      17.270   5.141   2.395  0.00  0.00    +0.000 A 
ATOM      3  C   UNL     1      17.535   3.877   1.852  0.00  0.00    +0.000 A 
ATOM      4  C   UNL     1      16.575   2.865   1.913  0.00  0.00    +0.000 A 
ATOM      5  C   UNL     1      15.343   3.112   2.515  0.00  0.00    +0.000 A 
ATOM      6  C   UNL     1      15.089   4.368   3.051  0.00  0.00    +0.000 A 
ENDROOT
BRANCH   1   8
ATOM      7  C   UNL     1      15.390   7.658   2.681  0.00  0.00    +0.000 C 
ATOM      8  O   UNL     1      15.645   6.579   3.571  0.00  0.00    +0.000 OA
ENDBRANCH   1   8
BRANCH   6   9
ATOM      9  O   UNL     1      13.871   4.586   3.639  0.00  0.00    +0.000 OA
ATOM     10  H   UNL     1      14.060   5.184   4.386  0.00  0.00    +0.000 HD
ENDBRANCH   6   9
TORSDOF 2
ENDMDL
MODEL 8
REMARK VINA RESULT:    -3.874     18.319     19.794
REMARK INTER + INTRA:          -4.262
REMARK INTER:                  -4.218
REMARK INTRA:                  -0.044
REMARK UNBOUND:                -0.049
REMARK  Name = 
REMARK  3 active torsions:
REMARK  status: ('A' for Active; 'I' for Inactive)
REMARK    1  A    between atoms: C_1  and  O_2
REMARK    2  A    between atoms: O_2  and  C_3
REMARK    3  A    between atoms: C_8  and  O_9
REMARK                            x       y       z     vdW  Elec       q    Type
REMARK                         _______ _______ _______ _____ _____    ______ ____
ROOT
ATOM      1  C   UNL     1      10.868   5.823   6.699  0.00  0.00    +0.000 A 
ATOM      2  C   UNL     1      11.418   5.102   7.758  0.00  0.00    +0.000 A 
ATOM      3  C   UNL     1      12.776   5.243   8.069  0.00  0.00    +0.000 A 
ATOM      4  C   UNL     1      13.588   6.101   7.325  0.00  0.00    +0.000 A 
ATOM      5  C   UNL     1      13.046   6.826   6.266  0.00  0.00    +0.000 A 
ATOM      6  C   UNL     1      11.698   6.679   5.964  0.00  0.00    +0.000 A 
ENDROOT
BRANCH   1   8
ATOM      7  C   UNL     1       8.573   5.709   7.303  0.00  0.00    +0.000 C 
ATOM      8  O   UNL     1       9.562   5.783   6.283  0.00  0.00    +0.000 OA
ENDBRANCH   1   8
BRANCH   6   9
ATOM      9  O   UNL     1      11.187   7.402   4.919  0.00  0.00    +0.000 OA
ATOM     10  H   UNL     1      10.432   7.890   5.299  0.00  0.00    +0.000 HD
ENDBRANCH   6   9
TORSDOF 2
ENDMDL
MODEL 9
REMARK VINA RESULT:    -3.867     18.064     19.174
REMARK INTER + INTRA:          -4.255
REMARK INTER:                  -4.206
REMARK INTRA:                  -0.049
REMARK UNBOUND:                -0.049
REMARK  Name = 
REMARK  3 active torsions:
REMARK  status: ('A' for Active; 'I' for Inactive)
REMARK    1  A    between atoms: C_1  and  O_2
REMARK    2  A    between atoms: O_2  and  C_3
REMARK    3  A    between atoms: C_8  and  O_9
REMARK                            x       y       z     vdW  Elec       q    Type
REMARK                         _______ _______ _______ _____ _____    ______ ____
ROOT
ATOM      1  C   UNL     1      10.678   6.016   7.508  0.00  0.00    +0.000 A 
ATOM      2  C   UNL     1      11.523   5.421   6.572  0.00  0.00    +0.000 A 
ATOM      3  C   UNL     1      12.901   5.666   6.618  0.00  0.00    +0.000 A 
ATOM      4  C   UNL     1      13.438   6.506   7.596  0.00  0.00    +0.000 A 
ATOM      5  C   UNL     1      12.600   7.104   8.534  0.00  0.00    +0.000 A 
ATOM      6  C   UNL     1      11.234   6.855   8.481  0.00  0.00    +0.000 A 
ENDROOT
BRANCH   1   8
ATOM      7  C   UNL     1       8.588   6.080   6.378  0.00  0.00    +0.000 C 
ATOM      8  O   UNL     1       9.316   5.866   7.582  0.00  0.00    +0.000 OA
ENDBRANCH   1   8
BRANCH   6   9
ATOM      9  O   UNL     1      10.431   7.454   9.414  0.00  0.00    +0.000 OA
ATOM     10  H   UNL     1      10.411   8.396   9.157  0.00  0.00    +0.000 HD
ENDBRANCH   6   9
TORSDOF 2
ENDMDL
