MODEL 1
REMARK VINA RESULT:    -4.178      0.000      0.000
REMARK INTER + INTRA:          -4.586
REMARK INTER:                  -4.545
REMARK INTRA:                  -0.041
REMARK UNBOUND:                -0.041
REMARK  Name = 
REMARK  3 active torsions:
REMARK  status: ('A' for Active; 'I' for Inactive)
REMARK    1  A    between atoms: C_1  and  O_2
REMARK    2  A    between atoms: O_2  and  C_3
REMARK    3  A    between atoms: C_8  and  O_9
REMARK                            x       y       z     vdW  Elec       q    Type
REMARK                         _______ _______ _______ _____ _____    ______ ____
ROOT
ATOM      1  C   UNL     1       8.940   2.453   8.057  0.00  0.00    +0.000 A 
ATOM      2  C   UNL     1      10.266   2.882   8.049  0.00  0.00    +0.000 A 
ATOM      3  C   UNL     1      10.558   4.252   8.062  0.00  0.00    +0.000 A 
ATOM      4  C   UNL     1       9.529   5.195   8.083  0.00  0.00    +0.000 A 
ATOM      5  C   UNL     1       8.201   4.774   8.091  0.00  0.00    +0.000 A 
ATOM      6  C   UNL     1       7.921   3.413   8.078  0.00  0.00    +0.000 A 
ENDROOT
BRANCH   1   8
ATOM      7  C   UNL     1       9.336   0.214   7.365  0.00  0.00    +0.000 C 
ATOM      8  O   UNL     1       8.509   1.150   8.045  0.00  0.00    +0.000 OA
ENDBRANCH   1   8
BRANCH   6   9
ATOM      9  O   UNL     1       6.608   3.024   8.086  0.00  0.00    +0.000 OA
ATOM     10  H   UNL     1       6.102   3.857   8.131  0.00  0.00    +0.000 HD
ENDBRANCH   6   9
TORSDOF 2
ENDMDL
MODEL 2
REMARK VINA RESULT:    -4.138     11.379     12.509
REMARK INTER + INTRA:          -4.542
REMARK INTER:                  -4.517
REMARK INTRA:                  -0.026
REMARK UNBOUND:                -0.041
REMARK  Name = 
REMARK  3 active torsions:
REMARK  status: ('A' for Active; 'I' for Inactive)
REMARK    1  A    between atoms: C_1  and  O_2
REMARK    2  A    between atoms: O_2  and  C_3
REMARK    3  A    between atoms: C_8  and  O_9
REMARK                            x       y       z     vdW  Elec       q    Type
REMARK                         _______ _______ _______ _____ _____    ______ ____
ROOT
ATOM      1  C   UNL     1       6.462  14.086   4.412  0.00  0.00    +0.000 A 
ATOM      2  C   UNL     1       5.741  13.039   4.986  0.00  0.00    +0.000 A 
ATOM      3  C   UNL     1       4.884  13.289   6.065  0.00  0.00    +0.000 A 
ATOM      4  C   UNL     1       4.745  14.582   6.574  0.00  0.00    +0.000 A 
ATOM      5  C   UNL     1       5.461  15.633   6.006  0.00  0.00    +0.000 A 
ATOM      6  C   UNL     1       6.309  15.375   4.936  0.00  0.00    +0.000 A 
ENDROOT
BRANCH   1   8
ATOM      7  C   UNL     1       6.754  13.915   2.060  0.00  0.00    +0.000 C 
ATOM      8  O   UNL     1       7.333  13.987   3.357  0.00  0.00    +0.000 OA
ENDBRANCH   1   8
BRANCH   6   9
ATOM      9  O   UNL     1       7.003  16.424   4.394  0.00  0.00    +0.000 OA
ATOM     10  H   UNL     1       7.361  16.078   3.554  0.00  0.00    +0.000 HD
ENDBRANCH   6   9
TORSDOF 2
ENDMDL
MODEL 3
REMARK VINA RESULT:    -4.087     11.107     11.646
REMARK INTER + INTRA:          -4.487
REMARK INTER:                  -4.449
REMARK INTRA:                  -0.038
REMARK UNBOUND:                -0.041
REMARK  Name = 
REMARK  3 active torsions:
REMARK  status: ('A' for Active; 'I' for Inactive)
REMARK    1  A    between atoms: C_1  and  O_2
REMARK    2  A    between atoms: O_2  and  C_3
REMARK    3  A    between atoms: C_8  and  O_9
REMARK                            x       y       z     vdW  Elec       q    Type
REMARK                         _______ _______ _______ _____ _____    ______ ____
ROOT
ATOM      1  C   UNL     1       6.835  13.641   4.404  0.00  0.00    +0.000 A 
ATOM      2  C   UNL     1       5.516  13.225   4.583  0.00  0.00    +0.000 A 
ATOM      3  C   UNL     1       5.020  13.011   5.875  0.00  0.00    +0.000 A 
ATOM      4  C   UNL     1       5.837  13.209   6.990  0.00  0.00    +0.000 A 
ATOM      5  C   UNL     1       7.155  13.625   6.819  0.00  0.00    +0.000 A 
ATOM      6  C   UNL     1       7.639  13.835   5.534  0.00  0.00    +0.000 A 
ENDROOT
BRANCH   1   8
ATOM      7  C   UNL     1       6.613  13.921   2.055  0.00  0.00    +0.000 C 
ATOM      8  O   UNL     1       7.452  13.887   3.204  0.00  0.00    +0.000 OA
ENDBRANCH   1   8
BRANCH   6   9
ATOM      9  O   UNL     1       8.939  14.243   5.391  0.00  0.00    +0.000 OA
ATOM     10  H   UNL     1       9.215  13.893   4.522  0.00  0.00    +0.000 HD
ENDBRANCH   6   9
TORSDOF 2
ENDMDL
MODEL 4
REMARK VINA RESULT:    -4.065     11.116     11.721
REMARK INTER + INTRA:          -4.463
REMARK INTER:                  -4.412
REMARK INTRA:                  -0.051
REMARK UNBOUND:                -0.041
REMARK  Name = 
REMARK  3 active torsions:
REMARK  status: ('A' for Active; 'I' for Inactive)
REMARK    1  A    between atoms: C_1  and  O_2
REMARK    2  A    between atoms: O_2  and  C_3
REMARK    3  A    between atoms: C_8  and  O_9
REMARK                            x       y       z     vdW  Elec       q    Type
REMARK                         _______ _______ _______ _____ _____    ______ ____
ROOT
ATOM      1  C   UNL     1       7.466  13.852   5.713  0.00  0.00    +0.000 A 
ATOM      2  C   UNL     1       6.559  13.465   6.698  0.00  0.00    +0.000 A 
ATOM      3  C   UNL     1       5.304  12.960   6.334  0.00  0.00    +0.000 A 
ATOM      4  C   UNL     1       4.953  12.840   4.988  0.00  0.00    +0.000 A 
ATOM      5  C   UNL     1       5.854  13.224   3.998  0.00  0.00    +0.000 A 
ATOM      6  C   UNL     1       7.096  13.725   4.368  0.00  0.00    +0.000 A 
ENDROOT
BRANCH   1   8
ATOM      7  C   UNL     1       8.805  15.543   6.711  0.00  0.00    +0.000 C 
ATOM      8  O   UNL     1       8.722  14.362   5.922  0.00  0.00    +0.000 OA
ENDBRANCH   1   8
BRANCH   6   9
ATOM      9  O   UNL     1       7.965  14.096   3.377  0.00  0.00    +0.000 OA
ATOM     10  H   UNL     1       8.607  13.362   3.322  0.00  0.00    +0.000 HD
ENDBRANCH   6   9
TORSDOF 2
ENDMDL
MODEL 5
REMARK VINA RESULT:    -3.868      9.736     10.873
REMARK INTER + INTRA:          -4.249
REMARK INTER:                  -4.197
REMARK INTRA:                  -0.051
REMARK UNBOUND:                -0.041
REMARK  Name = 
REMARK  3 active torsions:
REMARK  status: ('A' for Active; 'I' for Inactive)
REMARK    1  A    between atoms: C_1  and  O_2
REMARK    2  A    between atoms: O_2  and  C_3
REMARK    3  A    between atoms: C_8  and  O_9
REMARK                            x       y       z     vdW  Elec       q    Type
REMARK                         _______ _______ _______ _____ _____    ______ ____
ROOT
ATOM      1  C   UNL     1       7.504  13.600   7.027  0.00  0.00    +0.000 A 
ATOM      2  C   UNL     1       7.765  14.910   6.628  0.00  0.00    +0.000 A 
ATOM      3  C   UNL     1       9.022  15.477   6.869  0.00  0.00    +0.000 A 
ATOM      4  C   UNL     1      10.021  14.740   7.508  0.00  0.00    +0.000 A 
ATOM      5  C   UNL     1       9.768  13.430   7.909  0.00  0.00    +0.000 A 
ATOM      6  C   UNL     1       8.517  12.876   7.666  0.00  0.00    +0.000 A 
ENDROOT
BRANCH   1   8
ATOM      7  C   UNL     1       5.850  12.796   5.522  0.00  0.00    +0.000 C 
ATOM      8  O   UNL     1       6.324  12.920   6.857  0.00  0.00    +0.000 OA
ENDBRANCH   1   8
BRANCH   6   9
ATOM      9  O   UNL     1       8.292  11.586   8.069  0.00  0.00    +0.000 OA
ATOM     10  H   UNL     1       8.781  11.500   8.910  0.00  0.00    +0.000 HD
ENDBRANCH   6   9
TORSDOF 2
ENDMDL
MODEL 6
REMARK VINA RESULT:    -3.818     11.509     12.558
REMARK INTER + INTRA:          -4.194
REMARK INTER:                  -4.156
REMARK INTRA:                  -0.038
REMARK UNBOUND:                -0.041
REMARK  Name = 
REMARK  3 active torsions:
REMARK  status: ('A' for Active; 'I' for Inactive)
REMARK    1  A    between atoms: C_1  and  O_2
REMARK    2  A    between atoms: O_2  and  C_3
REMARK    3  A    between atoms: C_8  and  O_9
REMARK                            x       y       z     vdW  Elec       q    Type
REMARK                         _______ _______ _______ _____ _____    ______ ____
ROOT
ATOM      1  C   UNL     1       4.911  14.418   5.842  0.00  0.00    +0.000 A 
ATOM      2  C   UNL     1       4.812  13.147   5.279  0.00  0.00    +0.000 A 
ATOM      3  C   UNL     1       5.703  12.757   4.271  0.00  0.00    +0.000 A 
ATOM      4  C   UNL     1       6.692  13.634   3.822  0.00  0.00    +0.000 A 
ATOM      5  C   UNL     1       6.797  14.906   4.381  0.00  0.00    +0.000 A 
ATOM      6  C   UNL     1       5.910  15.284   5.380  0.00  0.00    +0.000 A 
ENDROOT
BRANCH   1   8
ATOM      7  C   UNL     1       2.959  14.171   7.174  0.00  0.00    +0.000 C 
ATOM      8  O   UNL     1       4.111  14.932   6.831  0.00  0.00    +0.000 OA
ENDBRANCH   1   8
BRANCH   6   9
ATOM      9  O   UNL     1       6.033  16.540   5.913  0.00  0.00    +0.000 OA
ATOM     10  H   UNL     1       5.604  16.481   6.788  0.00  0.00    +0.000 HD
ENDBRANCH   6   9
TORSDOF 2
ENDMDL
MODEL 7
REMARK VINA RESULT:    -3.789     10.519     11.362
REMARK INTER + INTRA:          -4.163
REMARK INTER:                  -4.121
REMARK INTRA:                  -0.042
REMARK UNBOUND:                -0.041
REMARK  Name = 
REMARK  3 active torsions:
REMARK  status: ('A' for Active; 'I' for Inactive)
REMARK    1  A    between atoms: C_1  and  O_2
REMARK    2  A    between atoms: O_2  and  C_3
REMARK    3  A    between atoms: C_8  and  O_9
REMARK                            x       y       z     vdW  Elec       q    Type
REMARK                         _______ _______ _______ _____ _____    ______ ____
ROOT
ATOM      1  C   UNL     1       7.571  14.061   6.104  0.00  0.00    +0.000 A 
ATOM      2  C   UNL     1       7.576  14.199   4.717  0.00  0.00    +0.000 A 
ATOM      3  C   UNL     1       6.611  13.539   3.945  0.00  0.00    +0.000 A 
ATOM      4  C   UNL     1       5.641  12.741   4.554  0.00  0.00    +0.000 A 
ATOM      5  C   UNL     1       5.629  12.599   5.940  0.00  0.00    +0.000 A 
ATOM      6  C   UNL     1       6.590  13.256   6.698  0.00  0.00    +0.000 A 
ENDROOT
BRANCH   1   8
ATOM      7  C   UNL     1       9.787  14.811   6.521  0.00  0.00    +0.000 C 
ATOM      8  O   UNL     1       8.451  14.644   6.980  0.00  0.00    +0.000 OA
ENDBRANCH   1   8
BRANCH   6   9
ATOM      9  O   UNL     1       6.559  13.100   8.058  0.00  0.00    +0.000 OA
ATOM     10  H   UNL     1       5.805  12.502   8.222  0.00  0.00    +0.000 HD
ENDBRANCH   6   9
TORSDOF 2
ENDMDL
MODEL 8
REMARK VINA RESULT:    -3.775     11.837     12.950
REMARK INTER + INTRA:          -4.148
REMARK INTER:                  -4.100
REMARK INTRA:                  -0.048
REMARK UNBOUND:                -0.041
REMARK  Name = 
REMARK  3 active torsions:
REMARK  status: ('A' for Active; 'I' for Inactive)
REMARK    1  A    between atoms: C_1  and  O_2
REMARK    2  A    between atoms: O_2  and  C_3
REMARK    3  A    between atoms: C_8  and  O_9
REMARK                            x       y       z     vdW  Elec       q    Type
REMARK                         _______ _______ _______ _____ _____    ______ ____
ROOT
ATOM      1  C   UNL     1       7.210  15.113   5.076  0.00  0.00    +0.000 A 
ATOM      2  C   UNL     1       8.030  14.202   5.740  0.00  0.00    +0.000 A 
ATOM      3  C   UNL     1       8.927  14.650   6.718  0.00  0.00    +0.000 A 
ATOM      4  C   UNL     1       9.009  16.008   7.033  0.00  0.00    +0.000 A 
ATOM      5  C   UNL     1       8.193  16.925   6.375  0.00  0.00    +0.000 A 
ATOM      6  C   UNL     1       7.306  16.471   5.406  0.00  0.00    +0.000 A 
ENDROOT
BRANCH   1   8
ATOM      7  C   UNL     1       6.733  13.969   3.049  0.00  0.00    +0.000 C 
ATOM      8  O   UNL     1       6.291  14.817   4.102  0.00  0.00    +0.000 OA
ENDBRANCH   1   8
BRANCH   6   9
ATOM      9  O   UNL     1       6.515  17.391   4.772  0.00  0.00    +0.000 OA
ATOM     10  H   UNL     1       6.188  16.930   3.976  0.00  0.00    +0.000 HD
ENDBRANCH   6   9
TORSDOF 2
ENDMDL
MODEL 9
REMARK VINA RESULT:    -3.750     12.087     13.448
REMARK INTER + INTRA:          -4.121
REMARK INTER:                  -4.074
REMARK INTRA:                  -0.046
REMARK UNBOUND:                -0.041
REMARK  Name = 
REMARK  3 active torsions:
REMARK  status: ('A' for Active; 'I' for Inactive)
REMARK    1  A    between atoms: C_1  and  O_2
REMARK    2  A    between atoms: O_2  and  C_3
REMARK    3  A    between atoms: C_8  and  O_9
REMARK                            x       y       z     vdW  Elec       q    Type
REMARK                         _______ _______ _______ _____ _____    ______ ____
ROOT
ATOM      1  C   UNL     1       7.881  16.213   6.224  0.00  0.00    +0.000 A 
ATOM      2  C   UNL     1       8.208  14.952   6.719  0.00  0.00    +0.000 A 
ATOM      3  C   UNL     1       7.593  13.811   6.188  0.00  0.00    +0.000 A 
ATOM      4  C   UNL     1       6.652  13.925   5.163  0.00  0.00    +0.000 A 
ATOM      5  C   UNL     1       6.320  15.182   4.663  0.00  0.00    +0.000 A 
ATOM      6  C   UNL     1       6.934  16.309   5.196  0.00  0.00    +0.000 A 
ENDROOT
BRANCH   1   8
ATOM      7  C   UNL     1       9.807  17.455   6.851  0.00  0.00    +0.000 C 
ATOM      8  O   UNL     1       8.400  17.410   6.647  0.00  0.00    +0.000 OA
ENDBRANCH   1   8
BRANCH   6   9
ATOM      9  O   UNL     1       6.592  17.533   4.687  0.00  0.00    +0.000 OA
ATOM     10  H   UNL     1       7.433  17.914   4.370  0.00  0.00    +0.000 HD
ENDBRANCH   6   9
TORSDOF 2
ENDMDL
