MODEL 1
REMARK VINA RESULT:    -4.066      0.000      0.000
REMARK INTER + INTRA:          -6.077
REMARK INTER:                  -5.492
REMARK INTRA:                  -0.585
REMARK UNBOUND:                -0.585
REMARK  Name = 
REMARK  10 active torsions:
REMARK  status: ('A' for Active; 'I' for Inactive)
REMARK    1  A    between atoms: C_1  and  C_2
REMARK    2  A    between atoms: C_5  and  N_8
REMARK    3  A    between atoms: N_8  and  C_9
REMARK    4  A    between atoms: N_8  and  C_13
REMARK    5  A    between atoms: C_9  and  C_10
REMARK    6  A    between atoms: C_10  and  C_11
REMARK    7  A    between atoms: C_10  and  O_12
REMARK    8  A    between atoms: C_13  and  C_14
REMARK    9  A    between atoms: C_14  and  C_15
REMARK   10  A    between atoms: C_14  and  O_16
REMARK                            x       y       z     vdW  Elec       q    Type
REMARK                         _______ _______ _______ _____ _____    ______ ____
ROOT
ATOM      1  N   UNL     1       7.533  21.685   4.549  0.00  0.00    +0.000 N 
ENDROOT
BRANCH   1   6
ATOM      2  C   UNL     1      11.702  24.199   1.445  0.00  0.00    +0.000 C 
ATOM      3  C   UNL     1      10.636  23.529   2.258  0.00  0.00    +0.000 A 
ATOM      4  C   UNL     1       9.790  22.585   1.686  0.00  0.00    +0.000 A 
ATOM      5  C   UNL     1       8.773  21.982   2.445  0.00  0.00    +0.000 A 
ATOM      6  C   UNL     1       8.536  22.305   3.793  0.00  0.00    +0.000 A 
ATOM      7  C   UNL     1       9.413  23.261   4.339  0.00  0.00    +0.000 A 
ATOM      8  C   UNL     1      10.435  23.870   3.592  0.00  0.00    +0.000 A 
ENDBRANCH   1   6
BRANCH   1   9
ATOM      9  C   UNL     1       7.838  21.165   5.904  0.00  0.00    +0.000 C 
BRANCH   9  10
ATOM     10  C   UNL     1       8.766  19.926   5.877  0.00  0.00    +0.000 C 
ATOM     11  C   UNL     1       9.903  20.074   6.881  0.00  0.00    +0.000 C 
BRANCH  10  12
ATOM     12  O   UNL     1       8.040  18.732   6.200  0.00  0.00    +0.000 OA
ATOM     13  H   UNL     1       7.814  18.283   5.368  0.00  0.00    +0.000 HD
ENDBRANCH  10  12
ENDBRANCH   9  10
ENDBRANCH   1   9
BRANCH   1  14
ATOM     14  C   UNL     1       6.346  21.075   3.898  0.00  0.00    +0.000 C 
BRANCH  14  15
ATOM     15  C   UNL     1       5.116  22.013   3.928  0.00  0.00    +0.000 C 
ATOM     16  C   UNL     1       4.919  22.786   2.630  0.00  0.00    +0.000 C 
BRANCH  15  17
ATOM     17  O   UNL     1       3.913  21.297   4.202  0.00  0.00    +0.000 OA
ATOM     18  H   UNL     1       3.464  21.814   4.901  0.00  0.00    +0.000 HD
ENDBRANCH  15  17
ENDBRANCH  14  15
ENDBRANCH   1  14
TORSDOF 7
ENDMDL
MODEL 2
REMARK VINA RESULT:    -4.026     20.222     21.899
REMARK INTER + INTRA:          -6.023
REMARK INTER:                  -5.432
REMARK INTRA:                  -0.591
REMARK UNBOUND:                -0.585
REMARK  Name = 
REMARK  10 active torsions:
REMARK  status: ('A' for Active; 'I' for Inactive)
REMARK    1  A    between atoms: C_1  and  C_2
REMARK    2  A    between atoms: C_5  and  N_8
REMARK    3  A    between atoms: N_8  and  C_9
REMARK    4  A    between atoms: N_8  and  C_13
REMARK    5  A    between atoms: C_9  and  C_10
REMARK    6  A    between atoms: C_10  and  C_11
REMARK    7  A    between atoms: C_10  and  O_12
REMARK    8  A    between atoms: C_13  and  C_14
REMARK    9  A    between atoms: C_14  and  C_15
REMARK   10  A    between atoms: C_14  and  O_16
REMARK                            x       y       z     vdW  Elec       q    Type
REMARK                         _______ _______ _______ _____ _____    ______ ____
ROOT
ATOM      1  N   UNL     1      -5.701  15.469 -12.217  0.00  0.00    +0.000 N 
ENDROOT
BRANCH   1   6
ATOM      2  C   UNL     1      -3.835  20.652 -13.944  0.00  0.00    +0.000 C 
ATOM      3  C   UNL     1      -4.319  19.315 -13.472  0.00  0.00    +0.000 A 
ATOM      4  C   UNL     1      -3.421  18.299 -13.163  0.00  0.00    +0.000 A 
ATOM      5  C   UNL     1      -3.882  17.038 -12.750  0.00  0.00    +0.000 A 
ATOM      6  C   UNL     1      -5.249  16.723 -12.648  0.00  0.00    +0.000 A 
ATOM      7  C   UNL     1      -6.128  17.775 -12.966  0.00  0.00    +0.000 A 
ATOM      8  C   UNL     1      -5.680  19.041 -13.378  0.00  0.00    +0.000 A 
ENDBRANCH   1   6
BRANCH   1   9
ATOM      9  C   UNL     1      -6.290  15.316 -10.865  0.00  0.00    +0.000 C 
BRANCH   9  10
ATOM     10  C   UNL     1      -5.276  15.609  -9.732  0.00  0.00    +0.000 C 
ATOM     11  C   UNL     1      -5.994  15.943  -8.430  0.00  0.00    +0.000 C 
BRANCH  10  12
ATOM     12  O   UNL     1      -4.429  14.476  -9.494  0.00  0.00    +0.000 OA
ATOM     13  H   UNL     1      -3.798  14.713  -8.794  0.00  0.00    +0.000 HD
ENDBRANCH  10  12
ENDBRANCH   9  10
ENDBRANCH   1   9
BRANCH   1  14
ATOM     14  C   UNL     1      -5.176  14.215 -12.814  0.00  0.00    +0.000 C 
BRANCH  14  15
ATOM     15  C   UNL     1      -5.948  12.966 -12.325  0.00  0.00    +0.000 C 
ATOM     16  C   UNL     1      -6.361  12.034 -13.458  0.00  0.00    +0.000 C 
BRANCH  15  17
ATOM     17  O   UNL     1      -5.186  12.209 -11.386  0.00  0.00    +0.000 OA
ATOM     18  H   UNL     1      -5.746  11.437 -11.169  0.00  0.00    +0.000 HD
ENDBRANCH  15  17
ENDBRANCH  14  15
ENDBRANCH   1  14
TORSDOF 7
ENDMDL
MODEL 3
REMARK VINA RESULT:    -3.993     20.342     21.941
REMARK INTER + INTRA:          -5.979
REMARK INTER:                  -5.399
REMARK INTRA:                  -0.580
REMARK UNBOUND:                -0.585
REMARK  Name = 
REMARK  10 active torsions:
REMARK  status: ('A' for Active; 'I' for Inactive)
REMARK    1  A    between atoms: C_1  and  C_2
REMARK    2  A    between atoms: C_5  and  N_8
REMARK    3  A    between atoms: N_8  and  C_9
REMARK    4  A    between atoms: N_8  and  C_13
REMARK    5  A    between atoms: C_9  and  C_10
REMARK    6  A    between atoms: C_10  and  C_11
REMARK    7  A    between atoms: C_10  and  O_12
REMARK    8  A    between atoms: C_13  and  C_14
REMARK    9  A    between atoms: C_14  and  C_15
REMARK   10  A    between atoms: C_14  and  O_16
REMARK                            x       y       z     vdW  Elec       q    Type
REMARK                         _______ _______ _______ _____ _____    ______ ____
ROOT
ATOM      1  N   UNL     1      -5.858  15.374 -12.233  0.00  0.00    +0.000 N 
ENDROOT
BRANCH   1   6
ATOM      2  C   UNL     1      -3.658  20.444 -13.900  0.00  0.00    +0.000 C 
ATOM      3  C   UNL     1      -4.228  19.121 -13.491  0.00  0.00    +0.000 A 
ATOM      4  C   UNL     1      -5.604  18.925 -13.426  0.00  0.00    +0.000 A 
ATOM      5  C   UNL     1      -6.133  17.691 -13.013  0.00  0.00    +0.000 A 
ATOM      6  C   UNL     1      -5.324  16.608 -12.625  0.00  0.00    +0.000 A 
ATOM      7  C   UNL     1      -3.939  16.841 -12.705  0.00  0.00    +0.000 A 
ATOM      8  C   UNL     1      -3.396  18.069 -13.119  0.00  0.00    +0.000 A 
ENDBRANCH   1   6
BRANCH   1   9
ATOM      9  C   UNL     1      -6.423  15.208 -10.872  0.00  0.00    +0.000 C 
BRANCH   9  10
ATOM     10  C   UNL     1      -5.428  15.611  -9.756  0.00  0.00    +0.000 C 
ATOM     11  C   UNL     1      -6.161  15.898  -8.451  0.00  0.00    +0.000 C 
BRANCH  10  12
ATOM     12  O   UNL     1      -4.478  14.565  -9.511  0.00  0.00    +0.000 OA
ATOM     13  H   UNL     1      -4.896  13.718  -9.739  0.00  0.00    +0.000 HD
ENDBRANCH  10  12
ENDBRANCH   9  10
ENDBRANCH   1   9
BRANCH   1  14
ATOM     14  C   UNL     1      -5.443  14.111 -12.895  0.00  0.00    +0.000 C 
BRANCH  14  15
ATOM     15  C   UNL     1      -6.047  12.864 -12.206  0.00  0.00    +0.000 C 
ATOM     16  C   UNL     1      -6.539  11.812 -13.193  0.00  0.00    +0.000 C 
BRANCH  15  17
ATOM     17  O   UNL     1      -5.110  12.242 -11.328  0.00  0.00    +0.000 OA
ATOM     18  H   UNL     1      -4.241  12.354 -11.765  0.00  0.00    +0.000 HD
ENDBRANCH  15  17
ENDBRANCH  14  15
ENDBRANCH   1  14
TORSDOF 7
ENDMDL
MODEL 4
REMARK VINA RESULT:    -3.982     20.018     21.829
REMARK INTER + INTRA:          -5.965
REMARK INTER:                  -5.126
REMARK INTRA:                  -0.838
REMARK UNBOUND:                -0.585
REMARK  Name = 
REMARK  10 active torsions:
REMARK  status: ('A' for Active; 'I' for Inactive)
REMARK    1  A    between atoms: C_1  and  C_2
REMARK    2  A    between atoms: C_5  and  N_8
REMARK    3  A    between atoms: N_8  and  C_9
REMARK    4  A    between atoms: N_8  and  C_13
REMARK    5  A    between atoms: C_9  and  C_10
REMARK    6  A    between atoms: C_10  and  C_11
REMARK    7  A    between atoms: C_10  and  O_12
REMARK    8  A    between atoms: C_13  and  C_14
REMARK    9  A    between atoms: C_14  and  C_15
REMARK   10  A    between atoms: C_14  and  O_16
REMARK                            x       y       z     vdW  Elec       q    Type
REMARK                         _______ _______ _______ _____ _____    ______ ____
ROOT
ATOM      1  N   UNL     1      -5.719  15.812 -12.043  0.00  0.00    +0.000 N 
ENDROOT
BRANCH   1   6
ATOM      2  C   UNL     1      -3.422  20.606 -14.295  0.00  0.00    +0.000 C 
ATOM      3  C   UNL     1      -4.016  19.351 -13.733  0.00  0.00    +0.000 A 
ATOM      4  C   UNL     1      -5.393  19.160 -13.711  0.00  0.00    +0.000 A 
ATOM      5  C   UNL     1      -5.946  17.995 -13.156  0.00  0.00    +0.000 A 
ATOM      6  C   UNL     1      -5.162  16.981 -12.578  0.00  0.00    +0.000 A 
ATOM      7  C   UNL     1      -3.773  17.206 -12.620  0.00  0.00    +0.000 A 
ATOM      8  C   UNL     1      -3.207  18.365 -13.174  0.00  0.00    +0.000 A 
ENDBRANCH   1   6
BRANCH   1   9
ATOM      9  C   UNL     1      -6.183  14.730 -12.944  0.00  0.00    +0.000 C 
BRANCH   9  10
ATOM     10  C   UNL     1      -5.066  13.712 -13.285  0.00  0.00    +0.000 C 
ATOM     11  C   UNL     1      -4.416  14.044 -14.622  0.00  0.00    +0.000 C 
BRANCH  10  12
ATOM     12  O   UNL     1      -4.043  13.716 -12.280  0.00  0.00    +0.000 OA
ATOM     13  H   UNL     1      -4.397  14.159 -11.491  0.00  0.00    +0.000 HD
ENDBRANCH  10  12
ENDBRANCH   9  10
ENDBRANCH   1   9
BRANCH   1  14
ATOM     14  C   UNL     1      -6.328  15.801 -10.689  0.00  0.00    +0.000 C 
BRANCH  14  15
ATOM     15  C   UNL     1      -5.263  15.712  -9.569  0.00  0.00    +0.000 C 
ATOM     16  C   UNL     1      -5.839  15.930  -8.175  0.00  0.00    +0.000 C 
BRANCH  15  17
ATOM     17  O   UNL     1      -4.592  14.453  -9.579  0.00  0.00    +0.000 OA
ATOM     18  H   UNL     1      -3.716  14.637  -9.972  0.00  0.00    +0.000 HD
ENDBRANCH  15  17
ENDBRANCH  14  15
ENDBRANCH   1  14
TORSDOF 7
ENDMDL
MODEL 5
REMARK VINA RESULT:    -3.925      1.631      4.475
REMARK INTER + INTRA:          -5.887
REMARK INTER:                  -5.358
REMARK INTRA:                  -0.529
REMARK UNBOUND:                -0.585
REMARK  Name = 
REMARK  10 active torsions:
REMARK  status: ('A' for Active; 'I' for Inactive)
REMARK    1  A    between atoms: C_1  and  C_2
REMARK    2  A    between atoms: C_5  and  N_8
REMARK    3  A    between atoms: N_8  and  C_9
REMARK    4  A    between atoms: N_8  and  C_13
REMARK    5  A    between atoms: C_9  and  C_10
REMARK    6  A    between atoms: C_10  and  C_11
REMARK    7  A    between atoms: C_10  and  O_12
REMARK    8  A    between atoms: C_13  and  C_14
REMARK    9  A    between atoms: C_14  and  C_15
REMARK   10  A    between atoms: C_14  and  O_16
REMARK                            x       y       z     vdW  Elec       q    Type
REMARK                         _______ _______ _______ _____ _____    ______ ____
ROOT
ATOM      1  N   UNL     1       8.298  21.953   4.375  0.00  0.00    +0.000 N 
ENDROOT
BRANCH   1   6
ATOM      2  C   UNL     1       3.372  23.173   1.621  0.00  0.00    +0.000 C 
ATOM      3  C   UNL     1       4.644  22.872   2.354  0.00  0.00    +0.000 A 
ATOM      4  C   UNL     1       5.803  23.599   2.102  0.00  0.00    +0.000 A 
ATOM      5  C   UNL     1       6.999  23.293   2.770  0.00  0.00    +0.000 A 
ATOM      6  C   UNL     1       7.106  22.241   3.698  0.00  0.00    +0.000 A 
ATOM      7  C   UNL     1       5.914  21.529   3.930  0.00  0.00    +0.000 A 
ATOM      8  C   UNL     1       4.710  21.826   3.270  0.00  0.00    +0.000 A 
ENDBRANCH   1   6
BRANCH   1   9
ATOM      9  C   UNL     1       8.256  21.379   5.742  0.00  0.00    +0.000 C 
BRANCH   9  10
ATOM     10  C   UNL     1       8.937  19.992   5.830  0.00  0.00    +0.000 C 
ATOM     11  C   UNL     1       9.987  19.969   6.935  0.00  0.00    +0.000 C 
BRANCH  10  12
ATOM     12  O   UNL     1       7.976  18.964   6.109  0.00  0.00    +0.000 OA
ATOM     13  H   UNL     1       7.688  19.063   7.031  0.00  0.00    +0.000 HD
ENDBRANCH  10  12
ENDBRANCH   9  10
ENDBRANCH   1   9
BRANCH   1  14
ATOM     14  C   UNL     1       9.566  22.643   4.025  0.00  0.00    +0.000 C 
BRANCH  14  15
ATOM     15  C   UNL     1      10.383  21.863   2.968  0.00  0.00    +0.000 C 
ATOM     16  C   UNL     1      10.922  22.750   1.852  0.00  0.00    +0.000 C 
BRANCH  15  17
ATOM     17  O   UNL     1      11.486  21.174   3.557  0.00  0.00    +0.000 OA
ATOM     18  H   UNL     1      11.786  21.754   4.285  0.00  0.00    +0.000 HD
ENDBRANCH  15  17
ENDBRANCH  14  15
ENDBRANCH   1  14
TORSDOF 7
ENDMDL
MODEL 6
REMARK VINA RESULT:    -3.917      2.221      4.771
REMARK INTER + INTRA:          -5.876
REMARK INTER:                  -5.299
REMARK INTRA:                  -0.577
REMARK UNBOUND:                -0.585
REMARK  Name = 
REMARK  10 active torsions:
REMARK  status: ('A' for Active; 'I' for Inactive)
REMARK    1  A    between atoms: C_1  and  C_2
REMARK    2  A    between atoms: C_5  and  N_8
REMARK    3  A    between atoms: N_8  and  C_9
REMARK    4  A    between atoms: N_8  and  C_13
REMARK    5  A    between atoms: C_9  and  C_10
REMARK    6  A    between atoms: C_10  and  C_11
REMARK    7  A    between atoms: C_10  and  O_12
REMARK    8  A    between atoms: C_13  and  C_14
REMARK    9  A    between atoms: C_14  and  C_15
REMARK   10  A    between atoms: C_14  and  O_16
REMARK                            x       y       z     vdW  Elec       q    Type
REMARK                         _______ _______ _______ _____ _____    ______ ____
ROOT
ATOM      1  N   UNL     1       7.048  23.127   3.854  0.00  0.00    +0.000 N 
ENDROOT
BRANCH   1   6
ATOM      2  C   UNL     1       2.893  23.786  -0.100  0.00  0.00    +0.000 C 
ATOM      3  C   UNL     1       3.980  23.595   0.914  0.00  0.00    +0.000 A 
ATOM      4  C   UNL     1       3.760  22.843   2.063  0.00  0.00    +0.000 A 
ATOM      5  C   UNL     1       4.773  22.693   3.024  0.00  0.00    +0.000 A 
ATOM      6  C   UNL     1       6.036  23.298   2.901  0.00  0.00    +0.000 A 
ATOM      7  C   UNL     1       6.224  24.049   1.726  0.00  0.00    +0.000 A 
ATOM      8  C   UNL     1       5.220  24.206   0.755  0.00  0.00    +0.000 A 
ENDBRANCH   1   6
BRANCH   1   9
ATOM      9  C   UNL     1       6.843  22.208   4.999  0.00  0.00    +0.000 C 
BRANCH   9  10
ATOM     10  C   UNL     1       7.378  20.780   4.725  0.00  0.00    +0.000 C 
ATOM     11  C   UNL     1       8.330  20.334   5.828  0.00  0.00    +0.000 C 
BRANCH  10  12
ATOM     12  O   UNL     1       6.303  19.833   4.655  0.00  0.00    +0.000 OA
ATOM     13  H   UNL     1       5.729  20.083   3.912  0.00  0.00    +0.000 HD
ENDBRANCH  10  12
ENDBRANCH   9  10
ENDBRANCH   1   9
BRANCH   1  14
ATOM     14  C   UNL     1       8.087  24.167   4.067  0.00  0.00    +0.000 C 
BRANCH  14  15
ATOM     15  C   UNL     1       9.467  23.737   3.511  0.00  0.00    +0.000 C 
ATOM     16  C   UNL     1      10.464  23.370   4.603  0.00  0.00    +0.000 C 
BRANCH  15  17
ATOM     17  O   UNL     1       9.354  22.625   2.624  0.00  0.00    +0.000 OA
ATOM     18  H   UNL     1      10.165  22.099   2.773  0.00  0.00    +0.000 HD
ENDBRANCH  15  17
ENDBRANCH  14  15
ENDBRANCH   1  14
TORSDOF 7
ENDMDL
MODEL 7
REMARK VINA RESULT:    -3.804     20.545     22.390
REMARK INTER + INTRA:          -5.723
REMARK INTER:                  -5.327
REMARK INTRA:                  -0.396
REMARK UNBOUND:                -0.585
REMARK  Name = 
REMARK  10 active torsions:
REMARK  status: ('A' for Active; 'I' for Inactive)
REMARK    1  A    between atoms: C_1  and  C_2
REMARK    2  A    between atoms: C_5  and  N_8
REMARK    3  A    between atoms: N_8  and  C_9
REMARK    4  A    between atoms: N_8  and  C_13
REMARK    5  A    between atoms: C_9  and  C_10
REMARK    6  A    between atoms: C_10  and  C_11
REMARK    7  A    between atoms: C_10  and  O_12
REMARK    8  A    between atoms: C_13  and  C_14
REMARK    9  A    between atoms: C_14  and  C_15
REMARK   10  A    between atoms: C_14  and  O_16
REMARK                            x       y       z     vdW  Elec       q    Type
REMARK                         _______ _______ _______ _____ _____    ______ ____
ROOT
ATOM      1  N   UNL     1      -4.068  17.817 -14.142  0.00  0.00    +0.000 N 
ENDROOT
BRANCH   1   6
ATOM      2  C   UNL     1      -4.496  12.954 -11.060  0.00  0.00    +0.000 C 
ATOM      3  C   UNL     1      -4.360  14.214 -11.860  0.00  0.00    +0.000 A 
ATOM      4  C   UNL     1      -4.306  15.455 -11.233  0.00  0.00    +0.000 A 
ATOM      5  C   UNL     1      -4.209  16.634 -11.989  0.00  0.00    +0.000 A 
ATOM      6  C   UNL     1      -4.184  16.638 -13.395  0.00  0.00    +0.000 A 
ATOM      7  C   UNL     1      -4.239  15.366 -13.995  0.00  0.00    +0.000 A 
ATOM      8  C   UNL     1      -4.334  14.178 -13.251  0.00  0.00    +0.000 A 
ENDBRANCH   1   6
BRANCH   1   9
ATOM      9  C   UNL     1      -5.257  18.671 -14.374  0.00  0.00    +0.000 C 
BRANCH   9  10
ATOM     10  C   UNL     1      -5.271  19.937 -13.482  0.00  0.00    +0.000 C 
ATOM     11  C   UNL     1      -4.858  21.169 -14.279  0.00  0.00    +0.000 C 
BRANCH  10  12
ATOM     12  O   UNL     1      -6.579  20.173 -12.944  0.00  0.00    +0.000 OA
ATOM     13  H   UNL     1      -6.965  19.315 -12.702  0.00  0.00    +0.000 HD
ENDBRANCH  10  12
ENDBRANCH   9  10
ENDBRANCH   1   9
BRANCH   1  14
ATOM     14  C   UNL     1      -2.967  18.000 -15.122  0.00  0.00    +0.000 C 
BRANCH  14  15
ATOM     15  C   UNL     1      -1.859  18.940 -14.588  0.00  0.00    +0.000 C 
ATOM     16  C   UNL     1      -1.778  18.967 -13.066  0.00  0.00    +0.000 C 
BRANCH  15  17
ATOM     17  O   UNL     1      -0.574  18.580 -15.092  0.00  0.00    +0.000 OA
ATOM     18  H   UNL     1      -0.336  17.758 -14.616  0.00  0.00    +0.000 HD
ENDBRANCH  15  17
ENDBRANCH  14  15
ENDBRANCH   1  14
TORSDOF 7
ENDMDL
MODEL 8
REMARK VINA RESULT:    -3.729      1.544      3.761
REMARK INTER + INTRA:          -5.622
REMARK INTER:                  -5.050
REMARK INTRA:                  -0.572
REMARK UNBOUND:                -0.585
REMARK  Name = 
REMARK  10 active torsions:
REMARK  status: ('A' for Active; 'I' for Inactive)
REMARK    1  A    between atoms: C_1  and  C_2
REMARK    2  A    between atoms: C_5  and  N_8
REMARK    3  A    between atoms: N_8  and  C_9
REMARK    4  A    between atoms: N_8  and  C_13
REMARK    5  A    between atoms: C_9  and  C_10
REMARK    6  A    between atoms: C_10  and  C_11
REMARK    7  A    between atoms: C_10  and  O_12
REMARK    8  A    between atoms: C_13  and  C_14
REMARK    9  A    between atoms: C_14  and  C_15
REMARK   10  A    between atoms: C_14  and  O_16
REMARK                            x       y       z     vdW  Elec       q    Type
REMARK                         _______ _______ _______ _____ _____    ______ ____
ROOT
ATOM      1  N   UNL     1       7.474  22.098   3.934  0.00  0.00    +0.000 N 
ENDROOT
BRANCH   1   6
ATOM      2  C   UNL     1      11.158  24.044  -0.063  0.00  0.00    +0.000 C 
ATOM      3  C   UNL     1      10.214  23.553   0.992  0.00  0.00    +0.000 A 
ATOM      4  C   UNL     1      10.495  22.406   1.725  0.00  0.00    +0.000 A 
ATOM      5  C   UNL     1       9.591  21.934   2.691  0.00  0.00    +0.000 A 
ATOM      6  C   UNL     1       8.362  22.564   2.955  0.00  0.00    +0.000 A 
ATOM      7  C   UNL     1       8.111  23.722   2.197  0.00  0.00    +0.000 A 
ATOM      8  C   UNL     1       9.007  24.206   1.229  0.00  0.00    +0.000 A 
ENDBRANCH   1   6
BRANCH   1   9
ATOM      9  C   UNL     1       6.254  21.354   3.538  0.00  0.00    +0.000 C 
BRANCH   9  10
ATOM     10  C   UNL     1       4.951  22.129   3.850  0.00  0.00    +0.000 C 
ATOM     11  C   UNL     1       4.448  22.869   2.615  0.00  0.00    +0.000 C 
BRANCH  10  12
ATOM     12  O   UNL     1       3.915  21.239   4.287  0.00  0.00    +0.000 OA
ATOM     13  H   UNL     1       4.333  20.489   4.740  0.00  0.00    +0.000 HD
ENDBRANCH  10  12
ENDBRANCH   9  10
ENDBRANCH   1   9
BRANCH   1  14
ATOM     14  C   UNL     1       7.412  22.728   5.278  0.00  0.00    +0.000 C 
BRANCH  14  15
ATOM     15  C   UNL     1       8.363  22.043   6.288  0.00  0.00    +0.000 C 
ATOM     16  C   UNL     1       8.532  20.549   6.035  0.00  0.00    +0.000 C 
BRANCH  15  17
ATOM     17  O   UNL     1       9.658  22.641   6.282  0.00  0.00    +0.000 OA
ATOM     18  H   UNL     1      10.169  22.132   5.620  0.00  0.00    +0.000 HD
ENDBRANCH  15  17
ENDBRANCH  14  15
ENDBRANCH   1  14
TORSDOF 7
ENDMDL
