MODEL 1
REMARK VINA RESULT:    -4.271      0.000      0.000
REMARK INTER + INTRA:          -4.696
REMARK INTER:                  -4.646
REMARK INTRA:                  -0.050
REMARK UNBOUND:                -0.050
REMARK  Name = 
REMARK  3 active torsions:
REMARK  status: ('A' for Active; 'I' for Inactive)
REMARK    1  A    between atoms: C_1  and  O_2
REMARK    2  A    between atoms: O_2  and  C_3
REMARK    3  A    between atoms: C_8  and  O_9
REMARK                            x       y       z     vdW  Elec       q    Type
REMARK                         _______ _______ _______ _____ _____    ______ ____
ROOT
ATOM      1  C   UNL     1      -1.324   0.253  20.877  0.00  0.00    +0.000 A 
ATOM      2  C   UNL     1      -2.392  -0.635  20.753  0.00  0.00    +0.000 A 
ATOM      3  C   UNL     1      -3.044  -0.777  19.521  0.00  0.00    +0.000 A 
ATOM      4  C   UNL     1      -2.634  -0.034  18.413  0.00  0.00    +0.000 A 
ATOM      5  C   UNL     1      -1.567   0.855  18.529  0.00  0.00    +0.000 A 
ATOM      6  C   UNL     1      -0.926   0.989  19.754  0.00  0.00    +0.000 A 
ENDROOT
BRANCH   1   8
ATOM      7  C   UNL     1      -1.336   0.865  23.173  0.00  0.00    +0.000 C 
ATOM      8  O   UNL     1      -0.597   0.493  22.015  0.00  0.00    +0.000 OA
ENDBRANCH   1   8
BRANCH   6   9
ATOM      9  O   UNL     1       0.119   1.869  19.844  0.00  0.00    +0.000 OA
ATOM     10  H   UNL     1       0.912   1.305  19.924  0.00  0.00    +0.000 HD
ENDBRANCH   6   9
TORSDOF 2
ENDMDL
MODEL 2
REMARK VINA RESULT:    -4.242     17.610     18.573
REMARK INTER + INTRA:          -4.664
REMARK INTER:                  -4.624
REMARK INTRA:                  -0.039
REMARK UNBOUND:                -0.050
REMARK  Name = 
REMARK  3 active torsions:
REMARK  status: ('A' for Active; 'I' for Inactive)
REMARK    1  A    between atoms: C_1  and  O_2
REMARK    2  A    between atoms: O_2  and  C_3
REMARK    3  A    between atoms: C_8  and  O_9
REMARK                            x       y       z     vdW  Elec       q    Type
REMARK                         _______ _______ _______ _____ _____    ______ ____
ROOT
ATOM      1  C   UNL     1      10.971   6.708   8.469  0.00  0.00    +0.000 A 
ATOM      2  C   UNL     1      12.135   6.652   7.703  0.00  0.00    +0.000 A 
ATOM      3  C   UNL     1      12.082   6.191   6.381  0.00  0.00    +0.000 A 
ATOM      4  C   UNL     1      10.869   5.785   5.822  0.00  0.00    +0.000 A 
ATOM      5  C   UNL     1       9.702   5.838   6.581  0.00  0.00    +0.000 A 
ATOM      6  C   UNL     1       9.764   6.296   7.891  0.00  0.00    +0.000 A 
ENDROOT
BRANCH   1   8
ATOM      7  C   UNL     1      12.063   7.059  10.550  0.00  0.00    +0.000 C 
ATOM      8  O   UNL     1      10.876   7.134   9.769  0.00  0.00    +0.000 OA
ENDBRANCH   1   8
BRANCH   6   9
ATOM      9  O   UNL     1       8.604   6.339   8.617  0.00  0.00    +0.000 OA
ATOM     10  H   UNL     1       7.961   5.829   8.088  0.00  0.00    +0.000 HD
ENDBRANCH   6   9
TORSDOF 2
ENDMDL
MODEL 3
REMARK VINA RESULT:    -4.209     17.416     18.914
REMARK INTER + INTRA:          -4.628
REMARK INTER:                  -4.585
REMARK INTRA:                  -0.044
REMARK UNBOUND:                -0.050
REMARK  Name = 
REMARK  3 active torsions:
REMARK  status: ('A' for Active; 'I' for Inactive)
REMARK    1  A    between atoms: C_1  and  O_2
REMARK    2  A    between atoms: O_2  and  C_3
REMARK    3  A    between atoms: C_8  and  O_9
REMARK                            x       y       z     vdW  Elec       q    Type
REMARK                         _______ _______ _______ _____ _____    ______ ____
ROOT
ATOM      1  C   UNL     1      11.260   6.627   7.347  0.00  0.00    +0.000 A 
ATOM      2  C   UNL     1      11.007   6.050   6.104  0.00  0.00    +0.000 A 
ATOM      3  C   UNL     1       9.729   5.559   5.808  0.00  0.00    +0.000 A 
ATOM      4  C   UNL     1       8.703   5.642   6.751  0.00  0.00    +0.000 A 
ATOM      5  C   UNL     1       8.948   6.217   7.995  0.00  0.00    +0.000 A 
ATOM      6  C   UNL     1      10.219   6.701   8.280  0.00  0.00    +0.000 A 
ENDROOT
BRANCH   1   8
ATOM      7  C   UNL     1      12.834   8.403   7.223  0.00  0.00    +0.000 C 
ATOM      8  O   UNL     1      12.457   7.146   7.772  0.00  0.00    +0.000 OA
ENDBRANCH   1   8
BRANCH   6   9
ATOM      9  O   UNL     1      10.436   7.263   9.511  0.00  0.00    +0.000 OA
ATOM     10  H   UNL     1      10.347   8.224   9.364  0.00  0.00    +0.000 HD
ENDBRANCH   6   9
TORSDOF 2
ENDMDL
MODEL 4
REMARK VINA RESULT:    -4.169     18.458     20.042
REMARK INTER + INTRA:          -4.584
REMARK INTER:                  -4.536
REMARK INTRA:                  -0.049
REMARK UNBOUND:                -0.050
REMARK  Name = 
REMARK  3 active torsions:
REMARK  status: ('A' for Active; 'I' for Inactive)
REMARK    1  A    between atoms: C_1  and  O_2
REMARK    2  A    between atoms: O_2  and  C_3
REMARK    3  A    between atoms: C_8  and  O_9
REMARK                            x       y       z     vdW  Elec       q    Type
REMARK                         _______ _______ _______ _____ _____    ______ ____
ROOT
ATOM      1  C   UNL     1      11.727   6.663   6.223  0.00  0.00    +0.000 A 
ATOM      2  C   UNL     1      12.262   7.353   7.311  0.00  0.00    +0.000 A 
ATOM      3  C   UNL     1      11.595   7.341   8.543  0.00  0.00    +0.000 A 
ATOM      4  C   UNL     1      10.396   6.643   8.692  0.00  0.00    +0.000 A 
ATOM      5  C   UNL     1       9.856   5.951   7.610  0.00  0.00    +0.000 A 
ATOM      6  C   UNL     1      10.523   5.969   6.392  0.00  0.00    +0.000 A 
ENDROOT
BRANCH   1   8
ATOM      7  C   UNL     1      12.644   7.822   4.362  0.00  0.00    +0.000 C 
ATOM      8  O   UNL     1      12.268   6.589   4.965  0.00  0.00    +0.000 OA
ENDBRANCH   1   8
BRANCH   6   9
ATOM      9  O   UNL     1       9.973   5.281   5.343  0.00  0.00    +0.000 OA
ATOM     10  H   UNL     1       9.118   4.953   5.683  0.00  0.00    +0.000 HD
ENDBRANCH   6   9
TORSDOF 2
ENDMDL
MODEL 5
REMARK VINA RESULT:    -4.143     17.989     19.348
REMARK INTER + INTRA:          -4.557
REMARK INTER:                  -4.505
REMARK INTRA:                  -0.052
REMARK UNBOUND:                -0.050
REMARK  Name = 
REMARK  3 active torsions:
REMARK  status: ('A' for Active; 'I' for Inactive)
REMARK    1  A    between atoms: C_1  and  O_2
REMARK    2  A    between atoms: O_2  and  C_3
REMARK    3  A    between atoms: C_8  and  O_9
REMARK                            x       y       z     vdW  Elec       q    Type
REMARK                         _______ _______ _______ _____ _____    ______ ____
ROOT
ATOM      1  C   UNL     1      11.343   6.706   7.247  0.00  0.00    +0.000 A 
ATOM      2  C   UNL     1      10.483   6.674   8.343  0.00  0.00    +0.000 A 
ATOM      3  C   UNL     1       9.168   6.216   8.188  0.00  0.00    +0.000 A 
ATOM      4  C   UNL     1       8.710   5.790   6.940  0.00  0.00    +0.000 A 
ATOM      5  C   UNL     1       9.564   5.818   5.840  0.00  0.00    +0.000 A 
ATOM      6  C   UNL     1      10.866   6.274   6.003  0.00  0.00    +0.000 A 
ENDROOT
BRANCH   1   8
ATOM      7  C   UNL     1      12.864   8.522   7.439  0.00  0.00    +0.000 C 
ATOM      8  O   UNL     1      12.648   7.128   7.252  0.00  0.00    +0.000 OA
ENDBRANCH   1   8
BRANCH   6   9
ATOM      9  O   UNL     1      11.686   6.293   4.907  0.00  0.00    +0.000 OA
ATOM     10  H   UNL     1      11.386   5.543   4.359  0.00  0.00    +0.000 HD
ENDBRANCH   6   9
TORSDOF 2
ENDMDL
MODEL 6
REMARK VINA RESULT:    -4.118      2.173      2.869
REMARK INTER + INTRA:          -4.530
REMARK INTER:                  -4.480
REMARK INTRA:                  -0.050
REMARK UNBOUND:                -0.050
REMARK  Name = 
REMARK  3 active torsions:
REMARK  status: ('A' for Active; 'I' for Inactive)
REMARK    1  A    between atoms: C_1  and  O_2
REMARK    2  A    between atoms: O_2  and  C_3
REMARK    3  A    between atoms: C_8  and  O_9
REMARK                            x       y       z     vdW  Elec       q    Type
REMARK                         _______ _______ _______ _____ _____    ______ ____
ROOT
ATOM      1  C   UNL     1      -0.823  -0.805  20.290  0.00  0.00    +0.000 A 
ATOM      2  C   UNL     1      -0.612   0.567  20.414  0.00  0.00    +0.000 A 
ATOM      3  C   UNL     1      -1.224   1.453  19.517  0.00  0.00    +0.000 A 
ATOM      4  C   UNL     1      -2.045   0.971  18.496  0.00  0.00    +0.000 A 
ATOM      5  C   UNL     1      -2.261  -0.399  18.366  0.00  0.00    +0.000 A 
ATOM      6  C   UNL     1      -1.650  -1.270  19.260  0.00  0.00    +0.000 A 
ENDROOT
BRANCH   1   8
ATOM      7  C   UNL     1       1.103  -2.032  20.949  0.00  0.00    +0.000 C 
ATOM      8  O   UNL     1      -0.290  -1.783  21.091  0.00  0.00    +0.000 OA
ENDBRANCH   1   8
BRANCH   6   9
ATOM      9  O   UNL     1      -1.877  -2.612  19.112  0.00  0.00    +0.000 OA
ATOM     10  H   UNL     1      -2.113  -2.722  18.171  0.00  0.00    +0.000 HD
ENDBRANCH   6   9
TORSDOF 2
ENDMDL
MODEL 7
REMARK VINA RESULT:    -4.085      2.354      3.830
REMARK INTER + INTRA:          -4.494
REMARK INTER:                  -4.445
REMARK INTRA:                  -0.049
REMARK UNBOUND:                -0.050
REMARK  Name = 
REMARK  3 active torsions:
REMARK  status: ('A' for Active; 'I' for Inactive)
REMARK    1  A    between atoms: C_1  and  O_2
REMARK    2  A    between atoms: O_2  and  C_3
REMARK    3  A    between atoms: C_8  and  O_9
REMARK                            x       y       z     vdW  Elec       q    Type
REMARK                         _______ _______ _______ _____ _____    ______ ____
ROOT
ATOM      1  C   UNL     1      -1.882   0.316  18.612  0.00  0.00    +0.000 A 
ATOM      2  C   UNL     1      -1.483   1.553  19.118  0.00  0.00    +0.000 A 
ATOM      3  C   UNL     1      -0.681   1.614  20.264  0.00  0.00    +0.000 A 
ATOM      4  C   UNL     1      -0.275   0.444  20.908  0.00  0.00    +0.000 A 
ATOM      5  C   UNL     1      -0.669  -0.796  20.409  0.00  0.00    +0.000 A 
ATOM      6  C   UNL     1      -1.465  -0.847  19.272  0.00  0.00    +0.000 A 
ENDROOT
BRANCH   1   8
ATOM      7  C   UNL     1      -4.043   0.432  17.631  0.00  0.00    +0.000 C 
ATOM      8  O   UNL     1      -2.664   0.106  17.505  0.00  0.00    +0.000 OA
ENDBRANCH   1   8
BRANCH   6   9
ATOM      9  O   UNL     1      -1.839  -2.077  18.800  0.00  0.00    +0.000 OA
ATOM     10  H   UNL     1      -1.200  -2.700  19.195  0.00  0.00    +0.000 HD
ENDBRANCH   6   9
TORSDOF 2
ENDMDL
MODEL 8
REMARK VINA RESULT:    -4.053     24.128     25.307
REMARK INTER + INTRA:          -4.458
REMARK INTER:                  -4.405
REMARK INTRA:                  -0.053
REMARK UNBOUND:                -0.050
REMARK  Name = 
REMARK  3 active torsions:
REMARK  status: ('A' for Active; 'I' for Inactive)
REMARK    1  A    between atoms: C_1  and  O_2
REMARK    2  A    between atoms: O_2  and  C_3
REMARK    3  A    between atoms: C_8  and  O_9
REMARK                            x       y       z     vdW  Elec       q    Type
REMARK                         _______ _______ _______ _____ _____    ______ ____
ROOT
ATOM      1  C   UNL     1      16.020   5.418   2.966  0.00  0.00    +0.000 A 
ATOM      2  C   UNL     1      17.263   5.176   2.383  0.00  0.00    +0.000 A 
ATOM      3  C   UNL     1      17.559   3.907   1.868  0.00  0.00    +0.000 A 
ATOM      4  C   UNL     1      16.617   2.879   1.934  0.00  0.00    +0.000 A 
ATOM      5  C   UNL     1      15.373   3.114   2.515  0.00  0.00    +0.000 A 
ATOM      6  C   UNL     1      15.088   4.375   3.024  0.00  0.00    +0.000 A 
ENDROOT
BRANCH   1   8
ATOM      7  C   UNL     1      15.431   7.692   2.607  0.00  0.00    +0.000 C 
ATOM      8  O   UNL     1      15.597   6.605   3.510  0.00  0.00    +0.000 OA
ENDBRANCH   1   8
BRANCH   6   9
ATOM      9  O   UNL     1      13.859   4.581   3.590  0.00  0.00    +0.000 OA
ATOM     10  H   UNL     1      13.903   5.484   3.959  0.00  0.00    +0.000 HD
ENDBRANCH   6   9
TORSDOF 2
ENDMDL
MODEL 9
REMARK VINA RESULT:    -3.871      2.070      2.879
REMARK INTER + INTRA:          -4.260
REMARK INTER:                  -4.212
REMARK INTRA:                  -0.049
REMARK UNBOUND:                -0.050
REMARK  Name = 
REMARK  3 active torsions:
REMARK  status: ('A' for Active; 'I' for Inactive)
REMARK    1  A    between atoms: C_1  and  O_2
REMARK    2  A    between atoms: O_2  and  C_3
REMARK    3  A    between atoms: C_8  and  O_9
REMARK                            x       y       z     vdW  Elec       q    Type
REMARK                         _______ _______ _______ _____ _____    ______ ____
ROOT
ATOM      1  C   UNL     1      -1.991  -0.746  20.838  0.00  0.00    +0.000 A 
ATOM      2  C   UNL     1      -1.710   0.264  21.757  0.00  0.00    +0.000 A 
ATOM      3  C   UNL     1      -1.048   1.425  21.339  0.00  0.00    +0.000 A 
ATOM      4  C   UNL     1      -0.663   1.580  20.006  0.00  0.00    +0.000 A 
ATOM      5  C   UNL     1      -0.941   0.575  19.082  0.00  0.00    +0.000 A 
ATOM      6  C   UNL     1      -1.598  -0.573  19.505  0.00  0.00    +0.000 A 
ENDROOT
BRANCH   1   8
ATOM      7  C   UNL     1      -4.028  -1.856  21.357  0.00  0.00    +0.000 C 
ATOM      8  O   UNL     1      -2.630  -1.931  21.105  0.00  0.00    +0.000 OA
ENDBRANCH   1   8
BRANCH   6   9
ATOM      9  O   UNL     1      -1.860  -1.547  18.579  0.00  0.00    +0.000 OA
ATOM     10  H   UNL     1      -0.982  -1.823  18.254  0.00  0.00    +0.000 HD
ENDBRANCH   6   9
TORSDOF 2
ENDMDL
