MODEL 1
REMARK VINA RESULT:    -4.628      0.000      0.000
REMARK INTER + INTRA:          -5.001
REMARK INTER:                  -5.034
REMARK INTRA:                   0.033
REMARK UNBOUND:                 0.033
REMARK  Name = 
REMARK  3 active torsions:
REMARK  status: ('A' for Active; 'I' for Inactive)
REMARK    1  A    between atoms: C_1  and  O_2
REMARK    2  A    between atoms: O_2  and  C_3
REMARK    3  A    between atoms: C_8  and  O_9
REMARK                            x       y       z     vdW  Elec       q    Type
REMARK                         _______ _______ _______ _____ _____    ______ ____
ROOT
ATOM      1  C   UNL     1     -11.359  21.931 -22.787  0.00  0.00    +0.000 A 
ATOM      2  C   UNL     1     -11.664  22.342 -21.490  0.00  0.00    +0.000 A 
ATOM      3  C   UNL     1     -12.315  21.465 -20.613  0.00  0.00    +0.000 A 
ATOM      4  C   UNL     1     -12.664  20.178 -21.029  0.00  0.00    +0.000 A 
ATOM      5  C   UNL     1     -12.362  19.761 -22.323  0.00  0.00    +0.000 A 
ATOM      6  C   UNL     1     -11.716  20.637 -23.185  0.00  0.00    +0.000 A 
ENDROOT
BRANCH   1   8
ATOM      7  C   UNL     1      -9.306  22.635 -23.755  0.00  0.00    +0.000 C 
ATOM      8  O   UNL     1     -10.728  22.681 -23.747  0.00  0.00    +0.000 OA
ENDBRANCH   1   8
BRANCH   6   9
ATOM      9  O   UNL     1     -11.430  20.204 -24.452  0.00  0.00    +0.000 OA
ATOM     10  H   UNL     1     -11.486  21.005 -25.007  0.00  0.00    +0.000 HD
ENDBRANCH   6   9
TORSDOF 2
ENDMDL
MODEL 2
REMARK VINA RESULT:    -4.517      1.130      2.259
REMARK INTER + INTRA:          -4.880
REMARK INTER:                  -4.832
REMARK INTRA:                  -0.048
REMARK UNBOUND:                 0.033
REMARK  Name = 
REMARK  3 active torsions:
REMARK  status: ('A' for Active; 'I' for Inactive)
REMARK    1  A    between atoms: C_1  and  O_2
REMARK    2  A    between atoms: O_2  and  C_3
REMARK    3  A    between atoms: C_8  and  O_9
REMARK                            x       y       z     vdW  Elec       q    Type
REMARK                         _______ _______ _______ _____ _____    ______ ____
ROOT
ATOM      1  C   UNL     1     -11.331  21.772 -22.809  0.00  0.00    +0.000 A 
ATOM      2  C   UNL     1     -11.473  20.541 -23.447  0.00  0.00    +0.000 A 
ATOM      3  C   UNL     1     -12.201  19.514 -22.833  0.00  0.00    +0.000 A 
ATOM      4  C   UNL     1     -12.789  19.713 -21.582  0.00  0.00    +0.000 A 
ATOM      5  C   UNL     1     -12.652  20.941 -20.938  0.00  0.00    +0.000 A 
ATOM      6  C   UNL     1     -11.928  21.953 -21.555  0.00  0.00    +0.000 A 
ENDROOT
BRANCH   1   8
ATOM      7  C   UNL     1      -9.342  22.618 -23.795  0.00  0.00    +0.000 C 
ATOM      8  O   UNL     1     -10.649  22.861 -23.289  0.00  0.00    +0.000 OA
ENDBRANCH   1   8
BRANCH   6   9
ATOM      9  O   UNL     1     -11.807  23.151 -20.902  0.00  0.00    +0.000 OA
ATOM     10  H   UNL     1     -11.021  23.046 -20.333  0.00  0.00    +0.000 HD
ENDBRANCH   6   9
TORSDOF 2
ENDMDL
MODEL 3
REMARK VINA RESULT:    -4.416     13.329     13.773
REMARK INTER + INTRA:          -4.770
REMARK INTER:                  -4.722
REMARK INTRA:                  -0.048
REMARK UNBOUND:                 0.033
REMARK  Name = 
REMARK  3 active torsions:
REMARK  status: ('A' for Active; 'I' for Inactive)
REMARK    1  A    between atoms: C_1  and  O_2
REMARK    2  A    between atoms: O_2  and  C_3
REMARK    3  A    between atoms: C_8  and  O_9
REMARK                            x       y       z     vdW  Elec       q    Type
REMARK                         _______ _______ _______ _____ _____    ______ ____
ROOT
ATOM      1  C   UNL     1      -0.464  13.105 -19.913  0.00  0.00    +0.000 A 
ATOM      2  C   UNL     1      -1.633  12.355 -20.033  0.00  0.00    +0.000 A 
ATOM      3  C   UNL     1      -2.749  12.668 -19.247  0.00  0.00    +0.000 A 
ATOM      4  C   UNL     1      -2.701  13.728 -18.340  0.00  0.00    +0.000 A 
ATOM      5  C   UNL     1      -1.537  14.482 -18.214  0.00  0.00    +0.000 A 
ATOM      6  C   UNL     1      -0.435  14.165 -18.998  0.00  0.00    +0.000 A 
ENDROOT
BRANCH   1   8
ATOM      7  C   UNL     1       0.682  13.287 -21.987  0.00  0.00    +0.000 C 
ATOM      8  O   UNL     1       0.699  12.913 -20.614  0.00  0.00    +0.000 OA
ENDBRANCH   1   8
BRANCH   6   9
ATOM      9  O   UNL     1       0.698  14.921 -18.856  0.00  0.00    +0.000 OA
ATOM     10  H   UNL     1       0.488  15.552 -18.141  0.00  0.00    +0.000 HD
ENDBRANCH   6   9
TORSDOF 2
ENDMDL
MODEL 4
REMARK VINA RESULT:    -4.317     13.645     14.446
REMARK INTER + INTRA:          -4.663
REMARK INTER:                  -4.616
REMARK INTRA:                  -0.046
REMARK UNBOUND:                 0.033
REMARK  Name = 
REMARK  3 active torsions:
REMARK  status: ('A' for Active; 'I' for Inactive)
REMARK    1  A    between atoms: C_1  and  O_2
REMARK    2  A    between atoms: O_2  and  C_3
REMARK    3  A    between atoms: C_8  and  O_9
REMARK                            x       y       z     vdW  Elec       q    Type
REMARK                         _______ _______ _______ _____ _____    ______ ____
ROOT
ATOM      1  C   UNL     1      -0.762  30.600 -24.124  0.00  0.00    +0.000 A 
ATOM      2  C   UNL     1      -0.785  31.250 -22.890  0.00  0.00    +0.000 A 
ATOM      3  C   UNL     1      -1.546  32.414 -22.728  0.00  0.00    +0.000 A 
ATOM      4  C   UNL     1      -2.283  32.933 -23.794  0.00  0.00    +0.000 A 
ATOM      5  C   UNL     1      -2.265  32.289 -25.029  0.00  0.00    +0.000 A 
ATOM      6  C   UNL     1      -1.508  31.135 -25.181  0.00  0.00    +0.000 A 
ENDROOT
BRANCH   1   8
ATOM      7  C   UNL     1      -0.141  28.399 -23.479  0.00  0.00    +0.000 C 
ATOM      8  O   UNL     1      -0.064  29.458 -24.426  0.00  0.00    +0.000 OA
ENDBRANCH   1   8
BRANCH   6   9
ATOM      9  O   UNL     1      -1.506  30.520 -26.405  0.00  0.00    +0.000 OA
ATOM     10  H   UNL     1      -0.582  30.587 -26.715  0.00  0.00    +0.000 HD
ENDBRANCH   6   9
TORSDOF 2
ENDMDL
MODEL 5
REMARK VINA RESULT:    -4.207     13.559     14.475
REMARK INTER + INTRA:          -4.543
REMARK INTER:                  -4.505
REMARK INTRA:                  -0.038
REMARK UNBOUND:                 0.033
REMARK  Name = 
REMARK  3 active torsions:
REMARK  status: ('A' for Active; 'I' for Inactive)
REMARK    1  A    between atoms: C_1  and  O_2
REMARK    2  A    between atoms: O_2  and  C_3
REMARK    3  A    between atoms: C_8  and  O_9
REMARK                            x       y       z     vdW  Elec       q    Type
REMARK                         _______ _______ _______ _____ _____    ______ ____
ROOT
ATOM      1  C   UNL     1      -0.553  29.920 -23.461  0.00  0.00    +0.000 A 
ATOM      2  C   UNL     1      -1.341  30.183 -24.580  0.00  0.00    +0.000 A 
ATOM      3  C   UNL     1      -2.030  31.399 -24.681  0.00  0.00    +0.000 A 
ATOM      4  C   UNL     1      -1.935  32.353 -23.666  0.00  0.00    +0.000 A 
ATOM      5  C   UNL     1      -1.148  32.098 -22.545  0.00  0.00    +0.000 A 
ATOM      6  C   UNL     1      -0.469  30.889 -22.453  0.00  0.00    +0.000 A 
ENDROOT
BRANCH   1   8
ATOM      7  C   UNL     1       0.006  27.721 -24.166  0.00  0.00    +0.000 C 
ATOM      8  O   UNL     1       0.173  28.779 -23.230  0.00  0.00    +0.000 OA
ENDBRANCH   1   8
BRANCH   6   9
ATOM      9  O   UNL     1       0.298  30.661 -21.342  0.00  0.00    +0.000 OA
ATOM     10  H   UNL     1       1.212  30.600 -21.679  0.00  0.00    +0.000 HD
ENDBRANCH   6   9
TORSDOF 2
ENDMDL
MODEL 6
REMARK VINA RESULT:    -4.160     13.861     14.666
REMARK INTER + INTRA:          -4.491
REMARK INTER:                  -4.450
REMARK INTRA:                  -0.041
REMARK UNBOUND:                 0.033
REMARK  Name = 
REMARK  3 active torsions:
REMARK  status: ('A' for Active; 'I' for Inactive)
REMARK    1  A    between atoms: C_1  and  O_2
REMARK    2  A    between atoms: O_2  and  C_3
REMARK    3  A    between atoms: C_8  and  O_9
REMARK                            x       y       z     vdW  Elec       q    Type
REMARK                         _______ _______ _______ _____ _____    ______ ____
ROOT
ATOM      1  C   UNL     1      -1.138  31.415 -23.659  0.00  0.00    +0.000 A 
ATOM      2  C   UNL     1      -1.322  32.790 -23.521  0.00  0.00    +0.000 A 
ATOM      3  C   UNL     1      -1.955  33.517 -24.536  0.00  0.00    +0.000 A 
ATOM      4  C   UNL     1      -2.405  32.875 -25.692  0.00  0.00    +0.000 A 
ATOM      5  C   UNL     1      -2.225  31.501 -25.837  0.00  0.00    +0.000 A 
ATOM      6  C   UNL     1      -1.596  30.789 -24.825  0.00  0.00    +0.000 A 
ENDROOT
BRANCH   1   8
ATOM      7  C   UNL     1      -0.630  30.961 -21.383  0.00  0.00    +0.000 C 
ATOM      8  O   UNL     1      -0.536  30.582 -22.751  0.00  0.00    +0.000 OA
ENDBRANCH   1   8
BRANCH   6   9
ATOM      9  O   UNL     1      -1.430  29.439 -24.991  0.00  0.00    +0.000 OA
ATOM     10  H   UNL     1      -2.336  29.086 -25.072  0.00  0.00    +0.000 HD
ENDBRANCH   6   9
TORSDOF 2
ENDMDL
MODEL 7
REMARK VINA RESULT:    -4.134     14.013     14.488
REMARK INTER + INTRA:          -4.464
REMARK INTER:                  -4.411
REMARK INTRA:                  -0.052
REMARK UNBOUND:                 0.033
REMARK  Name = 
REMARK  3 active torsions:
REMARK  status: ('A' for Active; 'I' for Inactive)
REMARK    1  A    between atoms: C_1  and  O_2
REMARK    2  A    between atoms: O_2  and  C_3
REMARK    3  A    between atoms: C_8  and  O_9
REMARK                            x       y       z     vdW  Elec       q    Type
REMARK                         _______ _______ _______ _____ _____    ______ ____
ROOT
ATOM      1  C   UNL     1      -1.571  31.648 -24.289  0.00  0.00    +0.000 A 
ATOM      2  C   UNL     1      -1.195  31.727 -22.949  0.00  0.00    +0.000 A 
ATOM      3  C   UNL     1      -0.441  30.697 -22.372  0.00  0.00    +0.000 A 
ATOM      4  C   UNL     1      -0.063  29.587 -23.130  0.00  0.00    +0.000 A 
ATOM      5  C   UNL     1      -0.435  29.501 -24.470  0.00  0.00    +0.000 A 
ATOM      6  C   UNL     1      -1.183  30.527 -25.033  0.00  0.00    +0.000 A 
ENDROOT
BRANCH   1   8
ATOM      7  C   UNL     1      -1.674  33.827 -25.232  0.00  0.00    +0.000 C 
ATOM      8  O   UNL     1      -2.306  32.577 -24.981  0.00  0.00    +0.000 OA
ENDBRANCH   1   8
BRANCH   6   9
ATOM      9  O   UNL     1      -1.537  30.420 -26.352  0.00  0.00    +0.000 OA
ATOM     10  H   UNL     1      -2.141  31.171 -26.508  0.00  0.00    +0.000 HD
ENDBRANCH   6   9
TORSDOF 2
ENDMDL
MODEL 8
REMARK VINA RESULT:    -4.050     13.987     14.844
REMARK INTER + INTRA:          -4.372
REMARK INTER:                  -4.319
REMARK INTRA:                  -0.053
REMARK UNBOUND:                 0.033
REMARK  Name = 
REMARK  3 active torsions:
REMARK  status: ('A' for Active; 'I' for Inactive)
REMARK    1  A    between atoms: C_1  and  O_2
REMARK    2  A    between atoms: O_2  and  C_3
REMARK    3  A    between atoms: C_8  and  O_9
REMARK                            x       y       z     vdW  Elec       q    Type
REMARK                         _______ _______ _______ _____ _____    ______ ____
ROOT
ATOM      1  C   UNL     1      -1.087  31.817 -22.889  0.00  0.00    +0.000 A 
ATOM      2  C   UNL     1      -1.819  31.826 -24.075  0.00  0.00    +0.000 A 
ATOM      3  C   UNL     1      -1.837  30.690 -24.895  0.00  0.00    +0.000 A 
ATOM      4  C   UNL     1      -1.124  29.545 -24.535  0.00  0.00    +0.000 A 
ATOM      5  C   UNL     1      -0.390  29.529 -23.351  0.00  0.00    +0.000 A 
ATOM      6  C   UNL     1      -0.378  30.659 -22.544  0.00  0.00    +0.000 A 
ENDROOT
BRANCH   1   8
ATOM      7  C   UNL     1      -0.273  34.003 -22.439  0.00  0.00    +0.000 C 
ATOM      8  O   UNL     1      -0.979  32.851 -21.995  0.00  0.00    +0.000 OA
ENDBRANCH   1   8
BRANCH   6   9
ATOM      9  O   UNL     1       0.351  30.619 -21.385  0.00  0.00    +0.000 OA
ATOM     10  H   UNL     1      -0.190  31.106 -20.735  0.00  0.00    +0.000 HD
ENDBRANCH   6   9
TORSDOF 2
ENDMDL
MODEL 9
REMARK VINA RESULT:    -3.894     13.167     14.409
REMARK INTER + INTRA:          -4.203
REMARK INTER:                  -4.168
REMARK INTRA:                  -0.035
REMARK UNBOUND:                 0.033
REMARK  Name = 
REMARK  3 active torsions:
REMARK  status: ('A' for Active; 'I' for Inactive)
REMARK    1  A    between atoms: C_1  and  O_2
REMARK    2  A    between atoms: O_2  and  C_3
REMARK    3  A    between atoms: C_8  and  O_9
REMARK                            x       y       z     vdW  Elec       q    Type
REMARK                         _______ _______ _______ _____ _____    ______ ____
ROOT
ATOM      1  C   UNL     1      -0.840  22.844 -32.253  0.00  0.00    +0.000 A 
ATOM      2  C   UNL     1      -0.660  22.499 -33.592  0.00  0.00    +0.000 A 
ATOM      3  C   UNL     1      -1.756  22.482 -34.463  0.00  0.00    +0.000 A 
ATOM      4  C   UNL     1      -3.033  22.809 -34.001  0.00  0.00    +0.000 A 
ATOM      5  C   UNL     1      -3.220  23.156 -32.665  0.00  0.00    +0.000 A 
ATOM      6  C   UNL     1      -2.127  23.169 -31.807  0.00  0.00    +0.000 A 
ENDROOT
BRANCH   1   8
ATOM      7  C   UNL     1       0.579  21.657 -30.761  0.00  0.00    +0.000 C 
ATOM      8  O   UNL     1       0.138  22.901 -31.292  0.00  0.00    +0.000 OA
ENDBRANCH   1   8
BRANCH   6   9
ATOM      9  O   UNL     1      -2.336  23.512 -30.498  0.00  0.00    +0.000 OA
ATOM     10  H   UNL     1      -1.966  24.412 -30.416  0.00  0.00    +0.000 HD
ENDBRANCH   6   9
TORSDOF 2
ENDMDL
