MODEL 1
REMARK VINA RESULT:    -3.650      0.000      0.000
REMARK INTER + INTRA:          -3.963
REMARK INTER:                  -3.970
REMARK INTRA:                   0.007
REMARK UNBOUND:                 0.007
REMARK  Name = 
REMARK  3 active torsions:
REMARK  status: ('A' for Active; 'I' for Inactive)
REMARK    1  A    between atoms: C_1  and  O_2
REMARK    2  A    between atoms: O_2  and  C_3
REMARK    3  A    between atoms: C_8  and  O_9
REMARK                            x       y       z     vdW  Elec       q    Type
REMARK                         _______ _______ _______ _____ _____    ______ ____
ROOT
ATOM      1  C   UNL     1       4.675  13.928   3.122  0.00  0.00    +0.000 A 
ATOM      2  C   UNL     1       4.385  14.084   4.477  0.00  0.00    +0.000 A 
ATOM      3  C   UNL     1       5.029  15.082   5.219  0.00  0.00    +0.000 A 
ATOM      4  C   UNL     1       5.962  15.925   4.613  0.00  0.00    +0.000 A 
ATOM      5  C   UNL     1       6.257  15.775   3.259  0.00  0.00    +0.000 A 
ATOM      6  C   UNL     1       5.614  14.782   2.531  0.00  0.00    +0.000 A 
ENDROOT
BRANCH   1   8
ATOM      7  C   UNL     1       4.731  11.710   2.269  0.00  0.00    +0.000 C 
ATOM      8  O   UNL     1       4.125  12.997   2.277  0.00  0.00    +0.000 OA
ENDBRANCH   1   8
BRANCH   6   9
ATOM      9  O   UNL     1       5.921  14.654   1.202  0.00  0.00    +0.000 OA
ATOM     10  H   UNL     1       5.113  14.938   0.733  0.00  0.00    +0.000 HD
ENDBRANCH   6   9
TORSDOF 2
ENDMDL
MODEL 2
REMARK VINA RESULT:    -3.489      4.443      5.739
REMARK INTER + INTRA:          -3.788
REMARK INTER:                  -3.751
REMARK INTRA:                  -0.037
REMARK UNBOUND:                 0.007
REMARK  Name = 
REMARK  3 active torsions:
REMARK  status: ('A' for Active; 'I' for Inactive)
REMARK    1  A    between atoms: C_1  and  O_2
REMARK    2  A    between atoms: O_2  and  C_3
REMARK    3  A    between atoms: C_8  and  O_9
REMARK                            x       y       z     vdW  Elec       q    Type
REMARK                         _______ _______ _______ _____ _____    ______ ____
ROOT
ATOM      1  C   UNL     1       3.023  14.061   7.163  0.00  0.00    +0.000 A 
ATOM      2  C   UNL     1       1.830  14.784   7.155  0.00  0.00    +0.000 A 
ATOM      3  C   UNL     1       0.999  14.774   8.282  0.00  0.00    +0.000 A 
ATOM      4  C   UNL     1       1.354  14.045   9.418  0.00  0.00    +0.000 A 
ATOM      5  C   UNL     1       2.544  13.321   9.434  0.00  0.00    +0.000 A 
ATOM      6  C   UNL     1       3.363  13.336   8.311  0.00  0.00    +0.000 A 
ENDROOT
BRANCH   1   8
ATOM      7  C   UNL     1       3.662  14.778   4.989  0.00  0.00    +0.000 C 
ATOM      8  O   UNL     1       3.929  13.980   6.136  0.00  0.00    +0.000 OA
ENDBRANCH   1   8
BRANCH   6   9
ATOM      9  O   UNL     1       4.527  12.617   8.351  0.00  0.00    +0.000 OA
ATOM     10  H   UNL     1       4.965  12.897   9.178  0.00  0.00    +0.000 HD
ENDBRANCH   6   9
TORSDOF 2
ENDMDL
MODEL 3
REMARK VINA RESULT:    -3.487      6.447      6.849
REMARK INTER + INTRA:          -3.786
REMARK INTER:                  -3.734
REMARK INTRA:                  -0.052
REMARK UNBOUND:                 0.007
REMARK  Name = 
REMARK  3 active torsions:
REMARK  status: ('A' for Active; 'I' for Inactive)
REMARK    1  A    between atoms: C_1  and  O_2
REMARK    2  A    between atoms: O_2  and  C_3
REMARK    3  A    between atoms: C_8  and  O_9
REMARK                            x       y       z     vdW  Elec       q    Type
REMARK                         _______ _______ _______ _____ _____    ______ ____
ROOT
ATOM      1  C   UNL     1      -0.092  15.596  -0.914  0.00  0.00    +0.000 A 
ATOM      2  C   UNL     1      -0.595  16.770  -0.356  0.00  0.00    +0.000 A 
ATOM      3  C   UNL     1       0.197  17.925  -0.325  0.00  0.00    +0.000 A 
ATOM      4  C   UNL     1       1.491  17.910  -0.849  0.00  0.00    +0.000 A 
ATOM      5  C   UNL     1       2.001  16.741  -1.408  0.00  0.00    +0.000 A 
ATOM      6  C   UNL     1       1.208  15.600  -1.435  0.00  0.00    +0.000 A 
ENDROOT
BRANCH   1   8
ATOM      7  C   UNL     1      -1.941  14.388  -1.791  0.00  0.00    +0.000 C 
ATOM      8  O   UNL     1      -0.751  14.397  -1.011  0.00  0.00    +0.000 OA
ENDBRANCH   1   8
BRANCH   6   9
ATOM      9  O   UNL     1       1.731  14.462  -1.990  0.00  0.00    +0.000 OA
ATOM     10  H   UNL     1       2.554  14.298  -1.491  0.00  0.00    +0.000 HD
ENDBRANCH   6   9
TORSDOF 2
ENDMDL
MODEL 4
REMARK VINA RESULT:    -3.426      6.049      6.937
REMARK INTER + INTRA:          -3.720
REMARK INTER:                  -3.672
REMARK INTRA:                  -0.048
REMARK UNBOUND:                 0.007
REMARK  Name = 
REMARK  3 active torsions:
REMARK  status: ('A' for Active; 'I' for Inactive)
REMARK    1  A    between atoms: C_1  and  O_2
REMARK    2  A    between atoms: O_2  and  C_3
REMARK    3  A    between atoms: C_8  and  O_9
REMARK                            x       y       z     vdW  Elec       q    Type
REMARK                         _______ _______ _______ _____ _____    ______ ____
ROOT
ATOM      1  C   UNL     1       1.364  16.618  -1.248  0.00  0.00    +0.000 A 
ATOM      2  C   UNL     1       0.492  17.497  -0.607  0.00  0.00    +0.000 A 
ATOM      3  C   UNL     1      -0.764  17.050  -0.180  0.00  0.00    +0.000 A 
ATOM      4  C   UNL     1      -1.154  15.726  -0.392  0.00  0.00    +0.000 A 
ATOM      5  C   UNL     1      -0.288  14.841  -1.031  0.00  0.00    +0.000 A 
ATOM      6  C   UNL     1       0.956  15.294  -1.451  0.00  0.00    +0.000 A 
ENDROOT
BRANCH   1   8
ATOM      7  C   UNL     1       3.633  17.108  -0.739  0.00  0.00    +0.000 C 
ATOM      8  O   UNL     1       2.618  16.917  -1.717  0.00  0.00    +0.000 OA
ENDBRANCH   1   8
BRANCH   6   9
ATOM      9  O   UNL     1       1.789  14.406  -2.078  0.00  0.00    +0.000 OA
ATOM     10  H   UNL     1       2.580  14.929  -2.310  0.00  0.00    +0.000 HD
ENDBRANCH   6   9
TORSDOF 2
ENDMDL
MODEL 5
REMARK VINA RESULT:    -3.351      1.893      2.392
REMARK INTER + INTRA:          -3.638
REMARK INTER:                  -3.588
REMARK INTRA:                  -0.051
REMARK UNBOUND:                 0.007
REMARK  Name = 
REMARK  3 active torsions:
REMARK  status: ('A' for Active; 'I' for Inactive)
REMARK    1  A    between atoms: C_1  and  O_2
REMARK    2  A    between atoms: O_2  and  C_3
REMARK    3  A    between atoms: C_8  and  O_9
REMARK                            x       y       z     vdW  Elec       q    Type
REMARK                         _______ _______ _______ _____ _____    ______ ____
ROOT
ATOM      1  C   UNL     1       4.880  14.931   3.054  0.00  0.00    +0.000 A 
ATOM      2  C   UNL     1       4.132  15.610   2.093  0.00  0.00    +0.000 A 
ATOM      3  C   UNL     1       4.439  16.940   1.779  0.00  0.00    +0.000 A 
ATOM      4  C   UNL     1       5.490  17.595   2.423  0.00  0.00    +0.000 A 
ATOM      5  C   UNL     1       6.243  16.923   3.384  0.00  0.00    +0.000 A 
ATOM      6  C   UNL     1       5.931  15.604   3.689  0.00  0.00    +0.000 A 
ENDROOT
BRANCH   1   8
ATOM      7  C   UNL     1       4.718  12.640   2.443  0.00  0.00    +0.000 C 
ATOM      8  O   UNL     1       4.693  13.634   3.460  0.00  0.00    +0.000 OA
ENDBRANCH   1   8
BRANCH   6   9
ATOM      9  O   UNL     1       6.685  14.965   4.637  0.00  0.00    +0.000 OA
ATOM     10  H   UNL     1       7.566  14.865   4.228  0.00  0.00    +0.000 HD
ENDBRANCH   6   9
TORSDOF 2
ENDMDL
MODEL 6
REMARK VINA RESULT:    -3.311      1.696      2.595
REMARK INTER + INTRA:          -3.594
REMARK INTER:                  -3.544
REMARK INTRA:                  -0.050
REMARK UNBOUND:                 0.007
REMARK  Name = 
REMARK  3 active torsions:
REMARK  status: ('A' for Active; 'I' for Inactive)
REMARK    1  A    between atoms: C_1  and  O_2
REMARK    2  A    between atoms: O_2  and  C_3
REMARK    3  A    between atoms: C_8  and  O_9
REMARK                            x       y       z     vdW  Elec       q    Type
REMARK                         _______ _______ _______ _____ _____    ______ ____
ROOT
ATOM      1  C   UNL     1       4.657  15.516   2.232  0.00  0.00    +0.000 A 
ATOM      2  C   UNL     1       4.001  16.212   3.247  0.00  0.00    +0.000 A 
ATOM      3  C   UNL     1       3.927  15.665   4.534  0.00  0.00    +0.000 A 
ATOM      4  C   UNL     1       4.505  14.425   4.811  0.00  0.00    +0.000 A 
ATOM      5  C   UNL     1       5.162  13.724   3.802  0.00  0.00    +0.000 A 
ATOM      6  C   UNL     1       5.231  14.274   2.528  0.00  0.00    +0.000 A 
ENDROOT
BRANCH   1   8
ATOM      7  C   UNL     1       3.617  16.297   0.243  0.00  0.00    +0.000 C 
ATOM      8  O   UNL     1       4.806  15.928   0.931  0.00  0.00    +0.000 OA
ENDBRANCH   1   8
BRANCH   6   9
ATOM      9  O   UNL     1       5.882  13.566   1.553  0.00  0.00    +0.000 OA
ATOM     10  H   UNL     1       5.458  12.687   1.560  0.00  0.00    +0.000 HD
ENDBRANCH   6   9
TORSDOF 2
ENDMDL
MODEL 7
REMARK VINA RESULT:    -3.298      4.905      6.364
REMARK INTER + INTRA:          -3.581
REMARK INTER:                  -3.528
REMARK INTRA:                  -0.053
REMARK UNBOUND:                 0.007
REMARK  Name = 
REMARK  3 active torsions:
REMARK  status: ('A' for Active; 'I' for Inactive)
REMARK    1  A    between atoms: C_1  and  O_2
REMARK    2  A    between atoms: O_2  and  C_3
REMARK    3  A    between atoms: C_8  and  O_9
REMARK                            x       y       z     vdW  Elec       q    Type
REMARK                         _______ _______ _______ _____ _____    ______ ____
ROOT
ATOM      1  C   UNL     1       2.570  14.118   7.528  0.00  0.00    +0.000 A 
ATOM      2  C   UNL     1       3.726  13.338   7.533  0.00  0.00    +0.000 A 
ATOM      3  C   UNL     1       4.059  12.589   8.668  0.00  0.00    +0.000 A 
ATOM      4  C   UNL     1       3.242  12.616   9.800  0.00  0.00    +0.000 A 
ATOM      5  C   UNL     1       2.085  13.392   9.802  0.00  0.00    +0.000 A 
ATOM      6  C   UNL     1       1.762  14.132   8.672  0.00  0.00    +0.000 A 
ENDROOT
BRANCH   1   8
ATOM      7  C   UNL     1       2.907  16.042   6.175  0.00  0.00    +0.000 C 
ATOM      8  O   UNL     1       2.123  14.899   6.492  0.00  0.00    +0.000 OA
ENDBRANCH   1   8
BRANCH   6   9
ATOM      9  O   UNL     1       0.620  14.888   8.698  0.00  0.00    +0.000 OA
ATOM     10  H   UNL     1       0.119  14.609   7.908  0.00  0.00    +0.000 HD
ENDBRANCH   6   9
TORSDOF 2
ENDMDL
MODEL 8
REMARK VINA RESULT:    -3.293      2.265      3.943
REMARK INTER + INTRA:          -3.575
REMARK INTER:                  -3.538
REMARK INTRA:                  -0.037
REMARK UNBOUND:                 0.007
REMARK  Name = 
REMARK  3 active torsions:
REMARK  status: ('A' for Active; 'I' for Inactive)
REMARK    1  A    between atoms: C_1  and  O_2
REMARK    2  A    between atoms: O_2  and  C_3
REMARK    3  A    between atoms: C_8  and  O_9
REMARK                            x       y       z     vdW  Elec       q    Type
REMARK                         _______ _______ _______ _____ _____    ______ ____
ROOT
ATOM      1  C   UNL     1       5.850  16.338   3.101  0.00  0.00    +0.000 A 
ATOM      2  C   UNL     1       4.909  16.338   2.072  0.00  0.00    +0.000 A 
ATOM      3  C   UNL     1       4.128  15.199   1.838  0.00  0.00    +0.000 A 
ATOM      4  C   UNL     1       4.286  14.058   2.628  0.00  0.00    +0.000 A 
ATOM      5  C   UNL     1       5.224  14.051   3.658  0.00  0.00    +0.000 A 
ATOM      6  C   UNL     1       5.994  15.185   3.883  0.00  0.00    +0.000 A 
ENDROOT
BRANCH   1   8
ATOM      7  C   UNL     1       6.459  18.611   2.770  0.00  0.00    +0.000 C 
ATOM      8  O   UNL     1       6.679  17.376   3.441  0.00  0.00    +0.000 OA
ENDBRANCH   1   8
BRANCH   6   9
ATOM      9  O   UNL     1       6.909  15.153   4.901  0.00  0.00    +0.000 OA
ATOM     10  H   UNL     1       7.776  15.231   4.458  0.00  0.00    +0.000 HD
ENDBRANCH   6   9
TORSDOF 2
ENDMDL
MODEL 9
REMARK VINA RESULT:    -3.279      2.415      3.207
REMARK INTER + INTRA:          -3.560
REMARK INTER:                  -3.521
REMARK INTRA:                  -0.039
REMARK UNBOUND:                 0.007
REMARK  Name = 
REMARK  3 active torsions:
REMARK  status: ('A' for Active; 'I' for Inactive)
REMARK    1  A    between atoms: C_1  and  O_2
REMARK    2  A    between atoms: O_2  and  C_3
REMARK    3  A    between atoms: C_8  and  O_9
REMARK                            x       y       z     vdW  Elec       q    Type
REMARK                         _______ _______ _______ _____ _____    ______ ____
ROOT
ATOM      1  C   UNL     1       3.902  15.331   4.279  0.00  0.00    +0.000 A 
ATOM      2  C   UNL     1       4.571  14.108   4.233  0.00  0.00    +0.000 A 
ATOM      3  C   UNL     1       5.350  13.779   3.117  0.00  0.00    +0.000 A 
ATOM      4  C   UNL     1       5.464  14.666   2.045  0.00  0.00    +0.000 A 
ATOM      5  C   UNL     1       4.799  15.890   2.084  0.00  0.00    +0.000 A 
ATOM      6  C   UNL     1       4.028  16.208   3.195  0.00  0.00    +0.000 A 
ENDROOT
BRANCH   1   8
ATOM      7  C   UNL     1       2.560  14.793   6.164  0.00  0.00    +0.000 C 
ATOM      8  O   UNL     1       3.108  15.783   5.302  0.00  0.00    +0.000 OA
ENDBRANCH   1   8
BRANCH   6   9
ATOM      9  O   UNL     1       3.384  17.417   3.210  0.00  0.00    +0.000 OA
ATOM     10  H   UNL     1       3.052  17.510   4.123  0.00  0.00    +0.000 HD
ENDBRANCH   6   9
TORSDOF 2
ENDMDL
