MODEL 1
REMARK VINA RESULT:    -3.964      0.000      0.000
REMARK INTER + INTRA:          -5.722
REMARK INTER:                  -5.354
REMARK INTRA:                  -0.368
REMARK UNBOUND:                -0.368
REMARK  Name = 
REMARK  10 active torsions:
REMARK  status: ('A' for Active; 'I' for Inactive)
REMARK    1  A    between atoms: C_1  and  C_2
REMARK    2  A    between atoms: C_5  and  N_8
REMARK    3  A    between atoms: N_8  and  C_9
REMARK    4  A    between atoms: N_8  and  C_13
REMARK    5  A    between atoms: C_9  and  C_10
REMARK    6  A    between atoms: C_10  and  C_11
REMARK    7  A    between atoms: C_10  and  O_12
REMARK    8  A    between atoms: C_13  and  C_14
REMARK    9  A    between atoms: C_14  and  C_15
REMARK   10  A    between atoms: C_14  and  O_16
REMARK                            x       y       z     vdW  Elec       q    Type
REMARK                         _______ _______ _______ _____ _____    ______ ____
ROOT
ATOM      1  N   UNL     1      13.918  20.079   5.992  0.00  0.00    +0.000 N 
ENDROOT
BRANCH   1   6
ATOM      2  C   UNL     1      18.357  16.388   6.019  0.00  0.00    +0.000 C 
ATOM      3  C   UNL     1      17.220  17.363   6.022  0.00  0.00    +0.000 A 
ATOM      4  C   UNL     1      16.327  17.415   7.088  0.00  0.00    +0.000 A 
ATOM      5  C   UNL     1      15.245  18.311   7.072  0.00  0.00    +0.000 A 
ATOM      6  C   UNL     1      14.988  19.175   5.992  0.00  0.00    +0.000 A 
ATOM      7  C   UNL     1      15.911  19.096   4.934  0.00  0.00    +0.000 A 
ATOM      8  C   UNL     1      16.999  18.207   4.938  0.00  0.00    +0.000 A 
ENDBRANCH   1   6
BRANCH   1   9
ATOM      9  C   UNL     1      13.760  21.044   7.107  0.00  0.00    +0.000 C 
BRANCH   9  10
ATOM     10  C   UNL     1      14.066  22.502   6.685  0.00  0.00    +0.000 C 
ATOM     11  C   UNL     1      15.532  22.663   6.301  0.00  0.00    +0.000 C 
BRANCH  10  12
ATOM     12  O   UNL     1      13.266  22.891   5.560  0.00  0.00    +0.000 OA
ATOM     13  H   UNL     1      13.290  23.860   5.494  0.00  0.00    +0.000 HD
ENDBRANCH  10  12
ENDBRANCH   9  10
ENDBRANCH   1   9
BRANCH   1  14
ATOM     14  C   UNL     1      12.676  19.800   5.227  0.00  0.00    +0.000 C 
BRANCH  14  15
ATOM     15  C   UNL     1      11.574  19.168   6.112  0.00  0.00    +0.000 C 
ATOM     16  C   UNL     1      10.163  19.505   5.645  0.00  0.00    +0.000 C 
BRANCH  15  17
ATOM     17  O   UNL     1      11.694  17.747   6.168  0.00  0.00    +0.000 OA
ATOM     18  H   UNL     1      11.630  17.525   7.119  0.00  0.00    +0.000 HD
ENDBRANCH  15  17
ENDBRANCH  14  15
ENDBRANCH   1  14
TORSDOF 7
ENDMDL
MODEL 2
REMARK VINA RESULT:    -3.941      3.112      5.858
REMARK INTER + INTRA:          -5.691
REMARK INTER:                  -4.961
REMARK INTRA:                  -0.730
REMARK UNBOUND:                -0.368
REMARK  Name = 
REMARK  10 active torsions:
REMARK  status: ('A' for Active; 'I' for Inactive)
REMARK    1  A    between atoms: C_1  and  C_2
REMARK    2  A    between atoms: C_5  and  N_8
REMARK    3  A    between atoms: N_8  and  C_9
REMARK    4  A    between atoms: N_8  and  C_13
REMARK    5  A    between atoms: C_9  and  C_10
REMARK    6  A    between atoms: C_10  and  C_11
REMARK    7  A    between atoms: C_10  and  O_12
REMARK    8  A    between atoms: C_13  and  C_14
REMARK    9  A    between atoms: C_14  and  C_15
REMARK   10  A    between atoms: C_14  and  O_16
REMARK                            x       y       z     vdW  Elec       q    Type
REMARK                         _______ _______ _______ _____ _____    ______ ____
ROOT
ATOM      1  N   UNL     1      17.330  19.114   5.028  0.00  0.00    +0.000 N 
ENDROOT
BRANCH   1   6
ATOM      2  C   UNL     1      11.691  19.944   5.942  0.00  0.00    +0.000 C 
ATOM      3  C   UNL     1      13.150  19.728   5.680  0.00  0.00    +0.000 A 
ATOM      4  C   UNL     1      13.690  18.446   5.659  0.00  0.00    +0.000 A 
ATOM      5  C   UNL     1      15.064  18.251   5.443  0.00  0.00    +0.000 A 
ATOM      6  C   UNL     1      15.964  19.316   5.262  0.00  0.00    +0.000 A 
ATOM      7  C   UNL     1      15.384  20.598   5.287  0.00  0.00    +0.000 A 
ATOM      8  C   UNL     1      14.011  20.807   5.500  0.00  0.00    +0.000 A 
ENDBRANCH   1   6
BRANCH   1   9
ATOM      9  C   UNL     1      18.156  18.391   6.025  0.00  0.00    +0.000 C 
BRANCH   9  10
ATOM     10  C   UNL     1      18.689  17.037   5.494  0.00  0.00    +0.000 C 
ATOM     11  C   UNL     1      18.893  16.048   6.635  0.00  0.00    +0.000 C 
BRANCH  10  12
ATOM     12  O   UNL     1      17.772  16.454   4.559  0.00  0.00    +0.000 OA
ATOM     13  H   UNL     1      18.252  16.286   3.731  0.00  0.00    +0.000 HD
ENDBRANCH  10  12
ENDBRANCH   9  10
ENDBRANCH   1   9
BRANCH   1  14
ATOM     14  C   UNL     1      18.092  19.998   4.109  0.00  0.00    +0.000 C 
BRANCH  14  15
ATOM     15  C   UNL     1      17.783  19.700   2.622  0.00  0.00    +0.000 C 
ATOM     16  C   UNL     1      18.556  20.593   1.658  0.00  0.00    +0.000 C 
BRANCH  15  17
ATOM     17  O   UNL     1      18.064  18.342   2.287  0.00  0.00    +0.000 OA
ATOM     18  H   UNL     1      17.394  18.104   1.614  0.00  0.00    +0.000 HD
ENDBRANCH  15  17
ENDBRANCH  14  15
ENDBRANCH   1  14
TORSDOF 7
ENDMDL
MODEL 3
REMARK VINA RESULT:    -3.884      7.633      9.858
REMARK INTER + INTRA:          -5.615
REMARK INTER:                  -5.157
REMARK INTRA:                  -0.458
REMARK UNBOUND:                -0.368
REMARK  Name = 
REMARK  10 active torsions:
REMARK  status: ('A' for Active; 'I' for Inactive)
REMARK    1  A    between atoms: C_1  and  C_2
REMARK    2  A    between atoms: C_5  and  N_8
REMARK    3  A    between atoms: N_8  and  C_9
REMARK    4  A    between atoms: N_8  and  C_13
REMARK    5  A    between atoms: C_9  and  C_10
REMARK    6  A    between atoms: C_10  and  C_11
REMARK    7  A    between atoms: C_10  and  O_12
REMARK    8  A    between atoms: C_13  and  C_14
REMARK    9  A    between atoms: C_14  and  C_15
REMARK   10  A    between atoms: C_14  and  O_16
REMARK                            x       y       z     vdW  Elec       q    Type
REMARK                         _______ _______ _______ _____ _____    ______ ____
ROOT
ATOM      1  N   UNL     1      16.821  20.388  -2.077  0.00  0.00    +0.000 N 
ENDROOT
BRANCH   1   6
ATOM      2  C   UNL     1      11.598  22.661  -1.137  0.00  0.00    +0.000 C 
ATOM      3  C   UNL     1      12.957  22.069  -1.356  0.00  0.00    +0.000 A 
ATOM      4  C   UNL     1      14.075  22.883  -1.501  0.00  0.00    +0.000 A 
ATOM      5  C   UNL     1      15.342  22.325  -1.736  0.00  0.00    +0.000 A 
ATOM      6  C   UNL     1      15.551  20.939  -1.861  0.00  0.00    +0.000 A 
ATOM      7  C   UNL     1      14.399  20.147  -1.707  0.00  0.00    +0.000 A 
ATOM      8  C   UNL     1      13.127  20.693  -1.469  0.00  0.00    +0.000 A 
ENDBRANCH   1   6
BRANCH   1   9
ATOM      9  C   UNL     1      16.956  18.965  -2.471  0.00  0.00    +0.000 C 
BRANCH   9  10
ATOM     10  C   UNL     1      17.802  18.776  -3.754  0.00  0.00    +0.000 C 
ATOM     11  C   UNL     1      18.837  17.672  -3.566  0.00  0.00    +0.000 C 
BRANCH  10  12
ATOM     12  O   UNL     1      16.974  18.423  -4.870  0.00  0.00    +0.000 OA
ATOM     13  H   UNL     1      16.451  19.204  -5.116  0.00  0.00    +0.000 HD
ENDBRANCH  10  12
ENDBRANCH   9  10
ENDBRANCH   1   9
BRANCH   1  14
ATOM     14  C   UNL     1      18.032  20.981  -1.455  0.00  0.00    +0.000 C 
BRANCH  14  15
ATOM     15  C   UNL     1      18.120  20.679   0.060  0.00  0.00    +0.000 C 
ATOM     16  C   UNL     1      19.424  20.001   0.462  0.00  0.00    +0.000 C 
BRANCH  15  17
ATOM     17  O   UNL     1      17.978  21.863   0.843  0.00  0.00    +0.000 OA
ATOM     18  H   UNL     1      17.487  21.581   1.641  0.00  0.00    +0.000 HD
ENDBRANCH  15  17
ENDBRANCH  14  15
ENDBRANCH   1  14
TORSDOF 7
ENDMDL
MODEL 4
REMARK VINA RESULT:    -3.805      3.021      5.836
REMARK INTER + INTRA:          -5.507
REMARK INTER:                  -4.909
REMARK INTRA:                  -0.599
REMARK UNBOUND:                -0.368
REMARK  Name = 
REMARK  10 active torsions:
REMARK  status: ('A' for Active; 'I' for Inactive)
REMARK    1  A    between atoms: C_1  and  C_2
REMARK    2  A    between atoms: C_5  and  N_8
REMARK    3  A    between atoms: N_8  and  C_9
REMARK    4  A    between atoms: N_8  and  C_13
REMARK    5  A    between atoms: C_9  and  C_10
REMARK    6  A    between atoms: C_10  and  C_11
REMARK    7  A    between atoms: C_10  and  O_12
REMARK    8  A    between atoms: C_13  and  C_14
REMARK    9  A    between atoms: C_14  and  C_15
REMARK   10  A    between atoms: C_14  and  O_16
REMARK                            x       y       z     vdW  Elec       q    Type
REMARK                         _______ _______ _______ _____ _____    ______ ____
ROOT
ATOM      1  N   UNL     1      17.175  19.813   5.329  0.00  0.00    +0.000 N 
ENDROOT
BRANCH   1   6
ATOM      2  C   UNL     1      11.425  19.657   5.827  0.00  0.00    +0.000 C 
ATOM      3  C   UNL     1      12.915  19.697   5.673  0.00  0.00    +0.000 A 
ATOM      4  C   UNL     1      13.665  18.526   5.682  0.00  0.00    +0.000 A 
ATOM      5  C   UNL     1      15.064  18.571   5.567  0.00  0.00    +0.000 A 
ATOM      6  C   UNL     1      15.781  19.776   5.462  0.00  0.00    +0.000 A 
ATOM      7  C   UNL     1      14.990  20.940   5.455  0.00  0.00    +0.000 A 
ATOM      8  C   UNL     1      13.590  20.909   5.567  0.00  0.00    +0.000 A 
ENDBRANCH   1   6
BRANCH   1   9
ATOM      9  C   UNL     1      17.961  18.558   5.396  0.00  0.00    +0.000 C 
BRANCH   9  10
ATOM     10  C   UNL     1      18.592  18.171   4.035  0.00  0.00    +0.000 C 
ATOM     11  C   UNL     1      19.000  16.703   4.022  0.00  0.00    +0.000 C 
BRANCH  10  12
ATOM     12  O   UNL     1      17.667  18.385   2.960  0.00  0.00    +0.000 OA
ATOM     13  H   UNL     1      16.924  17.769   3.075  0.00  0.00    +0.000 HD
ENDBRANCH  10  12
ENDBRANCH   9  10
ENDBRANCH   1   9
BRANCH   1  14
ATOM     14  C   UNL     1      17.944  21.048   5.628  0.00  0.00    +0.000 C 
BRANCH  14  15
ATOM     15  C   UNL     1      18.190  21.904   4.362  0.00  0.00    +0.000 C 
ATOM     16  C   UNL     1      19.662  22.225   4.133  0.00  0.00    +0.000 C 
BRANCH  15  17
ATOM     17  O   UNL     1      17.689  21.265   3.188  0.00  0.00    +0.000 OA
ATOM     18  H   UNL     1      17.178  21.958   2.723  0.00  0.00    +0.000 HD
ENDBRANCH  15  17
ENDBRANCH  14  15
ENDBRANCH   1  14
TORSDOF 7
ENDMDL
MODEL 5
REMARK VINA RESULT:    -3.758      7.677      9.463
REMARK INTER + INTRA:          -5.444
REMARK INTER:                  -4.946
REMARK INTRA:                  -0.498
REMARK UNBOUND:                -0.368
REMARK  Name = 
REMARK  10 active torsions:
REMARK  status: ('A' for Active; 'I' for Inactive)
REMARK    1  A    between atoms: C_1  and  C_2
REMARK    2  A    between atoms: C_5  and  N_8
REMARK    3  A    between atoms: N_8  and  C_9
REMARK    4  A    between atoms: N_8  and  C_13
REMARK    5  A    between atoms: C_9  and  C_10
REMARK    6  A    between atoms: C_10  and  C_11
REMARK    7  A    between atoms: C_10  and  O_12
REMARK    8  A    between atoms: C_13  and  C_14
REMARK    9  A    between atoms: C_14  and  C_15
REMARK   10  A    between atoms: C_14  and  O_16
REMARK                            x       y       z     vdW  Elec       q    Type
REMARK                         _______ _______ _______ _____ _____    ______ ____
ROOT
ATOM      1  N   UNL     1      17.100  19.903  -1.625  0.00  0.00    +0.000 N 
ENDROOT
BRANCH   1   6
ATOM      2  C   UNL     1      11.975  22.556  -1.458  0.00  0.00    +0.000 C 
ATOM      3  C   UNL     1      13.305  21.867  -1.477  0.00  0.00    +0.000 A 
ATOM      4  C   UNL     1      14.487  22.598  -1.540  0.00  0.00    +0.000 A 
ATOM      5  C   UNL     1      15.730  21.947  -1.587  0.00  0.00    +0.000 A 
ATOM      6  C   UNL     1      15.856  20.546  -1.597  0.00  0.00    +0.000 A 
ATOM      7  C   UNL     1      14.641  19.839  -1.531  0.00  0.00    +0.000 A 
ATOM      8  C   UNL     1      13.391  20.478  -1.481  0.00  0.00    +0.000 A 
ENDBRANCH   1   6
BRANCH   1   9
ATOM      9  C   UNL     1      18.273  20.526  -0.967  0.00  0.00    +0.000 C 
BRANCH   9  10
ATOM     10  C   UNL     1      18.507  19.997   0.469  0.00  0.00    +0.000 C 
ATOM     11  C   UNL     1      18.501  21.138   1.479  0.00  0.00    +0.000 C 
BRANCH  10  12
ATOM     12  O   UNL     1      17.484  19.064   0.847  0.00  0.00    +0.000 OA
ATOM     13  H   UNL     1      16.800  19.550   1.338  0.00  0.00    +0.000 HD
ENDBRANCH  10  12
ENDBRANCH   9  10
ENDBRANCH   1   9
BRANCH   1  14
ATOM     14  C   UNL     1      17.429  18.911  -2.681  0.00  0.00    +0.000 C 
BRANCH  14  15
ATOM     15  C   UNL     1      17.045  19.412  -4.094  0.00  0.00    +0.000 C 
ATOM     16  C   UNL     1      18.018  20.446  -4.649  0.00  0.00    +0.000 C 
BRANCH  15  17
ATOM     17  O   UNL     1      16.961  18.338  -5.029  0.00  0.00    +0.000 OA
ATOM     18  H   UNL     1      17.833  17.897  -4.987  0.00  0.00    +0.000 HD
ENDBRANCH  15  17
ENDBRANCH  14  15
ENDBRANCH   1  14
TORSDOF 7
ENDMDL
MODEL 6
REMARK VINA RESULT:    -3.665      3.032      5.670
REMARK INTER + INTRA:          -5.318
REMARK INTER:                  -4.695
REMARK INTRA:                  -0.623
REMARK UNBOUND:                -0.368
REMARK  Name = 
REMARK  10 active torsions:
REMARK  status: ('A' for Active; 'I' for Inactive)
REMARK    1  A    between atoms: C_1  and  C_2
REMARK    2  A    between atoms: C_5  and  N_8
REMARK    3  A    between atoms: N_8  and  C_9
REMARK    4  A    between atoms: N_8  and  C_13
REMARK    5  A    between atoms: C_9  and  C_10
REMARK    6  A    between atoms: C_10  and  C_11
REMARK    7  A    between atoms: C_10  and  O_12
REMARK    8  A    between atoms: C_13  and  C_14
REMARK    9  A    between atoms: C_14  and  C_15
REMARK   10  A    between atoms: C_14  and  O_16
REMARK                            x       y       z     vdW  Elec       q    Type
REMARK                         _______ _______ _______ _____ _____    ______ ____
ROOT
ATOM      1  N   UNL     1      17.609  19.103   5.752  0.00  0.00    +0.000 N 
ENDROOT
BRANCH   1   6
ATOM      2  C   UNL     1      11.930  20.120   5.558  0.00  0.00    +0.000 C 
ATOM      3  C   UNL     1      13.404  19.855   5.583  0.00  0.00    +0.000 A 
ATOM      4  C   UNL     1      13.895  18.557   5.680  0.00  0.00    +0.000 A 
ATOM      5  C   UNL     1      15.278  18.317   5.734  0.00  0.00    +0.000 A 
ATOM      6  C   UNL     1      16.231  19.351   5.718  0.00  0.00    +0.000 A 
ATOM      7  C   UNL     1      15.699  20.649   5.617  0.00  0.00    +0.000 A 
ATOM      8  C   UNL     1      14.319  20.904   5.560  0.00  0.00    +0.000 A 
ENDBRANCH   1   6
BRANCH   1   9
ATOM      9  C   UNL     1      18.463  19.486   4.602  0.00  0.00    +0.000 C 
BRANCH   9  10
ATOM     10  C   UNL     1      17.785  19.217   3.236  0.00  0.00    +0.000 C 
ATOM     11  C   UNL     1      18.183  20.275   2.212  0.00  0.00    +0.000 C 
BRANCH  10  12
ATOM     12  O   UNL     1      18.162  17.934   2.718  0.00  0.00    +0.000 OA
ATOM     13  H   UNL     1      18.933  17.621   3.219  0.00  0.00    +0.000 HD
ENDBRANCH  10  12
ENDBRANCH   9  10
ENDBRANCH   1   9
BRANCH   1  14
ATOM     14  C   UNL     1      18.179  18.045   6.626  0.00  0.00    +0.000 C 
BRANCH  14  15
ATOM     15  C   UNL     1      18.853  16.915   5.813  0.00  0.00    +0.000 C 
ATOM     16  C   UNL     1      19.663  15.956   6.677  0.00  0.00    +0.000 C 
BRANCH  15  17
ATOM     17  O   UNL     1      17.897  16.149   5.081  0.00  0.00    +0.000 OA
ATOM     18  H   UNL     1      17.221  15.893   5.740  0.00  0.00    +0.000 HD
ENDBRANCH  15  17
ENDBRANCH  14  15
ENDBRANCH   1  14
TORSDOF 7
ENDMDL
MODEL 7
REMARK VINA RESULT:    -3.623      1.558      2.227
REMARK INTER + INTRA:          -5.261
REMARK INTER:                  -4.652
REMARK INTRA:                  -0.609
REMARK UNBOUND:                -0.368
REMARK  Name = 
REMARK  10 active torsions:
REMARK  status: ('A' for Active; 'I' for Inactive)
REMARK    1  A    between atoms: C_1  and  C_2
REMARK    2  A    between atoms: C_5  and  N_8
REMARK    3  A    between atoms: N_8  and  C_9
REMARK    4  A    between atoms: N_8  and  C_13
REMARK    5  A    between atoms: C_9  and  C_10
REMARK    6  A    between atoms: C_10  and  C_11
REMARK    7  A    between atoms: C_10  and  O_12
REMARK    8  A    between atoms: C_13  and  C_14
REMARK    9  A    between atoms: C_14  and  C_15
REMARK   10  A    between atoms: C_14  and  O_16
REMARK                            x       y       z     vdW  Elec       q    Type
REMARK                         _______ _______ _______ _____ _____    ______ ____
ROOT
ATOM      1  N   UNL     1      15.442  20.471   6.689  0.00  0.00    +0.000 N 
ENDROOT
BRANCH   1   6
ATOM      2  C   UNL     1      18.647  16.499   3.991  0.00  0.00    +0.000 C 
ATOM      3  C   UNL     1      17.795  17.519   4.682  0.00  0.00    +0.000 A 
ATOM      4  C   UNL     1      17.487  18.728   4.067  0.00  0.00    +0.000 A 
ATOM      5  C   UNL     1      16.712  19.693   4.731  0.00  0.00    +0.000 A 
ATOM      6  C   UNL     1      16.230  19.512   6.040  0.00  0.00    +0.000 A 
ATOM      7  C   UNL     1      16.559  18.278   6.631  0.00  0.00    +0.000 A 
ATOM      8  C   UNL     1      17.331  17.304   5.977  0.00  0.00    +0.000 A 
ENDBRANCH   1   6
BRANCH   1   9
ATOM      9  C   UNL     1      16.083  21.609   7.390  0.00  0.00    +0.000 C 
BRANCH   9  10
ATOM     10  C   UNL     1      16.002  22.931   6.588  0.00  0.00    +0.000 C 
ATOM     11  C   UNL     1      17.288  23.173   5.807  0.00  0.00    +0.000 C 
BRANCH  10  12
ATOM     12  O   UNL     1      14.914  22.900   5.653  0.00  0.00    +0.000 OA
ATOM     13  H   UNL     1      14.196  23.450   6.008  0.00  0.00    +0.000 HD
ENDBRANCH  10  12
ENDBRANCH   9  10
ENDBRANCH   1   9
BRANCH   1  14
ATOM     14  C   UNL     1      14.064  20.153   7.145  0.00  0.00    +0.000 C 
BRANCH  14  15
ATOM     15  C   UNL     1      13.161  19.672   5.984  0.00  0.00    +0.000 C 
ATOM     16  C   UNL     1      12.751  18.210   6.108  0.00  0.00    +0.000 C 
BRANCH  15  17
ATOM     17  O   UNL     1      11.974  20.457   5.880  0.00  0.00    +0.000 OA
ATOM     18  H   UNL     1      12.123  21.040   5.108  0.00  0.00    +0.000 HD
ENDBRANCH  15  17
ENDBRANCH  14  15
ENDBRANCH   1  14
TORSDOF 7
ENDMDL
MODEL 8
REMARK VINA RESULT:    -3.576      9.137     11.026
REMARK INTER + INTRA:          -5.198
REMARK INTER:                  -4.492
REMARK INTRA:                  -0.707
REMARK UNBOUND:                -0.368
REMARK  Name = 
REMARK  10 active torsions:
REMARK  status: ('A' for Active; 'I' for Inactive)
REMARK    1  A    between atoms: C_1  and  C_2
REMARK    2  A    between atoms: C_5  and  N_8
REMARK    3  A    between atoms: N_8  and  C_9
REMARK    4  A    between atoms: N_8  and  C_13
REMARK    5  A    between atoms: C_9  and  C_10
REMARK    6  A    between atoms: C_10  and  C_11
REMARK    7  A    between atoms: C_10  and  O_12
REMARK    8  A    between atoms: C_13  and  C_14
REMARK    9  A    between atoms: C_14  and  C_15
REMARK   10  A    between atoms: C_14  and  O_16
REMARK                            x       y       z     vdW  Elec       q    Type
REMARK                         _______ _______ _______ _____ _____    ______ ____
ROOT
ATOM      1  N   UNL     1      16.937  21.043  -3.274  0.00  0.00    +0.000 N 
ENDROOT
BRANCH   1   6
ATOM      2  C   UNL     1      11.862  22.283  -0.817  0.00  0.00    +0.000 C 
ATOM      3  C   UNL     1      13.168  21.960  -1.477  0.00  0.00    +0.000 A 
ATOM      4  C   UNL     1      13.602  20.644  -1.596  0.00  0.00    +0.000 A 
ATOM      5  C   UNL     1      14.840  20.350  -2.189  0.00  0.00    +0.000 A 
ATOM      6  C   UNL     1      15.712  21.345  -2.667  0.00  0.00    +0.000 A 
ATOM      7  C   UNL     1      15.239  22.664  -2.531  0.00  0.00    +0.000 A 
ATOM      8  C   UNL     1      14.002  22.972  -1.943  0.00  0.00    +0.000 A 
ENDBRANCH   1   6
BRANCH   1   9
ATOM      9  C   UNL     1      17.698  19.842  -2.855  0.00  0.00    +0.000 C 
BRANCH   9  10
ATOM     10  C   UNL     1      17.956  18.858  -4.022  0.00  0.00    +0.000 C 
ATOM     11  C   UNL     1      18.615  17.578  -3.520  0.00  0.00    +0.000 C 
BRANCH  10  12
ATOM     12  O   UNL     1      16.730  18.500  -4.674  0.00  0.00    +0.000 OA
ATOM     13  H   UNL     1      16.637  17.533  -4.631  0.00  0.00    +0.000 HD
ENDBRANCH  10  12
ENDBRANCH   9  10
ENDBRANCH   1   9
BRANCH   1  14
ATOM     14  C   UNL     1      17.748  22.098  -3.935  0.00  0.00    +0.000 C 
BRANCH  14  15
ATOM     15  C   UNL     1      17.527  22.132  -5.466  0.00  0.00    +0.000 C 
ATOM     16  C   UNL     1      18.751  21.690  -6.259  0.00  0.00    +0.000 C 
BRANCH  15  17
ATOM     17  O   UNL     1      16.426  21.313  -5.858  0.00  0.00    +0.000 OA
ATOM     18  H   UNL     1      15.633  21.866  -5.709  0.00  0.00    +0.000 HD
ENDBRANCH  15  17
ENDBRANCH  14  15
ENDBRANCH   1  14
TORSDOF 7
ENDMDL
MODEL 9
REMARK VINA RESULT:    -3.459     12.036     13.356
REMARK INTER + INTRA:          -5.040
REMARK INTER:                  -4.285
REMARK INTRA:                  -0.755
REMARK UNBOUND:                -0.368
REMARK  Name = 
REMARK  10 active torsions:
REMARK  status: ('A' for Active; 'I' for Inactive)
REMARK    1  A    between atoms: C_1  and  C_2
REMARK    2  A    between atoms: C_5  and  N_8
REMARK    3  A    between atoms: N_8  and  C_9
REMARK    4  A    between atoms: N_8  and  C_13
REMARK    5  A    between atoms: C_9  and  C_10
REMARK    6  A    between atoms: C_10  and  C_11
REMARK    7  A    between atoms: C_10  and  O_12
REMARK    8  A    between atoms: C_13  and  C_14
REMARK    9  A    between atoms: C_14  and  C_15
REMARK   10  A    between atoms: C_14  and  O_16
REMARK                            x       y       z     vdW  Elec       q    Type
REMARK                         _______ _______ _______ _____ _____    ______ ____
ROOT
ATOM      1  N   UNL     1      18.747  19.725  -5.496  0.00  0.00    +0.000 N 
ENDROOT
BRANCH   1   6
ATOM      2  C   UNL     1      19.289  17.950 -10.963  0.00  0.00    +0.000 C 
ATOM      3  C   UNL     1      19.123  18.407  -9.546  0.00  0.00    +0.000 A 
ATOM      4  C   UNL     1      18.953  19.754  -9.245  0.00  0.00    +0.000 A 
ATOM      5  C   UNL     1      18.828  20.180  -7.913  0.00  0.00    +0.000 A 
ATOM      6  C   UNL     1      18.891  19.295  -6.821  0.00  0.00    +0.000 A 
ATOM      7  C   UNL     1      19.063  17.941  -7.162  0.00  0.00    +0.000 A 
ATOM      8  C   UNL     1      19.186  17.501  -8.491  0.00  0.00    +0.000 A 
ENDBRANCH   1   6
BRANCH   1   9
ATOM      9  C   UNL     1      18.790  21.172  -5.175  0.00  0.00    +0.000 C 
BRANCH   9  10
ATOM     10  C   UNL     1      17.400  21.746  -4.805  0.00  0.00    +0.000 C 
ATOM     11  C   UNL     1      17.246  23.173  -5.318  0.00  0.00    +0.000 C 
BRANCH  10  12
ATOM     12  O   UNL     1      16.348  20.954  -5.373  0.00  0.00    +0.000 OA
ATOM     13  H   UNL     1      15.513  21.212  -4.949  0.00  0.00    +0.000 HD
ENDBRANCH  10  12
ENDBRANCH   9  10
ENDBRANCH   1   9
BRANCH   1  14
ATOM     14  C   UNL     1      19.057  18.823  -4.357  0.00  0.00    +0.000 C 
BRANCH  14  15
ATOM     15  C   UNL     1      17.778  18.268  -3.686  0.00  0.00    +0.000 C 
ATOM     16  C   UNL     1      17.391  19.021  -2.418  0.00  0.00    +0.000 C 
BRANCH  15  17
ATOM     17  O   UNL     1      16.662  18.296  -4.574  0.00  0.00    +0.000 OA
ATOM     18  H   UNL     1      16.891  18.969  -5.247  0.00  0.00    +0.000 HD
ENDBRANCH  15  17
ENDBRANCH  14  15
ENDBRANCH   1  14
TORSDOF 7
ENDMDL
