MODEL 1
REMARK VINA RESULT:    -5.382      0.000      0.000
REMARK INTER + INTRA:          -7.713
REMARK INTER:                  -7.270
REMARK INTRA:                  -0.443
REMARK UNBOUND:                -0.443
REMARK  Name = 
REMARK  10 active torsions:
REMARK  status: ('A' for Active; 'I' for Inactive)
REMARK    1  A    between atoms: C_1  and  C_2
REMARK    2  A    between atoms: C_5  and  N_8
REMARK    3  A    between atoms: N_8  and  C_9
REMARK    4  A    between atoms: N_8  and  C_13
REMARK    5  A    between atoms: C_9  and  C_10
REMARK    6  A    between atoms: C_10  and  C_11
REMARK    7  A    between atoms: C_10  and  O_12
REMARK    8  A    between atoms: C_13  and  C_14
REMARK    9  A    between atoms: C_14  and  C_15
REMARK   10  A    between atoms: C_14  and  O_16
REMARK                            x       y       z     vdW  Elec       q    Type
REMARK                         _______ _______ _______ _____ _____    ______ ____
ROOT
ATOM      1  N   UNL     1      12.441   3.203   8.305  0.00  0.00    +0.000 N 
ENDROOT
BRANCH   1   6
ATOM      2  C   UNL     1      17.815   1.734   9.819  0.00  0.00    +0.000 C 
ATOM      3  C   UNL     1      16.416   2.091   9.421  0.00  0.00    +0.000 A 
ATOM      4  C   UNL     1      16.122   2.485   8.120  0.00  0.00    +0.000 A 
ATOM      5  C   UNL     1      14.814   2.848   7.760  0.00  0.00    +0.000 A 
ATOM      6  C   UNL     1      13.747   2.859   8.676  0.00  0.00    +0.000 A 
ATOM      7  C   UNL     1      14.080   2.453   9.982  0.00  0.00    +0.000 A 
ATOM      8  C   UNL     1      15.384   2.085  10.355  0.00  0.00    +0.000 A 
ENDBRANCH   1   6
BRANCH   1   9
ATOM      9  C   UNL     1      11.750   2.449   7.232  0.00  0.00    +0.000 C 
BRANCH   9  10
ATOM     10  C   UNL     1      11.371   3.338   6.023  0.00  0.00    +0.000 C 
ATOM     11  C   UNL     1      12.541   3.469   5.055  0.00  0.00    +0.000 C 
BRANCH  10  12
ATOM     12  O   UNL     1      10.260   2.783   5.304  0.00  0.00    +0.000 OA
ATOM     13  H   UNL     1       9.748   3.518   4.928  0.00  0.00    +0.000 HD
ENDBRANCH  10  12
ENDBRANCH   9  10
ENDBRANCH   1   9
BRANCH   1  14
ATOM     14  C   UNL     1      11.904   4.565   8.557  0.00  0.00    +0.000 C 
BRANCH  14  15
ATOM     15  C   UNL     1      11.287   4.699   9.969  0.00  0.00    +0.000 C 
ATOM     16  C   UNL     1      11.380   6.111  10.534  0.00  0.00    +0.000 C 
BRANCH  15  17
ATOM     17  O   UNL     1       9.915   4.307   9.984  0.00  0.00    +0.000 OA
ATOM     18  H   UNL     1       9.641   4.311   9.045  0.00  0.00    +0.000 HD
ENDBRANCH  15  17
ENDBRANCH  14  15
ENDBRANCH   1  14
TORSDOF 7
ENDMDL
MODEL 2
REMARK VINA RESULT:    -5.354      0.357      3.329
REMARK INTER + INTRA:          -7.675
REMARK INTER:                  -7.504
REMARK INTRA:                  -0.171
REMARK UNBOUND:                -0.443
REMARK  Name = 
REMARK  10 active torsions:
REMARK  status: ('A' for Active; 'I' for Inactive)
REMARK    1  A    between atoms: C_1  and  C_2
REMARK    2  A    between atoms: C_5  and  N_8
REMARK    3  A    between atoms: N_8  and  C_9
REMARK    4  A    between atoms: N_8  and  C_13
REMARK    5  A    between atoms: C_9  and  C_10
REMARK    6  A    between atoms: C_10  and  C_11
REMARK    7  A    between atoms: C_10  and  O_12
REMARK    8  A    between atoms: C_13  and  C_14
REMARK    9  A    between atoms: C_14  and  C_15
REMARK   10  A    between atoms: C_14  and  O_16
REMARK                            x       y       z     vdW  Elec       q    Type
REMARK                         _______ _______ _______ _____ _____    ______ ____
ROOT
ATOM      1  N   UNL     1      12.670   3.447   7.877  0.00  0.00    +0.000 N 
ENDROOT
BRANCH   1   6
ATOM      2  C   UNL     1      17.655   1.446   9.992  0.00  0.00    +0.000 C 
ATOM      3  C   UNL     1      16.355   1.942   9.437  0.00  0.00    +0.000 A 
ATOM      4  C   UNL     1      16.258   2.365   8.115  0.00  0.00    +0.000 A 
ATOM      5  C   UNL     1      15.044   2.857   7.609  0.00  0.00    +0.000 A 
ATOM      6  C   UNL     1      13.883   2.973   8.394  0.00  0.00    +0.000 A 
ATOM      7  C   UNL     1      14.017   2.534   9.724  0.00  0.00    +0.000 A 
ATOM      8  C   UNL     1      15.224   2.038  10.243  0.00  0.00    +0.000 A 
ENDBRANCH   1   6
BRANCH   1   9
ATOM      9  C   UNL     1      12.087   4.710   8.388  0.00  0.00    +0.000 C 
BRANCH   9  10
ATOM     10  C   UNL     1      11.494   4.564   9.811  0.00  0.00    +0.000 C 
ATOM     11  C   UNL     1      11.441   5.913  10.520  0.00  0.00    +0.000 C 
BRANCH  10  12
ATOM     12  O   UNL     1      10.161   4.036   9.762  0.00  0.00    +0.000 OA
ATOM     13  H   UNL     1       9.945   3.683  10.641  0.00  0.00    +0.000 HD
ENDBRANCH  10  12
ENDBRANCH   9  10
ENDBRANCH   1   9
BRANCH   1  14
ATOM     14  C   UNL     1      11.699   2.528   7.229  0.00  0.00    +0.000 C 
BRANCH  14  15
ATOM     15  C   UNL     1      11.259   3.031   5.834  0.00  0.00    +0.000 C 
ATOM     16  C   UNL     1      12.339   2.869   4.770  0.00  0.00    +0.000 C 
BRANCH  15  17
ATOM     17  O   UNL     1      10.085   2.361   5.377  0.00  0.00    +0.000 OA
ATOM     18  H   UNL     1      10.273   1.409   5.503  0.00  0.00    +0.000 HD
ENDBRANCH  15  17
ENDBRANCH  14  15
ENDBRANCH   1  14
TORSDOF 7
ENDMDL
MODEL 3
REMARK VINA RESULT:    -5.174     14.475     15.878
REMARK INTER + INTRA:          -7.431
REMARK INTER:                  -7.196
REMARK INTRA:                  -0.235
REMARK UNBOUND:                -0.443
REMARK  Name = 
REMARK  10 active torsions:
REMARK  status: ('A' for Active; 'I' for Inactive)
REMARK    1  A    between atoms: C_1  and  C_2
REMARK    2  A    between atoms: C_5  and  N_8
REMARK    3  A    between atoms: N_8  and  C_9
REMARK    4  A    between atoms: N_8  and  C_13
REMARK    5  A    between atoms: C_9  and  C_10
REMARK    6  A    between atoms: C_10  and  C_11
REMARK    7  A    between atoms: C_10  and  O_12
REMARK    8  A    between atoms: C_13  and  C_14
REMARK    9  A    between atoms: C_14  and  C_15
REMARK   10  A    between atoms: C_14  and  O_16
REMARK                            x       y       z     vdW  Elec       q    Type
REMARK                         _______ _______ _______ _____ _____    ______ ____
ROOT
ATOM      1  N   UNL     1      19.123  10.230  -4.078  0.00  0.00    +0.000 N 
ENDROOT
BRANCH   1   6
ATOM      2  C   UNL     1      23.103  10.283   0.104  0.00  0.00    +0.000 C 
ATOM      3  C   UNL     1      22.052  10.270  -0.963  0.00  0.00    +0.000 A 
ATOM      4  C   UNL     1      21.571   9.070  -1.478  0.00  0.00    +0.000 A 
ATOM      5  C   UNL     1      20.608   9.064  -2.500  0.00  0.00    +0.000 A 
ATOM      6  C   UNL     1      20.098  10.244  -3.072  0.00  0.00    +0.000 A 
ATOM      7  C   UNL     1      20.605  11.437  -2.527  0.00  0.00    +0.000 A 
ATOM      8  C   UNL     1      21.567  11.457  -1.503  0.00  0.00    +0.000 A 
ENDBRANCH   1   6
BRANCH   1   9
ATOM      9  C   UNL     1      17.718   9.893  -3.747  0.00  0.00    +0.000 C 
BRANCH   9  10
ATOM     10  C   UNL     1      16.695  10.776  -4.501  0.00  0.00    +0.000 C 
ATOM     11  C   UNL     1      15.797   9.928  -5.395  0.00  0.00    +0.000 C 
BRANCH  10  12
ATOM     12  O   UNL     1      15.858  11.493  -3.584  0.00  0.00    +0.000 OA
ATOM     13  H   UNL     1      15.117  11.874  -4.085  0.00  0.00    +0.000 HD
ENDBRANCH  10  12
ENDBRANCH   9  10
ENDBRANCH   1   9
BRANCH   1  14
ATOM     14  C   UNL     1      19.492  10.038  -5.504  0.00  0.00    +0.000 C 
BRANCH  14  15
ATOM     15  C   UNL     1      21.023  10.089  -5.723  0.00  0.00    +0.000 C 
ATOM     16  C   UNL     1      21.521   9.054  -6.725  0.00  0.00    +0.000 C 
BRANCH  15  17
ATOM     17  O   UNL     1      21.449  11.376  -6.169  0.00  0.00    +0.000 OA
ATOM     18  H   UNL     1      21.471  11.929  -5.362  0.00  0.00    +0.000 HD
ENDBRANCH  15  17
ENDBRANCH  14  15
ENDBRANCH   1  14
TORSDOF 7
ENDMDL
MODEL 4
REMARK VINA RESULT:    -5.167      1.669      2.371
REMARK INTER + INTRA:          -7.422
REMARK INTER:                  -7.078
REMARK INTRA:                  -0.345
REMARK UNBOUND:                -0.443
REMARK  Name = 
REMARK  10 active torsions:
REMARK  status: ('A' for Active; 'I' for Inactive)
REMARK    1  A    between atoms: C_1  and  C_2
REMARK    2  A    between atoms: C_5  and  N_8
REMARK    3  A    between atoms: N_8  and  C_9
REMARK    4  A    between atoms: N_8  and  C_13
REMARK    5  A    between atoms: C_9  and  C_10
REMARK    6  A    between atoms: C_10  and  C_11
REMARK    7  A    between atoms: C_10  and  O_12
REMARK    8  A    between atoms: C_13  and  C_14
REMARK    9  A    between atoms: C_14  and  C_15
REMARK   10  A    between atoms: C_14  and  O_16
REMARK                            x       y       z     vdW  Elec       q    Type
REMARK                         _______ _______ _______ _____ _____    ______ ____
ROOT
ATOM      1  N   UNL     1      13.925   3.464   7.639  0.00  0.00    +0.000 N 
ENDROOT
BRANCH   1   6
ATOM      2  C   UNL     1      17.828   0.413  10.605  0.00  0.00    +0.000 C 
ATOM      3  C   UNL     1      16.825   1.226   9.844  0.00  0.00    +0.000 A 
ATOM      4  C   UNL     1      15.596   1.554  10.406  0.00  0.00    +0.000 A 
ATOM      5  C   UNL     1      14.649   2.291   9.677  0.00  0.00    +0.000 A 
ATOM      6  C   UNL     1      14.867   2.713   8.354  0.00  0.00    +0.000 A 
ATOM      7  C   UNL     1      16.121   2.366   7.818  0.00  0.00    +0.000 A 
ATOM      8  C   UNL     1      17.079   1.632   8.537  0.00  0.00    +0.000 A 
ENDBRANCH   1   6
BRANCH   1   9
ATOM      9  C   UNL     1      14.241   3.947   6.273  0.00  0.00    +0.000 C 
BRANCH   9  10
ATOM     10  C   UNL     1      13.697   3.011   5.166  0.00  0.00    +0.000 C 
ATOM     11  C   UNL     1      12.539   3.664   4.421  0.00  0.00    +0.000 C 
BRANCH  10  12
ATOM     12  O   UNL     1      14.719   2.696   4.210  0.00  0.00    +0.000 OA
ATOM     13  H   UNL     1      14.558   3.226   3.412  0.00  0.00    +0.000 HD
ENDBRANCH  10  12
ENDBRANCH   9  10
ENDBRANCH   1   9
BRANCH   1  14
ATOM     14  C   UNL     1      12.857   4.224   8.339  0.00  0.00    +0.000 C 
BRANCH  14  15
ATOM     15  C   UNL     1      11.630   3.340   8.665  0.00  0.00    +0.000 C 
ATOM     16  C   UNL     1      10.641   4.012   9.610  0.00  0.00    +0.000 C 
BRANCH  15  17
ATOM     17  O   UNL     1      10.924   2.961   7.484  0.00  0.00    +0.000 OA
ATOM     18  H   UNL     1      10.517   2.098   7.699  0.00  0.00    +0.000 HD
ENDBRANCH  15  17
ENDBRANCH  14  15
ENDBRANCH   1  14
TORSDOF 7
ENDMDL
MODEL 5
REMARK VINA RESULT:    -5.138      2.079      4.606
REMARK INTER + INTRA:          -7.383
REMARK INTER:                  -7.000
REMARK INTRA:                  -0.383
REMARK UNBOUND:                -0.443
REMARK  Name = 
REMARK  10 active torsions:
REMARK  status: ('A' for Active; 'I' for Inactive)
REMARK    1  A    between atoms: C_1  and  C_2
REMARK    2  A    between atoms: C_5  and  N_8
REMARK    3  A    between atoms: N_8  and  C_9
REMARK    4  A    between atoms: N_8  and  C_13
REMARK    5  A    between atoms: C_9  and  C_10
REMARK    6  A    between atoms: C_10  and  C_11
REMARK    7  A    between atoms: C_10  and  O_12
REMARK    8  A    between atoms: C_13  and  C_14
REMARK    9  A    between atoms: C_14  and  C_15
REMARK   10  A    between atoms: C_14  and  O_16
REMARK                            x       y       z     vdW  Elec       q    Type
REMARK                         _______ _______ _______ _____ _____    ______ ____
ROOT
ATOM      1  N   UNL     1      12.624   3.808   9.053  0.00  0.00    +0.000 N 
ENDROOT
BRANCH   1   6
ATOM      2  C   UNL     1      11.858   2.658   3.447  0.00  0.00    +0.000 C 
ATOM      3  C   UNL     1      12.074   2.938   4.903  0.00  0.00    +0.000 A 
ATOM      4  C   UNL     1      11.292   2.319   5.873  0.00  0.00    +0.000 A 
ATOM      5  C   UNL     1      11.479   2.609   7.235  0.00  0.00    +0.000 A 
ATOM      6  C   UNL     1      12.430   3.539   7.692  0.00  0.00    +0.000 A 
ATOM      7  C   UNL     1      13.203   4.143   6.684  0.00  0.00    +0.000 A 
ATOM      8  C   UNL     1      13.028   3.861   5.319  0.00  0.00    +0.000 A 
ENDBRANCH   1   6
BRANCH   1   9
ATOM      9  C   UNL     1      12.782   2.692  10.016  0.00  0.00    +0.000 C 
BRANCH   9  10
ATOM     10  C   UNL     1      14.231   2.558  10.546  0.00  0.00    +0.000 C 
ATOM     11  C   UNL     1      14.441   1.207  11.221  0.00  0.00    +0.000 C 
BRANCH  10  12
ATOM     12  O   UNL     1      15.182   2.674   9.479  0.00  0.00    +0.000 OA
ATOM     13  H   UNL     1      15.513   1.784   9.272  0.00  0.00    +0.000 HD
ENDBRANCH  10  12
ENDBRANCH   9  10
ENDBRANCH   1   9
BRANCH   1  14
ATOM     14  C   UNL     1      12.183   5.093   9.653  0.00  0.00    +0.000 C 
BRANCH  14  15
ATOM     15  C   UNL     1      10.963   4.913  10.589  0.00  0.00    +0.000 C 
ATOM     16  C   UNL     1      10.497   6.217  11.224  0.00  0.00    +0.000 C 
BRANCH  15  17
ATOM     17  O   UNL     1       9.854   4.333   9.904  0.00  0.00    +0.000 OA
ATOM     18  H   UNL     1      10.010   3.368   9.941  0.00  0.00    +0.000 HD
ENDBRANCH  15  17
ENDBRANCH  14  15
ENDBRANCH   1  14
TORSDOF 7
ENDMDL
MODEL 6
REMARK VINA RESULT:    -5.071      1.524      3.763
REMARK INTER + INTRA:          -7.292
REMARK INTER:                  -7.330
REMARK INTRA:                   0.037
REMARK UNBOUND:                -0.443
REMARK  Name = 
REMARK  10 active torsions:
REMARK  status: ('A' for Active; 'I' for Inactive)
REMARK    1  A    between atoms: C_1  and  C_2
REMARK    2  A    between atoms: C_5  and  N_8
REMARK    3  A    between atoms: N_8  and  C_9
REMARK    4  A    between atoms: N_8  and  C_13
REMARK    5  A    between atoms: C_9  and  C_10
REMARK    6  A    between atoms: C_10  and  C_11
REMARK    7  A    between atoms: C_10  and  O_12
REMARK    8  A    between atoms: C_13  and  C_14
REMARK    9  A    between atoms: C_14  and  C_15
REMARK   10  A    between atoms: C_14  and  O_16
REMARK                            x       y       z     vdW  Elec       q    Type
REMARK                         _______ _______ _______ _____ _____    ______ ____
ROOT
ATOM      1  N   UNL     1      13.508   3.484   7.726  0.00  0.00    +0.000 N 
ENDROOT
BRANCH   1   6
ATOM      2  C   UNL     1      17.828   0.734  10.391  0.00  0.00    +0.000 C 
ATOM      3  C   UNL     1      16.716   1.469   9.708  0.00  0.00    +0.000 A 
ATOM      4  C   UNL     1      15.490   1.656  10.339  0.00  0.00    +0.000 A 
ATOM      5  C   UNL     1      14.441   2.320   9.683  0.00  0.00    +0.000 A 
ATOM      6  C   UNL     1      14.552   2.806   8.367  0.00  0.00    +0.000 A 
ATOM      7  C   UNL     1      15.806   2.602   7.762  0.00  0.00    +0.000 A 
ATOM      8  C   UNL     1      16.864   1.941   8.407  0.00  0.00    +0.000 A 
ENDBRANCH   1   6
BRANCH   1   9
ATOM      9  C   UNL     1      12.100   3.191   8.085  0.00  0.00    +0.000 C 
BRANCH   9  10
ATOM     10  C   UNL     1      11.708   3.744   9.478  0.00  0.00    +0.000 C 
ATOM     11  C   UNL     1      11.661   5.267   9.466  0.00  0.00    +0.000 C 
BRANCH  10  12
ATOM     12  O   UNL     1      10.417   3.263   9.878  0.00  0.00    +0.000 OA
ATOM     13  H   UNL     1      10.037   2.767   9.134  0.00  0.00    +0.000 HD
ENDBRANCH  10  12
ENDBRANCH   9  10
ENDBRANCH   1   9
BRANCH   1  14
ATOM     14  C   UNL     1      13.696   4.093   6.384  0.00  0.00    +0.000 C 
BRANCH  14  15
ATOM     15  C   UNL     1      13.471   3.072   5.243  0.00  0.00    +0.000 C 
ATOM     16  C   UNL     1      12.420   3.523   4.235  0.00  0.00    +0.000 C 
BRANCH  15  17
ATOM     17  O   UNL     1      14.677   2.801   4.532  0.00  0.00    +0.000 OA
ATOM     18  H   UNL     1      15.394   3.114   5.120  0.00  0.00    +0.000 HD
ENDBRANCH  15  17
ENDBRANCH  14  15
ENDBRANCH   1  14
TORSDOF 7
ENDMDL
MODEL 7
REMARK VINA RESULT:    -4.915      2.573      4.443
REMARK INTER + INTRA:          -7.082
REMARK INTER:                  -6.822
REMARK INTRA:                  -0.260
REMARK UNBOUND:                -0.443
REMARK  Name = 
REMARK  10 active torsions:
REMARK  status: ('A' for Active; 'I' for Inactive)
REMARK    1  A    between atoms: C_1  and  C_2
REMARK    2  A    between atoms: C_5  and  N_8
REMARK    3  A    between atoms: N_8  and  C_9
REMARK    4  A    between atoms: N_8  and  C_13
REMARK    5  A    between atoms: C_9  and  C_10
REMARK    6  A    between atoms: C_10  and  C_11
REMARK    7  A    between atoms: C_10  and  O_12
REMARK    8  A    between atoms: C_13  and  C_14
REMARK    9  A    between atoms: C_14  and  C_15
REMARK   10  A    between atoms: C_14  and  O_16
REMARK                            x       y       z     vdW  Elec       q    Type
REMARK                         _______ _______ _______ _____ _____    ______ ____
ROOT
ATOM      1  N   UNL     1      11.879   3.601   9.449  0.00  0.00    +0.000 N 
ENDROOT
BRANCH   1   6
ATOM      2  C   UNL     1      14.237   3.180   4.197  0.00  0.00    +0.000 C 
ATOM      3  C   UNL     1      13.621   3.265   5.560  0.00  0.00    +0.000 A 
ATOM      4  C   UNL     1      12.263   3.523   5.715  0.00  0.00    +0.000 A 
ATOM      5  C   UNL     1      11.697   3.631   6.996  0.00  0.00    +0.000 A 
ATOM      6  C   UNL     1      12.454   3.512   8.175  0.00  0.00    +0.000 A 
ATOM      7  C   UNL     1      13.822   3.249   7.980  0.00  0.00    +0.000 A 
ATOM      8  C   UNL     1      14.401   3.136   6.705  0.00  0.00    +0.000 A 
ENDBRANCH   1   6
BRANCH   1   9
ATOM      9  C   UNL     1      10.593   4.315   9.636  0.00  0.00    +0.000 C 
BRANCH   9  10
ATOM     10  C   UNL     1      10.601   5.254  10.867  0.00  0.00    +0.000 C 
ATOM     11  C   UNL     1      11.329   6.556  10.554  0.00  0.00    +0.000 C 
BRANCH  10  12
ATOM     12  O   UNL     1       9.265   5.579  11.275  0.00  0.00    +0.000 OA
ATOM     13  H   UNL     1       9.260   5.674  12.242  0.00  0.00    +0.000 HD
ENDBRANCH  10  12
ENDBRANCH   9  10
ENDBRANCH   1   9
BRANCH   1  14
ATOM     14  C   UNL     1      12.705   3.473  10.677  0.00  0.00    +0.000 C 
BRANCH  14  15
ATOM     15  C   UNL     1      12.641   2.048  11.278  0.00  0.00    +0.000 C 
ATOM     16  C   UNL     1      11.319   1.341  11.006  0.00  0.00    +0.000 C 
BRANCH  15  17
ATOM     17  O   UNL     1      13.694   1.220  10.785  0.00  0.00    +0.000 OA
ATOM     18  H   UNL     1      14.396   1.272  11.465  0.00  0.00    +0.000 HD
ENDBRANCH  15  17
ENDBRANCH  14  15
ENDBRANCH   1  14
TORSDOF 7
ENDMDL
MODEL 8
REMARK VINA RESULT:    -4.537      1.791      5.079
REMARK INTER + INTRA:          -6.570
REMARK INTER:                  -6.311
REMARK INTRA:                  -0.260
REMARK UNBOUND:                -0.443
REMARK  Name = 
REMARK  10 active torsions:
REMARK  status: ('A' for Active; 'I' for Inactive)
REMARK    1  A    between atoms: C_1  and  C_2
REMARK    2  A    between atoms: C_5  and  N_8
REMARK    3  A    between atoms: N_8  and  C_9
REMARK    4  A    between atoms: N_8  and  C_13
REMARK    5  A    between atoms: C_9  and  C_10
REMARK    6  A    between atoms: C_10  and  C_11
REMARK    7  A    between atoms: C_10  and  O_12
REMARK    8  A    between atoms: C_13  and  C_14
REMARK    9  A    between atoms: C_14  and  C_15
REMARK   10  A    between atoms: C_14  and  O_16
REMARK                            x       y       z     vdW  Elec       q    Type
REMARK                         _______ _______ _______ _____ _____    ______ ____
ROOT
ATOM      1  N   UNL     1      12.384   4.006   8.980  0.00  0.00    +0.000 N 
ENDROOT
BRANCH   1   6
ATOM      2  C   UNL     1      11.932   2.560   3.409  0.00  0.00    +0.000 C 
ATOM      3  C   UNL     1      12.069   2.920   4.857  0.00  0.00    +0.000 A 
ATOM      4  C   UNL     1      11.369   2.223   5.836  0.00  0.00    +0.000 A 
ATOM      5  C   UNL     1      11.478   2.584   7.188  0.00  0.00    +0.000 A 
ATOM      6  C   UNL     1      12.265   3.664   7.627  0.00  0.00    +0.000 A 
ATOM      7  C   UNL     1      12.960   4.345   6.611  0.00  0.00    +0.000 A 
ATOM      8  C   UNL     1      12.861   3.993   5.254  0.00  0.00    +0.000 A 
ENDBRANCH   1   6
BRANCH   1   9
ATOM      9  C   UNL     1      11.676   5.196   9.511  0.00  0.00    +0.000 C 
BRANCH   9  10
ATOM     10  C   UNL     1      10.783   4.868  10.732  0.00  0.00    +0.000 C 
ATOM     11  C   UNL     1       9.816   6.010  11.022  0.00  0.00    +0.000 C 
BRANCH  10  12
ATOM     12  O   UNL     1      10.013   3.681  10.502  0.00  0.00    +0.000 OA
ATOM     13  H   UNL     1       9.078   3.937  10.432  0.00  0.00    +0.000 HD
ENDBRANCH  10  12
ENDBRANCH   9  10
ENDBRANCH   1   9
BRANCH   1  14
ATOM     14  C   UNL     1      13.551   3.563   9.785  0.00  0.00    +0.000 C 
BRANCH  14  15
ATOM     15  C   UNL     1      14.239   2.316   9.179  0.00  0.00    +0.000 C 
ATOM     16  C   UNL     1      15.508   2.649   8.403  0.00  0.00    +0.000 C 
BRANCH  15  17
ATOM     17  O   UNL     1      14.573   1.359  10.183  0.00  0.00    +0.000 OA
ATOM     18  H   UNL     1      14.917   1.887  10.931  0.00  0.00    +0.000 HD
ENDBRANCH  15  17
ENDBRANCH  14  15
ENDBRANCH   1  14
TORSDOF 7
ENDMDL
MODEL 9
REMARK VINA RESULT:    -4.513      2.286      5.130
REMARK INTER + INTRA:          -6.538
REMARK INTER:                  -6.304
REMARK INTRA:                  -0.234
REMARK UNBOUND:                -0.443
REMARK  Name = 
REMARK  10 active torsions:
REMARK  status: ('A' for Active; 'I' for Inactive)
REMARK    1  A    between atoms: C_1  and  C_2
REMARK    2  A    between atoms: C_5  and  N_8
REMARK    3  A    between atoms: N_8  and  C_9
REMARK    4  A    between atoms: N_8  and  C_13
REMARK    5  A    between atoms: C_9  and  C_10
REMARK    6  A    between atoms: C_10  and  C_11
REMARK    7  A    between atoms: C_10  and  O_12
REMARK    8  A    between atoms: C_13  and  C_14
REMARK    9  A    between atoms: C_14  and  C_15
REMARK   10  A    between atoms: C_14  and  O_16
REMARK                            x       y       z     vdW  Elec       q    Type
REMARK                         _______ _______ _______ _____ _____    ______ ____
ROOT
ATOM      1  N   UNL     1      13.706   2.818   8.977  0.00  0.00    +0.000 N 
ENDROOT
BRANCH   1   6
ATOM      2  C   UNL     1      11.814   3.588   3.578  0.00  0.00    +0.000 C 
ATOM      3  C   UNL     1      12.301   3.413   4.983  0.00  0.00    +0.000 A 
ATOM      4  C   UNL     1      13.654   3.521   5.289  0.00  0.00    +0.000 A 
ATOM      5  C   UNL     1      14.109   3.326   6.604  0.00  0.00    +0.000 A 
ATOM      6  C   UNL     1      13.248   2.992   7.665  0.00  0.00    +0.000 A 
ATOM      7  C   UNL     1      11.888   2.893   7.320  0.00  0.00    +0.000 A 
ATOM      8  C   UNL     1      11.419   3.087   6.010  0.00  0.00    +0.000 A 
ENDBRANCH   1   6
BRANCH   1   9
ATOM      9  C   UNL     1      13.060   3.549  10.093  0.00  0.00    +0.000 C 
BRANCH   9  10
ATOM     10  C   UNL     1      12.032   2.683  10.863  0.00  0.00    +0.000 C 
ATOM     11  C   UNL     1      10.636   3.288  10.776  0.00  0.00    +0.000 C 
BRANCH  10  12
ATOM     12  O   UNL     1      11.976   1.354  10.326  0.00  0.00    +0.000 OA
ATOM     13  H   UNL     1      11.597   0.771  11.005  0.00  0.00    +0.000 HD
ENDBRANCH  10  12
ENDBRANCH   9  10
ENDBRANCH   1   9
BRANCH   1  14
ATOM     14  C   UNL     1      15.090   2.355   9.253  0.00  0.00    +0.000 C 
BRANCH  14  15
ATOM     15  C   UNL     1      15.318   2.056  10.755  0.00  0.00    +0.000 C 
ATOM     16  C   UNL     1      15.597   0.585  11.038  0.00  0.00    +0.000 C 
BRANCH  15  17
ATOM     17  O   UNL     1      16.398   2.821  11.287  0.00  0.00    +0.000 OA
ATOM     18  H   UNL     1      16.515   3.563  10.660  0.00  0.00    +0.000 HD
ENDBRANCH  15  17
ENDBRANCH  14  15
ENDBRANCH   1  14
TORSDOF 7
ENDMDL
