MODEL 1
REMARK VINA RESULT:    -4.122      0.000      0.000
REMARK INTER + INTRA:          -6.241
REMARK INTER:                  -5.568
REMARK INTRA:                  -0.672
REMARK UNBOUND:                -0.672
REMARK  Name = 
REMARK  10 active torsions:
REMARK  status: ('A' for Active; 'I' for Inactive)
REMARK    1  A    between atoms: C_1  and  C_2
REMARK    2  A    between atoms: C_5  and  N_8
REMARK    3  A    between atoms: N_8  and  C_9
REMARK    4  A    between atoms: N_8  and  C_13
REMARK    5  A    between atoms: C_9  and  C_10
REMARK    6  A    between atoms: C_10  and  C_11
REMARK    7  A    between atoms: C_10  and  O_12
REMARK    8  A    between atoms: C_13  and  C_14
REMARK    9  A    between atoms: C_14  and  C_15
REMARK   10  A    between atoms: C_14  and  O_16
REMARK                            x       y       z     vdW  Elec       q    Type
REMARK                         _______ _______ _______ _____ _____    ______ ____
ROOT
ATOM      1  N   UNL     1      -5.264  14.830 -12.984  0.00  0.00    +0.000 N 
ENDROOT
BRANCH   1   6
ATOM      2  C   UNL     1      -2.229  19.422 -14.726  0.00  0.00    +0.000 C 
ATOM      3  C   UNL     1      -2.995  18.218 -14.269  0.00  0.00    +0.000 A 
ATOM      4  C   UNL     1      -3.394  17.240 -15.174  0.00  0.00    +0.000 A 
ATOM      5  C   UNL     1      -4.138  16.129 -14.745  0.00  0.00    +0.000 A 
ATOM      6  C   UNL     1      -4.539  15.950 -13.408  0.00  0.00    +0.000 A 
ATOM      7  C   UNL     1      -4.116  16.957 -12.521  0.00  0.00    +0.000 A 
ATOM      8  C   UNL     1      -3.370  18.073 -12.936  0.00  0.00    +0.000 A 
ENDBRANCH   1   6
BRANCH   1   9
ATOM      9  C   UNL     1      -6.009  14.868 -11.702  0.00  0.00    +0.000 C 
BRANCH   9  10
ATOM     10  C   UNL     1      -5.220  14.233 -10.531  0.00  0.00    +0.000 C 
ATOM     11  C   UNL     1      -5.109  15.203  -9.360  0.00  0.00    +0.000 C 
BRANCH  10  12
ATOM     12  O   UNL     1      -5.865  13.042 -10.061  0.00  0.00    +0.000 OA
ATOM     13  H   UNL     1      -6.093  12.498 -10.834  0.00  0.00    +0.000 HD
ENDBRANCH  10  12
ENDBRANCH   9  10
ENDBRANCH   1   9
BRANCH   1  14
ATOM     14  C   UNL     1      -4.928  13.467 -13.471  0.00  0.00    +0.000 C 
BRANCH  14  15
ATOM     15  C   UNL     1      -6.180  12.565 -13.591  0.00  0.00    +0.000 C 
ATOM     16  C   UNL     1      -6.410  12.045 -15.005  0.00  0.00    +0.000 C 
BRANCH  15  17
ATOM     17  O   UNL     1      -6.106  11.442 -12.714  0.00  0.00    +0.000 OA
ATOM     18  H   UNL     1      -5.341  10.922 -13.032  0.00  0.00    +0.000 HD
ENDBRANCH  15  17
ENDBRANCH  14  15
ENDBRANCH   1  14
TORSDOF 7
ENDMDL
MODEL 2
REMARK VINA RESULT:    -4.006      1.615      1.895
REMARK INTER + INTRA:          -6.084
REMARK INTER:                  -5.565
REMARK INTRA:                  -0.519
REMARK UNBOUND:                -0.672
REMARK  Name = 
REMARK  10 active torsions:
REMARK  status: ('A' for Active; 'I' for Inactive)
REMARK    1  A    between atoms: C_1  and  C_2
REMARK    2  A    between atoms: C_5  and  N_8
REMARK    3  A    between atoms: N_8  and  C_9
REMARK    4  A    between atoms: N_8  and  C_13
REMARK    5  A    between atoms: C_9  and  C_10
REMARK    6  A    between atoms: C_10  and  C_11
REMARK    7  A    between atoms: C_10  and  O_12
REMARK    8  A    between atoms: C_13  and  C_14
REMARK    9  A    between atoms: C_14  and  C_15
REMARK   10  A    between atoms: C_14  and  O_16
REMARK                            x       y       z     vdW  Elec       q    Type
REMARK                         _______ _______ _______ _____ _____    ______ ____
ROOT
ATOM      1  N   UNL     1      -5.872  14.757 -11.639  0.00  0.00    +0.000 N 
ENDROOT
BRANCH   1   6
ATOM      2  C   UNL     1      -4.402  19.621 -14.378  0.00  0.00    +0.000 C 
ATOM      3  C   UNL     1      -4.782  18.346 -13.689  0.00  0.00    +0.000 A 
ATOM      4  C   UNL     1      -6.118  17.994 -13.525  0.00  0.00    +0.000 A 
ATOM      5  C   UNL     1      -6.469  16.813 -12.852  0.00  0.00    +0.000 A 
ATOM      6  C   UNL     1      -5.516  15.943 -12.292  0.00  0.00    +0.000 A 
ATOM      7  C   UNL     1      -4.176  16.330 -12.479  0.00  0.00    +0.000 A 
ATOM      8  C   UNL     1      -3.811  17.507 -13.152  0.00  0.00    +0.000 A 
ENDBRANCH   1   6
BRANCH   1   9
ATOM      9  C   UNL     1      -6.419  14.802 -10.262  0.00  0.00    +0.000 C 
BRANCH   9  10
ATOM     10  C   UNL     1      -5.678  15.814  -9.355  0.00  0.00    +0.000 C 
ATOM     11  C   UNL     1      -6.577  16.290  -8.220  0.00  0.00    +0.000 C 
BRANCH  10  12
ATOM     12  O   UNL     1      -4.506  15.224  -8.775  0.00  0.00    +0.000 OA
ATOM     13  H   UNL     1      -3.727  15.627  -9.193  0.00  0.00    +0.000 HD
ENDBRANCH  10  12
ENDBRANCH   9  10
ENDBRANCH   1   9
BRANCH   1  14
ATOM     14  C   UNL     1      -5.277  13.454 -12.032  0.00  0.00    +0.000 C 
BRANCH  14  15
ATOM     15  C   UNL     1      -6.106  12.739 -13.126  0.00  0.00    +0.000 C 
ATOM     16  C   UNL     1      -5.532  12.920 -14.527  0.00  0.00    +0.000 C 
BRANCH  15  17
ATOM     17  O   UNL     1      -6.219  11.339 -12.873  0.00  0.00    +0.000 OA
ATOM     18  H   UNL     1      -7.069  11.077 -13.279  0.00  0.00    +0.000 HD
ENDBRANCH  15  17
ENDBRANCH  14  15
ENDBRANCH   1  14
TORSDOF 7
ENDMDL
MODEL 3
REMARK VINA RESULT:    -3.933      1.742      3.563
REMARK INTER + INTRA:          -5.985
REMARK INTER:                  -5.146
REMARK INTRA:                  -0.839
REMARK UNBOUND:                -0.672
REMARK  Name = 
REMARK  10 active torsions:
REMARK  status: ('A' for Active; 'I' for Inactive)
REMARK    1  A    between atoms: C_1  and  C_2
REMARK    2  A    between atoms: C_5  and  N_8
REMARK    3  A    between atoms: N_8  and  C_9
REMARK    4  A    between atoms: N_8  and  C_13
REMARK    5  A    between atoms: C_9  and  C_10
REMARK    6  A    between atoms: C_10  and  C_11
REMARK    7  A    between atoms: C_10  and  O_12
REMARK    8  A    between atoms: C_13  and  C_14
REMARK    9  A    between atoms: C_14  and  C_15
REMARK   10  A    between atoms: C_14  and  O_16
REMARK                            x       y       z     vdW  Elec       q    Type
REMARK                         _______ _______ _______ _____ _____    ______ ____
ROOT
ATOM      1  N   UNL     1      -5.682  15.811 -12.083  0.00  0.00    +0.000 N 
ENDROOT
BRANCH   1   6
ATOM      2  C   UNL     1      -3.425  20.688 -14.190  0.00  0.00    +0.000 C 
ATOM      3  C   UNL     1      -4.009  19.412 -13.666  0.00  0.00    +0.000 A 
ATOM      4  C   UNL     1      -5.386  19.218 -13.633  0.00  0.00    +0.000 A 
ATOM      5  C   UNL     1      -5.929  18.032 -13.112  0.00  0.00    +0.000 A 
ATOM      6  C   UNL     1      -5.135  16.999 -12.582  0.00  0.00    +0.000 A 
ATOM      7  C   UNL     1      -3.748  17.229 -12.634  0.00  0.00    +0.000 A 
ATOM      8  C   UNL     1      -3.191  18.410 -13.154  0.00  0.00    +0.000 A 
ENDBRANCH   1   6
BRANCH   1   9
ATOM      9  C   UNL     1      -6.113  14.741 -13.015  0.00  0.00    +0.000 C 
BRANCH   9  10
ATOM     10  C   UNL     1      -4.990  13.719 -13.316  0.00  0.00    +0.000 C 
ATOM     11  C   UNL     1      -4.314  14.028 -14.646  0.00  0.00    +0.000 C 
BRANCH  10  12
ATOM     12  O   UNL     1      -3.986  13.741 -12.292  0.00  0.00    +0.000 OA
ATOM     13  H   UNL     1      -3.977  14.629 -11.898  0.00  0.00    +0.000 HD
ENDBRANCH  10  12
ENDBRANCH   9  10
ENDBRANCH   1   9
BRANCH   1  14
ATOM     14  C   UNL     1      -6.315  15.761 -10.740  0.00  0.00    +0.000 C 
BRANCH  14  15
ATOM     15  C   UNL     1      -5.267  15.702  -9.602  0.00  0.00    +0.000 C 
ATOM     16  C   UNL     1      -5.864  15.957  -8.223  0.00  0.00    +0.000 C 
BRANCH  15  17
ATOM     17  O   UNL     1      -4.598  14.442  -9.567  0.00  0.00    +0.000 OA
ATOM     18  H   UNL     1      -5.173  13.865  -9.026  0.00  0.00    +0.000 HD
ENDBRANCH  15  17
ENDBRANCH  14  15
ENDBRANCH   1  14
TORSDOF 7
ENDMDL
MODEL 4
REMARK VINA RESULT:    -3.910     20.718     22.595
REMARK INTER + INTRA:          -5.953
REMARK INTER:                  -5.383
REMARK INTRA:                  -0.570
REMARK UNBOUND:                -0.672
REMARK  Name = 
REMARK  10 active torsions:
REMARK  status: ('A' for Active; 'I' for Inactive)
REMARK    1  A    between atoms: C_1  and  C_2
REMARK    2  A    between atoms: C_5  and  N_8
REMARK    3  A    between atoms: N_8  and  C_9
REMARK    4  A    between atoms: N_8  and  C_13
REMARK    5  A    between atoms: C_9  and  C_10
REMARK    6  A    between atoms: C_10  and  C_11
REMARK    7  A    between atoms: C_10  and  O_12
REMARK    8  A    between atoms: C_13  and  C_14
REMARK    9  A    between atoms: C_14  and  C_15
REMARK   10  A    between atoms: C_14  and  O_16
REMARK                            x       y       z     vdW  Elec       q    Type
REMARK                         _______ _______ _______ _____ _____    ______ ____
ROOT
ATOM      1  N   UNL     1       7.572  21.763   4.525  0.00  0.00    +0.000 N 
ENDROOT
BRANCH   1   6
ATOM      2  C   UNL     1      12.365  22.139   1.329  0.00  0.00    +0.000 C 
ATOM      3  C   UNL     1      11.118  22.018   2.151  0.00  0.00    +0.000 A 
ATOM      4  C   UNL     1       9.880  22.376   1.628  0.00  0.00    +0.000 A 
ATOM      5  C   UNL     1       8.719  22.289   2.413  0.00  0.00    +0.000 A 
ATOM      6  C   UNL     1       8.736  21.866   3.754  0.00  0.00    +0.000 A 
ATOM      7  C   UNL     1      10.004  21.511   4.249  0.00  0.00    +0.000 A 
ATOM      8  C   UNL     1      11.173  21.591   3.475  0.00  0.00    +0.000 A 
ENDBRANCH   1   6
BRANCH   1   9
ATOM      9  C   UNL     1       7.643  21.891   6.001  0.00  0.00    +0.000 C 
BRANCH   9  10
ATOM     10  C   UNL     1       7.570  23.361   6.480  0.00  0.00    +0.000 C 
ATOM     11  C   UNL     1       8.957  23.893   6.821  0.00  0.00    +0.000 C 
BRANCH  10  12
ATOM     12  O   UNL     1       7.007  24.206   5.467  0.00  0.00    +0.000 OA
ATOM     13  H   UNL     1       6.065  24.334   5.670  0.00  0.00    +0.000 HD
ENDBRANCH  10  12
ENDBRANCH   9  10
ENDBRANCH   1   9
BRANCH   1  14
ATOM     14  C   UNL     1       6.375  21.045   4.018  0.00  0.00    +0.000 C 
BRANCH  14  15
ATOM     15  C   UNL     1       5.122  21.952   3.976  0.00  0.00    +0.000 C 
ATOM     16  C   UNL     1       4.969  22.703   2.659  0.00  0.00    +0.000 C 
BRANCH  15  17
ATOM     17  O   UNL     1       3.925  21.210   4.203  0.00  0.00    +0.000 OA
ATOM     18  H   UNL     1       4.209  20.274   4.226  0.00  0.00    +0.000 HD
ENDBRANCH  15  17
ENDBRANCH  14  15
ENDBRANCH   1  14
TORSDOF 7
ENDMDL
MODEL 5
REMARK VINA RESULT:    -3.826     19.904     21.986
REMARK INTER + INTRA:          -5.840
REMARK INTER:                  -5.348
REMARK INTRA:                  -0.491
REMARK UNBOUND:                -0.672
REMARK  Name = 
REMARK  10 active torsions:
REMARK  status: ('A' for Active; 'I' for Inactive)
REMARK    1  A    between atoms: C_1  and  C_2
REMARK    2  A    between atoms: C_5  and  N_8
REMARK    3  A    between atoms: N_8  and  C_9
REMARK    4  A    between atoms: N_8  and  C_13
REMARK    5  A    between atoms: C_9  and  C_10
REMARK    6  A    between atoms: C_10  and  C_11
REMARK    7  A    between atoms: C_10  and  O_12
REMARK    8  A    between atoms: C_13  and  C_14
REMARK    9  A    between atoms: C_14  and  C_15
REMARK   10  A    between atoms: C_14  and  O_16
REMARK                            x       y       z     vdW  Elec       q    Type
REMARK                         _______ _______ _______ _____ _____    ______ ____
ROOT
ATOM      1  N   UNL     1       7.931  22.080   4.098  0.00  0.00    +0.000 N 
ENDROOT
BRANCH   1   6
ATOM      2  C   UNL     1       3.001  23.309   1.358  0.00  0.00    +0.000 C 
ATOM      3  C   UNL     1       4.274  23.006   2.087  0.00  0.00    +0.000 A 
ATOM      4  C   UNL     1       5.437  23.720   1.820  0.00  0.00    +0.000 A 
ATOM      5  C   UNL     1       6.635  23.411   2.485  0.00  0.00    +0.000 A 
ATOM      6  C   UNL     1       6.738  22.369   3.424  0.00  0.00    +0.000 A 
ATOM      7  C   UNL     1       5.542  21.670   3.671  0.00  0.00    +0.000 A 
ATOM      8  C   UNL     1       4.337  21.970   3.014  0.00  0.00    +0.000 A 
ENDBRANCH   1   6
BRANCH   1   9
ATOM      9  C   UNL     1       7.893  21.518   5.469  0.00  0.00    +0.000 C 
BRANCH   9  10
ATOM     10  C   UNL     1       8.794  20.268   5.631  0.00  0.00    +0.000 C 
ATOM     11  C   UNL     1       9.842  20.489   6.716  0.00  0.00    +0.000 C 
BRANCH  10  12
ATOM     12  O   UNL     1       8.017  19.117   5.991  0.00  0.00    +0.000 OA
ATOM     13  H   UNL     1       7.347  18.978   5.301  0.00  0.00    +0.000 HD
ENDBRANCH  10  12
ENDBRANCH   9  10
ENDBRANCH   1   9
BRANCH   1  14
ATOM     14  C   UNL     1       9.203  22.758   3.736  0.00  0.00    +0.000 C 
BRANCH  14  15
ATOM     15  C   UNL     1       9.984  21.989   2.643  0.00  0.00    +0.000 C 
ATOM     16  C   UNL     1      10.346  22.856   1.443  0.00  0.00    +0.000 C 
BRANCH  15  17
ATOM     17  O   UNL     1      11.188  21.421   3.157  0.00  0.00    +0.000 OA
ATOM     18  H   UNL     1      11.843  22.148   3.128  0.00  0.00    +0.000 HD
ENDBRANCH  15  17
ENDBRANCH  14  15
ENDBRANCH   1  14
TORSDOF 7
ENDMDL
MODEL 6
REMARK VINA RESULT:    -3.773      2.013      4.370
REMARK INTER + INTRA:          -5.769
REMARK INTER:                  -4.938
REMARK INTRA:                  -0.831
REMARK UNBOUND:                -0.672
REMARK  Name = 
REMARK  10 active torsions:
REMARK  status: ('A' for Active; 'I' for Inactive)
REMARK    1  A    between atoms: C_1  and  C_2
REMARK    2  A    between atoms: C_5  and  N_8
REMARK    3  A    between atoms: N_8  and  C_9
REMARK    4  A    between atoms: N_8  and  C_13
REMARK    5  A    between atoms: C_9  and  C_10
REMARK    6  A    between atoms: C_10  and  C_11
REMARK    7  A    between atoms: C_10  and  O_12
REMARK    8  A    between atoms: C_13  and  C_14
REMARK    9  A    between atoms: C_14  and  C_15
REMARK   10  A    between atoms: C_14  and  O_16
REMARK                            x       y       z     vdW  Elec       q    Type
REMARK                         _______ _______ _______ _____ _____    ______ ____
ROOT
ATOM      1  N   UNL     1      -5.848  15.438 -13.353  0.00  0.00    +0.000 N 
ENDROOT
BRANCH   1   6
ATOM      2  C   UNL     1      -4.684  15.749  -7.707  0.00  0.00    +0.000 C 
ATOM      3  C   UNL     1      -4.978  15.692  -9.175  0.00  0.00    +0.000 A 
ATOM      4  C   UNL     1      -6.232  16.039  -9.666  0.00  0.00    +0.000 A 
ATOM      5  C   UNL     1      -6.511  15.954 -11.040  0.00  0.00    +0.000 A 
ATOM      6  C   UNL     1      -5.569  15.501 -11.982  0.00  0.00    +0.000 A 
ATOM      7  C   UNL     1      -4.312  15.161 -11.450  0.00  0.00    +0.000 A 
ATOM      8  C   UNL     1      -4.019  15.243 -10.078  0.00  0.00    +0.000 A 
ENDBRANCH   1   6
BRANCH   1   9
ATOM      9  C   UNL     1      -5.922  16.683 -14.154  0.00  0.00    +0.000 C 
BRANCH   9  10
ATOM     10  C   UNL     1      -4.538  17.149 -14.669  0.00  0.00    +0.000 C 
ATOM     11  C   UNL     1      -3.877  18.095 -13.675  0.00  0.00    +0.000 C 
BRANCH  10  12
ATOM     12  O   UNL     1      -3.661  16.032 -14.870  0.00  0.00    +0.000 OA
ATOM     13  H   UNL     1      -2.747  16.347 -14.779  0.00  0.00    +0.000 HD
ENDBRANCH  10  12
ENDBRANCH   9  10
ENDBRANCH   1   9
BRANCH   1  14
ATOM     14  C   UNL     1      -6.561  14.274 -13.940  0.00  0.00    +0.000 C 
BRANCH  14  15
ATOM     15  C   UNL     1      -5.634  13.046 -14.109  0.00  0.00    +0.000 C 
ATOM     16  C   UNL     1      -6.288  11.902 -14.875  0.00  0.00    +0.000 C 
BRANCH  15  17
ATOM     17  O   UNL     1      -4.422  13.390 -14.779  0.00  0.00    +0.000 OA
ATOM     18  H   UNL     1      -4.645  13.369 -15.732  0.00  0.00    +0.000 HD
ENDBRANCH  15  17
ENDBRANCH  14  15
ENDBRANCH   1  14
TORSDOF 7
ENDMDL
MODEL 7
REMARK VINA RESULT:    -3.658     20.164     22.353
REMARK INTER + INTRA:          -5.614
REMARK INTER:                  -5.332
REMARK INTRA:                  -0.282
REMARK UNBOUND:                -0.672
REMARK  Name = 
REMARK  10 active torsions:
REMARK  status: ('A' for Active; 'I' for Inactive)
REMARK    1  A    between atoms: C_1  and  C_2
REMARK    2  A    between atoms: C_5  and  N_8
REMARK    3  A    between atoms: N_8  and  C_9
REMARK    4  A    between atoms: N_8  and  C_13
REMARK    5  A    between atoms: C_9  and  C_10
REMARK    6  A    between atoms: C_10  and  C_11
REMARK    7  A    between atoms: C_10  and  O_12
REMARK    8  A    between atoms: C_13  and  C_14
REMARK    9  A    between atoms: C_14  and  C_15
REMARK   10  A    between atoms: C_14  and  O_16
REMARK                            x       y       z     vdW  Elec       q    Type
REMARK                         _______ _______ _______ _____ _____    ______ ____
ROOT
ATOM      1  N   UNL     1       7.988  22.664   4.807  0.00  0.00    +0.000 N 
ENDROOT
BRANCH   1   6
ATOM      2  C   UNL     1       3.295  23.044   1.465  0.00  0.00    +0.000 C 
ATOM      3  C   UNL     1       4.501  22.958   2.350  0.00  0.00    +0.000 A 
ATOM      4  C   UNL     1       5.512  23.910   2.273  0.00  0.00    +0.000 A 
ATOM      5  C   UNL     1       6.655  23.808   3.084  0.00  0.00    +0.000 A 
ATOM      6  C   UNL     1       6.855  22.749   3.987  0.00  0.00    +0.000 A 
ATOM      7  C   UNL     1       5.811  21.807   4.040  0.00  0.00    +0.000 A 
ATOM      8  C   UNL     1       4.663  21.898   3.237  0.00  0.00    +0.000 A 
ENDBRANCH   1   6
BRANCH   1   9
ATOM      9  C   UNL     1       9.327  22.989   4.259  0.00  0.00    +0.000 C 
BRANCH   9  10
ATOM     10  C   UNL     1       9.767  22.020   3.135  0.00  0.00    +0.000 C 
ATOM     11  C   UNL     1       9.864  22.744   1.798  0.00  0.00    +0.000 C 
BRANCH  10  12
ATOM     12  O   UNL     1      11.050  21.446   3.424  0.00  0.00    +0.000 OA
ATOM     13  H   UNL     1      11.233  20.766   2.754  0.00  0.00    +0.000 HD
ENDBRANCH  10  12
ENDBRANCH   9  10
ENDBRANCH   1   9
BRANCH   1  14
ATOM     14  C   UNL     1       8.000  21.800   6.015  0.00  0.00    +0.000 C 
BRANCH  14  15
ATOM     15  C   UNL     1       8.682  20.436   5.751  0.00  0.00    +0.000 C 
ATOM     16  C   UNL     1       9.795  20.121   6.744  0.00  0.00    +0.000 C 
BRANCH  15  17
ATOM     17  O   UNL     1       7.744  19.362   5.784  0.00  0.00    +0.000 OA
ATOM     18  H   UNL     1       6.866  19.793   5.750  0.00  0.00    +0.000 HD
ENDBRANCH  15  17
ENDBRANCH  14  15
ENDBRANCH   1  14
TORSDOF 7
ENDMDL
MODEL 8
REMARK VINA RESULT:    -3.576      1.513      3.023
REMARK INTER + INTRA:          -5.503
REMARK INTER:                  -5.129
REMARK INTRA:                  -0.374
REMARK UNBOUND:                -0.672
REMARK  Name = 
REMARK  10 active torsions:
REMARK  status: ('A' for Active; 'I' for Inactive)
REMARK    1  A    between atoms: C_1  and  C_2
REMARK    2  A    between atoms: C_5  and  N_8
REMARK    3  A    between atoms: N_8  and  C_9
REMARK    4  A    between atoms: N_8  and  C_13
REMARK    5  A    between atoms: C_9  and  C_10
REMARK    6  A    between atoms: C_10  and  C_11
REMARK    7  A    between atoms: C_10  and  O_12
REMARK    8  A    between atoms: C_13  and  C_14
REMARK    9  A    between atoms: C_14  and  C_15
REMARK   10  A    between atoms: C_14  and  O_16
REMARK                            x       y       z     vdW  Elec       q    Type
REMARK                         _______ _______ _______ _____ _____    ______ ____
ROOT
ATOM      1  N   UNL     1      -5.735  14.931 -12.821  0.00  0.00    +0.000 N 
ENDROOT
BRANCH   1   6
ATOM      2  C   UNL     1      -4.053  20.310 -14.069  0.00  0.00    +0.000 C 
ATOM      3  C   UNL     1      -4.476  18.906 -13.765  0.00  0.00    +0.000 A 
ATOM      4  C   UNL     1      -5.663  18.391 -14.276  0.00  0.00    +0.000 A 
ATOM      5  C   UNL     1      -6.070  17.084 -13.963  0.00  0.00    +0.000 A 
ATOM      6  C   UNL     1      -5.333  16.240 -13.113  0.00  0.00    +0.000 A 
ATOM      7  C   UNL     1      -4.138  16.793 -12.616  0.00  0.00    +0.000 A 
ATOM      8  C   UNL     1      -3.718  18.098 -12.923  0.00  0.00    +0.000 A 
ENDBRANCH   1   6
BRANCH   1   9
ATOM      9  C   UNL     1      -6.579  14.180 -13.781  0.00  0.00    +0.000 C 
BRANCH   9  10
ATOM     10  C   UNL     1      -5.748  13.364 -14.801  0.00  0.00    +0.000 C 
ATOM     11  C   UNL     1      -4.279  13.770 -14.756  0.00  0.00    +0.000 C 
BRANCH  10  12
ATOM     12  O   UNL     1      -5.829  11.959 -14.524  0.00  0.00    +0.000 OA
ATOM     13  H   UNL     1      -5.402  11.796 -13.667  0.00  0.00    +0.000 HD
ENDBRANCH  10  12
ENDBRANCH   9  10
ENDBRANCH   1   9
BRANCH   1  14
ATOM     14  C   UNL     1      -5.795  14.439 -11.420  0.00  0.00    +0.000 C 
BRANCH  14  15
ATOM     15  C   UNL     1      -5.009  13.120 -11.229  0.00  0.00    +0.000 C 
ATOM     16  C   UNL     1      -3.580  13.337 -10.747  0.00  0.00    +0.000 C 
BRANCH  15  17
ATOM     17  O   UNL     1      -5.659  12.248 -10.306  0.00  0.00    +0.000 OA
ATOM     18  H   UNL     1      -4.987  11.575 -10.077  0.00  0.00    +0.000 HD
ENDBRANCH  15  17
ENDBRANCH  14  15
ENDBRANCH   1  14
TORSDOF 7
ENDMDL
