MODEL 1
REMARK VINA RESULT:    -4.691      0.000      0.000
REMARK INTER + INTRA:          -6.826
REMARK INTER:                  -6.336
REMARK INTRA:                  -0.490
REMARK UNBOUND:                -0.490
REMARK  Name = 
REMARK  10 active torsions:
REMARK  status: ('A' for Active; 'I' for Inactive)
REMARK    1  A    between atoms: C_1  and  C_2
REMARK    2  A    between atoms: C_5  and  N_8
REMARK    3  A    between atoms: N_8  and  C_9
REMARK    4  A    between atoms: N_8  and  C_13
REMARK    5  A    between atoms: C_9  and  C_10
REMARK    6  A    between atoms: C_10  and  C_11
REMARK    7  A    between atoms: C_10  and  O_12
REMARK    8  A    between atoms: C_13  and  C_14
REMARK    9  A    between atoms: C_14  and  C_15
REMARK   10  A    between atoms: C_14  and  O_16
REMARK                            x       y       z     vdW  Elec       q    Type
REMARK                         _______ _______ _______ _____ _____    ______ ____
ROOT
ATOM      1  N   UNL     1      -0.362  31.465 -22.419  0.00  0.00    +0.000 N 
ENDROOT
BRANCH   1   6
ATOM      2  C   UNL     1      -1.876  34.442 -27.128  0.00  0.00    +0.000 C 
ATOM      3  C   UNL     1      -1.476  33.650 -25.920  0.00  0.00    +0.000 A 
ATOM      4  C   UNL     1      -2.393  32.838 -25.263  0.00  0.00    +0.000 A 
ATOM      5  C   UNL     1      -2.021  32.122 -24.113  0.00  0.00    +0.000 A 
ATOM      6  C   UNL     1      -0.732  32.197 -23.554  0.00  0.00    +0.000 A 
ATOM      7  C   UNL     1       0.169  33.026 -24.246  0.00  0.00    +0.000 A 
ATOM      8  C   UNL     1      -0.189  33.746 -25.397  0.00  0.00    +0.000 A 
ENDBRANCH   1   6
BRANCH   1   9
ATOM      9  C   UNL     1       0.338  30.166 -22.568  0.00  0.00    +0.000 C 
BRANCH   9  10
ATOM     10  C   UNL     1      -0.541  29.083 -23.239  0.00  0.00    +0.000 C 
ATOM     11  C   UNL     1      -0.071  28.804 -24.661  0.00  0.00    +0.000 C 
BRANCH  10  12
ATOM     12  O   UNL     1      -0.492  27.852 -22.504  0.00  0.00    +0.000 OA
ATOM     13  H   UNL     1       0.028  27.214 -23.021  0.00  0.00    +0.000 HD
ENDBRANCH  10  12
ENDBRANCH   9  10
ENDBRANCH   1   9
BRANCH   1  14
ATOM     14  C   UNL     1      -1.061  31.652 -21.121  0.00  0.00    +0.000 C 
BRANCH  14  15
ATOM     15  C   UNL     1      -1.071  33.132 -20.671  0.00  0.00    +0.000 C 
ATOM     16  C   UNL     1      -2.152  33.439 -19.641  0.00  0.00    +0.000 C 
BRANCH  15  17
ATOM     17  O   UNL     1       0.186  33.525 -20.123  0.00  0.00    +0.000 OA
ATOM     18  H   UNL     1       0.623  34.038 -20.833  0.00  0.00    +0.000 HD
ENDBRANCH  15  17
ENDBRANCH  14  15
ENDBRANCH   1  14
TORSDOF 7
ENDMDL
MODEL 2
REMARK VINA RESULT:    -4.682      2.220      5.227
REMARK INTER + INTRA:          -6.814
REMARK INTER:                  -6.112
REMARK INTRA:                  -0.702
REMARK UNBOUND:                -0.490
REMARK  Name = 
REMARK  10 active torsions:
REMARK  status: ('A' for Active; 'I' for Inactive)
REMARK    1  A    between atoms: C_1  and  C_2
REMARK    2  A    between atoms: C_5  and  N_8
REMARK    3  A    between atoms: N_8  and  C_9
REMARK    4  A    between atoms: N_8  and  C_13
REMARK    5  A    between atoms: C_9  and  C_10
REMARK    6  A    between atoms: C_10  and  C_11
REMARK    7  A    between atoms: C_10  and  O_12
REMARK    8  A    between atoms: C_13  and  C_14
REMARK    9  A    between atoms: C_14  and  C_15
REMARK   10  A    between atoms: C_14  and  O_16
REMARK                            x       y       z     vdW  Elec       q    Type
REMARK                         _______ _______ _______ _____ _____    ______ ____
ROOT
ATOM      1  N   UNL     1      -1.020  32.020 -23.654  0.00  0.00    +0.000 N 
ENDROOT
BRANCH   1   6
ATOM      2  C   UNL     1      -2.942  33.689 -18.472  0.00  0.00    +0.000 C 
ATOM      3  C   UNL     1      -2.462  33.239 -19.818  0.00  0.00    +0.000 A 
ATOM      4  C   UNL     1      -1.501  32.240 -19.937  0.00  0.00    +0.000 A 
ATOM      5  C   UNL     1      -1.033  31.844 -21.200  0.00  0.00    +0.000 A 
ATOM      6  C   UNL     1      -1.477  32.434 -22.396  0.00  0.00    +0.000 A 
ATOM      7  C   UNL     1      -2.450  33.438 -22.239  0.00  0.00    +0.000 A 
ATOM      8  C   UNL     1      -2.929  33.843 -20.982  0.00  0.00    +0.000 A 
ENDBRANCH   1   6
BRANCH   1   9
ATOM      9  C   UNL     1      -0.724  33.024 -24.704  0.00  0.00    +0.000 C 
BRANCH   9  10
ATOM     10  C   UNL     1      -1.495  32.760 -26.021  0.00  0.00    +0.000 C 
ATOM     11  C   UNL     1      -2.210  34.020 -26.495  0.00  0.00    +0.000 C 
BRANCH  10  12
ATOM     12  O   UNL     1      -0.606  32.335 -27.062  0.00  0.00    +0.000 OA
ATOM     13  H   UNL     1      -1.132  31.882 -27.742  0.00  0.00    +0.000 HD
ENDBRANCH  10  12
ENDBRANCH   9  10
ENDBRANCH   1   9
BRANCH   1  14
ATOM     14  C   UNL     1      -1.293  30.650 -24.159  0.00  0.00    +0.000 C 
BRANCH  14  15
ATOM     15  C   UNL     1       0.004  29.828 -24.347  0.00  0.00    +0.000 C 
ATOM     16  C   UNL     1      -0.145  28.369 -23.932  0.00  0.00    +0.000 C 
BRANCH  15  17
ATOM     17  O   UNL     1       0.455  29.858 -25.701  0.00  0.00    +0.000 OA
ATOM     18  H   UNL     1      -0.209  30.396 -26.176  0.00  0.00    +0.000 HD
ENDBRANCH  15  17
ENDBRANCH  14  15
ENDBRANCH   1  14
TORSDOF 7
ENDMDL
MODEL 3
REMARK VINA RESULT:    -3.910      3.198      5.187
REMARK INTER + INTRA:          -5.771
REMARK INTER:                  -5.069
REMARK INTRA:                  -0.702
REMARK UNBOUND:                -0.490
REMARK  Name = 
REMARK  10 active torsions:
REMARK  status: ('A' for Active; 'I' for Inactive)
REMARK    1  A    between atoms: C_1  and  C_2
REMARK    2  A    between atoms: C_5  and  N_8
REMARK    3  A    between atoms: N_8  and  C_9
REMARK    4  A    between atoms: N_8  and  C_13
REMARK    5  A    between atoms: C_9  and  C_10
REMARK    6  A    between atoms: C_10  and  C_11
REMARK    7  A    between atoms: C_10  and  O_12
REMARK    8  A    between atoms: C_13  and  C_14
REMARK    9  A    between atoms: C_14  and  C_15
REMARK   10  A    between atoms: C_14  and  O_16
REMARK                            x       y       z     vdW  Elec       q    Type
REMARK                         _______ _______ _______ _____ _____    ______ ____
ROOT
ATOM      1  N   UNL     1      -3.224  33.801 -19.184  0.00  0.00    +0.000 N 
ENDROOT
BRANCH   1   6
ATOM      2  C   UNL     1      -1.404  32.661 -24.543  0.00  0.00    +0.000 C 
ATOM      3  C   UNL     1      -1.860  32.976 -23.152  0.00  0.00    +0.000 A 
ATOM      4  C   UNL     1      -1.240  32.400 -22.048  0.00  0.00    +0.000 A 
ATOM      5  C   UNL     1      -1.692  32.676 -20.748  0.00  0.00    +0.000 A 
ATOM      6  C   UNL     1      -2.791  33.514 -20.485  0.00  0.00    +0.000 A 
ATOM      7  C   UNL     1      -3.392  34.081 -21.624  0.00  0.00    +0.000 A 
ATOM      8  C   UNL     1      -2.949  33.815 -22.930  0.00  0.00    +0.000 A 
ENDBRANCH   1   6
BRANCH   1   9
ATOM      9  C   UNL     1      -4.615  34.255 -18.947  0.00  0.00    +0.000 C 
BRANCH   9  10
ATOM     10  C   UNL     1      -5.603  33.080 -18.743  0.00  0.00    +0.000 C 
ATOM     11  C   UNL     1      -6.489  32.894 -19.970  0.00  0.00    +0.000 C 
BRANCH  10  12
ATOM     12  O   UNL     1      -4.901  31.851 -18.511  0.00  0.00    +0.000 OA
ATOM     13  H   UNL     1      -4.773  31.754 -17.553  0.00  0.00    +0.000 HD
ENDBRANCH  10  12
ENDBRANCH   9  10
ENDBRANCH   1   9
BRANCH   1  14
ATOM     14  C   UNL     1      -2.259  34.161 -18.114  0.00  0.00    +0.000 C 
BRANCH  14  15
ATOM     15  C   UNL     1      -1.881  32.945 -17.235  0.00  0.00    +0.000 C 
ATOM     16  C   UNL     1      -0.724  33.229 -16.284  0.00  0.00    +0.000 C 
BRANCH  15  17
ATOM     17  O   UNL     1      -2.989  32.491 -16.458  0.00  0.00    +0.000 OA
ATOM     18  H   UNL     1      -3.246  31.637 -16.859  0.00  0.00    +0.000 HD
ENDBRANCH  15  17
ENDBRANCH  14  15
ENDBRANCH   1  14
TORSDOF 7
ENDMDL
MODEL 4
REMARK VINA RESULT:    -3.818      2.851      4.939
REMARK INTER + INTRA:          -5.647
REMARK INTER:                  -5.118
REMARK INTRA:                  -0.528
REMARK UNBOUND:                -0.490
REMARK  Name = 
REMARK  10 active torsions:
REMARK  status: ('A' for Active; 'I' for Inactive)
REMARK    1  A    between atoms: C_1  and  C_2
REMARK    2  A    between atoms: C_5  and  N_8
REMARK    3  A    between atoms: N_8  and  C_9
REMARK    4  A    between atoms: N_8  and  C_13
REMARK    5  A    between atoms: C_9  and  C_10
REMARK    6  A    between atoms: C_10  and  C_11
REMARK    7  A    between atoms: C_10  and  O_12
REMARK    8  A    between atoms: C_13  and  C_14
REMARK    9  A    between atoms: C_14  and  C_15
REMARK   10  A    between atoms: C_14  and  O_16
REMARK                            x       y       z     vdW  Elec       q    Type
REMARK                         _______ _______ _______ _____ _____    ______ ____
ROOT
ATOM      1  N   UNL     1      -2.235  32.995 -20.072  0.00  0.00    +0.000 N 
ENDROOT
BRANCH   1   6
ATOM      2  C   UNL     1       0.275  30.611 -24.691  0.00  0.00    +0.000 C 
ATOM      3  C   UNL     1      -0.396  31.215 -23.496  0.00  0.00    +0.000 A 
ATOM      4  C   UNL     1      -1.185  32.353 -23.619  0.00  0.00    +0.000 A 
ATOM      5  C   UNL     1      -1.788  32.932 -22.491  0.00  0.00    +0.000 A 
ATOM      6  C   UNL     1      -1.616  32.424 -21.190  0.00  0.00    +0.000 A 
ATOM      7  C   UNL     1      -0.814  31.271 -21.104  0.00  0.00    +0.000 A 
ATOM      8  C   UNL     1      -0.207  30.681 -22.224  0.00  0.00    +0.000 A 
ENDBRANCH   1   6
BRANCH   1   9
ATOM      9  C   UNL     1      -2.451  32.187 -18.847  0.00  0.00    +0.000 C 
BRANCH   9  10
ATOM     10  C   UNL     1      -2.371  33.030 -17.551  0.00  0.00    +0.000 C 
ATOM     11  C   UNL     1      -3.459  32.619 -16.566  0.00  0.00    +0.000 C 
BRANCH  10  12
ATOM     12  O   UNL     1      -1.101  32.862 -16.905  0.00  0.00    +0.000 OA
ATOM     13  H   UNL     1      -1.264  32.628 -15.976  0.00  0.00    +0.000 HD
ENDBRANCH  10  12
ENDBRANCH   9  10
ENDBRANCH   1   9
BRANCH   1  14
ATOM     14  C   UNL     1      -3.128  34.175 -20.206  0.00  0.00    +0.000 C 
BRANCH  14  15
ATOM     15  C   UNL     1      -4.613  33.769 -20.364  0.00  0.00    +0.000 C 
ATOM     16  C   UNL     1      -5.516  34.369 -19.292  0.00  0.00    +0.000 C 
BRANCH  15  17
ATOM     17  O   UNL     1      -5.131  34.147 -21.638  0.00  0.00    +0.000 OA
ATOM     18  H   UNL     1      -5.934  33.602 -21.757  0.00  0.00    +0.000 HD
ENDBRANCH  15  17
ENDBRANCH  14  15
ENDBRANCH   1  14
TORSDOF 7
ENDMDL
MODEL 5
REMARK VINA RESULT:    -3.811     11.562     13.920
REMARK INTER + INTRA:          -5.637
REMARK INTER:                  -5.557
REMARK INTRA:                  -0.080
REMARK UNBOUND:                -0.490
REMARK  Name = 
REMARK  10 active torsions:
REMARK  status: ('A' for Active; 'I' for Inactive)
REMARK    1  A    between atoms: C_1  and  C_2
REMARK    2  A    between atoms: C_5  and  N_8
REMARK    3  A    between atoms: N_8  and  C_9
REMARK    4  A    between atoms: N_8  and  C_13
REMARK    5  A    between atoms: C_9  and  C_10
REMARK    6  A    between atoms: C_10  and  C_11
REMARK    7  A    between atoms: C_10  and  O_12
REMARK    8  A    between atoms: C_13  and  C_14
REMARK    9  A    between atoms: C_14  and  C_15
REMARK   10  A    between atoms: C_14  and  O_16
REMARK                            x       y       z     vdW  Elec       q    Type
REMARK                         _______ _______ _______ _____ _____    ______ ____
ROOT
ATOM      1  N   UNL     1      -1.978  22.506 -32.455  0.00  0.00    +0.000 N 
ENDROOT
BRANCH   1   6
ATOM      2  C   UNL     1       0.654  22.701 -37.590  0.00  0.00    +0.000 C 
ATOM      3  C   UNL     1      -0.033  22.675 -36.258  0.00  0.00    +0.000 A 
ATOM      4  C   UNL     1       0.691  22.809 -35.078  0.00  0.00    +0.000 A 
ATOM      5  C   UNL     1       0.046  22.754 -33.832  0.00  0.00    +0.000 A 
ATOM      6  C   UNL     1      -1.338  22.541 -33.700  0.00  0.00    +0.000 A 
ATOM      7  C   UNL     1      -2.039  22.412 -34.914  0.00  0.00    +0.000 A 
ATOM      8  C   UNL     1      -1.406  22.467 -36.167  0.00  0.00    +0.000 A 
ENDBRANCH   1   6
BRANCH   1   9
ATOM      9  C   UNL     1      -3.426  22.199 -32.371  0.00  0.00    +0.000 C 
BRANCH   9  10
ATOM     10  C   UNL     1      -4.245  23.340 -31.719  0.00  0.00    +0.000 C 
ATOM     11  C   UNL     1      -4.939  24.187 -32.779  0.00  0.00    +0.000 C 
BRANCH  10  12
ATOM     12  O   UNL     1      -5.250  22.814 -30.841  0.00  0.00    +0.000 OA
ATOM     13  H   UNL     1      -4.936  21.960 -30.500  0.00  0.00    +0.000 HD
ENDBRANCH  10  12
ENDBRANCH   9  10
ENDBRANCH   1   9
BRANCH   1  14
ATOM     14  C   UNL     1      -1.427  23.241 -31.287  0.00  0.00    +0.000 C 
BRANCH  14  15
ATOM     15  C   UNL     1      -0.092  22.634 -30.792  0.00  0.00    +0.000 C 
ATOM     16  C   UNL     1       0.617  23.505 -29.761  0.00  0.00    +0.000 C 
BRANCH  15  17
ATOM     17  O   UNL     1      -0.280  21.340 -30.222  0.00  0.00    +0.000 OA
ATOM     18  H   UNL     1       0.202  21.365 -29.372  0.00  0.00    +0.000 HD
ENDBRANCH  15  17
ENDBRANCH  14  15
ENDBRANCH   1  14
TORSDOF 7
ENDMDL
MODEL 6
REMARK VINA RESULT:    -3.789     10.961     13.939
REMARK INTER + INTRA:          -5.608
REMARK INTER:                  -5.382
REMARK INTRA:                  -0.226
REMARK UNBOUND:                -0.490
REMARK  Name = 
REMARK  10 active torsions:
REMARK  status: ('A' for Active; 'I' for Inactive)
REMARK    1  A    between atoms: C_1  and  C_2
REMARK    2  A    between atoms: C_5  and  N_8
REMARK    3  A    between atoms: N_8  and  C_9
REMARK    4  A    between atoms: N_8  and  C_13
REMARK    5  A    between atoms: C_9  and  C_10
REMARK    6  A    between atoms: C_10  and  C_11
REMARK    7  A    between atoms: C_10  and  O_12
REMARK    8  A    between atoms: C_13  and  C_14
REMARK    9  A    between atoms: C_14  and  C_15
REMARK   10  A    between atoms: C_14  and  O_16
REMARK                            x       y       z     vdW  Elec       q    Type
REMARK                         _______ _______ _______ _____ _____    ______ ____
ROOT
ATOM      1  N   UNL     1      -0.911  22.999 -33.295  0.00  0.00    +0.000 N 
ENDROOT
BRANCH   1   6
ATOM      2  C   UNL     1       0.699  23.762 -27.803  0.00  0.00    +0.000 C 
ATOM      3  C   UNL     1       0.305  23.570 -29.236  0.00  0.00    +0.000 A 
ATOM      4  C   UNL     1      -0.255  24.612 -29.968  0.00  0.00    +0.000 A 
ATOM      5  C   UNL     1      -0.651  24.418 -31.301  0.00  0.00    +0.000 A 
ATOM      6  C   UNL     1      -0.532  23.180 -31.958  0.00  0.00    +0.000 A 
ATOM      7  C   UNL     1       0.039  22.150 -31.189  0.00  0.00    +0.000 A 
ATOM      8  C   UNL     1       0.441  22.331 -29.855  0.00  0.00    +0.000 A 
ENDBRANCH   1   6
BRANCH   1   9
ATOM      9  C   UNL     1      -2.339  22.802 -33.642  0.00  0.00    +0.000 C 
BRANCH   9  10
ATOM     10  C   UNL     1      -3.234  22.580 -32.398  0.00  0.00    +0.000 C 
ATOM     11  C   UNL     1      -4.348  23.617 -32.336  0.00  0.00    +0.000 C 
BRANCH  10  12
ATOM     12  O   UNL     1      -3.839  21.279 -32.425  0.00  0.00    +0.000 OA
ATOM     13  H   UNL     1      -4.548  21.291 -33.090  0.00  0.00    +0.000 HD
ENDBRANCH  10  12
ENDBRANCH   9  10
ENDBRANCH   1   9
BRANCH   1  14
ATOM     14  C   UNL     1       0.053  22.494 -34.306  0.00  0.00    +0.000 C 
BRANCH  14  15
ATOM     15  C   UNL     1      -0.633  22.166 -35.654  0.00  0.00    +0.000 C 
ATOM     16  C   UNL     1       0.114  22.727 -36.858  0.00  0.00    +0.000 C 
BRANCH  15  17
ATOM     17  O   UNL     1      -0.781  20.760 -35.841  0.00  0.00    +0.000 OA
ATOM     18  H   UNL     1      -1.498  20.667 -36.501  0.00  0.00    +0.000 HD
ENDBRANCH  15  17
ENDBRANCH  14  15
ENDBRANCH   1  14
TORSDOF 7
ENDMDL
MODEL 7
REMARK VINA RESULT:    -3.525     10.962     13.742
REMARK INTER + INTRA:          -5.252
REMARK INTER:                  -5.263
REMARK INTRA:                   0.011
REMARK UNBOUND:                -0.490
REMARK  Name = 
REMARK  10 active torsions:
REMARK  status: ('A' for Active; 'I' for Inactive)
REMARK    1  A    between atoms: C_1  and  C_2
REMARK    2  A    between atoms: C_5  and  N_8
REMARK    3  A    between atoms: N_8  and  C_9
REMARK    4  A    between atoms: N_8  and  C_13
REMARK    5  A    between atoms: C_9  and  C_10
REMARK    6  A    between atoms: C_10  and  C_11
REMARK    7  A    between atoms: C_10  and  O_12
REMARK    8  A    between atoms: C_13  and  C_14
REMARK    9  A    between atoms: C_14  and  C_15
REMARK   10  A    between atoms: C_14  and  O_16
REMARK                            x       y       z     vdW  Elec       q    Type
REMARK                         _______ _______ _______ _____ _____    ______ ____
ROOT
ATOM      1  N   UNL     1      -1.058  22.575 -33.340  0.00  0.00    +0.000 N 
ENDROOT
BRANCH   1   6
ATOM      2  C   UNL     1       0.698  23.828 -27.984  0.00  0.00    +0.000 C 
ATOM      3  C   UNL     1       0.221  23.494 -29.365  0.00  0.00    +0.000 A 
ATOM      4  C   UNL     1       0.506  22.261 -29.940  0.00  0.00    +0.000 A 
ATOM      5  C   UNL     1       0.082  21.965 -31.246  0.00  0.00    +0.000 A 
ATOM      6  C   UNL     1      -0.621  22.884 -32.045  0.00  0.00    +0.000 A 
ATOM      7  C   UNL     1      -0.894  24.120 -31.430  0.00  0.00    +0.000 A 
ATOM      8  C   UNL     1      -0.478  24.428 -30.125  0.00  0.00    +0.000 A 
ENDBRANCH   1   6
BRANCH   1   9
ATOM      9  C   UNL     1      -0.213  22.914 -34.510  0.00  0.00    +0.000 C 
BRANCH   9  10
ATOM     10  C   UNL     1      -0.531  22.046 -35.752  0.00  0.00    +0.000 C 
ATOM     11  C   UNL     1      -0.811  22.918 -36.970  0.00  0.00    +0.000 C 
BRANCH  10  12
ATOM     12  O   UNL     1       0.567  21.179 -36.069  0.00  0.00    +0.000 OA
ATOM     13  H   UNL     1       1.036  20.973 -35.243  0.00  0.00    +0.000 HD
ENDBRANCH  10  12
ENDBRANCH   9  10
ENDBRANCH   1   9
BRANCH   1  14
ATOM     14  C   UNL     1      -2.501  22.397 -33.642  0.00  0.00    +0.000 C 
BRANCH  14  15
ATOM     15  C   UNL     1      -3.399  22.738 -32.428  0.00  0.00    +0.000 C 
ATOM     16  C   UNL     1      -4.448  23.799 -32.738  0.00  0.00    +0.000 C 
BRANCH  15  17
ATOM     17  O   UNL     1      -4.073  21.583 -31.930  0.00  0.00    +0.000 OA
ATOM     18  H   UNL     1      -4.345  21.086 -32.728  0.00  0.00    +0.000 HD
ENDBRANCH  15  17
ENDBRANCH  14  15
ENDBRANCH   1  14
TORSDOF 7
ENDMDL
MODEL 8
REMARK VINA RESULT:    -3.432     12.174     13.781
REMARK INTER + INTRA:          -5.126
REMARK INTER:                  -5.142
REMARK INTRA:                   0.017
REMARK UNBOUND:                -0.490
REMARK  Name = 
REMARK  10 active torsions:
REMARK  status: ('A' for Active; 'I' for Inactive)
REMARK    1  A    between atoms: C_1  and  C_2
REMARK    2  A    between atoms: C_5  and  N_8
REMARK    3  A    between atoms: N_8  and  C_9
REMARK    4  A    between atoms: N_8  and  C_13
REMARK    5  A    between atoms: C_9  and  C_10
REMARK    6  A    between atoms: C_10  and  C_11
REMARK    7  A    between atoms: C_10  and  O_12
REMARK    8  A    between atoms: C_13  and  C_14
REMARK    9  A    between atoms: C_14  and  C_15
REMARK   10  A    between atoms: C_14  and  O_16
REMARK                            x       y       z     vdW  Elec       q    Type
REMARK                         _______ _______ _______ _____ _____    ______ ____
ROOT
ATOM      1  N   UNL     1      -5.146  30.530 -36.599  0.00  0.00    +0.000 N 
ENDROOT
BRANCH   1   6
ATOM      2  C   UNL     1       0.414  30.337 -35.058  0.00  0.00    +0.000 C 
ATOM      3  C   UNL     1      -1.032  30.364 -35.449  0.00  0.00    +0.000 A 
ATOM      4  C   UNL     1      -1.432  29.994 -36.729  0.00  0.00    +0.000 A 
ATOM      5  C   UNL     1      -2.786  30.050 -37.100  0.00  0.00    +0.000 A 
ATOM      6  C   UNL     1      -3.796  30.495 -36.229  0.00  0.00    +0.000 A 
ATOM      7  C   UNL     1      -3.355  30.859 -34.943  0.00  0.00    +0.000 A 
ATOM      8  C   UNL     1      -2.005  30.806 -34.559  0.00  0.00    +0.000 A 
ENDBRANCH   1   6
BRANCH   1   9
ATOM      9  C   UNL     1      -5.733  29.411 -37.375  0.00  0.00    +0.000 C 
BRANCH   9  10
ATOM     10  C   UNL     1      -5.781  28.086 -36.575  0.00  0.00    +0.000 C 
ATOM     11  C   UNL     1      -6.046  28.351 -35.098  0.00  0.00    +0.000 C 
BRANCH  10  12
ATOM     12  O   UNL     1      -6.818  27.226 -37.066  0.00  0.00    +0.000 OA
ATOM     13  H   UNL     1      -7.328  27.718 -37.730  0.00  0.00    +0.000 HD
ENDBRANCH  10  12
ENDBRANCH   9  10
ENDBRANCH   1   9
BRANCH   1  14
ATOM     14  C   UNL     1      -5.882  31.816 -36.704  0.00  0.00    +0.000 C 
BRANCH  14  15
ATOM     15  C   UNL     1      -6.426  32.291 -35.336  0.00  0.00    +0.000 C 
ATOM     16  C   UNL     1      -7.606  33.249 -35.460  0.00  0.00    +0.000 C 
BRANCH  15  17
ATOM     17  O   UNL     1      -6.832  31.194 -34.520  0.00  0.00    +0.000 OA
ATOM     18  H   UNL     1      -7.794  31.105 -34.676  0.00  0.00    +0.000 HD
ENDBRANCH  15  17
ENDBRANCH  14  15
ENDBRANCH   1  14
TORSDOF 7
ENDMDL
MODEL 9
REMARK VINA RESULT:    -3.410      3.968      5.578
REMARK INTER + INTRA:          -5.096
REMARK INTER:                  -4.764
REMARK INTRA:                  -0.331
REMARK UNBOUND:                -0.490
REMARK  Name = 
REMARK  10 active torsions:
REMARK  status: ('A' for Active; 'I' for Inactive)
REMARK    1  A    between atoms: C_1  and  C_2
REMARK    2  A    between atoms: C_5  and  N_8
REMARK    3  A    between atoms: N_8  and  C_9
REMARK    4  A    between atoms: N_8  and  C_13
REMARK    5  A    between atoms: C_9  and  C_10
REMARK    6  A    between atoms: C_10  and  C_11
REMARK    7  A    between atoms: C_10  and  O_12
REMARK    8  A    between atoms: C_13  and  C_14
REMARK    9  A    between atoms: C_14  and  C_15
REMARK   10  A    between atoms: C_14  and  O_16
REMARK                            x       y       z     vdW  Elec       q    Type
REMARK                         _______ _______ _______ _____ _____    ______ ____
ROOT
ATOM      1  N   UNL     1      -3.977  33.301 -19.561  0.00  0.00    +0.000 N 
ENDROOT
BRANCH   1   6
ATOM      2  C   UNL     1       0.490  34.202 -23.106  0.00  0.00    +0.000 C 
ATOM      3  C   UNL     1      -0.667  33.943 -22.190  0.00  0.00    +0.000 A 
ATOM      4  C   UNL     1      -1.974  33.963 -22.667  0.00  0.00    +0.000 A 
ATOM      5  C   UNL     1      -3.056  33.750 -21.798  0.00  0.00    +0.000 A 
ATOM      6  C   UNL     1      -2.893  33.532 -20.418  0.00  0.00    +0.000 A 
ATOM      7  C   UNL     1      -1.559  33.517 -19.972  0.00  0.00    +0.000 A 
ATOM      8  C   UNL     1      -0.467  33.726 -20.830  0.00  0.00    +0.000 A 
ENDBRANCH   1   6
BRANCH   1   9
ATOM      9  C   UNL     1      -5.013  34.345 -19.375  0.00  0.00    +0.000 C 
BRANCH   9  10
ATOM     10  C   UNL     1      -6.383  33.944 -19.973  0.00  0.00    +0.000 C 
ATOM     11  C   UNL     1      -6.519  34.442 -21.407  0.00  0.00    +0.000 C 
BRANCH  10  12
ATOM     12  O   UNL     1      -6.544  32.519 -19.981  0.00  0.00    +0.000 OA
ATOM     13  H   UNL     1      -6.388  32.193 -19.079  0.00  0.00    +0.000 HD
ENDBRANCH  10  12
ENDBRANCH   9  10
ENDBRANCH   1   9
BRANCH   1  14
ATOM     14  C   UNL     1      -3.889  32.305 -18.462  0.00  0.00    +0.000 C 
BRANCH  14  15
ATOM     15  C   UNL     1      -4.238  32.921 -17.086  0.00  0.00    +0.000 C 
ATOM     16  C   UNL     1      -5.346  32.171 -16.357  0.00  0.00    +0.000 C 
BRANCH  15  17
ATOM     17  O   UNL     1      -3.100  32.973 -16.228  0.00  0.00    +0.000 OA
ATOM     18  H   UNL     1      -2.597  33.760 -16.520  0.00  0.00    +0.000 HD
ENDBRANCH  15  17
ENDBRANCH  14  15
ENDBRANCH   1  14
TORSDOF 7
ENDMDL
