MODEL 1
REMARK VINA RESULT:    -5.458      0.000      0.000
REMARK INTER + INTRA:          -7.965
REMARK INTER:                  -7.372
REMARK INTRA:                  -0.593
REMARK UNBOUND:                -0.593
REMARK  Name = 
REMARK  10 active torsions:
REMARK  status: ('A' for Active; 'I' for Inactive)
REMARK    1  A    between atoms: C_1  and  C_2
REMARK    2  A    between atoms: C_5  and  N_8
REMARK    3  A    between atoms: N_8  and  C_9
REMARK    4  A    between atoms: N_8  and  C_13
REMARK    5  A    between atoms: C_9  and  C_10
REMARK    6  A    between atoms: C_10  and  C_11
REMARK    7  A    between atoms: C_10  and  O_12
REMARK    8  A    between atoms: C_13  and  C_14
REMARK    9  A    between atoms: C_14  and  C_15
REMARK   10  A    between atoms: C_14  and  O_16
REMARK                            x       y       z     vdW  Elec       q    Type
REMARK                         _______ _______ _______ _____ _____    ______ ____
ROOT
ATOM      1  N   UNL     1       6.950  14.982   5.995  0.00  0.00    +0.000 N 
ENDROOT
BRANCH   1   6
ATOM      2  C   UNL     1      12.164  16.980   7.460  0.00  0.00    +0.000 C 
ATOM      3  C   UNL     1      10.805  16.461   7.104  0.00  0.00    +0.000 A 
ATOM      4  C   UNL     1      10.573  15.096   6.974  0.00  0.00    +0.000 A 
ATOM      5  C   UNL     1       9.304  14.616   6.610  0.00  0.00    +0.000 A 
ATOM      6  C   UNL     1       8.218  15.468   6.338  0.00  0.00    +0.000 A 
ATOM      7  C   UNL     1       8.488  16.841   6.481  0.00  0.00    +0.000 A 
ATOM      8  C   UNL     1       9.752  17.334   6.846  0.00  0.00    +0.000 A 
ENDBRANCH   1   6
BRANCH   1   9
ATOM      9  C   UNL     1       6.461  15.099   4.600  0.00  0.00    +0.000 C 
BRANCH   9  10
ATOM     10  C   UNL     1       7.062  14.024   3.661  0.00  0.00    +0.000 C 
ATOM     11  C   UNL     1       6.040  12.936   3.355  0.00  0.00    +0.000 C 
BRANCH  10  12
ATOM     12  O   UNL     1       7.481  14.603   2.417  0.00  0.00    +0.000 OA
ATOM     13  H   UNL     1       8.093  13.982   1.987  0.00  0.00    +0.000 HD
ENDBRANCH  10  12
ENDBRANCH   9  10
ENDBRANCH   1   9
BRANCH   1  14
ATOM     14  C   UNL     1       5.885  14.822   7.018  0.00  0.00    +0.000 C 
BRANCH  14  15
ATOM     15  C   UNL     1       5.538  13.336   7.273  0.00  0.00    +0.000 C 
ATOM     16  C   UNL     1       4.257  12.891   6.577  0.00  0.00    +0.000 C 
BRANCH  15  17
ATOM     17  O   UNL     1       6.591  12.469   6.855  0.00  0.00    +0.000 OA
ATOM     18  H   UNL     1       6.653  12.595   5.887  0.00  0.00    +0.000 HD
ENDBRANCH  15  17
ENDBRANCH  14  15
ENDBRANCH   1  14
TORSDOF 7
ENDMDL
MODEL 2
REMARK VINA RESULT:    -5.125      1.641      3.316
REMARK INTER + INTRA:          -7.516
REMARK INTER:                  -7.090
REMARK INTRA:                  -0.426
REMARK UNBOUND:                -0.593
REMARK  Name = 
REMARK  10 active torsions:
REMARK  status: ('A' for Active; 'I' for Inactive)
REMARK    1  A    between atoms: C_1  and  C_2
REMARK    2  A    between atoms: C_5  and  N_8
REMARK    3  A    between atoms: N_8  and  C_9
REMARK    4  A    between atoms: N_8  and  C_13
REMARK    5  A    between atoms: C_9  and  C_10
REMARK    6  A    between atoms: C_10  and  C_11
REMARK    7  A    between atoms: C_10  and  O_12
REMARK    8  A    between atoms: C_13  and  C_14
REMARK    9  A    between atoms: C_14  and  C_15
REMARK   10  A    between atoms: C_14  and  O_16
REMARK                            x       y       z     vdW  Elec       q    Type
REMARK                         _______ _______ _______ _____ _____    ______ ____
ROOT
ATOM      1  N   UNL     1       6.381  14.567   5.494  0.00  0.00    +0.000 N 
ENDROOT
BRANCH   1   6
ATOM      2  C   UNL     1      11.351  16.787   7.417  0.00  0.00    +0.000 C 
ATOM      3  C   UNL     1      10.069  16.214   6.895  0.00  0.00    +0.000 A 
ATOM      4  C   UNL     1       8.964  17.027   6.665  0.00  0.00    +0.000 A 
ATOM      5  C   UNL     1       7.756  16.480   6.204  0.00  0.00    +0.000 A 
ATOM      6  C   UNL     1       7.583  15.103   5.973  0.00  0.00    +0.000 A 
ATOM      7  C   UNL     1       8.721  14.312   6.213  0.00  0.00    +0.000 A 
ATOM      8  C   UNL     1       9.936  14.846   6.673  0.00  0.00    +0.000 A 
ENDBRANCH   1   6
BRANCH   1   9
ATOM      9  C   UNL     1       5.084  15.107   5.970  0.00  0.00    +0.000 C 
BRANCH   9  10
ATOM     10  C   UNL     1       4.365  14.157   6.958  0.00  0.00    +0.000 C 
ATOM     11  C   UNL     1       3.712  14.941   8.090  0.00  0.00    +0.000 C 
BRANCH  10  12
ATOM     12  O   UNL     1       3.343  13.401   6.294  0.00  0.00    +0.000 OA
ATOM     13  H   UNL     1       3.575  12.460   6.356  0.00  0.00    +0.000 HD
ENDBRANCH  10  12
ENDBRANCH   9  10
ENDBRANCH   1   9
BRANCH   1  14
ATOM     14  C   UNL     1       6.319  13.189   4.944  0.00  0.00    +0.000 C 
BRANCH  14  15
ATOM     15  C   UNL     1       5.720  13.156   3.517  0.00  0.00    +0.000 C 
ATOM     16  C   UNL     1       6.660  13.724   2.459  0.00  0.00    +0.000 C 
BRANCH  15  17
ATOM     17  O   UNL     1       5.364  11.831   3.125  0.00  0.00    +0.000 OA
ATOM     18  H   UNL     1       5.215  11.351   3.964  0.00  0.00    +0.000 HD
ENDBRANCH  15  17
ENDBRANCH  14  15
ENDBRANCH   1  14
TORSDOF 7
ENDMDL
MODEL 3
REMARK VINA RESULT:    -5.075      1.751      2.110
REMARK INTER + INTRA:          -7.449
REMARK INTER:                  -7.067
REMARK INTRA:                  -0.382
REMARK UNBOUND:                -0.593
REMARK  Name = 
REMARK  10 active torsions:
REMARK  status: ('A' for Active; 'I' for Inactive)
REMARK    1  A    between atoms: C_1  and  C_2
REMARK    2  A    between atoms: C_5  and  N_8
REMARK    3  A    between atoms: N_8  and  C_9
REMARK    4  A    between atoms: N_8  and  C_13
REMARK    5  A    between atoms: C_9  and  C_10
REMARK    6  A    between atoms: C_10  and  C_11
REMARK    7  A    between atoms: C_10  and  O_12
REMARK    8  A    between atoms: C_13  and  C_14
REMARK    9  A    between atoms: C_14  and  C_15
REMARK   10  A    between atoms: C_14  and  O_16
REMARK                            x       y       z     vdW  Elec       q    Type
REMARK                         _______ _______ _______ _____ _____    ______ ____
ROOT
ATOM      1  N   UNL     1       5.747  13.639   6.056  0.00  0.00    +0.000 N 
ENDROOT
BRANCH   1   6
ATOM      2  C   UNL     1      10.494  16.781   7.012  0.00  0.00    +0.000 C 
ATOM      3  C   UNL     1       9.255  15.970   6.788  0.00  0.00    +0.000 A 
ATOM      4  C   UNL     1       9.262  14.591   6.970  0.00  0.00    +0.000 A 
ATOM      5  C   UNL     1       8.105  13.831   6.730  0.00  0.00    +0.000 A 
ATOM      6  C   UNL     1       6.902  14.400   6.276  0.00  0.00    +0.000 A 
ATOM      7  C   UNL     1       6.931  15.796   6.104  0.00  0.00    +0.000 A 
ATOM      8  C   UNL     1       8.080  16.568   6.343  0.00  0.00    +0.000 A 
ENDBRANCH   1   6
BRANCH   1   9
ATOM      9  C   UNL     1       5.754  12.549   5.051  0.00  0.00    +0.000 C 
BRANCH   9  10
ATOM     10  C   UNL     1       5.381  13.040   3.631  0.00  0.00    +0.000 C 
ATOM     11  C   UNL     1       6.607  13.577   2.901  0.00  0.00    +0.000 C 
BRANCH  10  12
ATOM     12  O   UNL     1       4.828  11.975   2.846  0.00  0.00    +0.000 OA
ATOM     13  H   UNL     1       3.871  11.948   3.008  0.00  0.00    +0.000 HD
ENDBRANCH  10  12
ENDBRANCH   9  10
ENDBRANCH   1   9
BRANCH   1  14
ATOM     14  C   UNL     1       4.400  14.171   6.391  0.00  0.00    +0.000 C 
BRANCH  14  15
ATOM     15  C   UNL     1       3.850  13.581   7.711  0.00  0.00    +0.000 C 
ATOM     16  C   UNL     1       2.482  14.133   8.091  0.00  0.00    +0.000 C 
BRANCH  15  17
ATOM     17  O   UNL     1       3.752  12.159   7.653  0.00  0.00    +0.000 OA
ATOM     18  H   UNL     1       3.216  11.910   8.433  0.00  0.00    +0.000 HD
ENDBRANCH  15  17
ENDBRANCH  14  15
ENDBRANCH   1  14
TORSDOF 7
ENDMDL
MODEL 4
REMARK VINA RESULT:    -4.892      2.740      5.001
REMARK INTER + INTRA:          -7.201
REMARK INTER:                  -6.835
REMARK INTRA:                  -0.366
REMARK UNBOUND:                -0.593
REMARK  Name = 
REMARK  10 active torsions:
REMARK  status: ('A' for Active; 'I' for Inactive)
REMARK    1  A    between atoms: C_1  and  C_2
REMARK    2  A    between atoms: C_5  and  N_8
REMARK    3  A    between atoms: N_8  and  C_9
REMARK    4  A    between atoms: N_8  and  C_13
REMARK    5  A    between atoms: C_9  and  C_10
REMARK    6  A    between atoms: C_10  and  C_11
REMARK    7  A    between atoms: C_10  and  O_12
REMARK    8  A    between atoms: C_13  and  C_14
REMARK    9  A    between atoms: C_14  and  C_15
REMARK   10  A    between atoms: C_14  and  O_16
REMARK                            x       y       z     vdW  Elec       q    Type
REMARK                         _______ _______ _______ _____ _____    ______ ____
ROOT
ATOM      1  N   UNL     1       5.642  13.845   7.066  0.00  0.00    +0.000 N 
ENDROOT
BRANCH   1   6
ATOM      2  C   UNL     1       6.902  13.949   1.433  0.00  0.00    +0.000 C 
ATOM      3  C   UNL     1       6.553  13.931   2.890  0.00  0.00    +0.000 A 
ATOM      4  C   UNL     1       6.869  15.007   3.713  0.00  0.00    +0.000 A 
ATOM      5  C   UNL     1       6.566  14.973   5.084  0.00  0.00    +0.000 A 
ATOM      6  C   UNL     1       5.959  13.864   5.702  0.00  0.00    +0.000 A 
ATOM      7  C   UNL     1       5.652  12.796   4.839  0.00  0.00    +0.000 A 
ATOM      8  C   UNL     1       5.948  12.818   3.466  0.00  0.00    +0.000 A 
ENDBRANCH   1   6
BRANCH   1   9
ATOM      9  C   UNL     1       4.466  14.595   7.567  0.00  0.00    +0.000 C 
BRANCH   9  10
ATOM     10  C   UNL     1       3.268  13.675   7.909  0.00  0.00    +0.000 C 
ATOM     11  C   UNL     1       2.082  13.962   6.996  0.00  0.00    +0.000 C 
BRANCH  10  12
ATOM     12  O   UNL     1       3.621  12.293   7.759  0.00  0.00    +0.000 OA
ATOM     13  H   UNL     1       3.632  11.887   8.641  0.00  0.00    +0.000 HD
ENDBRANCH  10  12
ENDBRANCH   9  10
ENDBRANCH   1   9
BRANCH   1  14
ATOM     14  C   UNL     1       6.675  13.547   8.091  0.00  0.00    +0.000 C 
BRANCH  14  15
ATOM     15  C   UNL     1       7.952  12.930   7.472  0.00  0.00    +0.000 C 
ATOM     16  C   UNL     1       9.174  13.833   7.593  0.00  0.00    +0.000 C 
BRANCH  15  17
ATOM     17  O   UNL     1       8.272  11.673   8.066  0.00  0.00    +0.000 OA
ATOM     18  H   UNL     1       8.666  11.896   8.933  0.00  0.00    +0.000 HD
ENDBRANCH  15  17
ENDBRANCH  14  15
ENDBRANCH   1  14
TORSDOF 7
ENDMDL
MODEL 5
REMARK VINA RESULT:    -4.773      1.677      5.078
REMARK INTER + INTRA:          -7.040
REMARK INTER:                  -6.472
REMARK INTRA:                  -0.568
REMARK UNBOUND:                -0.593
REMARK  Name = 
REMARK  10 active torsions:
REMARK  status: ('A' for Active; 'I' for Inactive)
REMARK    1  A    between atoms: C_1  and  C_2
REMARK    2  A    between atoms: C_5  and  N_8
REMARK    3  A    between atoms: N_8  and  C_9
REMARK    4  A    between atoms: N_8  and  C_13
REMARK    5  A    between atoms: C_9  and  C_10
REMARK    6  A    between atoms: C_10  and  C_11
REMARK    7  A    between atoms: C_10  and  O_12
REMARK    8  A    between atoms: C_13  and  C_14
REMARK    9  A    between atoms: C_14  and  C_15
REMARK   10  A    between atoms: C_14  and  O_16
REMARK                            x       y       z     vdW  Elec       q    Type
REMARK                         _______ _______ _______ _____ _____    ______ ____
ROOT
ATOM      1  N   UNL     1       7.356  14.636   6.253  0.00  0.00    +0.000 N 
ENDROOT
BRANCH   1   6
ATOM      2  C   UNL     1       1.980  13.611   8.090  0.00  0.00    +0.000 C 
ATOM      3  C   UNL     1       3.366  13.883   7.590  0.00  0.00    +0.000 A 
ATOM      4  C   UNL     1       4.145  12.863   7.054  0.00  0.00    +0.000 A 
ATOM      5  C   UNL     1       5.454  13.118   6.615  0.00  0.00    +0.000 A 
ATOM      6  C   UNL     1       6.056  14.385   6.710  0.00  0.00    +0.000 A 
ATOM      7  C   UNL     1       5.239  15.393   7.256  0.00  0.00    +0.000 A 
ATOM      8  C   UNL     1       3.927  15.152   7.697  0.00  0.00    +0.000 A 
ENDBRANCH   1   6
BRANCH   1   9
ATOM      9  C   UNL     1       7.874  13.926   5.059  0.00  0.00    +0.000 C 
BRANCH   9  10
ATOM     10  C   UNL     1       7.305  14.488   3.733  0.00  0.00    +0.000 C 
ATOM     11  C   UNL     1       6.284  13.531   3.129  0.00  0.00    +0.000 C 
BRANCH  10  12
ATOM     12  O   UNL     1       6.659  15.751   3.944  0.00  0.00    +0.000 OA
ATOM     13  H   UNL     1       6.313  16.059   3.090  0.00  0.00    +0.000 HD
ENDBRANCH  10  12
ENDBRANCH   9  10
ENDBRANCH   1   9
BRANCH   1  14
ATOM     14  C   UNL     1       8.401  15.173   7.162  0.00  0.00    +0.000 C 
BRANCH  14  15
ATOM     15  C   UNL     1       8.580  16.703   7.007  0.00  0.00    +0.000 C 
ATOM     16  C   UNL     1      10.041  17.131   6.936  0.00  0.00    +0.000 C 
BRANCH  15  17
ATOM     17  O   UNL     1       7.918  17.196   5.844  0.00  0.00    +0.000 OA
ATOM     18  H   UNL     1       8.219  16.615   5.116  0.00  0.00    +0.000 HD
ENDBRANCH  15  17
ENDBRANCH  14  15
ENDBRANCH   1  14
TORSDOF 7
ENDMDL
MODEL 6
REMARK VINA RESULT:    -4.664      1.657      3.403
REMARK INTER + INTRA:          -6.894
REMARK INTER:                  -6.773
REMARK INTRA:                  -0.120
REMARK UNBOUND:                -0.593
REMARK  Name = 
REMARK  10 active torsions:
REMARK  status: ('A' for Active; 'I' for Inactive)
REMARK    1  A    between atoms: C_1  and  C_2
REMARK    2  A    between atoms: C_5  and  N_8
REMARK    3  A    between atoms: N_8  and  C_9
REMARK    4  A    between atoms: N_8  and  C_13
REMARK    5  A    between atoms: C_9  and  C_10
REMARK    6  A    between atoms: C_10  and  C_11
REMARK    7  A    between atoms: C_10  and  O_12
REMARK    8  A    between atoms: C_13  and  C_14
REMARK    9  A    between atoms: C_14  and  C_15
REMARK   10  A    between atoms: C_14  and  O_16
REMARK                            x       y       z     vdW  Elec       q    Type
REMARK                         _______ _______ _______ _____ _____    ______ ____
ROOT
ATOM      1  N   UNL     1       8.275  15.382   6.952  0.00  0.00    +0.000 N 
ENDROOT
BRANCH   1   6
ATOM      2  C   UNL     1      12.756  18.959   7.631  0.00  0.00    +0.000 C 
ATOM      3  C   UNL     1      11.594  18.035   7.430  0.00  0.00    +0.000 A 
ATOM      4  C   UNL     1      10.287  18.509   7.476  0.00  0.00    +0.000 A 
ATOM      5  C   UNL     1       9.202  17.632   7.317  0.00  0.00    +0.000 A 
ATOM      6  C   UNL     1       9.362  16.248   7.129  0.00  0.00    +0.000 A 
ATOM      7  C   UNL     1      10.697  15.804   7.086  0.00  0.00    +0.000 A 
ATOM      8  C   UNL     1      11.792  16.670   7.242  0.00  0.00    +0.000 A 
ENDBRANCH   1   6
BRANCH   1   9
ATOM      9  C   UNL     1       8.507  13.941   6.692  0.00  0.00    +0.000 C 
BRANCH   9  10
ATOM     10  C   UNL     1       7.627  13.023   7.575  0.00  0.00    +0.000 C 
ATOM     11  C   UNL     1       6.380  12.576   6.822  0.00  0.00    +0.000 C 
BRANCH  10  12
ATOM     12  O   UNL     1       8.348  11.850   7.976  0.00  0.00    +0.000 OA
ATOM     13  H   UNL     1       8.636  11.973   8.896  0.00  0.00    +0.000 HD
ENDBRANCH  10  12
ENDBRANCH   9  10
ENDBRANCH   1   9
BRANCH   1  14
ATOM     14  C   UNL     1       6.951  15.891   6.510  0.00  0.00    +0.000 C 
BRANCH  14  15
ATOM     15  C   UNL     1       6.925  16.215   4.997  0.00  0.00    +0.000 C 
ATOM     16  C   UNL     1       6.554  15.015   4.134  0.00  0.00    +0.000 C 
BRANCH  15  17
ATOM     17  O   UNL     1       6.014  17.272   4.700  0.00  0.00    +0.000 OA
ATOM     18  H   UNL     1       6.573  18.069   4.607  0.00  0.00    +0.000 HD
ENDBRANCH  15  17
ENDBRANCH  14  15
ENDBRANCH   1  14
TORSDOF 7
ENDMDL
MODEL 7
REMARK VINA RESULT:    -4.609      1.961      5.514
REMARK INTER + INTRA:          -6.819
REMARK INTER:                  -6.615
REMARK INTRA:                  -0.203
REMARK UNBOUND:                -0.593
REMARK  Name = 
REMARK  10 active torsions:
REMARK  status: ('A' for Active; 'I' for Inactive)
REMARK    1  A    between atoms: C_1  and  C_2
REMARK    2  A    between atoms: C_5  and  N_8
REMARK    3  A    between atoms: N_8  and  C_9
REMARK    4  A    between atoms: N_8  and  C_13
REMARK    5  A    between atoms: C_9  and  C_10
REMARK    6  A    between atoms: C_10  and  C_11
REMARK    7  A    between atoms: C_10  and  O_12
REMARK    8  A    between atoms: C_13  and  C_14
REMARK    9  A    between atoms: C_14  and  C_15
REMARK   10  A    between atoms: C_14  and  O_16
REMARK                            x       y       z     vdW  Elec       q    Type
REMARK                         _______ _______ _______ _____ _____    ______ ____
ROOT
ATOM      1  N   UNL     1       7.247  13.783   5.696  0.00  0.00    +0.000 N 
ENDROOT
BRANCH   1   6
ATOM      2  C   UNL     1       1.811  13.939   7.634  0.00  0.00    +0.000 C 
ATOM      3  C   UNL     1       3.230  13.904   7.154  0.00  0.00    +0.000 A 
ATOM      4  C   UNL     1       3.831  15.039   6.620  0.00  0.00    +0.000 A 
ATOM      5  C   UNL     1       5.152  14.993   6.144  0.00  0.00    +0.000 A 
ATOM      6  C   UNL     1       5.924  13.817   6.154  0.00  0.00    +0.000 A 
ATOM      7  C   UNL     1       5.285  12.690   6.703  0.00  0.00    +0.000 A 
ATOM      8  C   UNL     1       3.966  12.723   7.184  0.00  0.00    +0.000 A 
ENDBRANCH   1   6
BRANCH   1   9
ATOM      9  C   UNL     1       8.359  14.150   6.606  0.00  0.00    +0.000 C 
BRANCH   9  10
ATOM     10  C   UNL     1       8.741  15.648   6.512  0.00  0.00    +0.000 C 
ATOM     11  C   UNL     1       8.349  16.391   7.784  0.00  0.00    +0.000 C 
BRANCH  10  12
ATOM     12  O   UNL     1      10.154  15.808   6.322  0.00  0.00    +0.000 OA
ATOM     13  H   UNL     1      10.608  15.136   6.858  0.00  0.00    +0.000 HD
ENDBRANCH  10  12
ENDBRANCH   9  10
ENDBRANCH   1   9
BRANCH   1  14
ATOM     14  C   UNL     1       7.562  13.894   4.249  0.00  0.00    +0.000 C 
BRANCH  14  15
ATOM     15  C   UNL     1       6.339  13.570   3.358  0.00  0.00    +0.000 C 
ATOM     16  C   UNL     1       6.535  13.972   1.901  0.00  0.00    +0.000 C 
BRANCH  15  17
ATOM     17  O   UNL     1       6.013  12.182   3.393  0.00  0.00    +0.000 OA
ATOM     18  H   UNL     1       5.385  12.088   4.137  0.00  0.00    +0.000 HD
ENDBRANCH  15  17
ENDBRANCH  14  15
ENDBRANCH   1  14
TORSDOF 7
ENDMDL
MODEL 8
REMARK VINA RESULT:    -4.604      1.395      3.074
REMARK INTER + INTRA:          -6.812
REMARK INTER:                  -6.432
REMARK INTRA:                  -0.381
REMARK UNBOUND:                -0.593
REMARK  Name = 
REMARK  10 active torsions:
REMARK  status: ('A' for Active; 'I' for Inactive)
REMARK    1  A    between atoms: C_1  and  C_2
REMARK    2  A    between atoms: C_5  and  N_8
REMARK    3  A    between atoms: N_8  and  C_9
REMARK    4  A    between atoms: N_8  and  C_13
REMARK    5  A    between atoms: C_9  and  C_10
REMARK    6  A    between atoms: C_10  and  C_11
REMARK    7  A    between atoms: C_10  and  O_12
REMARK    8  A    between atoms: C_13  and  C_14
REMARK    9  A    between atoms: C_14  and  C_15
REMARK   10  A    between atoms: C_14  and  O_16
REMARK                            x       y       z     vdW  Elec       q    Type
REMARK                         _______ _______ _______ _____ _____    ______ ____
ROOT
ATOM      1  N   UNL     1       7.169  14.472   6.373  0.00  0.00    +0.000 N 
ENDROOT
BRANCH   1   6
ATOM      2  C   UNL     1      12.243  16.920   7.632  0.00  0.00    +0.000 C 
ATOM      3  C   UNL     1      10.920  16.286   7.329  0.00  0.00    +0.000 A 
ATOM      4  C   UNL     1      10.769  14.904   7.348  0.00  0.00    +0.000 A 
ATOM      5  C   UNL     1       9.533  14.314   7.034  0.00  0.00    +0.000 A 
ATOM      6  C   UNL     1       8.403  15.065   6.666  0.00  0.00    +0.000 A 
ATOM      7  C   UNL     1       8.591  16.460   6.660  0.00  0.00    +0.000 A 
ATOM      8  C   UNL     1       9.821  17.063   6.973  0.00  0.00    +0.000 A 
ENDBRANCH   1   6
BRANCH   1   9
ATOM      9  C   UNL     1       6.151  14.307   7.439  0.00  0.00    +0.000 C 
BRANCH   9  10
ATOM     10  C   UNL     1       4.802  14.983   7.091  0.00  0.00    +0.000 C 
ATOM     11  C   UNL     1       3.685  13.951   6.992  0.00  0.00    +0.000 C 
BRANCH  10  12
ATOM     12  O   UNL     1       4.433  15.942   8.091  0.00  0.00    +0.000 OA
ATOM     13  H   UNL     1       3.766  15.535   8.668  0.00  0.00    +0.000 HD
ENDBRANCH  10  12
ENDBRANCH   9  10
ENDBRANCH   1   9
BRANCH   1  14
ATOM     14  C   UNL     1       7.011  13.556   5.214  0.00  0.00    +0.000 C 
BRANCH  14  15
ATOM     15  C   UNL     1       7.142  14.298   3.862  0.00  0.00    +0.000 C 
ATOM     16  C   UNL     1       6.422  13.593   2.719  0.00  0.00    +0.000 C 
BRANCH  15  17
ATOM     17  O   UNL     1       6.642  15.632   3.942  0.00  0.00    +0.000 OA
ATOM     18  H   UNL     1       7.127  16.040   4.688  0.00  0.00    +0.000 HD
ENDBRANCH  15  17
ENDBRANCH  14  15
ENDBRANCH   1  14
TORSDOF 7
ENDMDL
MODEL 9
REMARK VINA RESULT:    -3.190      2.778      4.788
REMARK INTER + INTRA:          -4.902
REMARK INTER:                  -4.539
REMARK INTRA:                  -0.363
REMARK UNBOUND:                -0.593
REMARK  Name = 
REMARK  10 active torsions:
REMARK  status: ('A' for Active; 'I' for Inactive)
REMARK    1  A    between atoms: C_1  and  C_2
REMARK    2  A    between atoms: C_5  and  N_8
REMARK    3  A    between atoms: N_8  and  C_9
REMARK    4  A    between atoms: N_8  and  C_13
REMARK    5  A    between atoms: C_9  and  C_10
REMARK    6  A    between atoms: C_10  and  C_11
REMARK    7  A    between atoms: C_10  and  O_12
REMARK    8  A    between atoms: C_13  and  C_14
REMARK    9  A    between atoms: C_14  and  C_15
REMARK   10  A    between atoms: C_14  and  O_16
REMARK                            x       y       z     vdW  Elec       q    Type
REMARK                         _______ _______ _______ _____ _____    ______ ____
ROOT
ATOM      1  N   UNL     1       5.831  13.544   7.114  0.00  0.00    +0.000 N 
ENDROOT
BRANCH   1   6
ATOM      2  C   UNL     1       6.827  13.969   1.444  0.00  0.00    +0.000 C 
ATOM      3  C   UNL     1       6.590  13.845   2.918  0.00  0.00    +0.000 A 
ATOM      4  C   UNL     1       5.832  12.800   3.434  0.00  0.00    +0.000 A 
ATOM      5  C   UNL     1       5.587  12.705   4.814  0.00  0.00    +0.000 A 
ATOM      6  C   UNL     1       6.062  13.654   5.737  0.00  0.00    +0.000 A 
ATOM      7  C   UNL     1       6.826  14.696   5.180  0.00  0.00    +0.000 A 
ATOM      8  C   UNL     1       7.080  14.801   3.803  0.00  0.00    +0.000 A 
ENDBRANCH   1   6
BRANCH   1   9
ATOM      9  C   UNL     1       6.957  13.673   8.070  0.00  0.00    +0.000 C 
BRANCH   9  10
ATOM     10  C   UNL     1       8.234  12.937   7.596  0.00  0.00    +0.000 C 
ATOM     11  C   UNL     1       9.488  13.648   8.091  0.00  0.00    +0.000 C 
BRANCH  10  12
ATOM     12  O   UNL     1       8.264  11.590   8.088  0.00  0.00    +0.000 OA
ATOM     13  H   UNL     1       9.134  11.212   7.877  0.00  0.00    +0.000 HD
ENDBRANCH  10  12
ENDBRANCH   9  10
ENDBRANCH   1   9
BRANCH   1  14
ATOM     14  C   UNL     1       4.647  12.815   7.639  0.00  0.00    +0.000 C 
BRANCH  14  15
ATOM     15  C   UNL     1       3.410  13.734   7.777  0.00  0.00    +0.000 C 
ATOM     16  C   UNL     1       3.770  15.182   8.088  0.00  0.00    +0.000 C 
BRANCH  15  17
ATOM     17  O   UNL     1       2.609  13.722   6.596  0.00  0.00    +0.000 OA
ATOM     18  H   UNL     1       2.060  12.915   6.671  0.00  0.00    +0.000 HD
ENDBRANCH  15  17
ENDBRANCH  14  15
ENDBRANCH   1  14
TORSDOF 7
ENDMDL
