MODEL 1
REMARK VINA RESULT:    -5.384      0.000      0.000
REMARK INTER + INTRA:          -7.727
REMARK INTER:                  -7.272
REMARK INTRA:                  -0.455
REMARK UNBOUND:                -0.455
REMARK  Name = 
REMARK  10 active torsions:
REMARK  status: ('A' for Active; 'I' for Inactive)
REMARK    1  A    between atoms: C_1  and  C_2
REMARK    2  A    between atoms: C_5  and  N_8
REMARK    3  A    between atoms: N_8  and  C_9
REMARK    4  A    between atoms: N_8  and  C_13
REMARK    5  A    between atoms: C_9  and  C_10
REMARK    6  A    between atoms: C_10  and  C_11
REMARK    7  A    between atoms: C_10  and  O_12
REMARK    8  A    between atoms: C_13  and  C_14
REMARK    9  A    between atoms: C_14  and  C_15
REMARK   10  A    between atoms: C_14  and  O_16
REMARK                            x       y       z     vdW  Elec       q    Type
REMARK                         _______ _______ _______ _____ _____    ______ ____
ROOT
ATOM      1  N   UNL     1      12.440   3.174   8.419  0.00  0.00    +0.000 N 
ENDROOT
BRANCH   1   6
ATOM      2  C   UNL     1      17.822   1.703   9.901  0.00  0.00    +0.000 C 
ATOM      3  C   UNL     1      16.421   2.060   9.512  0.00  0.00    +0.000 A 
ATOM      4  C   UNL     1      16.115   2.434   8.207  0.00  0.00    +0.000 A 
ATOM      5  C   UNL     1      14.805   2.797   7.854  0.00  0.00    +0.000 A 
ATOM      6  C   UNL     1      13.748   2.829   8.782  0.00  0.00    +0.000 A 
ATOM      7  C   UNL     1      14.093   2.444  10.090  0.00  0.00    +0.000 A 
ATOM      8  C   UNL     1      15.399   2.076  10.456  0.00  0.00    +0.000 A 
ENDBRANCH   1   6
BRANCH   1   9
ATOM      9  C   UNL     1      11.724   2.387   7.386  0.00  0.00    +0.000 C 
BRANCH   9  10
ATOM     10  C   UNL     1      11.326   3.236   6.154  0.00  0.00    +0.000 C 
ATOM     11  C   UNL     1      12.488   3.351   5.174  0.00  0.00    +0.000 C 
BRANCH  10  12
ATOM     12  O   UNL     1      10.216   2.649   5.460  0.00  0.00    +0.000 OA
ATOM     13  H   UNL     1       9.791   3.343   4.930  0.00  0.00    +0.000 HD
ENDBRANCH  10  12
ENDBRANCH   9  10
ENDBRANCH   1   9
BRANCH   1  14
ATOM     14  C   UNL     1      11.922   4.550   8.627  0.00  0.00    +0.000 C 
BRANCH  14  15
ATOM     15  C   UNL     1      11.263   4.723  10.017  0.00  0.00    +0.000 C 
ATOM     16  C   UNL     1      11.308   6.158  10.527  0.00  0.00    +0.000 C 
BRANCH  15  17
ATOM     17  O   UNL     1       9.901   4.299  10.010  0.00  0.00    +0.000 OA
ATOM     18  H   UNL     1       9.722   4.008  10.928  0.00  0.00    +0.000 HD
ENDBRANCH  15  17
ENDBRANCH  14  15
ENDBRANCH   1  14
TORSDOF 7
ENDMDL
MODEL 2
REMARK VINA RESULT:    -5.358      0.376      3.323
REMARK INTER + INTRA:          -7.693
REMARK INTER:                  -7.499
REMARK INTRA:                  -0.194
REMARK UNBOUND:                -0.455
REMARK  Name = 
REMARK  10 active torsions:
REMARK  status: ('A' for Active; 'I' for Inactive)
REMARK    1  A    between atoms: C_1  and  C_2
REMARK    2  A    between atoms: C_5  and  N_8
REMARK    3  A    between atoms: N_8  and  C_9
REMARK    4  A    between atoms: N_8  and  C_13
REMARK    5  A    between atoms: C_9  and  C_10
REMARK    6  A    between atoms: C_10  and  C_11
REMARK    7  A    between atoms: C_10  and  O_12
REMARK    8  A    between atoms: C_13  and  C_14
REMARK    9  A    between atoms: C_14  and  C_15
REMARK   10  A    between atoms: C_14  and  O_16
REMARK                            x       y       z     vdW  Elec       q    Type
REMARK                         _______ _______ _______ _____ _____    ______ ____
ROOT
ATOM      1  N   UNL     1      12.628   3.462   7.884  0.00  0.00    +0.000 N 
ENDROOT
BRANCH   1   6
ATOM      2  C   UNL     1      17.631   1.454   9.950  0.00  0.00    +0.000 C 
ATOM      3  C   UNL     1      16.326   1.951   9.408  0.00  0.00    +0.000 A 
ATOM      4  C   UNL     1      16.216   2.374   8.087  0.00  0.00    +0.000 A 
ATOM      5  C   UNL     1      14.998   2.868   7.593  0.00  0.00    +0.000 A 
ATOM      6  C   UNL     1      13.845   2.986   8.389  0.00  0.00    +0.000 A 
ATOM      7  C   UNL     1      13.992   2.548   9.718  0.00  0.00    +0.000 A 
ATOM      8  C   UNL     1      15.204   2.050  10.225  0.00  0.00    +0.000 A 
ENDBRANCH   1   6
BRANCH   1   9
ATOM      9  C   UNL     1      12.048   4.722   8.407  0.00  0.00    +0.000 C 
BRANCH   9  10
ATOM     10  C   UNL     1      11.446   4.563   9.825  0.00  0.00    +0.000 C 
ATOM     11  C   UNL     1      11.455   5.891  10.573  0.00  0.00    +0.000 C 
BRANCH  10  12
ATOM     12  O   UNL     1      10.090   4.100   9.759  0.00  0.00    +0.000 OA
ATOM     13  H   UNL     1       9.549   4.668  10.332  0.00  0.00    +0.000 HD
ENDBRANCH  10  12
ENDBRANCH   9  10
ENDBRANCH   1   9
BRANCH   1  14
ATOM     14  C   UNL     1      11.652   2.545   7.240  0.00  0.00    +0.000 C 
BRANCH  14  15
ATOM     15  C   UNL     1      11.228   3.037   5.836  0.00  0.00    +0.000 C 
ATOM     16  C   UNL     1      12.322   2.872   4.787  0.00  0.00    +0.000 C 
BRANCH  15  17
ATOM     17  O   UNL     1      10.063   2.359   5.369  0.00  0.00    +0.000 OA
ATOM     18  H   UNL     1       9.404   2.467   6.085  0.00  0.00    +0.000 HD
ENDBRANCH  15  17
ENDBRANCH  14  15
ENDBRANCH   1  14
TORSDOF 7
ENDMDL
MODEL 3
REMARK VINA RESULT:    -5.285     14.459     15.861
REMARK INTER + INTRA:          -7.594
REMARK INTER:                  -7.280
REMARK INTRA:                  -0.314
REMARK UNBOUND:                -0.455
REMARK  Name = 
REMARK  10 active torsions:
REMARK  status: ('A' for Active; 'I' for Inactive)
REMARK    1  A    between atoms: C_1  and  C_2
REMARK    2  A    between atoms: C_5  and  N_8
REMARK    3  A    between atoms: N_8  and  C_9
REMARK    4  A    between atoms: N_8  and  C_13
REMARK    5  A    between atoms: C_9  and  C_10
REMARK    6  A    between atoms: C_10  and  C_11
REMARK    7  A    between atoms: C_10  and  O_12
REMARK    8  A    between atoms: C_13  and  C_14
REMARK    9  A    between atoms: C_14  and  C_15
REMARK   10  A    between atoms: C_14  and  O_16
REMARK                            x       y       z     vdW  Elec       q    Type
REMARK                         _______ _______ _______ _____ _____    ______ ____
ROOT
ATOM      1  N   UNL     1      19.166  10.250  -4.233  0.00  0.00    +0.000 N 
ENDROOT
BRANCH   1   6
ATOM      2  C   UNL     1      23.027  10.348   0.058  0.00  0.00    +0.000 C 
ATOM      3  C   UNL     1      22.007  10.323  -1.039  0.00  0.00    +0.000 A 
ATOM      4  C   UNL     1      21.541   9.118  -1.553  0.00  0.00    +0.000 A 
ATOM      5  C   UNL     1      20.607   9.101  -2.602  0.00  0.00    +0.000 A 
ATOM      6  C   UNL     1      20.113  10.274  -3.201  0.00  0.00    +0.000 A 
ATOM      7  C   UNL     1      20.604  11.473  -2.654  0.00  0.00    +0.000 A 
ATOM      8  C   UNL     1      21.537  11.505  -1.604  0.00  0.00    +0.000 A 
ENDBRANCH   1   6
BRANCH   1   9
ATOM      9  C   UNL     1      19.592   9.965  -5.625  0.00  0.00    +0.000 C 
BRANCH   9  10
ATOM     10  C   UNL     1      21.119  10.120  -5.829  0.00  0.00    +0.000 C 
ATOM     11  C   UNL     1      21.663   9.016  -6.728  0.00  0.00    +0.000 C 
BRANCH  10  12
ATOM     12  O   UNL     1      21.431  11.382  -6.436  0.00  0.00    +0.000 OA
ATOM     13  H   UNL     1      21.801  11.963  -5.750  0.00  0.00    +0.000 HD
ENDBRANCH  10  12
ENDBRANCH   9  10
ENDBRANCH   1   9
BRANCH   1  14
ATOM     14  C   UNL     1      17.876  10.975  -4.111  0.00  0.00    +0.000 C 
BRANCH  14  15
ATOM     15  C   UNL     1      16.671  10.010  -4.006  0.00  0.00    +0.000 C 
ATOM     16  C   UNL     1      15.945   9.810  -5.331  0.00  0.00    +0.000 C 
BRANCH  15  17
ATOM     17  O   UNL     1      17.063   8.727  -3.519  0.00  0.00    +0.000 OA
ATOM     18  H   UNL     1      18.029   8.684  -3.671  0.00  0.00    +0.000 HD
ENDBRANCH  15  17
ENDBRANCH  14  15
ENDBRANCH   1  14
TORSDOF 7
ENDMDL
MODEL 4
REMARK VINA RESULT:    -5.164     14.562     15.957
REMARK INTER + INTRA:          -7.431
REMARK INTER:                  -7.202
REMARK INTRA:                  -0.228
REMARK UNBOUND:                -0.455
REMARK  Name = 
REMARK  10 active torsions:
REMARK  status: ('A' for Active; 'I' for Inactive)
REMARK    1  A    between atoms: C_1  and  C_2
REMARK    2  A    between atoms: C_5  and  N_8
REMARK    3  A    between atoms: N_8  and  C_9
REMARK    4  A    between atoms: N_8  and  C_13
REMARK    5  A    between atoms: C_9  and  C_10
REMARK    6  A    between atoms: C_10  and  C_11
REMARK    7  A    between atoms: C_10  and  O_12
REMARK    8  A    between atoms: C_13  and  C_14
REMARK    9  A    between atoms: C_14  and  C_15
REMARK   10  A    between atoms: C_14  and  O_16
REMARK                            x       y       z     vdW  Elec       q    Type
REMARK                         _______ _______ _______ _____ _____    ______ ____
ROOT
ATOM      1  N   UNL     1      19.134  10.239  -4.061  0.00  0.00    +0.000 N 
ENDROOT
BRANCH   1   6
ATOM      2  C   UNL     1      23.109  10.279   0.126  0.00  0.00    +0.000 C 
ATOM      3  C   UNL     1      22.059  10.269  -0.943  0.00  0.00    +0.000 A 
ATOM      4  C   UNL     1      21.583   9.071  -1.466  0.00  0.00    +0.000 A 
ATOM      5  C   UNL     1      20.621   9.068  -2.489  0.00  0.00    +0.000 A 
ATOM      6  C   UNL     1      20.107  10.249  -3.054  0.00  0.00    +0.000 A 
ATOM      7  C   UNL     1      20.609  11.441  -2.500  0.00  0.00    +0.000 A 
ATOM      8  C   UNL     1      21.570  11.458  -1.475  0.00  0.00    +0.000 A 
ENDBRANCH   1   6
BRANCH   1   9
ATOM      9  C   UNL     1      17.734   9.874  -3.737  0.00  0.00    +0.000 C 
BRANCH   9  10
ATOM     10  C   UNL     1      16.697  10.726  -4.509  0.00  0.00    +0.000 C 
ATOM     11  C   UNL     1      15.824   9.849  -5.399  0.00  0.00    +0.000 C 
BRANCH  10  12
ATOM     12  O   UNL     1      15.839  11.436  -3.606  0.00  0.00    +0.000 OA
ATOM     13  H   UNL     1      15.202  10.803  -3.236  0.00  0.00    +0.000 HD
ENDBRANCH  10  12
ENDBRANCH   9  10
ENDBRANCH   1   9
BRANCH   1  14
ATOM     14  C   UNL     1      19.507  10.078  -5.489  0.00  0.00    +0.000 C 
BRANCH  14  15
ATOM     15  C   UNL     1      21.040  10.104  -5.699  0.00  0.00    +0.000 C 
ATOM     16  C   UNL     1      21.526   9.064  -6.702  0.00  0.00    +0.000 C 
BRANCH  15  17
ATOM     17  O   UNL     1      21.490  11.385  -6.139  0.00  0.00    +0.000 OA
ATOM     18  H   UNL     1      20.809  12.013  -5.825  0.00  0.00    +0.000 HD
ENDBRANCH  15  17
ENDBRANCH  14  15
ENDBRANCH   1  14
TORSDOF 7
ENDMDL
MODEL 5
REMARK VINA RESULT:    -5.161      1.768      2.268
REMARK INTER + INTRA:          -7.427
REMARK INTER:                  -7.003
REMARK INTRA:                  -0.424
REMARK UNBOUND:                -0.455
REMARK  Name = 
REMARK  10 active torsions:
REMARK  status: ('A' for Active; 'I' for Inactive)
REMARK    1  A    between atoms: C_1  and  C_2
REMARK    2  A    between atoms: C_5  and  N_8
REMARK    3  A    between atoms: N_8  and  C_9
REMARK    4  A    between atoms: N_8  and  C_13
REMARK    5  A    between atoms: C_9  and  C_10
REMARK    6  A    between atoms: C_10  and  C_11
REMARK    7  A    between atoms: C_10  and  O_12
REMARK    8  A    between atoms: C_13  and  C_14
REMARK    9  A    between atoms: C_14  and  C_15
REMARK   10  A    between atoms: C_14  and  O_16
REMARK                            x       y       z     vdW  Elec       q    Type
REMARK                         _______ _______ _______ _____ _____    ______ ____
ROOT
ATOM      1  N   UNL     1      14.095   3.219   7.858  0.00  0.00    +0.000 N 
ENDROOT
BRANCH   1   6
ATOM      2  C   UNL     1      18.041   0.200  10.800  0.00  0.00    +0.000 C 
ATOM      3  C   UNL     1      17.006   0.962  10.029  0.00  0.00    +0.000 A 
ATOM      4  C   UNL     1      17.229   1.334   8.708  0.00  0.00    +0.000 A 
ATOM      5  C   UNL     1      16.268   2.074   8.000  0.00  0.00    +0.000 A 
ATOM      6  C   UNL     1      15.057   2.498   8.576  0.00  0.00    +0.000 A 
ATOM      7  C   UNL     1      14.865   2.103   9.913  0.00  0.00    +0.000 A 
ATOM      8  C   UNL     1      15.816   1.361  10.632  0.00  0.00    +0.000 A 
ENDBRANCH   1   6
BRANCH   1   9
ATOM      9  C   UNL     1      14.437   3.806   6.540  0.00  0.00    +0.000 C 
BRANCH   9  10
ATOM     10  C   UNL     1      13.832   3.012   5.356  0.00  0.00    +0.000 C 
ATOM     11  C   UNL     1      12.724   3.808   4.676  0.00  0.00    +0.000 C 
BRANCH  10  12
ATOM     12  O   UNL     1      14.833   2.714   4.372  0.00  0.00    +0.000 OA
ATOM     13  H   UNL     1      15.624   3.240   4.578  0.00  0.00    +0.000 HD
ENDBRANCH  10  12
ENDBRANCH   9  10
ENDBRANCH   1   9
BRANCH   1  14
ATOM     14  C   UNL     1      12.940   3.853   8.544  0.00  0.00    +0.000 C 
BRANCH  14  15
ATOM     15  C   UNL     1      11.744   2.883   8.692  0.00  0.00    +0.000 C 
ATOM     16  C   UNL     1      10.852   3.207   9.884  0.00  0.00    +0.000 C 
BRANCH  15  17
ATOM     17  O   UNL     1      10.928   2.870   7.521  0.00  0.00    +0.000 OA
ATOM     18  H   UNL     1      10.329   3.637   7.622  0.00  0.00    +0.000 HD
ENDBRANCH  15  17
ENDBRANCH  14  15
ENDBRANCH   1  14
TORSDOF 7
ENDMDL
MODEL 6
REMARK VINA RESULT:    -5.148      1.724      3.785
REMARK INTER + INTRA:          -7.410
REMARK INTER:                  -6.998
REMARK INTRA:                  -0.412
REMARK UNBOUND:                -0.455
REMARK  Name = 
REMARK  10 active torsions:
REMARK  status: ('A' for Active; 'I' for Inactive)
REMARK    1  A    between atoms: C_1  and  C_2
REMARK    2  A    between atoms: C_5  and  N_8
REMARK    3  A    between atoms: N_8  and  C_9
REMARK    4  A    between atoms: N_8  and  C_13
REMARK    5  A    between atoms: C_9  and  C_10
REMARK    6  A    between atoms: C_10  and  C_11
REMARK    7  A    between atoms: C_10  and  O_12
REMARK    8  A    between atoms: C_13  and  C_14
REMARK    9  A    between atoms: C_14  and  C_15
REMARK   10  A    between atoms: C_14  and  O_16
REMARK                            x       y       z     vdW  Elec       q    Type
REMARK                         _______ _______ _______ _____ _____    ______ ____
ROOT
ATOM      1  N   UNL     1      13.460   3.347   7.666  0.00  0.00    +0.000 N 
ENDROOT
BRANCH   1   6
ATOM      2  C   UNL     1      17.948   1.040  10.471  0.00  0.00    +0.000 C 
ATOM      3  C   UNL     1      16.791   1.661   9.750  0.00  0.00    +0.000 A 
ATOM      4  C   UNL     1      15.561   1.824  10.380  0.00  0.00    +0.000 A 
ATOM      5  C   UNL     1      14.471   2.380   9.690  0.00  0.00    +0.000 A 
ATOM      6  C   UNL     1      14.545   2.776   8.342  0.00  0.00    +0.000 A 
ATOM      7  C   UNL     1      15.804   2.598   7.738  0.00  0.00    +0.000 A 
ATOM      8  C   UNL     1      16.902   2.046   8.417  0.00  0.00    +0.000 A 
ENDBRANCH   1   6
BRANCH   1   9
ATOM      9  C   UNL     1      12.081   2.877   7.942  0.00  0.00    +0.000 C 
BRANCH   9  10
ATOM     10  C   UNL     1      11.296   3.834   8.872  0.00  0.00    +0.000 C 
ATOM     11  C   UNL     1      10.906   3.135  10.169  0.00  0.00    +0.000 C 
BRANCH  10  12
ATOM     12  O   UNL     1      12.082   4.986   9.207  0.00  0.00    +0.000 OA
ATOM     13  H   UNL     1      11.711   5.379  10.015  0.00  0.00    +0.000 HD
ENDBRANCH  10  12
ENDBRANCH   9  10
ENDBRANCH   1   9
BRANCH   1  14
ATOM     14  C   UNL     1      13.639   4.020   6.354  0.00  0.00    +0.000 C 
BRANCH  14  15
ATOM     15  C   UNL     1      13.402   3.056   5.166  0.00  0.00    +0.000 C 
ATOM     16  C   UNL     1      12.352   3.561   4.184  0.00  0.00    +0.000 C 
BRANCH  15  17
ATOM     17  O   UNL     1      14.605   2.810   4.438  0.00  0.00    +0.000 OA
ATOM     18  H   UNL     1      14.313   2.405   3.597  0.00  0.00    +0.000 HD
ENDBRANCH  15  17
ENDBRANCH  14  15
ENDBRANCH   1  14
TORSDOF 7
ENDMDL
MODEL 7
REMARK VINA RESULT:    -5.101      2.044      4.601
REMARK INTER + INTRA:          -7.346
REMARK INTER:                  -6.981
REMARK INTRA:                  -0.365
REMARK UNBOUND:                -0.455
REMARK  Name = 
REMARK  10 active torsions:
REMARK  status: ('A' for Active; 'I' for Inactive)
REMARK    1  A    between atoms: C_1  and  C_2
REMARK    2  A    between atoms: C_5  and  N_8
REMARK    3  A    between atoms: N_8  and  C_9
REMARK    4  A    between atoms: N_8  and  C_13
REMARK    5  A    between atoms: C_9  and  C_10
REMARK    6  A    between atoms: C_10  and  C_11
REMARK    7  A    between atoms: C_10  and  O_12
REMARK    8  A    between atoms: C_13  and  C_14
REMARK    9  A    between atoms: C_14  and  C_15
REMARK   10  A    between atoms: C_14  and  O_16
REMARK                            x       y       z     vdW  Elec       q    Type
REMARK                         _______ _______ _______ _____ _____    ______ ____
ROOT
ATOM      1  N   UNL     1      12.635   3.807   9.132  0.00  0.00    +0.000 N 
ENDROOT
BRANCH   1   6
ATOM      2  C   UNL     1      11.857   2.731   3.514  0.00  0.00    +0.000 C 
ATOM      3  C   UNL     1      12.075   2.992   4.973  0.00  0.00    +0.000 A 
ATOM      4  C   UNL     1      11.288   2.370   5.936  0.00  0.00    +0.000 A 
ATOM      5  C   UNL     1      11.477   2.641   7.301  0.00  0.00    +0.000 A 
ATOM      6  C   UNL     1      12.438   3.556   7.769  0.00  0.00    +0.000 A 
ATOM      7  C   UNL     1      13.217   4.165   6.768  0.00  0.00    +0.000 A 
ATOM      8  C   UNL     1      13.039   3.901   5.400  0.00  0.00    +0.000 A 
ENDBRANCH   1   6
BRANCH   1   9
ATOM      9  C   UNL     1      12.801   2.679  10.080  0.00  0.00    +0.000 C 
BRANCH   9  10
ATOM     10  C   UNL     1      14.257   2.528  10.584  0.00  0.00    +0.000 C 
ATOM     11  C   UNL     1      14.455   1.190  11.287  0.00  0.00    +0.000 C 
BRANCH  10  12
ATOM     12  O   UNL     1      15.189   2.600   9.496  0.00  0.00    +0.000 OA
ATOM     13  H   UNL     1      16.084   2.653   9.869  0.00  0.00    +0.000 HD
ENDBRANCH  10  12
ENDBRANCH   9  10
ENDBRANCH   1   9
BRANCH   1  14
ATOM     14  C   UNL     1      12.189   5.082   9.752  0.00  0.00    +0.000 C 
BRANCH  14  15
ATOM     15  C   UNL     1      10.927   4.896  10.628  0.00  0.00    +0.000 C 
ATOM     16  C   UNL     1      10.436   6.195  11.256  0.00  0.00    +0.000 C 
BRANCH  15  17
ATOM     17  O   UNL     1       9.849   4.328   9.886  0.00  0.00    +0.000 OA
ATOM     18  H   UNL     1       9.595   5.018   9.241  0.00  0.00    +0.000 HD
ENDBRANCH  15  17
ENDBRANCH  14  15
ENDBRANCH   1  14
TORSDOF 7
ENDMDL
MODEL 8
REMARK VINA RESULT:    -4.923      2.581      4.488
REMARK INTER + INTRA:          -7.105
REMARK INTER:                  -6.859
REMARK INTRA:                  -0.247
REMARK UNBOUND:                -0.455
REMARK  Name = 
REMARK  10 active torsions:
REMARK  status: ('A' for Active; 'I' for Inactive)
REMARK    1  A    between atoms: C_1  and  C_2
REMARK    2  A    between atoms: C_5  and  N_8
REMARK    3  A    between atoms: N_8  and  C_9
REMARK    4  A    between atoms: N_8  and  C_13
REMARK    5  A    between atoms: C_9  and  C_10
REMARK    6  A    between atoms: C_10  and  C_11
REMARK    7  A    between atoms: C_10  and  O_12
REMARK    8  A    between atoms: C_13  and  C_14
REMARK    9  A    between atoms: C_14  and  C_15
REMARK   10  A    between atoms: C_14  and  O_16
REMARK                            x       y       z     vdW  Elec       q    Type
REMARK                         _______ _______ _______ _____ _____    ______ ____
ROOT
ATOM      1  N   UNL     1      11.870   3.612   9.455  0.00  0.00    +0.000 N 
ENDROOT
BRANCH   1   6
ATOM      2  C   UNL     1      14.217   3.324   4.189  0.00  0.00    +0.000 C 
ATOM      3  C   UNL     1      13.614   3.423   5.557  0.00  0.00    +0.000 A 
ATOM      4  C   UNL     1      14.367   3.138   6.691  0.00  0.00    +0.000 A 
ATOM      5  C   UNL     1      13.788   3.203   7.969  0.00  0.00    +0.000 A 
ATOM      6  C   UNL     1      12.436   3.530   8.177  0.00  0.00    +0.000 A 
ATOM      7  C   UNL     1      11.706   3.814   7.008  0.00  0.00    +0.000 A 
ATOM      8  C   UNL     1      12.273   3.755   5.724  0.00  0.00    +0.000 A 
ENDBRANCH   1   6
BRANCH   1   9
ATOM      9  C   UNL     1      10.580   4.316   9.654  0.00  0.00    +0.000 C 
BRANCH   9  10
ATOM     10  C   UNL     1      10.599   5.271  10.873  0.00  0.00    +0.000 C 
ATOM     11  C   UNL     1      11.332   6.565  10.540  0.00  0.00    +0.000 C 
BRANCH  10  12
ATOM     12  O   UNL     1       9.267   5.607  11.284  0.00  0.00    +0.000 OA
ATOM     13  H   UNL     1       9.327   6.297  11.965  0.00  0.00    +0.000 HD
ENDBRANCH  10  12
ENDBRANCH   9  10
ENDBRANCH   1   9
BRANCH   1  14
ATOM     14  C   UNL     1      12.707   3.487  10.676  0.00  0.00    +0.000 C 
BRANCH  14  15
ATOM     15  C   UNL     1      12.642   2.066  11.286  0.00  0.00    +0.000 C 
ATOM     16  C   UNL     1      11.316   1.362  11.025  0.00  0.00    +0.000 C 
BRANCH  15  17
ATOM     17  O   UNL     1      13.690   1.233  10.793  0.00  0.00    +0.000 OA
ATOM     18  H   UNL     1      13.278   0.703  10.081  0.00  0.00    +0.000 HD
ENDBRANCH  15  17
ENDBRANCH  14  15
ENDBRANCH   1  14
TORSDOF 7
ENDMDL
MODEL 9
REMARK VINA RESULT:    -4.597     15.153     16.462
REMARK INTER + INTRA:          -6.665
REMARK INTER:                  -6.215
REMARK INTRA:                  -0.450
REMARK UNBOUND:                -0.455
REMARK  Name = 
REMARK  10 active torsions:
REMARK  status: ('A' for Active; 'I' for Inactive)
REMARK    1  A    between atoms: C_1  and  C_2
REMARK    2  A    between atoms: C_5  and  N_8
REMARK    3  A    between atoms: N_8  and  C_9
REMARK    4  A    between atoms: N_8  and  C_13
REMARK    5  A    between atoms: C_9  and  C_10
REMARK    6  A    between atoms: C_10  and  C_11
REMARK    7  A    between atoms: C_10  and  O_12
REMARK    8  A    between atoms: C_13  and  C_14
REMARK    9  A    between atoms: C_14  and  C_15
REMARK   10  A    between atoms: C_14  and  O_16
REMARK                            x       y       z     vdW  Elec       q    Type
REMARK                         _______ _______ _______ _____ _____    ______ ____
ROOT
ATOM      1  N   UNL     1      20.655  10.023  -4.363  0.00  0.00    +0.000 N 
ENDROOT
BRANCH   1   6
ATOM      2  C   UNL     1      24.647  11.342  -0.406  0.00  0.00    +0.000 C 
ATOM      3  C   UNL     1      23.623  10.978  -1.437  0.00  0.00    +0.000 A 
ATOM      4  C   UNL     1      23.777  11.363  -2.764  0.00  0.00    +0.000 A 
ATOM      5  C   UNL     1      22.799  11.045  -3.721  0.00  0.00    +0.000 A 
ATOM      6  C   UNL     1      21.617  10.354  -3.400  0.00  0.00    +0.000 A 
ATOM      7  C   UNL     1      21.495   9.978  -2.050  0.00  0.00    +0.000 A 
ATOM      8  C   UNL     1      22.467  10.287  -1.083  0.00  0.00    +0.000 A 
ENDBRANCH   1   6
BRANCH   1   9
ATOM      9  C   UNL     1      20.736  10.604  -5.725  0.00  0.00    +0.000 C 
BRANCH   9  10
ATOM     10  C   UNL     1      21.016   9.541  -6.815  0.00  0.00    +0.000 C 
ATOM     11  C   UNL     1      22.132   8.598  -6.384  0.00  0.00    +0.000 C 
BRANCH  10  12
ATOM     12  O   UNL     1      19.846   8.754  -7.078  0.00  0.00    +0.000 OA
ATOM     13  H   UNL     1      19.544   8.372  -6.237  0.00  0.00    +0.000 HD
ENDBRANCH  10  12
ENDBRANCH   9  10
ENDBRANCH   1   9
BRANCH   1  14
ATOM     14  C   UNL     1      19.307   9.541  -3.968  0.00  0.00    +0.000 C 
BRANCH  14  15
ATOM     15  C   UNL     1      18.193  10.548  -4.346  0.00  0.00    +0.000 C 
ATOM     16  C   UNL     1      16.814   9.907  -4.448  0.00  0.00    +0.000 C 
BRANCH  15  17
ATOM     17  O   UNL     1      18.113  11.622  -3.410  0.00  0.00    +0.000 OA
ATOM     18  H   UNL     1      18.233  12.432  -3.944  0.00  0.00    +0.000 HD
ENDBRANCH  15  17
ENDBRANCH  14  15
ENDBRANCH   1  14
TORSDOF 7
ENDMDL
