MODEL 1
REMARK VINA RESULT:    -4.260      0.000      0.000
REMARK INTER + INTRA:          -4.683
REMARK INTER:                  -4.634
REMARK INTRA:                  -0.050
REMARK UNBOUND:                -0.050
REMARK  Name = 
REMARK  3 active torsions:
REMARK  status: ('A' for Active; 'I' for Inactive)
REMARK    1  A    between atoms: C_1  and  O_2
REMARK    2  A    between atoms: O_2  and  C_3
REMARK    3  A    between atoms: C_8  and  O_9
REMARK                            x       y       z     vdW  Elec       q    Type
REMARK                         _______ _______ _______ _____ _____    ______ ____
ROOT
ATOM      1  C   UNL     1      -1.287   0.193  20.891  0.00  0.00    +0.000 A 
ATOM      2  C   UNL     1      -2.364  -0.684  20.768  0.00  0.00    +0.000 A 
ATOM      3  C   UNL     1      -3.028  -0.808  19.541  0.00  0.00    +0.000 A 
ATOM      4  C   UNL     1      -2.620  -0.059  18.436  0.00  0.00    +0.000 A 
ATOM      5  C   UNL     1      -1.544   0.819  18.551  0.00  0.00    +0.000 A 
ATOM      6  C   UNL     1      -0.892   0.937  19.772  0.00  0.00    +0.000 A 
ENDROOT
BRANCH   1   8
ATOM      7  C   UNL     1      -1.276   0.760  23.199  0.00  0.00    +0.000 C 
ATOM      8  O   UNL     1      -0.548   0.416  22.026  0.00  0.00    +0.000 OA
ENDBRANCH   1   8
BRANCH   6   9
ATOM      9  O   UNL     1       0.162   1.806  19.861  0.00  0.00    +0.000 OA
ATOM     10  H   UNL     1       0.388   1.827  20.811  0.00  0.00    +0.000 HD
ENDBRANCH   6   9
TORSDOF 2
ENDMDL
MODEL 2
REMARK VINA RESULT:    -4.237     17.615     18.571
REMARK INTER + INTRA:          -4.658
REMARK INTER:                  -4.619
REMARK INTRA:                  -0.039
REMARK UNBOUND:                -0.050
REMARK  Name = 
REMARK  3 active torsions:
REMARK  status: ('A' for Active; 'I' for Inactive)
REMARK    1  A    between atoms: C_1  and  O_2
REMARK    2  A    between atoms: O_2  and  C_3
REMARK    3  A    between atoms: C_8  and  O_9
REMARK                            x       y       z     vdW  Elec       q    Type
REMARK                         _______ _______ _______ _____ _____    ______ ____
ROOT
ATOM      1  C   UNL     1      10.940   6.678   8.440  0.00  0.00    +0.000 A 
ATOM      2  C   UNL     1      12.103   6.602   7.674  0.00  0.00    +0.000 A 
ATOM      3  C   UNL     1      12.043   6.133   6.355  0.00  0.00    +0.000 A 
ATOM      4  C   UNL     1      10.825   5.739   5.799  0.00  0.00    +0.000 A 
ATOM      5  C   UNL     1       9.659   5.812   6.558  0.00  0.00    +0.000 A 
ATOM      6  C   UNL     1       9.728   6.278   7.865  0.00  0.00    +0.000 A 
ENDROOT
BRANCH   1   8
ATOM      7  C   UNL     1      12.049   7.081  10.502  0.00  0.00    +0.000 C 
ATOM      8  O   UNL     1      10.851   7.115   9.737  0.00  0.00    +0.000 OA
ENDBRANCH   1   8
BRANCH   6   9
ATOM      9  O   UNL     1       8.568   6.341   8.591  0.00  0.00    +0.000 OA
ATOM     10  H   UNL     1       8.029   5.596   8.263  0.00  0.00    +0.000 HD
ENDBRANCH   6   9
TORSDOF 2
ENDMDL
MODEL 3
REMARK VINA RESULT:    -4.196     17.423     18.920
REMARK INTER + INTRA:          -4.613
REMARK INTER:                  -4.568
REMARK INTRA:                  -0.045
REMARK UNBOUND:                -0.050
REMARK  Name = 
REMARK  3 active torsions:
REMARK  status: ('A' for Active; 'I' for Inactive)
REMARK    1  A    between atoms: C_1  and  O_2
REMARK    2  A    between atoms: O_2  and  C_3
REMARK    3  A    between atoms: C_8  and  O_9
REMARK                            x       y       z     vdW  Elec       q    Type
REMARK                         _______ _______ _______ _____ _____    ______ ____
ROOT
ATOM      1  C   UNL     1      11.281   6.592   7.368  0.00  0.00    +0.000 A 
ATOM      2  C   UNL     1      11.020   6.008   6.129  0.00  0.00    +0.000 A 
ATOM      3  C   UNL     1       9.732   5.548   5.829  0.00  0.00    +0.000 A 
ATOM      4  C   UNL     1       8.702   5.669   6.764  0.00  0.00    +0.000 A 
ATOM      5  C   UNL     1       8.954   6.251   8.004  0.00  0.00    +0.000 A 
ATOM      6  C   UNL     1      10.235   6.705   8.292  0.00  0.00    +0.000 A 
ENDROOT
BRANCH   1   8
ATOM      7  C   UNL     1      12.910   8.316   7.223  0.00  0.00    +0.000 C 
ATOM      8  O   UNL     1      12.488   7.084   7.795  0.00  0.00    +0.000 OA
ENDBRANCH   1   8
BRANCH   6   9
ATOM      9  O   UNL     1      10.459   7.273   9.518  0.00  0.00    +0.000 OA
ATOM     10  H   UNL     1       9.584   7.598   9.804  0.00  0.00    +0.000 HD
ENDBRANCH   6   9
TORSDOF 2
ENDMDL
MODEL 4
REMARK VINA RESULT:    -4.151     18.476     20.063
REMARK INTER + INTRA:          -4.565
REMARK INTER:                  -4.519
REMARK INTRA:                  -0.046
REMARK UNBOUND:                -0.050
REMARK  Name = 
REMARK  3 active torsions:
REMARK  status: ('A' for Active; 'I' for Inactive)
REMARK    1  A    between atoms: C_1  and  O_2
REMARK    2  A    between atoms: O_2  and  C_3
REMARK    3  A    between atoms: C_8  and  O_9
REMARK                            x       y       z     vdW  Elec       q    Type
REMARK                         _______ _______ _______ _____ _____    ______ ____
ROOT
ATOM      1  C   UNL     1      11.711   6.668   6.199  0.00  0.00    +0.000 A 
ATOM      2  C   UNL     1      12.284   7.373   7.256  0.00  0.00    +0.000 A 
ATOM      3  C   UNL     1      11.670   7.367   8.515  0.00  0.00    +0.000 A 
ATOM      4  C   UNL     1      10.484   6.658   8.721  0.00  0.00    +0.000 A 
ATOM      5  C   UNL     1       9.906   5.951   7.669  0.00  0.00    +0.000 A 
ATOM      6  C   UNL     1      10.522   5.964   6.424  0.00  0.00    +0.000 A 
ENDROOT
BRANCH   1   8
ATOM      7  C   UNL     1      12.634   7.806   4.328  0.00  0.00    +0.000 C 
ATOM      8  O   UNL     1      12.199   6.587   4.919  0.00  0.00    +0.000 OA
ENDBRANCH   1   8
BRANCH   6   9
ATOM      9  O   UNL     1       9.934   5.262   5.406  0.00  0.00    +0.000 OA
ATOM     10  H   UNL     1      10.451   5.497   4.612  0.00  0.00    +0.000 HD
ENDBRANCH   6   9
TORSDOF 2
ENDMDL
MODEL 5
REMARK VINA RESULT:    -4.144     18.019     19.368
REMARK INTER + INTRA:          -4.556
REMARK INTER:                  -4.504
REMARK INTRA:                  -0.053
REMARK UNBOUND:                -0.050
REMARK  Name = 
REMARK  3 active torsions:
REMARK  status: ('A' for Active; 'I' for Inactive)
REMARK    1  A    between atoms: C_1  and  O_2
REMARK    2  A    between atoms: O_2  and  C_3
REMARK    3  A    between atoms: C_8  and  O_9
REMARK                            x       y       z     vdW  Elec       q    Type
REMARK                         _______ _______ _______ _____ _____    ______ ____
ROOT
ATOM      1  C   UNL     1      11.375   6.695   7.243  0.00  0.00    +0.000 A 
ATOM      2  C   UNL     1      10.518   6.686   8.342  0.00  0.00    +0.000 A 
ATOM      3  C   UNL     1       9.202   6.228   8.200  0.00  0.00    +0.000 A 
ATOM      4  C   UNL     1       8.739   5.779   6.962  0.00  0.00    +0.000 A 
ATOM      5  C   UNL     1       9.589   5.784   5.859  0.00  0.00    +0.000 A 
ATOM      6  C   UNL     1      10.893   6.240   6.009  0.00  0.00    +0.000 A 
ENDROOT
BRANCH   1   8
ATOM      7  C   UNL     1      12.903   8.501   7.462  0.00  0.00    +0.000 C 
ATOM      8  O   UNL     1      12.681   7.115   7.236  0.00  0.00    +0.000 OA
ENDBRANCH   1   8
BRANCH   6   9
ATOM      9  O   UNL     1      11.710   6.236   4.910  0.00  0.00    +0.000 OA
ATOM     10  H   UNL     1      11.561   5.366   4.493  0.00  0.00    +0.000 HD
ENDBRANCH   6   9
TORSDOF 2
ENDMDL
MODEL 6
REMARK VINA RESULT:    -4.110      2.136      2.831
REMARK INTER + INTRA:          -4.520
REMARK INTER:                  -4.472
REMARK INTRA:                  -0.048
REMARK UNBOUND:                -0.050
REMARK  Name = 
REMARK  3 active torsions:
REMARK  status: ('A' for Active; 'I' for Inactive)
REMARK    1  A    between atoms: C_1  and  O_2
REMARK    2  A    between atoms: O_2  and  C_3
REMARK    3  A    between atoms: C_8  and  O_9
REMARK                            x       y       z     vdW  Elec       q    Type
REMARK                         _______ _______ _______ _____ _____    ______ ____
ROOT
ATOM      1  C   UNL     1      -0.830  -0.818  20.327  0.00  0.00    +0.000 A 
ATOM      2  C   UNL     1      -0.613   0.554  20.443  0.00  0.00    +0.000 A 
ATOM      3  C   UNL     1      -1.208   1.436  19.532  0.00  0.00    +0.000 A 
ATOM      4  C   UNL     1      -2.019   0.951  18.504  0.00  0.00    +0.000 A 
ATOM      5  C   UNL     1      -2.241  -0.418  18.382  0.00  0.00    +0.000 A 
ATOM      6  C   UNL     1      -1.646  -1.286  19.290  0.00  0.00    +0.000 A 
ENDROOT
BRANCH   1   8
ATOM      7  C   UNL     1       1.076  -2.064  21.006  0.00  0.00    +0.000 C 
ATOM      8  O   UNL     1      -0.314  -1.793  21.143  0.00  0.00    +0.000 OA
ENDBRANCH   1   8
BRANCH   6   9
ATOM      9  O   UNL     1      -1.879  -2.628  19.149  0.00  0.00    +0.000 OA
ATOM     10  H   UNL     1      -2.693  -2.684  18.613  0.00  0.00    +0.000 HD
ENDBRANCH   6   9
TORSDOF 2
ENDMDL
MODEL 7
REMARK VINA RESULT:    -4.084      2.330      3.836
REMARK INTER + INTRA:          -4.492
REMARK INTER:                  -4.440
REMARK INTRA:                  -0.052
REMARK UNBOUND:                -0.050
REMARK  Name = 
REMARK  3 active torsions:
REMARK  status: ('A' for Active; 'I' for Inactive)
REMARK    1  A    between atoms: C_1  and  O_2
REMARK    2  A    between atoms: O_2  and  C_3
REMARK    3  A    between atoms: C_8  and  O_9
REMARK                            x       y       z     vdW  Elec       q    Type
REMARK                         _______ _______ _______ _____ _____    ______ ____
ROOT
ATOM      1  C   UNL     1      -1.884   0.261  18.643  0.00  0.00    +0.000 A 
ATOM      2  C   UNL     1      -1.494   1.504  19.140  0.00  0.00    +0.000 A 
ATOM      3  C   UNL     1      -0.711   1.580  20.298  0.00  0.00    +0.000 A 
ATOM      4  C   UNL     1      -0.317   0.418  20.964  0.00  0.00    +0.000 A 
ATOM      5  C   UNL     1      -0.703  -0.828  20.474  0.00  0.00    +0.000 A 
ATOM      6  C   UNL     1      -1.480  -0.894  19.324  0.00  0.00    +0.000 A 
ENDROOT
BRANCH   1   8
ATOM      7  C   UNL     1      -4.012   0.432  17.600  0.00  0.00    +0.000 C 
ATOM      8  O   UNL     1      -2.647   0.037  17.526  0.00  0.00    +0.000 OA
ENDBRANCH   1   8
BRANCH   6   9
ATOM      9  O   UNL     1      -1.846  -2.130  18.862  0.00  0.00    +0.000 OA
ATOM     10  H   UNL     1      -1.572  -2.749  19.565  0.00  0.00    +0.000 HD
ENDBRANCH   6   9
TORSDOF 2
ENDMDL
MODEL 8
REMARK VINA RESULT:    -4.065     24.106     25.288
REMARK INTER + INTRA:          -4.471
REMARK INTER:                  -4.419
REMARK INTRA:                  -0.052
REMARK UNBOUND:                -0.050
REMARK  Name = 
REMARK  3 active torsions:
REMARK  status: ('A' for Active; 'I' for Inactive)
REMARK    1  A    between atoms: C_1  and  O_2
REMARK    2  A    between atoms: O_2  and  C_3
REMARK    3  A    between atoms: C_8  and  O_9
REMARK                            x       y       z     vdW  Elec       q    Type
REMARK                         _______ _______ _______ _____ _____    ______ ____
ROOT
ATOM      1  C   UNL     1      16.021   5.406   2.977  0.00  0.00    +0.000 A 
ATOM      2  C   UNL     1      17.254   5.158   2.377  0.00  0.00    +0.000 A 
ATOM      3  C   UNL     1      17.536   3.888   1.857  0.00  0.00    +0.000 A 
ATOM      4  C   UNL     1      16.590   2.864   1.936  0.00  0.00    +0.000 A 
ATOM      5  C   UNL     1      15.356   3.105   2.534  0.00  0.00    +0.000 A 
ATOM      6  C   UNL     1      15.085   4.367   3.048  0.00  0.00    +0.000 A 
ENDROOT
BRANCH   1   8
ATOM      7  C   UNL     1      15.378   7.665   2.620  0.00  0.00    +0.000 C 
ATOM      8  O   UNL     1      15.611   6.594   3.527  0.00  0.00    +0.000 OA
ENDBRANCH   1   8
BRANCH   6   9
ATOM      9  O   UNL     1      13.864   4.579   3.631  0.00  0.00    +0.000 OA
ATOM     10  H   UNL     1      13.782   3.872   4.300  0.00  0.00    +0.000 HD
ENDBRANCH   6   9
TORSDOF 2
ENDMDL
MODEL 9
REMARK VINA RESULT:    -3.838     18.359     19.821
REMARK INTER + INTRA:          -4.224
REMARK INTER:                  -4.181
REMARK INTRA:                  -0.043
REMARK UNBOUND:                -0.050
REMARK  Name = 
REMARK  3 active torsions:
REMARK  status: ('A' for Active; 'I' for Inactive)
REMARK    1  A    between atoms: C_1  and  O_2
REMARK    2  A    between atoms: O_2  and  C_3
REMARK    3  A    between atoms: C_8  and  O_9
REMARK                            x       y       z     vdW  Elec       q    Type
REMARK                         _______ _______ _______ _____ _____    ______ ____
ROOT
ATOM      1  C   UNL     1      10.846   5.851   6.655  0.00  0.00    +0.000 A 
ATOM      2  C   UNL     1      11.390   5.117   7.708  0.00  0.00    +0.000 A 
ATOM      3  C   UNL     1      12.755   5.223   8.003  0.00  0.00    +0.000 A 
ATOM      4  C   UNL     1      13.579   6.060   7.249  0.00  0.00    +0.000 A 
ATOM      5  C   UNL     1      13.043   6.798   6.196  0.00  0.00    +0.000 A 
ATOM      6  C   UNL     1      11.688   6.686   5.910  0.00  0.00    +0.000 A 
ENDROOT
BRANCH   1   8
ATOM      7  C   UNL     1       8.557   5.734   7.282  0.00  0.00    +0.000 C 
ATOM      8  O   UNL     1       9.534   5.845   6.254  0.00  0.00    +0.000 OA
ENDBRANCH   1   8
BRANCH   6   9
ATOM      9  O   UNL     1      11.184   7.420   4.870  0.00  0.00    +0.000 OA
ATOM     10  H   UNL     1      11.956   7.891   4.502  0.00  0.00    +0.000 HD
ENDBRANCH   6   9
TORSDOF 2
ENDMDL
