MODEL 1
REMARK VINA RESULT:    -3.921      0.000      0.000
REMARK INTER + INTRA:          -4.302
REMARK INTER:                  -4.265
REMARK INTRA:                  -0.037
REMARK UNBOUND:                -0.037
REMARK  Name = 
REMARK  3 active torsions:
REMARK  status: ('A' for Active; 'I' for Inactive)
REMARK    1  A    between atoms: C_1  and  O_2
REMARK    2  A    between atoms: O_2  and  C_3
REMARK    3  A    between atoms: C_8  and  O_9
REMARK                            x       y       z     vdW  Elec       q    Type
REMARK                         _______ _______ _______ _____ _____    ______ ____
ROOT
ATOM      1  C   UNL     1       7.810  13.342   3.132  0.00  0.00    +0.000 A 
ATOM      2  C   UNL     1       6.423  13.337   2.987  0.00  0.00    +0.000 A 
ATOM      3  C   UNL     1       5.845  13.742   1.777  0.00  0.00    +0.000 A 
ATOM      4  C   UNL     1       6.649  14.152   0.711  0.00  0.00    +0.000 A 
ATOM      5  C   UNL     1       8.035  14.159   0.849  0.00  0.00    +0.000 A 
ATOM      6  C   UNL     1       8.599  13.756   2.053  0.00  0.00    +0.000 A 
ENDROOT
BRANCH   1   8
ATOM      7  C   UNL     1       7.738  12.529   5.364  0.00  0.00    +0.000 C 
ATOM      8  O   UNL     1       8.509  12.974   4.254  0.00  0.00    +0.000 OA
ENDBRANCH   1   8
BRANCH   6   9
ATOM      9  O   UNL     1       9.964  13.772   2.164  0.00  0.00    +0.000 OA
ATOM     10  H   UNL     1      10.146  13.388   3.043  0.00  0.00    +0.000 HD
ENDBRANCH   6   9
TORSDOF 2
ENDMDL
MODEL 2
REMARK VINA RESULT:    -3.880      2.248      3.814
REMARK INTER + INTRA:          -4.258
REMARK INTER:                  -4.215
REMARK INTRA:                  -0.043
REMARK UNBOUND:                -0.037
REMARK  Name = 
REMARK  3 active torsions:
REMARK  status: ('A' for Active; 'I' for Inactive)
REMARK    1  A    between atoms: C_1  and  O_2
REMARK    2  A    between atoms: O_2  and  C_3
REMARK    3  A    between atoms: C_8  and  O_9
REMARK                            x       y       z     vdW  Elec       q    Type
REMARK                         _______ _______ _______ _____ _____    ______ ____
ROOT
ATOM      1  C   UNL     1       6.262  14.701   0.725  0.00  0.00    +0.000 A 
ATOM      2  C   UNL     1       5.366  15.009   1.748  0.00  0.00    +0.000 A 
ATOM      3  C   UNL     1       5.427  14.317   2.964  0.00  0.00    +0.000 A 
ATOM      4  C   UNL     1       6.381  13.317   3.162  0.00  0.00    +0.000 A 
ATOM      5  C   UNL     1       7.280  13.003   2.145  0.00  0.00    +0.000 A 
ATOM      6  C   UNL     1       7.211  13.695   0.942  0.00  0.00    +0.000 A 
ENDROOT
BRANCH   1   8
ATOM      7  C   UNL     1       5.073  15.672  -1.089  0.00  0.00    +0.000 C 
ATOM      8  O   UNL     1       6.316  15.294  -0.511  0.00  0.00    +0.000 OA
ENDBRANCH   1   8
BRANCH   6   9
ATOM      9  O   UNL     1       8.105  13.369  -0.043  0.00  0.00    +0.000 OA
ATOM     10  H   UNL     1       7.659  12.675  -0.564  0.00  0.00    +0.000 HD
ENDBRANCH   6   9
TORSDOF 2
ENDMDL
MODEL 3
REMARK VINA RESULT:    -3.758      1.399      2.432
REMARK INTER + INTRA:          -4.125
REMARK INTER:                  -4.073
REMARK INTRA:                  -0.052
REMARK UNBOUND:                -0.037
REMARK  Name = 
REMARK  3 active torsions:
REMARK  status: ('A' for Active; 'I' for Inactive)
REMARK    1  A    between atoms: C_1  and  O_2
REMARK    2  A    between atoms: O_2  and  C_3
REMARK    3  A    between atoms: C_8  and  O_9
REMARK                            x       y       z     vdW  Elec       q    Type
REMARK                         _______ _______ _______ _____ _____    ______ ____
ROOT
ATOM      1  C   UNL     1       7.502  13.362   2.501  0.00  0.00    +0.000 A 
ATOM      2  C   UNL     1       8.366  13.814   1.505  0.00  0.00    +0.000 A 
ATOM      3  C   UNL     1       7.854  14.467   0.377  0.00  0.00    +0.000 A 
ATOM      4  C   UNL     1       6.479  14.671   0.241  0.00  0.00    +0.000 A 
ATOM      5  C   UNL     1       5.609  14.223   1.233  0.00  0.00    +0.000 A 
ATOM      6  C   UNL     1       6.127  13.575   2.347  0.00  0.00    +0.000 A 
ENDROOT
BRANCH   1   8
ATOM      7  C   UNL     1       8.749  13.401   4.524  0.00  0.00    +0.000 C 
ATOM      8  O   UNL     1       7.862  12.709   3.653  0.00  0.00    +0.000 OA
ENDBRANCH   1   8
BRANCH   6   9
ATOM      9  O   UNL     1       5.252  13.144   3.308  0.00  0.00    +0.000 OA
ATOM     10  H   UNL     1       4.375  13.437   2.995  0.00  0.00    +0.000 HD
ENDBRANCH   6   9
TORSDOF 2
ENDMDL
MODEL 4
REMARK VINA RESULT:    -3.699      7.795      9.472
REMARK INTER + INTRA:          -4.060
REMARK INTER:                  -4.009
REMARK INTRA:                  -0.051
REMARK UNBOUND:                -0.037
REMARK  Name = 
REMARK  3 active torsions:
REMARK  status: ('A' for Active; 'I' for Inactive)
REMARK    1  A    between atoms: C_1  and  O_2
REMARK    2  A    between atoms: O_2  and  C_3
REMARK    3  A    between atoms: C_8  and  O_9
REMARK                            x       y       z     vdW  Elec       q    Type
REMARK                         _______ _______ _______ _____ _____    ______ ____
ROOT
ATOM      1  C   UNL     1       6.787  19.903  -4.175  0.00  0.00    +0.000 A 
ATOM      2  C   UNL     1       6.803  21.166  -3.583  0.00  0.00    +0.000 A 
ATOM      3  C   UNL     1       7.038  21.290  -2.207  0.00  0.00    +0.000 A 
ATOM      4  C   UNL     1       7.254  20.157  -1.421  0.00  0.00    +0.000 A 
ATOM      5  C   UNL     1       7.240  18.893  -2.005  0.00  0.00    +0.000 A 
ATOM      6  C   UNL     1       7.006  18.779  -3.370  0.00  0.00    +0.000 A 
ENDROOT
BRANCH   1   8
ATOM      7  C   UNL     1       7.465  20.239  -6.427  0.00  0.00    +0.000 C 
ATOM      8  O   UNL     1       6.570  19.633  -5.502  0.00  0.00    +0.000 OA
ENDBRANCH   1   8
BRANCH   6   9
ATOM      9  O   UNL     1       6.997  17.525  -3.921  0.00  0.00    +0.000 OA
ATOM     10  H   UNL     1       7.298  16.936  -3.204  0.00  0.00    +0.000 HD
ENDBRANCH   6   9
TORSDOF 2
ENDMDL
MODEL 5
REMARK VINA RESULT:    -3.691      1.791      2.208
REMARK INTER + INTRA:          -4.052
REMARK INTER:                  -4.000
REMARK INTRA:                  -0.053
REMARK UNBOUND:                -0.037
REMARK  Name = 
REMARK  3 active torsions:
REMARK  status: ('A' for Active; 'I' for Inactive)
REMARK    1  A    between atoms: C_1  and  O_2
REMARK    2  A    between atoms: O_2  and  C_3
REMARK    3  A    between atoms: C_8  and  O_9
REMARK                            x       y       z     vdW  Elec       q    Type
REMARK                         _______ _______ _______ _____ _____    ______ ____
ROOT
ATOM      1  C   UNL     1       6.560  13.864   1.651  0.00  0.00    +0.000 A 
ATOM      2  C   UNL     1       5.557  14.723   2.096  0.00  0.00    +0.000 A 
ATOM      3  C   UNL     1       5.208  15.845   1.334  0.00  0.00    +0.000 A 
ATOM      4  C   UNL     1       5.860  16.112   0.128  0.00  0.00    +0.000 A 
ATOM      5  C   UNL     1       6.863  15.258  -0.323  0.00  0.00    +0.000 A 
ATOM      6  C   UNL     1       7.202  14.147   0.440  0.00  0.00    +0.000 A 
ENDROOT
BRANCH   1   8
ATOM      7  C   UNL     1       7.698  12.931   3.517  0.00  0.00    +0.000 C 
ATOM      8  O   UNL     1       7.003  12.734   2.292  0.00  0.00    +0.000 OA
ENDBRANCH   1   8
BRANCH   6   9
ATOM      9  O   UNL     1       8.192  13.322  -0.024  0.00  0.00    +0.000 OA
ATOM     10  H   UNL     1       9.006  13.858   0.027  0.00  0.00    +0.000 HD
ENDBRANCH   6   9
TORSDOF 2
ENDMDL
MODEL 6
REMARK VINA RESULT:    -3.686      7.025      8.278
REMARK INTER + INTRA:          -4.047
REMARK INTER:                  -4.004
REMARK INTRA:                  -0.043
REMARK UNBOUND:                -0.037
REMARK  Name = 
REMARK  3 active torsions:
REMARK  status: ('A' for Active; 'I' for Inactive)
REMARK    1  A    between atoms: C_1  and  O_2
REMARK    2  A    between atoms: O_2  and  C_3
REMARK    3  A    between atoms: C_8  and  O_9
REMARK                            x       y       z     vdW  Elec       q    Type
REMARK                         _______ _______ _______ _____ _____    ______ ____
ROOT
ATOM      1  C   UNL     1       7.061  19.164  -2.499  0.00  0.00    +0.000 A 
ATOM      2  C   UNL     1       7.005  20.557  -2.476  0.00  0.00    +0.000 A 
ATOM      3  C   UNL     1       6.826  21.269  -3.669  0.00  0.00    +0.000 A 
ATOM      4  C   UNL     1       6.703  20.594  -4.885  0.00  0.00    +0.000 A 
ATOM      5  C   UNL     1       6.758  19.203  -4.915  0.00  0.00    +0.000 A 
ATOM      6  C   UNL     1       6.936  18.504  -3.728  0.00  0.00    +0.000 A 
ENDROOT
BRANCH   1   8
ATOM      7  C   UNL     1       6.598  18.744  -0.206  0.00  0.00    +0.000 C 
ATOM      8  O   UNL     1       7.232  18.341  -1.414  0.00  0.00    +0.000 OA
ENDBRANCH   1   8
BRANCH   6   9
ATOM      9  O   UNL     1       6.987  17.137  -3.783  0.00  0.00    +0.000 OA
ATOM     10  H   UNL     1       7.329  16.866  -2.910  0.00  0.00    +0.000 HD
ENDBRANCH   6   9
TORSDOF 2
ENDMDL
MODEL 7
REMARK VINA RESULT:    -3.507      8.135      9.493
REMARK INTER + INTRA:          -3.852
REMARK INTER:                  -3.813
REMARK INTRA:                  -0.039
REMARK UNBOUND:                -0.037
REMARK  Name = 
REMARK  3 active torsions:
REMARK  status: ('A' for Active; 'I' for Inactive)
REMARK    1  A    between atoms: C_1  and  O_2
REMARK    2  A    between atoms: O_2  and  C_3
REMARK    3  A    between atoms: C_8  and  O_9
REMARK                            x       y       z     vdW  Elec       q    Type
REMARK                         _______ _______ _______ _____ _____    ______ ____
ROOT
ATOM      1  C   UNL     1       7.402  19.412  -3.757  0.00  0.00    +0.000 A 
ATOM      2  C   UNL     1       8.506  20.263  -3.754  0.00  0.00    +0.000 A 
ATOM      3  C   UNL     1       8.865  20.947  -4.923  0.00  0.00    +0.000 A 
ATOM      4  C   UNL     1       8.124  20.783  -6.095  0.00  0.00    +0.000 A 
ATOM      5  C   UNL     1       7.019  19.934  -6.105  0.00  0.00    +0.000 A 
ATOM      6  C   UNL     1       6.671  19.260  -4.942  0.00  0.00    +0.000 A 
ENDROOT
BRANCH   1   8
ATOM      7  C   UNL     1       7.312  19.140  -1.398  0.00  0.00    +0.000 C 
ATOM      8  O   UNL     1       6.938  18.682  -2.692  0.00  0.00    +0.000 OA
ENDBRANCH   1   8
BRANCH   6   9
ATOM      9  O   UNL     1       5.581  18.432  -4.976  0.00  0.00    +0.000 OA
ATOM     10  H   UNL     1       5.284  18.451  -5.906  0.00  0.00    +0.000 HD
ENDBRANCH   6   9
TORSDOF 2
ENDMDL
MODEL 8
REMARK VINA RESULT:    -3.484      5.693      6.933
REMARK INTER + INTRA:          -3.827
REMARK INTER:                  -3.780
REMARK INTRA:                  -0.047
REMARK UNBOUND:                -0.037
REMARK  Name = 
REMARK  3 active torsions:
REMARK  status: ('A' for Active; 'I' for Inactive)
REMARK    1  A    between atoms: C_1  and  O_2
REMARK    2  A    between atoms: O_2  and  C_3
REMARK    3  A    between atoms: C_8  and  O_9
REMARK                            x       y       z     vdW  Elec       q    Type
REMARK                         _______ _______ _______ _____ _____    ______ ____
ROOT
ATOM      1  C   UNL     1       6.443  17.598  -1.658  0.00  0.00    +0.000 A 
ATOM      2  C   UNL     1       6.418  18.307  -0.458  0.00  0.00    +0.000 A 
ATOM      3  C   UNL     1       6.845  19.641  -0.425  0.00  0.00    +0.000 A 
ATOM      4  C   UNL     1       7.298  20.268  -1.587  0.00  0.00    +0.000 A 
ATOM      5  C   UNL     1       7.325  19.566  -2.790  0.00  0.00    +0.000 A 
ATOM      6  C   UNL     1       6.900  18.244  -2.814  0.00  0.00    +0.000 A 
ENDROOT
BRANCH   1   8
ATOM      7  C   UNL     1       4.818  15.912  -1.254  0.00  0.00    +0.000 C 
ATOM      8  O   UNL     1       6.057  16.294  -1.838  0.00  0.00    +0.000 OA
ENDBRANCH   1   8
BRANCH   6   9
ATOM      9  O   UNL     1       6.937  17.574  -4.008  0.00  0.00    +0.000 OA
ATOM     10  H   UNL     1       7.554  18.089  -4.562  0.00  0.00    +0.000 HD
ENDBRANCH   6   9
TORSDOF 2
ENDMDL
MODEL 9
REMARK VINA RESULT:    -3.389      2.932      4.499
REMARK INTER + INTRA:          -3.724
REMARK INTER:                  -3.677
REMARK INTRA:                  -0.047
REMARK UNBOUND:                -0.037
REMARK  Name = 
REMARK  3 active torsions:
REMARK  status: ('A' for Active; 'I' for Inactive)
REMARK    1  A    between atoms: C_1  and  O_2
REMARK    2  A    between atoms: O_2  and  C_3
REMARK    3  A    between atoms: C_8  and  O_9
REMARK                            x       y       z     vdW  Elec       q    Type
REMARK                         _______ _______ _______ _____ _____    ______ ____
ROOT
ATOM      1  C   UNL     1       5.474  15.205   1.289  0.00  0.00    +0.000 A 
ATOM      2  C   UNL     1       5.097  16.469   1.741  0.00  0.00    +0.000 A 
ATOM      3  C   UNL     1       4.711  16.648   3.075  0.00  0.00    +0.000 A 
ATOM      4  C   UNL     1       4.699  15.568   3.960  0.00  0.00    +0.000 A 
ATOM      5  C   UNL     1       5.075  14.302   3.516  0.00  0.00    +0.000 A 
ATOM      6  C   UNL     1       5.457  14.134   2.191  0.00  0.00    +0.000 A 
ENDROOT
BRANCH   1   8
ATOM      7  C   UNL     1       5.073  15.392  -1.046  0.00  0.00    +0.000 C 
ATOM      8  O   UNL     1       5.873  14.885   0.016  0.00  0.00    +0.000 OA
ENDBRANCH   1   8
BRANCH   6   9
ATOM      9  O   UNL     1       5.822  12.880   1.778  0.00  0.00    +0.000 OA
ATOM     10  H   UNL     1       6.762  12.966   1.527  0.00  0.00    +0.000 HD
ENDBRANCH   6   9
TORSDOF 2
ENDMDL
