MODEL 1
REMARK VINA RESULT:    -3.651      0.000      0.000
REMARK INTER + INTRA:          -3.966
REMARK INTER:                  -3.971
REMARK INTRA:                   0.005
REMARK UNBOUND:                 0.005
REMARK  Name = 
REMARK  3 active torsions:
REMARK  status: ('A' for Active; 'I' for Inactive)
REMARK    1  A    between atoms: C_1  and  O_2
REMARK    2  A    between atoms: O_2  and  C_3
REMARK    3  A    between atoms: C_8  and  O_9
REMARK                            x       y       z     vdW  Elec       q    Type
REMARK                         _______ _______ _______ _____ _____    ______ ____
ROOT
ATOM      1  C   UNL     1       4.675  13.912   3.132  0.00  0.00    +0.000 A 
ATOM      2  C   UNL     1       4.369  14.065   4.484  0.00  0.00    +0.000 A 
ATOM      3  C   UNL     1       4.995  15.068   5.234  0.00  0.00    +0.000 A 
ATOM      4  C   UNL     1       5.928  15.919   4.638  0.00  0.00    +0.000 A 
ATOM      5  C   UNL     1       6.239  15.773   3.288  0.00  0.00    +0.000 A 
ATOM      6  C   UNL     1       5.613  14.775   2.552  0.00  0.00    +0.000 A 
ENDROOT
BRANCH   1   8
ATOM      7  C   UNL     1       4.755  11.693   2.284  0.00  0.00    +0.000 C 
ATOM      8  O   UNL     1       4.142  12.977   2.281  0.00  0.00    +0.000 OA
ENDBRANCH   1   8
BRANCH   6   9
ATOM      9  O   UNL     1       5.935  14.650   1.227  0.00  0.00    +0.000 OA
ATOM     10  H   UNL     1       6.379  15.489   0.999  0.00  0.00    +0.000 HD
ENDBRANCH   6   9
TORSDOF 2
ENDMDL
MODEL 2
REMARK VINA RESULT:    -3.490      4.470      5.770
REMARK INTER + INTRA:          -3.791
REMARK INTER:                  -3.753
REMARK INTRA:                  -0.037
REMARK UNBOUND:                 0.005
REMARK  Name = 
REMARK  3 active torsions:
REMARK  status: ('A' for Active; 'I' for Inactive)
REMARK    1  A    between atoms: C_1  and  O_2
REMARK    2  A    between atoms: O_2  and  C_3
REMARK    3  A    between atoms: C_8  and  O_9
REMARK                            x       y       z     vdW  Elec       q    Type
REMARK                         _______ _______ _______ _____ _____    ______ ____
ROOT
ATOM      1  C   UNL     1       2.967  14.042   7.201  0.00  0.00    +0.000 A 
ATOM      2  C   UNL     1       1.767  14.750   7.218  0.00  0.00    +0.000 A 
ATOM      3  C   UNL     1       0.954  14.723   8.359  0.00  0.00    +0.000 A 
ATOM      4  C   UNL     1       1.337  13.990   9.483  0.00  0.00    +0.000 A 
ATOM      5  C   UNL     1       2.536  13.280   9.474  0.00  0.00    +0.000 A 
ATOM      6  C   UNL     1       3.335  13.312   8.339  0.00  0.00    +0.000 A 
ENDROOT
BRANCH   1   8
ATOM      7  C   UNL     1       3.598  14.831   5.051  0.00  0.00    +0.000 C 
ATOM      8  O   UNL     1       3.857  13.977   6.159  0.00  0.00    +0.000 OA
ENDBRANCH   1   8
BRANCH   6   9
ATOM      9  O   UNL     1       4.508  12.606   8.354  0.00  0.00    +0.000 OA
ATOM     10  H   UNL     1       5.145  13.172   7.876  0.00  0.00    +0.000 HD
ENDBRANCH   6   9
TORSDOF 2
ENDMDL
MODEL 3
REMARK VINA RESULT:    -3.481      6.439      6.843
REMARK INTER + INTRA:          -3.782
REMARK INTER:                  -3.731
REMARK INTRA:                  -0.051
REMARK UNBOUND:                 0.005
REMARK  Name = 
REMARK  3 active torsions:
REMARK  status: ('A' for Active; 'I' for Inactive)
REMARK    1  A    between atoms: C_1  and  O_2
REMARK    2  A    between atoms: O_2  and  C_3
REMARK    3  A    between atoms: C_8  and  O_9
REMARK                            x       y       z     vdW  Elec       q    Type
REMARK                         _______ _______ _______ _____ _____    ______ ____
ROOT
ATOM      1  C   UNL     1      -0.044  15.605  -0.946  0.00  0.00    +0.000 A 
ATOM      2  C   UNL     1      -0.532  16.782  -0.379  0.00  0.00    +0.000 A 
ATOM      3  C   UNL     1       0.277  17.924  -0.334  0.00  0.00    +0.000 A 
ATOM      4  C   UNL     1       1.573  17.895  -0.853  0.00  0.00    +0.000 A 
ATOM      5  C   UNL     1       2.067  16.723  -1.422  0.00  0.00    +0.000 A 
ATOM      6  C   UNL     1       1.257  15.595  -1.462  0.00  0.00    +0.000 A 
ENDROOT
BRANCH   1   8
ATOM      7  C   UNL     1      -1.941  14.447  -1.790  0.00  0.00    +0.000 C 
ATOM      8  O   UNL     1      -0.721  14.417  -1.057  0.00  0.00    +0.000 OA
ENDBRANCH   1   8
BRANCH   6   9
ATOM      9  O   UNL     1       1.765  14.455  -2.026  0.00  0.00    +0.000 OA
ATOM     10  H   UNL     1       1.767  13.799  -1.303  0.00  0.00    +0.000 HD
ENDBRANCH   6   9
TORSDOF 2
ENDMDL
MODEL 4
REMARK VINA RESULT:    -3.428      6.061      6.944
REMARK INTER + INTRA:          -3.724
REMARK INTER:                  -3.677
REMARK INTRA:                  -0.047
REMARK UNBOUND:                 0.005
REMARK  Name = 
REMARK  3 active torsions:
REMARK  status: ('A' for Active; 'I' for Inactive)
REMARK    1  A    between atoms: C_1  and  O_2
REMARK    2  A    between atoms: O_2  and  C_3
REMARK    3  A    between atoms: C_8  and  O_9
REMARK                            x       y       z     vdW  Elec       q    Type
REMARK                         _______ _______ _______ _____ _____    ______ ____
ROOT
ATOM      1  C   UNL     1       1.340  16.625  -1.237  0.00  0.00    +0.000 A 
ATOM      2  C   UNL     1       0.449  17.488  -0.601  0.00  0.00    +0.000 A 
ATOM      3  C   UNL     1      -0.796  17.014  -0.169  0.00  0.00    +0.000 A 
ATOM      4  C   UNL     1      -1.154  15.680  -0.370  0.00  0.00    +0.000 A 
ATOM      5  C   UNL     1      -0.268  14.811  -1.003  0.00  0.00    +0.000 A 
ATOM      6  C   UNL     1       0.964  15.290  -1.429  0.00  0.00    +0.000 A 
ENDROOT
BRANCH   1   8
ATOM      7  C   UNL     1       3.600  17.162  -0.736  0.00  0.00    +0.000 C 
ATOM      8  O   UNL     1       2.586  16.950  -1.711  0.00  0.00    +0.000 OA
ENDBRANCH   1   8
BRANCH   6   9
ATOM      9  O   UNL     1       1.817  14.417  -2.050  0.00  0.00    +0.000 OA
ATOM     10  H   UNL     1       2.110  14.886  -2.855  0.00  0.00    +0.000 HD
ENDBRANCH   6   9
TORSDOF 2
ENDMDL
MODEL 5
REMARK VINA RESULT:    -3.393      8.551      9.839
REMARK INTER + INTRA:          -3.686
REMARK INTER:                  -3.637
REMARK INTRA:                  -0.049
REMARK UNBOUND:                 0.005
REMARK  Name = 
REMARK  3 active torsions:
REMARK  status: ('A' for Active; 'I' for Inactive)
REMARK    1  A    between atoms: C_1  and  O_2
REMARK    2  A    between atoms: O_2  and  C_3
REMARK    3  A    between atoms: C_8  and  O_9
REMARK                            x       y       z     vdW  Elec       q    Type
REMARK                         _______ _______ _______ _____ _____    ______ ____
ROOT
ATOM      1  C   UNL     1       8.635  17.919  -4.855  0.00  0.00    +0.000 A 
ATOM      2  C   UNL     1       7.976  17.598  -3.669  0.00  0.00    +0.000 A 
ATOM      3  C   UNL     1       6.636  17.964  -3.492  0.00  0.00    +0.000 A 
ATOM      4  C   UNL     1       5.952  18.651  -4.497  0.00  0.00    +0.000 A 
ATOM      5  C   UNL     1       6.603  18.975  -5.684  0.00  0.00    +0.000 A 
ATOM      6  C   UNL     1       7.933  18.608  -5.851  0.00  0.00    +0.000 A 
ENDROOT
BRANCH   1   8
ATOM      7  C   UNL     1      10.920  18.013  -4.207  0.00  0.00    +0.000 C 
ATOM      8  O   UNL     1       9.940  17.626  -5.163  0.00  0.00    +0.000 OA
ENDBRANCH   1   8
BRANCH   6   9
ATOM      9  O   UNL     1       8.552  18.938  -7.027  0.00  0.00    +0.000 OA
ATOM     10  H   UNL     1       9.418  18.489  -6.986  0.00  0.00    +0.000 HD
ENDBRANCH   6   9
TORSDOF 2
ENDMDL
MODEL 6
REMARK VINA RESULT:    -3.375      1.728      2.595
REMARK INTER + INTRA:          -3.666
REMARK INTER:                  -3.619
REMARK INTRA:                  -0.047
REMARK UNBOUND:                 0.005
REMARK  Name = 
REMARK  3 active torsions:
REMARK  status: ('A' for Active; 'I' for Inactive)
REMARK    1  A    between atoms: C_1  and  O_2
REMARK    2  A    between atoms: O_2  and  C_3
REMARK    3  A    between atoms: C_8  and  O_9
REMARK                            x       y       z     vdW  Elec       q    Type
REMARK                         _______ _______ _______ _____ _____    ______ ____
ROOT
ATOM      1  C   UNL     1       4.563  15.444   2.252  0.00  0.00    +0.000 A 
ATOM      2  C   UNL     1       3.883  16.138   3.252  0.00  0.00    +0.000 A 
ATOM      3  C   UNL     1       3.823  15.614   4.550  0.00  0.00    +0.000 A 
ATOM      4  C   UNL     1       4.439  14.398   4.851  0.00  0.00    +0.000 A 
ATOM      5  C   UNL     1       5.120  13.699   3.857  0.00  0.00    +0.000 A 
ATOM      6  C   UNL     1       5.175  14.226   2.573  0.00  0.00    +0.000 A 
ENDROOT
BRANCH   1   8
ATOM      7  C   UNL     1       3.523  16.289   0.289  0.00  0.00    +0.000 C 
ATOM      8  O   UNL     1       4.701  15.836   0.944  0.00  0.00    +0.000 OA
ENDBRANCH   1   8
BRANCH   6   9
ATOM      9  O   UNL     1       5.850  13.521   1.613  0.00  0.00    +0.000 OA
ATOM     10  H   UNL     1       6.414  12.900   2.112  0.00  0.00    +0.000 HD
ENDBRANCH   6   9
TORSDOF 2
ENDMDL
MODEL 7
REMARK VINA RESULT:    -3.363      1.811      2.354
REMARK INTER + INTRA:          -3.653
REMARK INTER:                  -3.608
REMARK INTRA:                  -0.045
REMARK UNBOUND:                 0.005
REMARK  Name = 
REMARK  3 active torsions:
REMARK  status: ('A' for Active; 'I' for Inactive)
REMARK    1  A    between atoms: C_1  and  O_2
REMARK    2  A    between atoms: O_2  and  C_3
REMARK    3  A    between atoms: C_8  and  O_9
REMARK                            x       y       z     vdW  Elec       q    Type
REMARK                         _______ _______ _______ _____ _____    ______ ____
ROOT
ATOM      1  C   UNL     1       4.932  14.723   2.941  0.00  0.00    +0.000 A 
ATOM      2  C   UNL     1       4.169  15.338   1.949  0.00  0.00    +0.000 A 
ATOM      3  C   UNL     1       4.386  16.685   1.634  0.00  0.00    +0.000 A 
ATOM      4  C   UNL     1       5.361  17.422   2.308  0.00  0.00    +0.000 A 
ATOM      5  C   UNL     1       6.128  16.815   3.300  0.00  0.00    +0.000 A 
ATOM      6  C   UNL     1       5.906  15.478   3.606  0.00  0.00    +0.000 A 
ENDROOT
BRANCH   1   8
ATOM      7  C   UNL     1       4.669  12.442   2.330  0.00  0.00    +0.000 C 
ATOM      8  O   UNL     1       4.828  13.419   3.352  0.00  0.00    +0.000 OA
ENDBRANCH   1   8
BRANCH   6   9
ATOM      9  O   UNL     1       6.671  14.904   4.586  0.00  0.00    +0.000 OA
ATOM     10  H   UNL     1       7.374  14.427   4.104  0.00  0.00    +0.000 HD
ENDBRANCH   6   9
TORSDOF 2
ENDMDL
MODEL 8
REMARK VINA RESULT:    -3.354      8.643     10.104
REMARK INTER + INTRA:          -3.644
REMARK INTER:                  -3.629
REMARK INTRA:                  -0.015
REMARK UNBOUND:                 0.005
REMARK  Name = 
REMARK  3 active torsions:
REMARK  status: ('A' for Active; 'I' for Inactive)
REMARK    1  A    between atoms: C_1  and  O_2
REMARK    2  A    between atoms: O_2  and  C_3
REMARK    3  A    between atoms: C_8  and  O_9
REMARK                            x       y       z     vdW  Elec       q    Type
REMARK                         _______ _______ _______ _____ _____    ______ ____
ROOT
ATOM      1  C   UNL     1       8.927  18.745  -4.571  0.00  0.00    +0.000 A 
ATOM      2  C   UNL     1       8.680  19.567  -5.669  0.00  0.00    +0.000 A 
ATOM      3  C   UNL     1       7.446  19.500  -6.330  0.00  0.00    +0.000 A 
ATOM      4  C   UNL     1       6.459  18.614  -5.897  0.00  0.00    +0.000 A 
ATOM      5  C   UNL     1       6.698  17.789  -4.799  0.00  0.00    +0.000 A 
ATOM      6  C   UNL     1       7.924  17.862  -4.151  0.00  0.00    +0.000 A 
ENDROOT
BRANCH   1   8
ATOM      7  C   UNL     1      11.152  17.934  -4.370  0.00  0.00    +0.000 C 
ATOM      8  O   UNL     1      10.083  18.703  -3.833  0.00  0.00    +0.000 OA
ENDBRANCH   1   8
BRANCH   6   9
ATOM      9  O   UNL     1       8.136  17.042  -3.075  0.00  0.00    +0.000 OA
ATOM     10  H   UNL     1       7.662  17.472  -2.338  0.00  0.00    +0.000 HD
ENDBRANCH   6   9
TORSDOF 2
ENDMDL
MODEL 9
REMARK VINA RESULT:    -3.300      1.994      2.975
REMARK INTER + INTRA:          -3.584
REMARK INTER:                  -3.542
REMARK INTRA:                  -0.042
REMARK UNBOUND:                 0.005
REMARK  Name = 
REMARK  3 active torsions:
REMARK  status: ('A' for Active; 'I' for Inactive)
REMARK    1  A    between atoms: C_1  and  O_2
REMARK    2  A    between atoms: O_2  and  C_3
REMARK    3  A    between atoms: C_8  and  O_9
REMARK                            x       y       z     vdW  Elec       q    Type
REMARK                         _______ _______ _______ _____ _____    ______ ____
ROOT
ATOM      1  C   UNL     1       4.258  15.689   1.727  0.00  0.00    +0.000 A 
ATOM      2  C   UNL     1       4.893  16.859   2.140  0.00  0.00    +0.000 A 
ATOM      3  C   UNL     1       5.920  16.800   3.091  0.00  0.00    +0.000 A 
ATOM      4  C   UNL     1       6.314  15.574   3.631  0.00  0.00    +0.000 A 
ATOM      5  C   UNL     1       5.684  14.401   3.222  0.00  0.00    +0.000 A 
ATOM      6  C   UNL     1       4.667  14.469   2.279  0.00  0.00    +0.000 A 
ENDROOT
BRANCH   1   8
ATOM      7  C   UNL     1       3.264  16.540  -0.257  0.00  0.00    +0.000 C 
ATOM      8  O   UNL     1       3.242  15.599   0.809  0.00  0.00    +0.000 OA
ENDBRANCH   1   8
BRANCH   6   9
ATOM      9  O   UNL     1       4.063  13.302   1.894  0.00  0.00    +0.000 OA
ATOM     10  H   UNL     1       3.106  13.475   1.988  0.00  0.00    +0.000 HD
ENDBRANCH   6   9
TORSDOF 2
ENDMDL
