MODEL 1
REMARK VINA RESULT:    -3.542      0.000      0.000
REMARK INTER + INTRA:          -3.891
REMARK INTER:                  -3.853
REMARK INTRA:                  -0.038
REMARK UNBOUND:                -0.038
REMARK  Name = 
REMARK  3 active torsions:
REMARK  status: ('A' for Active; 'I' for Inactive)
REMARK    1  A    between atoms: C_1  and  O_2
REMARK    2  A    between atoms: O_2  and  C_3
REMARK    3  A    between atoms: C_8  and  O_9
REMARK                            x       y       z     vdW  Elec       q    Type
REMARK                         _______ _______ _______ _____ _____    ______ ____
ROOT
ATOM      1  C   UNL     1      15.214  21.006   5.537  0.00  0.00    +0.000 A 
ATOM      2  C   UNL     1      15.702  19.701   5.596  0.00  0.00    +0.000 A 
ATOM      3  C   UNL     1      14.810  18.625   5.686  0.00  0.00    +0.000 A 
ATOM      4  C   UNL     1      13.432  18.848   5.717  0.00  0.00    +0.000 A 
ATOM      5  C   UNL     1      12.938  20.149   5.658  0.00  0.00    +0.000 A 
ATOM      6  C   UNL     1      13.829  21.210   5.569  0.00  0.00    +0.000 A 
ENDROOT
BRANCH   1   8
ATOM      7  C   UNL     1      17.336  21.983   5.100  0.00  0.00    +0.000 C 
ATOM      8  O   UNL     1      15.967  22.150   5.448  0.00  0.00    +0.000 OA
ENDBRANCH   1   8
BRANCH   6   9
ATOM      9  O   UNL     1      13.319  22.480   5.512  0.00  0.00    +0.000 OA
ATOM     10  H   UNL     1      12.790  22.572   6.326  0.00  0.00    +0.000 HD
ENDBRANCH   6   9
TORSDOF 2
ENDMDL
MODEL 2
REMARK VINA RESULT:    -3.420      1.284      3.344
REMARK INTER + INTRA:          -3.758
REMARK INTER:                  -3.718
REMARK INTRA:                  -0.040
REMARK UNBOUND:                -0.038
REMARK  Name = 
REMARK  3 active torsions:
REMARK  status: ('A' for Active; 'I' for Inactive)
REMARK    1  A    between atoms: C_1  and  O_2
REMARK    2  A    between atoms: O_2  and  C_3
REMARK    3  A    between atoms: C_8  and  O_9
REMARK                            x       y       z     vdW  Elec       q    Type
REMARK                         _______ _______ _______ _____ _____    ______ ____
ROOT
ATOM      1  C   UNL     1      12.834  19.964   5.811  0.00  0.00    +0.000 A 
ATOM      2  C   UNL     1      13.342  18.668   5.880  0.00  0.00    +0.000 A 
ATOM      3  C   UNL     1      14.715  18.445   5.714  0.00  0.00    +0.000 A 
ATOM      4  C   UNL     1      15.582  19.513   5.478  0.00  0.00    +0.000 A 
ATOM      5  C   UNL     1      15.082  20.811   5.408  0.00  0.00    +0.000 A 
ATOM      6  C   UNL     1      13.719  21.023   5.573  0.00  0.00    +0.000 A 
ENDROOT
BRANCH   1   8
ATOM      7  C   UNL     1      10.548  19.334   5.647  0.00  0.00    +0.000 C 
ATOM      8  O   UNL     1      11.519  20.329   5.952  0.00  0.00    +0.000 OA
ENDBRANCH   1   8
BRANCH   6   9
ATOM      9  O   UNL     1      13.251  22.308   5.499  0.00  0.00    +0.000 OA
ATOM     10  H   UNL     1      13.427  22.584   4.580  0.00  0.00    +0.000 HD
ENDBRANCH   6   9
TORSDOF 2
ENDMDL
MODEL 3
REMARK VINA RESULT:    -3.296      2.925      3.797
REMARK INTER + INTRA:          -3.623
REMARK INTER:                  -3.585
REMARK INTRA:                  -0.038
REMARK UNBOUND:                -0.038
REMARK  Name = 
REMARK  3 active torsions:
REMARK  status: ('A' for Active; 'I' for Inactive)
REMARK    1  A    between atoms: C_1  and  O_2
REMARK    2  A    between atoms: O_2  and  C_3
REMARK    3  A    between atoms: C_8  and  O_9
REMARK                            x       y       z     vdW  Elec       q    Type
REMARK                         _______ _______ _______ _____ _____    ______ ____
ROOT
ATOM      1  C   UNL     1      14.094  18.311   6.990  0.00  0.00    +0.000 A 
ATOM      2  C   UNL     1      15.057  19.319   6.984  0.00  0.00    +0.000 A 
ATOM      3  C   UNL     1      14.823  20.506   6.278  0.00  0.00    +0.000 A 
ATOM      4  C   UNL     1      13.630  20.689   5.577  0.00  0.00    +0.000 A 
ATOM      5  C   UNL     1      12.663  19.687   5.578  0.00  0.00    +0.000 A 
ATOM      6  C   UNL     1      12.903  18.513   6.281  0.00  0.00    +0.000 A 
ENDROOT
BRANCH   1   8
ATOM      7  C   UNL     1      15.473  16.746   8.127  0.00  0.00    +0.000 C 
ATOM      8  O   UNL     1      14.187  17.104   7.634  0.00  0.00    +0.000 OA
ENDBRANCH   1   8
BRANCH   6   9
ATOM      9  O   UNL     1      11.937  17.542   6.268  0.00  0.00    +0.000 OA
ATOM     10  H   UNL     1      12.315  16.809   6.789  0.00  0.00    +0.000 HD
ENDBRANCH   6   9
TORSDOF 2
ENDMDL
MODEL 4
REMARK VINA RESULT:    -3.070     16.507     17.870
REMARK INTER + INTRA:          -3.378
REMARK INTER:                  -3.340
REMARK INTRA:                  -0.038
REMARK UNBOUND:                -0.038
REMARK  Name = 
REMARK  3 active torsions:
REMARK  status: ('A' for Active; 'I' for Inactive)
REMARK    1  A    between atoms: C_1  and  O_2
REMARK    2  A    between atoms: O_2  and  C_3
REMARK    3  A    between atoms: C_8  and  O_9
REMARK                            x       y       z     vdW  Elec       q    Type
REMARK                         _______ _______ _______ _____ _____    ______ ____
ROOT
ATOM      1  C   UNL     1       8.957   4.326   8.438  0.00  0.00    +0.000 A 
ATOM      2  C   UNL     1       9.598   5.558   8.555  0.00  0.00    +0.000 A 
ATOM      3  C   UNL     1      10.989   5.639   8.410  0.00  0.00    +0.000 A 
ATOM      4  C   UNL     1      11.742   4.492   8.151  0.00  0.00    +0.000 A 
ATOM      5  C   UNL     1      11.108   3.258   8.033  0.00  0.00    +0.000 A 
ATOM      6  C   UNL     1       9.728   3.187   8.178  0.00  0.00    +0.000 A 
ENDROOT
BRANCH   1   8
ATOM      7  C   UNL     1       6.769   5.248   8.552  0.00  0.00    +0.000 C 
ATOM      8  O   UNL     1       7.609   4.099   8.556  0.00  0.00    +0.000 OA
ENDBRANCH   1   8
BRANCH   6   9
ATOM      9  O   UNL     1       9.127   1.962   8.058  0.00  0.00    +0.000 OA
ATOM     10  H   UNL     1       8.981   1.666   8.977  0.00  0.00    +0.000 HD
ENDBRANCH   6   9
TORSDOF 2
ENDMDL
MODEL 5
REMARK VINA RESULT:    -3.035      2.176      2.955
REMARK INTER + INTRA:          -3.340
REMARK INTER:                  -3.292
REMARK INTRA:                  -0.047
REMARK UNBOUND:                -0.038
REMARK  Name = 
REMARK  3 active torsions:
REMARK  status: ('A' for Active; 'I' for Inactive)
REMARK    1  A    between atoms: C_1  and  O_2
REMARK    2  A    between atoms: O_2  and  C_3
REMARK    3  A    between atoms: C_8  and  O_9
REMARK                            x       y       z     vdW  Elec       q    Type
REMARK                         _______ _______ _______ _____ _____    ______ ____
ROOT
ATOM      1  C   UNL     1      15.189  19.377   5.298  0.00  0.00    +0.000 A 
ATOM      2  C   UNL     1      15.888  20.584   5.301  0.00  0.00    +0.000 A 
ATOM      3  C   UNL     1      15.225  21.776   5.618  0.00  0.00    +0.000 A 
ATOM      4  C   UNL     1      13.864  21.767   5.932  0.00  0.00    +0.000 A 
ATOM      5  C   UNL     1      13.159  20.566   5.931  0.00  0.00    +0.000 A 
ATOM      6  C   UNL     1      13.825  19.388   5.615  0.00  0.00    +0.000 A 
ENDROOT
BRANCH   1   8
ATOM      7  C   UNL     1      16.932  17.800   5.644  0.00  0.00    +0.000 C 
ATOM      8  O   UNL     1      15.707  18.141   5.007  0.00  0.00    +0.000 OA
ENDBRANCH   1   8
BRANCH   6   9
ATOM      9  O   UNL     1      13.111  18.220   5.620  0.00  0.00    +0.000 OA
ATOM     10  H   UNL     1      13.708  17.566   6.030  0.00  0.00    +0.000 HD
ENDBRANCH   6   9
TORSDOF 2
ENDMDL
MODEL 6
REMARK VINA RESULT:    -2.970      1.550      2.602
REMARK INTER + INTRA:          -3.269
REMARK INTER:                  -3.227
REMARK INTRA:                  -0.042
REMARK UNBOUND:                -0.038
REMARK  Name = 
REMARK  3 active torsions:
REMARK  status: ('A' for Active; 'I' for Inactive)
REMARK    1  A    between atoms: C_1  and  O_2
REMARK    2  A    between atoms: O_2  and  C_3
REMARK    3  A    between atoms: C_8  and  O_9
REMARK                            x       y       z     vdW  Elec       q    Type
REMARK                         _______ _______ _______ _____ _____    ______ ____
ROOT
ATOM      1  C   UNL     1      15.411  19.173   5.240  0.00  0.00    +0.000 A 
ATOM      2  C   UNL     1      14.325  18.381   5.612  0.00  0.00    +0.000 A 
ATOM      3  C   UNL     1      13.118  18.982   5.988  0.00  0.00    +0.000 A 
ATOM      4  C   UNL     1      12.991  20.373   5.995  0.00  0.00    +0.000 A 
ATOM      5  C   UNL     1      14.071  21.170   5.624  0.00  0.00    +0.000 A 
ATOM      6  C   UNL     1      15.265  20.565   5.252  0.00  0.00    +0.000 A 
ENDROOT
BRANCH   1   8
ATOM      7  C   UNL     1      17.105  17.521   5.459  0.00  0.00    +0.000 C 
ATOM      8  O   UNL     1      16.647  18.723   4.851  0.00  0.00    +0.000 OA
ENDBRANCH   1   8
BRANCH   6   9
ATOM      9  O   UNL     1      16.313  21.370   4.891  0.00  0.00    +0.000 OA
ATOM     10  H   UNL     1      16.925  20.781   4.412  0.00  0.00    +0.000 HD
ENDBRANCH   6   9
TORSDOF 2
ENDMDL
MODEL 7
REMARK VINA RESULT:    -2.964     19.452     20.486
REMARK INTER + INTRA:          -3.262
REMARK INTER:                  -3.221
REMARK INTRA:                  -0.041
REMARK UNBOUND:                -0.038
REMARK  Name = 
REMARK  3 active torsions:
REMARK  status: ('A' for Active; 'I' for Inactive)
REMARK    1  A    between atoms: C_1  and  O_2
REMARK    2  A    between atoms: O_2  and  C_3
REMARK    3  A    between atoms: C_8  and  O_9
REMARK                            x       y       z     vdW  Elec       q    Type
REMARK                         _______ _______ _______ _____ _____    ______ ____
ROOT
ATOM      1  C   UNL     1       2.738  21.031 -11.321  0.00  0.00    +0.000 A 
ATOM      2  C   UNL     1       1.676  21.725 -10.741  0.00  0.00    +0.000 A 
ATOM      3  C   UNL     1       1.920  22.647  -9.716  0.00  0.00    +0.000 A 
ATOM      4  C   UNL     1       3.221  22.878  -9.266  0.00  0.00    +0.000 A 
ATOM      5  C   UNL     1       4.287  22.190  -9.841  0.00  0.00    +0.000 A 
ATOM      6  C   UNL     1       4.036  21.277 -10.857  0.00  0.00    +0.000 A 
ENDROOT
BRANCH   1   8
ATOM      7  C   UNL     1       1.447  19.342 -12.383  0.00  0.00    +0.000 C 
ATOM      8  O   UNL     1       2.647  20.104 -12.328  0.00  0.00    +0.000 OA
ENDBRANCH   1   8
BRANCH   6   9
ATOM      9  O   UNL     1       5.100  20.612 -11.406  0.00  0.00    +0.000 OA
ATOM     10  H   UNL     1       4.782  19.698 -11.535  0.00  0.00    +0.000 HD
ENDBRANCH   6   9
TORSDOF 2
ENDMDL
MODEL 8
REMARK VINA RESULT:    -2.946      2.797      4.083
REMARK INTER + INTRA:          -3.242
REMARK INTER:                  -3.201
REMARK INTRA:                  -0.041
REMARK UNBOUND:                -0.038
REMARK  Name = 
REMARK  3 active torsions:
REMARK  status: ('A' for Active; 'I' for Inactive)
REMARK    1  A    between atoms: C_1  and  O_2
REMARK    2  A    between atoms: O_2  and  C_3
REMARK    3  A    between atoms: C_8  and  O_9
REMARK                            x       y       z     vdW  Elec       q    Type
REMARK                         _______ _______ _______ _____ _____    ______ ____
ROOT
ATOM      1  C   UNL     1      14.313  18.375   6.253  0.00  0.00    +0.000 A 
ATOM      2  C   UNL     1      15.135  18.652   5.161  0.00  0.00    +0.000 A 
ATOM      3  C   UNL     1      16.479  18.257   5.179  0.00  0.00    +0.000 A 
ATOM      4  C   UNL     1      17.005  17.588   6.285  0.00  0.00    +0.000 A 
ATOM      5  C   UNL     1      16.190  17.308   7.380  0.00  0.00    +0.000 A 
ATOM      6  C   UNL     1      14.859  17.703   7.353  0.00  0.00    +0.000 A 
ENDROOT
BRANCH   1   8
ATOM      7  C   UNL     1      12.550  19.856   5.665  0.00  0.00    +0.000 C 
ATOM      8  O   UNL     1      12.986  18.702   6.372  0.00  0.00    +0.000 OA
ENDBRANCH   1   8
BRANCH   6   9
ATOM      9  O   UNL     1      14.078  17.417   8.441  0.00  0.00    +0.000 OA
ATOM     10  H   UNL     1      14.182  16.455   8.575  0.00  0.00    +0.000 HD
ENDBRANCH   6   9
TORSDOF 2
ENDMDL
