MODEL 1
REMARK VINA RESULT:    -4.377      0.000      0.000
REMARK INTER + INTRA:          -4.813
REMARK INTER:                  -4.761
REMARK INTRA:                  -0.052
REMARK UNBOUND:                -0.052
REMARK  Name = 
REMARK  3 active torsions:
REMARK  status: ('A' for Active; 'I' for Inactive)
REMARK    1  A    between atoms: C_1  and  O_2
REMARK    2  A    between atoms: O_2  and  C_3
REMARK    3  A    between atoms: C_8  and  O_9
REMARK                            x       y       z     vdW  Elec       q    Type
REMARK                         _______ _______ _______ _____ _____    ______ ____
ROOT
ATOM      1  C   UNL     1       5.090  22.728   2.781  0.00  0.00    +0.000 A 
ATOM      2  C   UNL     1       6.312  23.188   2.293  0.00  0.00    +0.000 A 
ATOM      3  C   UNL     1       7.507  22.624   2.755  0.00  0.00    +0.000 A 
ATOM      4  C   UNL     1       7.486  21.601   3.705  0.00  0.00    +0.000 A 
ATOM      5  C   UNL     1       6.269  21.135   4.198  0.00  0.00    +0.000 A 
ATOM      6  C   UNL     1       5.089  21.701   3.734  0.00  0.00    +0.000 A 
ENDROOT
BRANCH   1   8
ATOM      7  C   UNL     1       3.485  23.028   1.055  0.00  0.00    +0.000 C 
ATOM      8  O   UNL     1       3.848  23.186   2.421  0.00  0.00    +0.000 OA
ENDBRANCH   1   8
BRANCH   6   9
ATOM      9  O   UNL     1       3.905  21.227   4.233  0.00  0.00    +0.000 OA
ATOM     10  H   UNL     1       3.554  20.646   3.531  0.00  0.00    +0.000 HD
ENDBRANCH   6   9
TORSDOF 2
ENDMDL
MODEL 2
REMARK VINA RESULT:    -4.030      1.252      3.104
REMARK INTER + INTRA:          -4.436
REMARK INTER:                  -4.391
REMARK INTRA:                  -0.045
REMARK UNBOUND:                -0.052
REMARK  Name = 
REMARK  3 active torsions:
REMARK  status: ('A' for Active; 'I' for Inactive)
REMARK    1  A    between atoms: C_1  and  O_2
REMARK    2  A    between atoms: O_2  and  C_3
REMARK    3  A    between atoms: C_8  and  O_9
REMARK                            x       y       z     vdW  Elec       q    Type
REMARK                         _______ _______ _______ _____ _____    ______ ____
ROOT
ATOM      1  C   UNL     1       6.256  21.702   3.569  0.00  0.00    +0.000 A 
ATOM      2  C   UNL     1       7.138  22.491   2.832  0.00  0.00    +0.000 A 
ATOM      3  C   UNL     1       6.646  23.535   2.038  0.00  0.00    +0.000 A 
ATOM      4  C   UNL     1       5.276  23.793   1.978  0.00  0.00    +0.000 A 
ATOM      5  C   UNL     1       4.388  23.009   2.711  0.00  0.00    +0.000 A 
ATOM      6  C   UNL     1       4.885  21.976   3.496  0.00  0.00    +0.000 A 
ENDROOT
BRANCH   1   8
ATOM      7  C   UNL     1       7.728  20.839   5.223  0.00  0.00    +0.000 C 
ATOM      8  O   UNL     1       6.595  20.652   4.384  0.00  0.00    +0.000 OA
ENDBRANCH   1   8
BRANCH   6   9
ATOM      9  O   UNL     1       3.993  21.219   4.208  0.00  0.00    +0.000 OA
ATOM     10  H   UNL     1       3.256  21.054   3.588  0.00  0.00    +0.000 HD
ENDBRANCH   6   9
TORSDOF 2
ENDMDL
MODEL 3
REMARK VINA RESULT:    -3.550     18.498     20.350
REMARK INTER + INTRA:          -3.913
REMARK INTER:                  -3.861
REMARK INTRA:                  -0.052
REMARK UNBOUND:                -0.052
REMARK  Name = 
REMARK  3 active torsions:
REMARK  status: ('A' for Active; 'I' for Inactive)
REMARK    1  A    between atoms: C_1  and  O_2
REMARK    2  A    between atoms: O_2  and  C_3
REMARK    3  A    between atoms: C_8  and  O_9
REMARK                            x       y       z     vdW  Elec       q    Type
REMARK                         _______ _______ _______ _____ _____    ______ ____
ROOT
ATOM      1  C   UNL     1      -4.390  13.620 -11.532  0.00  0.00    +0.000 A 
ATOM      2  C   UNL     1      -4.022  14.167 -12.760  0.00  0.00    +0.000 A 
ATOM      3  C   UNL     1      -4.718  13.812 -13.922  0.00  0.00    +0.000 A 
ATOM      4  C   UNL     1      -5.782  12.910 -13.861  0.00  0.00    +0.000 A 
ATOM      5  C   UNL     1      -6.156  12.358 -12.638  0.00  0.00    +0.000 A 
ATOM      6  C   UNL     1      -5.460  12.717 -11.491  0.00  0.00    +0.000 A 
ENDROOT
BRANCH   1   8
ATOM      7  C   UNL     1      -3.968  15.188  -9.797  0.00  0.00    +0.000 C 
ATOM      8  O   UNL     1      -3.801  13.875 -10.320  0.00  0.00    +0.000 OA
ENDBRANCH   1   8
BRANCH   6   9
ATOM      9  O   UNL     1      -5.846  12.162 -10.300  0.00  0.00    +0.000 OA
ATOM     10  H   UNL     1      -5.014  12.021  -9.810  0.00  0.00    +0.000 HD
ENDBRANCH   6   9
TORSDOF 2
ENDMDL
MODEL 4
REMARK VINA RESULT:    -3.545      2.000      3.243
REMARK INTER + INTRA:          -3.908
REMARK INTER:                  -3.867
REMARK INTRA:                  -0.040
REMARK UNBOUND:                -0.052
REMARK  Name = 
REMARK  3 active torsions:
REMARK  status: ('A' for Active; 'I' for Inactive)
REMARK    1  A    between atoms: C_1  and  O_2
REMARK    2  A    between atoms: O_2  and  C_3
REMARK    3  A    between atoms: C_8  and  O_9
REMARK                            x       y       z     vdW  Elec       q    Type
REMARK                         _______ _______ _______ _____ _____    ______ ____
ROOT
ATOM      1  C   UNL     1       7.128  22.269   3.149  0.00  0.00    +0.000 A 
ATOM      2  C   UNL     1       6.677  23.316   2.347  0.00  0.00    +0.000 A 
ATOM      3  C   UNL     1       5.303  23.552   2.211  0.00  0.00    +0.000 A 
ATOM      4  C   UNL     1       4.377  22.744   2.873  0.00  0.00    +0.000 A 
ATOM      5  C   UNL     1       4.820  21.696   3.677  0.00  0.00    +0.000 A 
ATOM      6  C   UNL     1       6.184  21.469   3.806  0.00  0.00    +0.000 A 
ENDROOT
BRANCH   1   8
ATOM      7  C   UNL     1       9.362  22.243   2.341  0.00  0.00    +0.000 C 
ATOM      8  O   UNL     1       8.437  21.924   3.373  0.00  0.00    +0.000 OA
ENDBRANCH   1   8
BRANCH   6   9
ATOM      9  O   UNL     1       6.595  20.433   4.601  0.00  0.00    +0.000 OA
ATOM     10  H   UNL     1       6.406  20.729   5.512  0.00  0.00    +0.000 HD
ENDBRANCH   6   9
TORSDOF 2
ENDMDL
MODEL 5
REMARK VINA RESULT:    -3.533      1.787      1.888
REMARK INTER + INTRA:          -3.895
REMARK INTER:                  -3.861
REMARK INTRA:                  -0.035
REMARK UNBOUND:                -0.052
REMARK  Name = 
REMARK  3 active torsions:
REMARK  status: ('A' for Active; 'I' for Inactive)
REMARK    1  A    between atoms: C_1  and  O_2
REMARK    2  A    between atoms: O_2  and  C_3
REMARK    3  A    between atoms: C_8  and  O_9
REMARK                            x       y       z     vdW  Elec       q    Type
REMARK                         _______ _______ _______ _____ _____    ______ ____
ROOT
ATOM      1  C   UNL     1       5.368  22.740   3.986  0.00  0.00    +0.000 A 
ATOM      2  C   UNL     1       5.790  23.880   4.669  0.00  0.00    +0.000 A 
ATOM      3  C   UNL     1       6.902  23.815   5.519  0.00  0.00    +0.000 A 
ATOM      4  C   UNL     1       7.593  22.613   5.689  0.00  0.00    +0.000 A 
ATOM      5  C   UNL     1       7.177  21.471   5.010  0.00  0.00    +0.000 A 
ATOM      6  C   UNL     1       6.073  21.545   4.169  0.00  0.00    +0.000 A 
ENDROOT
BRANCH   1   8
ATOM      7  C   UNL     1       4.494  23.194   1.823  0.00  0.00    +0.000 C 
ATOM      8  O   UNL     1       4.301  22.659   3.127  0.00  0.00    +0.000 OA
ENDBRANCH   1   8
BRANCH   6   9
ATOM      9  O   UNL     1       5.683  20.408   3.513  0.00  0.00    +0.000 OA
ATOM     10  H   UNL     1       6.480  20.114   3.031  0.00  0.00    +0.000 HD
ENDBRANCH   6   9
TORSDOF 2
ENDMDL
MODEL 6
REMARK VINA RESULT:    -3.484      0.948      2.240
REMARK INTER + INTRA:          -3.842
REMARK INTER:                  -3.904
REMARK INTRA:                   0.062
REMARK UNBOUND:                -0.052
REMARK  Name = 
REMARK  3 active torsions:
REMARK  status: ('A' for Active; 'I' for Inactive)
REMARK    1  A    between atoms: C_1  and  O_2
REMARK    2  A    between atoms: O_2  and  C_3
REMARK    3  A    between atoms: C_8  and  O_9
REMARK                            x       y       z     vdW  Elec       q    Type
REMARK                         _______ _______ _______ _____ _____    ______ ____
ROOT
ATOM      1  C   UNL     1       5.043  22.639   2.883  0.00  0.00    +0.000 A 
ATOM      2  C   UNL     1       5.035  21.577   3.786  0.00  0.00    +0.000 A 
ATOM      3  C   UNL     1       6.244  21.055   4.263  0.00  0.00    +0.000 A 
ATOM      4  C   UNL     1       7.462  21.590   3.839  0.00  0.00    +0.000 A 
ATOM      5  C   UNL     1       7.478  22.652   2.937  0.00  0.00    +0.000 A 
ATOM      6  C   UNL     1       6.274  23.163   2.469  0.00  0.00    +0.000 A 
ENDROOT
BRANCH   1   8
ATOM      7  C   UNL     1       3.465  22.710   1.108  0.00  0.00    +0.000 C 
ATOM      8  O   UNL     1       3.941  23.247   2.336  0.00  0.00    +0.000 OA
ENDBRANCH   1   8
BRANCH   6   9
ATOM      9  O   UNL     1       6.315  24.206   1.583  0.00  0.00    +0.000 OA
ATOM     10  H   UNL     1       5.536  24.751   1.804  0.00  0.00    +0.000 HD
ENDBRANCH   6   9
TORSDOF 2
ENDMDL
MODEL 7
REMARK VINA RESULT:    -3.448     18.394     19.984
REMARK INTER + INTRA:          -3.803
REMARK INTER:                  -3.765
REMARK INTRA:                  -0.038
REMARK UNBOUND:                -0.052
REMARK  Name = 
REMARK  3 active torsions:
REMARK  status: ('A' for Active; 'I' for Inactive)
REMARK    1  A    between atoms: C_1  and  O_2
REMARK    2  A    between atoms: O_2  and  C_3
REMARK    3  A    between atoms: C_8  and  O_9
REMARK                            x       y       z     vdW  Elec       q    Type
REMARK                         _______ _______ _______ _____ _____    ______ ____
ROOT
ATOM      1  C   UNL     1      -5.112  13.601 -12.234  0.00  0.00    +0.000 A 
ATOM      2  C   UNL     1      -5.022  14.882 -12.777  0.00  0.00    +0.000 A 
ATOM      3  C   UNL     1      -4.423  15.912 -12.042  0.00  0.00    +0.000 A 
ATOM      4  C   UNL     1      -3.913  15.668 -10.765  0.00  0.00    +0.000 A 
ATOM      5  C   UNL     1      -3.999  14.390 -10.216  0.00  0.00    +0.000 A 
ATOM      6  C   UNL     1      -4.595  13.374 -10.953  0.00  0.00    +0.000 A 
ENDROOT
BRANCH   1   8
ATOM      7  C   UNL     1      -5.913  12.600 -14.235  0.00  0.00    +0.000 C 
ATOM      8  O   UNL     1      -5.670  12.502 -12.837  0.00  0.00    +0.000 OA
ENDBRANCH   1   8
BRANCH   6   9
ATOM      9  O   UNL     1      -4.668  12.127 -10.392  0.00  0.00    +0.000 OA
ATOM     10  H   UNL     1      -4.086  12.172  -9.609  0.00  0.00    +0.000 HD
ENDBRANCH   6   9
TORSDOF 2
ENDMDL
MODEL 8
REMARK VINA RESULT:    -3.215     18.127     19.537
REMARK INTER + INTRA:          -3.549
REMARK INTER:                  -3.510
REMARK INTRA:                  -0.039
REMARK UNBOUND:                -0.052
REMARK  Name = 
REMARK  3 active torsions:
REMARK  status: ('A' for Active; 'I' for Inactive)
REMARK    1  A    between atoms: C_1  and  O_2
REMARK    2  A    between atoms: O_2  and  C_3
REMARK    3  A    between atoms: C_8  and  O_9
REMARK                            x       y       z     vdW  Elec       q    Type
REMARK                         _______ _______ _______ _____ _____    ______ ____
ROOT
ATOM      1  C   UNL     1      -4.272  14.863 -12.712  0.00  0.00    +0.000 A 
ATOM      2  C   UNL     1      -3.843  13.682 -12.106  0.00  0.00    +0.000 A 
ATOM      3  C   UNL     1      -3.657  13.636 -10.719  0.00  0.00    +0.000 A 
ATOM      4  C   UNL     1      -3.897  14.765  -9.934  0.00  0.00    +0.000 A 
ATOM      5  C   UNL     1      -4.325  15.948 -10.532  0.00  0.00    +0.000 A 
ATOM      6  C   UNL     1      -4.507  15.985 -11.909  0.00  0.00    +0.000 A 
ENDROOT
BRANCH   1   8
ATOM      7  C   UNL     1      -3.884  14.117 -14.935  0.00  0.00    +0.000 C 
ATOM      8  O   UNL     1      -4.494  15.052 -14.052  0.00  0.00    +0.000 OA
ENDBRANCH   1   8
BRANCH   6   9
ATOM      9  O   UNL     1      -4.929  17.159 -12.474  0.00  0.00    +0.000 OA
ATOM     10  H   UNL     1      -4.531  17.163 -13.365  0.00  0.00    +0.000 HD
ENDBRANCH   6   9
TORSDOF 2
ENDMDL
MODEL 9
REMARK VINA RESULT:    -3.191     17.983     19.186
REMARK INTER + INTRA:          -3.523
REMARK INTER:                  -3.485
REMARK INTRA:                  -0.038
REMARK UNBOUND:                -0.052
REMARK  Name = 
REMARK  3 active torsions:
REMARK  status: ('A' for Active; 'I' for Inactive)
REMARK    1  A    between atoms: C_1  and  O_2
REMARK    2  A    between atoms: O_2  and  C_3
REMARK    3  A    between atoms: C_8  and  O_9
REMARK                            x       y       z     vdW  Elec       q    Type
REMARK                         _______ _______ _______ _____ _____    ______ ____
ROOT
ATOM      1  C   UNL     1      -5.696  14.723 -10.200  0.00  0.00    +0.000 A 
ATOM      2  C   UNL     1      -4.940  15.733 -10.795  0.00  0.00    +0.000 A 
ATOM      3  C   UNL     1      -4.078  15.428 -11.856  0.00  0.00    +0.000 A 
ATOM      4  C   UNL     1      -3.969  14.118 -12.326  0.00  0.00    +0.000 A 
ATOM      5  C   UNL     1      -4.721  13.104 -11.737  0.00  0.00    +0.000 A 
ATOM      6  C   UNL     1      -5.573  13.415 -10.684  0.00  0.00    +0.000 A 
ENDROOT
BRANCH   1   8
ATOM      7  C   UNL     1      -6.495  16.097  -8.433  0.00  0.00    +0.000 C 
ATOM      8  O   UNL     1      -6.575  14.876  -9.158  0.00  0.00    +0.000 OA
ENDBRANCH   1   8
BRANCH   6   9
ATOM      9  O   UNL     1      -6.302  12.402 -10.122  0.00  0.00    +0.000 OA
ATOM     10  H   UNL     1      -6.751  11.972 -10.874  0.00  0.00    +0.000 HD
ENDBRANCH   6   9
TORSDOF 2
ENDMDL
