MODEL 1
REMARK VINA RESULT:    -3.629      0.000      0.000
REMARK INTER + INTRA:          -5.664
REMARK INTER:                  -4.902
REMARK INTRA:                  -0.761
REMARK UNBOUND:                -0.761
REMARK  Name = 
REMARK  10 active torsions:
REMARK  status: ('A' for Active; 'I' for Inactive)
REMARK    1  A    between atoms: C_1  and  C_2
REMARK    2  A    between atoms: C_5  and  N_8
REMARK    3  A    between atoms: N_8  and  C_9
REMARK    4  A    between atoms: N_8  and  C_13
REMARK    5  A    between atoms: C_9  and  C_10
REMARK    6  A    between atoms: C_10  and  C_11
REMARK    7  A    between atoms: C_10  and  O_12
REMARK    8  A    between atoms: C_13  and  C_14
REMARK    9  A    between atoms: C_14  and  C_15
REMARK   10  A    between atoms: C_14  and  O_16
REMARK                            x       y       z     vdW  Elec       q    Type
REMARK                         _______ _______ _______ _____ _____    ______ ____
ROOT
ATOM      1  N   UNL     1      17.678  19.018   5.050  0.00  0.00    +0.000 N 
ENDROOT
BRANCH   1   6
ATOM      2  C   UNL     1      12.041  19.994   5.825  0.00  0.00    +0.000 C 
ATOM      3  C   UNL     1      13.500  19.741   5.599  0.00  0.00    +0.000 A 
ATOM      4  C   UNL     1      14.000  18.445   5.541  0.00  0.00    +0.000 A 
ATOM      5  C   UNL     1      15.373  18.214   5.359  0.00  0.00    +0.000 A 
ATOM      6  C   UNL     1      16.312  19.255   5.251  0.00  0.00    +0.000 A 
ATOM      7  C   UNL     1      15.772  20.553   5.311  0.00  0.00    +0.000 A 
ATOM      8  C   UNL     1      14.400  20.798   5.490  0.00  0.00    +0.000 A 
ENDBRANCH   1   6
BRANCH   1   9
ATOM      9  C   UNL     1      18.520  18.530   6.169  0.00  0.00    +0.000 C 
BRANCH   9  10
ATOM     10  C   UNL     1      18.701  16.992   6.156  0.00  0.00    +0.000 C 
ATOM     11  C   UNL     1      17.944  16.344   7.309  0.00  0.00    +0.000 C 
BRANCH  10  12
ATOM     12  O   UNL     1      18.215  16.426   4.931  0.00  0.00    +0.000 OA
ATOM     13  H   UNL     1      18.483  17.009   4.202  0.00  0.00    +0.000 HD
ENDBRANCH  10  12
ENDBRANCH   9  10
ENDBRANCH   1   9
BRANCH   1  14
ATOM     14  C   UNL     1      18.423  19.692   3.956  0.00  0.00    +0.000 C 
BRANCH  14  15
ATOM     15  C   UNL     1      18.004  19.175   2.559  0.00  0.00    +0.000 C 
ATOM     16  C   UNL     1      18.666  19.935   1.415  0.00  0.00    +0.000 C 
BRANCH  15  17
ATOM     17  O   UNL     1      18.301  17.789   2.399  0.00  0.00    +0.000 OA
ATOM     18  H   UNL     1      17.462  17.383   2.102  0.00  0.00    +0.000 HD
ENDBRANCH  15  17
ENDBRANCH  14  15
ENDBRANCH   1  14
TORSDOF 7
ENDMDL
MODEL 2
REMARK VINA RESULT:    -3.585      6.020      7.458
REMARK INTER + INTRA:          -5.604
REMARK INTER:                  -5.156
REMARK INTRA:                  -0.448
REMARK UNBOUND:                -0.761
REMARK  Name = 
REMARK  10 active torsions:
REMARK  status: ('A' for Active; 'I' for Inactive)
REMARK    1  A    between atoms: C_1  and  C_2
REMARK    2  A    between atoms: C_5  and  N_8
REMARK    3  A    between atoms: N_8  and  C_9
REMARK    4  A    between atoms: N_8  and  C_13
REMARK    5  A    between atoms: C_9  and  C_10
REMARK    6  A    between atoms: C_10  and  C_11
REMARK    7  A    between atoms: C_10  and  O_12
REMARK    8  A    between atoms: C_13  and  C_14
REMARK    9  A    between atoms: C_14  and  C_15
REMARK   10  A    between atoms: C_14  and  O_16
REMARK                            x       y       z     vdW  Elec       q    Type
REMARK                         _______ _______ _______ _____ _____    ______ ____
ROOT
ATOM      1  N   UNL     1      16.950  20.348  -2.011  0.00  0.00    +0.000 N 
ENDROOT
BRANCH   1   6
ATOM      2  C   UNL     1      11.713  22.619  -1.154  0.00  0.00    +0.000 C 
ATOM      3  C   UNL     1      13.069  22.032  -1.401  0.00  0.00    +0.000 A 
ATOM      4  C   UNL     1      13.242  20.657  -1.512  0.00  0.00    +0.000 A 
ATOM      5  C   UNL     1      14.520  20.110  -1.714  0.00  0.00    +0.000 A 
ATOM      6  C   UNL     1      15.682  20.898  -1.791  0.00  0.00    +0.000 A 
ATOM      7  C   UNL     1      15.469  22.285  -1.676  0.00  0.00    +0.000 A 
ATOM      8  C   UNL     1      14.196  22.845  -1.476  0.00  0.00    +0.000 A 
ENDBRANCH   1   6
BRANCH   1   9
ATOM      9  C   UNL     1      17.083  18.933  -2.433  0.00  0.00    +0.000 C 
BRANCH   9  10
ATOM     10  C   UNL     1      17.851  18.774  -3.769  0.00  0.00    +0.000 C 
ATOM     11  C   UNL     1      18.912  17.685  -3.662  0.00  0.00    +0.000 C 
BRANCH  10  12
ATOM     12  O   UNL     1      16.960  18.422  -4.836  0.00  0.00    +0.000 OA
ATOM     13  H   UNL     1      16.133  18.095  -4.443  0.00  0.00    +0.000 HD
ENDBRANCH  10  12
ENDBRANCH   9  10
ENDBRANCH   1   9
BRANCH   1  14
ATOM     14  C   UNL     1      18.161  20.925  -1.373  0.00  0.00    +0.000 C 
BRANCH  14  15
ATOM     15  C   UNL     1      18.210  20.644   0.148  0.00  0.00    +0.000 C 
ATOM     16  C   UNL     1      19.514  19.995   0.596  0.00  0.00    +0.000 C 
BRANCH  15  17
ATOM     17  O   UNL     1      18.025  21.836   0.911  0.00  0.00    +0.000 OA
ATOM     18  H   UNL     1      18.773  22.415   0.660  0.00  0.00    +0.000 HD
ENDBRANCH  15  17
ENDBRANCH  14  15
ENDBRANCH   1  14
TORSDOF 7
ENDMDL
MODEL 3
REMARK VINA RESULT:    -3.519      0.628      3.293
REMARK INTER + INTRA:          -5.515
REMARK INTER:                  -4.886
REMARK INTRA:                  -0.629
REMARK UNBOUND:                -0.761
REMARK  Name = 
REMARK  10 active torsions:
REMARK  status: ('A' for Active; 'I' for Inactive)
REMARK    1  A    between atoms: C_1  and  C_2
REMARK    2  A    between atoms: C_5  and  N_8
REMARK    3  A    between atoms: N_8  and  C_9
REMARK    4  A    between atoms: N_8  and  C_13
REMARK    5  A    between atoms: C_9  and  C_10
REMARK    6  A    between atoms: C_10  and  C_11
REMARK    7  A    between atoms: C_10  and  O_12
REMARK    8  A    between atoms: C_13  and  C_14
REMARK    9  A    between atoms: C_14  and  C_15
REMARK   10  A    between atoms: C_14  and  O_16
REMARK                            x       y       z     vdW  Elec       q    Type
REMARK                         _______ _______ _______ _____ _____    ______ ____
ROOT
ATOM      1  N   UNL     1      17.662  19.184   5.670  0.00  0.00    +0.000 N 
ENDROOT
BRANCH   1   6
ATOM      2  C   UNL     1      11.944  19.969   5.541  0.00  0.00    +0.000 C 
ATOM      3  C   UNL     1      13.427  19.767   5.600  0.00  0.00    +0.000 A 
ATOM      4  C   UNL     1      14.299  20.846   5.508  0.00  0.00    +0.000 A 
ATOM      5  C   UNL     1      15.689  20.648   5.533  0.00  0.00    +0.000 A 
ATOM      6  C   UNL     1      16.275  19.372   5.626  0.00  0.00    +0.000 A 
ATOM      7  C   UNL     1      15.363  18.305   5.719  0.00  0.00    +0.000 A 
ATOM      8  C   UNL     1      13.971  18.489   5.698  0.00  0.00    +0.000 A 
ENDBRANCH   1   6
BRANCH   1   9
ATOM      9  C   UNL     1      18.491  19.478   4.477  0.00  0.00    +0.000 C 
BRANCH   9  10
ATOM     10  C   UNL     1      17.773  19.136   3.148  0.00  0.00    +0.000 C 
ATOM     11  C   UNL     1      18.109  20.157   2.068  0.00  0.00    +0.000 C 
BRANCH  10  12
ATOM     12  O   UNL     1      18.162  17.840   2.672  0.00  0.00    +0.000 OA
ATOM     13  H   UNL     1      17.682  17.666   1.845  0.00  0.00    +0.000 HD
ENDBRANCH  10  12
ENDBRANCH   9  10
ENDBRANCH   1   9
BRANCH   1  14
ATOM     14  C   UNL     1      18.280  18.246   6.643  0.00  0.00    +0.000 C 
BRANCH  14  15
ATOM     15  C   UNL     1      18.946  17.036   5.946  0.00  0.00    +0.000 C 
ATOM     16  C   UNL     1      19.663  16.105   6.917  0.00  0.00    +0.000 C 
BRANCH  15  17
ATOM     17  O   UNL     1      17.998  16.263   5.212  0.00  0.00    +0.000 OA
ATOM     18  H   UNL     1      17.165  16.333   5.722  0.00  0.00    +0.000 HD
ENDBRANCH  15  17
ENDBRANCH  14  15
ENDBRANCH   1  14
TORSDOF 7
ENDMDL
MODEL 4
REMARK VINA RESULT:    -3.504      6.355      7.312
REMARK INTER + INTRA:          -5.494
REMARK INTER:                  -5.036
REMARK INTRA:                  -0.458
REMARK UNBOUND:                -0.761
REMARK  Name = 
REMARK  10 active torsions:
REMARK  status: ('A' for Active; 'I' for Inactive)
REMARK    1  A    between atoms: C_1  and  C_2
REMARK    2  A    between atoms: C_5  and  N_8
REMARK    3  A    between atoms: N_8  and  C_9
REMARK    4  A    between atoms: N_8  and  C_13
REMARK    5  A    between atoms: C_9  and  C_10
REMARK    6  A    between atoms: C_10  and  C_11
REMARK    7  A    between atoms: C_10  and  O_12
REMARK    8  A    between atoms: C_13  and  C_14
REMARK    9  A    between atoms: C_14  and  C_15
REMARK   10  A    between atoms: C_14  and  O_16
REMARK                            x       y       z     vdW  Elec       q    Type
REMARK                         _______ _______ _______ _____ _____    ______ ____
ROOT
ATOM      1  N   UNL     1      16.942  19.726  -2.094  0.00  0.00    +0.000 N 
ENDROOT
BRANCH   1   6
ATOM      2  C   UNL     1      11.933  22.445  -1.169  0.00  0.00    +0.000 C 
ATOM      3  C   UNL     1      13.229  21.741  -1.434  0.00  0.00    +0.000 A 
ATOM      4  C   UNL     1      13.288  20.353  -1.496  0.00  0.00    +0.000 A 
ATOM      5  C   UNL     1      14.511  19.697  -1.714  0.00  0.00    +0.000 A 
ATOM      6  C   UNL     1      15.729  20.386  -1.857  0.00  0.00    +0.000 A 
ATOM      7  C   UNL     1      15.631  21.788  -1.790  0.00  0.00    +0.000 A 
ATOM      8  C   UNL     1      14.415  22.456  -1.575  0.00  0.00    +0.000 A 
ENDBRANCH   1   6
BRANCH   1   9
ATOM      9  C   UNL     1      18.221  20.470  -2.007  0.00  0.00    +0.000 C 
BRANCH   9  10
ATOM     10  C   UNL     1      18.868  20.391  -0.602  0.00  0.00    +0.000 C 
ATOM     11  C   UNL     1      18.778  21.733   0.115  0.00  0.00    +0.000 C 
BRANCH  10  12
ATOM     12  O   UNL     1      18.212  19.409   0.211  0.00  0.00    +0.000 OA
ATOM     13  H   UNL     1      18.436  18.530  -0.139  0.00  0.00    +0.000 HD
ENDBRANCH  10  12
ENDBRANCH   9  10
ENDBRANCH   1   9
BRANCH   1  14
ATOM     14  C   UNL     1      16.995  18.484  -2.906  0.00  0.00    +0.000 C 
BRANCH  14  15
ATOM     15  C   UNL     1      18.003  18.593  -4.075  0.00  0.00    +0.000 C 
ATOM     16  C   UNL     1      19.152  17.597  -3.972  0.00  0.00    +0.000 C 
BRANCH  15  17
ATOM     17  O   UNL     1      17.367  18.405  -5.338  0.00  0.00    +0.000 OA
ATOM     18  H   UNL     1      17.975  18.809  -5.990  0.00  0.00    +0.000 HD
ENDBRANCH  15  17
ENDBRANCH  14  15
ENDBRANCH   1  14
TORSDOF 7
ENDMDL
MODEL 5
REMARK VINA RESULT:    -3.353      7.569      8.670
REMARK INTER + INTRA:          -5.291
REMARK INTER:                  -4.874
REMARK INTRA:                  -0.417
REMARK UNBOUND:                -0.761
REMARK  Name = 
REMARK  10 active torsions:
REMARK  status: ('A' for Active; 'I' for Inactive)
REMARK    1  A    between atoms: C_1  and  C_2
REMARK    2  A    between atoms: C_5  and  N_8
REMARK    3  A    between atoms: N_8  and  C_9
REMARK    4  A    between atoms: N_8  and  C_13
REMARK    5  A    between atoms: C_9  and  C_10
REMARK    6  A    between atoms: C_10  and  C_11
REMARK    7  A    between atoms: C_10  and  O_12
REMARK    8  A    between atoms: C_13  and  C_14
REMARK    9  A    between atoms: C_14  and  C_15
REMARK   10  A    between atoms: C_14  and  O_16
REMARK                            x       y       z     vdW  Elec       q    Type
REMARK                         _______ _______ _______ _____ _____    ______ ____
ROOT
ATOM      1  N   UNL     1      16.833  20.812  -2.533  0.00  0.00    +0.000 N 
ENDROOT
BRANCH   1   6
ATOM      2  C   UNL     1      11.649  22.618  -0.745  0.00  0.00    +0.000 C 
ATOM      3  C   UNL     1      12.987  22.154  -1.233  0.00  0.00    +0.000 A 
ATOM      4  C   UNL     1      13.217  20.813  -1.521  0.00  0.00    +0.000 A 
ATOM      5  C   UNL     1      14.482  20.379  -1.949  0.00  0.00    +0.000 A 
ATOM      6  C   UNL     1      15.579  21.249  -2.087  0.00  0.00    +0.000 A 
ATOM      7  C   UNL     1      15.310  22.597  -1.788  0.00  0.00    +0.000 A 
ATOM      8  C   UNL     1      14.049  23.045  -1.362  0.00  0.00    +0.000 A 
ENDBRANCH   1   6
BRANCH   1   9
ATOM      9  C   UNL     1      17.516  21.522  -3.641  0.00  0.00    +0.000 C 
BRANCH   9  10
ATOM     10  C   UNL     1      16.535  22.019  -4.730  0.00  0.00    +0.000 C 
ATOM     11  C   UNL     1      17.274  22.789  -5.819  0.00  0.00    +0.000 C 
BRANCH  10  12
ATOM     12  O   UNL     1      15.853  20.919  -5.349  0.00  0.00    +0.000 OA
ATOM     13  H   UNL     1      16.346  20.107  -5.147  0.00  0.00    +0.000 HD
ENDBRANCH  10  12
ENDBRANCH   9  10
ENDBRANCH   1   9
BRANCH   1  14
ATOM     14  C   UNL     1      17.281  19.413  -2.317  0.00  0.00    +0.000 C 
BRANCH  14  15
ATOM     15  C   UNL     1      17.717  18.729  -3.636  0.00  0.00    +0.000 C 
ATOM     16  C   UNL     1      18.658  17.550  -3.417  0.00  0.00    +0.000 C 
BRANCH  15  17
ATOM     17  O   UNL     1      16.595  18.267  -4.385  0.00  0.00    +0.000 OA
ATOM     18  H   UNL     1      16.723  18.633  -5.284  0.00  0.00    +0.000 HD
ENDBRANCH  15  17
ENDBRANCH  14  15
ENDBRANCH   1  14
TORSDOF 7
ENDMDL
MODEL 6
REMARK VINA RESULT:    -3.320      7.854      8.655
REMARK INTER + INTRA:          -5.246
REMARK INTER:                  -4.515
REMARK INTRA:                  -0.731
REMARK UNBOUND:                -0.761
REMARK  Name = 
REMARK  10 active torsions:
REMARK  status: ('A' for Active; 'I' for Inactive)
REMARK    1  A    between atoms: C_1  and  C_2
REMARK    2  A    between atoms: C_5  and  N_8
REMARK    3  A    between atoms: N_8  and  C_9
REMARK    4  A    between atoms: N_8  and  C_13
REMARK    5  A    between atoms: C_9  and  C_10
REMARK    6  A    between atoms: C_10  and  C_11
REMARK    7  A    between atoms: C_10  and  O_12
REMARK    8  A    between atoms: C_13  and  C_14
REMARK    9  A    between atoms: C_14  and  C_15
REMARK   10  A    between atoms: C_14  and  O_16
REMARK                            x       y       z     vdW  Elec       q    Type
REMARK                         _______ _______ _______ _____ _____    ______ ____
ROOT
ATOM      1  N   UNL     1      16.831  21.127  -3.315  0.00  0.00    +0.000 N 
ENDROOT
BRANCH   1   6
ATOM      2  C   UNL     1      11.828  22.455  -0.761  0.00  0.00    +0.000 C 
ATOM      3  C   UNL     1      13.114  22.109  -1.446  0.00  0.00    +0.000 A 
ATOM      4  C   UNL     1      13.526  20.786  -1.566  0.00  0.00    +0.000 A 
ATOM      5  C   UNL     1      14.748  20.470  -2.183  0.00  0.00    +0.000 A 
ATOM      6  C   UNL     1      15.624  21.450  -2.684  0.00  0.00    +0.000 A 
ATOM      7  C   UNL     1      15.174  22.776  -2.547  0.00  0.00    +0.000 A 
ATOM      8  C   UNL     1      13.954  23.106  -1.935  0.00  0.00    +0.000 A 
ENDBRANCH   1   6
BRANCH   1   9
ATOM      9  C   UNL     1      17.621  19.958  -2.856  0.00  0.00    +0.000 C 
BRANCH   9  10
ATOM     10  C   UNL     1      17.884  18.931  -3.984  0.00  0.00    +0.000 C 
ATOM     11  C   UNL     1      18.510  17.658  -3.427  0.00  0.00    +0.000 C 
BRANCH  10  12
ATOM     12  O   UNL     1      16.664  18.572  -4.648  0.00  0.00    +0.000 OA
ATOM     13  H   UNL     1      16.226  17.882  -4.122  0.00  0.00    +0.000 HD
ENDBRANCH  10  12
ENDBRANCH   9  10
ENDBRANCH   1   9
BRANCH   1  14
ATOM     14  C   UNL     1      17.608  22.150  -4.061  0.00  0.00    +0.000 C 
BRANCH  14  15
ATOM     15  C   UNL     1      17.283  22.142  -5.574  0.00  0.00    +0.000 C 
ATOM     16  C   UNL     1      18.460  21.703  -6.437  0.00  0.00    +0.000 C 
BRANCH  15  17
ATOM     17  O   UNL     1      16.176  21.293  -5.871  0.00  0.00    +0.000 OA
ATOM     18  H   UNL     1      16.281  21.062  -6.816  0.00  0.00    +0.000 HD
ENDBRANCH  15  17
ENDBRANCH  14  15
ENDBRANCH   1  14
TORSDOF 7
ENDMDL
MODEL 7
REMARK VINA RESULT:    -3.221     21.105     23.019
REMARK INTER + INTRA:          -5.112
REMARK INTER:                  -4.553
REMARK INTRA:                  -0.560
REMARK UNBOUND:                -0.761
REMARK  Name = 
REMARK  10 active torsions:
REMARK  status: ('A' for Active; 'I' for Inactive)
REMARK    1  A    between atoms: C_1  and  C_2
REMARK    2  A    between atoms: C_5  and  N_8
REMARK    3  A    between atoms: N_8  and  C_9
REMARK    4  A    between atoms: N_8  and  C_13
REMARK    5  A    between atoms: C_9  and  C_10
REMARK    6  A    between atoms: C_10  and  C_11
REMARK    7  A    between atoms: C_10  and  O_12
REMARK    8  A    between atoms: C_13  and  C_14
REMARK    9  A    between atoms: C_14  and  C_15
REMARK   10  A    between atoms: C_14  and  O_16
REMARK                            x       y       z     vdW  Elec       q    Type
REMARK                         _______ _______ _______ _____ _____    ______ ____
ROOT
ATOM      1  N   UNL     1       0.997  21.646 -11.953  0.00  0.00    +0.000 N 
ENDROOT
BRANCH   1   6
ATOM      2  C   UNL     1       2.171  16.209 -13.497  0.00  0.00    +0.000 C 
ATOM      3  C   UNL     1       1.853  17.623 -13.117  0.00  0.00    +0.000 A 
ATOM      4  C   UNL     1       2.706  18.665 -13.465  0.00  0.00    +0.000 A 
ATOM      5  C   UNL     1       2.419  19.985 -13.080  0.00  0.00    +0.000 A 
ATOM      6  C   UNL     1       1.288  20.325 -12.316  0.00  0.00    +0.000 A 
ATOM      7  C   UNL     1       0.447  19.247 -11.984  0.00  0.00    +0.000 A 
ATOM      8  C   UNL     1       0.722  17.923 -12.364  0.00  0.00    +0.000 A 
ENDBRANCH   1   6
BRANCH   1   9
ATOM      9  C   UNL     1       2.028  22.479 -11.287  0.00  0.00    +0.000 C 
BRANCH   9  10
ATOM     10  C   UNL     1       2.872  21.683 -10.262  0.00  0.00    +0.000 C 
ATOM     11  C   UNL     1       4.346  22.059 -10.360  0.00  0.00    +0.000 C 
BRANCH  10  12
ATOM     12  O   UNL     1       2.434  21.944  -8.921  0.00  0.00    +0.000 OA
ATOM     13  H   UNL     1       3.076  22.546  -8.507  0.00  0.00    +0.000 HD
ENDBRANCH  10  12
ENDBRANCH   9  10
ENDBRANCH   1   9
BRANCH   1  14
ATOM     14  C   UNL     1      -0.403  22.093 -11.733  0.00  0.00    +0.000 C 
BRANCH  14  15
ATOM     15  C   UNL     1      -0.676  22.455 -10.254  0.00  0.00    +0.000 C 
ATOM     16  C   UNL     1      -2.055  23.064 -10.030  0.00  0.00    +0.000 C 
BRANCH  15  17
ATOM     17  O   UNL     1      -0.552  21.318  -9.401  0.00  0.00    +0.000 OA
ATOM     18  H   UNL     1      -0.074  21.644  -8.612  0.00  0.00    +0.000 HD
ENDBRANCH  15  17
ENDBRANCH  14  15
ENDBRANCH   1  14
TORSDOF 7
ENDMDL
MODEL 8
REMARK VINA RESULT:    -3.198      8.667     12.520
REMARK INTER + INTRA:          -5.082
REMARK INTER:                  -4.326
REMARK INTRA:                  -0.755
REMARK UNBOUND:                -0.761
REMARK  Name = 
REMARK  10 active torsions:
REMARK  status: ('A' for Active; 'I' for Inactive)
REMARK    1  A    between atoms: C_1  and  C_2
REMARK    2  A    between atoms: C_5  and  N_8
REMARK    3  A    between atoms: N_8  and  C_9
REMARK    4  A    between atoms: N_8  and  C_13
REMARK    5  A    between atoms: C_9  and  C_10
REMARK    6  A    between atoms: C_10  and  C_11
REMARK    7  A    between atoms: C_10  and  O_12
REMARK    8  A    between atoms: C_13  and  C_14
REMARK    9  A    between atoms: C_14  and  C_15
REMARK   10  A    between atoms: C_14  and  O_16
REMARK                            x       y       z     vdW  Elec       q    Type
REMARK                         _______ _______ _______ _____ _____    ______ ____
ROOT
ATOM      1  N   UNL     1      18.730  19.689  -5.470  0.00  0.00    +0.000 N 
ENDROOT
BRANCH   1   6
ATOM      2  C   UNL     1      19.241  17.998 -10.967  0.00  0.00    +0.000 C 
ATOM      3  C   UNL     1      19.084  18.435  -9.542  0.00  0.00    +0.000 A 
ATOM      4  C   UNL     1      18.980  19.783  -9.216  0.00  0.00    +0.000 A 
ATOM      5  C   UNL     1      18.863  20.188  -7.876  0.00  0.00    +0.000 A 
ATOM      6  C   UNL     1      18.867  19.279  -6.803  0.00  0.00    +0.000 A 
ATOM      7  C   UNL     1      18.972  17.925  -7.170  0.00  0.00    +0.000 A 
ATOM      8  C   UNL     1      19.087  17.506  -8.506  0.00  0.00    +0.000 A 
ENDBRANCH   1   6
BRANCH   1   9
ATOM      9  C   UNL     1      18.850  21.124  -5.118  0.00  0.00    +0.000 C 
BRANCH   9  10
ATOM     10  C   UNL     1      17.476  21.812  -4.925  0.00  0.00    +0.000 C 
ATOM     11  C   UNL     1      17.437  23.161  -5.633  0.00  0.00    +0.000 C 
BRANCH  10  12
ATOM     12  O   UNL     1      16.417  21.002  -5.453  0.00  0.00    +0.000 OA
ATOM     13  H   UNL     1      15.584  21.288  -5.041  0.00  0.00    +0.000 HD
ENDBRANCH  10  12
ENDBRANCH   9  10
ENDBRANCH   1   9
BRANCH   1  14
ATOM     14  C   UNL     1      18.975  18.748  -4.347  0.00  0.00    +0.000 C 
BRANCH  14  15
ATOM     15  C   UNL     1      17.660  18.288  -3.673  0.00  0.00    +0.000 C 
ATOM     16  C   UNL     1      17.326  19.075  -2.411  0.00  0.00    +0.000 C 
BRANCH  15  17
ATOM     17  O   UNL     1      16.549  18.388  -4.562  0.00  0.00    +0.000 OA
ATOM     18  H   UNL     1      16.404  19.348  -4.680  0.00  0.00    +0.000 HD
ENDBRANCH  15  17
ENDBRANCH  14  15
ENDBRANCH   1  14
TORSDOF 7
ENDMDL
