MODEL 1
REMARK VINA RESULT:    -5.645      0.000      0.000
REMARK INTER + INTRA:          -8.262
REMARK INTER:                  -7.625
REMARK INTRA:                  -0.638
REMARK UNBOUND:                -0.638
REMARK  Name = 
REMARK  10 active torsions:
REMARK  status: ('A' for Active; 'I' for Inactive)
REMARK    1  A    between atoms: C_1  and  C_2
REMARK    2  A    between atoms: C_5  and  N_8
REMARK    3  A    between atoms: N_8  and  C_9
REMARK    4  A    between atoms: N_8  and  C_13
REMARK    5  A    between atoms: C_9  and  C_10
REMARK    6  A    between atoms: C_10  and  C_11
REMARK    7  A    between atoms: C_10  and  O_12
REMARK    8  A    between atoms: C_13  and  C_14
REMARK    9  A    between atoms: C_14  and  C_15
REMARK   10  A    between atoms: C_14  and  O_16
REMARK                            x       y       z     vdW  Elec       q    Type
REMARK                         _______ _______ _______ _____ _____    ______ ____
ROOT
ATOM      1  N   UNL     1     -11.084  21.336  -0.998  0.00  0.00    +0.000 N 
ENDROOT
BRANCH   1   6
ATOM      2  C   UNL     1      -9.299  18.470   3.685  0.00  0.00    +0.000 C 
ATOM      3  C   UNL     1      -9.741  19.207   2.457  0.00  0.00    +0.000 A 
ATOM      4  C   UNL     1      -9.433  20.551   2.281  0.00  0.00    +0.000 A 
ATOM      5  C   UNL     1      -9.876  21.245   1.143  0.00  0.00    +0.000 A 
ATOM      6  C   UNL     1     -10.662  20.643   0.144  0.00  0.00    +0.000 A 
ATOM      7  C   UNL     1     -10.953  19.283   0.353  0.00  0.00    +0.000 A 
ATOM      8  C   UNL     1     -10.514  18.577   1.486  0.00  0.00    +0.000 A 
ENDBRANCH   1   6
BRANCH   1   9
ATOM      9  C   UNL     1     -11.996  22.498  -0.869  0.00  0.00    +0.000 C 
BRANCH   9  10
ATOM     10  C   UNL     1     -13.371  22.117  -0.267  0.00  0.00    +0.000 C 
ATOM     11  C   UNL     1     -13.936  23.260   0.567  0.00  0.00    +0.000 C 
BRANCH  10  12
ATOM     12  O   UNL     1     -14.318  21.811  -1.300  0.00  0.00    +0.000 OA
ATOM     13  H   UNL     1     -14.462  22.616  -1.825  0.00  0.00    +0.000 HD
ENDBRANCH  10  12
ENDBRANCH   9  10
ENDBRANCH   1   9
BRANCH   1  14
ATOM     14  C   UNL     1     -11.087  20.686  -2.334  0.00  0.00    +0.000 C 
BRANCH  14  15
ATOM     15  C   UNL     1     -11.733  21.582  -3.418  0.00  0.00    +0.000 C 
ATOM     16  C   UNL     1     -10.820  21.829  -4.614  0.00  0.00    +0.000 C 
BRANCH  15  17
ATOM     17  O   UNL     1     -12.954  21.026  -3.903  0.00  0.00    +0.000 OA
ATOM     18  H   UNL     1     -13.590  21.131  -3.166  0.00  0.00    +0.000 HD
ENDBRANCH  15  17
ENDBRANCH  14  15
ENDBRANCH   1  14
TORSDOF 7
ENDMDL
MODEL 2
REMARK VINA RESULT:    -5.621      0.278      2.916
REMARK INTER + INTRA:          -8.231
REMARK INTER:                  -7.625
REMARK INTRA:                  -0.606
REMARK UNBOUND:                -0.638
REMARK  Name = 
REMARK  10 active torsions:
REMARK  status: ('A' for Active; 'I' for Inactive)
REMARK    1  A    between atoms: C_1  and  C_2
REMARK    2  A    between atoms: C_5  and  N_8
REMARK    3  A    between atoms: N_8  and  C_9
REMARK    4  A    between atoms: N_8  and  C_13
REMARK    5  A    between atoms: C_9  and  C_10
REMARK    6  A    between atoms: C_10  and  C_11
REMARK    7  A    between atoms: C_10  and  O_12
REMARK    8  A    between atoms: C_13  and  C_14
REMARK    9  A    between atoms: C_14  and  C_15
REMARK   10  A    between atoms: C_14  and  O_16
REMARK                            x       y       z     vdW  Elec       q    Type
REMARK                         _______ _______ _______ _____ _____    ______ ____
ROOT
ATOM      1  N   UNL     1     -11.454  21.191  -0.969  0.00  0.00    +0.000 N 
ENDROOT
BRANCH   1   6
ATOM      2  C   UNL     1      -9.258  18.455   3.616  0.00  0.00    +0.000 C 
ATOM      3  C   UNL     1      -9.808  19.157   2.412  0.00  0.00    +0.000 A 
ATOM      4  C   UNL     1      -9.514  20.495   2.169  0.00  0.00    +0.000 A 
ATOM      5  C   UNL     1     -10.057  21.156   1.056  0.00  0.00    +0.000 A 
ATOM      6  C   UNL     1     -10.932  20.530   0.150  0.00  0.00    +0.000 A 
ATOM      7  C   UNL     1     -11.206  19.178   0.426  0.00  0.00    +0.000 A 
ATOM      8  C   UNL     1     -10.668  18.503   1.534  0.00  0.00    +0.000 A 
ENDBRANCH   1   6
BRANCH   1   9
ATOM      9  C   UNL     1     -10.855  20.973  -2.308  0.00  0.00    +0.000 C 
BRANCH   9  10
ATOM     10  C   UNL     1     -11.657  21.656  -3.442  0.00  0.00    +0.000 C 
ATOM     11  C   UNL     1     -10.776  21.898  -4.663  0.00  0.00    +0.000 C 
BRANCH  10  12
ATOM     12  O   UNL     1     -12.767  20.845  -3.849  0.00  0.00    +0.000 OA
ATOM     13  H   UNL     1     -12.536  20.417  -4.690  0.00  0.00    +0.000 HD
ENDBRANCH  10  12
ENDBRANCH   9  10
ENDBRANCH   1   9
BRANCH   1  14
ATOM     14  C   UNL     1     -12.223  22.454  -0.827  0.00  0.00    +0.000 C 
BRANCH  14  15
ATOM     15  C   UNL     1     -13.702  22.199  -0.450  0.00  0.00    +0.000 C 
ATOM     16  C   UNL     1     -14.318  23.332   0.363  0.00  0.00    +0.000 C 
BRANCH  15  17
ATOM     17  O   UNL     1     -14.513  21.993  -1.606  0.00  0.00    +0.000 OA
ATOM     18  H   UNL     1     -15.387  22.365  -1.371  0.00  0.00    +0.000 HD
ENDBRANCH  15  17
ENDBRANCH  14  15
ENDBRANCH   1  14
TORSDOF 7
ENDMDL
MODEL 3
REMARK VINA RESULT:    -5.477      1.123      3.202
REMARK INTER + INTRA:          -8.036
REMARK INTER:                  -7.376
REMARK INTRA:                  -0.660
REMARK UNBOUND:                -0.638
REMARK  Name = 
REMARK  10 active torsions:
REMARK  status: ('A' for Active; 'I' for Inactive)
REMARK    1  A    between atoms: C_1  and  C_2
REMARK    2  A    between atoms: C_5  and  N_8
REMARK    3  A    between atoms: N_8  and  C_9
REMARK    4  A    between atoms: N_8  and  C_13
REMARK    5  A    between atoms: C_9  and  C_10
REMARK    6  A    between atoms: C_10  and  C_11
REMARK    7  A    between atoms: C_10  and  O_12
REMARK    8  A    between atoms: C_13  and  C_14
REMARK    9  A    between atoms: C_14  and  C_15
REMARK   10  A    between atoms: C_14  and  O_16
REMARK                            x       y       z     vdW  Elec       q    Type
REMARK                         _______ _______ _______ _____ _____    ______ ____
ROOT
ATOM      1  N   UNL     1     -11.582  21.609  -1.937  0.00  0.00    +0.000 N 
ENDROOT
BRANCH   1   6
ATOM      2  C   UNL     1      -8.861  18.461   2.065  0.00  0.00    +0.000 C 
ATOM      3  C   UNL     1      -9.545  19.288   1.020  0.00  0.00    +0.000 A 
ATOM      4  C   UNL     1     -10.096  20.525   1.337  0.00  0.00    +0.000 A 
ATOM      5  C   UNL     1     -10.763  21.283   0.360  0.00  0.00    +0.000 A 
ATOM      6  C   UNL     1     -10.933  20.839  -0.964  0.00  0.00    +0.000 A 
ATOM      7  C   UNL     1     -10.361  19.586  -1.249  0.00  0.00    +0.000 A 
ATOM      8  C   UNL     1      -9.689  18.819  -0.282  0.00  0.00    +0.000 A 
ENDBRANCH   1   6
BRANCH   1   9
ATOM      9  C   UNL     1     -11.052  21.658  -3.321  0.00  0.00    +0.000 C 
BRANCH   9  10
ATOM     10  C   UNL     1     -12.162  21.530  -4.393  0.00  0.00    +0.000 C 
ATOM     11  C   UNL     1     -11.560  21.389  -5.787  0.00  0.00    +0.000 C 
BRANCH  10  12
ATOM     12  O   UNL     1     -12.985  20.382  -4.147  0.00  0.00    +0.000 OA
ATOM     13  H   UNL     1     -12.471  19.588  -4.371  0.00  0.00    +0.000 HD
ENDBRANCH  10  12
ENDBRANCH   9  10
ENDBRANCH   1   9
BRANCH   1  14
ATOM     14  C   UNL     1     -12.448  22.755  -1.560  0.00  0.00    +0.000 C 
BRANCH  14  15
ATOM     15  C   UNL     1     -13.846  22.297  -1.080  0.00  0.00    +0.000 C 
ATOM     16  C   UNL     1     -14.600  23.375  -0.310  0.00  0.00    +0.000 C 
BRANCH  15  17
ATOM     17  O   UNL     1     -14.667  21.878  -2.170  0.00  0.00    +0.000 OA
ATOM     18  H   UNL     1     -14.507  22.537  -2.874  0.00  0.00    +0.000 HD
ENDBRANCH  15  17
ENDBRANCH  14  15
ENDBRANCH   1  14
TORSDOF 7
ENDMDL
MODEL 4
REMARK VINA RESULT:    -5.241      2.140      5.473
REMARK INTER + INTRA:          -7.717
REMARK INTER:                  -6.940
REMARK INTRA:                  -0.777
REMARK UNBOUND:                -0.638
REMARK  Name = 
REMARK  10 active torsions:
REMARK  status: ('A' for Active; 'I' for Inactive)
REMARK    1  A    between atoms: C_1  and  C_2
REMARK    2  A    between atoms: C_5  and  N_8
REMARK    3  A    between atoms: N_8  and  C_9
REMARK    4  A    between atoms: N_8  and  C_13
REMARK    5  A    between atoms: C_9  and  C_10
REMARK    6  A    between atoms: C_10  and  C_11
REMARK    7  A    between atoms: C_10  and  O_12
REMARK    8  A    between atoms: C_13  and  C_14
REMARK    9  A    between atoms: C_14  and  C_15
REMARK   10  A    between atoms: C_14  and  O_16
REMARK                            x       y       z     vdW  Elec       q    Type
REMARK                         _______ _______ _______ _____ _____    ______ ____
ROOT
ATOM      1  N   UNL     1     -11.711  21.860  -1.703  0.00  0.00    +0.000 N 
ENDROOT
BRANCH   1   6
ATOM      2  C   UNL     1     -11.960  20.996  -7.406  0.00  0.00    +0.000 C 
ATOM      3  C   UNL     1     -11.888  21.196  -5.923  0.00  0.00    +0.000 A 
ATOM      4  C   UNL     1     -13.004  20.991  -5.119  0.00  0.00    +0.000 A 
ATOM      5  C   UNL     1     -12.939  21.209  -3.733  0.00  0.00    +0.000 A 
ATOM      6  C   UNL     1     -11.775  21.663  -3.088  0.00  0.00    +0.000 A 
ATOM      7  C   UNL     1     -10.665  21.859  -3.931  0.00  0.00    +0.000 A 
ATOM      8  C   UNL     1     -10.716  21.642  -5.318  0.00  0.00    +0.000 A 
ENDBRANCH   1   6
BRANCH   1   9
ATOM      9  C   UNL     1     -12.286  23.087  -1.100  0.00  0.00    +0.000 C 
BRANCH   9  10
ATOM     10  C   UNL     1     -13.666  22.842  -0.441  0.00  0.00    +0.000 C 
ATOM     11  C   UNL     1     -14.792  23.373  -1.320  0.00  0.00    +0.000 C 
BRANCH  10  12
ATOM     12  O   UNL     1     -13.892  21.442  -0.226  0.00  0.00    +0.000 OA
ATOM     13  H   UNL     1     -13.622  21.229   0.682  0.00  0.00    +0.000 HD
ENDBRANCH  10  12
ENDBRANCH   9  10
ENDBRANCH   1   9
BRANCH   1  14
ATOM     14  C   UNL     1     -10.681  21.182  -0.876  0.00  0.00    +0.000 C 
BRANCH  14  15
ATOM     15  C   UNL     1     -10.903  19.652  -0.805  0.00  0.00    +0.000 C 
ATOM     16  C   UNL     1      -9.618  18.870  -0.562  0.00  0.00    +0.000 C 
BRANCH  15  17
ATOM     17  O   UNL     1     -11.833  19.302   0.219  0.00  0.00    +0.000 OA
ATOM     18  H   UNL     1     -11.740  18.333   0.324  0.00  0.00    +0.000 HD
ENDBRANCH  15  17
ENDBRANCH  14  15
ENDBRANCH   1  14
TORSDOF 7
ENDMDL
MODEL 5
REMARK VINA RESULT:    -5.193      1.540      1.785
REMARK INTER + INTRA:          -7.653
REMARK INTER:                  -7.156
REMARK INTRA:                  -0.497
REMARK UNBOUND:                -0.638
REMARK  Name = 
REMARK  10 active torsions:
REMARK  status: ('A' for Active; 'I' for Inactive)
REMARK    1  A    between atoms: C_1  and  C_2
REMARK    2  A    between atoms: C_5  and  N_8
REMARK    3  A    between atoms: N_8  and  C_9
REMARK    4  A    between atoms: N_8  and  C_13
REMARK    5  A    between atoms: C_9  and  C_10
REMARK    6  A    between atoms: C_10  and  C_11
REMARK    7  A    between atoms: C_10  and  O_12
REMARK    8  A    between atoms: C_13  and  C_14
REMARK    9  A    between atoms: C_14  and  C_15
REMARK   10  A    between atoms: C_14  and  O_16
REMARK                            x       y       z     vdW  Elec       q    Type
REMARK                         _______ _______ _______ _____ _____    ______ ____
ROOT
ATOM      1  N   UNL     1     -12.007  21.778  -0.890  0.00  0.00    +0.000 N 
ENDROOT
BRANCH   1   6
ATOM      2  C   UNL     1      -8.835  17.748   1.761  0.00  0.00    +0.000 C 
ATOM      3  C   UNL     1      -9.638  18.809   1.074  0.00  0.00    +0.000 A 
ATOM      4  C   UNL     1     -10.418  19.700   1.804  0.00  0.00    +0.000 A 
ATOM      5  C   UNL     1     -11.193  20.674   1.153  0.00  0.00    +0.000 A 
ATOM      6  C   UNL     1     -11.247  20.792  -0.248  0.00  0.00    +0.000 A 
ATOM      7  C   UNL     1     -10.445  19.876  -0.954  0.00  0.00    +0.000 A 
ATOM      8  C   UNL     1      -9.664  18.899  -0.315  0.00  0.00    +0.000 A 
ENDBRANCH   1   6
BRANCH   1   9
ATOM      9  C   UNL     1     -13.346  22.142  -0.368  0.00  0.00    +0.000 C 
BRANCH   9  10
ATOM     10  C   UNL     1     -13.417  23.603   0.138  0.00  0.00    +0.000 C 
ATOM     11  C   UNL     1     -14.860  24.026   0.382  0.00  0.00    +0.000 C 
BRANCH  10  12
ATOM     12  O   UNL     1     -12.695  23.757   1.368  0.00  0.00    +0.000 OA
ATOM     13  H   UNL     1     -13.309  23.588   2.101  0.00  0.00    +0.000 HD
ENDBRANCH  10  12
ENDBRANCH   9  10
ENDBRANCH   1   9
BRANCH   1  14
ATOM     14  C   UNL     1     -11.782  22.113  -2.319  0.00  0.00    +0.000 C 
BRANCH  14  15
ATOM     15  C   UNL     1     -13.049  21.889  -3.179  0.00  0.00    +0.000 C 
ATOM     16  C   UNL     1     -13.383  23.076  -4.075  0.00  0.00    +0.000 C 
BRANCH  15  17
ATOM     17  O   UNL     1     -12.929  20.732  -4.004  0.00  0.00    +0.000 OA
ATOM     18  H   UNL     1     -13.599  20.107  -3.663  0.00  0.00    +0.000 HD
ENDBRANCH  15  17
ENDBRANCH  14  15
ENDBRANCH   1  14
TORSDOF 7
ENDMDL
MODEL 6
REMARK VINA RESULT:    -5.086      1.894      4.450
REMARK INTER + INTRA:          -7.508
REMARK INTER:                  -7.172
REMARK INTRA:                  -0.336
REMARK UNBOUND:                -0.638
REMARK  Name = 
REMARK  10 active torsions:
REMARK  status: ('A' for Active; 'I' for Inactive)
REMARK    1  A    between atoms: C_1  and  C_2
REMARK    2  A    between atoms: C_5  and  N_8
REMARK    3  A    between atoms: N_8  and  C_9
REMARK    4  A    between atoms: N_8  and  C_13
REMARK    5  A    between atoms: C_9  and  C_10
REMARK    6  A    between atoms: C_10  and  C_11
REMARK    7  A    between atoms: C_10  and  O_12
REMARK    8  A    between atoms: C_13  and  C_14
REMARK    9  A    between atoms: C_14  and  C_15
REMARK   10  A    between atoms: C_14  and  O_16
REMARK                            x       y       z     vdW  Elec       q    Type
REMARK                         _______ _______ _______ _____ _____    ______ ____
ROOT
ATOM      1  N   UNL     1     -11.519  20.805  -0.606  0.00  0.00    +0.000 N 
ENDROOT
BRANCH   1   6
ATOM      2  C   UNL     1     -14.413  25.494   1.116  0.00  0.00    +0.000 C 
ATOM      3  C   UNL     1     -13.662  24.268   0.692  0.00  0.00    +0.000 A 
ATOM      4  C   UNL     1     -12.272  24.254   0.672  0.00  0.00    +0.000 A 
ATOM      5  C   UNL     1     -11.573  23.113   0.246  0.00  0.00    +0.000 A 
ATOM      6  C   UNL     1     -12.221  21.946  -0.200  0.00  0.00    +0.000 A 
ATOM      7  C   UNL     1     -13.627  21.996  -0.165  0.00  0.00    +0.000 A 
ATOM      8  C   UNL     1     -14.337  23.130   0.262  0.00  0.00    +0.000 A 
ENDBRANCH   1   6
BRANCH   1   9
ATOM      9  C   UNL     1     -11.036  19.831   0.403  0.00  0.00    +0.000 C 
BRANCH   9  10
ATOM     10  C   UNL     1      -9.719  20.277   1.085  0.00  0.00    +0.000 C 
ATOM     11  C   UNL     1      -9.747  19.971   2.578  0.00  0.00    +0.000 C 
BRANCH  10  12
ATOM     12  O   UNL     1      -8.590  19.602   0.514  0.00  0.00    +0.000 OA
ATOM     13  H   UNL     1      -8.860  19.236  -0.345  0.00  0.00    +0.000 HD
ENDBRANCH  10  12
ENDBRANCH   9  10
ENDBRANCH   1   9
BRANCH   1  14
ATOM     14  C   UNL     1     -10.799  20.765  -1.905  0.00  0.00    +0.000 C 
BRANCH  14  15
ATOM     15  C   UNL     1     -11.538  21.563  -3.006  0.00  0.00    +0.000 C 
ATOM     16  C   UNL     1     -10.622  22.014  -4.138  0.00  0.00    +0.000 C 
BRANCH  15  17
ATOM     17  O   UNL     1     -12.606  20.808  -3.577  0.00  0.00    +0.000 OA
ATOM     18  H   UNL     1     -12.424  20.799  -4.538  0.00  0.00    +0.000 HD
ENDBRANCH  15  17
ENDBRANCH  14  15
ENDBRANCH   1  14
TORSDOF 7
ENDMDL
MODEL 7
REMARK VINA RESULT:    -5.025      3.442      5.461
REMARK INTER + INTRA:          -7.425
REMARK INTER:                  -6.643
REMARK INTRA:                  -0.781
REMARK UNBOUND:                -0.638
REMARK  Name = 
REMARK  10 active torsions:
REMARK  status: ('A' for Active; 'I' for Inactive)
REMARK    1  A    between atoms: C_1  and  C_2
REMARK    2  A    between atoms: C_5  and  N_8
REMARK    3  A    between atoms: N_8  and  C_9
REMARK    4  A    between atoms: N_8  and  C_13
REMARK    5  A    between atoms: C_9  and  C_10
REMARK    6  A    between atoms: C_10  and  C_11
REMARK    7  A    between atoms: C_10  and  O_12
REMARK    8  A    between atoms: C_13  and  C_14
REMARK    9  A    between atoms: C_14  and  C_15
REMARK   10  A    between atoms: C_14  and  O_16
REMARK                            x       y       z     vdW  Elec       q    Type
REMARK                         _______ _______ _______ _____ _____    ______ ____
ROOT
ATOM      1  N   UNL     1     -12.023  22.412  -5.572  0.00  0.00    +0.000 N 
ENDROOT
BRANCH   1   6
ATOM      2  C   UNL     1     -11.987  21.406   0.112  0.00  0.00    +0.000 C 
ATOM      3  C   UNL     1     -12.011  21.647  -1.366  0.00  0.00    +0.000 A 
ATOM      4  C   UNL     1     -11.040  21.096  -2.196  0.00  0.00    +0.000 A 
ATOM      5  C   UNL     1     -11.050  21.350  -3.577  0.00  0.00    +0.000 A 
ATOM      6  C   UNL     1     -12.007  22.178  -4.192  0.00  0.00    +0.000 A 
ATOM      7  C   UNL     1     -12.974  22.716  -3.323  0.00  0.00    +0.000 A 
ATOM      8  C   UNL     1     -12.977  22.468  -1.940  0.00  0.00    +0.000 A 
ENDBRANCH   1   6
BRANCH   1   9
ATOM      9  C   UNL     1     -11.461  23.670  -6.120  0.00  0.00    +0.000 C 
BRANCH   9  10
ATOM     10  C   UNL     1      -9.944  23.572  -6.413  0.00  0.00    +0.000 C 
ATOM     11  C   UNL     1      -9.127  24.102  -5.240  0.00  0.00    +0.000 C 
BRANCH  10  12
ATOM     12  O   UNL     1      -9.552  22.213  -6.650  0.00  0.00    +0.000 OA
ATOM     13  H   UNL     1      -9.097  21.888  -5.855  0.00  0.00    +0.000 HD
ENDBRANCH  10  12
ENDBRANCH   9  10
ENDBRANCH   1   9
BRANCH   1  14
ATOM     14  C   UNL     1     -13.000  21.727  -6.457  0.00  0.00    +0.000 C 
BRANCH  14  15
ATOM     15  C   UNL     1     -12.439  20.407  -7.037  0.00  0.00    +0.000 C 
ATOM     16  C   UNL     1     -13.522  19.383  -7.353  0.00  0.00    +0.000 C 
BRANCH  15  17
ATOM     17  O   UNL     1     -11.684  20.633  -8.227  0.00  0.00    +0.000 OA
ATOM     18  H   UNL     1     -10.821  20.974  -7.917  0.00  0.00    +0.000 HD
ENDBRANCH  15  17
ENDBRANCH  14  15
ENDBRANCH   1  14
TORSDOF 7
ENDMDL
MODEL 8
REMARK VINA RESULT:    -5.006      1.995      4.081
REMARK INTER + INTRA:          -7.399
REMARK INTER:                  -6.916
REMARK INTRA:                  -0.483
REMARK UNBOUND:                -0.638
REMARK  Name = 
REMARK  10 active torsions:
REMARK  status: ('A' for Active; 'I' for Inactive)
REMARK    1  A    between atoms: C_1  and  C_2
REMARK    2  A    between atoms: C_5  and  N_8
REMARK    3  A    between atoms: N_8  and  C_9
REMARK    4  A    between atoms: N_8  and  C_13
REMARK    5  A    between atoms: C_9  and  C_10
REMARK    6  A    between atoms: C_10  and  C_11
REMARK    7  A    between atoms: C_10  and  O_12
REMARK    8  A    between atoms: C_13  and  C_14
REMARK    9  A    between atoms: C_14  and  C_15
REMARK   10  A    between atoms: C_14  and  O_16
REMARK                            x       y       z     vdW  Elec       q    Type
REMARK                         _______ _______ _______ _____ _____    ______ ____
ROOT
ATOM      1  N   UNL     1     -11.842  22.082  -3.411  0.00  0.00    +0.000 N 
ENDROOT
BRANCH   1   6
ATOM      2  C   UNL     1     -10.837  19.643   1.724  0.00  0.00    +0.000 C 
ATOM      3  C   UNL     1     -11.117  20.261   0.389  0.00  0.00    +0.000 A 
ATOM      4  C   UNL     1     -10.527  19.762  -0.767  0.00  0.00    +0.000 A 
ATOM      5  C   UNL     1     -10.770  20.364  -2.013  0.00  0.00    +0.000 A 
ATOM      6  C   UNL     1     -11.588  21.498  -2.163  0.00  0.00    +0.000 A 
ATOM      7  C   UNL     1     -12.170  21.974  -0.974  0.00  0.00    +0.000 A 
ATOM      8  C   UNL     1     -11.937  21.380   0.278  0.00  0.00    +0.000 A 
ENDBRANCH   1   6
BRANCH   1   9
ATOM      9  C   UNL     1     -10.727  22.329  -4.356  0.00  0.00    +0.000 C 
BRANCH   9  10
ATOM     10  C   UNL     1     -10.834  21.481  -5.647  0.00  0.00    +0.000 C 
ATOM     11  C   UNL     1     -11.409  22.303  -6.794  0.00  0.00    +0.000 C 
BRANCH  10  12
ATOM     12  O   UNL     1      -9.547  20.993  -6.051  0.00  0.00    +0.000 OA
ATOM     13  H   UNL     1      -9.578  20.022  -6.045  0.00  0.00    +0.000 HD
ENDBRANCH  10  12
ENDBRANCH   9  10
ENDBRANCH   1   9
BRANCH   1  14
ATOM     14  C   UNL     1     -13.050  22.916  -3.638  0.00  0.00    +0.000 C 
BRANCH  14  15
ATOM     15  C   UNL     1     -14.254  22.077  -4.130  0.00  0.00    +0.000 C 
ATOM     16  C   UNL     1     -14.839  22.580  -5.444  0.00  0.00    +0.000 C 
BRANCH  15  17
ATOM     17  O   UNL     1     -13.907  20.704  -4.298  0.00  0.00    +0.000 OA
ATOM     18  H   UNL     1     -14.016  20.531  -5.255  0.00  0.00    +0.000 HD
ENDBRANCH  15  17
ENDBRANCH  14  15
ENDBRANCH   1  14
TORSDOF 7
ENDMDL
MODEL 9
REMARK VINA RESULT:    -4.952      1.936      5.197
REMARK INTER + INTRA:          -7.327
REMARK INTER:                  -7.112
REMARK INTRA:                  -0.215
REMARK UNBOUND:                -0.638
REMARK  Name = 
REMARK  10 active torsions:
REMARK  status: ('A' for Active; 'I' for Inactive)
REMARK    1  A    between atoms: C_1  and  C_2
REMARK    2  A    between atoms: C_5  and  N_8
REMARK    3  A    between atoms: N_8  and  C_9
REMARK    4  A    between atoms: N_8  and  C_13
REMARK    5  A    between atoms: C_9  and  C_10
REMARK    6  A    between atoms: C_10  and  C_11
REMARK    7  A    between atoms: C_10  and  O_12
REMARK    8  A    between atoms: C_13  and  C_14
REMARK    9  A    between atoms: C_14  and  C_15
REMARK   10  A    between atoms: C_14  and  O_16
REMARK                            x       y       z     vdW  Elec       q    Type
REMARK                         _______ _______ _______ _____ _____    ______ ____
ROOT
ATOM      1  N   UNL     1     -11.269  20.957  -0.431  0.00  0.00    +0.000 N 
ENDROOT
BRANCH   1   6
ATOM      2  C   UNL     1     -14.558  25.484   0.990  0.00  0.00    +0.000 C 
ATOM      3  C   UNL     1     -13.705  24.317   0.598  0.00  0.00    +0.000 A 
ATOM      4  C   UNL     1     -14.277  23.096   0.258  0.00  0.00    +0.000 A 
ATOM      5  C   UNL     1     -13.471  21.997  -0.081  0.00  0.00    +0.000 A 
ATOM      6  C   UNL     1     -12.066  22.052  -0.073  0.00  0.00    +0.000 A 
ATOM      7  C   UNL     1     -11.522  23.302   0.273  0.00  0.00    +0.000 A 
ATOM      8  C   UNL     1     -12.316  24.411   0.611  0.00  0.00    +0.000 A 
ENDBRANCH   1   6
BRANCH   1   9
ATOM      9  C   UNL     1     -11.163  20.547  -1.851  0.00  0.00    +0.000 C 
BRANCH   9  10
ATOM     10  C   UNL     1     -11.738  21.604  -2.826  0.00  0.00    +0.000 C 
ATOM     11  C   UNL     1     -10.719  21.967  -3.900  0.00  0.00    +0.000 C 
BRANCH  10  12
ATOM     12  O   UNL     1     -12.917  21.115  -3.479  0.00  0.00    +0.000 OA
ATOM     13  H   UNL     1     -13.570  20.893  -2.795  0.00  0.00    +0.000 HD
ENDBRANCH  10  12
ENDBRANCH   9  10
ENDBRANCH   1   9
BRANCH   1  14
ATOM     14  C   UNL     1     -10.938  19.894   0.553  0.00  0.00    +0.000 C 
BRANCH  14  15
ATOM     15  C   UNL     1      -9.629  20.196   1.321  0.00  0.00    +0.000 C 
ATOM     16  C   UNL     1      -9.632  19.657   2.747  0.00  0.00    +0.000 C 
BRANCH  15  17
ATOM     17  O   UNL     1      -8.488  19.664   0.650  0.00  0.00    +0.000 OA
ATOM     18  H   UNL     1      -7.727  19.907   1.214  0.00  0.00    +0.000 HD
ENDBRANCH  15  17
ENDBRANCH  14  15
ENDBRANCH   1  14
TORSDOF 7
ENDMDL
