MODEL 1
REMARK VINA RESULT:    -4.951      0.000      0.000
REMARK INTER + INTRA:          -7.219
REMARK INTER:                  -6.688
REMARK INTRA:                  -0.532
REMARK UNBOUND:                -0.532
REMARK  Name = 
REMARK  10 active torsions:
REMARK  status: ('A' for Active; 'I' for Inactive)
REMARK    1  A    between atoms: C_1  and  C_2
REMARK    2  A    between atoms: C_5  and  N_8
REMARK    3  A    between atoms: N_8  and  C_9
REMARK    4  A    between atoms: N_8  and  C_13
REMARK    5  A    between atoms: C_9  and  C_10
REMARK    6  A    between atoms: C_10  and  C_11
REMARK    7  A    between atoms: C_10  and  O_12
REMARK    8  A    between atoms: C_13  and  C_14
REMARK    9  A    between atoms: C_14  and  C_15
REMARK   10  A    between atoms: C_14  and  O_16
REMARK                            x       y       z     vdW  Elec       q    Type
REMARK                         _______ _______ _______ _____ _____    ______ ____
ROOT
ATOM      1  N   UNL     1      11.011   7.015   9.754  0.00  0.00    +0.000 N 
ENDROOT
BRANCH   1   6
ATOM      2  C   UNL     1       9.805  12.574  10.737  0.00  0.00    +0.000 C 
ATOM      3  C   UNL     1      10.126  11.137  10.459  0.00  0.00    +0.000 A 
ATOM      4  C   UNL     1       9.175  10.286   9.908  0.00  0.00    +0.000 A 
ATOM      5  C   UNL     1       9.473   8.933   9.677  0.00  0.00    +0.000 A 
ATOM      6  C   UNL     1      10.715   8.360  10.004  0.00  0.00    +0.000 A 
ATOM      7  C   UNL     1      11.653   9.251  10.558  0.00  0.00    +0.000 A 
ATOM      8  C   UNL     1      11.369  10.606  10.792  0.00  0.00    +0.000 A 
ENDBRANCH   1   6
BRANCH   1   9
ATOM      9  C   UNL     1      10.201   6.243   8.781  0.00  0.00    +0.000 C 
BRANCH   9  10
ATOM     10  C   UNL     1      10.747   6.340   7.335  0.00  0.00    +0.000 C 
ATOM     11  C   UNL     1       9.863   7.237   6.477  0.00  0.00    +0.000 C 
BRANCH  10  12
ATOM     12  O   UNL     1      12.075   6.880   7.322  0.00  0.00    +0.000 OA
ATOM     13  H   UNL     1      12.039   7.759   6.909  0.00  0.00    +0.000 HD
ENDBRANCH  10  12
ENDBRANCH   9  10
ENDBRANCH   1   9
BRANCH   1  14
ATOM     14  C   UNL     1      11.742   6.190  10.750  0.00  0.00    +0.000 C 
BRANCH  14  15
ATOM     15  C   UNL     1      13.148   5.778  10.249  0.00  0.00    +0.000 C 
ATOM     16  C   UNL     1      14.265   6.645  10.818  0.00  0.00    +0.000 C 
BRANCH  15  17
ATOM     17  O   UNL     1      13.441   4.417  10.562  0.00  0.00    +0.000 OA
ATOM     18  H   UNL     1      13.417   4.372  11.540  0.00  0.00    +0.000 HD
ENDBRANCH  15  17
ENDBRANCH  14  15
ENDBRANCH   1  14
TORSDOF 7
ENDMDL
MODEL 2
REMARK VINA RESULT:    -4.950      2.301      5.262
REMARK INTER + INTRA:          -7.218
REMARK INTER:                  -6.700
REMARK INTRA:                  -0.518
REMARK UNBOUND:                -0.532
REMARK  Name = 
REMARK  10 active torsions:
REMARK  status: ('A' for Active; 'I' for Inactive)
REMARK    1  A    between atoms: C_1  and  C_2
REMARK    2  A    between atoms: C_5  and  N_8
REMARK    3  A    between atoms: N_8  and  C_9
REMARK    4  A    between atoms: N_8  and  C_13
REMARK    5  A    between atoms: C_9  and  C_10
REMARK    6  A    between atoms: C_10  and  C_11
REMARK    7  A    between atoms: C_10  and  O_12
REMARK    8  A    between atoms: C_13  and  C_14
REMARK    9  A    between atoms: C_14  and  C_15
REMARK   10  A    between atoms: C_14  and  O_16
REMARK                            x       y       z     vdW  Elec       q    Type
REMARK                         _______ _______ _______ _____ _____    ______ ____
ROOT
ATOM      1  N   UNL     1       9.632   7.411   8.323  0.00  0.00    +0.000 N 
ENDROOT
BRANCH   1   6
ATOM      2  C   UNL     1      10.213   5.546   2.891  0.00  0.00    +0.000 C 
ATOM      3  C   UNL     1      10.087   6.031   4.303  0.00  0.00    +0.000 A 
ATOM      4  C   UNL     1       9.998   5.133   5.361  0.00  0.00    +0.000 A 
ATOM      5  C   UNL     1       9.850   5.593   6.680  0.00  0.00    +0.000 A 
ATOM      6  C   UNL     1       9.760   6.959   7.004  0.00  0.00    +0.000 A 
ATOM      7  C   UNL     1       9.856   7.838   5.910  0.00  0.00    +0.000 A 
ATOM      8  C   UNL     1      10.006   7.391   4.586  0.00  0.00    +0.000 A 
ENDBRANCH   1   6
BRANCH   1   9
ATOM      9  C   UNL     1       9.272   8.824   8.593  0.00  0.00    +0.000 C 
BRANCH   9  10
ATOM     10  C   UNL     1       8.592   9.018   9.971  0.00  0.00    +0.000 C 
ATOM     11  C   UNL     1       9.043  10.319  10.623  0.00  0.00    +0.000 C 
BRANCH  10  12
ATOM     12  O   UNL     1       7.165   9.058   9.839  0.00  0.00    +0.000 OA
ATOM     13  H   UNL     1       6.943   9.721   9.164  0.00  0.00    +0.000 HD
ENDBRANCH  10  12
ENDBRANCH   9  10
ENDBRANCH   1   9
BRANCH   1  14
ATOM     14  C   UNL     1      10.315   6.716   9.444  0.00  0.00    +0.000 C 
BRANCH  14  15
ATOM     15  C   UNL     1      11.833   7.015   9.480  0.00  0.00    +0.000 C 
ATOM     16  C   UNL     1      12.232   7.959  10.608  0.00  0.00    +0.000 C 
BRANCH  15  17
ATOM     17  O   UNL     1      12.603   5.821   9.609  0.00  0.00    +0.000 OA
ATOM     18  H   UNL     1      12.735   5.505   8.693  0.00  0.00    +0.000 HD
ENDBRANCH  15  17
ENDBRANCH  14  15
ENDBRANCH   1  14
TORSDOF 7
ENDMDL
MODEL 3
REMARK VINA RESULT:    -4.841      2.296      5.680
REMARK INTER + INTRA:          -7.070
REMARK INTER:                  -6.632
REMARK INTRA:                  -0.439
REMARK UNBOUND:                -0.532
REMARK  Name = 
REMARK  10 active torsions:
REMARK  status: ('A' for Active; 'I' for Inactive)
REMARK    1  A    between atoms: C_1  and  C_2
REMARK    2  A    between atoms: C_5  and  N_8
REMARK    3  A    between atoms: N_8  and  C_9
REMARK    4  A    between atoms: N_8  and  C_13
REMARK    5  A    between atoms: C_9  and  C_10
REMARK    6  A    between atoms: C_10  and  C_11
REMARK    7  A    between atoms: C_10  and  O_12
REMARK    8  A    between atoms: C_13  and  C_14
REMARK    9  A    between atoms: C_14  and  C_15
REMARK   10  A    between atoms: C_14  and  O_16
REMARK                            x       y       z     vdW  Elec       q    Type
REMARK                         _______ _______ _______ _____ _____    ______ ____
ROOT
ATOM      1  N   UNL     1       9.821   7.662   8.260  0.00  0.00    +0.000 N 
ENDROOT
BRANCH   1   6
ATOM      2  C   UNL     1      10.034   5.490   2.915  0.00  0.00    +0.000 C 
ATOM      3  C   UNL     1      10.004   6.056   4.302  0.00  0.00    +0.000 A 
ATOM      4  C   UNL     1      10.030   5.221   5.414  0.00  0.00    +0.000 A 
ATOM      5  C   UNL     1       9.971   5.755   6.712  0.00  0.00    +0.000 A 
ATOM      6  C   UNL     1       9.860   7.135   6.963  0.00  0.00    +0.000 A 
ATOM      7  C   UNL     1       9.838   7.949   5.815  0.00  0.00    +0.000 A 
ATOM      8  C   UNL     1       9.898   7.428   4.512  0.00  0.00    +0.000 A 
ENDBRANCH   1   6
BRANCH   1   9
ATOM      9  C   UNL     1      10.214   6.821   9.416  0.00  0.00    +0.000 C 
BRANCH   9  10
ATOM     10  C   UNL     1      11.750   6.690   9.568  0.00  0.00    +0.000 C 
ATOM     11  C   UNL     1      12.291   7.724  10.547  0.00  0.00    +0.000 C 
BRANCH  10  12
ATOM     12  O   UNL     1      12.110   5.389  10.052  0.00  0.00    +0.000 OA
ATOM     13  H   UNL     1      11.479   5.141  10.749  0.00  0.00    +0.000 HD
ENDBRANCH  10  12
ENDBRANCH   9  10
ENDBRANCH   1   9
BRANCH   1  14
ATOM     14  C   UNL     1       8.947   8.815   8.595  0.00  0.00    +0.000 C 
BRANCH  14  15
ATOM     15  C   UNL     1       8.895   9.086  10.118  0.00  0.00    +0.000 C 
ATOM     16  C   UNL     1       9.545  10.405  10.515  0.00  0.00    +0.000 C 
BRANCH  15  17
ATOM     17  O   UNL     1       7.555   9.089  10.608  0.00  0.00    +0.000 OA
ATOM     18  H   UNL     1       7.004   8.843   9.838  0.00  0.00    +0.000 HD
ENDBRANCH  15  17
ENDBRANCH  14  15
ENDBRANCH   1  14
TORSDOF 7
ENDMDL
MODEL 4
REMARK VINA RESULT:    -4.224      1.475      3.470
REMARK INTER + INTRA:          -6.237
REMARK INTER:                  -5.898
REMARK INTRA:                  -0.339
REMARK UNBOUND:                -0.532
REMARK  Name = 
REMARK  10 active torsions:
REMARK  status: ('A' for Active; 'I' for Inactive)
REMARK    1  A    between atoms: C_1  and  C_2
REMARK    2  A    between atoms: C_5  and  N_8
REMARK    3  A    between atoms: N_8  and  C_9
REMARK    4  A    between atoms: N_8  and  C_13
REMARK    5  A    between atoms: C_9  and  C_10
REMARK    6  A    between atoms: C_10  and  C_11
REMARK    7  A    between atoms: C_10  and  O_12
REMARK    8  A    between atoms: C_13  and  C_14
REMARK    9  A    between atoms: C_14  and  C_15
REMARK   10  A    between atoms: C_14  and  O_16
REMARK                            x       y       z     vdW  Elec       q    Type
REMARK                         _______ _______ _______ _____ _____    ______ ____
ROOT
ATOM      1  N   UNL     1      11.346   6.787   9.206  0.00  0.00    +0.000 N 
ENDROOT
BRANCH   1   6
ATOM      2  C   UNL     1       7.682  10.943  10.827  0.00  0.00    +0.000 C 
ATOM      3  C   UNL     1       8.629   9.871  10.382  0.00  0.00    +0.000 A 
ATOM      4  C   UNL     1       8.186   8.569  10.172  0.00  0.00    +0.000 A 
ATOM      5  C   UNL     1       9.083   7.561   9.785  0.00  0.00    +0.000 A 
ATOM      6  C   UNL     1      10.460   7.793   9.611  0.00  0.00    +0.000 A 
ATOM      7  C   UNL     1      10.872   9.120   9.830  0.00  0.00    +0.000 A 
ATOM      8  C   UNL     1       9.984  10.138  10.216  0.00  0.00    +0.000 A 
ENDBRANCH   1   6
BRANCH   1   9
ATOM      9  C   UNL     1      12.424   6.334  10.117  0.00  0.00    +0.000 C 
BRANCH   9  10
ATOM     10  C   UNL     1      13.829   6.804   9.665  0.00  0.00    +0.000 C 
ATOM     11  C   UNL     1      14.291   8.004  10.481  0.00  0.00    +0.000 C 
BRANCH  10  12
ATOM     12  O   UNL     1      14.797   5.758   9.825  0.00  0.00    +0.000 OA
ATOM     13  H   UNL     1      15.409   6.020  10.533  0.00  0.00    +0.000 HD
ENDBRANCH  10  12
ENDBRANCH   9  10
ENDBRANCH   1   9
BRANCH   1  14
ATOM     14  C   UNL     1      11.588   6.510   7.766  0.00  0.00    +0.000 C 
BRANCH  14  15
ATOM     15  C   UNL     1      10.270   6.298   6.983  0.00  0.00    +0.000 C 
ATOM     16  C   UNL     1      10.243   7.030   5.646  0.00  0.00    +0.000 C 
BRANCH  15  17
ATOM     17  O   UNL     1      10.021   4.915   6.734  0.00  0.00    +0.000 OA
ATOM     18  H   UNL     1       9.048   4.844   6.657  0.00  0.00    +0.000 HD
ENDBRANCH  15  17
ENDBRANCH  14  15
ENDBRANCH   1  14
TORSDOF 7
ENDMDL
MODEL 5
REMARK VINA RESULT:    -4.068      9.722     11.354
REMARK INTER + INTRA:          -6.027
REMARK INTER:                  -5.530
REMARK INTRA:                  -0.497
REMARK UNBOUND:                -0.532
REMARK  Name = 
REMARK  10 active torsions:
REMARK  status: ('A' for Active; 'I' for Inactive)
REMARK    1  A    between atoms: C_1  and  C_2
REMARK    2  A    between atoms: C_5  and  N_8
REMARK    3  A    between atoms: N_8  and  C_9
REMARK    4  A    between atoms: N_8  and  C_13
REMARK    5  A    between atoms: C_9  and  C_10
REMARK    6  A    between atoms: C_10  and  C_11
REMARK    7  A    between atoms: C_10  and  O_12
REMARK    8  A    between atoms: C_13  and  C_14
REMARK    9  A    between atoms: C_14  and  C_15
REMARK   10  A    between atoms: C_14  and  O_16
REMARK                            x       y       z     vdW  Elec       q    Type
REMARK                         _______ _______ _______ _____ _____    ______ ____
ROOT
ATOM      1  N   UNL     1      21.919  11.066   7.317  0.00  0.00    +0.000 N 
ENDROOT
BRANCH   1   6
ATOM      2  C   UNL     1      16.398   9.627   8.200  0.00  0.00    +0.000 C 
ATOM      3  C   UNL     1      17.823  10.023   7.964  0.00  0.00    +0.000 A 
ATOM      4  C   UNL     1      18.434   9.795   6.735  0.00  0.00    +0.000 A 
ATOM      5  C   UNL     1      19.779  10.141   6.528  0.00  0.00    +0.000 A 
ATOM      6  C   UNL     1      20.583  10.705   7.535  0.00  0.00    +0.000 A 
ATOM      7  C   UNL     1      19.933  10.923   8.764  0.00  0.00    +0.000 A 
ATOM      8  C   UNL     1      18.587  10.584   8.983  0.00  0.00    +0.000 A 
ENDBRANCH   1   6
BRANCH   1   9
ATOM      9  C   UNL     1      22.680  10.457   6.199  0.00  0.00    +0.000 C 
BRANCH   9  10
ATOM     10  C   UNL     1      22.571  11.271   4.886  0.00  0.00    +0.000 C 
ATOM     11  C   UNL     1      23.918  11.872   4.504  0.00  0.00    +0.000 C 
BRANCH  10  12
ATOM     12  O   UNL     1      22.130  10.442   3.802  0.00  0.00    +0.000 OA
ATOM     13  H   UNL     1      22.883  10.303   3.203  0.00  0.00    +0.000 HD
ENDBRANCH  10  12
ENDBRANCH   9  10
ENDBRANCH   1   9
BRANCH   1  14
ATOM     14  C   UNL     1      22.755  11.620   8.412  0.00  0.00    +0.000 C 
BRANCH  14  15
ATOM     15  C   UNL     1      23.016  13.135   8.239  0.00  0.00    +0.000 C 
ATOM     16  C   UNL     1      24.454  13.455   7.848  0.00  0.00    +0.000 C 
BRANCH  15  17
ATOM     17  O   UNL     1      22.153  13.710   7.258  0.00  0.00    +0.000 OA
ATOM     18  H   UNL     1      22.016  14.633   7.553  0.00  0.00    +0.000 HD
ENDBRANCH  15  17
ENDBRANCH  14  15
ENDBRANCH   1  14
TORSDOF 7
ENDMDL
MODEL 6
REMARK VINA RESULT:    -3.926     11.310     13.032
REMARK INTER + INTRA:          -5.835
REMARK INTER:                  -5.172
REMARK INTRA:                  -0.663
REMARK UNBOUND:                -0.532
REMARK  Name = 
REMARK  10 active torsions:
REMARK  status: ('A' for Active; 'I' for Inactive)
REMARK    1  A    between atoms: C_1  and  C_2
REMARK    2  A    between atoms: C_5  and  N_8
REMARK    3  A    between atoms: N_8  and  C_9
REMARK    4  A    between atoms: N_8  and  C_13
REMARK    5  A    between atoms: C_9  and  C_10
REMARK    6  A    between atoms: C_10  and  C_11
REMARK    7  A    between atoms: C_10  and  O_12
REMARK    8  A    between atoms: C_13  and  C_14
REMARK    9  A    between atoms: C_14  and  C_15
REMARK   10  A    between atoms: C_14  and  O_16
REMARK                            x       y       z     vdW  Elec       q    Type
REMARK                         _______ _______ _______ _____ _____    ______ ____
ROOT
ATOM      1  N   UNL     1      23.469  11.632   6.040  0.00  0.00    +0.000 N 
ENDROOT
BRANCH   1   6
ATOM      2  C   UNL     1      18.791  10.703   9.293  0.00  0.00    +0.000 C 
ATOM      3  C   UNL     1      19.995  10.965   8.441  0.00  0.00    +0.000 A 
ATOM      4  C   UNL     1      20.075  10.466   7.145  0.00  0.00    +0.000 A 
ATOM      5  C   UNL     1      21.219  10.690   6.361  0.00  0.00    +0.000 A 
ATOM      6  C   UNL     1      22.340  11.396   6.834  0.00  0.00    +0.000 A 
ATOM      7  C   UNL     1      22.223  11.887   8.147  0.00  0.00    +0.000 A 
ATOM      8  C   UNL     1      21.084  11.673   8.941  0.00  0.00    +0.000 A 
ENDBRANCH   1   6
BRANCH   1   9
ATOM      9  C   UNL     1      24.428  10.534   5.767  0.00  0.00    +0.000 C 
BRANCH   9  10
ATOM     10  C   UNL     1      24.579  10.231   4.256  0.00  0.00    +0.000 C 
ATOM     11  C   UNL     1      25.463   9.010   4.031  0.00  0.00    +0.000 C 
BRANCH  10  12
ATOM     12  O   UNL     1      23.304   9.975   3.652  0.00  0.00    +0.000 OA
ATOM     13  H   UNL     1      22.623  10.051   4.342  0.00  0.00    +0.000 HD
ENDBRANCH  10  12
ENDBRANCH   9  10
ENDBRANCH   1   9
BRANCH   1  14
ATOM     14  C   UNL     1      24.024  13.000   5.879  0.00  0.00    +0.000 C 
BRANCH  14  15
ATOM     15  C   UNL     1      23.304  13.795   4.764  0.00  0.00    +0.000 C 
ATOM     16  C   UNL     1      24.205  14.815   4.077  0.00  0.00    +0.000 C 
BRANCH  15  17
ATOM     17  O   UNL     1      22.770  12.932   3.761  0.00  0.00    +0.000 OA
ATOM     18  H   UNL     1      21.983  12.522   4.173  0.00  0.00    +0.000 HD
ENDBRANCH  15  17
ENDBRANCH  14  15
ENDBRANCH   1  14
TORSDOF 7
ENDMDL
MODEL 7
REMARK VINA RESULT:    -3.926      2.303      4.027
REMARK INTER + INTRA:          -5.834
REMARK INTER:                  -5.227
REMARK INTRA:                  -0.608
REMARK UNBOUND:                -0.532
REMARK  Name = 
REMARK  10 active torsions:
REMARK  status: ('A' for Active; 'I' for Inactive)
REMARK    1  A    between atoms: C_1  and  C_2
REMARK    2  A    between atoms: C_5  and  N_8
REMARK    3  A    between atoms: N_8  and  C_9
REMARK    4  A    between atoms: N_8  and  C_13
REMARK    5  A    between atoms: C_9  and  C_10
REMARK    6  A    between atoms: C_10  and  C_11
REMARK    7  A    between atoms: C_10  and  O_12
REMARK    8  A    between atoms: C_13  and  C_14
REMARK    9  A    between atoms: C_14  and  C_15
REMARK   10  A    between atoms: C_14  and  O_16
REMARK                            x       y       z     vdW  Elec       q    Type
REMARK                         _______ _______ _______ _____ _____    ______ ____
ROOT
ATOM      1  N   UNL     1      14.026   7.488  10.199  0.00  0.00    +0.000 N 
ENDROOT
BRANCH   1   6
ATOM      2  C   UNL     1       8.648   9.583  10.319  0.00  0.00    +0.000 C 
ATOM      3  C   UNL     1      10.047   9.051  10.266  0.00  0.00    +0.000 A 
ATOM      4  C   UNL     1      10.317   7.807   9.705  0.00  0.00    +0.000 A 
ATOM      5  C   UNL     1      11.627   7.300   9.685  0.00  0.00    +0.000 A 
ATOM      6  C   UNL     1      12.719   7.991  10.240  0.00  0.00    +0.000 A 
ATOM      7  C   UNL     1      12.409   9.245  10.796  0.00  0.00    +0.000 A 
ATOM      8  C   UNL     1      11.105   9.765  10.821  0.00  0.00    +0.000 A 
ENDBRANCH   1   6
BRANCH   1   9
ATOM      9  C   UNL     1      14.296   6.087  10.603  0.00  0.00    +0.000 C 
BRANCH   9  10
ATOM     10  C   UNL     1      15.708   5.604  10.190  0.00  0.00    +0.000 C 
ATOM     11  C   UNL     1      16.032   4.259  10.827  0.00  0.00    +0.000 C 
BRANCH  10  12
ATOM     12  O   UNL     1      15.805   5.457   8.766  0.00  0.00    +0.000 OA
ATOM     13  H   UNL     1      15.504   6.285   8.356  0.00  0.00    +0.000 HD
ENDBRANCH  10  12
ENDBRANCH   9  10
ENDBRANCH   1   9
BRANCH   1  14
ATOM     14  C   UNL     1      15.201   8.394  10.263  0.00  0.00    +0.000 C 
BRANCH  14  15
ATOM     15  C   UNL     1      15.596   8.939   8.870  0.00  0.00    +0.000 C 
ATOM     16  C   UNL     1      17.103   9.061   8.679  0.00  0.00    +0.000 C 
BRANCH  15  17
ATOM     17  O   UNL     1      15.082   8.121   7.819  0.00  0.00    +0.000 OA
ATOM     18  H   UNL     1      14.115   8.265   7.836  0.00  0.00    +0.000 HD
ENDBRANCH  15  17
ENDBRANCH  14  15
ENDBRANCH   1  14
TORSDOF 7
ENDMDL
MODEL 8
REMARK VINA RESULT:    -3.873     10.817     12.456
REMARK INTER + INTRA:          -5.763
REMARK INTER:                  -5.243
REMARK INTRA:                  -0.519
REMARK UNBOUND:                -0.532
REMARK  Name = 
REMARK  10 active torsions:
REMARK  status: ('A' for Active; 'I' for Inactive)
REMARK    1  A    between atoms: C_1  and  C_2
REMARK    2  A    between atoms: C_5  and  N_8
REMARK    3  A    between atoms: N_8  and  C_9
REMARK    4  A    between atoms: N_8  and  C_13
REMARK    5  A    between atoms: C_9  and  C_10
REMARK    6  A    between atoms: C_10  and  C_11
REMARK    7  A    between atoms: C_10  and  O_12
REMARK    8  A    between atoms: C_13  and  C_14
REMARK    9  A    between atoms: C_14  and  C_15
REMARK   10  A    between atoms: C_14  and  O_16
REMARK                            x       y       z     vdW  Elec       q    Type
REMARK                         _______ _______ _______ _____ _____    ______ ____
ROOT
ATOM      1  N   UNL     1      22.493  11.703   6.264  0.00  0.00    +0.000 N 
ENDROOT
BRANCH   1   6
ATOM      2  C   UNL     1      18.203  10.382   9.895  0.00  0.00    +0.000 C 
ATOM      3  C   UNL     1      19.330  10.706   8.963  0.00  0.00    +0.000 A 
ATOM      4  C   UNL     1      20.300  11.640   9.311  0.00  0.00    +0.000 A 
ATOM      5  C   UNL     1      21.337  11.962   8.421  0.00  0.00    +0.000 A 
ATOM      6  C   UNL     1      21.445  11.392   7.140  0.00  0.00    +0.000 A 
ATOM      7  C   UNL     1      20.448  10.450   6.822  0.00  0.00    +0.000 A 
ATOM      8  C   UNL     1      19.407  10.118   7.704  0.00  0.00    +0.000 A 
ENDBRANCH   1   6
BRANCH   1   9
ATOM      9  C   UNL     1      23.467  10.657   5.869  0.00  0.00    +0.000 C 
BRANCH   9  10
ATOM     10  C   UNL     1      23.691  10.593   4.338  0.00  0.00    +0.000 C 
ATOM     11  C   UNL     1      24.716   9.522   3.982  0.00  0.00    +0.000 C 
BRANCH  10  12
ATOM     12  O   UNL     1      22.470  10.284   3.652  0.00  0.00    +0.000 OA
ATOM     13  H   UNL     1      22.352  10.934   2.940  0.00  0.00    +0.000 HD
ENDBRANCH  10  12
ENDBRANCH   9  10
ENDBRANCH   1   9
BRANCH   1  14
ATOM     14  C   UNL     1      22.978  13.098   6.112  0.00  0.00    +0.000 C 
BRANCH  14  15
ATOM     15  C   UNL     1      24.401  13.288   6.690  0.00  0.00    +0.000 C 
ATOM     16  C   UNL     1      25.341  14.024   5.742  0.00  0.00    +0.000 C 
BRANCH  15  17
ATOM     17  O   UNL     1      24.377  13.998   7.927  0.00  0.00    +0.000 OA
ATOM     18  H   UNL     1      23.916  13.402   8.551  0.00  0.00    +0.000 HD
ENDBRANCH  15  17
ENDBRANCH  14  15
ENDBRANCH   1  14
TORSDOF 7
ENDMDL
MODEL 9
REMARK VINA RESULT:    -3.767     11.801     13.348
REMARK INTER + INTRA:          -5.620
REMARK INTER:                  -5.266
REMARK INTRA:                  -0.354
REMARK UNBOUND:                -0.532
REMARK  Name = 
REMARK  10 active torsions:
REMARK  status: ('A' for Active; 'I' for Inactive)
REMARK    1  A    between atoms: C_1  and  C_2
REMARK    2  A    between atoms: C_5  and  N_8
REMARK    3  A    between atoms: N_8  and  C_9
REMARK    4  A    between atoms: N_8  and  C_13
REMARK    5  A    between atoms: C_9  and  C_10
REMARK    6  A    between atoms: C_10  and  C_11
REMARK    7  A    between atoms: C_10  and  O_12
REMARK    8  A    between atoms: C_13  and  C_14
REMARK    9  A    between atoms: C_14  and  C_15
REMARK   10  A    between atoms: C_14  and  O_16
REMARK                            x       y       z     vdW  Elec       q    Type
REMARK                         _______ _______ _______ _____ _____    ______ ____
ROOT
ATOM      1  N   UNL     1      23.424  12.163   5.604  0.00  0.00    +0.000 N 
ENDROOT
BRANCH   1   6
ATOM      2  C   UNL     1      19.665  11.436   9.925  0.00  0.00    +0.000 C 
ATOM      3  C   UNL     1      20.623  11.636   8.790  0.00  0.00    +0.000 A 
ATOM      4  C   UNL     1      20.793  10.656   7.818  0.00  0.00    +0.000 A 
ATOM      5  C   UNL     1      21.714  10.836   6.773  0.00  0.00    +0.000 A 
ATOM      6  C   UNL     1      22.522  11.982   6.659  0.00  0.00    +0.000 A 
ATOM      7  C   UNL     1      22.322  12.952   7.658  0.00  0.00    +0.000 A 
ATOM      8  C   UNL     1      21.402  12.786   8.707  0.00  0.00    +0.000 A 
ENDBRANCH   1   6
BRANCH   1   9
ATOM      9  C   UNL     1      23.089  13.082   4.489  0.00  0.00    +0.000 C 
BRANCH   9  10
ATOM     10  C   UNL     1      23.873  14.416   4.555  0.00  0.00    +0.000 C 
ATOM     11  C   UNL     1      25.135  14.349   3.703  0.00  0.00    +0.000 C 
BRANCH  10  12
ATOM     12  O   UNL     1      23.072  15.507   4.079  0.00  0.00    +0.000 OA
ATOM     13  H   UNL     1      22.139  15.285   4.232  0.00  0.00    +0.000 HD
ENDBRANCH  10  12
ENDBRANCH   9  10
ENDBRANCH   1   9
BRANCH   1  14
ATOM     14  C   UNL     1      24.445  11.134   5.280  0.00  0.00    +0.000 C 
BRANCH  14  15
ATOM     15  C   UNL     1      24.258  10.554   3.857  0.00  0.00    +0.000 C 
ATOM     16  C   UNL     1      25.323   9.528   3.484  0.00  0.00    +0.000 C 
BRANCH  15  17
ATOM     17  O   UNL     1      22.980   9.940   3.702  0.00  0.00    +0.000 OA
ATOM     18  H   UNL     1      22.335  10.668   3.812  0.00  0.00    +0.000 HD
ENDBRANCH  15  17
ENDBRANCH  14  15
ENDBRANCH   1  14
TORSDOF 7
ENDMDL
