MODEL 1
REMARK VINA RESULT:    -4.989      0.000      0.000
REMARK INTER + INTRA:          -7.262
REMARK INTER:                  -6.739
REMARK INTRA:                  -0.523
REMARK UNBOUND:                -0.523
REMARK  Name = 
REMARK  10 active torsions:
REMARK  status: ('A' for Active; 'I' for Inactive)
REMARK    1  A    between atoms: C_1  and  C_2
REMARK    2  A    between atoms: C_5  and  N_8
REMARK    3  A    between atoms: N_8  and  C_9
REMARK    4  A    between atoms: N_8  and  C_13
REMARK    5  A    between atoms: C_9  and  C_10
REMARK    6  A    between atoms: C_10  and  C_11
REMARK    7  A    between atoms: C_10  and  O_12
REMARK    8  A    between atoms: C_13  and  C_14
REMARK    9  A    between atoms: C_14  and  C_15
REMARK   10  A    between atoms: C_14  and  O_16
REMARK                            x       y       z     vdW  Elec       q    Type
REMARK                         _______ _______ _______ _____ _____    ______ ____
ROOT
ATOM      1  N   UNL     1       9.643   7.428   8.355  0.00  0.00    +0.000 N 
ENDROOT
BRANCH   1   6
ATOM      2  C   UNL     1      10.188   5.579   2.913  0.00  0.00    +0.000 C 
ATOM      3  C   UNL     1      10.022   6.057   4.323  0.00  0.00    +0.000 A 
ATOM      4  C   UNL     1       9.935   7.415   4.612  0.00  0.00    +0.000 A 
ATOM      5  C   UNL     1       9.809   7.859   5.938  0.00  0.00    +0.000 A 
ATOM      6  C   UNL     1       9.788   6.980   7.036  0.00  0.00    +0.000 A 
ATOM      7  C   UNL     1       9.876   5.614   6.707  0.00  0.00    +0.000 A 
ATOM      8  C   UNL     1      10.000   5.157   5.385  0.00  0.00    +0.000 A 
ENDBRANCH   1   6
BRANCH   1   9
ATOM      9  C   UNL     1       9.299   8.845   8.625  0.00  0.00    +0.000 C 
BRANCH   9  10
ATOM     10  C   UNL     1       8.567   9.038   9.976  0.00  0.00    +0.000 C 
ATOM     11  C   UNL     1       8.967  10.356  10.629  0.00  0.00    +0.000 C 
BRANCH  10  12
ATOM     12  O   UNL     1       7.144   9.046   9.794  0.00  0.00    +0.000 OA
ATOM     13  H   UNL     1       6.921   9.778   9.196  0.00  0.00    +0.000 HD
ENDBRANCH  10  12
ENDBRANCH   9  10
ENDBRANCH   1   9
BRANCH   1  14
ATOM     14  C   UNL     1      10.295   6.718   9.485  0.00  0.00    +0.000 C 
BRANCH  14  15
ATOM     15  C   UNL     1      11.801   7.058   9.597  0.00  0.00    +0.000 C 
ATOM     16  C   UNL     1      12.135   7.903  10.821  0.00  0.00    +0.000 C 
BRANCH  15  17
ATOM     17  O   UNL     1      12.605   5.880   9.640  0.00  0.00    +0.000 OA
ATOM     18  H   UNL     1      12.149   5.241   9.057  0.00  0.00    +0.000 HD
ENDBRANCH  15  17
ENDBRANCH  14  15
ENDBRANCH   1  14
TORSDOF 7
ENDMDL
MODEL 2
REMARK VINA RESULT:    -4.960      2.305      5.265
REMARK INTER + INTRA:          -7.223
REMARK INTER:                  -6.698
REMARK INTRA:                  -0.525
REMARK UNBOUND:                -0.523
REMARK  Name = 
REMARK  10 active torsions:
REMARK  status: ('A' for Active; 'I' for Inactive)
REMARK    1  A    between atoms: C_1  and  C_2
REMARK    2  A    between atoms: C_5  and  N_8
REMARK    3  A    between atoms: N_8  and  C_9
REMARK    4  A    between atoms: N_8  and  C_13
REMARK    5  A    between atoms: C_9  and  C_10
REMARK    6  A    between atoms: C_10  and  C_11
REMARK    7  A    between atoms: C_10  and  O_12
REMARK    8  A    between atoms: C_13  and  C_14
REMARK    9  A    between atoms: C_14  and  C_15
REMARK   10  A    between atoms: C_14  and  O_16
REMARK                            x       y       z     vdW  Elec       q    Type
REMARK                         _______ _______ _______ _____ _____    ______ ____
ROOT
ATOM      1  N   UNL     1      11.070   7.034   9.785  0.00  0.00    +0.000 N 
ENDROOT
BRANCH   1   6
ATOM      2  C   UNL     1       9.888  12.604  10.737  0.00  0.00    +0.000 C 
ATOM      3  C   UNL     1      10.204  11.165  10.468  0.00  0.00    +0.000 A 
ATOM      4  C   UNL     1       9.251  10.316   9.913  0.00  0.00    +0.000 A 
ATOM      5  C   UNL     1       9.542   8.961   9.690  0.00  0.00    +0.000 A 
ATOM      6  C   UNL     1      10.779   8.382  10.028  0.00  0.00    +0.000 A 
ATOM      7  C   UNL     1      11.719   9.270  10.584  0.00  0.00    +0.000 A 
ATOM      8  C   UNL     1      11.441  10.628  10.810  0.00  0.00    +0.000 A 
ENDBRANCH   1   6
BRANCH   1   9
ATOM      9  C   UNL     1      10.236   6.253   8.840  0.00  0.00    +0.000 C 
BRANCH   9  10
ATOM     10  C   UNL     1      10.747   6.334   7.380  0.00  0.00    +0.000 C 
ATOM     11  C   UNL     1       9.837   7.215   6.533  0.00  0.00    +0.000 C 
BRANCH  10  12
ATOM     12  O   UNL     1      12.071   6.883   7.328  0.00  0.00    +0.000 OA
ATOM     13  H   UNL     1      12.598   6.466   8.030  0.00  0.00    +0.000 HD
ENDBRANCH  10  12
ENDBRANCH   9  10
ENDBRANCH   1   9
BRANCH   1  14
ATOM     14  C   UNL     1      11.824   6.220  10.772  0.00  0.00    +0.000 C 
BRANCH  14  15
ATOM     15  C   UNL     1      13.210   5.787  10.235  0.00  0.00    +0.000 C 
ATOM     16  C   UNL     1      14.349   6.668  10.734  0.00  0.00    +0.000 C 
BRANCH  15  17
ATOM     17  O   UNL     1      13.511   4.436  10.582  0.00  0.00    +0.000 OA
ATOM     18  H   UNL     1      13.310   4.370  11.538  0.00  0.00    +0.000 HD
ENDBRANCH  15  17
ENDBRANCH  14  15
ENDBRANCH   1  14
TORSDOF 7
ENDMDL
MODEL 3
REMARK VINA RESULT:    -4.831      0.396      3.261
REMARK INTER + INTRA:          -7.049
REMARK INTER:                  -6.596
REMARK INTRA:                  -0.452
REMARK UNBOUND:                -0.523
REMARK  Name = 
REMARK  10 active torsions:
REMARK  status: ('A' for Active; 'I' for Inactive)
REMARK    1  A    between atoms: C_1  and  C_2
REMARK    2  A    between atoms: C_5  and  N_8
REMARK    3  A    between atoms: N_8  and  C_9
REMARK    4  A    between atoms: N_8  and  C_13
REMARK    5  A    between atoms: C_9  and  C_10
REMARK    6  A    between atoms: C_10  and  C_11
REMARK    7  A    between atoms: C_10  and  O_12
REMARK    8  A    between atoms: C_13  and  C_14
REMARK    9  A    between atoms: C_14  and  C_15
REMARK   10  A    between atoms: C_14  and  O_16
REMARK                            x       y       z     vdW  Elec       q    Type
REMARK                         _______ _______ _______ _____ _____    ______ ____
ROOT
ATOM      1  N   UNL     1       9.811   7.692   8.261  0.00  0.00    +0.000 N 
ENDROOT
BRANCH   1   6
ATOM      2  C   UNL     1      10.062   5.495   2.928  0.00  0.00    +0.000 C 
ATOM      3  C   UNL     1      10.022   6.066   4.313  0.00  0.00    +0.000 A 
ATOM      4  C   UNL     1       9.978   5.235   5.427  0.00  0.00    +0.000 A 
ATOM      5  C   UNL     1       9.910   5.775   6.722  0.00  0.00    +0.000 A 
ATOM      6  C   UNL     1       9.859   7.159   6.967  0.00  0.00    +0.000 A 
ATOM      7  C   UNL     1       9.907   7.969   5.817  0.00  0.00    +0.000 A 
ATOM      8  C   UNL     1       9.978   7.442   4.517  0.00  0.00    +0.000 A 
ENDBRANCH   1   6
BRANCH   1   9
ATOM      9  C   UNL     1      10.210   6.861   9.422  0.00  0.00    +0.000 C 
BRANCH   9  10
ATOM     10  C   UNL     1      11.746   6.739   9.573  0.00  0.00    +0.000 C 
ATOM     11  C   UNL     1      12.281   7.771  10.560  0.00  0.00    +0.000 C 
BRANCH  10  12
ATOM     12  O   UNL     1      12.116   5.437  10.048  0.00  0.00    +0.000 OA
ATOM     13  H   UNL     1      12.908   5.153   9.564  0.00  0.00    +0.000 HD
ENDBRANCH  10  12
ENDBRANCH   9  10
ENDBRANCH   1   9
BRANCH   1  14
ATOM     14  C   UNL     1       8.923   8.837   8.589  0.00  0.00    +0.000 C 
BRANCH  14  15
ATOM     15  C   UNL     1       8.879   9.126  10.109  0.00  0.00    +0.000 C 
ATOM     16  C   UNL     1       9.495  10.469  10.482  0.00  0.00    +0.000 C 
BRANCH  15  17
ATOM     17  O   UNL     1       7.545   9.097  10.613  0.00  0.00    +0.000 OA
ATOM     18  H   UNL     1       7.480   9.875  11.203  0.00  0.00    +0.000 HD
ENDBRANCH  15  17
ENDBRANCH  14  15
ENDBRANCH   1  14
TORSDOF 7
ENDMDL
MODEL 4
REMARK VINA RESULT:    -4.445      2.046      5.965
REMARK INTER + INTRA:          -6.527
REMARK INTER:                  -6.217
REMARK INTRA:                  -0.310
REMARK UNBOUND:                -0.523
REMARK  Name = 
REMARK  10 active torsions:
REMARK  status: ('A' for Active; 'I' for Inactive)
REMARK    1  A    between atoms: C_1  and  C_2
REMARK    2  A    between atoms: C_5  and  N_8
REMARK    3  A    between atoms: N_8  and  C_9
REMARK    4  A    between atoms: N_8  and  C_13
REMARK    5  A    between atoms: C_9  and  C_10
REMARK    6  A    between atoms: C_10  and  C_11
REMARK    7  A    between atoms: C_10  and  O_12
REMARK    8  A    between atoms: C_13  and  C_14
REMARK    9  A    between atoms: C_14  and  C_15
REMARK   10  A    between atoms: C_14  and  O_16
REMARK                            x       y       z     vdW  Elec       q    Type
REMARK                         _______ _______ _______ _____ _____    ______ ____
ROOT
ATOM      1  N   UNL     1      10.807   7.585  10.316  0.00  0.00    +0.000 N 
ENDROOT
BRANCH   1   6
ATOM      2  C   UNL     1       9.987  13.286  10.705  0.00  0.00    +0.000 C 
ATOM      3  C   UNL     1      10.203  11.809  10.579  0.00  0.00    +0.000 A 
ATOM      4  C   UNL     1       9.132  10.945  10.384  0.00  0.00    +0.000 A 
ATOM      5  C   UNL     1       9.337   9.558  10.297  0.00  0.00    +0.000 A 
ATOM      6  C   UNL     1      10.607   8.967  10.423  0.00  0.00    +0.000 A 
ATOM      7  C   UNL     1      11.667   9.871  10.618  0.00  0.00    +0.000 A 
ATOM      8  C   UNL     1      11.476  11.260  10.705  0.00  0.00    +0.000 A 
ENDBRANCH   1   6
BRANCH   1   9
ATOM      9  C   UNL     1      12.057   6.973  10.827  0.00  0.00    +0.000 C 
BRANCH   9  10
ATOM     10  C   UNL     1      12.912   6.331   9.707  0.00  0.00    +0.000 C 
ATOM     11  C   UNL     1      14.089   7.226   9.339  0.00  0.00    +0.000 C 
BRANCH  10  12
ATOM     12  O   UNL     1      13.433   5.060  10.121  0.00  0.00    +0.000 OA
ATOM     13  H   UNL     1      13.110   4.881  11.020  0.00  0.00    +0.000 HD
ENDBRANCH  10  12
ENDBRANCH   9  10
ENDBRANCH   1   9
BRANCH   1  14
ATOM     14  C   UNL     1      10.092   6.782   9.292  0.00  0.00    +0.000 C 
BRANCH  14  15
ATOM     15  C   UNL     1      10.259   7.367   7.869  0.00  0.00    +0.000 C 
ATOM     16  C   UNL     1      10.827   6.365   6.871  0.00  0.00    +0.000 C 
BRANCH  15  17
ATOM     17  O   UNL     1       9.022   7.854   7.350  0.00  0.00    +0.000 OA
ATOM     18  H   UNL     1       9.150   8.820   7.257  0.00  0.00    +0.000 HD
ENDBRANCH  15  17
ENDBRANCH  14  15
ENDBRANCH   1  14
TORSDOF 7
ENDMDL
MODEL 5
REMARK VINA RESULT:    -4.202      2.246      4.992
REMARK INTER + INTRA:          -6.199
REMARK INTER:                  -5.613
REMARK INTRA:                  -0.586
REMARK UNBOUND:                -0.523
REMARK  Name = 
REMARK  10 active torsions:
REMARK  status: ('A' for Active; 'I' for Inactive)
REMARK    1  A    between atoms: C_1  and  C_2
REMARK    2  A    between atoms: C_5  and  N_8
REMARK    3  A    between atoms: N_8  and  C_9
REMARK    4  A    between atoms: N_8  and  C_13
REMARK    5  A    between atoms: C_9  and  C_10
REMARK    6  A    between atoms: C_10  and  C_11
REMARK    7  A    between atoms: C_10  and  O_12
REMARK    8  A    between atoms: C_13  and  C_14
REMARK    9  A    between atoms: C_14  and  C_15
REMARK   10  A    between atoms: C_14  and  O_16
REMARK                            x       y       z     vdW  Elec       q    Type
REMARK                         _______ _______ _______ _____ _____    ______ ____
ROOT
ATOM      1  N   UNL     1      11.125   6.965   9.615  0.00  0.00    +0.000 N 
ENDROOT
BRANCH   1   6
ATOM      2  C   UNL     1      16.843   7.717   9.878  0.00  0.00    +0.000 C 
ATOM      3  C   UNL     1      15.358   7.542   9.795  0.00  0.00    +0.000 A 
ATOM      4  C   UNL     1      14.516   8.125  10.736  0.00  0.00    +0.000 A 
ATOM      5  C   UNL     1      13.126   7.932  10.671  0.00  0.00    +0.000 A 
ATOM      6  C   UNL     1      12.514   7.137   9.686  0.00  0.00    +0.000 A 
ATOM      7  C   UNL     1      13.395   6.566   8.749  0.00  0.00    +0.000 A 
ATOM      8  C   UNL     1      14.786   6.752   8.802  0.00  0.00    +0.000 A 
ENDBRANCH   1   6
BRANCH   1   9
ATOM      9  C   UNL     1      10.291   7.147  10.827  0.00  0.00    +0.000 C 
BRANCH   9  10
ATOM     10  C   UNL     1       9.349   8.372  10.729  0.00  0.00    +0.000 C 
ATOM     11  C   UNL     1      10.057   9.553  10.077  0.00  0.00    +0.000 C 
BRANCH  10  12
ATOM     12  O   UNL     1       8.185   8.066   9.949  0.00  0.00    +0.000 OA
ATOM     13  H   UNL     1       8.376   8.291   9.023  0.00  0.00    +0.000 HD
ENDBRANCH  10  12
ENDBRANCH   9  10
ENDBRANCH   1   9
BRANCH   1  14
ATOM     14  C   UNL     1      10.507   6.135   8.550  0.00  0.00    +0.000 C 
BRANCH  14  15
ATOM     15  C   UNL     1      10.258   6.941   7.252  0.00  0.00    +0.000 C 
ATOM     16  C   UNL     1      10.181   6.064   6.007  0.00  0.00    +0.000 C 
BRANCH  15  17
ATOM     17  O   UNL     1       9.055   7.705   7.328  0.00  0.00    +0.000 OA
ATOM     18  H   UNL     1       9.318   8.548   7.751  0.00  0.00    +0.000 HD
ENDBRANCH  15  17
ENDBRANCH  14  15
ENDBRANCH   1  14
TORSDOF 7
ENDMDL
MODEL 6
REMARK VINA RESULT:    -4.100      2.082      5.154
REMARK INTER + INTRA:          -6.060
REMARK INTER:                  -5.913
REMARK INTRA:                  -0.148
REMARK UNBOUND:                -0.523
REMARK  Name = 
REMARK  10 active torsions:
REMARK  status: ('A' for Active; 'I' for Inactive)
REMARK    1  A    between atoms: C_1  and  C_2
REMARK    2  A    between atoms: C_5  and  N_8
REMARK    3  A    between atoms: N_8  and  C_9
REMARK    4  A    between atoms: N_8  and  C_13
REMARK    5  A    between atoms: C_9  and  C_10
REMARK    6  A    between atoms: C_10  and  C_11
REMARK    7  A    between atoms: C_10  and  O_12
REMARK    8  A    between atoms: C_13  and  C_14
REMARK    9  A    between atoms: C_14  and  C_15
REMARK   10  A    between atoms: C_14  and  O_16
REMARK                            x       y       z     vdW  Elec       q    Type
REMARK                         _______ _______ _______ _____ _____    ______ ____
ROOT
ATOM      1  N   UNL     1      10.022   7.133   9.076  0.00  0.00    +0.000 N 
ENDROOT
BRANCH   1   6
ATOM      2  C   UNL     1      15.176   5.209  10.827  0.00  0.00    +0.000 C 
ATOM      3  C   UNL     1      13.840   5.693  10.353  0.00  0.00    +0.000 A 
ATOM      4  C   UNL     1      13.735   6.821   9.546  0.00  0.00    +0.000 A 
ATOM      5  C   UNL     1      12.477   7.289   9.129  0.00  0.00    +0.000 A 
ATOM      6  C   UNL     1      11.272   6.674   9.512  0.00  0.00    +0.000 A 
ATOM      7  C   UNL     1      11.416   5.535  10.325  0.00  0.00    +0.000 A 
ATOM      8  C   UNL     1      12.667   5.056  10.748  0.00  0.00    +0.000 A 
ENDBRANCH   1   6
BRANCH   1   9
ATOM      9  C   UNL     1       9.798   7.429   7.641  0.00  0.00    +0.000 C 
BRANCH   9  10
ATOM     10  C   UNL     1      10.445   6.379   6.704  0.00  0.00    +0.000 C 
ATOM     11  C   UNL     1       9.463   5.931   5.628  0.00  0.00    +0.000 C 
BRANCH  10  12
ATOM     12  O   UNL     1      11.604   6.916   6.052  0.00  0.00    +0.000 OA
ATOM     13  H   UNL     1      11.595   6.618   5.127  0.00  0.00    +0.000 HD
ENDBRANCH  10  12
ENDBRANCH   9  10
ENDBRANCH   1   9
BRANCH   1  14
ATOM     14  C   UNL     1       9.086   7.814  10.008  0.00  0.00    +0.000 C 
BRANCH  14  15
ATOM     15  C   UNL     1       9.068   9.348   9.800  0.00  0.00    +0.000 C 
ATOM     16  C   UNL     1       7.869  10.027  10.450  0.00  0.00    +0.000 C 
BRANCH  15  17
ATOM     17  O   UNL     1      10.252   9.962  10.308  0.00  0.00    +0.000 OA
ATOM     18  H   UNL     1      10.476  10.656   9.655  0.00  0.00    +0.000 HD
ENDBRANCH  15  17
ENDBRANCH  14  15
ENDBRANCH   1  14
TORSDOF 7
ENDMDL
MODEL 7
REMARK VINA RESULT:    -4.054     10.932     12.731
REMARK INTER + INTRA:          -5.999
REMARK INTER:                  -5.482
REMARK INTRA:                  -0.516
REMARK UNBOUND:                -0.523
REMARK  Name = 
REMARK  10 active torsions:
REMARK  status: ('A' for Active; 'I' for Inactive)
REMARK    1  A    between atoms: C_1  and  C_2
REMARK    2  A    between atoms: C_5  and  N_8
REMARK    3  A    between atoms: N_8  and  C_9
REMARK    4  A    between atoms: N_8  and  C_13
REMARK    5  A    between atoms: C_9  and  C_10
REMARK    6  A    between atoms: C_10  and  C_11
REMARK    7  A    between atoms: C_10  and  O_12
REMARK    8  A    between atoms: C_13  and  C_14
REMARK    9  A    between atoms: C_14  and  C_15
REMARK   10  A    between atoms: C_14  and  O_16
REMARK                            x       y       z     vdW  Elec       q    Type
REMARK                         _______ _______ _______ _____ _____    ______ ____
ROOT
ATOM      1  N   UNL     1      22.041  11.082   7.279  0.00  0.00    +0.000 N 
ENDROOT
BRANCH   1   6
ATOM      2  C   UNL     1      16.493   9.719   8.109  0.00  0.00    +0.000 C 
ATOM      3  C   UNL     1      17.926  10.096   7.886  0.00  0.00    +0.000 A 
ATOM      4  C   UNL     1      18.548   9.851   6.667  0.00  0.00    +0.000 A 
ATOM      5  C   UNL     1      19.900  10.178   6.473  0.00  0.00    +0.000 A 
ATOM      6  C   UNL     1      20.699  10.740   7.485  0.00  0.00    +0.000 A 
ATOM      7  C   UNL     1      20.037  10.976   8.704  0.00  0.00    +0.000 A 
ATOM      8  C   UNL     1      18.685  10.655   8.910  0.00  0.00    +0.000 A 
ENDBRANCH   1   6
BRANCH   1   9
ATOM      9  C   UNL     1      22.811  10.447   6.183  0.00  0.00    +0.000 C 
BRANCH   9  10
ATOM     10  C   UNL     1      22.792  11.278   4.876  0.00  0.00    +0.000 C 
ATOM     11  C   UNL     1      24.191  11.766   4.521  0.00  0.00    +0.000 C 
BRANCH  10  12
ATOM     12  O   UNL     1      22.301  10.498   3.777  0.00  0.00    +0.000 OA
ATOM     13  H   UNL     1      21.872   9.704   4.139  0.00  0.00    +0.000 HD
ENDBRANCH  10  12
ENDBRANCH   9  10
ENDBRANCH   1   9
BRANCH   1  14
ATOM     14  C   UNL     1      22.868  11.646   8.377  0.00  0.00    +0.000 C 
BRANCH  14  15
ATOM     15  C   UNL     1      23.122  13.162   8.199  0.00  0.00    +0.000 C 
ATOM     16  C   UNL     1      24.567  13.490   7.841  0.00  0.00    +0.000 C 
BRANCH  15  17
ATOM     17  O   UNL     1      22.280  13.723   7.192  0.00  0.00    +0.000 OA
ATOM     18  H   UNL     1      21.411  13.839   7.627  0.00  0.00    +0.000 HD
ENDBRANCH  15  17
ENDBRANCH  14  15
ENDBRANCH   1  14
TORSDOF 7
ENDMDL
MODEL 8
REMARK VINA RESULT:    -4.006     12.427     14.374
REMARK INTER + INTRA:          -5.933
REMARK INTER:                  -5.236
REMARK INTRA:                  -0.697
REMARK UNBOUND:                -0.523
REMARK  Name = 
REMARK  10 active torsions:
REMARK  status: ('A' for Active; 'I' for Inactive)
REMARK    1  A    between atoms: C_1  and  C_2
REMARK    2  A    between atoms: C_5  and  N_8
REMARK    3  A    between atoms: N_8  and  C_9
REMARK    4  A    between atoms: N_8  and  C_13
REMARK    5  A    between atoms: C_9  and  C_10
REMARK    6  A    between atoms: C_10  and  C_11
REMARK    7  A    between atoms: C_10  and  O_12
REMARK    8  A    between atoms: C_13  and  C_14
REMARK    9  A    between atoms: C_14  and  C_15
REMARK   10  A    between atoms: C_14  and  O_16
REMARK                            x       y       z     vdW  Elec       q    Type
REMARK                         _______ _______ _______ _____ _____    ______ ____
ROOT
ATOM      1  N   UNL     1      23.425  11.593   5.989  0.00  0.00    +0.000 N 
ENDROOT
BRANCH   1   6
ATOM      2  C   UNL     1      18.821  10.725   9.362  0.00  0.00    +0.000 C 
ATOM      3  C   UNL     1      20.005  10.971   8.478  0.00  0.00    +0.000 A 
ATOM      4  C   UNL     1      20.076  10.410   7.207  0.00  0.00    +0.000 A 
ATOM      5  C   UNL     1      21.202  10.620   6.394  0.00  0.00    +0.000 A 
ATOM      6  C   UNL     1      22.314  11.372   6.812  0.00  0.00    +0.000 A 
ATOM      7  C   UNL     1      22.206  11.926   8.102  0.00  0.00    +0.000 A 
ATOM      8  C   UNL     1      21.085  11.726   8.924  0.00  0.00    +0.000 A 
ENDBRANCH   1   6
BRANCH   1   9
ATOM      9  C   UNL     1      24.356  10.481   5.683  0.00  0.00    +0.000 C 
BRANCH   9  10
ATOM     10  C   UNL     1      24.514  10.231   4.163  0.00  0.00    +0.000 C 
ATOM     11  C   UNL     1      25.330   8.970   3.900  0.00  0.00    +0.000 C 
BRANCH  10  12
ATOM     12  O   UNL     1      23.236  10.073   3.532  0.00  0.00    +0.000 OA
ATOM     13  H   UNL     1      22.580   9.884   4.223  0.00  0.00    +0.000 HD
ENDBRANCH  10  12
ENDBRANCH   9  10
ENDBRANCH   1   9
BRANCH   1  14
ATOM     14  C   UNL     1      23.999  12.953   5.821  0.00  0.00    +0.000 C 
BRANCH  14  15
ATOM     15  C   UNL     1      23.239  13.781   4.758  0.00  0.00    +0.000 C 
ATOM     16  C   UNL     1      24.105  14.844   4.093  0.00  0.00    +0.000 C 
BRANCH  15  17
ATOM     17  O   UNL     1      22.694  12.951   3.733  0.00  0.00    +0.000 OA
ATOM     18  H   UNL     1      22.958  13.379   2.894  0.00  0.00    +0.000 HD
ENDBRANCH  15  17
ENDBRANCH  14  15
ENDBRANCH   1  14
TORSDOF 7
ENDMDL
MODEL 9
REMARK VINA RESULT:    -3.896     11.860     13.703
REMARK INTER + INTRA:          -5.784
REMARK INTER:                  -5.284
REMARK INTRA:                  -0.500
REMARK UNBOUND:                -0.523
REMARK  Name = 
REMARK  10 active torsions:
REMARK  status: ('A' for Active; 'I' for Inactive)
REMARK    1  A    between atoms: C_1  and  C_2
REMARK    2  A    between atoms: C_5  and  N_8
REMARK    3  A    between atoms: N_8  and  C_9
REMARK    4  A    between atoms: N_8  and  C_13
REMARK    5  A    between atoms: C_9  and  C_10
REMARK    6  A    between atoms: C_10  and  C_11
REMARK    7  A    between atoms: C_10  and  O_12
REMARK    8  A    between atoms: C_13  and  C_14
REMARK    9  A    between atoms: C_14  and  C_15
REMARK   10  A    between atoms: C_14  and  O_16
REMARK                            x       y       z     vdW  Elec       q    Type
REMARK                         _______ _______ _______ _____ _____    ______ ____
ROOT
ATOM      1  N   UNL     1      22.736  11.488   6.658  0.00  0.00    +0.000 N 
ENDROOT
BRANCH   1   6
ATOM      2  C   UNL     1      17.835  10.288   9.464  0.00  0.00    +0.000 C 
ATOM      3  C   UNL     1      19.117  10.578   8.745  0.00  0.00    +0.000 A 
ATOM      4  C   UNL     1      20.091  11.387   9.322  0.00  0.00    +0.000 A 
ATOM      5  C   UNL     1      21.279  11.681   8.631  0.00  0.00    +0.000 A 
ATOM      6  C   UNL     1      21.541  11.207   7.333  0.00  0.00    +0.000 A 
ATOM      7  C   UNL     1      20.536  10.391   6.783  0.00  0.00    +0.000 A 
ATOM      8  C   UNL     1      19.345  10.088   7.463  0.00  0.00    +0.000 A 
ENDBRANCH   1   6
BRANCH   1   9
ATOM      9  C   UNL     1      23.055  12.880   6.260  0.00  0.00    +0.000 C 
BRANCH   9  10
ATOM     10  C   UNL     1      24.483  13.311   6.675  0.00  0.00    +0.000 C 
ATOM     11  C   UNL     1      25.159  14.102   5.561  0.00  0.00    +0.000 C 
BRANCH  10  12
ATOM     12  O   UNL     1      24.451  14.135   7.848  0.00  0.00    +0.000 OA
ATOM     13  H   UNL     1      25.350  14.174   8.214  0.00  0.00    +0.000 HD
ENDBRANCH  10  12
ENDBRANCH   9  10
ENDBRANCH   1   9
BRANCH   1  14
ATOM     14  C   UNL     1      23.447  10.439   5.884  0.00  0.00    +0.000 C 
BRANCH  14  15
ATOM     15  C   UNL     1      23.489  10.757   4.370  0.00  0.00    +0.000 C 
ATOM     16  C   UNL     1      24.665  10.105   3.652  0.00  0.00    +0.000 C 
BRANCH  15  17
ATOM     17  O   UNL     1      22.290  10.351   3.712  0.00  0.00    +0.000 OA
ATOM     18  H   UNL     1      21.625  11.025   3.959  0.00  0.00    +0.000 HD
ENDBRANCH  15  17
ENDBRANCH  14  15
ENDBRANCH   1  14
TORSDOF 7
ENDMDL
