MODEL 1
REMARK VINA RESULT:    -4.793      0.000      0.000
REMARK INTER + INTRA:          -5.253
REMARK INTER:                  -5.213
REMARK INTRA:                  -0.040
REMARK UNBOUND:                -0.040
REMARK  Name = 
REMARK  3 active torsions:
REMARK  status: ('A' for Active; 'I' for Inactive)
REMARK    1  A    between atoms: C_1  and  O_2
REMARK    2  A    between atoms: O_2  and  C_3
REMARK    3  A    between atoms: C_8  and  O_9
REMARK                            x       y       z     vdW  Elec       q    Type
REMARK                         _______ _______ _______ _____ _____    ______ ____
ROOT
ATOM      1  C   UNL     1      10.158   6.306   6.135  0.00  0.00    +0.000 A 
ATOM      2  C   UNL     1      10.383   7.456   5.380  0.00  0.00    +0.000 A 
ATOM      3  C   UNL     1      10.381   7.386   3.981  0.00  0.00    +0.000 A 
ATOM      4  C   UNL     1      10.157   6.169   3.334  0.00  0.00    +0.000 A 
ATOM      5  C   UNL     1       9.931   5.016   4.082  0.00  0.00    +0.000 A 
ATOM      6  C   UNL     1       9.935   5.095   5.468  0.00  0.00    +0.000 A 
ENDROOT
BRANCH   1   8
ATOM      7  C   UNL     1       9.785   7.417   8.203  0.00  0.00    +0.000 C 
ATOM      8  O   UNL     1      10.132   6.227   7.505  0.00  0.00    +0.000 OA
ENDBRANCH   1   8
BRANCH   6   9
ATOM      9  O   UNL     1       9.711   3.947   6.182  0.00  0.00    +0.000 OA
ATOM     10  H   UNL     1       8.782   3.715   5.993  0.00  0.00    +0.000 HD
ENDBRANCH   6   9
TORSDOF 2
ENDMDL
MODEL 2
REMARK VINA RESULT:    -4.690      8.776      9.966
REMARK INTER + INTRA:          -5.142
REMARK INTER:                  -5.144
REMARK INTRA:                   0.003
REMARK UNBOUND:                -0.040
REMARK  Name = 
REMARK  3 active torsions:
REMARK  status: ('A' for Active; 'I' for Inactive)
REMARK    1  A    between atoms: C_1  and  O_2
REMARK    2  A    between atoms: O_2  and  C_3
REMARK    3  A    between atoms: C_8  and  O_9
REMARK                            x       y       z     vdW  Elec       q    Type
REMARK                         _______ _______ _______ _____ _____    ______ ____
ROOT
ATOM      1  C   UNL     1       8.084  -2.019   9.841  0.00  0.00    +0.000 A 
ATOM      2  C   UNL     1       9.445  -2.317   9.873  0.00  0.00    +0.000 A 
ATOM      3  C   UNL     1       9.900  -3.562   9.418  0.00  0.00    +0.000 A 
ATOM      4  C   UNL     1       8.998  -4.511   8.933  0.00  0.00    +0.000 A 
ATOM      5  C   UNL     1       7.636  -4.220   8.897  0.00  0.00    +0.000 A 
ATOM      6  C   UNL     1       7.194  -2.984   9.351  0.00  0.00    +0.000 A 
ENDROOT
BRANCH   1   8
ATOM      7  C   UNL     1       7.483   0.218   9.310  0.00  0.00    +0.000 C 
ATOM      8  O   UNL     1       7.500  -0.848  10.252  0.00  0.00    +0.000 OA
ENDBRANCH   1   8
BRANCH   6   9
ATOM      9  O   UNL     1       5.851  -2.721   9.306  0.00  0.00    +0.000 OA
ATOM     10  H   UNL     1       5.782  -1.756   9.436  0.00  0.00    +0.000 HD
ENDBRANCH   6   9
TORSDOF 2
ENDMDL
MODEL 3
REMARK VINA RESULT:    -4.531      8.695      9.972
REMARK INTER + INTRA:          -4.969
REMARK INTER:                  -4.931
REMARK INTRA:                  -0.037
REMARK UNBOUND:                -0.040
REMARK  Name = 
REMARK  3 active torsions:
REMARK  status: ('A' for Active; 'I' for Inactive)
REMARK    1  A    between atoms: C_1  and  O_2
REMARK    2  A    between atoms: O_2  and  C_3
REMARK    3  A    between atoms: C_8  and  O_9
REMARK                            x       y       z     vdW  Elec       q    Type
REMARK                         _______ _______ _______ _____ _____    ______ ____
ROOT
ATOM      1  C   UNL     1       8.414  -2.066   9.378  0.00  0.00    +0.000 A 
ATOM      2  C   UNL     1       7.248  -2.831   9.363  0.00  0.00    +0.000 A 
ATOM      3  C   UNL     1       7.329  -4.227   9.278  0.00  0.00    +0.000 A 
ATOM      4  C   UNL     1       8.571  -4.861   9.206  0.00  0.00    +0.000 A 
ATOM      5  C   UNL     1       9.740  -4.103   9.220  0.00  0.00    +0.000 A 
ATOM      6  C   UNL     1       9.650  -2.719   9.305  0.00  0.00    +0.000 A 
ENDROOT
BRANCH   1   8
ATOM      7  C   UNL     1       7.250   0.006   9.393  0.00  0.00    +0.000 C 
ATOM      8  O   UNL     1       8.484  -0.698   9.457  0.00  0.00    +0.000 OA
ENDBRANCH   1   8
BRANCH   6   9
ATOM      9  O   UNL     1      10.812  -1.995   9.318  0.00  0.00    +0.000 OA
ATOM     10  H   UNL     1      10.529  -1.069   9.197  0.00  0.00    +0.000 HD
ENDBRANCH   6   9
TORSDOF 2
ENDMDL
MODEL 4
REMARK VINA RESULT:    -4.252      9.259     10.630
REMARK INTER + INTRA:          -4.665
REMARK INTER:                  -4.627
REMARK INTRA:                  -0.038
REMARK UNBOUND:                -0.040
REMARK  Name = 
REMARK  3 active torsions:
REMARK  status: ('A' for Active; 'I' for Inactive)
REMARK    1  A    between atoms: C_1  and  O_2
REMARK    2  A    between atoms: O_2  and  C_3
REMARK    3  A    between atoms: C_8  and  O_9
REMARK                            x       y       z     vdW  Elec       q    Type
REMARK                         _______ _______ _______ _____ _____    ______ ____
ROOT
ATOM      1  C   UNL     1       9.033  -3.407  10.299  0.00  0.00    +0.000 A 
ATOM      2  C   UNL     1       7.711  -3.579  10.706  0.00  0.00    +0.000 A 
ATOM      3  C   UNL     1       6.776  -2.558  10.494  0.00  0.00    +0.000 A 
ATOM      4  C   UNL     1       7.157  -1.365   9.878  0.00  0.00    +0.000 A 
ATOM      5  C   UNL     1       8.476  -1.186   9.468  0.00  0.00    +0.000 A 
ATOM      6  C   UNL     1       9.397  -2.203   9.682  0.00  0.00    +0.000 A 
ENDROOT
BRANCH   1   8
ATOM      7  C   UNL     1       9.671  -5.647  10.770  0.00  0.00    +0.000 C 
ATOM      8  O   UNL     1      10.051  -4.316  10.442  0.00  0.00    +0.000 OA
ENDBRANCH   1   8
BRANCH   6   9
ATOM      9  O   UNL     1      10.688  -2.004   9.271  0.00  0.00    +0.000 OA
ATOM     10  H   UNL     1      10.647  -1.216   8.696  0.00  0.00    +0.000 HD
ENDBRANCH   6   9
TORSDOF 2
ENDMDL
MODEL 5
REMARK VINA RESULT:    -4.181      1.472      2.392
REMARK INTER + INTRA:          -4.587
REMARK INTER:                  -4.546
REMARK INTRA:                  -0.041
REMARK UNBOUND:                -0.040
REMARK  Name = 
REMARK  3 active torsions:
REMARK  status: ('A' for Active; 'I' for Inactive)
REMARK    1  A    between atoms: C_1  and  O_2
REMARK    2  A    between atoms: O_2  and  C_3
REMARK    3  A    between atoms: C_8  and  O_9
REMARK                            x       y       z     vdW  Elec       q    Type
REMARK                         _______ _______ _______ _____ _____    ______ ____
ROOT
ATOM      1  C   UNL     1       9.829   6.623   5.857  0.00  0.00    +0.000 A 
ATOM      2  C   UNL     1       9.684   5.244   6.003  0.00  0.00    +0.000 A 
ATOM      3  C   UNL     1       9.880   4.399   4.904  0.00  0.00    +0.000 A 
ATOM      4  C   UNL     1      10.221   4.927   3.657  0.00  0.00    +0.000 A 
ATOM      5  C   UNL     1      10.368   6.304   3.503  0.00  0.00    +0.000 A 
ATOM      6  C   UNL     1      10.171   7.134   4.599  0.00  0.00    +0.000 A 
ENDROOT
BRANCH   1   8
ATOM      7  C   UNL     1       9.964   7.152   8.169  0.00  0.00    +0.000 C 
ATOM      8  O   UNL     1       9.667   7.565   6.841  0.00  0.00    +0.000 OA
ENDBRANCH   1   8
BRANCH   6   9
ATOM      9  O   UNL     1      10.321   8.484   4.422  0.00  0.00    +0.000 OA
ATOM     10  H   UNL     1       9.924   8.884   5.219  0.00  0.00    +0.000 HD
ENDBRANCH   6   9
TORSDOF 2
ENDMDL
MODEL 6
REMARK VINA RESULT:    -3.999      6.429      7.309
REMARK INTER + INTRA:          -4.390
REMARK INTER:                  -4.352
REMARK INTRA:                  -0.038
REMARK UNBOUND:                -0.040
REMARK  Name = 
REMARK  3 active torsions:
REMARK  status: ('A' for Active; 'I' for Inactive)
REMARK    1  A    between atoms: C_1  and  O_2
REMARK    2  A    between atoms: O_2  and  C_3
REMARK    3  A    between atoms: C_8  and  O_9
REMARK                            x       y       z     vdW  Elec       q    Type
REMARK                         _______ _______ _______ _____ _____    ______ ____
ROOT
ATOM      1  C   UNL     1       9.590  11.266  10.693  0.00  0.00    +0.000 A 
ATOM      2  C   UNL     1      10.769  10.533  10.571  0.00  0.00    +0.000 A 
ATOM      3  C   UNL     1      10.716   9.140  10.441  0.00  0.00    +0.000 A 
ATOM      4  C   UNL     1       9.488   8.476  10.432  0.00  0.00    +0.000 A 
ATOM      5  C   UNL     1       8.306   9.201  10.553  0.00  0.00    +0.000 A 
ATOM      6  C   UNL     1       8.367  10.583  10.682  0.00  0.00    +0.000 A 
ENDROOT
BRANCH   1   8
ATOM      7  C   UNL     1      10.674  13.378  10.575  0.00  0.00    +0.000 C 
ATOM      8  O   UNL     1       9.491  12.628  10.827  0.00  0.00    +0.000 OA
ENDBRANCH   1   8
BRANCH   6   9
ATOM      9  O   UNL     1       7.191  11.275  10.798  0.00  0.00    +0.000 OA
ATOM     10  H   UNL     1       7.460  12.187  11.016  0.00  0.00    +0.000 HD
ENDBRANCH   6   9
TORSDOF 2
ENDMDL
MODEL 7
REMARK VINA RESULT:    -3.988      9.619     10.900
REMARK INTER + INTRA:          -4.378
REMARK INTER:                  -4.339
REMARK INTRA:                  -0.038
REMARK UNBOUND:                -0.040
REMARK  Name = 
REMARK  3 active torsions:
REMARK  status: ('A' for Active; 'I' for Inactive)
REMARK    1  A    between atoms: C_1  and  O_2
REMARK    2  A    between atoms: O_2  and  C_3
REMARK    3  A    between atoms: C_8  and  O_9
REMARK                            x       y       z     vdW  Elec       q    Type
REMARK                         _______ _______ _______ _____ _____    ______ ____
ROOT
ATOM      1  C   UNL     1       8.381  -3.811  10.204  0.00  0.00    +0.000 A 
ATOM      2  C   UNL     1       9.449  -3.059   9.717  0.00  0.00    +0.000 A 
ATOM      3  C   UNL     1       9.259  -1.715   9.373  0.00  0.00    +0.000 A 
ATOM      4  C   UNL     1       8.004  -1.119   9.513  0.00  0.00    +0.000 A 
ATOM      5  C   UNL     1       6.932  -1.863  10.000  0.00  0.00    +0.000 A 
ATOM      6  C   UNL     1       7.130  -3.196  10.338  0.00  0.00    +0.000 A 
ENDROOT
BRANCH   1   8
ATOM      7  C   UNL     1       9.709  -5.680  10.827  0.00  0.00    +0.000 C 
ATOM      8  O   UNL     1       8.421  -5.130  10.577  0.00  0.00    +0.000 OA
ENDBRANCH   1   8
BRANCH   6   9
ATOM      9  O   UNL     1       6.061  -3.907  10.814  0.00  0.00    +0.000 OA
ATOM     10  H   UNL     1       6.422  -4.435  11.552  0.00  0.00    +0.000 HD
ENDBRANCH   6   9
TORSDOF 2
ENDMDL
MODEL 8
REMARK VINA RESULT:    -3.930      9.778     10.516
REMARK INTER + INTRA:          -4.314
REMARK INTER:                  -4.315
REMARK INTRA:                   0.001
REMARK UNBOUND:                -0.040
REMARK  Name = 
REMARK  3 active torsions:
REMARK  status: ('A' for Active; 'I' for Inactive)
REMARK    1  A    between atoms: C_1  and  O_2
REMARK    2  A    between atoms: O_2  and  C_3
REMARK    3  A    between atoms: C_8  and  O_9
REMARK                            x       y       z     vdW  Elec       q    Type
REMARK                         _______ _______ _______ _____ _____    ______ ____
ROOT
ATOM      1  C   UNL     1       9.422  -2.840   9.586  0.00  0.00    +0.000 A 
ATOM      2  C   UNL     1       8.367  -2.127  10.155  0.00  0.00    +0.000 A 
ATOM      3  C   UNL     1       7.052  -2.583  10.000  0.00  0.00    +0.000 A 
ATOM      4  C   UNL     1       6.786  -3.748   9.279  0.00  0.00    +0.000 A 
ATOM      5  C   UNL     1       7.835  -4.466   8.708  0.00  0.00    +0.000 A 
ATOM      6  C   UNL     1       9.136  -4.006   8.866  0.00  0.00    +0.000 A 
ENDROOT
BRANCH   1   8
ATOM      7  C   UNL     1      11.448  -2.928  10.826  0.00  0.00    +0.000 C 
ATOM      8  O   UNL     1      10.753  -2.513   9.656  0.00  0.00    +0.000 OA
ENDBRANCH   1   8
BRANCH   6   9
ATOM      9  O   UNL     1      10.151  -4.729   8.296  0.00  0.00    +0.000 OA
ATOM     10  H   UNL     1      10.729  -4.060   7.881  0.00  0.00    +0.000 HD
ENDBRANCH   6   9
TORSDOF 2
ENDMDL
MODEL 9
REMARK VINA RESULT:    -3.783      2.007      4.766
REMARK INTER + INTRA:          -4.154
REMARK INTER:                  -4.109
REMARK INTRA:                  -0.045
REMARK UNBOUND:                -0.040
REMARK  Name = 
REMARK  3 active torsions:
REMARK  status: ('A' for Active; 'I' for Inactive)
REMARK    1  A    between atoms: C_1  and  O_2
REMARK    2  A    between atoms: O_2  and  C_3
REMARK    3  A    between atoms: C_8  and  O_9
REMARK                            x       y       z     vdW  Elec       q    Type
REMARK                         _______ _______ _______ _____ _____    ______ ____
ROOT
ATOM      1  C   UNL     1      10.158   7.148   8.486  0.00  0.00    +0.000 A 
ATOM      2  C   UNL     1       9.377   8.300   8.404  0.00  0.00    +0.000 A 
ATOM      3  C   UNL     1       8.672   8.748   9.528  0.00  0.00    +0.000 A 
ATOM      4  C   UNL     1       8.744   8.049  10.735  0.00  0.00    +0.000 A 
ATOM      5  C   UNL     1       9.523   6.897  10.824  0.00  0.00    +0.000 A 
ATOM      6  C   UNL     1      10.218   6.459   9.704  0.00  0.00    +0.000 A 
ENDROOT
BRANCH   1   8
ATOM      7  C   UNL     1      10.294   6.579   6.183  0.00  0.00    +0.000 C 
ATOM      8  O   UNL     1      10.897   6.595   7.471  0.00  0.00    +0.000 OA
ENDBRANCH   1   8
BRANCH   6   9
ATOM      9  O   UNL     1      10.976   5.325   9.817  0.00  0.00    +0.000 OA
ATOM     10  H   UNL     1      11.593   5.510  10.550  0.00  0.00    +0.000 HD
ENDBRANCH   6   9
TORSDOF 2
ENDMDL
