MODEL 1
REMARK VINA RESULT:    -4.812      0.000      0.000
REMARK INTER + INTRA:          -5.274
REMARK INTER:                  -5.234
REMARK INTRA:                  -0.040
REMARK UNBOUND:                -0.040
REMARK  Name = 
REMARK  3 active torsions:
REMARK  status: ('A' for Active; 'I' for Inactive)
REMARK    1  A    between atoms: C_1  and  O_2
REMARK    2  A    between atoms: O_2  and  C_3
REMARK    3  A    between atoms: C_8  and  O_9
REMARK                            x       y       z     vdW  Elec       q    Type
REMARK                         _______ _______ _______ _____ _____    ______ ____
ROOT
ATOM      1  C   UNL     1      10.171   6.279   6.125  0.00  0.00    +0.000 A 
ATOM      2  C   UNL     1      10.374   7.419   5.347  0.00  0.00    +0.000 A 
ATOM      3  C   UNL     1      10.343   7.327   3.950  0.00  0.00    +0.000 A 
ATOM      4  C   UNL     1      10.111   6.100   3.326  0.00  0.00    +0.000 A 
ATOM      5  C   UNL     1       9.907   4.957   4.096  0.00  0.00    +0.000 A 
ATOM      6  C   UNL     1       9.939   5.057   5.481  0.00  0.00    +0.000 A 
ENDROOT
BRANCH   1   8
ATOM      7  C   UNL     1       9.839   7.421   8.182  0.00  0.00    +0.000 C 
ATOM      8  O   UNL     1      10.175   6.221   7.495  0.00  0.00    +0.000 OA
ENDBRANCH   1   8
BRANCH   6   9
ATOM      9  O   UNL     1       9.736   3.920   6.216  0.00  0.00    +0.000 OA
ATOM     10  H   UNL     1       9.997   3.191   5.623  0.00  0.00    +0.000 HD
ENDBRANCH   6   9
TORSDOF 2
ENDMDL
MODEL 2
REMARK VINA RESULT:    -4.695      8.733      9.932
REMARK INTER + INTRA:          -5.147
REMARK INTER:                  -5.147
REMARK INTRA:                   0.001
REMARK UNBOUND:                -0.040
REMARK  Name = 
REMARK  3 active torsions:
REMARK  status: ('A' for Active; 'I' for Inactive)
REMARK    1  A    between atoms: C_1  and  O_2
REMARK    2  A    between atoms: O_2  and  C_3
REMARK    3  A    between atoms: C_8  and  O_9
REMARK                            x       y       z     vdW  Elec       q    Type
REMARK                         _______ _______ _______ _____ _____    ______ ____
ROOT
ATOM      1  C   UNL     1       8.097  -2.010   9.825  0.00  0.00    +0.000 A 
ATOM      2  C   UNL     1       9.457  -2.316   9.850  0.00  0.00    +0.000 A 
ATOM      3  C   UNL     1       9.901  -3.569   9.409  0.00  0.00    +0.000 A 
ATOM      4  C   UNL     1       8.990  -4.519   8.944  0.00  0.00    +0.000 A 
ATOM      5  C   UNL     1       7.630  -4.221   8.916  0.00  0.00    +0.000 A 
ATOM      6  C   UNL     1       7.198  -2.976   9.355  0.00  0.00    +0.000 A 
ENDROOT
BRANCH   1   8
ATOM      7  C   UNL     1       7.512   0.225   9.271  0.00  0.00    +0.000 C 
ATOM      8  O   UNL     1       7.523  -0.830  10.225  0.00  0.00    +0.000 OA
ENDBRANCH   1   8
BRANCH   6   9
ATOM      9  O   UNL     1       5.856  -2.707   9.318  0.00  0.00    +0.000 OA
ATOM     10  H   UNL     1       5.792  -1.742   9.456  0.00  0.00    +0.000 HD
ENDBRANCH   6   9
TORSDOF 2
ENDMDL
MODEL 3
REMARK VINA RESULT:    -4.538      8.679      9.968
REMARK INTER + INTRA:          -4.976
REMARK INTER:                  -4.938
REMARK INTRA:                  -0.038
REMARK UNBOUND:                -0.040
REMARK  Name = 
REMARK  3 active torsions:
REMARK  status: ('A' for Active; 'I' for Inactive)
REMARK    1  A    between atoms: C_1  and  O_2
REMARK    2  A    between atoms: O_2  and  C_3
REMARK    3  A    between atoms: C_8  and  O_9
REMARK                            x       y       z     vdW  Elec       q    Type
REMARK                         _______ _______ _______ _____ _____    ______ ____
ROOT
ATOM      1  C   UNL     1       8.399  -2.060   9.415  0.00  0.00    +0.000 A 
ATOM      2  C   UNL     1       7.237  -2.831   9.429  0.00  0.00    +0.000 A 
ATOM      3  C   UNL     1       7.324  -4.228   9.395  0.00  0.00    +0.000 A 
ATOM      4  C   UNL     1       8.568  -4.859   9.346  0.00  0.00    +0.000 A 
ATOM      5  C   UNL     1       9.734  -4.097   9.332  0.00  0.00    +0.000 A 
ATOM      6  C   UNL     1       9.638  -2.711   9.365  0.00  0.00    +0.000 A 
ENDROOT
BRANCH   1   8
ATOM      7  C   UNL     1       7.232   0.007   9.312  0.00  0.00    +0.000 C 
ATOM      8  O   UNL     1       8.465  -0.690   9.443  0.00  0.00    +0.000 OA
ENDBRANCH   1   8
BRANCH   6   9
ATOM      9  O   UNL     1      10.798  -1.983   9.351  0.00  0.00    +0.000 OA
ATOM     10  H   UNL     1      10.765  -1.447  10.166  0.00  0.00    +0.000 HD
ENDBRANCH   6   9
TORSDOF 2
ENDMDL
MODEL 4
REMARK VINA RESULT:    -4.161      1.469      2.392
REMARK INTER + INTRA:          -4.565
REMARK INTER:                  -4.525
REMARK INTRA:                  -0.041
REMARK UNBOUND:                -0.040
REMARK  Name = 
REMARK  3 active torsions:
REMARK  status: ('A' for Active; 'I' for Inactive)
REMARK    1  A    between atoms: C_1  and  O_2
REMARK    2  A    between atoms: O_2  and  C_3
REMARK    3  A    between atoms: C_8  and  O_9
REMARK                            x       y       z     vdW  Elec       q    Type
REMARK                         _______ _______ _______ _____ _____    ______ ____
ROOT
ATOM      1  C   UNL     1       9.850   6.608   5.850  0.00  0.00    +0.000 A 
ATOM      2  C   UNL     1       9.697   5.230   5.993  0.00  0.00    +0.000 A 
ATOM      3  C   UNL     1       9.848   4.390   4.882  0.00  0.00    +0.000 A 
ATOM      4  C   UNL     1      10.152   4.923   3.628  0.00  0.00    +0.000 A 
ATOM      5  C   UNL     1      10.307   6.299   3.477  0.00  0.00    +0.000 A 
ATOM      6  C   UNL     1      10.155   7.124   4.584  0.00  0.00    +0.000 A 
ENDROOT
BRANCH   1   8
ATOM      7  C   UNL     1      10.049   7.115   8.163  0.00  0.00    +0.000 C 
ATOM      8  O   UNL     1       9.730   7.545   6.845  0.00  0.00    +0.000 OA
ENDBRANCH   1   8
BRANCH   6   9
ATOM      9  O   UNL     1      10.312   8.474   4.411  0.00  0.00    +0.000 OA
ATOM     10  H   UNL     1      10.397   8.592   3.446  0.00  0.00    +0.000 HD
ENDBRANCH   6   9
TORSDOF 2
ENDMDL
MODEL 5
REMARK VINA RESULT:    -4.002      9.512     10.913
REMARK INTER + INTRA:          -4.393
REMARK INTER:                  -4.400
REMARK INTRA:                   0.007
REMARK UNBOUND:                -0.040
REMARK  Name = 
REMARK  3 active torsions:
REMARK  status: ('A' for Active; 'I' for Inactive)
REMARK    1  A    between atoms: C_1  and  O_2
REMARK    2  A    between atoms: O_2  and  C_3
REMARK    3  A    between atoms: C_8  and  O_9
REMARK                            x       y       z     vdW  Elec       q    Type
REMARK                         _______ _______ _______ _____ _____    ______ ____
ROOT
ATOM      1  C   UNL     1       8.560  -4.058   9.750  0.00  0.00    +0.000 A 
ATOM      2  C   UNL     1       7.239  -3.826  10.131  0.00  0.00    +0.000 A 
ATOM      3  C   UNL     1       6.754  -2.514  10.210  0.00  0.00    +0.000 A 
ATOM      4  C   UNL     1       7.585  -1.433   9.909  0.00  0.00    +0.000 A 
ATOM      5  C   UNL     1       8.906  -1.658   9.527  0.00  0.00    +0.000 A 
ATOM      6  C   UNL     1       9.378  -2.962   9.452  0.00  0.00    +0.000 A 
ENDROOT
BRANCH   1   8
ATOM      7  C   UNL     1       9.701  -5.845  10.824  0.00  0.00    +0.000 C 
ATOM      8  O   UNL     1       9.166  -5.283   9.631  0.00  0.00    +0.000 OA
ENDBRANCH   1   8
BRANCH   6   9
ATOM      9  O   UNL     1      10.680  -3.157   9.074  0.00  0.00    +0.000 OA
ATOM     10  H   UNL     1      10.969  -2.293   8.724  0.00  0.00    +0.000 HD
ENDBRANCH   6   9
TORSDOF 2
ENDMDL
MODEL 6
REMARK VINA RESULT:    -3.976      6.061      7.372
REMARK INTER + INTRA:          -4.364
REMARK INTER:                  -4.326
REMARK INTRA:                  -0.038
REMARK UNBOUND:                -0.040
REMARK  Name = 
REMARK  3 active torsions:
REMARK  status: ('A' for Active; 'I' for Inactive)
REMARK    1  A    between atoms: C_1  and  O_2
REMARK    2  A    between atoms: O_2  and  C_3
REMARK    3  A    between atoms: C_8  and  O_9
REMARK                            x       y       z     vdW  Elec       q    Type
REMARK                         _______ _______ _______ _____ _____    ______ ____
ROOT
ATOM      1  C   UNL     1       9.295   9.830  10.642  0.00  0.00    +0.000 A 
ATOM      2  C   UNL     1      10.674   9.633  10.609  0.00  0.00    +0.000 A 
ATOM      3  C   UNL     1      11.540  10.733  10.670  0.00  0.00    +0.000 A 
ATOM      4  C   UNL     1      11.031  12.029  10.764  0.00  0.00    +0.000 A 
ATOM      5  C   UNL     1       9.653  12.234  10.798  0.00  0.00    +0.000 A 
ATOM      6  C   UNL     1       8.803  11.138  10.737  0.00  0.00    +0.000 A 
ENDROOT
BRANCH   1   8
ATOM      7  C   UNL     1       8.772   7.519  10.827  0.00  0.00    +0.000 C 
ATOM      8  O   UNL     1       8.334   8.851  10.590  0.00  0.00    +0.000 OA
ENDBRANCH   1   8
BRANCH   6   9
ATOM      9  O   UNL     1       7.453  11.364  10.772  0.00  0.00    +0.000 OA
ATOM     10  H   UNL     1       7.333  12.049  11.457  0.00  0.00    +0.000 HD
ENDBRANCH   6   9
TORSDOF 2
ENDMDL
MODEL 7
REMARK VINA RESULT:    -3.871      6.032      6.892
REMARK INTER + INTRA:          -4.250
REMARK INTER:                  -4.213
REMARK INTRA:                  -0.037
REMARK UNBOUND:                -0.040
REMARK  Name = 
REMARK  3 active torsions:
REMARK  status: ('A' for Active; 'I' for Inactive)
REMARK    1  A    between atoms: C_1  and  O_2
REMARK    2  A    between atoms: O_2  and  C_3
REMARK    3  A    between atoms: C_8  and  O_9
REMARK                            x       y       z     vdW  Elec       q    Type
REMARK                         _______ _______ _______ _____ _____    ______ ____
ROOT
ATOM      1  C   UNL     1       9.787  10.742  10.459  0.00  0.00    +0.000 A 
ATOM      2  C   UNL     1      10.672   9.722  10.111  0.00  0.00    +0.000 A 
ATOM      3  C   UNL     1      10.182   8.449   9.796  0.00  0.00    +0.000 A 
ATOM      4  C   UNL     1       8.811   8.189   9.829  0.00  0.00    +0.000 A 
ATOM      5  C   UNL     1       7.921   9.203  10.175  0.00  0.00    +0.000 A 
ATOM      6  C   UNL     1       8.415  10.463  10.486  0.00  0.00    +0.000 A 
ENDROOT
BRANCH   1   8
ATOM      7  C   UNL     1      11.513  12.333  10.827  0.00  0.00    +0.000 C 
ATOM      8  O   UNL     1      10.124  12.030  10.790  0.00  0.00    +0.000 OA
ENDBRANCH   1   8
BRANCH   6   9
ATOM      9  O   UNL     1       7.521  11.444  10.824  0.00  0.00    +0.000 OA
ATOM     10  H   UNL     1       6.645  11.058  10.632  0.00  0.00    +0.000 HD
ENDBRANCH   6   9
TORSDOF 2
ENDMDL
MODEL 8
REMARK VINA RESULT:    -3.824      9.494     10.722
REMARK INTER + INTRA:          -4.199
REMARK INTER:                  -4.167
REMARK INTRA:                  -0.032
REMARK UNBOUND:                -0.040
REMARK  Name = 
REMARK  3 active torsions:
REMARK  status: ('A' for Active; 'I' for Inactive)
REMARK    1  A    between atoms: C_1  and  O_2
REMARK    2  A    between atoms: O_2  and  C_3
REMARK    3  A    between atoms: C_8  and  O_9
REMARK                            x       y       z     vdW  Elec       q    Type
REMARK                         _______ _______ _______ _____ _____    ______ ____
ROOT
ATOM      1  C   UNL     1       8.885  -3.815   9.454  0.00  0.00    +0.000 A 
ATOM      2  C   UNL     1       9.677  -2.673   9.568  0.00  0.00    +0.000 A 
ATOM      3  C   UNL     1       9.080  -1.406   9.573  0.00  0.00    +0.000 A 
ATOM      4  C   UNL     1       7.695  -1.275   9.463  0.00  0.00    +0.000 A 
ATOM      5  C   UNL     1       6.897  -2.412   9.349  0.00  0.00    +0.000 A 
ATOM      6  C   UNL     1       7.497  -3.664   9.345  0.00  0.00    +0.000 A 
ENDROOT
BRANCH   1   8
ATOM      7  C   UNL     1       9.696  -5.676  10.689  0.00  0.00    +0.000 C 
ATOM      8  O   UNL     1       9.331  -5.112   9.435  0.00  0.00    +0.000 OA
ENDBRANCH   1   8
BRANCH   6   9
ATOM      9  O   UNL     1       6.693  -4.767   9.232  0.00  0.00    +0.000 OA
ATOM     10  H   UNL     1       7.298  -5.527   9.330  0.00  0.00    +0.000 HD
ENDBRANCH   6   9
TORSDOF 2
ENDMDL
MODEL 9
REMARK VINA RESULT:    -3.763      2.031      4.762
REMARK INTER + INTRA:          -4.133
REMARK INTER:                  -4.086
REMARK INTRA:                  -0.047
REMARK UNBOUND:                -0.040
REMARK  Name = 
REMARK  3 active torsions:
REMARK  status: ('A' for Active; 'I' for Inactive)
REMARK    1  A    between atoms: C_1  and  O_2
REMARK    2  A    between atoms: O_2  and  C_3
REMARK    3  A    between atoms: C_8  and  O_9
REMARK                            x       y       z     vdW  Elec       q    Type
REMARK                         _______ _______ _______ _____ _____    ______ ____
ROOT
ATOM      1  C   UNL     1      10.172   7.038   8.538  0.00  0.00    +0.000 A 
ATOM      2  C   UNL     1       9.424   8.215   8.545  0.00  0.00    +0.000 A 
ATOM      3  C   UNL     1       8.702   8.578   9.689  0.00  0.00    +0.000 A 
ATOM      4  C   UNL     1       8.723   7.769  10.826  0.00  0.00    +0.000 A 
ATOM      5  C   UNL     1       9.469   6.592  10.827  0.00  0.00    +0.000 A 
ATOM      6  C   UNL     1      10.182   6.239   9.688  0.00  0.00    +0.000 A 
ENDROOT
BRANCH   1   8
ATOM      7  C   UNL     1      10.305   6.567   6.213  0.00  0.00    +0.000 C 
ATOM      8  O   UNL     1      10.923   6.560   7.494  0.00  0.00    +0.000 OA
ENDBRANCH   1   8
BRANCH   6   9
ATOM      9  O   UNL     1      10.907   5.078   9.713  0.00  0.00    +0.000 OA
ATOM     10  H   UNL     1      10.301   4.415  10.095  0.00  0.00    +0.000 HD
ENDBRANCH   6   9
TORSDOF 2
ENDMDL
