MODEL 1
REMARK VINA RESULT:    -4.789      0.000      0.000
REMARK INTER + INTRA:          -5.256
REMARK INTER:                  -5.209
REMARK INTRA:                  -0.048
REMARK UNBOUND:                -0.048
REMARK  Name = 
REMARK  3 active torsions:
REMARK  status: ('A' for Active; 'I' for Inactive)
REMARK    1  A    between atoms: C_1  and  O_2
REMARK    2  A    between atoms: O_2  and  C_3
REMARK    3  A    between atoms: C_8  and  O_9
REMARK                            x       y       z     vdW  Elec       q    Type
REMARK                         _______ _______ _______ _____ _____    ______ ____
ROOT
ATOM      1  C   UNL     1      -9.492  19.445   1.126  0.00  0.00    +0.000 A 
ATOM      2  C   UNL     1     -10.124  20.657   1.402  0.00  0.00    +0.000 A 
ATOM      3  C   UNL     1     -10.815  21.332   0.388  0.00  0.00    +0.000 A 
ATOM      4  C   UNL     1     -10.877  20.801  -0.901  0.00  0.00    +0.000 A 
ATOM      5  C   UNL     1     -10.248  19.590  -1.185  0.00  0.00    +0.000 A 
ATOM      6  C   UNL     1      -9.565  18.928  -0.173  0.00  0.00    +0.000 A 
ENDROOT
BRANCH   1   8
ATOM      7  C   UNL     1      -9.399  18.433   3.274  0.00  0.00    +0.000 C 
ATOM      8  O   UNL     1      -8.782  18.679   2.016  0.00  0.00    +0.000 OA
ENDBRANCH   1   8
BRANCH   6   9
ATOM      9  O   UNL     1      -8.955  17.740  -0.476  0.00  0.00    +0.000 OA
ATOM     10  H   UNL     1      -9.048  17.652  -1.444  0.00  0.00    +0.000 HD
ENDBRANCH   6   9
TORSDOF 2
ENDMDL
MODEL 2
REMARK VINA RESULT:    -4.674      1.178      3.148
REMARK INTER + INTRA:          -5.131
REMARK INTER:                  -5.089
REMARK INTRA:                  -0.043
REMARK UNBOUND:                -0.048
REMARK  Name = 
REMARK  3 active torsions:
REMARK  status: ('A' for Active; 'I' for Inactive)
REMARK    1  A    between atoms: C_1  and  O_2
REMARK    2  A    between atoms: O_2  and  C_3
REMARK    3  A    between atoms: C_8  and  O_9
REMARK                            x       y       z     vdW  Elec       q    Type
REMARK                         _______ _______ _______ _____ _____    ______ ____
ROOT
ATOM      1  C   UNL     1      -9.608  19.338   0.529  0.00  0.00    +0.000 A 
ATOM      2  C   UNL     1     -10.098  20.189   1.518  0.00  0.00    +0.000 A 
ATOM      3  C   UNL     1     -10.024  19.813   2.865  0.00  0.00    +0.000 A 
ATOM      4  C   UNL     1      -9.461  18.588   3.228  0.00  0.00    +0.000 A 
ATOM      5  C   UNL     1      -8.967  17.732   2.245  0.00  0.00    +0.000 A 
ATOM      6  C   UNL     1      -9.046  18.113   0.912  0.00  0.00    +0.000 A 
ENDROOT
BRANCH   1   8
ATOM      7  C   UNL     1     -10.737  20.282  -1.336  0.00  0.00    +0.000 C 
ATOM      8  O   UNL     1      -9.616  19.574  -0.823  0.00  0.00    +0.000 OA
ENDBRANCH   1   8
BRANCH   6   9
ATOM      9  O   UNL     1      -8.555  17.255  -0.036  0.00  0.00    +0.000 OA
ATOM     10  H   UNL     1      -7.656  17.584  -0.227  0.00  0.00    +0.000 HD
ENDBRANCH   6   9
TORSDOF 2
ENDMDL
MODEL 3
REMARK VINA RESULT:    -4.546      1.038      2.258
REMARK INTER + INTRA:          -4.992
REMARK INTER:                  -4.939
REMARK INTRA:                  -0.052
REMARK UNBOUND:                -0.048
REMARK  Name = 
REMARK  3 active torsions:
REMARK  status: ('A' for Active; 'I' for Inactive)
REMARK    1  A    between atoms: C_1  and  O_2
REMARK    2  A    between atoms: O_2  and  C_3
REMARK    3  A    between atoms: C_8  and  O_9
REMARK                            x       y       z     vdW  Elec       q    Type
REMARK                         _______ _______ _______ _____ _____    ______ ____
ROOT
ATOM      1  C   UNL     1      -9.467  19.482   0.820  0.00  0.00    +0.000 A 
ATOM      2  C   UNL     1      -9.877  18.955  -0.404  0.00  0.00    +0.000 A 
ATOM      3  C   UNL     1     -10.697  19.712  -1.251  0.00  0.00    +0.000 A 
ATOM      4  C   UNL     1     -11.109  20.993  -0.879  0.00  0.00    +0.000 A 
ATOM      5  C   UNL     1     -10.702  21.526   0.342  0.00  0.00    +0.000 A 
ATOM      6  C   UNL     1      -9.890  20.768   1.176  0.00  0.00    +0.000 A 
ENDROOT
BRANCH   1   8
ATOM      7  C   UNL     1      -9.231  17.733   2.412  0.00  0.00    +0.000 C 
ATOM      8  O   UNL     1      -8.669  18.857   1.744  0.00  0.00    +0.000 OA
ENDBRANCH   1   8
BRANCH   6   9
ATOM      9  O   UNL     1      -9.503  21.313   2.371  0.00  0.00    +0.000 OA
ATOM     10  H   UNL     1      -8.698  20.820   2.621  0.00  0.00    +0.000 HD
ENDBRANCH   6   9
TORSDOF 2
ENDMDL
MODEL 4
REMARK VINA RESULT:    -4.455      2.114      3.650
REMARK INTER + INTRA:          -4.893
REMARK INTER:                  -4.851
REMARK INTRA:                  -0.042
REMARK UNBOUND:                -0.048
REMARK  Name = 
REMARK  3 active torsions:
REMARK  status: ('A' for Active; 'I' for Inactive)
REMARK    1  A    between atoms: C_1  and  O_2
REMARK    2  A    between atoms: O_2  and  C_3
REMARK    3  A    between atoms: C_8  and  O_9
REMARK                            x       y       z     vdW  Elec       q    Type
REMARK                         _______ _______ _______ _____ _____    ______ ____
ROOT
ATOM      1  C   UNL     1     -10.685  21.443   0.293  0.00  0.00    +0.000 A 
ATOM      2  C   UNL     1     -11.109  20.667  -0.785  0.00  0.00    +0.000 A 
ATOM      3  C   UNL     1     -10.529  19.413  -1.015  0.00  0.00    +0.000 A 
ATOM      4  C   UNL     1      -9.526  18.932  -0.172  0.00  0.00    +0.000 A 
ATOM      5  C   UNL     1      -9.097  19.701   0.907  0.00  0.00    +0.000 A 
ATOM      6  C   UNL     1      -9.678  20.944   1.128  0.00  0.00    +0.000 A 
ENDROOT
BRANCH   1   8
ATOM      7  C   UNL     1     -12.531  22.938   0.352  0.00  0.00    +0.000 C 
ATOM      8  O   UNL     1     -11.161  22.683   0.636  0.00  0.00    +0.000 OA
ENDBRANCH   1   8
BRANCH   6   9
ATOM      9  O   UNL     1      -9.240  21.682   2.195  0.00  0.00    +0.000 OA
ATOM     10  H   UNL     1      -8.267  21.599   2.172  0.00  0.00    +0.000 HD
ENDBRANCH   6   9
TORSDOF 2
ENDMDL
MODEL 5
REMARK VINA RESULT:    -4.402      2.388      4.158
REMARK INTER + INTRA:          -4.836
REMARK INTER:                  -4.793
REMARK INTRA:                  -0.043
REMARK UNBOUND:                -0.048
REMARK  Name = 
REMARK  3 active torsions:
REMARK  status: ('A' for Active; 'I' for Inactive)
REMARK    1  A    between atoms: C_1  and  O_2
REMARK    2  A    between atoms: O_2  and  C_3
REMARK    3  A    between atoms: C_8  and  O_9
REMARK                            x       y       z     vdW  Elec       q    Type
REMARK                         _______ _______ _______ _____ _____    ______ ____
ROOT
ATOM      1  C   UNL     1     -10.925  20.783  -0.577  0.00  0.00    +0.000 A 
ATOM      2  C   UNL     1     -10.383  19.543  -0.911  0.00  0.00    +0.000 A 
ATOM      3  C   UNL     1      -9.473  18.921  -0.047  0.00  0.00    +0.000 A 
ATOM      4  C   UNL     1      -9.103  19.535   1.151  0.00  0.00    +0.000 A 
ATOM      5  C   UNL     1      -9.641  20.774   1.492  0.00  0.00    +0.000 A 
ATOM      6  C   UNL     1     -10.542  21.383   0.629  0.00  0.00    +0.000 A 
ENDROOT
BRANCH   1   8
ATOM      7  C   UNL     1     -11.677  21.427  -2.737  0.00  0.00    +0.000 C 
ATOM      8  O   UNL     1     -11.822  21.504  -1.324  0.00  0.00    +0.000 OA
ENDBRANCH   1   8
BRANCH   6   9
ATOM      9  O   UNL     1     -11.057  22.601   0.986  0.00  0.00    +0.000 OA
ATOM     10  H   UNL     1     -10.324  23.057   1.441  0.00  0.00    +0.000 HD
ENDBRANCH   6   9
TORSDOF 2
ENDMDL
MODEL 6
REMARK VINA RESULT:    -4.311      2.335      3.343
REMARK INTER + INTRA:          -4.736
REMARK INTER:                  -4.686
REMARK INTRA:                  -0.050
REMARK UNBOUND:                -0.048
REMARK  Name = 
REMARK  3 active torsions:
REMARK  status: ('A' for Active; 'I' for Inactive)
REMARK    1  A    between atoms: C_1  and  O_2
REMARK    2  A    between atoms: O_2  and  C_3
REMARK    3  A    between atoms: C_8  and  O_9
REMARK                            x       y       z     vdW  Elec       q    Type
REMARK                         _______ _______ _______ _____ _____    ______ ____
ROOT
ATOM      1  C   UNL     1     -10.737  21.232   0.077  0.00  0.00    +0.000 A 
ATOM      2  C   UNL     1      -9.983  21.026   1.232  0.00  0.00    +0.000 A 
ATOM      3  C   UNL     1      -9.270  19.832   1.398  0.00  0.00    +0.000 A 
ATOM      4  C   UNL     1      -9.308  18.842   0.415  0.00  0.00    +0.000 A 
ATOM      5  C   UNL     1     -10.058  19.040  -0.742  0.00  0.00    +0.000 A 
ATOM      6  C   UNL     1     -10.763  20.227  -0.899  0.00  0.00    +0.000 A 
ENDROOT
BRANCH   1   8
ATOM      7  C   UNL     1     -12.672  22.531   0.538  0.00  0.00    +0.000 C 
ATOM      8  O   UNL     1     -11.481  22.346  -0.218  0.00  0.00    +0.000 OA
ENDBRANCH   1   8
BRANCH   6   9
ATOM      9  O   UNL     1     -11.493  20.399  -2.044  0.00  0.00    +0.000 OA
ATOM     10  H   UNL     1     -11.907  19.530  -2.207  0.00  0.00    +0.000 HD
ENDBRANCH   6   9
TORSDOF 2
ENDMDL
MODEL 7
REMARK VINA RESULT:    -4.260      1.711      2.555
REMARK INTER + INTRA:          -4.681
REMARK INTER:                  -4.638
REMARK INTRA:                  -0.044
REMARK UNBOUND:                -0.048
REMARK  Name = 
REMARK  3 active torsions:
REMARK  status: ('A' for Active; 'I' for Inactive)
REMARK    1  A    between atoms: C_1  and  O_2
REMARK    2  A    between atoms: O_2  and  C_3
REMARK    3  A    between atoms: C_8  and  O_9
REMARK                            x       y       z     vdW  Elec       q    Type
REMARK                         _______ _______ _______ _____ _____    ______ ____
ROOT
ATOM      1  C   UNL     1      -9.898  20.327   0.982  0.00  0.00    +0.000 A 
ATOM      2  C   UNL     1      -9.646  19.223   0.168  0.00  0.00    +0.000 A 
ATOM      3  C   UNL     1     -10.160  19.182  -1.134  0.00  0.00    +0.000 A 
ATOM      4  C   UNL     1     -10.925  20.241  -1.626  0.00  0.00    +0.000 A 
ATOM      5  C   UNL     1     -11.181  21.347  -0.819  0.00  0.00    +0.000 A 
ATOM      6  C   UNL     1     -10.667  21.379   0.471  0.00  0.00    +0.000 A 
ENDROOT
BRANCH   1   8
ATOM      7  C   UNL     1      -9.461  19.346   3.102  0.00  0.00    +0.000 C 
ATOM      8  O   UNL     1      -9.461  20.500   2.271  0.00  0.00    +0.000 OA
ENDBRANCH   1   8
BRANCH   6   9
ATOM      9  O   UNL     1     -10.932  22.477   1.246  0.00  0.00    +0.000 OA
ATOM     10  H   UNL     1     -10.138  23.038   1.161  0.00  0.00    +0.000 HD
ENDBRANCH   6   9
TORSDOF 2
ENDMDL
MODEL 8
REMARK VINA RESULT:    -4.077      1.614      2.888
REMARK INTER + INTRA:          -4.482
REMARK INTER:                  -4.445
REMARK INTRA:                  -0.037
REMARK UNBOUND:                -0.048
REMARK  Name = 
REMARK  3 active torsions:
REMARK  status: ('A' for Active; 'I' for Inactive)
REMARK    1  A    between atoms: C_1  and  O_2
REMARK    2  A    between atoms: O_2  and  C_3
REMARK    3  A    between atoms: C_8  and  O_9
REMARK                            x       y       z     vdW  Elec       q    Type
REMARK                         _______ _______ _______ _____ _____    ______ ____
ROOT
ATOM      1  C   UNL     1      -8.902  17.981   0.967  0.00  0.00    +0.000 A 
ATOM      2  C   UNL     1      -9.182  18.727  -0.177  0.00  0.00    +0.000 A 
ATOM      3  C   UNL     1      -9.868  19.943  -0.069  0.00  0.00    +0.000 A 
ATOM      4  C   UNL     1     -10.276  20.417   1.179  0.00  0.00    +0.000 A 
ATOM      5  C   UNL     1     -10.000  19.677   2.327  0.00  0.00    +0.000 A 
ATOM      6  C   UNL     1      -9.319  18.472   2.210  0.00  0.00    +0.000 A 
ENDROOT
BRANCH   1   8
ATOM      7  C   UNL     1      -7.843  16.229  -0.240  0.00  0.00    +0.000 C 
ATOM      8  O   UNL     1      -8.243  16.779   1.010  0.00  0.00    +0.000 OA
ENDBRANCH   1   8
BRANCH   6   9
ATOM      9  O   UNL     1      -9.059  17.763   3.352  0.00  0.00    +0.000 OA
ATOM     10  H   UNL     1      -8.967  18.440   4.049  0.00  0.00    +0.000 HD
ENDBRANCH   6   9
TORSDOF 2
ENDMDL
MODEL 9
REMARK VINA RESULT:    -4.031      7.626      8.758
REMARK INTER + INTRA:          -4.432
REMARK INTER:                  -4.395
REMARK INTRA:                  -0.037
REMARK UNBOUND:                -0.048
REMARK  Name = 
REMARK  3 active torsions:
REMARK  status: ('A' for Active; 'I' for Inactive)
REMARK    1  A    between atoms: C_1  and  O_2
REMARK    2  A    between atoms: O_2  and  C_3
REMARK    3  A    between atoms: C_8  and  O_9
REMARK                            x       y       z     vdW  Elec       q    Type
REMARK                         _______ _______ _______ _____ _____    ______ ____
ROOT
ATOM      1  C   UNL     1     -12.909  19.922  -7.381  0.00  0.00    +0.000 A 
ATOM      2  C   UNL     1     -11.961  20.943  -7.445  0.00  0.00    +0.000 A 
ATOM      3  C   UNL     1     -11.922  21.925  -6.447  0.00  0.00    +0.000 A 
ATOM      4  C   UNL     1     -12.827  21.891  -5.385  0.00  0.00    +0.000 A 
ATOM      5  C   UNL     1     -13.777  20.874  -5.314  0.00  0.00    +0.000 A 
ATOM      6  C   UNL     1     -13.808  19.905  -6.308  0.00  0.00    +0.000 A 
ENDROOT
BRANCH   1   8
ATOM      7  C   UNL     1     -12.270  18.970  -9.462  0.00  0.00    +0.000 C 
ATOM      8  O   UNL     1     -13.062  18.900  -8.283  0.00  0.00    +0.000 OA
ENDBRANCH   1   8
BRANCH   6   9
ATOM      9  O   UNL     1     -14.751  18.915  -6.216  0.00  0.00    +0.000 OA
ATOM     10  H   UNL     1     -15.445  19.174  -6.852  0.00  0.00    +0.000 HD
ENDBRANCH   6   9
TORSDOF 2
ENDMDL
