MODEL 1
REMARK VINA RESULT:    -5.075      0.000      0.000
REMARK INTER + INTRA:          -7.227
REMARK INTER:                  -6.855
REMARK INTRA:                  -0.371
REMARK UNBOUND:                -0.371
REMARK  Name = 
REMARK  10 active torsions:
REMARK  status: ('A' for Active; 'I' for Inactive)
REMARK    1  A    between atoms: C_1  and  C_2
REMARK    2  A    between atoms: C_5  and  N_8
REMARK    3  A    between atoms: N_8  and  C_9
REMARK    4  A    between atoms: N_8  and  C_13
REMARK    5  A    between atoms: C_9  and  C_10
REMARK    6  A    between atoms: C_10  and  C_11
REMARK    7  A    between atoms: C_10  and  O_12
REMARK    8  A    between atoms: C_13  and  C_14
REMARK    9  A    between atoms: C_14  and  C_15
REMARK   10  A    between atoms: C_14  and  O_16
REMARK                            x       y       z     vdW  Elec       q    Type
REMARK                         _______ _______ _______ _____ _____    ______ ____
ROOT
ATOM      1  N   UNL     1       9.853   7.004   8.130  0.00  0.00    +0.000 N 
ENDROOT
BRANCH   1   6
ATOM      2  C   UNL     1      10.037   5.505   2.558  0.00  0.00    +0.000 C 
ATOM      3  C   UNL     1      10.014   5.891   4.006  0.00  0.00    +0.000 A 
ATOM      4  C   UNL     1       9.802   4.938   4.996  0.00  0.00    +0.000 A 
ATOM      5  C   UNL     1       9.751   5.310   6.349  0.00  0.00    +0.000 A 
ATOM      6  C   UNL     1       9.885   6.643   6.778  0.00  0.00    +0.000 A 
ATOM      7  C   UNL     1      10.100   7.580   5.750  0.00  0.00    +0.000 A 
ATOM      8  C   UNL     1      10.155   7.221   4.393  0.00  0.00    +0.000 A 
ENDBRANCH   1   6
BRANCH   1   9
ATOM      9  C   UNL     1       9.485   8.386   8.522  0.00  0.00    +0.000 C 
BRANCH   9  10
ATOM     10  C   UNL     1       8.769   8.451   9.894  0.00  0.00    +0.000 C 
ATOM     11  C   UNL     1       9.465   9.434  10.827  0.00  0.00    +0.000 C 
BRANCH  10  12
ATOM     12  O   UNL     1       7.405   8.871   9.743  0.00  0.00    +0.000 OA
ATOM     13  H   UNL     1       7.319   9.758  10.131  0.00  0.00    +0.000 HD
ENDBRANCH  10  12
ENDBRANCH   9  10
ENDBRANCH   1   9
BRANCH   1  14
ATOM     14  C   UNL     1      10.639   6.256   9.145  0.00  0.00    +0.000 C 
BRANCH  14  15
ATOM     15  C   UNL     1      12.063   6.834   9.324  0.00  0.00    +0.000 C 
ATOM     16  C   UNL     1      12.872   6.114  10.395  0.00  0.00    +0.000 C 
BRANCH  15  17
ATOM     17  O   UNL     1      12.806   6.793   8.106  0.00  0.00    +0.000 OA
ATOM     18  H   UNL     1      12.802   7.714   7.776  0.00  0.00    +0.000 HD
ENDBRANCH  15  17
ENDBRANCH  14  15
ENDBRANCH   1  14
TORSDOF 7
ENDMDL
MODEL 2
REMARK VINA RESULT:    -5.074      0.852      1.469
REMARK INTER + INTRA:          -7.225
REMARK INTER:                  -6.693
REMARK INTRA:                  -0.531
REMARK UNBOUND:                -0.371
REMARK  Name = 
REMARK  10 active torsions:
REMARK  status: ('A' for Active; 'I' for Inactive)
REMARK    1  A    between atoms: C_1  and  C_2
REMARK    2  A    between atoms: C_5  and  N_8
REMARK    3  A    between atoms: N_8  and  C_9
REMARK    4  A    between atoms: N_8  and  C_13
REMARK    5  A    between atoms: C_9  and  C_10
REMARK    6  A    between atoms: C_10  and  C_11
REMARK    7  A    between atoms: C_10  and  O_12
REMARK    8  A    between atoms: C_13  and  C_14
REMARK    9  A    between atoms: C_14  and  C_15
REMARK   10  A    between atoms: C_14  and  O_16
REMARK                            x       y       z     vdW  Elec       q    Type
REMARK                         _______ _______ _______ _____ _____    ______ ____
ROOT
ATOM      1  N   UNL     1       9.592   7.445   8.350  0.00  0.00    +0.000 N 
ENDROOT
BRANCH   1   6
ATOM      2  C   UNL     1      10.337   5.514   2.960  0.00  0.00    +0.000 C 
ATOM      3  C   UNL     1      10.119   6.013   4.356  0.00  0.00    +0.000 A 
ATOM      4  C   UNL     1      10.016   7.375   4.619  0.00  0.00    +0.000 A 
ATOM      5  C   UNL     1       9.841   7.839   5.934  0.00  0.00    +0.000 A 
ATOM      6  C   UNL     1       9.785   6.977   7.044  0.00  0.00    +0.000 A 
ATOM      7  C   UNL     1       9.890   5.607   6.739  0.00  0.00    +0.000 A 
ATOM      8  C   UNL     1      10.063   5.130   5.430  0.00  0.00    +0.000 A 
ENDBRANCH   1   6
BRANCH   1   9
ATOM      9  C   UNL     1       9.226   8.862   8.585  0.00  0.00    +0.000 C 
BRANCH   9  10
ATOM     10  C   UNL     1       8.552   9.088   9.960  0.00  0.00    +0.000 C 
ATOM     11  C   UNL     1       8.971  10.425  10.560  0.00  0.00    +0.000 C 
BRANCH  10  12
ATOM     12  O   UNL     1       7.122   9.083   9.840  0.00  0.00    +0.000 OA
ATOM     13  H   UNL     1       6.852   8.215   9.499  0.00  0.00    +0.000 HD
ENDBRANCH  10  12
ENDBRANCH   9  10
ENDBRANCH   1   9
BRANCH   1  14
ATOM     14  C   UNL     1      10.212   6.759   9.512  0.00  0.00    +0.000 C 
BRANCH  14  15
ATOM     15  C   UNL     1      11.732   7.035   9.610  0.00  0.00    +0.000 C 
ATOM     16  C   UNL     1      12.107   7.912  10.798  0.00  0.00    +0.000 C 
BRANCH  15  17
ATOM     17  O   UNL     1      12.482   5.825   9.700  0.00  0.00    +0.000 OA
ATOM     18  H   UNL     1      12.137   5.259   8.980  0.00  0.00    +0.000 HD
ENDBRANCH  15  17
ENDBRANCH  14  15
ENDBRANCH   1  14
TORSDOF 7
ENDMDL
MODEL 3
REMARK VINA RESULT:    -4.935      0.968      3.139
REMARK INTER + INTRA:          -7.038
REMARK INTER:                  -6.591
REMARK INTRA:                  -0.447
REMARK UNBOUND:                -0.371
REMARK  Name = 
REMARK  10 active torsions:
REMARK  status: ('A' for Active; 'I' for Inactive)
REMARK    1  A    between atoms: C_1  and  C_2
REMARK    2  A    between atoms: C_5  and  N_8
REMARK    3  A    between atoms: N_8  and  C_9
REMARK    4  A    between atoms: N_8  and  C_13
REMARK    5  A    between atoms: C_9  and  C_10
REMARK    6  A    between atoms: C_10  and  C_11
REMARK    7  A    between atoms: C_10  and  O_12
REMARK    8  A    between atoms: C_13  and  C_14
REMARK    9  A    between atoms: C_14  and  C_15
REMARK   10  A    between atoms: C_14  and  O_16
REMARK                            x       y       z     vdW  Elec       q    Type
REMARK                         _______ _______ _______ _____ _____    ______ ____
ROOT
ATOM      1  N   UNL     1       9.796   7.647   8.316  0.00  0.00    +0.000 N 
ENDROOT
BRANCH   1   6
ATOM      2  C   UNL     1      10.069   5.514   2.958  0.00  0.00    +0.000 C 
ATOM      3  C   UNL     1      10.023   6.069   4.349  0.00  0.00    +0.000 A 
ATOM      4  C   UNL     1      10.056   5.228   5.456  0.00  0.00    +0.000 A 
ATOM      5  C   UNL     1       9.982   5.753   6.756  0.00  0.00    +0.000 A 
ATOM      6  C   UNL     1       9.849   7.129   7.016  0.00  0.00    +0.000 A 
ATOM      7  C   UNL     1       9.822   7.950   5.873  0.00  0.00    +0.000 A 
ATOM      8  C   UNL     1       9.897   7.438   4.567  0.00  0.00    +0.000 A 
ENDBRANCH   1   6
BRANCH   1   9
ATOM      9  C   UNL     1      10.142   6.788   9.473  0.00  0.00    +0.000 C 
BRANCH   9  10
ATOM     10  C   UNL     1      11.670   6.673   9.700  0.00  0.00    +0.000 C 
ATOM     11  C   UNL     1      12.124   7.595  10.825  0.00  0.00    +0.000 C 
BRANCH  10  12
ATOM     12  O   UNL     1      12.039   5.331  10.048  0.00  0.00    +0.000 OA
ATOM     13  H   UNL     1      11.228   4.799  10.097  0.00  0.00    +0.000 HD
ENDBRANCH  10  12
ENDBRANCH   9  10
ENDBRANCH   1   9
BRANCH   1  14
ATOM     14  C   UNL     1       8.945   8.820   8.642  0.00  0.00    +0.000 C 
BRANCH  14  15
ATOM     15  C   UNL     1       8.810   9.038  10.168  0.00  0.00    +0.000 C 
ATOM     16  C   UNL     1       9.452  10.334  10.648  0.00  0.00    +0.000 C 
BRANCH  15  17
ATOM     17  O   UNL     1       7.444   9.043  10.581  0.00  0.00    +0.000 OA
ATOM     18  H   UNL     1       7.196   9.988  10.624  0.00  0.00    +0.000 HD
ENDBRANCH  15  17
ENDBRANCH  14  15
ENDBRANCH   1  14
TORSDOF 7
ENDMDL
MODEL 4
REMARK VINA RESULT:    -4.824      2.299      5.704
REMARK INTER + INTRA:          -6.887
REMARK INTER:                  -6.503
REMARK INTRA:                  -0.384
REMARK UNBOUND:                -0.371
REMARK  Name = 
REMARK  10 active torsions:
REMARK  status: ('A' for Active; 'I' for Inactive)
REMARK    1  A    between atoms: C_1  and  C_2
REMARK    2  A    between atoms: C_5  and  N_8
REMARK    3  A    between atoms: N_8  and  C_9
REMARK    4  A    between atoms: N_8  and  C_13
REMARK    5  A    between atoms: C_9  and  C_10
REMARK    6  A    between atoms: C_10  and  C_11
REMARK    7  A    between atoms: C_10  and  O_12
REMARK    8  A    between atoms: C_13  and  C_14
REMARK    9  A    between atoms: C_14  and  C_15
REMARK   10  A    between atoms: C_14  and  O_16
REMARK                            x       y       z     vdW  Elec       q    Type
REMARK                         _______ _______ _______ _____ _____    ______ ____
ROOT
ATOM      1  N   UNL     1      10.943   6.928   9.352  0.00  0.00    +0.000 N 
ENDROOT
BRANCH   1   6
ATOM      2  C   UNL     1       9.224  12.264  10.731  0.00  0.00    +0.000 C 
ATOM      3  C   UNL     1       9.661  10.871  10.395  0.00  0.00    +0.000 A 
ATOM      4  C   UNL     1      10.936  10.424  10.722  0.00  0.00    +0.000 A 
ATOM      5  C   UNL     1      11.351   9.127  10.378  0.00  0.00    +0.000 A 
ATOM      6  C   UNL     1      10.530   8.227   9.675  0.00  0.00    +0.000 A 
ATOM      7  C   UNL     1       9.246   8.711   9.363  0.00  0.00    +0.000 A 
ATOM      8  C   UNL     1       8.818  10.005   9.704  0.00  0.00    +0.000 A 
ENDBRANCH   1   6
BRANCH   1   9
ATOM      9  C   UNL     1      11.544   6.059  10.392  0.00  0.00    +0.000 C 
BRANCH   9  10
ATOM     10  C   UNL     1      13.034   5.739  10.119  0.00  0.00    +0.000 C 
ATOM     11  C   UNL     1      13.944   6.738  10.825  0.00  0.00    +0.000 C 
BRANCH  10  12
ATOM     12  O   UNL     1      13.372   4.425  10.584  0.00  0.00    +0.000 OA
ATOM     13  H   UNL     1      13.213   4.394  11.542  0.00  0.00    +0.000 HD
ENDBRANCH  10  12
ENDBRANCH   9  10
ENDBRANCH   1   9
BRANCH   1  14
ATOM     14  C   UNL     1      11.279   6.553   7.955  0.00  0.00    +0.000 C 
BRANCH  14  15
ATOM     15  C   UNL     1      10.015   6.303   7.097  0.00  0.00    +0.000 C 
ATOM     16  C   UNL     1       9.897   7.255   5.912  0.00  0.00    +0.000 C 
BRANCH  15  17
ATOM     17  O   UNL     1       9.973   4.968   6.597  0.00  0.00    +0.000 OA
ATOM     18  H   UNL     1      10.607   4.470   7.152  0.00  0.00    +0.000 HD
ENDBRANCH  15  17
ENDBRANCH  14  15
ENDBRANCH   1  14
TORSDOF 7
ENDMDL
MODEL 5
REMARK VINA RESULT:    -4.680      2.198      5.153
REMARK INTER + INTRA:          -6.694
REMARK INTER:                  -6.136
REMARK INTRA:                  -0.558
REMARK UNBOUND:                -0.371
REMARK  Name = 
REMARK  10 active torsions:
REMARK  status: ('A' for Active; 'I' for Inactive)
REMARK    1  A    between atoms: C_1  and  C_2
REMARK    2  A    between atoms: C_5  and  N_8
REMARK    3  A    between atoms: N_8  and  C_9
REMARK    4  A    between atoms: N_8  and  C_13
REMARK    5  A    between atoms: C_9  and  C_10
REMARK    6  A    between atoms: C_10  and  C_11
REMARK    7  A    between atoms: C_10  and  O_12
REMARK    8  A    between atoms: C_13  and  C_14
REMARK    9  A    between atoms: C_14  and  C_15
REMARK   10  A    between atoms: C_14  and  O_16
REMARK                            x       y       z     vdW  Elec       q    Type
REMARK                         _______ _______ _______ _____ _____    ______ ____
ROOT
ATOM      1  N   UNL     1      11.034   6.724   9.354  0.00  0.00    +0.000 N 
ENDROOT
BRANCH   1   6
ATOM      2  C   UNL     1       9.264  12.018  10.826  0.00  0.00    +0.000 C 
ATOM      3  C   UNL     1       9.729  10.653  10.421  0.00  0.00    +0.000 A 
ATOM      4  C   UNL     1       8.844   9.729   9.876  0.00  0.00    +0.000 A 
ATOM      5  C   UNL     1       9.280   8.440   9.526  0.00  0.00    +0.000 A 
ATOM      6  C   UNL     1      10.602   8.004   9.723  0.00  0.00    +0.000 A 
ATOM      7  C   UNL     1      11.470   8.965  10.274  0.00  0.00    +0.000 A 
ATOM      8  C   UNL     1      11.048  10.258  10.626  0.00  0.00    +0.000 A 
ENDBRANCH   1   6
BRANCH   1   9
ATOM      9  C   UNL     1      10.280   5.949   8.340  0.00  0.00    +0.000 C 
BRANCH   9  10
ATOM     10  C   UNL     1      10.738   6.249   6.892  0.00  0.00    +0.000 C 
ATOM     11  C   UNL     1       9.698   7.082   6.153  0.00  0.00    +0.000 C 
BRANCH  10  12
ATOM     12  O   UNL     1      11.976   6.973   6.883  0.00  0.00    +0.000 OA
ATOM     13  H   UNL     1      11.774   7.913   6.743  0.00  0.00    +0.000 HD
ENDBRANCH  10  12
ENDBRANCH   9  10
ENDBRANCH   1   9
BRANCH   1  14
ATOM     14  C   UNL     1      11.883   5.908  10.260  0.00  0.00    +0.000 C 
BRANCH  14  15
ATOM     15  C   UNL     1      13.382   6.276  10.144  0.00  0.00    +0.000 C 
ATOM     16  C   UNL     1      14.302   5.261  10.813  0.00  0.00    +0.000 C 
BRANCH  15  17
ATOM     17  O   UNL     1      13.789   6.411   8.783  0.00  0.00    +0.000 OA
ATOM     18  H   UNL     1      14.703   6.755   8.826  0.00  0.00    +0.000 HD
ENDBRANCH  15  17
ENDBRANCH  14  15
ENDBRANCH   1  14
TORSDOF 7
ENDMDL
MODEL 6
REMARK VINA RESULT:    -4.336      2.074      5.067
REMARK INTER + INTRA:          -6.229
REMARK INTER:                  -5.618
REMARK INTRA:                  -0.611
REMARK UNBOUND:                -0.371
REMARK  Name = 
REMARK  10 active torsions:
REMARK  status: ('A' for Active; 'I' for Inactive)
REMARK    1  A    between atoms: C_1  and  C_2
REMARK    2  A    between atoms: C_5  and  N_8
REMARK    3  A    between atoms: N_8  and  C_9
REMARK    4  A    between atoms: N_8  and  C_13
REMARK    5  A    between atoms: C_9  and  C_10
REMARK    6  A    between atoms: C_10  and  C_11
REMARK    7  A    between atoms: C_10  and  O_12
REMARK    8  A    between atoms: C_13  and  C_14
REMARK    9  A    between atoms: C_14  and  C_15
REMARK   10  A    between atoms: C_14  and  O_16
REMARK                            x       y       z     vdW  Elec       q    Type
REMARK                         _______ _______ _______ _____ _____    ______ ____
ROOT
ATOM      1  N   UNL     1      11.170   6.950   9.607  0.00  0.00    +0.000 N 
ENDROOT
BRANCH   1   6
ATOM      2  C   UNL     1      16.902   7.566   9.922  0.00  0.00    +0.000 C 
ATOM      3  C   UNL     1      15.416   7.385   9.853  0.00  0.00    +0.000 A 
ATOM      4  C   UNL     1      14.827   6.710   8.789  0.00  0.00    +0.000 A 
ATOM      5  C   UNL     1      13.431   6.570   8.715  0.00  0.00    +0.000 A 
ATOM      6  C   UNL     1      12.560   7.111   9.677  0.00  0.00    +0.000 A 
ATOM      7  C   UNL     1      13.190   7.784  10.739  0.00  0.00    +0.000 A 
ATOM      8  C   UNL     1      14.584   7.930  10.827  0.00  0.00    +0.000 A 
ENDBRANCH   1   6
BRANCH   1   9
ATOM      9  C   UNL     1      10.338   7.134  10.820  0.00  0.00    +0.000 C 
BRANCH   9  10
ATOM     10  C   UNL     1       9.406   8.367  10.728  0.00  0.00    +0.000 C 
ATOM     11  C   UNL     1      10.118   9.540  10.065  0.00  0.00    +0.000 C 
BRANCH  10  12
ATOM     12  O   UNL     1       8.232   8.068   9.960  0.00  0.00    +0.000 OA
ATOM     13  H   UNL     1       7.530   8.682  10.233  0.00  0.00    +0.000 HD
ENDBRANCH  10  12
ENDBRANCH   9  10
ENDBRANCH   1   9
BRANCH   1  14
ATOM     14  C   UNL     1      10.544   6.128   8.539  0.00  0.00    +0.000 C 
BRANCH  14  15
ATOM     15  C   UNL     1      10.302   6.940   7.244  0.00  0.00    +0.000 C 
ATOM     16  C   UNL     1      10.212   6.067   5.998  0.00  0.00    +0.000 C 
BRANCH  15  17
ATOM     17  O   UNL     1       9.110   7.719   7.324  0.00  0.00    +0.000 OA
ATOM     18  H   UNL     1       9.313   8.425   7.971  0.00  0.00    +0.000 HD
ENDBRANCH  15  17
ENDBRANCH  14  15
ENDBRANCH   1  14
TORSDOF 7
ENDMDL
MODEL 7
REMARK VINA RESULT:    -4.175      1.792      5.428
REMARK INTER + INTRA:          -6.010
REMARK INTER:                  -5.615
REMARK INTRA:                  -0.395
REMARK UNBOUND:                -0.371
REMARK  Name = 
REMARK  10 active torsions:
REMARK  status: ('A' for Active; 'I' for Inactive)
REMARK    1  A    between atoms: C_1  and  C_2
REMARK    2  A    between atoms: C_5  and  N_8
REMARK    3  A    between atoms: N_8  and  C_9
REMARK    4  A    between atoms: N_8  and  C_13
REMARK    5  A    between atoms: C_9  and  C_10
REMARK    6  A    between atoms: C_10  and  C_11
REMARK    7  A    between atoms: C_10  and  O_12
REMARK    8  A    between atoms: C_13  and  C_14
REMARK    9  A    between atoms: C_14  and  C_15
REMARK   10  A    between atoms: C_14  and  O_16
REMARK                            x       y       z     vdW  Elec       q    Type
REMARK                         _______ _______ _______ _____ _____    ______ ____
ROOT
ATOM      1  N   UNL     1      10.542   6.726   8.249  0.00  0.00    +0.000 N 
ENDROOT
BRANCH   1   6
ATOM      2  C   UNL     1      15.655   5.988  10.827  0.00  0.00    +0.000 C 
ATOM      3  C   UNL     1      14.330   6.156  10.148  0.00  0.00    +0.000 A 
ATOM      4  C   UNL     1      14.243   6.728   8.883  0.00  0.00    +0.000 A 
ATOM      5  C   UNL     1      12.996   6.911   8.264  0.00  0.00    +0.000 A 
ATOM      6  C   UNL     1      11.781   6.558   8.880  0.00  0.00    +0.000 A 
ATOM      7  C   UNL     1      11.907   5.982  10.157  0.00  0.00    +0.000 A 
ATOM      8  C   UNL     1      13.148   5.791  10.787  0.00  0.00    +0.000 A 
ENDBRANCH   1   6
BRANCH   1   9
ATOM      9  C   UNL     1      10.182   5.883   7.083  0.00  0.00    +0.000 C 
BRANCH   9  10
ATOM     10  C   UNL     1      10.007   6.704   5.781  0.00  0.00    +0.000 C 
ATOM     11  C   UNL     1      10.988   6.242   4.710  0.00  0.00    +0.000 C 
BRANCH  10  12
ATOM     12  O   UNL     1       8.679   6.563   5.259  0.00  0.00    +0.000 OA
ATOM     13  H   UNL     1       8.480   7.349   4.724  0.00  0.00    +0.000 HD
ENDBRANCH  10  12
ENDBRANCH   9  10
ENDBRANCH   1   9
BRANCH   1  14
ATOM     14  C   UNL     1       9.795   8.006   8.349  0.00  0.00    +0.000 C 
BRANCH  14  15
ATOM     15  C   UNL     1       9.466   8.377   9.815  0.00  0.00    +0.000 C 
ATOM     16  C   UNL     1       9.250   9.871  10.021  0.00  0.00    +0.000 C 
BRANCH  15  17
ATOM     17  O   UNL     1       8.305   7.693  10.284  0.00  0.00    +0.000 OA
ATOM     18  H   UNL     1       8.245   7.919  11.234  0.00  0.00    +0.000 HD
ENDBRANCH  15  17
ENDBRANCH  14  15
ENDBRANCH   1  14
TORSDOF 7
ENDMDL
MODEL 8
REMARK VINA RESULT:    -4.153     10.665     12.589
REMARK INTER + INTRA:          -5.982
REMARK INTER:                  -5.467
REMARK INTRA:                  -0.515
REMARK UNBOUND:                -0.371
REMARK  Name = 
REMARK  10 active torsions:
REMARK  status: ('A' for Active; 'I' for Inactive)
REMARK    1  A    between atoms: C_1  and  C_2
REMARK    2  A    between atoms: C_5  and  N_8
REMARK    3  A    between atoms: N_8  and  C_9
REMARK    4  A    between atoms: N_8  and  C_13
REMARK    5  A    between atoms: C_9  and  C_10
REMARK    6  A    between atoms: C_10  and  C_11
REMARK    7  A    between atoms: C_10  and  O_12
REMARK    8  A    between atoms: C_13  and  C_14
REMARK    9  A    between atoms: C_14  and  C_15
REMARK   10  A    between atoms: C_14  and  O_16
REMARK                            x       y       z     vdW  Elec       q    Type
REMARK                         _______ _______ _______ _____ _____    ______ ____
ROOT
ATOM      1  N   UNL     1      21.986  11.054   7.338  0.00  0.00    +0.000 N 
ENDROOT
BRANCH   1   6
ATOM      2  C   UNL     1      16.446   9.650   8.157  0.00  0.00    +0.000 C 
ATOM      3  C   UNL     1      17.876  10.037   7.938  0.00  0.00    +0.000 A 
ATOM      4  C   UNL     1      18.495   9.822   6.710  0.00  0.00    +0.000 A 
ATOM      5  C   UNL     1      19.845  10.159   6.520  0.00  0.00    +0.000 A 
ATOM      6  C   UNL     1      20.645  10.702   7.541  0.00  0.00    +0.000 A 
ATOM      7  C   UNL     1      19.987  10.908   8.767  0.00  0.00    +0.000 A 
ATOM      8  C   UNL     1      18.637  10.577   8.971  0.00  0.00    +0.000 A 
ENDBRANCH   1   6
BRANCH   1   9
ATOM      9  C   UNL     1      22.773  10.397   6.267  0.00  0.00    +0.000 C 
BRANCH   9  10
ATOM     10  C   UNL     1      22.779  11.205   4.946  0.00  0.00    +0.000 C 
ATOM     11  C   UNL     1      24.195  11.627   4.572  0.00  0.00    +0.000 C 
BRANCH  10  12
ATOM     12  O   UNL     1      22.248  10.428   3.864  0.00  0.00    +0.000 OA
ATOM     13  H   UNL     1      22.981  10.195   3.271  0.00  0.00    +0.000 HD
ENDBRANCH  10  12
ENDBRANCH   9  10
ENDBRANCH   1   9
BRANCH   1  14
ATOM     14  C   UNL     1      22.795  11.657   8.428  0.00  0.00    +0.000 C 
BRANCH  14  15
ATOM     15  C   UNL     1      23.057  13.165   8.195  0.00  0.00    +0.000 C 
ATOM     16  C   UNL     1      24.499  13.470   7.805  0.00  0.00    +0.000 C 
BRANCH  15  17
ATOM     17  O   UNL     1      22.204  13.698   7.183  0.00  0.00    +0.000 OA
ATOM     18  H   UNL     1      22.772  13.782   6.392  0.00  0.00    +0.000 HD
ENDBRANCH  15  17
ENDBRANCH  14  15
ENDBRANCH   1  14
TORSDOF 7
ENDMDL
MODEL 9
REMARK VINA RESULT:    -4.120     12.172     14.253
REMARK INTER + INTRA:          -5.937
REMARK INTER:                  -5.235
REMARK INTRA:                  -0.702
REMARK UNBOUND:                -0.371
REMARK  Name = 
REMARK  10 active torsions:
REMARK  status: ('A' for Active; 'I' for Inactive)
REMARK    1  A    between atoms: C_1  and  C_2
REMARK    2  A    between atoms: C_5  and  N_8
REMARK    3  A    between atoms: N_8  and  C_9
REMARK    4  A    between atoms: N_8  and  C_13
REMARK    5  A    between atoms: C_9  and  C_10
REMARK    6  A    between atoms: C_10  and  C_11
REMARK    7  A    between atoms: C_10  and  O_12
REMARK    8  A    between atoms: C_13  and  C_14
REMARK    9  A    between atoms: C_14  and  C_15
REMARK   10  A    between atoms: C_14  and  O_16
REMARK                            x       y       z     vdW  Elec       q    Type
REMARK                         _______ _______ _______ _____ _____    ______ ____
ROOT
ATOM      1  N   UNL     1      23.389  11.600   5.976  0.00  0.00    +0.000 N 
ENDROOT
BRANCH   1   6
ATOM      2  C   UNL     1      18.817  10.768   9.403  0.00  0.00    +0.000 C 
ATOM      3  C   UNL     1      20.014  10.963   8.523  0.00  0.00    +0.000 A 
ATOM      4  C   UNL     1      21.103  11.714   8.953  0.00  0.00    +0.000 A 
ATOM      5  C   UNL     1      22.209  11.918   8.112  0.00  0.00    +0.000 A 
ATOM      6  C   UNL     1      22.274  11.409   6.803  0.00  0.00    +0.000 A 
ATOM      7  C   UNL     1      21.157  10.653   6.402  0.00  0.00    +0.000 A 
ATOM      8  C   UNL     1      20.045  10.439   7.233  0.00  0.00    +0.000 A 
ENDBRANCH   1   6
BRANCH   1   9
ATOM      9  C   UNL     1      24.291  10.464   5.671  0.00  0.00    +0.000 C 
BRANCH   9  10
ATOM     10  C   UNL     1      24.463  10.227   4.150  0.00  0.00    +0.000 C 
ATOM     11  C   UNL     1      25.267   8.960   3.884  0.00  0.00    +0.000 C 
BRANCH  10  12
ATOM     12  O   UNL     1      23.190  10.090   3.504  0.00  0.00    +0.000 OA
ATOM     13  H   UNL     1      23.233  10.554   2.651  0.00  0.00    +0.000 HD
ENDBRANCH  10  12
ENDBRANCH   9  10
ENDBRANCH   1   9
BRANCH   1  14
ATOM     14  C   UNL     1      23.997  12.945   5.805  0.00  0.00    +0.000 C 
BRANCH  14  15
ATOM     15  C   UNL     1      23.247  13.795   4.752  0.00  0.00    +0.000 C 
ATOM     16  C   UNL     1      24.138  14.825   4.068  0.00  0.00    +0.000 C 
BRANCH  15  17
ATOM     17  O   UNL     1      22.656  12.981   3.740  0.00  0.00    +0.000 OA
ATOM     18  H   UNL     1      23.327  12.297   3.543  0.00  0.00    +0.000 HD
ENDBRANCH  15  17
ENDBRANCH  14  15
ENDBRANCH   1  14
TORSDOF 7
ENDMDL
