MODEL 1
REMARK VINA RESULT:    -4.993      0.000      0.000
REMARK INTER + INTRA:          -7.244
REMARK INTER:                  -6.744
REMARK INTRA:                  -0.500
REMARK UNBOUND:                -0.500
REMARK  Name = 
REMARK  10 active torsions:
REMARK  status: ('A' for Active; 'I' for Inactive)
REMARK    1  A    between atoms: C_1  and  C_2
REMARK    2  A    between atoms: C_5  and  N_8
REMARK    3  A    between atoms: N_8  and  C_9
REMARK    4  A    between atoms: N_8  and  C_13
REMARK    5  A    between atoms: C_9  and  C_10
REMARK    6  A    between atoms: C_10  and  C_11
REMARK    7  A    between atoms: C_10  and  O_12
REMARK    8  A    between atoms: C_13  and  C_14
REMARK    9  A    between atoms: C_14  and  C_15
REMARK   10  A    between atoms: C_14  and  O_16
REMARK                            x       y       z     vdW  Elec       q    Type
REMARK                         _______ _______ _______ _____ _____    ______ ____
ROOT
ATOM      1  N   UNL     1       9.651   7.406   8.349  0.00  0.00    +0.000 N 
ENDROOT
BRANCH   1   6
ATOM      2  C   UNL     1      10.189   5.593   2.894  0.00  0.00    +0.000 C 
ATOM      3  C   UNL     1      10.024   6.063   4.307  0.00  0.00    +0.000 A 
ATOM      4  C   UNL     1       9.967   7.419   4.607  0.00  0.00    +0.000 A 
ATOM      5  C   UNL     1       9.843   7.854   5.937  0.00  0.00    +0.000 A 
ATOM      6  C   UNL     1       9.794   6.966   7.027  0.00  0.00    +0.000 A 
ATOM      7  C   UNL     1       9.853   5.602   6.686  0.00  0.00    +0.000 A 
ATOM      8  C   UNL     1       9.975   5.154   5.361  0.00  0.00    +0.000 A 
ENDBRANCH   1   6
BRANCH   1   9
ATOM      9  C   UNL     1       9.292   8.817   8.628  0.00  0.00    +0.000 C 
BRANCH   9  10
ATOM     10  C   UNL     1       8.579   8.997   9.991  0.00  0.00    +0.000 C 
ATOM     11  C   UNL     1       9.018  10.290  10.669  0.00  0.00    +0.000 C 
BRANCH  10  12
ATOM     12  O   UNL     1       7.156   9.043   9.825  0.00  0.00    +0.000 OA
ATOM     13  H   UNL     1       6.889   9.976   9.763  0.00  0.00    +0.000 HD
ENDBRANCH  10  12
ENDBRANCH   9  10
ENDBRANCH   1   9
BRANCH   1  14
ATOM     14  C   UNL     1      10.318   6.698   9.471  0.00  0.00    +0.000 C 
BRANCH  14  15
ATOM     15  C   UNL     1      11.846   6.940   9.490  0.00  0.00    +0.000 C 
ATOM     16  C   UNL     1      12.281   7.949  10.547  0.00  0.00    +0.000 C 
BRANCH  15  17
ATOM     17  O   UNL     1      12.569   5.730   9.711  0.00  0.00    +0.000 OA
ATOM     18  H   UNL     1      11.903   5.019   9.629  0.00  0.00    +0.000 HD
ENDBRANCH  15  17
ENDBRANCH  14  15
ENDBRANCH   1  14
TORSDOF 7
ENDMDL
MODEL 2
REMARK VINA RESULT:    -4.880      0.880      3.329
REMARK INTER + INTRA:          -7.092
REMARK INTER:                  -6.668
REMARK INTRA:                  -0.424
REMARK UNBOUND:                -0.500
REMARK  Name = 
REMARK  10 active torsions:
REMARK  status: ('A' for Active; 'I' for Inactive)
REMARK    1  A    between atoms: C_1  and  C_2
REMARK    2  A    between atoms: C_5  and  N_8
REMARK    3  A    between atoms: N_8  and  C_9
REMARK    4  A    between atoms: N_8  and  C_13
REMARK    5  A    between atoms: C_9  and  C_10
REMARK    6  A    between atoms: C_10  and  C_11
REMARK    7  A    between atoms: C_10  and  O_12
REMARK    8  A    between atoms: C_13  and  C_14
REMARK    9  A    between atoms: C_14  and  C_15
REMARK   10  A    between atoms: C_14  and  O_16
REMARK                            x       y       z     vdW  Elec       q    Type
REMARK                         _______ _______ _______ _____ _____    ______ ____
ROOT
ATOM      1  N   UNL     1       9.786   7.880   8.323  0.00  0.00    +0.000 N 
ENDROOT
BRANCH   1   6
ATOM      2  C   UNL     1      10.128   5.499   3.075  0.00  0.00    +0.000 C 
ATOM      3  C   UNL     1      10.064   6.120   4.437  0.00  0.00    +0.000 A 
ATOM      4  C   UNL     1      10.096   5.332   5.583  0.00  0.00    +0.000 A 
ATOM      5  C   UNL     1      10.006   5.917   6.857  0.00  0.00    +0.000 A 
ATOM      6  C   UNL     1       9.856   7.302   7.049  0.00  0.00    +0.000 A 
ATOM      7  C   UNL     1       9.829   8.067   5.869  0.00  0.00    +0.000 A 
ATOM      8  C   UNL     1       9.921   7.496   4.589  0.00  0.00    +0.000 A 
ENDBRANCH   1   6
BRANCH   1   9
ATOM      9  C   UNL     1       9.977   7.042   9.531  0.00  0.00    +0.000 C 
BRANCH   9  10
ATOM     10  C   UNL     1      11.359   7.253  10.196  0.00  0.00    +0.000 C 
ATOM     11  C   UNL     1      12.390   6.284   9.628  0.00  0.00    +0.000 C 
BRANCH  10  12
ATOM     12  O   UNL     1      11.837   8.588   9.978  0.00  0.00    +0.000 OA
ATOM     13  H   UNL     1      11.208   9.204  10.389  0.00  0.00    +0.000 HD
ENDBRANCH  10  12
ENDBRANCH   9  10
ENDBRANCH   1   9
BRANCH   1  14
ATOM     14  C   UNL     1       9.045   9.147   8.553  0.00  0.00    +0.000 C 
BRANCH  14  15
ATOM     15  C   UNL     1       8.336   9.168   9.928  0.00  0.00    +0.000 C 
ATOM     16  C   UNL     1       8.765  10.339  10.806  0.00  0.00    +0.000 C 
BRANCH  15  17
ATOM     17  O   UNL     1       6.917   9.217   9.789  0.00  0.00    +0.000 OA
ATOM     18  H   UNL     1       6.704  10.167   9.698  0.00  0.00    +0.000 HD
ENDBRANCH  15  17
ENDBRANCH  14  15
ENDBRANCH   1  14
TORSDOF 7
ENDMDL
MODEL 3
REMARK VINA RESULT:    -4.723      2.421      5.338
REMARK INTER + INTRA:          -6.880
REMARK INTER:                  -6.420
REMARK INTRA:                  -0.460
REMARK UNBOUND:                -0.500
REMARK  Name = 
REMARK  10 active torsions:
REMARK  status: ('A' for Active; 'I' for Inactive)
REMARK    1  A    between atoms: C_1  and  C_2
REMARK    2  A    between atoms: C_5  and  N_8
REMARK    3  A    between atoms: N_8  and  C_9
REMARK    4  A    between atoms: N_8  and  C_13
REMARK    5  A    between atoms: C_9  and  C_10
REMARK    6  A    between atoms: C_10  and  C_11
REMARK    7  A    between atoms: C_10  and  O_12
REMARK    8  A    between atoms: C_13  and  C_14
REMARK    9  A    between atoms: C_14  and  C_15
REMARK   10  A    between atoms: C_14  and  O_16
REMARK                            x       y       z     vdW  Elec       q    Type
REMARK                         _______ _______ _______ _____ _____    ______ ____
ROOT
ATOM      1  N   UNL     1      11.431   7.071   9.902  0.00  0.00    +0.000 N 
ENDROOT
BRANCH   1   6
ATOM      2  C   UNL     1       9.778  12.532  10.779  0.00  0.00    +0.000 C 
ATOM      3  C   UNL     1      10.214  11.121  10.528  0.00  0.00    +0.000 A 
ATOM      4  C   UNL     1       9.322  10.174  10.036  0.00  0.00    +0.000 A 
ATOM      5  C   UNL     1       9.729   8.845   9.832  0.00  0.00    +0.000 A 
ATOM      6  C   UNL     1      11.027   8.393  10.127  0.00  0.00    +0.000 A 
ATOM      7  C   UNL     1      11.903   9.377  10.620  0.00  0.00    +0.000 A 
ATOM      8  C   UNL     1      11.510  10.710  10.827  0.00  0.00    +0.000 A 
ENDBRANCH   1   6
BRANCH   1   9
ATOM      9  C   UNL     1      10.580   6.159   9.099  0.00  0.00    +0.000 C 
BRANCH   9  10
ATOM     10  C   UNL     1      10.885   6.233   7.583  0.00  0.00    +0.000 C 
ATOM     11  C   UNL     1       9.808   7.023   6.848  0.00  0.00    +0.000 C 
BRANCH  10  12
ATOM     12  O   UNL     1      12.147   6.872   7.342  0.00  0.00    +0.000 OA
ATOM     13  H   UNL     1      12.268   7.563   8.015  0.00  0.00    +0.000 HD
ENDBRANCH  10  12
ENDBRANCH   9  10
ENDBRANCH   1   9
BRANCH   1  14
ATOM     14  C   UNL     1      12.383   6.391  10.818  0.00  0.00    +0.000 C 
BRANCH  14  15
ATOM     15  C   UNL     1      13.737   6.086  10.133  0.00  0.00    +0.000 C 
ATOM     16  C   UNL     1      14.824   7.097  10.478  0.00  0.00    +0.000 C 
BRANCH  15  17
ATOM     17  O   UNL     1      14.218   4.787  10.471  0.00  0.00    +0.000 OA
ATOM     18  H   UNL     1      13.862   4.197   9.777  0.00  0.00    +0.000 HD
ENDBRANCH  15  17
ENDBRANCH  14  15
ENDBRANCH   1  14
TORSDOF 7
ENDMDL
MODEL 4
REMARK VINA RESULT:    -4.546      2.005      5.884
REMARK INTER + INTRA:          -6.640
REMARK INTER:                  -6.144
REMARK INTRA:                  -0.496
REMARK UNBOUND:                -0.500
REMARK  Name = 
REMARK  10 active torsions:
REMARK  status: ('A' for Active; 'I' for Inactive)
REMARK    1  A    between atoms: C_1  and  C_2
REMARK    2  A    between atoms: C_5  and  N_8
REMARK    3  A    between atoms: N_8  and  C_9
REMARK    4  A    between atoms: N_8  and  C_13
REMARK    5  A    between atoms: C_9  and  C_10
REMARK    6  A    between atoms: C_10  and  C_11
REMARK    7  A    between atoms: C_10  and  O_12
REMARK    8  A    between atoms: C_13  and  C_14
REMARK    9  A    between atoms: C_14  and  C_15
REMARK   10  A    between atoms: C_14  and  O_16
REMARK                            x       y       z     vdW  Elec       q    Type
REMARK                         _______ _______ _______ _____ _____    ______ ____
ROOT
ATOM      1  N   UNL     1      10.715   7.349  10.206  0.00  0.00    +0.000 N 
ENDROOT
BRANCH   1   6
ATOM      2  C   UNL     1       9.608  12.990  10.735  0.00  0.00    +0.000 C 
ATOM      3  C   UNL     1       9.896  11.529  10.573  0.00  0.00    +0.000 A 
ATOM      4  C   UNL     1       8.862  10.603  10.479  0.00  0.00    +0.000 A 
ATOM      5  C   UNL     1       9.138   9.232  10.358  0.00  0.00    +0.000 A 
ATOM      6  C   UNL     1      10.447   8.716  10.347  0.00  0.00    +0.000 A 
ATOM      7  C   UNL     1      11.467   9.681  10.441  0.00  0.00    +0.000 A 
ATOM      8  C   UNL     1      11.205  11.056  10.561  0.00  0.00    +0.000 A 
ENDBRANCH   1   6
BRANCH   1   9
ATOM      9  C   UNL     1      11.926   6.761  10.827  0.00  0.00    +0.000 C 
BRANCH   9  10
ATOM     10  C   UNL     1      12.874   6.107   9.792  0.00  0.00    +0.000 C 
ATOM     11  C   UNL     1      14.072   7.006   9.506  0.00  0.00    +0.000 C 
BRANCH  10  12
ATOM     12  O   UNL     1      13.368   4.848  10.269  0.00  0.00    +0.000 OA
ATOM     13  H   UNL     1      12.745   4.156   9.992  0.00  0.00    +0.000 HD
ENDBRANCH  10  12
ENDBRANCH   9  10
ENDBRANCH   1   9
BRANCH   1  14
ATOM     14  C   UNL     1      10.151   6.567   9.076  0.00  0.00    +0.000 C 
BRANCH  14  15
ATOM     15  C   UNL     1      10.303   7.304   7.723  0.00  0.00    +0.000 C 
ATOM     16  C   UNL     1      10.949   6.446   6.642  0.00  0.00    +0.000 C 
BRANCH  15  17
ATOM     17  O   UNL     1       9.045   7.764   7.229  0.00  0.00    +0.000 OA
ATOM     18  H   UNL     1       9.063   8.734   7.356  0.00  0.00    +0.000 HD
ENDBRANCH  15  17
ENDBRANCH  14  15
ENDBRANCH   1  14
TORSDOF 7
ENDMDL
MODEL 5
REMARK VINA RESULT:    -4.336      2.038      4.985
REMARK INTER + INTRA:          -6.357
REMARK INTER:                  -5.794
REMARK INTRA:                  -0.564
REMARK UNBOUND:                -0.500
REMARK  Name = 
REMARK  10 active torsions:
REMARK  status: ('A' for Active; 'I' for Inactive)
REMARK    1  A    between atoms: C_1  and  C_2
REMARK    2  A    between atoms: C_5  and  N_8
REMARK    3  A    between atoms: N_8  and  C_9
REMARK    4  A    between atoms: N_8  and  C_13
REMARK    5  A    between atoms: C_9  and  C_10
REMARK    6  A    between atoms: C_10  and  C_11
REMARK    7  A    between atoms: C_10  and  O_12
REMARK    8  A    between atoms: C_13  and  C_14
REMARK    9  A    between atoms: C_14  and  C_15
REMARK   10  A    between atoms: C_14  and  O_16
REMARK                            x       y       z     vdW  Elec       q    Type
REMARK                         _______ _______ _______ _____ _____    ______ ____
ROOT
ATOM      1  N   UNL     1      10.920   7.132   9.673  0.00  0.00    +0.000 N 
ENDROOT
BRANCH   1   6
ATOM      2  C   UNL     1      16.618   7.847  10.264  0.00  0.00    +0.000 C 
ATOM      3  C   UNL     1      15.139   7.678  10.092  0.00  0.00    +0.000 A 
ATOM      4  C   UNL     1      14.242   8.448  10.824  0.00  0.00    +0.000 A 
ATOM      5  C   UNL     1      12.857   8.265  10.681  0.00  0.00    +0.000 A 
ATOM      6  C   UNL     1      12.302   7.296   9.825  0.00  0.00    +0.000 A 
ATOM      7  C   UNL     1      13.238   6.537   9.100  0.00  0.00    +0.000 A 
ATOM      8  C   UNL     1      14.626   6.711   9.232  0.00  0.00    +0.000 A 
ENDBRANCH   1   6
BRANCH   1   9
ATOM      9  C   UNL     1      10.011   7.381  10.817  0.00  0.00    +0.000 C 
BRANCH   9  10
ATOM     10  C   UNL     1       9.078   8.596  10.589  0.00  0.00    +0.000 C 
ATOM     11  C   UNL     1       9.834   9.749   9.938  0.00  0.00    +0.000 C 
BRANCH  10  12
ATOM     12  O   UNL     1       7.979   8.248   9.737  0.00  0.00    +0.000 OA
ATOM     13  H   UNL     1       7.639   7.383  10.020  0.00  0.00    +0.000 HD
ENDBRANCH  10  12
ENDBRANCH   9  10
ENDBRANCH   1   9
BRANCH   1  14
ATOM     14  C   UNL     1      10.362   6.253   8.613  0.00  0.00    +0.000 C 
BRANCH  14  15
ATOM     15  C   UNL     1      10.289   6.967   7.241  0.00  0.00    +0.000 C 
ATOM     16  C   UNL     1      10.249   6.000   6.064  0.00  0.00    +0.000 C 
BRANCH  15  17
ATOM     17  O   UNL     1       9.148   7.819   7.151  0.00  0.00    +0.000 OA
ATOM     18  H   UNL     1       8.826   7.908   8.071  0.00  0.00    +0.000 HD
ENDBRANCH  15  17
ENDBRANCH  14  15
ENDBRANCH   1  14
TORSDOF 7
ENDMDL
MODEL 6
REMARK VINA RESULT:    -4.313      2.312      5.424
REMARK INTER + INTRA:          -6.326
REMARK INTER:                  -5.884
REMARK INTRA:                  -0.441
REMARK UNBOUND:                -0.500
REMARK  Name = 
REMARK  10 active torsions:
REMARK  status: ('A' for Active; 'I' for Inactive)
REMARK    1  A    between atoms: C_1  and  C_2
REMARK    2  A    between atoms: C_5  and  N_8
REMARK    3  A    between atoms: N_8  and  C_9
REMARK    4  A    between atoms: N_8  and  C_13
REMARK    5  A    between atoms: C_9  and  C_10
REMARK    6  A    between atoms: C_10  and  C_11
REMARK    7  A    between atoms: C_10  and  O_12
REMARK    8  A    between atoms: C_13  and  C_14
REMARK    9  A    between atoms: C_14  and  C_15
REMARK   10  A    between atoms: C_14  and  O_16
REMARK                            x       y       z     vdW  Elec       q    Type
REMARK                         _______ _______ _______ _____ _____    ______ ____
ROOT
ATOM      1  N   UNL     1      10.963   6.645   8.299  0.00  0.00    +0.000 N 
ENDROOT
BRANCH   1   6
ATOM      2  C   UNL     1      16.140   5.935  10.752  0.00  0.00    +0.000 C 
ATOM      3  C   UNL     1      14.796   6.143  10.124  0.00  0.00    +0.000 A 
ATOM      4  C   UNL     1      13.629   5.844  10.818  0.00  0.00    +0.000 A 
ATOM      5  C   UNL     1      12.372   6.012  10.213  0.00  0.00    +0.000 A 
ATOM      6  C   UNL     1      12.219   6.461   8.889  0.00  0.00    +0.000 A 
ATOM      7  C   UNL     1      13.420   6.755   8.218  0.00  0.00    +0.000 A 
ATOM      8  C   UNL     1      14.683   6.593   8.812  0.00  0.00    +0.000 A 
ENDBRANCH   1   6
BRANCH   1   9
ATOM      9  C   UNL     1      10.858   6.940   6.849  0.00  0.00    +0.000 C 
BRANCH   9  10
ATOM     10  C   UNL     1       9.812   6.054   6.130  0.00  0.00    +0.000 C 
ATOM     11  C   UNL     1       9.973   6.140   4.617  0.00  0.00    +0.000 C 
BRANCH  10  12
ATOM     12  O   UNL     1       9.952   4.679   6.514  0.00  0.00    +0.000 OA
ATOM     13  H   UNL     1      10.680   4.294   5.998  0.00  0.00    +0.000 HD
ENDBRANCH  10  12
ENDBRANCH   9  10
ENDBRANCH   1   9
BRANCH   1  14
ATOM     14  C   UNL     1       9.787   7.059   9.106  0.00  0.00    +0.000 C 
BRANCH  14  15
ATOM     15  C   UNL     1       9.568   8.591   9.078  0.00  0.00    +0.000 C 
ATOM     16  C   UNL     1       8.264   9.024   9.736  0.00  0.00    +0.000 C 
BRANCH  15  17
ATOM     17  O   UNL     1      10.638   9.288   9.715  0.00  0.00    +0.000 OA
ATOM     18  H   UNL     1      10.882  10.001   9.092  0.00  0.00    +0.000 HD
ENDBRANCH  15  17
ENDBRANCH  14  15
ENDBRANCH   1  14
TORSDOF 7
ENDMDL
MODEL 7
REMARK VINA RESULT:    -4.287      2.907      5.494
REMARK INTER + INTRA:          -6.291
REMARK INTER:                  -5.910
REMARK INTRA:                  -0.381
REMARK UNBOUND:                -0.500
REMARK  Name = 
REMARK  10 active torsions:
REMARK  status: ('A' for Active; 'I' for Inactive)
REMARK    1  A    between atoms: C_1  and  C_2
REMARK    2  A    between atoms: C_5  and  N_8
REMARK    3  A    between atoms: N_8  and  C_9
REMARK    4  A    between atoms: N_8  and  C_13
REMARK    5  A    between atoms: C_9  and  C_10
REMARK    6  A    between atoms: C_10  and  C_11
REMARK    7  A    between atoms: C_10  and  O_12
REMARK    8  A    between atoms: C_13  and  C_14
REMARK    9  A    between atoms: C_14  and  C_15
REMARK   10  A    between atoms: C_14  and  O_16
REMARK                            x       y       z     vdW  Elec       q    Type
REMARK                         _______ _______ _______ _____ _____    ______ ____
ROOT
ATOM      1  N   UNL     1      12.054   6.633   8.561  0.00  0.00    +0.000 N 
ENDROOT
BRANCH   1   6
ATOM      2  C   UNL     1      17.546   6.003  10.224  0.00  0.00    +0.000 C 
ATOM      3  C   UNL     1      16.120   6.142   9.786  0.00  0.00    +0.000 A 
ATOM      4  C   UNL     1      15.807   6.548   8.493  0.00  0.00    +0.000 A 
ATOM      5  C   UNL     1      14.469   6.706   8.097  0.00  0.00    +0.000 A 
ATOM      6  C   UNL     1      13.386   6.492   8.969  0.00  0.00    +0.000 A 
ATOM      7  C   UNL     1      13.740   6.081  10.267  0.00  0.00    +0.000 A 
ATOM      8  C   UNL     1      15.074   5.917  10.676  0.00  0.00    +0.000 A 
ENDBRANCH   1   6
BRANCH   1   9
ATOM      9  C   UNL     1      11.718   6.668   7.117  0.00  0.00    +0.000 C 
BRANCH   9  10
ATOM     10  C   UNL     1      10.206   6.473   6.848  0.00  0.00    +0.000 C 
ATOM     11  C   UNL     1       9.779   7.206   5.582  0.00  0.00    +0.000 C 
BRANCH  10  12
ATOM     12  O   UNL     1       9.887   5.084   6.686  0.00  0.00    +0.000 OA
ATOM     13  H   UNL     1       9.117   4.884   7.244  0.00  0.00    +0.000 HD
ENDBRANCH  10  12
ENDBRANCH   9  10
ENDBRANCH   1   9
BRANCH   1  14
ATOM     14  C   UNL     1      11.037   7.246   9.453  0.00  0.00    +0.000 C 
BRANCH  14  15
ATOM     15  C   UNL     1      10.347   6.198  10.360  0.00  0.00    +0.000 C 
ATOM     16  C   UNL     1       8.962   6.629  10.827  0.00  0.00    +0.000 C 
BRANCH  15  17
ATOM     17  O   UNL     1      10.220   4.937   9.705  0.00  0.00    +0.000 OA
ATOM     18  H   UNL     1       9.310   4.929   9.347  0.00  0.00    +0.000 HD
ENDBRANCH  15  17
ENDBRANCH  14  15
ENDBRANCH   1  14
TORSDOF 7
ENDMDL
MODEL 8
REMARK VINA RESULT:    -4.102     10.625     12.584
REMARK INTER + INTRA:          -6.042
REMARK INTER:                  -5.520
REMARK INTRA:                  -0.521
REMARK UNBOUND:                -0.500
REMARK  Name = 
REMARK  10 active torsions:
REMARK  status: ('A' for Active; 'I' for Inactive)
REMARK    1  A    between atoms: C_1  and  C_2
REMARK    2  A    between atoms: C_5  and  N_8
REMARK    3  A    between atoms: N_8  and  C_9
REMARK    4  A    between atoms: N_8  and  C_13
REMARK    5  A    between atoms: C_9  and  C_10
REMARK    6  A    between atoms: C_10  and  C_11
REMARK    7  A    between atoms: C_10  and  O_12
REMARK    8  A    between atoms: C_13  and  C_14
REMARK    9  A    between atoms: C_14  and  C_15
REMARK   10  A    between atoms: C_14  and  O_16
REMARK                            x       y       z     vdW  Elec       q    Type
REMARK                         _______ _______ _______ _____ _____    ______ ____
ROOT
ATOM      1  N   UNL     1      21.881  11.120   7.314  0.00  0.00    +0.000 N 
ENDROOT
BRANCH   1   6
ATOM      2  C   UNL     1      16.379   9.621   8.214  0.00  0.00    +0.000 C 
ATOM      3  C   UNL     1      17.800  10.032   7.973  0.00  0.00    +0.000 A 
ATOM      4  C   UNL     1      18.413   9.797   6.747  0.00  0.00    +0.000 A 
ATOM      5  C   UNL     1      19.754  10.158   6.537  0.00  0.00    +0.000 A 
ATOM      6  C   UNL     1      20.551  10.745   7.537  0.00  0.00    +0.000 A 
ATOM      7  C   UNL     1      19.897  10.970   8.762  0.00  0.00    +0.000 A 
ATOM      8  C   UNL     1      18.556  10.616   8.985  0.00  0.00    +0.000 A 
ENDBRANCH   1   6
BRANCH   1   9
ATOM      9  C   UNL     1      22.661  10.482   6.226  0.00  0.00    +0.000 C 
BRANCH   9  10
ATOM     10  C   UNL     1      22.615  11.287   4.904  0.00  0.00    +0.000 C 
ATOM     11  C   UNL     1      24.006  11.770   4.511  0.00  0.00    +0.000 C 
BRANCH  10  12
ATOM     12  O   UNL     1      22.104  10.484   3.830  0.00  0.00    +0.000 OA
ATOM     13  H   UNL     1      21.797  11.080   3.127  0.00  0.00    +0.000 HD
ENDBRANCH  10  12
ENDBRANCH   9  10
ENDBRANCH   1   9
BRANCH   1  14
ATOM     14  C   UNL     1      22.700  11.729   8.393  0.00  0.00    +0.000 C 
BRANCH  14  15
ATOM     15  C   UNL     1      22.909  13.248   8.180  0.00  0.00    +0.000 C 
ATOM     16  C   UNL     1      24.333  13.605   7.768  0.00  0.00    +0.000 C 
BRANCH  15  17
ATOM     17  O   UNL     1      22.020  13.770   7.195  0.00  0.00    +0.000 OA
ATOM     18  H   UNL     1      21.989  13.087   6.495  0.00  0.00    +0.000 HD
ENDBRANCH  15  17
ENDBRANCH  14  15
ENDBRANCH   1  14
TORSDOF 7
ENDMDL
MODEL 9
REMARK VINA RESULT:    -4.011     12.277     14.349
REMARK INTER + INTRA:          -5.918
REMARK INTER:                  -5.200
REMARK INTRA:                  -0.717
REMARK UNBOUND:                -0.500
REMARK  Name = 
REMARK  10 active torsions:
REMARK  status: ('A' for Active; 'I' for Inactive)
REMARK    1  A    between atoms: C_1  and  C_2
REMARK    2  A    between atoms: C_5  and  N_8
REMARK    3  A    between atoms: N_8  and  C_9
REMARK    4  A    between atoms: N_8  and  C_13
REMARK    5  A    between atoms: C_9  and  C_10
REMARK    6  A    between atoms: C_10  and  C_11
REMARK    7  A    between atoms: C_10  and  O_12
REMARK    8  A    between atoms: C_13  and  C_14
REMARK    9  A    between atoms: C_14  and  C_15
REMARK   10  A    between atoms: C_14  and  O_16
REMARK                            x       y       z     vdW  Elec       q    Type
REMARK                         _______ _______ _______ _____ _____    ______ ____
ROOT
ATOM      1  N   UNL     1      23.412  11.633   5.986  0.00  0.00    +0.000 N 
ENDROOT
BRANCH   1   6
ATOM      2  C   UNL     1      18.797  10.724   9.334  0.00  0.00    +0.000 C 
ATOM      3  C   UNL     1      20.005  10.938   8.474  0.00  0.00    +0.000 A 
ATOM      4  C   UNL     1      21.084  11.687   8.932  0.00  0.00    +0.000 A 
ATOM      5  C   UNL     1      22.201  11.910   8.110  0.00  0.00    +0.000 A 
ATOM      6  C   UNL     1      22.287  11.423   6.794  0.00  0.00    +0.000 A 
ATOM      7  C   UNL     1      21.179  10.669   6.364  0.00  0.00    +0.000 A 
ATOM      8  C   UNL     1      20.056  10.436   7.177  0.00  0.00    +0.000 A 
ENDBRANCH   1   6
BRANCH   1   9
ATOM      9  C   UNL     1      24.349  10.517   5.712  0.00  0.00    +0.000 C 
BRANCH   9  10
ATOM     10  C   UNL     1      24.549  10.259   4.199  0.00  0.00    +0.000 C 
ATOM     11  C   UNL     1      25.369   8.996   3.965  0.00  0.00    +0.000 C 
BRANCH  10  12
ATOM     12  O   UNL     1      23.289  10.101   3.533  0.00  0.00    +0.000 OA
ATOM     13  H   UNL     1      22.686   9.634   4.135  0.00  0.00    +0.000 HD
ENDBRANCH  10  12
ENDBRANCH   9  10
ENDBRANCH   1   9
BRANCH   1  14
ATOM     14  C   UNL     1      23.989  12.990   5.810  0.00  0.00    +0.000 C 
BRANCH  14  15
ATOM     15  C   UNL     1      23.224  13.816   4.747  0.00  0.00    +0.000 C 
ATOM     16  C   UNL     1      24.095  14.863   4.061  0.00  0.00    +0.000 C 
BRANCH  15  17
ATOM     17  O   UNL     1      22.659  12.981   3.737  0.00  0.00    +0.000 OA
ATOM     18  H   UNL     1      22.441  12.144   4.194  0.00  0.00    +0.000 HD
ENDBRANCH  15  17
ENDBRANCH  14  15
ENDBRANCH   1  14
TORSDOF 7
ENDMDL
