MODEL 1
REMARK VINA RESULT:    -4.825      0.000      0.000
REMARK INTER + INTRA:          -5.287
REMARK INTER:                  -5.248
REMARK INTRA:                  -0.039
REMARK UNBOUND:                -0.039
REMARK  Name = 
REMARK  3 active torsions:
REMARK  status: ('A' for Active; 'I' for Inactive)
REMARK    1  A    between atoms: C_1  and  O_2
REMARK    2  A    between atoms: O_2  and  C_3
REMARK    3  A    between atoms: C_8  and  O_9
REMARK                            x       y       z     vdW  Elec       q    Type
REMARK                         _______ _______ _______ _____ _____    ______ ____
ROOT
ATOM      1  C   UNL     1      10.146   6.238   6.116  0.00  0.00    +0.000 A 
ATOM      2  C   UNL     1      10.350   7.383   5.347  0.00  0.00    +0.000 A 
ATOM      3  C   UNL     1      10.340   7.297   3.949  0.00  0.00    +0.000 A 
ATOM      4  C   UNL     1      10.128   6.071   3.316  0.00  0.00    +0.000 A 
ATOM      5  C   UNL     1       9.923   4.923   4.078  0.00  0.00    +0.000 A 
ATOM      6  C   UNL     1       9.935   5.017   5.464  0.00  0.00    +0.000 A 
ENDROOT
BRANCH   1   8
ATOM      7  C   UNL     1       9.867   7.391   8.176  0.00  0.00    +0.000 C 
ATOM      8  O   UNL     1      10.130   6.174   7.486  0.00  0.00    +0.000 OA
ENDBRANCH   1   8
BRANCH   6   9
ATOM      9  O   UNL     1       9.731   3.875   6.192  0.00  0.00    +0.000 OA
ATOM     10  H   UNL     1       9.568   4.187   7.102  0.00  0.00    +0.000 HD
ENDBRANCH   6   9
TORSDOF 2
ENDMDL
MODEL 2
REMARK VINA RESULT:    -4.693      8.708      9.902
REMARK INTER + INTRA:          -5.143
REMARK INTER:                  -5.140
REMARK INTRA:                  -0.003
REMARK UNBOUND:                -0.039
REMARK  Name = 
REMARK  3 active torsions:
REMARK  status: ('A' for Active; 'I' for Inactive)
REMARK    1  A    between atoms: C_1  and  O_2
REMARK    2  A    between atoms: O_2  and  C_3
REMARK    3  A    between atoms: C_8  and  O_9
REMARK                            x       y       z     vdW  Elec       q    Type
REMARK                         _______ _______ _______ _____ _____    ______ ____
ROOT
ATOM      1  C   UNL     1       8.092  -2.025   9.834  0.00  0.00    +0.000 A 
ATOM      2  C   UNL     1       9.457  -2.305   9.862  0.00  0.00    +0.000 A 
ATOM      3  C   UNL     1       9.927  -3.541   9.400  0.00  0.00    +0.000 A 
ATOM      4  C   UNL     1       9.037  -4.499   8.910  0.00  0.00    +0.000 A 
ATOM      5  C   UNL     1       7.672  -4.226   8.879  0.00  0.00    +0.000 A 
ATOM      6  C   UNL     1       7.214  -2.997   9.339  0.00  0.00    +0.000 A 
ENDROOT
BRANCH   1   8
ATOM      7  C   UNL     1       7.479   0.214   9.323  0.00  0.00    +0.000 C 
ATOM      8  O   UNL     1       7.494  -0.863  10.252  0.00  0.00    +0.000 OA
ENDBRANCH   1   8
BRANCH   6   9
ATOM      9  O   UNL     1       5.868  -2.752   9.298  0.00  0.00    +0.000 OA
ATOM     10  H   UNL     1       5.663  -2.348  10.163  0.00  0.00    +0.000 HD
ENDBRANCH   6   9
TORSDOF 2
ENDMDL
MODEL 3
REMARK VINA RESULT:    -4.513      8.713     10.006
REMARK INTER + INTRA:          -4.948
REMARK INTER:                  -4.910
REMARK INTRA:                  -0.037
REMARK UNBOUND:                -0.039
REMARK  Name = 
REMARK  3 active torsions:
REMARK  status: ('A' for Active; 'I' for Inactive)
REMARK    1  A    between atoms: C_1  and  O_2
REMARK    2  A    between atoms: O_2  and  C_3
REMARK    3  A    between atoms: C_8  and  O_9
REMARK                            x       y       z     vdW  Elec       q    Type
REMARK                         _______ _______ _______ _____ _____    ______ ____
ROOT
ATOM      1  C   UNL     1       8.384  -2.141   9.371  0.00  0.00    +0.000 A 
ATOM      2  C   UNL     1       7.237  -2.934   9.385  0.00  0.00    +0.000 A 
ATOM      3  C   UNL     1       7.351  -4.330   9.380  0.00  0.00    +0.000 A 
ATOM      4  C   UNL     1       8.608  -4.937   9.360  0.00  0.00    +0.000 A 
ATOM      5  C   UNL     1       9.758  -4.152   9.346  0.00  0.00    +0.000 A 
ATOM      6  C   UNL     1       9.636  -2.768   9.351  0.00  0.00    +0.000 A 
ENDROOT
BRANCH   1   8
ATOM      7  C   UNL     1       7.167  -0.100   9.351  0.00  0.00    +0.000 C 
ATOM      8  O   UNL     1       8.422  -0.770   9.373  0.00  0.00    +0.000 OA
ENDBRANCH   1   8
BRANCH   6   9
ATOM      9  O   UNL     1      10.781  -2.017   9.336  0.00  0.00    +0.000 OA
ATOM     10  H   UNL     1      10.521  -1.176   8.914  0.00  0.00    +0.000 HD
ENDBRANCH   6   9
TORSDOF 2
ENDMDL
MODEL 4
REMARK VINA RESULT:    -4.183      9.214     10.577
REMARK INTER + INTRA:          -4.588
REMARK INTER:                  -4.546
REMARK INTRA:                  -0.043
REMARK UNBOUND:                -0.039
REMARK  Name = 
REMARK  3 active torsions:
REMARK  status: ('A' for Active; 'I' for Inactive)
REMARK    1  A    between atoms: C_1  and  O_2
REMARK    2  A    between atoms: O_2  and  C_3
REMARK    3  A    between atoms: C_8  and  O_9
REMARK                            x       y       z     vdW  Elec       q    Type
REMARK                         _______ _______ _______ _____ _____    ______ ____
ROOT
ATOM      1  C   UNL     1       9.084  -3.375  10.457  0.00  0.00    +0.000 A 
ATOM      2  C   UNL     1       7.748  -3.528  10.827  0.00  0.00    +0.000 A 
ATOM      3  C   UNL     1       6.803  -2.565  10.451  0.00  0.00    +0.000 A 
ATOM      4  C   UNL     1       7.188  -1.449   9.707  0.00  0.00    +0.000 A 
ATOM      5  C   UNL     1       8.520  -1.289   9.333  0.00  0.00    +0.000 A 
ATOM      6  C   UNL     1       9.451  -2.249   9.710  0.00  0.00    +0.000 A 
ENDROOT
BRANCH   1   8
ATOM      7  C   UNL     1       9.798  -5.621  10.757  0.00  0.00    +0.000 C 
ATOM      8  O   UNL     1      10.111  -4.234  10.754  0.00  0.00    +0.000 OA
ENDBRANCH   1   8
BRANCH   6   9
ATOM      9  O   UNL     1      10.754  -2.070   9.330  0.00  0.00    +0.000 OA
ATOM     10  H   UNL     1      11.148  -1.531  10.042  0.00  0.00    +0.000 HD
ENDBRANCH   6   9
TORSDOF 2
ENDMDL
MODEL 5
REMARK VINA RESULT:    -4.182      1.501      2.408
REMARK INTER + INTRA:          -4.588
REMARK INTER:                  -4.547
REMARK INTRA:                  -0.041
REMARK UNBOUND:                -0.039
REMARK  Name = 
REMARK  3 active torsions:
REMARK  status: ('A' for Active; 'I' for Inactive)
REMARK    1  A    between atoms: C_1  and  O_2
REMARK    2  A    between atoms: O_2  and  C_3
REMARK    3  A    between atoms: C_8  and  O_9
REMARK                            x       y       z     vdW  Elec       q    Type
REMARK                         _______ _______ _______ _____ _____    ______ ____
ROOT
ATOM      1  C   UNL     1       9.832   6.659   5.840  0.00  0.00    +0.000 A 
ATOM      2  C   UNL     1       9.679   5.287   6.039  0.00  0.00    +0.000 A 
ATOM      3  C   UNL     1       9.868   4.400   4.971  0.00  0.00    +0.000 A 
ATOM      4  C   UNL     1      10.207   4.879   3.704  0.00  0.00    +0.000 A 
ATOM      5  C   UNL     1      10.361   6.248   3.498  0.00  0.00    +0.000 A 
ATOM      6  C   UNL     1      10.172   7.120   4.562  0.00  0.00    +0.000 A 
ENDROOT
BRANCH   1   8
ATOM      7  C   UNL     1       9.963   7.269   8.132  0.00  0.00    +0.000 C 
ATOM      8  O   UNL     1       9.678   7.638   6.788  0.00  0.00    +0.000 OA
ENDBRANCH   1   8
BRANCH   6   9
ATOM      9  O   UNL     1      10.330   8.462   4.334  0.00  0.00    +0.000 OA
ATOM     10  H   UNL     1      11.295   8.591   4.267  0.00  0.00    +0.000 HD
ENDBRANCH   6   9
TORSDOF 2
ENDMDL
MODEL 6
REMARK VINA RESULT:    -3.999      6.477      7.311
REMARK INTER + INTRA:          -4.388
REMARK INTER:                  -4.351
REMARK INTRA:                  -0.038
REMARK UNBOUND:                -0.039
REMARK  Name = 
REMARK  3 active torsions:
REMARK  status: ('A' for Active; 'I' for Inactive)
REMARK    1  A    between atoms: C_1  and  O_2
REMARK    2  A    between atoms: O_2  and  C_3
REMARK    3  A    between atoms: C_8  and  O_9
REMARK                            x       y       z     vdW  Elec       q    Type
REMARK                         _______ _______ _______ _____ _____    ______ ____
ROOT
ATOM      1  C   UNL     1       9.635  11.153  10.675  0.00  0.00    +0.000 A 
ATOM      2  C   UNL     1      10.793  10.383  10.569  0.00  0.00    +0.000 A 
ATOM      3  C   UNL     1      10.699   8.988  10.481  0.00  0.00    +0.000 A 
ATOM      4  C   UNL     1       9.453   8.360  10.499  0.00  0.00    +0.000 A 
ATOM      5  C   UNL     1       8.292   9.122  10.604  0.00  0.00    +0.000 A 
ATOM      6  C   UNL     1       8.394  10.505  10.691  0.00  0.00    +0.000 A 
ENDROOT
BRANCH   1   8
ATOM      7  C   UNL     1      10.809  13.219  10.634  0.00  0.00    +0.000 C 
ATOM      8  O   UNL     1       9.577  12.520  10.769  0.00  0.00    +0.000 OA
ENDBRANCH   1   8
BRANCH   6   9
ATOM      9  O   UNL     1       7.239  11.233  10.794  0.00  0.00    +0.000 OA
ATOM     10  H   UNL     1       6.687  10.736  11.428  0.00  0.00    +0.000 HD
ENDBRANCH   6   9
TORSDOF 2
ENDMDL
MODEL 7
REMARK VINA RESULT:    -3.923      9.441     10.742
REMARK INTER + INTRA:          -4.306
REMARK INTER:                  -4.266
REMARK INTRA:                  -0.040
REMARK UNBOUND:                -0.039
REMARK  Name = 
REMARK  3 active torsions:
REMARK  status: ('A' for Active; 'I' for Inactive)
REMARK    1  A    between atoms: C_1  and  O_2
REMARK    2  A    between atoms: O_2  and  C_3
REMARK    3  A    between atoms: C_8  and  O_9
REMARK                            x       y       z     vdW  Elec       q    Type
REMARK                         _______ _______ _______ _____ _____    ______ ____
ROOT
ATOM      1  C   UNL     1       8.355  -3.726  10.119  0.00  0.00    +0.000 A 
ATOM      2  C   UNL     1       9.472  -3.062   9.614  0.00  0.00    +0.000 A 
ATOM      3  C   UNL     1       9.398  -1.696   9.314  0.00  0.00    +0.000 A 
ATOM      4  C   UNL     1       8.210  -0.991   9.515  0.00  0.00    +0.000 A 
ATOM      5  C   UNL     1       7.090  -1.647  10.020  0.00  0.00    +0.000 A 
ATOM      6  C   UNL     1       7.172  -3.002  10.315  0.00  0.00    +0.000 A 
ENDROOT
BRANCH   1   8
ATOM      7  C   UNL     1       9.505  -5.681  10.826  0.00  0.00    +0.000 C 
ATOM      8  O   UNL     1       8.284  -5.054  10.455  0.00  0.00    +0.000 OA
ENDBRANCH   1   8
BRANCH   6   9
ATOM      9  O   UNL     1       6.058  -3.625  10.810  0.00  0.00    +0.000 OA
ATOM     10  H   UNL     1       5.644  -2.964  11.397  0.00  0.00    +0.000 HD
ENDBRANCH   6   9
TORSDOF 2
ENDMDL
MODEL 8
REMARK VINA RESULT:    -3.877      8.812     10.203
REMARK INTER + INTRA:          -4.256
REMARK INTER:                  -4.213
REMARK INTRA:                  -0.043
REMARK UNBOUND:                -0.039
REMARK  Name = 
REMARK  3 active torsions:
REMARK  status: ('A' for Active; 'I' for Inactive)
REMARK    1  A    between atoms: C_1  and  O_2
REMARK    2  A    between atoms: O_2  and  C_3
REMARK    3  A    between atoms: C_8  and  O_9
REMARK                            x       y       z     vdW  Elec       q    Type
REMARK                         _______ _______ _______ _____ _____    ______ ____
ROOT
ATOM      1  C   UNL     1       9.093  -2.511   9.824  0.00  0.00    +0.000 A 
ATOM      2  C   UNL     1       8.666  -3.779  10.218  0.00  0.00    +0.000 A 
ATOM      3  C   UNL     1       7.333  -3.981  10.598  0.00  0.00    +0.000 A 
ATOM      4  C   UNL     1       6.425  -2.921  10.586  0.00  0.00    +0.000 A 
ATOM      5  C   UNL     1       6.844  -1.652  10.193  0.00  0.00    +0.000 A 
ATOM      6  C   UNL     1       8.167  -1.460   9.818  0.00  0.00    +0.000 A 
ENDROOT
BRANCH   1   8
ATOM      7  C   UNL     1      11.432  -2.812  10.110  0.00  0.00    +0.000 C 
ATOM      8  O   UNL     1      10.361  -2.169   9.429  0.00  0.00    +0.000 OA
ENDBRANCH   1   8
BRANCH   6   9
ATOM      9  O   UNL     1       8.556  -0.204   9.436  0.00  0.00    +0.000 OA
ATOM     10  H   UNL     1       9.486  -0.306   9.157  0.00  0.00    +0.000 HD
ENDBRANCH   6   9
TORSDOF 2
ENDMDL
MODEL 9
REMARK VINA RESULT:    -3.783      2.044      4.782
REMARK INTER + INTRA:          -4.154
REMARK INTER:                  -4.108
REMARK INTRA:                  -0.046
REMARK UNBOUND:                -0.039
REMARK  Name = 
REMARK  3 active torsions:
REMARK  status: ('A' for Active; 'I' for Inactive)
REMARK    1  A    between atoms: C_1  and  O_2
REMARK    2  A    between atoms: O_2  and  C_3
REMARK    3  A    between atoms: C_8  and  O_9
REMARK                            x       y       z     vdW  Elec       q    Type
REMARK                         _______ _______ _______ _____ _____    ______ ____
ROOT
ATOM      1  C   UNL     1      10.168   7.084   8.519  0.00  0.00    +0.000 A 
ATOM      2  C   UNL     1       9.426   8.264   8.483  0.00  0.00    +0.000 A 
ATOM      3  C   UNL     1       8.710   8.675   9.615  0.00  0.00    +0.000 A 
ATOM      4  C   UNL     1       8.733   7.911  10.783  0.00  0.00    +0.000 A 
ATOM      5  C   UNL     1       9.472   6.732  10.827  0.00  0.00    +0.000 A 
ATOM      6  C   UNL     1      10.179   6.331   9.700  0.00  0.00    +0.000 A 
ENDROOT
BRANCH   1   8
ATOM      7  C   UNL     1      10.303   6.558   6.206  0.00  0.00    +0.000 C 
ATOM      8  O   UNL     1      10.912   6.562   7.492  0.00  0.00    +0.000 OA
ENDBRANCH   1   8
BRANCH   6   9
ATOM      9  O   UNL     1      10.899   5.168   9.768  0.00  0.00    +0.000 OA
ATOM     10  H   UNL     1      11.637   5.368  10.374  0.00  0.00    +0.000 HD
ENDBRANCH   6   9
TORSDOF 2
ENDMDL
