MODEL 1
REMARK VINA RESULT:    -4.811      0.000      0.000
REMARK INTER + INTRA:          -5.273
REMARK INTER:                  -5.233
REMARK INTRA:                  -0.040
REMARK UNBOUND:                -0.040
REMARK  Name = 
REMARK  3 active torsions:
REMARK  status: ('A' for Active; 'I' for Inactive)
REMARK    1  A    between atoms: C_1  and  O_2
REMARK    2  A    between atoms: O_2  and  C_3
REMARK    3  A    between atoms: C_8  and  O_9
REMARK                            x       y       z     vdW  Elec       q    Type
REMARK                         _______ _______ _______ _____ _____    ______ ____
ROOT
ATOM      1  C   UNL     1      10.162   6.290   6.122  0.00  0.00    +0.000 A 
ATOM      2  C   UNL     1      10.363   7.429   5.344  0.00  0.00    +0.000 A 
ATOM      3  C   UNL     1      10.337   7.335   3.947  0.00  0.00    +0.000 A 
ATOM      4  C   UNL     1      10.112   6.106   3.324  0.00  0.00    +0.000 A 
ATOM      5  C   UNL     1       9.910   4.964   4.094  0.00  0.00    +0.000 A 
ATOM      6  C   UNL     1       9.938   5.066   5.479  0.00  0.00    +0.000 A 
ENDROOT
BRANCH   1   8
ATOM      7  C   UNL     1       9.842   7.439   8.177  0.00  0.00    +0.000 C 
ATOM      8  O   UNL     1      10.162   6.234   7.493  0.00  0.00    +0.000 OA
ENDBRANCH   1   8
BRANCH   6   9
ATOM      9  O   UNL     1       9.736   3.929   6.216  0.00  0.00    +0.000 OA
ATOM     10  H   UNL     1       9.952   3.197   5.607  0.00  0.00    +0.000 HD
ENDBRANCH   6   9
TORSDOF 2
ENDMDL
MODEL 2
REMARK VINA RESULT:    -4.689      8.737      9.936
REMARK INTER + INTRA:          -5.140
REMARK INTER:                  -5.141
REMARK INTRA:                   0.000
REMARK UNBOUND:                -0.040
REMARK  Name = 
REMARK  3 active torsions:
REMARK  status: ('A' for Active; 'I' for Inactive)
REMARK    1  A    between atoms: C_1  and  O_2
REMARK    2  A    between atoms: O_2  and  C_3
REMARK    3  A    between atoms: C_8  and  O_9
REMARK                            x       y       z     vdW  Elec       q    Type
REMARK                         _______ _______ _______ _____ _____    ______ ____
ROOT
ATOM      1  C   UNL     1       8.088  -2.008   9.833  0.00  0.00    +0.000 A 
ATOM      2  C   UNL     1       9.450  -2.302   9.864  0.00  0.00    +0.000 A 
ATOM      3  C   UNL     1       9.907  -3.548   9.415  0.00  0.00    +0.000 A 
ATOM      4  C   UNL     1       9.006  -4.502   8.937  0.00  0.00    +0.000 A 
ATOM      5  C   UNL     1       7.644  -4.214   8.902  0.00  0.00    +0.000 A 
ATOM      6  C   UNL     1       7.200  -2.976   9.349  0.00  0.00    +0.000 A 
ENDROOT
BRANCH   1   8
ATOM      7  C   UNL     1       7.488   0.227   9.294  0.00  0.00    +0.000 C 
ATOM      8  O   UNL     1       7.503  -0.835  10.239  0.00  0.00    +0.000 OA
ENDBRANCH   1   8
BRANCH   6   9
ATOM      9  O   UNL     1       5.856  -2.717   9.306  0.00  0.00    +0.000 OA
ATOM     10  H   UNL     1       5.599  -2.893   8.381  0.00  0.00    +0.000 HD
ENDBRANCH   6   9
TORSDOF 2
ENDMDL
MODEL 3
REMARK VINA RESULT:    -4.537      8.691      9.982
REMARK INTER + INTRA:          -4.974
REMARK INTER:                  -4.937
REMARK INTRA:                  -0.038
REMARK UNBOUND:                -0.040
REMARK  Name = 
REMARK  3 active torsions:
REMARK  status: ('A' for Active; 'I' for Inactive)
REMARK    1  A    between atoms: C_1  and  O_2
REMARK    2  A    between atoms: O_2  and  C_3
REMARK    3  A    between atoms: C_8  and  O_9
REMARK                            x       y       z     vdW  Elec       q    Type
REMARK                         _______ _______ _______ _____ _____    ______ ____
ROOT
ATOM      1  C   UNL     1       8.400  -2.089   9.371  0.00  0.00    +0.000 A 
ATOM      2  C   UNL     1       7.249  -2.875   9.379  0.00  0.00    +0.000 A 
ATOM      3  C   UNL     1       7.354  -4.271   9.338  0.00  0.00    +0.000 A 
ATOM      4  C   UNL     1       8.607  -4.885   9.286  0.00  0.00    +0.000 A 
ATOM      5  C   UNL     1       9.762  -4.106   9.278  0.00  0.00    +0.000 A 
ATOM      6  C   UNL     1       9.648  -2.722   9.320  0.00  0.00    +0.000 A 
ENDROOT
BRANCH   1   8
ATOM      7  C   UNL     1       7.199  -0.039   9.346  0.00  0.00    +0.000 C 
ATOM      8  O   UNL     1       8.447  -0.718   9.407  0.00  0.00    +0.000 OA
ENDBRANCH   1   8
BRANCH   6   9
ATOM      9  O   UNL     1      10.798  -1.978   9.310  0.00  0.00    +0.000 OA
ATOM     10  H   UNL     1      11.208  -2.165   8.444  0.00  0.00    +0.000 HD
ENDBRANCH   6   9
TORSDOF 2
ENDMDL
MODEL 4
REMARK VINA RESULT:    -4.187      1.479      2.397
REMARK INTER + INTRA:          -4.595
REMARK INTER:                  -4.554
REMARK INTRA:                  -0.041
REMARK UNBOUND:                -0.040
REMARK  Name = 
REMARK  3 active torsions:
REMARK  status: ('A' for Active; 'I' for Inactive)
REMARK    1  A    between atoms: C_1  and  O_2
REMARK    2  A    between atoms: O_2  and  C_3
REMARK    3  A    between atoms: C_8  and  O_9
REMARK                            x       y       z     vdW  Elec       q    Type
REMARK                         _______ _______ _______ _____ _____    ______ ____
ROOT
ATOM      1  C   UNL     1       9.825   6.634   5.846  0.00  0.00    +0.000 A 
ATOM      2  C   UNL     1       9.669   5.260   6.022  0.00  0.00    +0.000 A 
ATOM      3  C   UNL     1       9.860   4.390   4.941  0.00  0.00    +0.000 A 
ATOM      4  C   UNL     1      10.206   4.889   3.684  0.00  0.00    +0.000 A 
ATOM      5  C   UNL     1      10.364   6.260   3.500  0.00  0.00    +0.000 A 
ATOM      6  C   UNL     1      10.172   7.116   4.578  0.00  0.00    +0.000 A 
ENDROOT
BRANCH   1   8
ATOM      7  C   UNL     1       9.950   7.208   8.149  0.00  0.00    +0.000 C 
ATOM      8  O   UNL     1       9.670   7.598   6.810  0.00  0.00    +0.000 OA
ENDBRANCH   1   8
BRANCH   6   9
ATOM      9  O   UNL     1      10.333   8.460   4.373  0.00  0.00    +0.000 OA
ATOM     10  H   UNL     1      10.298   8.569   3.403  0.00  0.00    +0.000 HD
ENDBRANCH   6   9
TORSDOF 2
ENDMDL
MODEL 5
REMARK VINA RESULT:    -3.947      6.255      7.112
REMARK INTER + INTRA:          -4.333
REMARK INTER:                  -4.295
REMARK INTRA:                  -0.038
REMARK UNBOUND:                -0.040
REMARK  Name = 
REMARK  3 active torsions:
REMARK  status: ('A' for Active; 'I' for Inactive)
REMARK    1  A    between atoms: C_1  and  O_2
REMARK    2  A    between atoms: O_2  and  C_3
REMARK    3  A    between atoms: C_8  and  O_9
REMARK                            x       y       z     vdW  Elec       q    Type
REMARK                         _______ _______ _______ _____ _____    ______ ____
ROOT
ATOM      1  C   UNL     1       9.518  11.016  10.617  0.00  0.00    +0.000 A 
ATOM      2  C   UNL     1      10.653  10.235  10.407  0.00  0.00    +0.000 A 
ATOM      3  C   UNL     1      10.525   8.855  10.205  0.00  0.00    +0.000 A 
ATOM      4  C   UNL     1       9.266   8.252  10.214  0.00  0.00    +0.000 A 
ATOM      5  C   UNL     1       8.127   9.026  10.422  0.00  0.00    +0.000 A 
ATOM      6  C   UNL     1       8.263  10.394  10.621  0.00  0.00    +0.000 A 
ENDROOT
BRANCH   1   8
ATOM      7  C   UNL     1      10.666  13.091  10.465  0.00  0.00    +0.000 C 
ATOM      8  O   UNL     1       9.493  12.372  10.827  0.00  0.00    +0.000 OA
ENDBRANCH   1   8
BRANCH   6   9
ATOM      9  O   UNL     1       7.129  11.134  10.824  0.00  0.00    +0.000 OA
ATOM     10  H   UNL     1       6.423  10.637  10.367  0.00  0.00    +0.000 HD
ENDBRANCH   6   9
TORSDOF 2
ENDMDL
MODEL 6
REMARK VINA RESULT:    -3.860      9.607     10.896
REMARK INTER + INTRA:          -4.239
REMARK INTER:                  -4.201
REMARK INTRA:                  -0.038
REMARK UNBOUND:                -0.040
REMARK  Name = 
REMARK  3 active torsions:
REMARK  status: ('A' for Active; 'I' for Inactive)
REMARK    1  A    between atoms: C_1  and  O_2
REMARK    2  A    between atoms: O_2  and  C_3
REMARK    3  A    between atoms: C_8  and  O_9
REMARK                            x       y       z     vdW  Elec       q    Type
REMARK                         _______ _______ _______ _____ _____    ______ ____
ROOT
ATOM      1  C   UNL     1       8.572  -3.837  10.319  0.00  0.00    +0.000 A 
ATOM      2  C   UNL     1       9.657  -3.126   9.810  0.00  0.00    +0.000 A 
ATOM      3  C   UNL     1       9.475  -1.826   9.322  0.00  0.00    +0.000 A 
ATOM      4  C   UNL     1       8.210  -1.234   9.340  0.00  0.00    +0.000 A 
ATOM      5  C   UNL     1       7.121  -1.938   9.848  0.00  0.00    +0.000 A 
ATOM      6  C   UNL     1       7.311  -3.227  10.330  0.00  0.00    +0.000 A 
ENDROOT
BRANCH   1   8
ATOM      7  C   UNL     1       9.837  -5.810  10.712  0.00  0.00    +0.000 C 
ATOM      8  O   UNL     1       8.603  -5.111  10.827  0.00  0.00    +0.000 OA
ENDBRANCH   1   8
BRANCH   6   9
ATOM      9  O   UNL     1       6.225  -3.899  10.824  0.00  0.00    +0.000 OA
ATOM     10  H   UNL     1       6.350  -3.894  11.792  0.00  0.00    +0.000 HD
ENDBRANCH   6   9
TORSDOF 2
ENDMDL
MODEL 7
REMARK VINA RESULT:    -3.798      2.012      4.767
REMARK INTER + INTRA:          -4.171
REMARK INTER:                  -4.124
REMARK INTRA:                  -0.047
REMARK UNBOUND:                -0.040
REMARK  Name = 
REMARK  3 active torsions:
REMARK  status: ('A' for Active; 'I' for Inactive)
REMARK    1  A    between atoms: C_1  and  O_2
REMARK    2  A    between atoms: O_2  and  C_3
REMARK    3  A    between atoms: C_8  and  O_9
REMARK                            x       y       z     vdW  Elec       q    Type
REMARK                         _______ _______ _______ _____ _____    ______ ____
ROOT
ATOM      1  C   UNL     1      10.186   7.108   8.489  0.00  0.00    +0.000 A 
ATOM      2  C   UNL     1       9.391   8.253   8.456  0.00  0.00    +0.000 A 
ATOM      3  C   UNL     1       8.696   8.655   9.604  0.00  0.00    +0.000 A 
ATOM      4  C   UNL     1       8.791   7.916  10.784  0.00  0.00    +0.000 A 
ATOM      5  C   UNL     1       9.583   6.771  10.825  0.00  0.00    +0.000 A 
ATOM      6  C   UNL     1      10.269   6.379   9.683  0.00  0.00    +0.000 A 
ENDROOT
BRANCH   1   8
ATOM      7  C   UNL     1      10.259   6.518   6.188  0.00  0.00    +0.000 C 
ATOM      8  O   UNL     1      10.918   6.598   7.447  0.00  0.00    +0.000 OA
ENDBRANCH   1   8
BRANCH   6   9
ATOM      9  O   UNL     1      11.041   5.250   9.747  0.00  0.00    +0.000 OA
ATOM     10  H   UNL     1      10.424   4.517   9.562  0.00  0.00    +0.000 HD
ENDBRANCH   6   9
TORSDOF 2
ENDMDL
MODEL 8
REMARK VINA RESULT:    -3.789      9.103     10.554
REMARK INTER + INTRA:          -4.161
REMARK INTER:                  -4.110
REMARK INTRA:                  -0.051
REMARK UNBOUND:                -0.040
REMARK  Name = 
REMARK  3 active torsions:
REMARK  status: ('A' for Active; 'I' for Inactive)
REMARK    1  A    between atoms: C_1  and  O_2
REMARK    2  A    between atoms: O_2  and  C_3
REMARK    3  A    between atoms: C_8  and  O_9
REMARK                            x       y       z     vdW  Elec       q    Type
REMARK                         _______ _______ _______ _____ _____    ______ ____
ROOT
ATOM      1  C   UNL     1       7.973  -3.672   9.476  0.00  0.00    +0.000 A 
ATOM      2  C   UNL     1       6.933  -2.800   9.794  0.00  0.00    +0.000 A 
ATOM      3  C   UNL     1       7.179  -1.425   9.897  0.00  0.00    +0.000 A 
ATOM      4  C   UNL     1       8.463  -0.918   9.685  0.00  0.00    +0.000 A 
ATOM      5  C   UNL     1       9.507  -1.783   9.366  0.00  0.00    +0.000 A 
ATOM      6  C   UNL     1       9.254  -3.145   9.266  0.00  0.00    +0.000 A 
ENDROOT
BRANCH   1   8
ATOM      7  C   UNL     1       7.176  -5.512   8.202  0.00  0.00    +0.000 C 
ATOM      8  O   UNL     1       7.878  -5.034   9.343  0.00  0.00    +0.000 OA
ENDBRANCH   1   8
BRANCH   6   9
ATOM      9  O   UNL     1      10.296  -3.975   8.952  0.00  0.00    +0.000 OA
ATOM     10  H   UNL     1      11.061  -3.379   8.834  0.00  0.00    +0.000 HD
ENDBRANCH   6   9
TORSDOF 2
ENDMDL
MODEL 9
REMARK VINA RESULT:    -3.710      3.888      5.106
REMARK INTER + INTRA:          -4.075
REMARK INTER:                  -4.030
REMARK INTRA:                  -0.045
REMARK UNBOUND:                -0.040
REMARK  Name = 
REMARK  3 active torsions:
REMARK  status: ('A' for Active; 'I' for Inactive)
REMARK    1  A    between atoms: C_1  and  O_2
REMARK    2  A    between atoms: O_2  and  C_3
REMARK    3  A    between atoms: C_8  and  O_9
REMARK                            x       y       z     vdW  Elec       q    Type
REMARK                         _______ _______ _______ _____ _____    ______ ____
ROOT
ATOM      1  C   UNL     1      10.901   7.586   9.584  0.00  0.00    +0.000 A 
ATOM      2  C   UNL     1      11.202   8.574  10.520  0.00  0.00    +0.000 A 
ATOM      3  C   UNL     1      10.418   9.732  10.591  0.00  0.00    +0.000 A 
ATOM      4  C   UNL     1       9.334   9.907   9.729  0.00  0.00    +0.000 A 
ATOM      5  C   UNL     1       9.027   8.924   8.791  0.00  0.00    +0.000 A 
ATOM      6  C   UNL     1       9.810   7.779   8.728  0.00  0.00    +0.000 A 
ENDROOT
BRANCH   1   8
ATOM      7  C   UNL     1      12.999   6.477   9.453  0.00  0.00    +0.000 C 
ATOM      8  O   UNL     1      11.579   6.407   9.403  0.00  0.00    +0.000 OA
ENDBRANCH   1   8
BRANCH   6   9
ATOM      9  O   UNL     1       9.489   6.827   7.798  0.00  0.00    +0.000 OA
ATOM     10  H   UNL     1      10.206   6.167   7.860  0.00  0.00    +0.000 HD
ENDBRANCH   6   9
TORSDOF 2
ENDMDL
