MODEL 1
REMARK VINA RESULT:    -5.644      0.000      0.000
REMARK INTER + INTRA:          -8.261
REMARK INTER:                  -7.624
REMARK INTRA:                  -0.637
REMARK UNBOUND:                -0.637
REMARK  Name = 
REMARK  10 active torsions:
REMARK  status: ('A' for Active; 'I' for Inactive)
REMARK    1  A    between atoms: C_1  and  C_2
REMARK    2  A    between atoms: C_5  and  N_8
REMARK    3  A    between atoms: N_8  and  C_9
REMARK    4  A    between atoms: N_8  and  C_13
REMARK    5  A    between atoms: C_9  and  C_10
REMARK    6  A    between atoms: C_10  and  C_11
REMARK    7  A    between atoms: C_10  and  O_12
REMARK    8  A    between atoms: C_13  and  C_14
REMARK    9  A    between atoms: C_14  and  C_15
REMARK   10  A    between atoms: C_14  and  O_16
REMARK                            x       y       z     vdW  Elec       q    Type
REMARK                         _______ _______ _______ _____ _____    ______ ____
ROOT
ATOM      1  N   UNL     1     -11.111  21.334  -1.031  0.00  0.00    +0.000 N 
ENDROOT
BRANCH   1   6
ATOM      2  C   UNL     1      -9.310  18.490   3.659  0.00  0.00    +0.000 C 
ATOM      3  C   UNL     1      -9.757  19.221   2.430  0.00  0.00    +0.000 A 
ATOM      4  C   UNL     1      -9.434  20.560   2.238  0.00  0.00    +0.000 A 
ATOM      5  C   UNL     1      -9.881  21.248   1.099  0.00  0.00    +0.000 A 
ATOM      6  C   UNL     1     -10.685  20.647   0.113  0.00  0.00    +0.000 A 
ATOM      7  C   UNL     1     -10.989  19.292   0.338  0.00  0.00    +0.000 A 
ATOM      8  C   UNL     1     -10.547  18.591   1.473  0.00  0.00    +0.000 A 
ENDBRANCH   1   6
BRANCH   1   9
ATOM      9  C   UNL     1     -12.034  22.487  -0.905  0.00  0.00    +0.000 C 
BRANCH   9  10
ATOM     10  C   UNL     1     -13.414  22.091  -0.325  0.00  0.00    +0.000 C 
ATOM     11  C   UNL     1     -13.962  23.191   0.578  0.00  0.00    +0.000 C 
BRANCH  10  12
ATOM     12  O   UNL     1     -14.366  21.861  -1.373  0.00  0.00    +0.000 OA
ATOM     13  H   UNL     1     -15.242  22.126  -1.047  0.00  0.00    +0.000 HD
ENDBRANCH  10  12
ENDBRANCH   9  10
ENDBRANCH   1   9
BRANCH   1  14
ATOM     14  C   UNL     1     -11.105  20.682  -2.366  0.00  0.00    +0.000 C 
BRANCH  14  15
ATOM     15  C   UNL     1     -11.749  21.574  -3.454  0.00  0.00    +0.000 C 
ATOM     16  C   UNL     1     -10.842  21.801  -4.658  0.00  0.00    +0.000 C 
BRANCH  15  17
ATOM     17  O   UNL     1     -12.979  21.027  -3.925  0.00  0.00    +0.000 OA
ATOM     18  H   UNL     1     -13.153  21.486  -4.772  0.00  0.00    +0.000 HD
ENDBRANCH  15  17
ENDBRANCH  14  15
ENDBRANCH   1  14
TORSDOF 7
ENDMDL
MODEL 2
REMARK VINA RESULT:    -5.633      0.047      1.191
REMARK INTER + INTRA:          -8.245
REMARK INTER:                  -7.616
REMARK INTRA:                  -0.629
REMARK UNBOUND:                -0.637
REMARK  Name = 
REMARK  10 active torsions:
REMARK  status: ('A' for Active; 'I' for Inactive)
REMARK    1  A    between atoms: C_1  and  C_2
REMARK    2  A    between atoms: C_5  and  N_8
REMARK    3  A    between atoms: N_8  and  C_9
REMARK    4  A    between atoms: N_8  and  C_13
REMARK    5  A    between atoms: C_9  and  C_10
REMARK    6  A    between atoms: C_10  and  C_11
REMARK    7  A    between atoms: C_10  and  O_12
REMARK    8  A    between atoms: C_13  and  C_14
REMARK    9  A    between atoms: C_14  and  C_15
REMARK   10  A    between atoms: C_14  and  O_16
REMARK                            x       y       z     vdW  Elec       q    Type
REMARK                         _______ _______ _______ _____ _____    ______ ____
ROOT
ATOM      1  N   UNL     1     -11.066  21.313  -1.041  0.00  0.00    +0.000 N 
ENDROOT
BRANCH   1   6
ATOM      2  C   UNL     1      -9.282  18.471   3.656  0.00  0.00    +0.000 C 
ATOM      3  C   UNL     1      -9.766  19.216   2.450  0.00  0.00    +0.000 A 
ATOM      4  C   UNL     1     -10.512  18.574   1.467  0.00  0.00    +0.000 A 
ATOM      5  C   UNL     1     -10.937  19.269   0.323  0.00  0.00    +0.000 A 
ATOM      6  C   UNL     1     -10.622  20.621   0.092  0.00  0.00    +0.000 A 
ATOM      7  C   UNL     1      -9.869  21.238   1.108  0.00  0.00    +0.000 A 
ATOM      8  C   UNL     1      -9.439  20.555   2.257  0.00  0.00    +0.000 A 
ENDBRANCH   1   6
BRANCH   1   9
ATOM      9  C   UNL     1     -11.986  22.467  -0.895  0.00  0.00    +0.000 C 
BRANCH   9  10
ATOM     10  C   UNL     1     -13.357  22.070  -0.296  0.00  0.00    +0.000 C 
ATOM     11  C   UNL     1     -13.914  23.187   0.579  0.00  0.00    +0.000 C 
BRANCH  10  12
ATOM     12  O   UNL     1     -14.312  21.799  -1.331  0.00  0.00    +0.000 OA
ATOM     13  H   UNL     1     -13.823  21.578  -2.141  0.00  0.00    +0.000 HD
ENDBRANCH  10  12
ENDBRANCH   9  10
ENDBRANCH   1   9
BRANCH   1  14
ATOM     14  C   UNL     1     -11.083  20.667  -2.379  0.00  0.00    +0.000 C 
BRANCH  14  15
ATOM     15  C   UNL     1     -11.751  21.561  -3.451  0.00  0.00    +0.000 C 
ATOM     16  C   UNL     1     -10.865  21.804  -4.667  0.00  0.00    +0.000 C 
BRANCH  15  17
ATOM     17  O   UNL     1     -12.984  21.006  -3.907  0.00  0.00    +0.000 OA
ATOM     18  H   UNL     1     -13.641  21.255  -3.226  0.00  0.00    +0.000 HD
ENDBRANCH  15  17
ENDBRANCH  14  15
ENDBRANCH   1  14
TORSDOF 7
ENDMDL
MODEL 3
REMARK VINA RESULT:    -5.631      0.238      3.149
REMARK INTER + INTRA:          -8.242
REMARK INTER:                  -7.630
REMARK INTRA:                  -0.612
REMARK UNBOUND:                -0.637
REMARK  Name = 
REMARK  10 active torsions:
REMARK  status: ('A' for Active; 'I' for Inactive)
REMARK    1  A    between atoms: C_1  and  C_2
REMARK    2  A    between atoms: C_5  and  N_8
REMARK    3  A    between atoms: N_8  and  C_9
REMARK    4  A    between atoms: N_8  and  C_13
REMARK    5  A    between atoms: C_9  and  C_10
REMARK    6  A    between atoms: C_10  and  C_11
REMARK    7  A    between atoms: C_10  and  O_12
REMARK    8  A    between atoms: C_13  and  C_14
REMARK    9  A    between atoms: C_14  and  C_15
REMARK   10  A    between atoms: C_14  and  O_16
REMARK                            x       y       z     vdW  Elec       q    Type
REMARK                         _______ _______ _______ _____ _____    ______ ____
ROOT
ATOM      1  N   UNL     1     -11.414  21.209  -0.961  0.00  0.00    +0.000 N 
ENDROOT
BRANCH   1   6
ATOM      2  C   UNL     1      -9.218  18.515   3.648  0.00  0.00    +0.000 C 
ATOM      3  C   UNL     1      -9.807  19.222   2.466  0.00  0.00    +0.000 A 
ATOM      4  C   UNL     1     -10.666  18.562   1.594  0.00  0.00    +0.000 A 
ATOM      5  C   UNL     1     -11.191  19.221   0.471  0.00  0.00    +0.000 A 
ATOM      6  C   UNL     1     -10.871  20.552   0.150  0.00  0.00    +0.000 A 
ATOM      7  C   UNL     1     -10.002  21.189   1.055  0.00  0.00    +0.000 A 
ATOM      8  C   UNL     1      -9.471  20.543   2.183  0.00  0.00    +0.000 A 
ENDBRANCH   1   6
BRANCH   1   9
ATOM      9  C   UNL     1     -10.834  20.994  -2.309  0.00  0.00    +0.000 C 
BRANCH   9  10
ATOM     10  C   UNL     1     -11.655  21.674  -3.431  0.00  0.00    +0.000 C 
ATOM     11  C   UNL     1     -10.793  21.923  -4.663  0.00  0.00    +0.000 C 
BRANCH  10  12
ATOM     12  O   UNL     1     -12.766  20.857  -3.824  0.00  0.00    +0.000 OA
ATOM     13  H   UNL     1     -13.584  21.317  -3.571  0.00  0.00    +0.000 HD
ENDBRANCH  10  12
ENDBRANCH   9  10
ENDBRANCH   1   9
BRANCH   1  14
ATOM     14  C   UNL     1     -12.187  22.469  -0.808  0.00  0.00    +0.000 C 
BRANCH  14  15
ATOM     15  C   UNL     1     -13.656  22.206  -0.399  0.00  0.00    +0.000 C 
ATOM     16  C   UNL     1     -14.278  23.362   0.376  0.00  0.00    +0.000 C 
BRANCH  15  17
ATOM     17  O   UNL     1     -14.480  21.942  -1.534  0.00  0.00    +0.000 OA
ATOM     18  H   UNL     1     -13.887  22.043  -2.306  0.00  0.00    +0.000 HD
ENDBRANCH  15  17
ENDBRANCH  14  15
ENDBRANCH   1  14
TORSDOF 7
ENDMDL
MODEL 4
REMARK VINA RESULT:    -5.495      1.068      3.184
REMARK INTER + INTRA:          -8.059
REMARK INTER:                  -7.355
REMARK INTRA:                  -0.704
REMARK UNBOUND:                -0.637
REMARK  Name = 
REMARK  10 active torsions:
REMARK  status: ('A' for Active; 'I' for Inactive)
REMARK    1  A    between atoms: C_1  and  C_2
REMARK    2  A    between atoms: C_5  and  N_8
REMARK    3  A    between atoms: N_8  and  C_9
REMARK    4  A    between atoms: N_8  and  C_13
REMARK    5  A    between atoms: C_9  and  C_10
REMARK    6  A    between atoms: C_10  and  C_11
REMARK    7  A    between atoms: C_10  and  O_12
REMARK    8  A    between atoms: C_13  and  C_14
REMARK    9  A    between atoms: C_14  and  C_15
REMARK   10  A    between atoms: C_14  and  O_16
REMARK                            x       y       z     vdW  Elec       q    Type
REMARK                         _______ _______ _______ _____ _____    ______ ____
ROOT
ATOM      1  N   UNL     1     -11.617  21.731  -1.772  0.00  0.00    +0.000 N 
ENDROOT
BRANCH   1   6
ATOM      2  C   UNL     1      -8.957  18.319   2.051  0.00  0.00    +0.000 C 
ATOM      3  C   UNL     1      -9.625  19.214   1.053  0.00  0.00    +0.000 A 
ATOM      4  C   UNL     1     -10.122  20.458   1.429  0.00  0.00    +0.000 A 
ATOM      5  C   UNL     1     -10.774  21.280   0.496  0.00  0.00    +0.000 A 
ATOM      6  C   UNL     1     -10.983  20.898  -0.842  0.00  0.00    +0.000 A 
ATOM      7  C   UNL     1     -10.466  19.636  -1.187  0.00  0.00    +0.000 A 
ATOM      8  C   UNL     1      -9.810  18.804  -0.264  0.00  0.00    +0.000 A 
ENDBRANCH   1   6
BRANCH   1   9
ATOM      9  C   UNL     1     -11.083  21.849  -3.150  0.00  0.00    +0.000 C 
BRANCH   9  10
ATOM     10  C   UNL     1     -12.179  21.694  -4.233  0.00  0.00    +0.000 C 
ATOM     11  C   UNL     1     -11.562  21.402  -5.595  0.00  0.00    +0.000 C 
BRANCH  10  12
ATOM     12  O   UNL     1     -13.073  20.621  -3.911  0.00  0.00    +0.000 OA
ATOM     13  H   UNL     1     -13.626  20.445  -4.690  0.00  0.00    +0.000 HD
ENDBRANCH  10  12
ENDBRANCH   9  10
ENDBRANCH   1   9
BRANCH   1  14
ATOM     14  C   UNL     1     -12.465  22.869  -1.332  0.00  0.00    +0.000 C 
BRANCH  14  15
ATOM     15  C   UNL     1     -13.895  22.417  -0.950  0.00  0.00    +0.000 C 
ATOM     16  C   UNL     1     -14.508  23.251   0.169  0.00  0.00    +0.000 C 
BRANCH  15  17
ATOM     17  O   UNL     1     -14.779  22.462  -2.069  0.00  0.00    +0.000 OA
ATOM     18  H   UNL     1     -14.202  22.639  -2.839  0.00  0.00    +0.000 HD
ENDBRANCH  15  17
ENDBRANCH  14  15
ENDBRANCH   1  14
TORSDOF 7
ENDMDL
MODEL 5
REMARK VINA RESULT:    -5.201      2.135      5.487
REMARK INTER + INTRA:          -7.661
REMARK INTER:                  -6.902
REMARK INTRA:                  -0.759
REMARK UNBOUND:                -0.637
REMARK  Name = 
REMARK  10 active torsions:
REMARK  status: ('A' for Active; 'I' for Inactive)
REMARK    1  A    between atoms: C_1  and  C_2
REMARK    2  A    between atoms: C_5  and  N_8
REMARK    3  A    between atoms: N_8  and  C_9
REMARK    4  A    between atoms: N_8  and  C_13
REMARK    5  A    between atoms: C_9  and  C_10
REMARK    6  A    between atoms: C_10  and  C_11
REMARK    7  A    between atoms: C_10  and  O_12
REMARK    8  A    between atoms: C_13  and  C_14
REMARK    9  A    between atoms: C_14  and  C_15
REMARK   10  A    between atoms: C_14  and  O_16
REMARK                            x       y       z     vdW  Elec       q    Type
REMARK                         _______ _______ _______ _____ _____    ______ ____
ROOT
ATOM      1  N   UNL     1     -11.771  21.847  -1.944  0.00  0.00    +0.000 N 
ENDROOT
BRANCH   1   6
ATOM      2  C   UNL     1     -12.084  20.747  -7.603  0.00  0.00    +0.000 C 
ATOM      3  C   UNL     1     -12.010  21.056  -6.139  0.00  0.00    +0.000 A 
ATOM      4  C   UNL     1     -10.825  21.497  -5.561  0.00  0.00    +0.000 A 
ATOM      5  C   UNL     1     -10.753  21.757  -4.182  0.00  0.00    +0.000 A 
ATOM      6  C   UNL     1     -11.844  21.568  -3.315  0.00  0.00    +0.000 A 
ATOM      7  C   UNL     1     -13.027  21.123  -3.934  0.00  0.00    +0.000 A 
ATOM      8  C   UNL     1     -13.112  20.862  -5.311  0.00  0.00    +0.000 A 
ENDBRANCH   1   6
BRANCH   1   9
ATOM      9  C   UNL     1     -12.348  23.104  -1.410  0.00  0.00    +0.000 C 
BRANCH   9  10
ATOM     10  C   UNL     1     -13.719  22.891  -0.723  0.00  0.00    +0.000 C 
ATOM     11  C   UNL     1     -14.856  23.374  -1.616  0.00  0.00    +0.000 C 
BRANCH  10  12
ATOM     12  O   UNL     1     -13.940  21.504  -0.434  0.00  0.00    +0.000 OA
ATOM     13  H   UNL     1     -14.720  21.436   0.141  0.00  0.00    +0.000 HD
ENDBRANCH  10  12
ENDBRANCH   9  10
ENDBRANCH   1   9
BRANCH   1  14
ATOM     14  C   UNL     1     -10.730  21.223  -1.087  0.00  0.00    +0.000 C 
BRANCH  14  15
ATOM     15  C   UNL     1     -11.007  19.722  -0.831  0.00  0.00    +0.000 C 
ATOM     16  C   UNL     1      -9.743  18.921  -0.541  0.00  0.00    +0.000 C 
BRANCH  15  17
ATOM     17  O   UNL     1     -11.911  19.530   0.256  0.00  0.00    +0.000 OA
ATOM     18  H   UNL     1     -11.438  19.872   1.042  0.00  0.00    +0.000 HD
ENDBRANCH  15  17
ENDBRANCH  14  15
ENDBRANCH   1  14
TORSDOF 7
ENDMDL
MODEL 6
REMARK VINA RESULT:    -5.066      1.935      4.573
REMARK INTER + INTRA:          -7.479
REMARK INTER:                  -7.162
REMARK INTRA:                  -0.318
REMARK UNBOUND:                -0.637
REMARK  Name = 
REMARK  10 active torsions:
REMARK  status: ('A' for Active; 'I' for Inactive)
REMARK    1  A    between atoms: C_1  and  C_2
REMARK    2  A    between atoms: C_5  and  N_8
REMARK    3  A    between atoms: N_8  and  C_9
REMARK    4  A    between atoms: N_8  and  C_13
REMARK    5  A    between atoms: C_9  and  C_10
REMARK    6  A    between atoms: C_10  and  C_11
REMARK    7  A    between atoms: C_10  and  O_12
REMARK    8  A    between atoms: C_13  and  C_14
REMARK    9  A    between atoms: C_14  and  C_15
REMARK   10  A    between atoms: C_14  and  O_16
REMARK                            x       y       z     vdW  Elec       q    Type
REMARK                         _______ _______ _______ _____ _____    ______ ____
ROOT
ATOM      1  N   UNL     1     -11.521  20.781  -0.557  0.00  0.00    +0.000 N 
ENDROOT
BRANCH   1   6
ATOM      2  C   UNL     1     -14.343  25.510   1.177  0.00  0.00    +0.000 C 
ATOM      3  C   UNL     1     -13.611  24.292   0.703  0.00  0.00    +0.000 A 
ATOM      4  C   UNL     1     -14.301  23.143   0.332  0.00  0.00    +0.000 A 
ATOM      5  C   UNL     1     -13.609  21.994  -0.083  0.00  0.00    +0.000 A 
ATOM      6  C   UNL     1     -12.205  21.925  -0.124  0.00  0.00    +0.000 A 
ATOM      7  C   UNL     1     -11.539  23.104   0.256  0.00  0.00    +0.000 A 
ATOM      8  C   UNL     1     -12.220  24.261   0.671  0.00  0.00    +0.000 A 
ENDBRANCH   1   6
BRANCH   1   9
ATOM      9  C   UNL     1     -11.045  19.782   0.429  0.00  0.00    +0.000 C 
BRANCH   9  10
ATOM     10  C   UNL     1      -9.765  20.236   1.172  0.00  0.00    +0.000 C 
ATOM     11  C   UNL     1      -9.814  19.830   2.641  0.00  0.00    +0.000 C 
BRANCH  10  12
ATOM     12  O   UNL     1      -8.594  19.648   0.588  0.00  0.00    +0.000 OA
ATOM     13  H   UNL     1      -7.821  20.158   0.882  0.00  0.00    +0.000 HD
ENDBRANCH  10  12
ENDBRANCH   9  10
ENDBRANCH   1   9
BRANCH   1  14
ATOM     14  C   UNL     1     -10.812  20.758  -1.863  0.00  0.00    +0.000 C 
BRANCH  14  15
ATOM     15  C   UNL     1     -11.559  21.569  -2.948  0.00  0.00    +0.000 C 
ATOM     16  C   UNL     1     -10.655  22.019  -4.089  0.00  0.00    +0.000 C 
BRANCH  15  17
ATOM     17  O   UNL     1     -12.642  20.828  -3.508  0.00  0.00    +0.000 OA
ATOM     18  H   UNL     1     -12.341  20.578  -4.405  0.00  0.00    +0.000 HD
ENDBRANCH  15  17
ENDBRANCH  14  15
ENDBRANCH   1  14
TORSDOF 7
ENDMDL
MODEL 7
REMARK VINA RESULT:    -5.003      2.034      3.953
REMARK INTER + INTRA:          -7.395
REMARK INTER:                  -6.926
REMARK INTRA:                  -0.469
REMARK UNBOUND:                -0.637
REMARK  Name = 
REMARK  10 active torsions:
REMARK  status: ('A' for Active; 'I' for Inactive)
REMARK    1  A    between atoms: C_1  and  C_2
REMARK    2  A    between atoms: C_5  and  N_8
REMARK    3  A    between atoms: N_8  and  C_9
REMARK    4  A    between atoms: N_8  and  C_13
REMARK    5  A    between atoms: C_9  and  C_10
REMARK    6  A    between atoms: C_10  and  C_11
REMARK    7  A    between atoms: C_10  and  O_12
REMARK    8  A    between atoms: C_13  and  C_14
REMARK    9  A    between atoms: C_14  and  C_15
REMARK   10  A    between atoms: C_14  and  O_16
REMARK                            x       y       z     vdW  Elec       q    Type
REMARK                         _______ _______ _______ _____ _____    ______ ____
ROOT
ATOM      1  N   UNL     1     -12.166  22.352  -3.249  0.00  0.00    +0.000 N 
ENDROOT
BRANCH   1   6
ATOM      2  C   UNL     1     -10.222  20.202   1.744  0.00  0.00    +0.000 C 
ATOM      3  C   UNL     1     -10.748  20.749   0.453  0.00  0.00    +0.000 A 
ATOM      4  C   UNL     1     -10.557  20.064  -0.743  0.00  0.00    +0.000 A 
ATOM      5  C   UNL     1     -11.027  20.596  -1.955  0.00  0.00    +0.000 A 
ATOM      6  C   UNL     1     -11.683  21.837  -2.039  0.00  0.00    +0.000 A 
ATOM      7  C   UNL     1     -11.861  22.500  -0.811  0.00  0.00    +0.000 A 
ATOM      8  C   UNL     1     -11.398  21.979   0.409  0.00  0.00    +0.000 A 
ENDBRANCH   1   6
BRANCH   1   9
ATOM      9  C   UNL     1     -11.294  23.201  -4.096  0.00  0.00    +0.000 C 
BRANCH   9  10
ATOM     10  C   UNL     1     -10.061  22.439  -4.641  0.00  0.00    +0.000 C 
ATOM     11  C   UNL     1     -10.427  21.620  -5.872  0.00  0.00    +0.000 C 
BRANCH  10  12
ATOM     12  O   UNL     1      -9.014  23.348  -5.007  0.00  0.00    +0.000 OA
ATOM     13  H   UNL     1      -8.163  22.915  -4.829  0.00  0.00    +0.000 HD
ENDBRANCH  10  12
ENDBRANCH   9  10
ENDBRANCH   1   9
BRANCH   1  14
ATOM     14  C   UNL     1     -13.622  22.521  -3.486  0.00  0.00    +0.000 C 
BRANCH  14  15
ATOM     15  C   UNL     1     -14.161  21.529  -4.545  0.00  0.00    +0.000 C 
ATOM     16  C   UNL     1     -14.218  22.122  -5.948  0.00  0.00    +0.000 C 
BRANCH  15  17
ATOM     17  O   UNL     1     -13.375  20.339  -4.600  0.00  0.00    +0.000 OA
ATOM     18  H   UNL     1     -13.874  19.733  -5.185  0.00  0.00    +0.000 HD
ENDBRANCH  15  17
ENDBRANCH  14  15
ENDBRANCH   1  14
TORSDOF 7
ENDMDL
MODEL 8
REMARK VINA RESULT:    -4.999      3.408      5.400
REMARK INTER + INTRA:          -7.389
REMARK INTER:                  -6.598
REMARK INTRA:                  -0.791
REMARK UNBOUND:                -0.637
REMARK  Name = 
REMARK  10 active torsions:
REMARK  status: ('A' for Active; 'I' for Inactive)
REMARK    1  A    between atoms: C_1  and  C_2
REMARK    2  A    between atoms: C_5  and  N_8
REMARK    3  A    between atoms: N_8  and  C_9
REMARK    4  A    between atoms: N_8  and  C_13
REMARK    5  A    between atoms: C_9  and  C_10
REMARK    6  A    between atoms: C_10  and  C_11
REMARK    7  A    between atoms: C_10  and  O_12
REMARK    8  A    between atoms: C_13  and  C_14
REMARK    9  A    between atoms: C_14  and  C_15
REMARK   10  A    between atoms: C_14  and  O_16
REMARK                            x       y       z     vdW  Elec       q    Type
REMARK                         _______ _______ _______ _____ _____    ______ ____
ROOT
ATOM      1  N   UNL     1     -12.066  22.381  -5.507  0.00  0.00    +0.000 N 
ENDROOT
BRANCH   1   6
ATOM      2  C   UNL     1     -11.887  21.623   0.213  0.00  0.00    +0.000 C 
ATOM      3  C   UNL     1     -11.951  21.802  -1.273  0.00  0.00    +0.000 A 
ATOM      4  C   UNL     1     -11.104  21.089  -2.115  0.00  0.00    +0.000 A 
ATOM      5  C   UNL     1     -11.148  21.283  -3.505  0.00  0.00    +0.000 A 
ATOM      6  C   UNL     1     -12.014  22.207  -4.118  0.00  0.00    +0.000 A 
ATOM      7  C   UNL     1     -12.857  22.908  -3.236  0.00  0.00    +0.000 A 
ATOM      8  C   UNL     1     -12.825  22.722  -1.844  0.00  0.00    +0.000 A 
ENDBRANCH   1   6
BRANCH   1   9
ATOM      9  C   UNL     1     -11.516  23.613  -6.122  0.00  0.00    +0.000 C 
BRANCH   9  10
ATOM     10  C   UNL     1      -9.993  23.525  -6.384  0.00  0.00    +0.000 C 
ATOM     11  C   UNL     1      -9.204  24.054  -5.192  0.00  0.00    +0.000 C 
BRANCH  10  12
ATOM     12  O   UNL     1      -9.588  22.169  -6.618  0.00  0.00    +0.000 OA
ATOM     13  H   UNL     1      -8.639  22.170  -6.828  0.00  0.00    +0.000 HD
ENDBRANCH  10  12
ENDBRANCH   9  10
ENDBRANCH   1   9
BRANCH   1  14
ATOM     14  C   UNL     1     -13.068  21.663  -6.335  0.00  0.00    +0.000 C 
BRANCH  14  15
ATOM     15  C   UNL     1     -12.483  20.386  -6.985  0.00  0.00    +0.000 C 
ATOM     16  C   UNL     1     -13.545  19.352  -7.338  0.00  0.00    +0.000 C 
BRANCH  15  17
ATOM     17  O   UNL     1     -11.748  20.687  -8.170  0.00  0.00    +0.000 OA
ATOM     18  H   UNL     1     -12.103  21.546  -8.476  0.00  0.00    +0.000 HD
ENDBRANCH  15  17
ENDBRANCH  14  15
ENDBRANCH   1  14
TORSDOF 7
ENDMDL
MODEL 9
REMARK VINA RESULT:    -4.990      1.953      5.078
REMARK INTER + INTRA:          -7.377
REMARK INTER:                  -7.118
REMARK INTRA:                  -0.259
REMARK UNBOUND:                -0.637
REMARK  Name = 
REMARK  10 active torsions:
REMARK  status: ('A' for Active; 'I' for Inactive)
REMARK    1  A    between atoms: C_1  and  C_2
REMARK    2  A    between atoms: C_5  and  N_8
REMARK    3  A    between atoms: N_8  and  C_9
REMARK    4  A    between atoms: N_8  and  C_13
REMARK    5  A    between atoms: C_9  and  C_10
REMARK    6  A    between atoms: C_10  and  C_11
REMARK    7  A    between atoms: C_10  and  O_12
REMARK    8  A    between atoms: C_13  and  C_14
REMARK    9  A    between atoms: C_14  and  C_15
REMARK   10  A    between atoms: C_14  and  O_16
REMARK                            x       y       z     vdW  Elec       q    Type
REMARK                         _______ _______ _______ _____ _____    ______ ____
ROOT
ATOM      1  N   UNL     1     -11.244  20.956  -0.459  0.00  0.00    +0.000 N 
ENDROOT
BRANCH   1   6
ATOM      2  C   UNL     1     -14.547  25.476   0.951  0.00  0.00    +0.000 C 
ATOM      3  C   UNL     1     -13.689  24.296   0.609  0.00  0.00    +0.000 A 
ATOM      4  C   UNL     1     -12.303  24.409   0.565  0.00  0.00    +0.000 A 
ATOM      5  C   UNL     1     -11.506  23.308   0.214  0.00  0.00    +0.000 A 
ATOM      6  C   UNL     1     -12.046  22.056  -0.130  0.00  0.00    +0.000 A 
ATOM      7  C   UNL     1     -13.450  21.977  -0.072  0.00  0.00    +0.000 A 
ATOM      8  C   UNL     1     -14.259  23.070   0.279  0.00  0.00    +0.000 A 
ENDBRANCH   1   6
BRANCH   1   9
ATOM      9  C   UNL     1     -11.113  20.528  -1.873  0.00  0.00    +0.000 C 
BRANCH   9  10
ATOM     10  C   UNL     1     -11.686  21.566  -2.869  0.00  0.00    +0.000 C 
ATOM     11  C   UNL     1     -10.688  21.859  -3.984  0.00  0.00    +0.000 C 
BRANCH  10  12
ATOM     12  O   UNL     1     -12.897  21.088  -3.472  0.00  0.00    +0.000 OA
ATOM     13  H   UNL     1     -12.656  20.485  -4.195  0.00  0.00    +0.000 HD
ENDBRANCH  10  12
ENDBRANCH   9  10
ENDBRANCH   1   9
BRANCH   1  14
ATOM     14  C   UNL     1     -10.930  19.905   0.543  0.00  0.00    +0.000 C 
BRANCH  14  15
ATOM     15  C   UNL     1      -9.629  20.212   1.324  0.00  0.00    +0.000 C 
ATOM     16  C   UNL     1      -9.639  19.660   2.744  0.00  0.00    +0.000 C 
BRANCH  15  17
ATOM     17  O   UNL     1      -8.479  19.695   0.656  0.00  0.00    +0.000 OA
ATOM     18  H   UNL     1      -8.595  18.724   0.669  0.00  0.00    +0.000 HD
ENDBRANCH  15  17
ENDBRANCH  14  15
ENDBRANCH   1  14
TORSDOF 7
ENDMDL
