MODEL 1
REMARK VINA RESULT:    -5.648      0.000      0.000
REMARK INTER + INTRA:          -8.257
REMARK INTER:                  -7.630
REMARK INTRA:                  -0.627
REMARK UNBOUND:                -0.627
REMARK  Name = 
REMARK  10 active torsions:
REMARK  status: ('A' for Active; 'I' for Inactive)
REMARK    1  A    between atoms: C_1  and  C_2
REMARK    2  A    between atoms: C_5  and  N_8
REMARK    3  A    between atoms: N_8  and  C_9
REMARK    4  A    between atoms: N_8  and  C_13
REMARK    5  A    between atoms: C_9  and  C_10
REMARK    6  A    between atoms: C_10  and  C_11
REMARK    7  A    between atoms: C_10  and  O_12
REMARK    8  A    between atoms: C_13  and  C_14
REMARK    9  A    between atoms: C_14  and  C_15
REMARK   10  A    between atoms: C_14  and  O_16
REMARK                            x       y       z     vdW  Elec       q    Type
REMARK                         _______ _______ _______ _____ _____    ______ ____
ROOT
ATOM      1  N   UNL     1     -11.110  21.347  -1.005  0.00  0.00    +0.000 N 
ENDROOT
BRANCH   1   6
ATOM      2  C   UNL     1      -9.320  18.488   3.680  0.00  0.00    +0.000 C 
ATOM      3  C   UNL     1      -9.764  19.222   2.452  0.00  0.00    +0.000 A 
ATOM      4  C   UNL     1      -9.438  20.561   2.264  0.00  0.00    +0.000 A 
ATOM      5  C   UNL     1      -9.882  21.253   1.125  0.00  0.00    +0.000 A 
ATOM      6  C   UNL     1     -10.686  20.656   0.137  0.00  0.00    +0.000 A 
ATOM      7  C   UNL     1     -10.995  19.302   0.359  0.00  0.00    +0.000 A 
ATOM      8  C   UNL     1     -10.555  18.597   1.492  0.00  0.00    +0.000 A 
ENDBRANCH   1   6
BRANCH   1   9
ATOM      9  C   UNL     1     -12.026  22.506  -0.877  0.00  0.00    +0.000 C 
BRANCH   9  10
ATOM     10  C   UNL     1     -13.404  22.119  -0.287  0.00  0.00    +0.000 C 
ATOM     11  C   UNL     1     -13.969  23.249   0.565  0.00  0.00    +0.000 C 
BRANCH  10  12
ATOM     12  O   UNL     1     -14.348  21.834  -1.329  0.00  0.00    +0.000 OA
ATOM     13  H   UNL     1     -14.179  22.446  -2.064  0.00  0.00    +0.000 HD
ENDBRANCH  10  12
ENDBRANCH   9  10
ENDBRANCH   1   9
BRANCH   1  14
ATOM     14  C   UNL     1     -11.109  20.697  -2.341  0.00  0.00    +0.000 C 
BRANCH  14  15
ATOM     15  C   UNL     1     -11.762  21.588  -3.425  0.00  0.00    +0.000 C 
ATOM     16  C   UNL     1     -10.851  21.842  -4.620  0.00  0.00    +0.000 C 
BRANCH  15  17
ATOM     17  O   UNL     1     -12.979  21.023  -3.909  0.00  0.00    +0.000 OA
ATOM     18  H   UNL     1     -13.398  21.736  -4.432  0.00  0.00    +0.000 HD
ENDBRANCH  15  17
ENDBRANCH  14  15
ENDBRANCH   1  14
TORSDOF 7
ENDMDL
MODEL 2
REMARK VINA RESULT:    -5.609      0.245      2.914
REMARK INTER + INTRA:          -8.204
REMARK INTER:                  -7.585
REMARK INTRA:                  -0.620
REMARK UNBOUND:                -0.627
REMARK  Name = 
REMARK  10 active torsions:
REMARK  status: ('A' for Active; 'I' for Inactive)
REMARK    1  A    between atoms: C_1  and  C_2
REMARK    2  A    between atoms: C_5  and  N_8
REMARK    3  A    between atoms: N_8  and  C_9
REMARK    4  A    between atoms: N_8  and  C_13
REMARK    5  A    between atoms: C_9  and  C_10
REMARK    6  A    between atoms: C_10  and  C_11
REMARK    7  A    between atoms: C_10  and  O_12
REMARK    8  A    between atoms: C_13  and  C_14
REMARK    9  A    between atoms: C_14  and  C_15
REMARK   10  A    between atoms: C_14  and  O_16
REMARK                            x       y       z     vdW  Elec       q    Type
REMARK                         _______ _______ _______ _____ _____    ______ ____
ROOT
ATOM      1  N   UNL     1     -11.397  21.211  -0.989  0.00  0.00    +0.000 N 
ENDROOT
BRANCH   1   6
ATOM      2  C   UNL     1      -9.197  18.484   3.600  0.00  0.00    +0.000 C 
ATOM      3  C   UNL     1      -9.748  19.185   2.395  0.00  0.00    +0.000 A 
ATOM      4  C   UNL     1      -9.477  20.529   2.165  0.00  0.00    +0.000 A 
ATOM      5  C   UNL     1     -10.021  21.189   1.051  0.00  0.00    +0.000 A 
ATOM      6  C   UNL     1     -10.874  20.552   0.131  0.00  0.00    +0.000 A 
ATOM      7  C   UNL     1     -11.125  19.193   0.394  0.00  0.00    +0.000 A 
ATOM      8  C   UNL     1     -10.585  18.521   1.503  0.00  0.00    +0.000 A 
ENDBRANCH   1   6
BRANCH   1   9
ATOM      9  C   UNL     1     -10.794  20.997  -2.326  0.00  0.00    +0.000 C 
BRANCH   9  10
ATOM     10  C   UNL     1     -11.611  21.654  -3.465  0.00  0.00    +0.000 C 
ATOM     11  C   UNL     1     -10.744  21.881  -4.698  0.00  0.00    +0.000 C 
BRANCH  10  12
ATOM     12  O   UNL     1     -12.718  20.825  -3.848  0.00  0.00    +0.000 OA
ATOM     13  H   UNL     1     -12.453  20.310  -4.628  0.00  0.00    +0.000 HD
ENDBRANCH  10  12
ENDBRANCH   9  10
ENDBRANCH   1   9
BRANCH   1  14
ATOM     14  C   UNL     1     -12.172  22.471  -0.848  0.00  0.00    +0.000 C 
BRANCH  14  15
ATOM     15  C   UNL     1     -13.640  22.210  -0.432  0.00  0.00    +0.000 C 
ATOM     16  C   UNL     1     -14.274  23.388   0.298  0.00  0.00    +0.000 C 
BRANCH  15  17
ATOM     17  O   UNL     1     -14.458  21.895  -1.557  0.00  0.00    +0.000 OA
ATOM     18  H   UNL     1     -15.025  21.156  -1.259  0.00  0.00    +0.000 HD
ENDBRANCH  15  17
ENDBRANCH  14  15
ENDBRANCH   1  14
TORSDOF 7
ENDMDL
MODEL 3
REMARK VINA RESULT:    -5.265      1.382      3.426
REMARK INTER + INTRA:          -7.740
REMARK INTER:                  -7.230
REMARK INTRA:                  -0.510
REMARK UNBOUND:                -0.627
REMARK  Name = 
REMARK  10 active torsions:
REMARK  status: ('A' for Active; 'I' for Inactive)
REMARK    1  A    between atoms: C_1  and  C_2
REMARK    2  A    between atoms: C_5  and  N_8
REMARK    3  A    between atoms: N_8  and  C_9
REMARK    4  A    between atoms: N_8  and  C_13
REMARK    5  A    between atoms: C_9  and  C_10
REMARK    6  A    between atoms: C_10  and  C_11
REMARK    7  A    between atoms: C_10  and  O_12
REMARK    8  A    between atoms: C_13  and  C_14
REMARK    9  A    between atoms: C_14  and  C_15
REMARK   10  A    between atoms: C_14  and  O_16
REMARK                            x       y       z     vdW  Elec       q    Type
REMARK                         _______ _______ _______ _____ _____    ______ ____
ROOT
ATOM      1  N   UNL     1     -12.200  21.503  -0.956  0.00  0.00    +0.000 N 
ENDROOT
BRANCH   1   6
ATOM      2  C   UNL     1      -8.754  17.720   1.716  0.00  0.00    +0.000 C 
ATOM      3  C   UNL     1      -9.631  18.720   1.026  0.00  0.00    +0.000 A 
ATOM      4  C   UNL     1     -10.587  19.441   1.735  0.00  0.00    +0.000 A 
ATOM      5  C   UNL     1     -11.427  20.355   1.077  0.00  0.00    +0.000 A 
ATOM      6  C   UNL     1     -11.373  20.576  -0.311  0.00  0.00    +0.000 A 
ATOM      7  C   UNL     1     -10.394  19.832  -0.994  0.00  0.00    +0.000 A 
ATOM      8  C   UNL     1      -9.546  18.916  -0.349  0.00  0.00    +0.000 A 
ENDBRANCH   1   6
BRANCH   1   9
ATOM      9  C   UNL     1     -11.626  22.458  -1.935  0.00  0.00    +0.000 C 
BRANCH   9  10
ATOM     10  C   UNL     1     -11.976  22.099  -3.400  0.00  0.00    +0.000 C 
ATOM     11  C   UNL     1     -10.716  21.983  -4.249  0.00  0.00    +0.000 C 
BRANCH  10  12
ATOM     12  O   UNL     1     -12.676  20.849  -3.470  0.00  0.00    +0.000 OA
ATOM     13  H   UNL     1     -12.848  20.653  -4.406  0.00  0.00    +0.000 HD
ENDBRANCH  10  12
ENDBRANCH   9  10
ENDBRANCH   1   9
BRANCH   1  14
ATOM     14  C   UNL     1     -13.496  21.922  -0.362  0.00  0.00    +0.000 C 
BRANCH  14  15
ATOM     15  C   UNL     1     -13.472  23.395   0.112  0.00  0.00    +0.000 C 
ATOM     16  C   UNL     1     -14.860  23.956   0.395  0.00  0.00    +0.000 C 
BRANCH  15  17
ATOM     17  O   UNL     1     -12.681  23.558   1.288  0.00  0.00    +0.000 OA
ATOM     18  H   UNL     1     -11.887  23.008   1.137  0.00  0.00    +0.000 HD
ENDBRANCH  15  17
ENDBRANCH  14  15
ENDBRANCH   1  14
TORSDOF 7
ENDMDL
MODEL 4
REMARK VINA RESULT:    -5.261      2.143      5.465
REMARK INTER + INTRA:          -7.734
REMARK INTER:                  -6.954
REMARK INTRA:                  -0.780
REMARK UNBOUND:                -0.627
REMARK  Name = 
REMARK  10 active torsions:
REMARK  status: ('A' for Active; 'I' for Inactive)
REMARK    1  A    between atoms: C_1  and  C_2
REMARK    2  A    between atoms: C_5  and  N_8
REMARK    3  A    between atoms: N_8  and  C_9
REMARK    4  A    between atoms: N_8  and  C_13
REMARK    5  A    between atoms: C_9  and  C_10
REMARK    6  A    between atoms: C_10  and  C_11
REMARK    7  A    between atoms: C_10  and  O_12
REMARK    8  A    between atoms: C_13  and  C_14
REMARK    9  A    between atoms: C_14  and  C_15
REMARK   10  A    between atoms: C_14  and  O_16
REMARK                            x       y       z     vdW  Elec       q    Type
REMARK                         _______ _______ _______ _____ _____    ______ ____
ROOT
ATOM      1  N   UNL     1     -11.703  21.820  -1.870  0.00  0.00    +0.000 N 
ENDROOT
BRANCH   1   6
ATOM      2  C   UNL     1     -12.100  20.856  -7.548  0.00  0.00    +0.000 C 
ATOM      3  C   UNL     1     -12.005  21.130  -6.078  0.00  0.00    +0.000 A 
ATOM      4  C   UNL     1     -10.811  21.560  -5.508  0.00  0.00    +0.000 A 
ATOM      5  C   UNL     1     -10.719  21.786  -4.125  0.00  0.00    +0.000 A 
ATOM      6  C   UNL     1     -11.796  21.574  -3.246  0.00  0.00    +0.000 A 
ATOM      7  C   UNL     1     -12.987  21.142  -3.857  0.00  0.00    +0.000 A 
ATOM      8  C   UNL     1     -13.094  20.914  -5.239  0.00  0.00    +0.000 A 
ENDBRANCH   1   6
BRANCH   1   9
ATOM      9  C   UNL     1     -12.259  23.071  -1.299  0.00  0.00    +0.000 C 
BRANCH   9  10
ATOM     10  C   UNL     1     -13.639  22.862  -0.628  0.00  0.00    +0.000 C 
ATOM     11  C   UNL     1     -14.761  23.392  -1.512  0.00  0.00    +0.000 C 
BRANCH  10  12
ATOM     12  O   UNL     1     -13.887  21.471  -0.382  0.00  0.00    +0.000 OA
ATOM     13  H   UNL     1     -14.107  21.366   0.559  0.00  0.00    +0.000 HD
ENDBRANCH  10  12
ENDBRANCH   9  10
ENDBRANCH   1   9
BRANCH   1  14
ATOM     14  C   UNL     1     -10.658  21.166  -1.041  0.00  0.00    +0.000 C 
BRANCH  14  15
ATOM     15  C   UNL     1     -10.917  19.651  -0.863  0.00  0.00    +0.000 C 
ATOM     16  C   UNL     1      -9.651  18.858  -0.563  0.00  0.00    +0.000 C 
BRANCH  15  17
ATOM     17  O   UNL     1     -11.857  19.395   0.179  0.00  0.00    +0.000 OA
ATOM     18  H   UNL     1     -11.368  19.571   1.009  0.00  0.00    +0.000 HD
ENDBRANCH  15  17
ENDBRANCH  14  15
ENDBRANCH   1  14
TORSDOF 7
ENDMDL
MODEL 5
REMARK VINA RESULT:    -5.205      1.548      1.927
REMARK INTER + INTRA:          -7.657
REMARK INTER:                  -7.167
REMARK INTRA:                  -0.490
REMARK UNBOUND:                -0.627
REMARK  Name = 
REMARK  10 active torsions:
REMARK  status: ('A' for Active; 'I' for Inactive)
REMARK    1  A    between atoms: C_1  and  C_2
REMARK    2  A    between atoms: C_5  and  N_8
REMARK    3  A    between atoms: N_8  and  C_9
REMARK    4  A    between atoms: N_8  and  C_13
REMARK    5  A    between atoms: C_9  and  C_10
REMARK    6  A    between atoms: C_10  and  C_11
REMARK    7  A    between atoms: C_10  and  O_12
REMARK    8  A    between atoms: C_13  and  C_14
REMARK    9  A    between atoms: C_14  and  C_15
REMARK   10  A    between atoms: C_14  and  O_16
REMARK                            x       y       z     vdW  Elec       q    Type
REMARK                         _______ _______ _______ _____ _____    ______ ____
ROOT
ATOM      1  N   UNL     1     -12.031  21.713  -0.864  0.00  0.00    +0.000 N 
ENDROOT
BRANCH   1   6
ATOM      2  C   UNL     1      -8.850  17.678   1.769  0.00  0.00    +0.000 C 
ATOM      3  C   UNL     1      -9.694  18.708   1.082  0.00  0.00    +0.000 A 
ATOM      4  C   UNL     1      -9.590  18.918  -0.289  0.00  0.00    +0.000 A 
ATOM      5  C   UNL     1     -10.362  19.906  -0.922  0.00  0.00    +0.000 A 
ATOM      6  C   UNL     1     -11.250  20.743  -0.223  0.00  0.00    +0.000 A 
ATOM      7  C   UNL     1     -11.330  20.501   1.161  0.00  0.00    +0.000 A 
ATOM      8  C   UNL     1     -10.566  19.515   1.806  0.00  0.00    +0.000 A 
ENDBRANCH   1   6
BRANCH   1   9
ATOM      9  C   UNL     1     -13.365  22.068  -0.325  0.00  0.00    +0.000 C 
BRANCH   9  10
ATOM     10  C   UNL     1     -13.432  23.524   0.200  0.00  0.00    +0.000 C 
ATOM     11  C   UNL     1     -14.860  23.904   0.571  0.00  0.00    +0.000 C 
BRANCH  10  12
ATOM     12  O   UNL     1     -12.611  23.689   1.364  0.00  0.00    +0.000 OA
ATOM     13  H   UNL     1     -11.909  24.326   1.150  0.00  0.00    +0.000 HD
ENDBRANCH  10  12
ENDBRANCH   9  10
ENDBRANCH   1   9
BRANCH   1  14
ATOM     14  C   UNL     1     -11.832  22.033  -2.301  0.00  0.00    +0.000 C 
BRANCH  14  15
ATOM     15  C   UNL     1     -13.136  21.874  -3.120  0.00  0.00    +0.000 C 
ATOM     16  C   UNL     1     -13.456  23.092  -3.979  0.00  0.00    +0.000 C 
BRANCH  15  17
ATOM     17  O   UNL     1     -13.086  20.732  -3.974  0.00  0.00    +0.000 OA
ATOM     18  H   UNL     1     -12.337  20.200  -3.641  0.00  0.00    +0.000 HD
ENDBRANCH  15  17
ENDBRANCH  14  15
ENDBRANCH   1  14
TORSDOF 7
ENDMDL
MODEL 6
REMARK VINA RESULT:    -5.175      1.538      1.692
REMARK INTER + INTRA:          -7.617
REMARK INTER:                  -7.096
REMARK INTRA:                  -0.521
REMARK UNBOUND:                -0.627
REMARK  Name = 
REMARK  10 active torsions:
REMARK  status: ('A' for Active; 'I' for Inactive)
REMARK    1  A    between atoms: C_1  and  C_2
REMARK    2  A    between atoms: C_5  and  N_8
REMARK    3  A    between atoms: N_8  and  C_9
REMARK    4  A    between atoms: N_8  and  C_13
REMARK    5  A    between atoms: C_9  and  C_10
REMARK    6  A    between atoms: C_10  and  C_11
REMARK    7  A    between atoms: C_10  and  O_12
REMARK    8  A    between atoms: C_13  and  C_14
REMARK    9  A    between atoms: C_14  and  C_15
REMARK   10  A    between atoms: C_14  and  O_16
REMARK                            x       y       z     vdW  Elec       q    Type
REMARK                         _______ _______ _______ _____ _____    ______ ____
ROOT
ATOM      1  N   UNL     1     -11.771  21.629  -1.208  0.00  0.00    +0.000 N 
ENDROOT
BRANCH   1   6
ATOM      2  C   UNL     1      -8.879  17.805   2.009  0.00  0.00    +0.000 C 
ATOM      3  C   UNL     1      -9.610  18.812   1.174  0.00  0.00    +0.000 A 
ATOM      4  C   UNL     1     -10.374  19.811   1.766  0.00  0.00    +0.000 A 
ATOM      5  C   UNL     1     -11.081  20.734   0.978  0.00  0.00    +0.000 A 
ATOM      6  C   UNL     1     -11.079  20.693  -0.428  0.00  0.00    +0.000 A 
ATOM      7  C   UNL     1     -10.294  19.671  -0.993  0.00  0.00    +0.000 A 
ATOM      8  C   UNL     1      -9.581  18.743  -0.216  0.00  0.00    +0.000 A 
ENDBRANCH   1   6
BRANCH   1   9
ATOM      9  C   UNL     1     -13.015  22.251  -0.694  0.00  0.00    +0.000 C 
BRANCH   9  10
ATOM     10  C   UNL     1     -12.798  23.700  -0.194  0.00  0.00    +0.000 C 
ATOM     11  C   UNL     1     -13.805  24.652  -0.829  0.00  0.00    +0.000 C 
BRANCH  10  12
ATOM     12  O   UNL     1     -12.949  23.781   1.231  0.00  0.00    +0.000 OA
ATOM     13  H   UNL     1     -12.202  23.311   1.639  0.00  0.00    +0.000 HD
ENDBRANCH  10  12
ENDBRANCH   9  10
ENDBRANCH   1   9
BRANCH   1  14
ATOM     14  C   UNL     1     -11.623  21.657  -2.686  0.00  0.00    +0.000 C 
BRANCH  14  15
ATOM     15  C   UNL     1     -12.987  21.781  -3.407  0.00  0.00    +0.000 C 
ATOM     16  C   UNL     1     -13.074  22.997  -4.321  0.00  0.00    +0.000 C 
BRANCH  15  17
ATOM     17  O   UNL     1     -13.278  20.621  -4.186  0.00  0.00    +0.000 OA
ATOM     18  H   UNL     1     -14.116  20.830  -4.646  0.00  0.00    +0.000 HD
ENDBRANCH  15  17
ENDBRANCH  14  15
ENDBRANCH   1  14
TORSDOF 7
ENDMDL
MODEL 7
REMARK VINA RESULT:    -5.126      1.939      3.987
REMARK INTER + INTRA:          -7.551
REMARK INTER:                  -7.154
REMARK INTRA:                  -0.397
REMARK UNBOUND:                -0.627
REMARK  Name = 
REMARK  10 active torsions:
REMARK  status: ('A' for Active; 'I' for Inactive)
REMARK    1  A    between atoms: C_1  and  C_2
REMARK    2  A    between atoms: C_5  and  N_8
REMARK    3  A    between atoms: N_8  and  C_9
REMARK    4  A    between atoms: N_8  and  C_13
REMARK    5  A    between atoms: C_9  and  C_10
REMARK    6  A    between atoms: C_10  and  C_11
REMARK    7  A    between atoms: C_10  and  O_12
REMARK    8  A    between atoms: C_13  and  C_14
REMARK    9  A    between atoms: C_14  and  C_15
REMARK   10  A    between atoms: C_14  and  O_16
REMARK                            x       y       z     vdW  Elec       q    Type
REMARK                         _______ _______ _______ _____ _____    ______ ____
ROOT
ATOM      1  N   UNL     1     -11.550  21.900  -3.470  0.00  0.00    +0.000 N 
ENDROOT
BRANCH   1   6
ATOM      2  C   UNL     1     -10.727  19.860   1.867  0.00  0.00    +0.000 C 
ATOM      3  C   UNL     1     -10.919  20.401   0.483  0.00  0.00    +0.000 A 
ATOM      4  C   UNL     1     -11.572  21.611   0.273  0.00  0.00    +0.000 A 
ATOM      5  C   UNL     1     -11.775  22.098  -1.028  0.00  0.00    +0.000 A 
ATOM      6  C   UNL     1     -11.361  21.399  -2.176  0.00  0.00    +0.000 A 
ATOM      7  C   UNL     1     -10.703  20.181  -1.926  0.00  0.00    +0.000 A 
ATOM      8  C   UNL     1     -10.491  19.683  -0.630  0.00  0.00    +0.000 A 
ENDBRANCH   1   6
BRANCH   1   9
ATOM      9  C   UNL     1     -10.380  22.179  -4.337  0.00  0.00    +0.000 C 
BRANCH   9  10
ATOM     10  C   UNL     1     -10.619  21.780  -5.814  0.00  0.00    +0.000 C 
ATOM     11  C   UNL     1     -10.650  23.010  -6.713  0.00  0.00    +0.000 C 
BRANCH  10  12
ATOM     12  O   UNL     1      -9.580  20.910  -6.287  0.00  0.00    +0.000 OA
ATOM     13  H   UNL     1      -8.741  21.202  -5.893  0.00  0.00    +0.000 HD
ENDBRANCH  10  12
ENDBRANCH   9  10
ENDBRANCH   1   9
BRANCH   1  14
ATOM     14  C   UNL     1     -12.788  22.634  -3.838  0.00  0.00    +0.000 C 
BRANCH  14  15
ATOM     15  C   UNL     1     -13.954  21.677  -4.182  0.00  0.00    +0.000 C 
ATOM     16  C   UNL     1     -14.860  22.208  -5.286  0.00  0.00    +0.000 C 
BRANCH  15  17
ATOM     17  O   UNL     1     -13.481  20.391  -4.579  0.00  0.00    +0.000 OA
ATOM     18  H   UNL     1     -13.000  20.046  -3.800  0.00  0.00    +0.000 HD
ENDBRANCH  15  17
ENDBRANCH  14  15
ENDBRANCH   1  14
TORSDOF 7
ENDMDL
MODEL 8
REMARK VINA RESULT:    -5.095      1.908      4.434
REMARK INTER + INTRA:          -7.509
REMARK INTER:                  -7.171
REMARK INTRA:                  -0.338
REMARK UNBOUND:                -0.627
REMARK  Name = 
REMARK  10 active torsions:
REMARK  status: ('A' for Active; 'I' for Inactive)
REMARK    1  A    between atoms: C_1  and  C_2
REMARK    2  A    between atoms: C_5  and  N_8
REMARK    3  A    between atoms: N_8  and  C_9
REMARK    4  A    between atoms: N_8  and  C_13
REMARK    5  A    between atoms: C_9  and  C_10
REMARK    6  A    between atoms: C_10  and  C_11
REMARK    7  A    between atoms: C_10  and  O_12
REMARK    8  A    between atoms: C_13  and  C_14
REMARK    9  A    between atoms: C_14  and  C_15
REMARK   10  A    between atoms: C_14  and  O_16
REMARK                            x       y       z     vdW  Elec       q    Type
REMARK                         _______ _______ _______ _____ _____    ______ ____
ROOT
ATOM      1  N   UNL     1     -11.513  20.789  -0.591  0.00  0.00    +0.000 N 
ENDROOT
BRANCH   1   6
ATOM      2  C   UNL     1     -14.381  25.480   1.169  0.00  0.00    +0.000 C 
ATOM      3  C   UNL     1     -13.636  24.254   0.736  0.00  0.00    +0.000 A 
ATOM      4  C   UNL     1     -12.246  24.242   0.689  0.00  0.00    +0.000 A 
ATOM      5  C   UNL     1     -11.555  23.100   0.253  0.00  0.00    +0.000 A 
ATOM      6  C   UNL     1     -12.209  21.931  -0.176  0.00  0.00    +0.000 A 
ATOM      7  C   UNL     1     -13.614  21.979  -0.113  0.00  0.00    +0.000 A 
ATOM      8  C   UNL     1     -14.318  23.113   0.323  0.00  0.00    +0.000 A 
ENDBRANCH   1   6
BRANCH   1   9
ATOM      9  C   UNL     1     -11.026  19.811   0.411  0.00  0.00    +0.000 C 
BRANCH   9  10
ATOM     10  C   UNL     1      -9.712  20.258   1.098  0.00  0.00    +0.000 C 
ATOM     11  C   UNL     1      -9.741  19.941   2.588  0.00  0.00    +0.000 C 
BRANCH  10  12
ATOM     12  O   UNL     1      -8.578  19.594   0.524  0.00  0.00    +0.000 OA
ATOM     13  H   UNL     1      -8.740  18.636   0.560  0.00  0.00    +0.000 HD
ENDBRANCH  10  12
ENDBRANCH   9  10
ENDBRANCH   1   9
BRANCH   1  14
ATOM     14  C   UNL     1     -10.803  20.753  -1.895  0.00  0.00    +0.000 C 
BRANCH  14  15
ATOM     15  C   UNL     1     -11.554  21.545  -2.992  0.00  0.00    +0.000 C 
ATOM     16  C   UNL     1     -10.659  21.957  -4.155  0.00  0.00    +0.000 C 
BRANCH  15  17
ATOM     17  O   UNL     1     -12.652  20.802  -3.520  0.00  0.00    +0.000 OA
ATOM     18  H   UNL     1     -12.560  19.907  -3.136  0.00  0.00    +0.000 HD
ENDBRANCH  15  17
ENDBRANCH  14  15
ENDBRANCH   1  14
TORSDOF 7
ENDMDL
MODEL 9
REMARK VINA RESULT:    -5.020      1.919      5.047
REMARK INTER + INTRA:          -7.409
REMARK INTER:                  -7.165
REMARK INTRA:                  -0.244
REMARK UNBOUND:                -0.627
REMARK  Name = 
REMARK  10 active torsions:
REMARK  status: ('A' for Active; 'I' for Inactive)
REMARK    1  A    between atoms: C_1  and  C_2
REMARK    2  A    between atoms: C_5  and  N_8
REMARK    3  A    between atoms: N_8  and  C_9
REMARK    4  A    between atoms: N_8  and  C_13
REMARK    5  A    between atoms: C_9  and  C_10
REMARK    6  A    between atoms: C_10  and  C_11
REMARK    7  A    between atoms: C_10  and  O_12
REMARK    8  A    between atoms: C_13  and  C_14
REMARK    9  A    between atoms: C_14  and  C_15
REMARK   10  A    between atoms: C_14  and  O_16
REMARK                            x       y       z     vdW  Elec       q    Type
REMARK                         _______ _______ _______ _____ _____    ______ ____
ROOT
ATOM      1  N   UNL     1     -11.249  20.824  -0.426  0.00  0.00    +0.000 N 
ENDROOT
BRANCH   1   6
ATOM      2  C   UNL     1     -14.484  25.379   1.030  0.00  0.00    +0.000 C 
ATOM      3  C   UNL     1     -13.645  24.189   0.676  0.00  0.00    +0.000 A 
ATOM      4  C   UNL     1     -12.256  24.272   0.667  0.00  0.00    +0.000 A 
ATOM      5  C   UNL     1     -11.475  23.162   0.306  0.00  0.00    +0.000 A 
ATOM      6  C   UNL     1     -12.035  21.932  -0.085  0.00  0.00    +0.000 A 
ATOM      7  C   UNL     1     -13.441  21.884  -0.063  0.00  0.00    +0.000 A 
ATOM      8  C   UNL     1     -14.234  22.986   0.299  0.00  0.00    +0.000 A 
ENDBRANCH   1   6
BRANCH   1   9
ATOM      9  C   UNL     1     -11.035  20.474  -1.851  0.00  0.00    +0.000 C 
BRANCH   9  10
ATOM     10  C   UNL     1     -11.656  21.508  -2.822  0.00  0.00    +0.000 C 
ATOM     11  C   UNL     1     -10.657  21.913  -3.899  0.00  0.00    +0.000 C 
BRANCH  10  12
ATOM     12  O   UNL     1     -12.817  20.970  -3.472  0.00  0.00    +0.000 OA
ATOM     13  H   UNL     1     -12.637  20.040  -3.687  0.00  0.00    +0.000 HD
ENDBRANCH  10  12
ENDBRANCH   9  10
ENDBRANCH   1   9
BRANCH   1  14
ATOM     14  C   UNL     1     -11.043  19.705   0.529  0.00  0.00    +0.000 C 
BRANCH  14  15
ATOM     15  C   UNL     1      -9.834  19.950   1.464  0.00  0.00    +0.000 C 
ATOM     16  C   UNL     1      -9.851  19.071   2.709  0.00  0.00    +0.000 C 
BRANCH  15  17
ATOM     17  O   UNL     1      -8.595  19.736   0.789  0.00  0.00    +0.000 OA
ATOM     18  H   UNL     1      -8.829  19.682  -0.159  0.00  0.00    +0.000 HD
ENDBRANCH  15  17
ENDBRANCH  14  15
ENDBRANCH   1  14
TORSDOF 7
ENDMDL
