MODEL 1
REMARK VINA RESULT:    -4.825      0.000      0.000
REMARK INTER + INTRA:          -5.287
REMARK INTER:                  -5.248
REMARK INTRA:                  -0.040
REMARK UNBOUND:                -0.040
REMARK  Name = 
REMARK  3 active torsions:
REMARK  status: ('A' for Active; 'I' for Inactive)
REMARK    1  A    between atoms: C_1  and  O_2
REMARK    2  A    between atoms: O_2  and  C_3
REMARK    3  A    between atoms: C_8  and  O_9
REMARK                            x       y       z     vdW  Elec       q    Type
REMARK                         _______ _______ _______ _____ _____    ______ ____
ROOT
ATOM      1  C   UNL     1      10.166   6.250   6.103  0.00  0.00    +0.000 A 
ATOM      2  C   UNL     1      10.385   7.386   5.326  0.00  0.00    +0.000 A 
ATOM      3  C   UNL     1      10.368   7.292   3.928  0.00  0.00    +0.000 A 
ATOM      4  C   UNL     1      10.133   6.065   3.305  0.00  0.00    +0.000 A 
ATOM      5  C   UNL     1       9.913   4.926   4.075  0.00  0.00    +0.000 A 
ATOM      6  C   UNL     1       9.932   5.029   5.460  0.00  0.00    +0.000 A 
ENDROOT
BRANCH   1   8
ATOM      7  C   UNL     1       9.837   7.403   8.155  0.00  0.00    +0.000 C 
ATOM      8  O   UNL     1      10.155   6.195   7.474  0.00  0.00    +0.000 OA
ENDBRANCH   1   8
BRANCH   6   9
ATOM      9  O   UNL     1       9.712   3.895   6.195  0.00  0.00    +0.000 OA
ATOM     10  H   UNL     1      10.597   3.626   6.508  0.00  0.00    +0.000 HD
ENDBRANCH   6   9
TORSDOF 2
ENDMDL
MODEL 2
REMARK VINA RESULT:    -4.688      8.695      9.889
REMARK INTER + INTRA:          -5.139
REMARK INTER:                  -5.142
REMARK INTRA:                   0.003
REMARK UNBOUND:                -0.040
REMARK  Name = 
REMARK  3 active torsions:
REMARK  status: ('A' for Active; 'I' for Inactive)
REMARK    1  A    between atoms: C_1  and  O_2
REMARK    2  A    between atoms: O_2  and  C_3
REMARK    3  A    between atoms: C_8  and  O_9
REMARK                            x       y       z     vdW  Elec       q    Type
REMARK                         _______ _______ _______ _____ _____    ______ ____
ROOT
ATOM      1  C   UNL     1       8.090  -2.003   9.829  0.00  0.00    +0.000 A 
ATOM      2  C   UNL     1       9.457  -2.279   9.866  0.00  0.00    +0.000 A 
ATOM      3  C   UNL     1       9.935  -3.511   9.402  0.00  0.00    +0.000 A 
ATOM      4  C   UNL     1       9.052  -4.470   8.901  0.00  0.00    +0.000 A 
ATOM      5  C   UNL     1       7.686  -4.201   8.861  0.00  0.00    +0.000 A 
ATOM      6  C   UNL     1       7.220  -2.977   9.323  0.00  0.00    +0.000 A 
ENDROOT
BRANCH   1   8
ATOM      7  C   UNL     1       7.458   0.229   9.317  0.00  0.00    +0.000 C 
ATOM      8  O   UNL     1       7.485  -0.846  10.248  0.00  0.00    +0.000 OA
ENDBRANCH   1   8
BRANCH   6   9
ATOM      9  O   UNL     1       5.873  -2.736   9.273  0.00  0.00    +0.000 OA
ATOM     10  H   UNL     1       5.790  -1.769   9.375  0.00  0.00    +0.000 HD
ENDBRANCH   6   9
TORSDOF 2
ENDMDL
MODEL 3
REMARK VINA RESULT:    -4.533      8.671      9.958
REMARK INTER + INTRA:          -4.971
REMARK INTER:                  -4.933
REMARK INTRA:                  -0.037
REMARK UNBOUND:                -0.040
REMARK  Name = 
REMARK  3 active torsions:
REMARK  status: ('A' for Active; 'I' for Inactive)
REMARK    1  A    between atoms: C_1  and  O_2
REMARK    2  A    between atoms: O_2  and  C_3
REMARK    3  A    between atoms: C_8  and  O_9
REMARK                            x       y       z     vdW  Elec       q    Type
REMARK                         _______ _______ _______ _____ _____    ______ ____
ROOT
ATOM      1  C   UNL     1       8.405  -2.088   9.373  0.00  0.00    +0.000 A 
ATOM      2  C   UNL     1       7.243  -2.858   9.365  0.00  0.00    +0.000 A 
ATOM      3  C   UNL     1       7.329  -4.255   9.318  0.00  0.00    +0.000 A 
ATOM      4  C   UNL     1       8.573  -4.886   9.278  0.00  0.00    +0.000 A 
ATOM      5  C   UNL     1       9.739  -4.124   9.287  0.00  0.00    +0.000 A 
ATOM      6  C   UNL     1       9.644  -2.739   9.333  0.00  0.00    +0.000 A 
ENDROOT
BRANCH   1   8
ATOM      7  C   UNL     1       7.232  -0.022   9.366  0.00  0.00    +0.000 C 
ATOM      8  O   UNL     1       8.471  -0.719   9.417  0.00  0.00    +0.000 OA
ENDBRANCH   1   8
BRANCH   6   9
ATOM      9  O   UNL     1      10.804  -2.012   9.340  0.00  0.00    +0.000 OA
ATOM     10  H   UNL     1      10.827  -1.572   8.469  0.00  0.00    +0.000 HD
ENDBRANCH   6   9
TORSDOF 2
ENDMDL
MODEL 4
REMARK VINA RESULT:    -4.222      9.207     10.573
REMARK INTER + INTRA:          -4.632
REMARK INTER:                  -4.590
REMARK INTRA:                  -0.042
REMARK UNBOUND:                -0.040
REMARK  Name = 
REMARK  3 active torsions:
REMARK  status: ('A' for Active; 'I' for Inactive)
REMARK    1  A    between atoms: C_1  and  O_2
REMARK    2  A    between atoms: O_2  and  C_3
REMARK    3  A    between atoms: C_8  and  O_9
REMARK                            x       y       z     vdW  Elec       q    Type
REMARK                         _______ _______ _______ _____ _____    ______ ____
ROOT
ATOM      1  C   UNL     1       9.080  -3.351  10.453  0.00  0.00    +0.000 A 
ATOM      2  C   UNL     1       7.745  -3.501  10.827  0.00  0.00    +0.000 A 
ATOM      3  C   UNL     1       6.806  -2.522  10.478  0.00  0.00    +0.000 A 
ATOM      4  C   UNL     1       7.197  -1.392   9.756  0.00  0.00    +0.000 A 
ATOM      5  C   UNL     1       8.528  -1.235   9.378  0.00  0.00    +0.000 A 
ATOM      6  C   UNL     1       9.453  -2.211   9.730  0.00  0.00    +0.000 A 
ENDROOT
BRANCH   1   8
ATOM      7  C   UNL     1       9.762  -5.605  10.766  0.00  0.00    +0.000 C 
ATOM      8  O   UNL     1      10.101  -4.225  10.726  0.00  0.00    +0.000 OA
ENDBRANCH   1   8
BRANCH   6   9
ATOM      9  O   UNL     1      10.756  -2.035   9.347  0.00  0.00    +0.000 OA
ATOM     10  H   UNL     1      11.279  -2.245  10.144  0.00  0.00    +0.000 HD
ENDBRANCH   6   9
TORSDOF 2
ENDMDL
MODEL 5
REMARK VINA RESULT:    -4.156      1.473      2.394
REMARK INTER + INTRA:          -4.560
REMARK INTER:                  -4.520
REMARK INTRA:                  -0.040
REMARK UNBOUND:                -0.040
REMARK  Name = 
REMARK  3 active torsions:
REMARK  status: ('A' for Active; 'I' for Inactive)
REMARK    1  A    between atoms: C_1  and  O_2
REMARK    2  A    between atoms: O_2  and  C_3
REMARK    3  A    between atoms: C_8  and  O_9
REMARK                            x       y       z     vdW  Elec       q    Type
REMARK                         _______ _______ _______ _____ _____    ______ ____
ROOT
ATOM      1  C   UNL     1       9.874   6.615   5.847  0.00  0.00    +0.000 A 
ATOM      2  C   UNL     1       9.697   5.243   6.015  0.00  0.00    +0.000 A 
ATOM      3  C   UNL     1       9.843   4.379   4.922  0.00  0.00    +0.000 A 
ATOM      4  C   UNL     1      10.164   4.883   3.660  0.00  0.00    +0.000 A 
ATOM      5  C   UNL     1      10.343   6.253   3.485  0.00  0.00    +0.000 A 
ATOM      6  C   UNL     1      10.196   7.102   4.574  0.00  0.00    +0.000 A 
ENDROOT
BRANCH   1   8
ATOM      7  C   UNL     1      10.053   7.161   8.153  0.00  0.00    +0.000 C 
ATOM      8  O   UNL     1       9.762   7.573   6.823  0.00  0.00    +0.000 OA
ENDBRANCH   1   8
BRANCH   6   9
ATOM      9  O   UNL     1      10.376   8.445   4.377  0.00  0.00    +0.000 OA
ATOM     10  H   UNL     1      11.280   8.524   4.015  0.00  0.00    +0.000 HD
ENDBRANCH   6   9
TORSDOF 2
ENDMDL
MODEL 6
REMARK VINA RESULT:    -3.940      5.449      7.501
REMARK INTER + INTRA:          -4.325
REMARK INTER:                  -4.278
REMARK INTRA:                  -0.047
REMARK UNBOUND:                -0.040
REMARK  Name = 
REMARK  3 active torsions:
REMARK  status: ('A' for Active; 'I' for Inactive)
REMARK    1  A    between atoms: C_1  and  O_2
REMARK    2  A    between atoms: O_2  and  C_3
REMARK    3  A    between atoms: C_8  and  O_9
REMARK                            x       y       z     vdW  Elec       q    Type
REMARK                         _______ _______ _______ _____ _____    ______ ____
ROOT
ATOM      1  C   UNL     1       9.556   9.994  10.767  0.00  0.00    +0.000 A 
ATOM      2  C   UNL     1      10.948   9.921  10.763  0.00  0.00    +0.000 A 
ATOM      3  C   UNL     1      11.710  11.096  10.768  0.00  0.00    +0.000 A 
ATOM      4  C   UNL     1      11.086  12.345  10.774  0.00  0.00    +0.000 A 
ATOM      5  C   UNL     1       9.695  12.426  10.778  0.00  0.00    +0.000 A 
ATOM      6  C   UNL     1       8.947  11.255  10.774  0.00  0.00    +0.000 A 
ENDROOT
BRANCH   1   8
ATOM      7  C   UNL     1       8.950   7.902   9.817  0.00  0.00    +0.000 C 
ATOM      8  O   UNL     1       8.688   8.931  10.763  0.00  0.00    +0.000 OA
ENDBRANCH   1   8
BRANCH   6   9
ATOM      9  O   UNL     1       7.582  11.360  10.778  0.00  0.00    +0.000 OA
ATOM     10  H   UNL     1       7.264  10.480  10.500  0.00  0.00    +0.000 HD
ENDBRANCH   6   9
TORSDOF 2
ENDMDL
MODEL 7
REMARK VINA RESULT:    -3.915      8.809     10.164
REMARK INTER + INTRA:          -4.298
REMARK INTER:                  -4.252
REMARK INTRA:                  -0.046
REMARK UNBOUND:                -0.040
REMARK  Name = 
REMARK  3 active torsions:
REMARK  status: ('A' for Active; 'I' for Inactive)
REMARK    1  A    between atoms: C_1  and  O_2
REMARK    2  A    between atoms: O_2  and  C_3
REMARK    3  A    between atoms: C_8  and  O_9
REMARK                            x       y       z     vdW  Elec       q    Type
REMARK                         _______ _______ _______ _____ _____    ______ ____
ROOT
ATOM      1  C   UNL     1       9.157  -2.581   9.677  0.00  0.00    +0.000 A 
ATOM      2  C   UNL     1       8.683  -3.874   9.894  0.00  0.00    +0.000 A 
ATOM      3  C   UNL     1       7.320  -4.089  10.134  0.00  0.00    +0.000 A 
ATOM      4  C   UNL     1       6.428  -3.015  10.160  0.00  0.00    +0.000 A 
ATOM      5  C   UNL     1       6.894  -1.720   9.943  0.00  0.00    +0.000 A 
ATOM      6  C   UNL     1       8.247  -1.517   9.706  0.00  0.00    +0.000 A 
ENDROOT
BRANCH   1   8
ATOM      7  C   UNL     1      11.448  -2.825  10.259  0.00  0.00    +0.000 C 
ATOM      8  O   UNL     1      10.459  -2.225   9.432  0.00  0.00    +0.000 OA
ENDBRANCH   1   8
BRANCH   6   9
ATOM      9  O   UNL     1       8.681  -0.235   9.496  0.00  0.00    +0.000 OA
ATOM     10  H   UNL     1       9.618  -0.329   9.237  0.00  0.00    +0.000 HD
ENDBRANCH   6   9
TORSDOF 2
ENDMDL
MODEL 8
REMARK VINA RESULT:    -3.767      2.059      4.787
REMARK INTER + INTRA:          -4.137
REMARK INTER:                  -4.089
REMARK INTRA:                  -0.047
REMARK UNBOUND:                -0.040
REMARK  Name = 
REMARK  3 active torsions:
REMARK  status: ('A' for Active; 'I' for Inactive)
REMARK    1  A    between atoms: C_1  and  O_2
REMARK    2  A    between atoms: O_2  and  C_3
REMARK    3  A    between atoms: C_8  and  O_9
REMARK                            x       y       z     vdW  Elec       q    Type
REMARK                         _______ _______ _______ _____ _____    ______ ____
ROOT
ATOM      1  C   UNL     1      10.189   7.040   8.539  0.00  0.00    +0.000 A 
ATOM      2  C   UNL     1       9.435   8.213   8.543  0.00  0.00    +0.000 A 
ATOM      3  C   UNL     1       8.708   8.574   9.684  0.00  0.00    +0.000 A 
ATOM      4  C   UNL     1       8.732   7.767  10.823  0.00  0.00    +0.000 A 
ATOM      5  C   UNL     1       9.483   6.594  10.827  0.00  0.00    +0.000 A 
ATOM      6  C   UNL     1      10.200   6.243   9.690  0.00  0.00    +0.000 A 
ENDROOT
BRANCH   1   8
ATOM      7  C   UNL     1      10.326   6.561   6.215  0.00  0.00    +0.000 C 
ATOM      8  O   UNL     1      10.944   6.565   7.497  0.00  0.00    +0.000 OA
ENDBRANCH   1   8
BRANCH   6   9
ATOM      9  O   UNL     1      10.931   5.085   9.718  0.00  0.00    +0.000 OA
ATOM     10  H   UNL     1      11.828   5.351   9.438  0.00  0.00    +0.000 HD
ENDBRANCH   6   9
TORSDOF 2
ENDMDL
