MODEL 1
REMARK VINA RESULT:    -4.967      0.000      0.000
REMARK INTER + INTRA:          -7.228
REMARK INTER:                  -6.710
REMARK INTRA:                  -0.518
REMARK UNBOUND:                -0.518
REMARK  Name = 
REMARK  10 active torsions:
REMARK  status: ('A' for Active; 'I' for Inactive)
REMARK    1  A    between atoms: C_1  and  C_2
REMARK    2  A    between atoms: C_5  and  N_8
REMARK    3  A    between atoms: N_8  and  C_9
REMARK    4  A    between atoms: N_8  and  C_13
REMARK    5  A    between atoms: C_9  and  C_10
REMARK    6  A    between atoms: C_10  and  C_11
REMARK    7  A    between atoms: C_10  and  O_12
REMARK    8  A    between atoms: C_13  and  C_14
REMARK    9  A    between atoms: C_14  and  C_15
REMARK   10  A    between atoms: C_14  and  O_16
REMARK                            x       y       z     vdW  Elec       q    Type
REMARK                         _______ _______ _______ _____ _____    ______ ____
ROOT
ATOM      1  N   UNL     1       9.648   7.394   8.376  0.00  0.00    +0.000 N 
ENDROOT
BRANCH   1   6
ATOM      2  C   UNL     1      10.173   5.583   2.920  0.00  0.00    +0.000 C 
ATOM      3  C   UNL     1      10.012   6.051   4.334  0.00  0.00    +0.000 A 
ATOM      4  C   UNL     1       9.923   7.407   4.632  0.00  0.00    +0.000 A 
ATOM      5  C   UNL     1       9.803   7.841   5.962  0.00  0.00    +0.000 A 
ATOM      6  C   UNL     1       9.788   6.955   7.054  0.00  0.00    +0.000 A 
ATOM      7  C   UNL     1       9.877   5.592   6.715  0.00  0.00    +0.000 A 
ATOM      8  C   UNL     1       9.996   5.144   5.389  0.00  0.00    +0.000 A 
ENDBRANCH   1   6
BRANCH   1   9
ATOM      9  C   UNL     1       9.293   8.806   8.657  0.00  0.00    +0.000 C 
BRANCH   9  10
ATOM     10  C   UNL     1       8.542   8.980  10.000  0.00  0.00    +0.000 C 
ATOM     11  C   UNL     1       8.993  10.248  10.716  0.00  0.00    +0.000 C 
BRANCH  10  12
ATOM     12  O   UNL     1       7.126   9.068   9.791  0.00  0.00    +0.000 OA
ATOM     13  H   UNL     1       6.970   9.203   8.842  0.00  0.00    +0.000 HD
ENDBRANCH  10  12
ENDBRANCH   9  10
ENDBRANCH   1   9
BRANCH   1  14
ATOM     14  C   UNL     1      10.316   6.684   9.497  0.00  0.00    +0.000 C 
BRANCH  14  15
ATOM     15  C   UNL     1      11.822   7.027   9.593  0.00  0.00    +0.000 C 
ATOM     16  C   UNL     1      12.162   7.903  10.793  0.00  0.00    +0.000 C 
BRANCH  15  17
ATOM     17  O   UNL     1      12.627   5.852   9.661  0.00  0.00    +0.000 OA
ATOM     18  H   UNL     1      13.547   6.179   9.727  0.00  0.00    +0.000 HD
ENDBRANCH  15  17
ENDBRANCH  14  15
ENDBRANCH   1  14
TORSDOF 7
ENDMDL
MODEL 2
REMARK VINA RESULT:    -4.872      0.396      3.060
REMARK INTER + INTRA:          -7.099
REMARK INTER:                  -6.651
REMARK INTRA:                  -0.448
REMARK UNBOUND:                -0.518
REMARK  Name = 
REMARK  10 active torsions:
REMARK  status: ('A' for Active; 'I' for Inactive)
REMARK    1  A    between atoms: C_1  and  C_2
REMARK    2  A    between atoms: C_5  and  N_8
REMARK    3  A    between atoms: N_8  and  C_9
REMARK    4  A    between atoms: N_8  and  C_13
REMARK    5  A    between atoms: C_9  and  C_10
REMARK    6  A    between atoms: C_10  and  C_11
REMARK    7  A    between atoms: C_10  and  O_12
REMARK    8  A    between atoms: C_13  and  C_14
REMARK    9  A    between atoms: C_14  and  C_15
REMARK   10  A    between atoms: C_14  and  O_16
REMARK                            x       y       z     vdW  Elec       q    Type
REMARK                         _______ _______ _______ _____ _____    ______ ____
ROOT
ATOM      1  N   UNL     1       9.815   7.688   8.256  0.00  0.00    +0.000 N 
ENDROOT
BRANCH   1   6
ATOM      2  C   UNL     1      10.063   5.489   2.924  0.00  0.00    +0.000 C 
ATOM      3  C   UNL     1       9.973   6.058   4.307  0.00  0.00    +0.000 A 
ATOM      4  C   UNL     1       9.900   7.432   4.511  0.00  0.00    +0.000 A 
ATOM      5  C   UNL     1       9.847   7.961   5.811  0.00  0.00    +0.000 A 
ATOM      6  C   UNL     1       9.888   7.155   6.963  0.00  0.00    +0.000 A 
ATOM      7  C   UNL     1       9.960   5.771   6.719  0.00  0.00    +0.000 A 
ATOM      8  C   UNL     1      10.012   5.229   5.424  0.00  0.00    +0.000 A 
ENDBRANCH   1   6
BRANCH   1   9
ATOM      9  C   UNL     1      10.038   6.815   9.434  0.00  0.00    +0.000 C 
BRANCH   9  10
ATOM     10  C   UNL     1      11.539   6.582   9.732  0.00  0.00    +0.000 C 
ATOM     11  C   UNL     1      12.043   7.560  10.787  0.00  0.00    +0.000 C 
BRANCH  10  12
ATOM     12  O   UNL     1      11.767   5.251  10.215  0.00  0.00    +0.000 OA
ATOM     13  H   UNL     1      12.723   5.138  10.346  0.00  0.00    +0.000 HD
ENDBRANCH  10  12
ENDBRANCH   9  10
ENDBRANCH   1   9
BRANCH   1  14
ATOM     14  C   UNL     1       9.045   8.927   8.534  0.00  0.00    +0.000 C 
BRANCH  14  15
ATOM     15  C   UNL     1       8.588   9.013  10.011  0.00  0.00    +0.000 C 
ATOM     16  C   UNL     1       9.204  10.187  10.762  0.00  0.00    +0.000 C 
BRANCH  15  17
ATOM     17  O   UNL     1       7.169   9.114  10.119  0.00  0.00    +0.000 OA
ATOM     18  H   UNL     1       6.857   8.194  10.232  0.00  0.00    +0.000 HD
ENDBRANCH  15  17
ENDBRANCH  14  15
ENDBRANCH   1  14
TORSDOF 7
ENDMDL
MODEL 3
REMARK VINA RESULT:    -4.606      2.181      5.545
REMARK INTER + INTRA:          -6.741
REMARK INTER:                  -6.263
REMARK INTRA:                  -0.477
REMARK UNBOUND:                -0.518
REMARK  Name = 
REMARK  10 active torsions:
REMARK  status: ('A' for Active; 'I' for Inactive)
REMARK    1  A    between atoms: C_1  and  C_2
REMARK    2  A    between atoms: C_5  and  N_8
REMARK    3  A    between atoms: N_8  and  C_9
REMARK    4  A    between atoms: N_8  and  C_13
REMARK    5  A    between atoms: C_9  and  C_10
REMARK    6  A    between atoms: C_10  and  C_11
REMARK    7  A    between atoms: C_10  and  O_12
REMARK    8  A    between atoms: C_13  and  C_14
REMARK    9  A    between atoms: C_14  and  C_15
REMARK   10  A    between atoms: C_14  and  O_16
REMARK                            x       y       z     vdW  Elec       q    Type
REMARK                         _______ _______ _______ _____ _____    ______ ____
ROOT
ATOM      1  N   UNL     1      10.081   6.967   9.177  0.00  0.00    +0.000 N 
ENDROOT
BRANCH   1   6
ATOM      2  C   UNL     1       9.728  12.506  10.766  0.00  0.00    +0.000 C 
ATOM      3  C   UNL     1       9.828  11.076  10.331  0.00  0.00    +0.000 A 
ATOM      4  C   UNL     1       8.736  10.422   9.771  0.00  0.00    +0.000 A 
ATOM      5  C   UNL     1       8.826   9.072   9.393  0.00  0.00    +0.000 A 
ATOM      6  C   UNL     1       9.992   8.307   9.574  0.00  0.00    +0.000 A 
ATOM      7  C   UNL     1      11.077   9.001  10.141  0.00  0.00    +0.000 A 
ATOM      8  C   UNL     1      11.001  10.351  10.522  0.00  0.00    +0.000 A 
ENDBRANCH   1   6
BRANCH   1   9
ATOM      9  C   UNL     1       9.969   5.884  10.184  0.00  0.00    +0.000 C 
BRANCH   9  10
ATOM     10  C   UNL     1      11.128   4.861  10.096  0.00  0.00    +0.000 C 
ATOM     11  C   UNL     1      12.363   5.373  10.827  0.00  0.00    +0.000 C 
BRANCH  10  12
ATOM     12  O   UNL     1      10.752   3.607  10.683  0.00  0.00    +0.000 OA
ATOM     13  H   UNL     1      10.085   3.782  11.367  0.00  0.00    +0.000 HD
ENDBRANCH  10  12
ENDBRANCH   9  10
ENDBRANCH   1   9
BRANCH   1  14
ATOM     14  C   UNL     1      10.774   6.582   7.921  0.00  0.00    +0.000 C 
BRANCH  14  15
ATOM     15  C   UNL     1       9.781   6.318   6.763  0.00  0.00    +0.000 C 
ATOM     16  C   UNL     1       9.986   7.247   5.573  0.00  0.00    +0.000 C 
BRANCH  15  17
ATOM     17  O   UNL     1       9.864   4.973   6.294  0.00  0.00    +0.000 OA
ATOM     18  H   UNL     1       9.575   4.423   7.049  0.00  0.00    +0.000 HD
ENDBRANCH  15  17
ENDBRANCH  14  15
ENDBRANCH   1  14
TORSDOF 7
ENDMDL
MODEL 4
REMARK VINA RESULT:    -4.542      2.472      5.445
REMARK INTER + INTRA:          -6.654
REMARK INTER:                  -6.114
REMARK INTRA:                  -0.539
REMARK UNBOUND:                -0.518
REMARK  Name = 
REMARK  10 active torsions:
REMARK  status: ('A' for Active; 'I' for Inactive)
REMARK    1  A    between atoms: C_1  and  C_2
REMARK    2  A    between atoms: C_5  and  N_8
REMARK    3  A    between atoms: N_8  and  C_9
REMARK    4  A    between atoms: N_8  and  C_13
REMARK    5  A    between atoms: C_9  and  C_10
REMARK    6  A    between atoms: C_10  and  C_11
REMARK    7  A    between atoms: C_10  and  O_12
REMARK    8  A    between atoms: C_13  and  C_14
REMARK    9  A    between atoms: C_14  and  C_15
REMARK   10  A    between atoms: C_14  and  O_16
REMARK                            x       y       z     vdW  Elec       q    Type
REMARK                         _______ _______ _______ _____ _____    ______ ____
ROOT
ATOM      1  N   UNL     1      11.450   7.574   9.981  0.00  0.00    +0.000 N 
ENDROOT
BRANCH   1   6
ATOM      2  C   UNL     1       9.508  12.951  10.782  0.00  0.00    +0.000 C 
ATOM      3  C   UNL     1      10.016  11.561  10.550  0.00  0.00    +0.000 A 
ATOM      4  C   UNL     1       9.145  10.529  10.217  0.00  0.00    +0.000 A 
ATOM      5  C   UNL     1       9.623   9.222  10.030  0.00  0.00    +0.000 A 
ATOM      6  C   UNL     1      10.978   8.876  10.188  0.00  0.00    +0.000 A 
ATOM      7  C   UNL     1      11.829   9.945  10.523  0.00  0.00    +0.000 A 
ATOM      8  C   UNL     1      11.365  11.258  10.710  0.00  0.00    +0.000 A 
ENDBRANCH   1   6
BRANCH   1   9
ATOM      9  C   UNL     1      10.560   6.545   9.392  0.00  0.00    +0.000 C 
BRANCH   9  10
ATOM     10  C   UNL     1      10.731   6.409   7.859  0.00  0.00    +0.000 C 
ATOM     11  C   UNL     1       9.701   7.253   7.119  0.00  0.00    +0.000 C 
BRANCH  10  12
ATOM     12  O   UNL     1      12.036   6.839   7.447  0.00  0.00    +0.000 OA
ATOM     13  H   UNL     1      12.264   7.637   7.952  0.00  0.00    +0.000 HD
ENDBRANCH  10  12
ENDBRANCH   9  10
ENDBRANCH   1   9
BRANCH   1  14
ATOM     14  C   UNL     1      12.592   7.037  10.764  0.00  0.00    +0.000 C 
BRANCH  14  15
ATOM     15  C   UNL     1      13.913   7.055   9.958  0.00  0.00    +0.000 C 
ATOM     16  C   UNL     1      15.131   7.397  10.809  0.00  0.00    +0.000 C 
BRANCH  15  17
ATOM     17  O   UNL     1      14.158   5.803   9.319  0.00  0.00    +0.000 OA
ATOM     18  H   UNL     1      15.071   5.870   8.974  0.00  0.00    +0.000 HD
ENDBRANCH  15  17
ENDBRANCH  14  15
ENDBRANCH   1  14
TORSDOF 7
ENDMDL
MODEL 5
REMARK VINA RESULT:    -4.309      2.436      4.899
REMARK INTER + INTRA:          -6.339
REMARK INTER:                  -5.735
REMARK INTRA:                  -0.604
REMARK UNBOUND:                -0.518
REMARK  Name = 
REMARK  10 active torsions:
REMARK  status: ('A' for Active; 'I' for Inactive)
REMARK    1  A    between atoms: C_1  and  C_2
REMARK    2  A    between atoms: C_5  and  N_8
REMARK    3  A    between atoms: N_8  and  C_9
REMARK    4  A    between atoms: N_8  and  C_13
REMARK    5  A    between atoms: C_9  and  C_10
REMARK    6  A    between atoms: C_10  and  C_11
REMARK    7  A    between atoms: C_10  and  O_12
REMARK    8  A    between atoms: C_13  and  C_14
REMARK    9  A    between atoms: C_14  and  C_15
REMARK   10  A    between atoms: C_14  and  O_16
REMARK                            x       y       z     vdW  Elec       q    Type
REMARK                         _______ _______ _______ _____ _____    ______ ____
ROOT
ATOM      1  N   UNL     1      11.025   6.478   9.297  0.00  0.00    +0.000 N 
ENDROOT
BRANCH   1   6
ATOM      2  C   UNL     1      16.740   6.006   9.967  0.00  0.00    +0.000 C 
ATOM      3  C   UNL     1      15.257   6.107   9.781  0.00  0.00    +0.000 A 
ATOM      4  C   UNL     1      14.718   6.752   8.674  0.00  0.00    +0.000 A 
ATOM      5  C   UNL     1      13.327   6.870   8.520  0.00  0.00    +0.000 A 
ATOM      6  C   UNL     1      12.412   6.374   9.466  0.00  0.00    +0.000 A 
ATOM      7  C   UNL     1      12.992   5.726  10.572  0.00  0.00    +0.000 A 
ATOM      8  C   UNL     1      14.381   5.600  10.737  0.00  0.00    +0.000 A 
ENDBRANCH   1   6
BRANCH   1   9
ATOM      9  C   UNL     1      10.142   6.634  10.478  0.00  0.00    +0.000 C 
BRANCH   9  10
ATOM     10  C   UNL     1       9.469   8.027  10.544  0.00  0.00    +0.000 C 
ATOM     11  C   UNL     1      10.424   9.116  10.069  0.00  0.00    +0.000 C 
BRANCH  10  12
ATOM     12  O   UNL     1       8.297   8.073   9.719  0.00  0.00    +0.000 OA
ATOM     13  H   UNL     1       8.185   7.200   9.307  0.00  0.00    +0.000 HD
ENDBRANCH  10  12
ENDBRANCH   9  10
ENDBRANCH   1   9
BRANCH   1  14
ATOM     14  C   UNL     1      10.357   5.942   8.083  0.00  0.00    +0.000 C 
BRANCH  14  15
ATOM     15  C   UNL     1      10.311   6.979   6.936  0.00  0.00    +0.000 C 
ATOM     16  C   UNL     1      10.246   6.341   5.553  0.00  0.00    +0.000 C 
BRANCH  15  17
ATOM     17  O   UNL     1       9.199   7.863   7.067  0.00  0.00    +0.000 OA
ATOM     18  H   UNL     1       8.417   7.278   7.124  0.00  0.00    +0.000 HD
ENDBRANCH  15  17
ENDBRANCH  14  15
ENDBRANCH   1  14
TORSDOF 7
ENDMDL
MODEL 6
REMARK VINA RESULT:    -4.185      2.271      6.012
REMARK INTER + INTRA:          -6.171
REMARK INTER:                  -5.862
REMARK INTRA:                  -0.309
REMARK UNBOUND:                -0.518
REMARK  Name = 
REMARK  10 active torsions:
REMARK  status: ('A' for Active; 'I' for Inactive)
REMARK    1  A    between atoms: C_1  and  C_2
REMARK    2  A    between atoms: C_5  and  N_8
REMARK    3  A    between atoms: N_8  and  C_9
REMARK    4  A    between atoms: N_8  and  C_13
REMARK    5  A    between atoms: C_9  and  C_10
REMARK    6  A    between atoms: C_10  and  C_11
REMARK    7  A    between atoms: C_10  and  O_12
REMARK    8  A    between atoms: C_13  and  C_14
REMARK    9  A    between atoms: C_14  and  C_15
REMARK   10  A    between atoms: C_14  and  O_16
REMARK                            x       y       z     vdW  Elec       q    Type
REMARK                         _______ _______ _______ _____ _____    ______ ____
ROOT
ATOM      1  N   UNL     1      11.511   7.151  10.347  0.00  0.00    +0.000 N 
ENDROOT
BRANCH   1   6
ATOM      2  C   UNL     1       9.910  12.677  10.823  0.00  0.00    +0.000 C 
ATOM      3  C   UNL     1      10.327  11.246  10.675  0.00  0.00    +0.000 A 
ATOM      4  C   UNL     1       9.382  10.239  10.510  0.00  0.00    +0.000 A 
ATOM      5  C   UNL     1       9.778   8.896  10.401  0.00  0.00    +0.000 A 
ATOM      6  C   UNL     1      11.122   8.490  10.475  0.00  0.00    +0.000 A 
ATOM      7  C   UNL     1      12.051   9.534  10.641  0.00  0.00    +0.000 A 
ATOM      8  C   UNL     1      11.669  10.882  10.748  0.00  0.00    +0.000 A 
ENDBRANCH   1   6
BRANCH   1   9
ATOM      9  C   UNL     1      12.845   6.715  10.826  0.00  0.00    +0.000 C 
BRANCH   9  10
ATOM     10  C   UNL     1      13.752   6.193   9.684  0.00  0.00    +0.000 C 
ATOM     11  C   UNL     1      14.653   7.302   9.155  0.00  0.00    +0.000 C 
BRANCH  10  12
ATOM     12  O   UNL     1      14.587   5.120  10.140  0.00  0.00    +0.000 OA
ATOM     13  H   UNL     1      14.148   4.282   9.920  0.00  0.00    +0.000 HD
ENDBRANCH  10  12
ENDBRANCH   9  10
ENDBRANCH   1   9
BRANCH   1  14
ATOM     14  C   UNL     1      10.894   6.265   9.326  0.00  0.00    +0.000 C 
BRANCH  14  15
ATOM     15  C   UNL     1      10.584   7.019   8.010  0.00  0.00    +0.000 C 
ATOM     16  C   UNL     1      11.366   6.485   6.816  0.00  0.00    +0.000 C 
BRANCH  15  17
ATOM     17  O   UNL     1       9.195   6.967   7.688  0.00  0.00    +0.000 OA
ATOM     18  H   UNL     1       8.761   6.622   8.494  0.00  0.00    +0.000 HD
ENDBRANCH  15  17
ENDBRANCH  14  15
ENDBRANCH   1  14
TORSDOF 7
ENDMDL
MODEL 7
REMARK VINA RESULT:    -4.121      2.016      5.217
REMARK INTER + INTRA:          -6.084
REMARK INTER:                  -5.689
REMARK INTRA:                  -0.395
REMARK UNBOUND:                -0.518
REMARK  Name = 
REMARK  10 active torsions:
REMARK  status: ('A' for Active; 'I' for Inactive)
REMARK    1  A    between atoms: C_1  and  C_2
REMARK    2  A    between atoms: C_5  and  N_8
REMARK    3  A    between atoms: N_8  and  C_9
REMARK    4  A    between atoms: N_8  and  C_13
REMARK    5  A    between atoms: C_9  and  C_10
REMARK    6  A    between atoms: C_10  and  C_11
REMARK    7  A    between atoms: C_10  and  O_12
REMARK    8  A    between atoms: C_13  and  C_14
REMARK    9  A    between atoms: C_14  and  C_15
REMARK   10  A    between atoms: C_14  and  O_16
REMARK                            x       y       z     vdW  Elec       q    Type
REMARK                         _______ _______ _______ _____ _____    ______ ____
ROOT
ATOM      1  N   UNL     1      10.646   6.875   9.013  0.00  0.00    +0.000 N 
ENDROOT
BRANCH   1   6
ATOM      2  C   UNL     1       9.684  12.316  10.687  0.00  0.00    +0.000 C 
ATOM      3  C   UNL     1       9.925  10.896  10.274  0.00  0.00    +0.000 A 
ATOM      4  C   UNL     1      11.157  10.289  10.491  0.00  0.00    +0.000 A 
ATOM      5  C   UNL     1      11.387   8.967  10.076  0.00  0.00    +0.000 A 
ATOM      6  C   UNL     1      10.416   8.200   9.408  0.00  0.00    +0.000 A 
ATOM      7  C   UNL     1       9.182   8.845   9.207  0.00  0.00    +0.000 A 
ATOM      8  C   UNL     1       8.938  10.165   9.620  0.00  0.00    +0.000 A 
ENDBRANCH   1   6
BRANCH   1   9
ATOM      9  C   UNL     1      11.088   6.578   7.630  0.00  0.00    +0.000 C 
BRANCH   9  10
ATOM     10  C   UNL     1       9.910   6.245   6.682  0.00  0.00    +0.000 C 
ATOM     11  C   UNL     1      10.022   7.026   5.378  0.00  0.00    +0.000 C 
BRANCH  10  12
ATOM     12  O   UNL     1       9.886   4.847   6.362  0.00  0.00    +0.000 OA
ATOM     13  H   UNL     1      10.803   4.528   6.336  0.00  0.00    +0.000 HD
ENDBRANCH  10  12
ENDBRANCH   9  10
ENDBRANCH   1   9
BRANCH   1  14
ATOM     14  C   UNL     1      10.001   5.740   9.721  0.00  0.00    +0.000 C 
BRANCH  14  15
ATOM     15  C   UNL     1      10.949   5.078  10.750  0.00  0.00    +0.000 C 
ATOM     16  C   UNL     1      10.820   3.560  10.794  0.00  0.00    +0.000 C 
BRANCH  15  17
ATOM     17  O   UNL     1      12.315   5.398  10.490  0.00  0.00    +0.000 OA
ATOM     18  H   UNL     1      12.600   5.933  11.259  0.00  0.00    +0.000 HD
ENDBRANCH  15  17
ENDBRANCH  14  15
ENDBRANCH   1  14
TORSDOF 7
ENDMDL
MODEL 8
REMARK VINA RESULT:    -4.082     10.751     12.592
REMARK INTER + INTRA:          -6.032
REMARK INTER:                  -5.523
REMARK INTRA:                  -0.510
REMARK UNBOUND:                -0.518
REMARK  Name = 
REMARK  10 active torsions:
REMARK  status: ('A' for Active; 'I' for Inactive)
REMARK    1  A    between atoms: C_1  and  C_2
REMARK    2  A    between atoms: C_5  and  N_8
REMARK    3  A    between atoms: N_8  and  C_9
REMARK    4  A    between atoms: N_8  and  C_13
REMARK    5  A    between atoms: C_9  and  C_10
REMARK    6  A    between atoms: C_10  and  C_11
REMARK    7  A    between atoms: C_10  and  O_12
REMARK    8  A    between atoms: C_13  and  C_14
REMARK    9  A    between atoms: C_14  and  C_15
REMARK   10  A    between atoms: C_14  and  O_16
REMARK                            x       y       z     vdW  Elec       q    Type
REMARK                         _______ _______ _______ _____ _____    ______ ____
ROOT
ATOM      1  N   UNL     1      21.874  11.119   7.296  0.00  0.00    +0.000 N 
ENDROOT
BRANCH   1   6
ATOM      2  C   UNL     1      16.393   9.590   8.265  0.00  0.00    +0.000 C 
ATOM      3  C   UNL     1      17.807  10.009   8.006  0.00  0.00    +0.000 A 
ATOM      4  C   UNL     1      18.411   9.766   6.777  0.00  0.00    +0.000 A 
ATOM      5  C   UNL     1      19.747  10.134   6.550  0.00  0.00    +0.000 A 
ATOM      6  C   UNL     1      20.549  10.737   7.536  0.00  0.00    +0.000 A 
ATOM      7  C   UNL     1      19.905  10.969   8.766  0.00  0.00    +0.000 A 
ATOM      8  C   UNL     1      18.569  10.608   9.005  0.00  0.00    +0.000 A 
ENDBRANCH   1   6
BRANCH   1   9
ATOM      9  C   UNL     1      22.640  10.494   6.192  0.00  0.00    +0.000 C 
BRANCH   9  10
ATOM     10  C   UNL     1      22.547  11.293   4.869  0.00  0.00    +0.000 C 
ATOM     11  C   UNL     1      23.878  11.955   4.537  0.00  0.00    +0.000 C 
BRANCH  10  12
ATOM     12  O   UNL     1      22.191  10.437   3.774  0.00  0.00    +0.000 OA
ATOM     13  H   UNL     1      22.074  10.990   2.984  0.00  0.00    +0.000 HD
ENDBRANCH  10  12
ENDBRANCH   9  10
ENDBRANCH   1   9
BRANCH   1  14
ATOM     14  C   UNL     1      22.706  11.724   8.368  0.00  0.00    +0.000 C 
BRANCH  14  15
ATOM     15  C   UNL     1      22.889  13.249   8.176  0.00  0.00    +0.000 C 
ATOM     16  C   UNL     1      24.312  13.639   7.794  0.00  0.00    +0.000 C 
BRANCH  15  17
ATOM     17  O   UNL     1      22.007  13.764   7.179  0.00  0.00    +0.000 OA
ATOM     18  H   UNL     1      22.547  13.812   6.365  0.00  0.00    +0.000 HD
ENDBRANCH  15  17
ENDBRANCH  14  15
ENDBRANCH   1  14
TORSDOF 7
ENDMDL
MODEL 9
REMARK VINA RESULT:    -4.069      3.988      5.691
REMARK INTER + INTRA:          -6.014
REMARK INTER:                  -5.346
REMARK INTRA:                  -0.668
REMARK UNBOUND:                -0.518
REMARK  Name = 
REMARK  10 active torsions:
REMARK  status: ('A' for Active; 'I' for Inactive)
REMARK    1  A    between atoms: C_1  and  C_2
REMARK    2  A    between atoms: C_5  and  N_8
REMARK    3  A    between atoms: N_8  and  C_9
REMARK    4  A    between atoms: N_8  and  C_13
REMARK    5  A    between atoms: C_9  and  C_10
REMARK    6  A    between atoms: C_10  and  C_11
REMARK    7  A    between atoms: C_10  and  O_12
REMARK    8  A    between atoms: C_13  and  C_14
REMARK    9  A    between atoms: C_14  and  C_15
REMARK   10  A    between atoms: C_14  and  O_16
REMARK                            x       y       z     vdW  Elec       q    Type
REMARK                         _______ _______ _______ _____ _____    ______ ____
ROOT
ATOM      1  N   UNL     1      11.313   6.928  10.528  0.00  0.00    +0.000 N 
ENDROOT
BRANCH   1   6
ATOM      2  C   UNL     1       7.438  11.207  10.503  0.00  0.00    +0.000 C 
ATOM      3  C   UNL     1       8.439  10.093  10.485  0.00  0.00    +0.000 A 
ATOM      4  C   UNL     1       8.064   8.790  10.798  0.00  0.00    +0.000 A 
ATOM      5  C   UNL     1       9.013   7.755  10.809  0.00  0.00    +0.000 A 
ATOM      6  C   UNL     1      10.376   7.969  10.534  0.00  0.00    +0.000 A 
ATOM      7  C   UNL     1      10.719   9.297  10.221  0.00  0.00    +0.000 A 
ATOM      8  C   UNL     1       9.779  10.341  10.204  0.00  0.00    +0.000 A 
ENDBRANCH   1   6
BRANCH   1   9
ATOM      9  C   UNL     1      12.753   7.224  10.723  0.00  0.00    +0.000 C 
BRANCH   9  10
ATOM     10  C   UNL     1      13.651   6.571   9.643  0.00  0.00    +0.000 C 
ATOM     11  C   UNL     1      14.614   7.591   9.046  0.00  0.00    +0.000 C 
BRANCH  10  12
ATOM     12  O   UNL     1      14.426   5.499  10.197  0.00  0.00    +0.000 OA
ATOM     13  H   UNL     1      14.046   4.661   9.887  0.00  0.00    +0.000 HD
ENDBRANCH  10  12
ENDBRANCH   9  10
ENDBRANCH   1   9
BRANCH   1  14
ATOM     14  C   UNL     1      11.027   5.639   9.848  0.00  0.00    +0.000 C 
BRANCH  14  15
ATOM     15  C   UNL     1      11.060   4.441  10.827  0.00  0.00    +0.000 C 
ATOM     16  C   UNL     1       9.809   3.574  10.755  0.00  0.00    +0.000 C 
BRANCH  15  17
ATOM     17  O   UNL     1      12.192   3.604  10.598  0.00  0.00    +0.000 OA
ATOM     18  H   UNL     1      12.214   3.468   9.629  0.00  0.00    +0.000 HD
ENDBRANCH  15  17
ENDBRANCH  14  15
ENDBRANCH   1  14
TORSDOF 7
ENDMDL
