MODEL 1
REMARK VINA RESULT:    -4.767      0.000      0.000
REMARK INTER + INTRA:          -5.232
REMARK INTER:                  -5.185
REMARK INTRA:                  -0.047
REMARK UNBOUND:                -0.047
REMARK  Name = 
REMARK  3 active torsions:
REMARK  status: ('A' for Active; 'I' for Inactive)
REMARK    1  A    between atoms: C_1  and  O_2
REMARK    2  A    between atoms: O_2  and  C_3
REMARK    3  A    between atoms: C_8  and  O_9
REMARK                            x       y       z     vdW  Elec       q    Type
REMARK                         _______ _______ _______ _____ _____    ______ ____
ROOT
ATOM      1  C   UNL     1      -9.541  19.465   1.084  0.00  0.00    +0.000 A 
ATOM      2  C   UNL     1     -10.208  20.670   1.300  0.00  0.00    +0.000 A 
ATOM      3  C   UNL     1     -10.870  21.303   0.241  0.00  0.00    +0.000 A 
ATOM      4  C   UNL     1     -10.867  20.735  -1.035  0.00  0.00    +0.000 A 
ATOM      5  C   UNL     1     -10.204  19.531  -1.259  0.00  0.00    +0.000 A 
ATOM      6  C   UNL     1      -9.549  18.911  -0.202  0.00  0.00    +0.000 A 
ENDROOT
BRANCH   1   8
ATOM      7  C   UNL     1      -9.502  18.545   3.275  0.00  0.00    +0.000 C 
ATOM      8  O   UNL     1      -8.853  18.739   2.024  0.00  0.00    +0.000 OA
ENDBRANCH   1   8
BRANCH   6   9
ATOM      9  O   UNL     1      -8.903  17.729  -0.446  0.00  0.00    +0.000 OA
ATOM     10  H   UNL     1      -9.272  17.105   0.208  0.00  0.00    +0.000 HD
ENDBRANCH   6   9
TORSDOF 2
ENDMDL
MODEL 2
REMARK VINA RESULT:    -4.670      1.205      3.167
REMARK INTER + INTRA:          -5.126
REMARK INTER:                  -5.085
REMARK INTRA:                  -0.041
REMARK UNBOUND:                -0.047
REMARK  Name = 
REMARK  3 active torsions:
REMARK  status: ('A' for Active; 'I' for Inactive)
REMARK    1  A    between atoms: C_1  and  O_2
REMARK    2  A    between atoms: O_2  and  C_3
REMARK    3  A    between atoms: C_8  and  O_9
REMARK                            x       y       z     vdW  Elec       q    Type
REMARK                         _______ _______ _______ _____ _____    ______ ____
ROOT
ATOM      1  C   UNL     1      -9.638  19.304   0.514  0.00  0.00    +0.000 A 
ATOM      2  C   UNL     1     -10.149  20.152   1.496  0.00  0.00    +0.000 A 
ATOM      3  C   UNL     1     -10.057  19.793   2.847  0.00  0.00    +0.000 A 
ATOM      4  C   UNL     1      -9.457  18.589   3.220  0.00  0.00    +0.000 A 
ATOM      5  C   UNL     1      -8.943  17.737   2.244  0.00  0.00    +0.000 A 
ATOM      6  C   UNL     1      -9.039  18.101   0.907  0.00  0.00    +0.000 A 
ENDROOT
BRANCH   1   8
ATOM      7  C   UNL     1     -10.729  20.322  -1.336  0.00  0.00    +0.000 C 
ATOM      8  O   UNL     1      -9.659  19.526  -0.840  0.00  0.00    +0.000 OA
ENDBRANCH   1   8
BRANCH   6   9
ATOM      9  O   UNL     1      -8.528  17.247  -0.033  0.00  0.00    +0.000 OA
ATOM     10  H   UNL     1      -7.664  16.970   0.326  0.00  0.00    +0.000 HD
ENDBRANCH   6   9
TORSDOF 2
ENDMDL
MODEL 3
REMARK VINA RESULT:    -4.543      1.030      2.260
REMARK INTER + INTRA:          -4.988
REMARK INTER:                  -4.937
REMARK INTRA:                  -0.051
REMARK UNBOUND:                -0.047
REMARK  Name = 
REMARK  3 active torsions:
REMARK  status: ('A' for Active; 'I' for Inactive)
REMARK    1  A    between atoms: C_1  and  O_2
REMARK    2  A    between atoms: O_2  and  C_3
REMARK    3  A    between atoms: C_8  and  O_9
REMARK                            x       y       z     vdW  Elec       q    Type
REMARK                         _______ _______ _______ _____ _____    ______ ____
ROOT
ATOM      1  C   UNL     1      -9.478  19.483   0.825  0.00  0.00    +0.000 A 
ATOM      2  C   UNL     1      -9.877  18.957  -0.403  0.00  0.00    +0.000 A 
ATOM      3  C   UNL     1     -10.699  19.708  -1.253  0.00  0.00    +0.000 A 
ATOM      4  C   UNL     1     -11.125  20.984  -0.880  0.00  0.00    +0.000 A 
ATOM      5  C   UNL     1     -10.730  21.517   0.345  0.00  0.00    +0.000 A 
ATOM      6  C   UNL     1      -9.915  20.765   1.182  0.00  0.00    +0.000 A 
ENDROOT
BRANCH   1   8
ATOM      7  C   UNL     1      -9.250  17.758   2.442  0.00  0.00    +0.000 C 
ATOM      8  O   UNL     1      -8.680  18.864   1.752  0.00  0.00    +0.000 OA
ENDBRANCH   1   8
BRANCH   6   9
ATOM      9  O   UNL     1      -9.540  21.311   2.381  0.00  0.00    +0.000 OA
ATOM     10  H   UNL     1     -10.104  22.102   2.480  0.00  0.00    +0.000 HD
ENDBRANCH   6   9
TORSDOF 2
ENDMDL
MODEL 4
REMARK VINA RESULT:    -4.401      2.102      3.632
REMARK INTER + INTRA:          -4.834
REMARK INTER:                  -4.796
REMARK INTRA:                  -0.038
REMARK UNBOUND:                -0.047
REMARK  Name = 
REMARK  3 active torsions:
REMARK  status: ('A' for Active; 'I' for Inactive)
REMARK    1  A    between atoms: C_1  and  O_2
REMARK    2  A    between atoms: O_2  and  C_3
REMARK    3  A    between atoms: C_8  and  O_9
REMARK                            x       y       z     vdW  Elec       q    Type
REMARK                         _______ _______ _______ _____ _____    ______ ____
ROOT
ATOM      1  C   UNL     1     -10.681  21.512   0.312  0.00  0.00    +0.000 A 
ATOM      2  C   UNL     1     -11.122  20.784  -0.793  0.00  0.00    +0.000 A 
ATOM      3  C   UNL     1     -10.563  19.531  -1.073  0.00  0.00    +0.000 A 
ATOM      4  C   UNL     1      -9.564  19.002  -0.254  0.00  0.00    +0.000 A 
ATOM      5  C   UNL     1      -9.119  19.723   0.852  0.00  0.00    +0.000 A 
ATOM      6  C   UNL     1      -9.679  20.965   1.122  0.00  0.00    +0.000 A 
ENDROOT
BRANCH   1   8
ATOM      7  C   UNL     1     -12.332  23.206   0.087  0.00  0.00    +0.000 C 
ATOM      8  O   UNL     1     -11.136  22.745   0.704  0.00  0.00    +0.000 OA
ENDBRANCH   1   8
BRANCH   6   9
ATOM      9  O   UNL     1      -9.225  21.655   2.215  0.00  0.00    +0.000 OA
ATOM     10  H   UNL     1      -9.813  22.431   2.280  0.00  0.00    +0.000 HD
ENDBRANCH   6   9
TORSDOF 2
ENDMDL
MODEL 5
REMARK VINA RESULT:    -4.387      2.406      4.171
REMARK INTER + INTRA:          -4.818
REMARK INTER:                  -4.777
REMARK INTRA:                  -0.042
REMARK UNBOUND:                -0.047
REMARK  Name = 
REMARK  3 active torsions:
REMARK  status: ('A' for Active; 'I' for Inactive)
REMARK    1  A    between atoms: C_1  and  O_2
REMARK    2  A    between atoms: O_2  and  C_3
REMARK    3  A    between atoms: C_8  and  O_9
REMARK                            x       y       z     vdW  Elec       q    Type
REMARK                         _______ _______ _______ _____ _____    ______ ____
ROOT
ATOM      1  C   UNL     1     -10.980  20.788  -0.667  0.00  0.00    +0.000 A 
ATOM      2  C   UNL     1     -10.385  19.574  -1.006  0.00  0.00    +0.000 A 
ATOM      3  C   UNL     1      -9.489  18.962  -0.120  0.00  0.00    +0.000 A 
ATOM      4  C   UNL     1      -9.186  19.560   1.104  0.00  0.00    +0.000 A 
ATOM      5  C   UNL     1      -9.777  20.773   1.451  0.00  0.00    +0.000 A 
ATOM      6  C   UNL     1     -10.663  21.373   0.565  0.00  0.00    +0.000 A 
ENDROOT
BRANCH   1   8
ATOM      7  C   UNL     1     -11.706  21.408  -2.843  0.00  0.00    +0.000 C 
ATOM      8  O   UNL     1     -11.870  21.497  -1.433  0.00  0.00    +0.000 OA
ENDBRANCH   1   8
BRANCH   6   9
ATOM      9  O   UNL     1     -11.232  22.565   0.928  0.00  0.00    +0.000 OA
ATOM     10  H   UNL     1     -11.718  22.859   0.134  0.00  0.00    +0.000 HD
ENDBRANCH   6   9
TORSDOF 2
ENDMDL
MODEL 6
REMARK VINA RESULT:    -4.363      1.806      3.028
REMARK INTER + INTRA:          -4.793
REMARK INTER:                  -4.755
REMARK INTRA:                  -0.038
REMARK UNBOUND:                -0.047
REMARK  Name = 
REMARK  3 active torsions:
REMARK  status: ('A' for Active; 'I' for Inactive)
REMARK    1  A    between atoms: C_1  and  O_2
REMARK    2  A    between atoms: O_2  and  C_3
REMARK    3  A    between atoms: C_8  and  O_9
REMARK                            x       y       z     vdW  Elec       q    Type
REMARK                         _______ _______ _______ _____ _____    ______ ____
ROOT
ATOM      1  C   UNL     1      -9.045  17.918   1.666  0.00  0.00    +0.000 A 
ATOM      2  C   UNL     1      -8.992  18.488   0.394  0.00  0.00    +0.000 A 
ATOM      3  C   UNL     1      -9.476  19.786   0.189  0.00  0.00    +0.000 A 
ATOM      4  C   UNL     1     -10.014  20.517   1.249  0.00  0.00    +0.000 A 
ATOM      5  C   UNL     1     -10.070  19.955   2.523  0.00  0.00    +0.000 A 
ATOM      6  C   UNL     1      -9.588  18.666   2.717  0.00  0.00    +0.000 A 
ENDROOT
BRANCH   1   8
ATOM      7  C   UNL     1      -7.906  15.938   1.011  0.00  0.00    +0.000 C 
ATOM      8  O   UNL     1      -8.611  16.663   2.011  0.00  0.00    +0.000 OA
ENDBRANCH   1   8
BRANCH   6   9
ATOM      9  O   UNL     1      -9.654  18.135   3.978  0.00  0.00    +0.000 OA
ATOM     10  H   UNL     1     -10.602  18.163   4.210  0.00  0.00    +0.000 HD
ENDBRANCH   6   9
TORSDOF 2
ENDMDL
MODEL 7
REMARK VINA RESULT:    -4.315      2.350      3.339
REMARK INTER + INTRA:          -4.740
REMARK INTER:                  -4.689
REMARK INTRA:                  -0.051
REMARK UNBOUND:                -0.047
REMARK  Name = 
REMARK  3 active torsions:
REMARK  status: ('A' for Active; 'I' for Inactive)
REMARK    1  A    between atoms: C_1  and  O_2
REMARK    2  A    between atoms: O_2  and  C_3
REMARK    3  A    between atoms: C_8  and  O_9
REMARK                            x       y       z     vdW  Elec       q    Type
REMARK                         _______ _______ _______ _____ _____    ______ ____
ROOT
ATOM      1  C   UNL     1     -10.773  21.256   0.015  0.00  0.00    +0.000 A 
ATOM      2  C   UNL     1     -10.007  21.060   1.163  0.00  0.00    +0.000 A 
ATOM      3  C   UNL     1      -9.274  19.877   1.321  0.00  0.00    +0.000 A 
ATOM      4  C   UNL     1      -9.305  18.888   0.335  0.00  0.00    +0.000 A 
ATOM      5  C   UNL     1     -10.068  19.077  -0.815  0.00  0.00    +0.000 A 
ATOM      6  C   UNL     1     -10.792  20.254  -0.963  0.00  0.00    +0.000 A 
ENDROOT
BRANCH   1   8
ATOM      7  C   UNL     1     -12.721  22.529   0.499  0.00  0.00    +0.000 C 
ATOM      8  O   UNL     1     -11.537  22.359  -0.272  0.00  0.00    +0.000 OA
ENDBRANCH   1   8
BRANCH   6   9
ATOM      9  O   UNL     1     -11.534  20.417  -2.102  0.00  0.00    +0.000 OA
ATOM     10  H   UNL     1     -12.423  20.089  -1.868  0.00  0.00    +0.000 HD
ENDBRANCH   6   9
TORSDOF 2
ENDMDL
MODEL 8
REMARK VINA RESULT:    -4.060      6.389      7.906
REMARK INTER + INTRA:          -4.463
REMARK INTER:                  -4.411
REMARK INTRA:                  -0.052
REMARK UNBOUND:                -0.047
REMARK  Name = 
REMARK  3 active torsions:
REMARK  status: ('A' for Active; 'I' for Inactive)
REMARK    1  A    between atoms: C_1  and  O_2
REMARK    2  A    between atoms: O_2  and  C_3
REMARK    3  A    between atoms: C_8  and  O_9
REMARK                            x       y       z     vdW  Elec       q    Type
REMARK                         _______ _______ _______ _____ _____    ______ ____
ROOT
ATOM      1  C   UNL     1     -12.621  21.051  -6.043  0.00  0.00    +0.000 A 
ATOM      2  C   UNL     1     -11.810  20.848  -7.159  0.00  0.00    +0.000 A 
ATOM      3  C   UNL     1     -12.106  19.818  -8.061  0.00  0.00    +0.000 A 
ATOM      4  C   UNL     1     -13.210  18.989  -7.851  0.00  0.00    +0.000 A 
ATOM      5  C   UNL     1     -14.025  19.186  -6.739  0.00  0.00    +0.000 A 
ATOM      6  C   UNL     1     -13.723  20.210  -5.850  0.00  0.00    +0.000 A 
ENDROOT
BRANCH   1   8
ATOM      7  C   UNL     1     -11.326  21.865  -4.225  0.00  0.00    +0.000 C 
ATOM      8  O   UNL     1     -12.451  22.015  -5.082  0.00  0.00    +0.000 OA
ENDBRANCH   1   8
BRANCH   6   9
ATOM      9  O   UNL     1     -14.539  20.384  -4.764  0.00  0.00    +0.000 OA
ATOM     10  H   UNL     1     -14.693  19.482  -4.421  0.00  0.00    +0.000 HD
ENDBRANCH   6   9
TORSDOF 2
ENDMDL
MODEL 9
REMARK VINA RESULT:    -3.966      7.116      8.523
REMARK INTER + INTRA:          -4.361
REMARK INTER:                  -4.322
REMARK INTRA:                  -0.039
REMARK UNBOUND:                -0.047
REMARK  Name = 
REMARK  3 active torsions:
REMARK  status: ('A' for Active; 'I' for Inactive)
REMARK    1  A    between atoms: C_1  and  O_2
REMARK    2  A    between atoms: O_2  and  C_3
REMARK    3  A    between atoms: C_8  and  O_9
REMARK                            x       y       z     vdW  Elec       q    Type
REMARK                         _______ _______ _______ _____ _____    ______ ____
ROOT
ATOM      1  C   UNL     1     -12.878  20.030  -7.241  0.00  0.00    +0.000 A 
ATOM      2  C   UNL     1     -11.728  20.817  -7.198  0.00  0.00    +0.000 A 
ATOM      3  C   UNL     1     -11.436  21.568  -6.052  0.00  0.00    +0.000 A 
ATOM      4  C   UNL     1     -12.291  21.536  -4.949  0.00  0.00    +0.000 A 
ATOM      5  C   UNL     1     -13.442  20.752  -4.984  0.00  0.00    +0.000 A 
ATOM      6  C   UNL     1     -13.723  20.011  -6.124  0.00  0.00    +0.000 A 
ENDROOT
BRANCH   1   8
ATOM      7  C   UNL     1     -12.291  18.888  -9.240  0.00  0.00    +0.000 C 
ATOM      8  O   UNL     1     -13.287  19.248  -8.291  0.00  0.00    +0.000 OA
ENDBRANCH   1   8
BRANCH   6   9
ATOM      9  O   UNL     1     -14.860  19.248  -6.135  0.00  0.00    +0.000 OA
ATOM     10  H   UNL     1     -14.555  18.344  -5.932  0.00  0.00    +0.000 HD
ENDBRANCH   6   9
TORSDOF 2
ENDMDL
