MODEL 1
REMARK VINA RESULT:    -4.797      0.000      0.000
REMARK INTER + INTRA:          -5.257
REMARK INTER:                  -5.217
REMARK INTRA:                  -0.040
REMARK UNBOUND:                -0.040
REMARK  Name = 
REMARK  3 active torsions:
REMARK  status: ('A' for Active; 'I' for Inactive)
REMARK    1  A    between atoms: C_1  and  O_2
REMARK    2  A    between atoms: O_2  and  C_3
REMARK    3  A    between atoms: C_8  and  O_9
REMARK                            x       y       z     vdW  Elec       q    Type
REMARK                         _______ _______ _______ _____ _____    ______ ____
ROOT
ATOM      1  C   UNL     1      10.165   6.299   6.138  0.00  0.00    +0.000 A 
ATOM      2  C   UNL     1      10.378   7.446   5.376  0.00  0.00    +0.000 A 
ATOM      3  C   UNL     1      10.361   7.370   3.977  0.00  0.00    +0.000 A 
ATOM      4  C   UNL     1      10.132   6.150   3.338  0.00  0.00    +0.000 A 
ATOM      5  C   UNL     1       9.918   5.000   4.093  0.00  0.00    +0.000 A 
ATOM      6  C   UNL     1       9.936   5.085   5.479  0.00  0.00    +0.000 A 
ENDROOT
BRANCH   1   8
ATOM      7  C   UNL     1       9.831   7.423   8.205  0.00  0.00    +0.000 C 
ATOM      8  O   UNL     1      10.154   6.226   7.508  0.00  0.00    +0.000 OA
ENDBRANCH   1   8
BRANCH   6   9
ATOM      9  O   UNL     1       9.723   3.940   6.200  0.00  0.00    +0.000 OA
ATOM     10  H   UNL     1      10.617   3.617   6.424  0.00  0.00    +0.000 HD
ENDBRANCH   6   9
TORSDOF 2
ENDMDL
MODEL 2
REMARK VINA RESULT:    -4.693      8.754      9.947
REMARK INTER + INTRA:          -5.144
REMARK INTER:                  -5.142
REMARK INTRA:                  -0.002
REMARK UNBOUND:                -0.040
REMARK  Name = 
REMARK  3 active torsions:
REMARK  status: ('A' for Active; 'I' for Inactive)
REMARK    1  A    between atoms: C_1  and  O_2
REMARK    2  A    between atoms: O_2  and  C_3
REMARK    3  A    between atoms: C_8  and  O_9
REMARK                            x       y       z     vdW  Elec       q    Type
REMARK                         _______ _______ _______ _____ _____    ______ ____
ROOT
ATOM      1  C   UNL     1       8.082  -2.005   9.835  0.00  0.00    +0.000 A 
ATOM      2  C   UNL     1       9.448  -2.284   9.862  0.00  0.00    +0.000 A 
ATOM      3  C   UNL     1       9.918  -3.526   9.417  0.00  0.00    +0.000 A 
ATOM      4  C   UNL     1       9.028  -4.492   8.945  0.00  0.00    +0.000 A 
ATOM      5  C   UNL     1       7.662  -4.221   8.914  0.00  0.00    +0.000 A 
ATOM      6  C   UNL     1       7.204  -2.987   9.358  0.00  0.00    +0.000 A 
ENDROOT
BRANCH   1   8
ATOM      7  C   UNL     1       7.459   0.222   9.291  0.00  0.00    +0.000 C 
ATOM      8  O   UNL     1       7.484  -0.839  10.238  0.00  0.00    +0.000 OA
ENDBRANCH   1   8
BRANCH   6   9
ATOM      9  O   UNL     1       5.857  -2.744   9.318  0.00  0.00    +0.000 OA
ATOM     10  H   UNL     1       5.451  -3.619   9.167  0.00  0.00    +0.000 HD
ENDBRANCH   6   9
TORSDOF 2
ENDMDL
MODEL 3
REMARK VINA RESULT:    -4.543      8.726     10.012
REMARK INTER + INTRA:          -4.981
REMARK INTER:                  -4.944
REMARK INTRA:                  -0.037
REMARK UNBOUND:                -0.040
REMARK  Name = 
REMARK  3 active torsions:
REMARK  status: ('A' for Active; 'I' for Inactive)
REMARK    1  A    between atoms: C_1  and  O_2
REMARK    2  A    between atoms: O_2  and  C_3
REMARK    3  A    between atoms: C_8  and  O_9
REMARK                            x       y       z     vdW  Elec       q    Type
REMARK                         _______ _______ _______ _____ _____    ______ ____
ROOT
ATOM      1  C   UNL     1       8.417  -2.100   9.411  0.00  0.00    +0.000 A 
ATOM      2  C   UNL     1       7.265  -2.885   9.419  0.00  0.00    +0.000 A 
ATOM      3  C   UNL     1       7.370  -4.281   9.365  0.00  0.00    +0.000 A 
ATOM      4  C   UNL     1       8.622  -4.895   9.303  0.00  0.00    +0.000 A 
ATOM      5  C   UNL     1       9.777  -4.117   9.295  0.00  0.00    +0.000 A 
ATOM      6  C   UNL     1       9.664  -2.734   9.348  0.00  0.00    +0.000 A 
ENDROOT
BRANCH   1   8
ATOM      7  C   UNL     1       7.220  -0.048   9.357  0.00  0.00    +0.000 C 
ATOM      8  O   UNL     1       8.465  -0.730   9.458  0.00  0.00    +0.000 OA
ENDBRANCH   1   8
BRANCH   6   9
ATOM      9  O   UNL     1      10.814  -1.990   9.339  0.00  0.00    +0.000 OA
ATOM     10  H   UNL     1      10.846  -1.593   8.448  0.00  0.00    +0.000 HD
ENDBRANCH   6   9
TORSDOF 2
ENDMDL
MODEL 4
REMARK VINA RESULT:    -4.200      9.246     10.603
REMARK INTER + INTRA:          -4.608
REMARK INTER:                  -4.566
REMARK INTRA:                  -0.042
REMARK UNBOUND:                -0.040
REMARK  Name = 
REMARK  3 active torsions:
REMARK  status: ('A' for Active; 'I' for Inactive)
REMARK    1  A    between atoms: C_1  and  O_2
REMARK    2  A    between atoms: O_2  and  C_3
REMARK    3  A    between atoms: C_8  and  O_9
REMARK                            x       y       z     vdW  Elec       q    Type
REMARK                         _______ _______ _______ _____ _____    ______ ____
ROOT
ATOM      1  C   UNL     1       9.084  -3.359  10.446  0.00  0.00    +0.000 A 
ATOM      2  C   UNL     1       7.751  -3.499  10.827  0.00  0.00    +0.000 A 
ATOM      3  C   UNL     1       6.812  -2.525  10.462  0.00  0.00    +0.000 A 
ATOM      4  C   UNL     1       7.203  -1.410   9.719  0.00  0.00    +0.000 A 
ATOM      5  C   UNL     1       8.534  -1.263   9.334  0.00  0.00    +0.000 A 
ATOM      6  C   UNL     1       9.457  -2.233   9.701  0.00  0.00    +0.000 A 
ENDROOT
BRANCH   1   8
ATOM      7  C   UNL     1       9.766  -5.609  10.788  0.00  0.00    +0.000 C 
ATOM      8  O   UNL     1      10.105  -4.229  10.732  0.00  0.00    +0.000 OA
ENDBRANCH   1   8
BRANCH   6   9
ATOM      9  O   UNL     1      10.759  -2.067   9.311  0.00  0.00    +0.000 OA
ATOM     10  H   UNL     1      10.734  -1.335   8.665  0.00  0.00    +0.000 HD
ENDBRANCH   6   9
TORSDOF 2
ENDMDL
MODEL 5
REMARK VINA RESULT:    -4.139      1.451      2.380
REMARK INTER + INTRA:          -4.542
REMARK INTER:                  -4.501
REMARK INTRA:                  -0.041
REMARK UNBOUND:                -0.040
REMARK  Name = 
REMARK  3 active torsions:
REMARK  status: ('A' for Active; 'I' for Inactive)
REMARK    1  A    between atoms: C_1  and  O_2
REMARK    2  A    between atoms: O_2  and  C_3
REMARK    3  A    between atoms: C_8  and  O_9
REMARK                            x       y       z     vdW  Elec       q    Type
REMARK                         _______ _______ _______ _____ _____    ______ ____
ROOT
ATOM      1  C   UNL     1       9.891   6.558   5.866  0.00  0.00    +0.000 A 
ATOM      2  C   UNL     1       9.743   5.176   5.985  0.00  0.00    +0.000 A 
ATOM      3  C   UNL     1       9.883   4.358   4.857  0.00  0.00    +0.000 A 
ATOM      4  C   UNL     1      10.170   4.916   3.609  0.00  0.00    +0.000 A 
ATOM      5  C   UNL     1      10.319   6.295   3.483  0.00  0.00    +0.000 A 
ATOM      6  C   UNL     1      10.178   7.099   4.607  0.00  0.00    +0.000 A 
ENDROOT
BRANCH   1   8
ATOM      7  C   UNL     1      10.117   7.021   8.186  0.00  0.00    +0.000 C 
ATOM      8  O   UNL     1       9.781   7.475   6.881  0.00  0.00    +0.000 OA
ENDBRANCH   1   8
BRANCH   6   9
ATOM      9  O   UNL     1      10.329   8.452   4.458  0.00  0.00    +0.000 OA
ATOM     10  H   UNL     1      11.109   8.552   3.879  0.00  0.00    +0.000 HD
ENDBRANCH   6   9
TORSDOF 2
ENDMDL
MODEL 6
REMARK VINA RESULT:    -3.966      8.797     10.185
REMARK INTER + INTRA:          -4.353
REMARK INTER:                  -4.306
REMARK INTRA:                  -0.047
REMARK UNBOUND:                -0.040
REMARK  Name = 
REMARK  3 active torsions:
REMARK  status: ('A' for Active; 'I' for Inactive)
REMARK    1  A    between atoms: C_1  and  O_2
REMARK    2  A    between atoms: O_2  and  C_3
REMARK    3  A    between atoms: C_8  and  O_9
REMARK                            x       y       z     vdW  Elec       q    Type
REMARK                         _______ _______ _______ _____ _____    ______ ____
ROOT
ATOM      1  C   UNL     1       9.228  -2.582   9.783  0.00  0.00    +0.000 A 
ATOM      2  C   UNL     1       8.676  -3.840  10.020  0.00  0.00    +0.000 A 
ATOM      3  C   UNL     1       7.296  -3.973  10.219  0.00  0.00    +0.000 A 
ATOM      4  C   UNL     1       6.465  -2.851  10.183  0.00  0.00    +0.000 A 
ATOM      5  C   UNL     1       7.009  -1.591   9.947  0.00  0.00    +0.000 A 
ATOM      6  C   UNL     1       8.379  -1.469   9.751  0.00  0.00    +0.000 A 
ENDROOT
BRANCH   1   8
ATOM      7  C   UNL     1      11.478  -2.893  10.483  0.00  0.00    +0.000 C 
ATOM      8  O   UNL     1      10.555  -2.305   9.573  0.00  0.00    +0.000 OA
ENDBRANCH   1   8
BRANCH   6   9
ATOM      9  O   UNL     1       8.890  -0.220   9.521  0.00  0.00    +0.000 OA
ATOM     10  H   UNL     1       9.728  -0.378   9.045  0.00  0.00    +0.000 HD
ENDBRANCH   6   9
TORSDOF 2
ENDMDL
MODEL 7
REMARK VINA RESULT:    -3.963      6.354      7.169
REMARK INTER + INTRA:          -4.350
REMARK INTER:                  -4.313
REMARK INTRA:                  -0.037
REMARK UNBOUND:                -0.040
REMARK  Name = 
REMARK  3 active torsions:
REMARK  status: ('A' for Active; 'I' for Inactive)
REMARK    1  A    between atoms: C_1  and  O_2
REMARK    2  A    between atoms: O_2  and  C_3
REMARK    3  A    between atoms: C_8  and  O_9
REMARK                            x       y       z     vdW  Elec       q    Type
REMARK                         _______ _______ _______ _____ _____    ______ ____
ROOT
ATOM      1  C   UNL     1       9.368  11.029  10.595  0.00  0.00    +0.000 A 
ATOM      2  C   UNL     1      10.435  10.151  10.406  0.00  0.00    +0.000 A 
ATOM      3  C   UNL     1      10.192   8.782  10.236  0.00  0.00    +0.000 A 
ATOM      4  C   UNL     1       8.887   8.287  10.254  0.00  0.00    +0.000 A 
ATOM      5  C   UNL     1       7.816   9.158  10.441  0.00  0.00    +0.000 A 
ATOM      6  C   UNL     1       8.066  10.514  10.610  0.00  0.00    +0.000 A 
ENDROOT
BRANCH   1   8
ATOM      7  C   UNL     1      10.768  12.939  10.793  0.00  0.00    +0.000 C 
ATOM      8  O   UNL     1       9.457  12.386  10.774  0.00  0.00    +0.000 OA
ENDBRANCH   1   8
BRANCH   6   9
ATOM      9  O   UNL     1       6.998  11.351  10.792  0.00  0.00    +0.000 OA
ATOM     10  H   UNL     1       6.850  11.358  11.757  0.00  0.00    +0.000 HD
ENDBRANCH   6   9
TORSDOF 2
ENDMDL
MODEL 8
REMARK VINA RESULT:    -3.880      5.307      7.501
REMARK INTER + INTRA:          -4.260
REMARK INTER:                  -4.209
REMARK INTRA:                  -0.052
REMARK UNBOUND:                -0.040
REMARK  Name = 
REMARK  3 active torsions:
REMARK  status: ('A' for Active; 'I' for Inactive)
REMARK    1  A    between atoms: C_1  and  O_2
REMARK    2  A    between atoms: O_2  and  C_3
REMARK    3  A    between atoms: C_8  and  O_9
REMARK                            x       y       z     vdW  Elec       q    Type
REMARK                         _______ _______ _______ _____ _____    ______ ____
ROOT
ATOM      1  C   UNL     1       9.833  10.117  10.758  0.00  0.00    +0.000 A 
ATOM      2  C   UNL     1      11.227  10.114  10.760  0.00  0.00    +0.000 A 
ATOM      3  C   UNL     1      11.929  11.326  10.769  0.00  0.00    +0.000 A 
ATOM      4  C   UNL     1      11.243  12.541  10.776  0.00  0.00    +0.000 A 
ATOM      5  C   UNL     1       9.850  12.552  10.774  0.00  0.00    +0.000 A 
ATOM      6  C   UNL     1       9.162  11.346  10.764  0.00  0.00    +0.000 A 
ENDROOT
BRANCH   1   8
ATOM      7  C   UNL     1       9.175   8.119   9.652  0.00  0.00    +0.000 C 
ATOM      8  O   UNL     1       9.020   9.012  10.748  0.00  0.00    +0.000 OA
ENDBRANCH   1   8
BRANCH   6   9
ATOM      9  O   UNL     1       7.793  11.382  10.763  0.00  0.00    +0.000 OA
ATOM     10  H   UNL     1       7.558  11.928  11.538  0.00  0.00    +0.000 HD
ENDBRANCH   6   9
TORSDOF 2
ENDMDL
MODEL 9
REMARK VINA RESULT:    -3.782      2.005      4.752
REMARK INTER + INTRA:          -4.153
REMARK INTER:                  -4.107
REMARK INTRA:                  -0.046
REMARK UNBOUND:                -0.040
REMARK  Name = 
REMARK  3 active torsions:
REMARK  status: ('A' for Active; 'I' for Inactive)
REMARK    1  A    between atoms: C_1  and  O_2
REMARK    2  A    between atoms: O_2  and  C_3
REMARK    3  A    between atoms: C_8  and  O_9
REMARK                            x       y       z     vdW  Elec       q    Type
REMARK                         _______ _______ _______ _____ _____    ______ ____
ROOT
ATOM      1  C   UNL     1      10.155   7.060   8.517  0.00  0.00    +0.000 A 
ATOM      2  C   UNL     1       9.402   8.233   8.515  0.00  0.00    +0.000 A 
ATOM      3  C   UNL     1       8.699   8.616   9.664  0.00  0.00    +0.000 A 
ATOM      4  C   UNL     1       8.745   7.829  10.817  0.00  0.00    +0.000 A 
ATOM      5  C   UNL     1       9.495   6.656  10.827  0.00  0.00    +0.000 A 
ATOM      6  C   UNL     1      10.189   6.284   9.682  0.00  0.00    +0.000 A 
ENDROOT
BRANCH   1   8
ATOM      7  C   UNL     1      10.267   6.594   6.190  0.00  0.00    +0.000 C 
ATOM      8  O   UNL     1      10.889   6.565   7.469  0.00  0.00    +0.000 OA
ENDBRANCH   1   8
BRANCH   6   9
ATOM      9  O   UNL     1      10.919   5.126   9.717  0.00  0.00    +0.000 OA
ATOM     10  H   UNL     1      11.213   5.045  10.644  0.00  0.00    +0.000 HD
ENDBRANCH   6   9
TORSDOF 2
ENDMDL
