MODEL 1
REMARK VINA RESULT:    -4.775      0.000      0.000
REMARK INTER + INTRA:          -5.241
REMARK INTER:                  -5.194
REMARK INTRA:                  -0.047
REMARK UNBOUND:                -0.047
REMARK  Name = 
REMARK  3 active torsions:
REMARK  status: ('A' for Active; 'I' for Inactive)
REMARK    1  A    between atoms: C_1  and  O_2
REMARK    2  A    between atoms: O_2  and  C_3
REMARK    3  A    between atoms: C_8  and  O_9
REMARK                            x       y       z     vdW  Elec       q    Type
REMARK                         _______ _______ _______ _____ _____    ______ ____
ROOT
ATOM      1  C   UNL     1      -9.515  19.460   1.098  0.00  0.00    +0.000 A 
ATOM      2  C   UNL     1     -10.171  20.660   1.369  0.00  0.00    +0.000 A 
ATOM      3  C   UNL     1     -10.877  21.317   0.352  0.00  0.00    +0.000 A 
ATOM      4  C   UNL     1     -10.928  20.778  -0.935  0.00  0.00    +0.000 A 
ATOM      5  C   UNL     1     -10.276  19.579  -1.213  0.00  0.00    +0.000 A 
ATOM      6  C   UNL     1      -9.578  18.935  -0.198  0.00  0.00    +0.000 A 
ENDROOT
BRANCH   1   8
ATOM      7  C   UNL     1      -9.382  18.498   3.267  0.00  0.00    +0.000 C 
ATOM      8  O   UNL     1      -8.790  18.713   1.992  0.00  0.00    +0.000 OA
ENDBRANCH   1   8
BRANCH   6   9
ATOM      9  O   UNL     1      -8.945  17.758  -0.496  0.00  0.00    +0.000 OA
ATOM     10  H   UNL     1      -9.650  17.084  -0.475  0.00  0.00    +0.000 HD
ENDBRANCH   6   9
TORSDOF 2
ENDMDL
MODEL 2
REMARK VINA RESULT:    -4.674      1.189      3.163
REMARK INTER + INTRA:          -5.131
REMARK INTER:                  -5.090
REMARK INTRA:                  -0.041
REMARK UNBOUND:                -0.047
REMARK  Name = 
REMARK  3 active torsions:
REMARK  status: ('A' for Active; 'I' for Inactive)
REMARK    1  A    between atoms: C_1  and  O_2
REMARK    2  A    between atoms: O_2  and  C_3
REMARK    3  A    between atoms: C_8  and  O_9
REMARK                            x       y       z     vdW  Elec       q    Type
REMARK                         _______ _______ _______ _____ _____    ______ ____
ROOT
ATOM      1  C   UNL     1      -9.623  19.309   0.538  0.00  0.00    +0.000 A 
ATOM      2  C   UNL     1     -10.123  20.155   1.527  0.00  0.00    +0.000 A 
ATOM      3  C   UNL     1     -10.036  19.784   2.874  0.00  0.00    +0.000 A 
ATOM      4  C   UNL     1      -9.452  18.570   3.238  0.00  0.00    +0.000 A 
ATOM      5  C   UNL     1      -8.950  17.719   2.256  0.00  0.00    +0.000 A 
ATOM      6  C   UNL     1      -9.041  18.094   0.922  0.00  0.00    +0.000 A 
ENDROOT
BRANCH   1   8
ATOM      7  C   UNL     1     -10.699  20.357  -1.304  0.00  0.00    +0.000 C 
ATOM      8  O   UNL     1      -9.642  19.541  -0.814  0.00  0.00    +0.000 OA
ENDBRANCH   1   8
BRANCH   6   9
ATOM      9  O   UNL     1      -8.541  17.241  -0.026  0.00  0.00    +0.000 OA
ATOM     10  H   UNL     1      -9.235  17.196  -0.710  0.00  0.00    +0.000 HD
ENDBRANCH   6   9
TORSDOF 2
ENDMDL
MODEL 3
REMARK VINA RESULT:    -4.544      1.031      2.258
REMARK INTER + INTRA:          -4.990
REMARK INTER:                  -4.937
REMARK INTRA:                  -0.052
REMARK UNBOUND:                -0.047
REMARK  Name = 
REMARK  3 active torsions:
REMARK  status: ('A' for Active; 'I' for Inactive)
REMARK    1  A    between atoms: C_1  and  O_2
REMARK    2  A    between atoms: O_2  and  C_3
REMARK    3  A    between atoms: C_8  and  O_9
REMARK                            x       y       z     vdW  Elec       q    Type
REMARK                         _______ _______ _______ _____ _____    ______ ____
ROOT
ATOM      1  C   UNL     1      -9.467  19.487   0.824  0.00  0.00    +0.000 A 
ATOM      2  C   UNL     1      -9.890  18.972  -0.400  0.00  0.00    +0.000 A 
ATOM      3  C   UNL     1     -10.710  19.741  -1.237  0.00  0.00    +0.000 A 
ATOM      4  C   UNL     1     -11.108  21.023  -0.853  0.00  0.00    +0.000 A 
ATOM      5  C   UNL     1     -10.689  21.544   0.369  0.00  0.00    +0.000 A 
ATOM      6  C   UNL     1      -9.877  20.774   1.192  0.00  0.00    +0.000 A 
ENDROOT
BRANCH   1   8
ATOM      7  C   UNL     1      -9.235  17.725   2.402  0.00  0.00    +0.000 C 
ATOM      8  O   UNL     1      -8.668  18.849   1.739  0.00  0.00    +0.000 OA
ENDBRANCH   1   8
BRANCH   6   9
ATOM      9  O   UNL     1      -9.478  21.308   2.389  0.00  0.00    +0.000 OA
ATOM     10  H   UNL     1      -9.514  20.562   3.017  0.00  0.00    +0.000 HD
ENDBRANCH   6   9
TORSDOF 2
ENDMDL
MODEL 4
REMARK VINA RESULT:    -4.439      2.176      3.693
REMARK INTER + INTRA:          -4.875
REMARK INTER:                  -4.826
REMARK INTRA:                  -0.050
REMARK UNBOUND:                -0.047
REMARK  Name = 
REMARK  3 active torsions:
REMARK  status: ('A' for Active; 'I' for Inactive)
REMARK    1  A    between atoms: C_1  and  O_2
REMARK    2  A    between atoms: O_2  and  C_3
REMARK    3  A    between atoms: C_8  and  O_9
REMARK                            x       y       z     vdW  Elec       q    Type
REMARK                         _______ _______ _______ _____ _____    ______ ____
ROOT
ATOM      1  C   UNL     1     -10.789  21.378   0.196  0.00  0.00    +0.000 A 
ATOM      2  C   UNL     1     -11.041  20.502  -0.859  0.00  0.00    +0.000 A 
ATOM      3  C   UNL     1     -10.340  19.293  -0.947  0.00  0.00    +0.000 A 
ATOM      4  C   UNL     1      -9.386  18.957   0.015  0.00  0.00    +0.000 A 
ATOM      5  C   UNL     1      -9.129  19.826   1.072  0.00  0.00    +0.000 A 
ATOM      6  C   UNL     1      -9.829  21.024   1.152  0.00  0.00    +0.000 A 
ENDROOT
BRANCH   1   8
ATOM      7  C   UNL     1     -12.819  22.590   0.438  0.00  0.00    +0.000 C 
ATOM      8  O   UNL     1     -11.397  22.590   0.407  0.00  0.00    +0.000 OA
ENDBRANCH   1   8
BRANCH   6   9
ATOM      9  O   UNL     1      -9.559  21.862   2.200  0.00  0.00    +0.000 OA
ATOM     10  H   UNL     1      -8.881  22.476   1.859  0.00  0.00    +0.000 HD
ENDBRANCH   6   9
TORSDOF 2
ENDMDL
MODEL 5
REMARK VINA RESULT:    -4.389      1.631      3.869
REMARK INTER + INTRA:          -4.821
REMARK INTER:                  -4.769
REMARK INTRA:                  -0.053
REMARK UNBOUND:                -0.047
REMARK  Name = 
REMARK  3 active torsions:
REMARK  status: ('A' for Active; 'I' for Inactive)
REMARK    1  A    between atoms: C_1  and  O_2
REMARK    2  A    between atoms: O_2  and  C_3
REMARK    3  A    between atoms: C_8  and  O_9
REMARK                            x       y       z     vdW  Elec       q    Type
REMARK                         _______ _______ _______ _____ _____    ______ ____
ROOT
ATOM      1  C   UNL     1      -9.482  19.610   0.745  0.00  0.00    +0.000 A 
ATOM      2  C   UNL     1      -9.212  18.247   0.858  0.00  0.00    +0.000 A 
ATOM      3  C   UNL     1      -9.084  17.662   2.125  0.00  0.00    +0.000 A 
ATOM      4  C   UNL     1      -9.224  18.435   3.279  0.00  0.00    +0.000 A 
ATOM      5  C   UNL     1      -9.495  19.798   3.173  0.00  0.00    +0.000 A 
ATOM      6  C   UNL     1      -9.620  20.369   1.913  0.00  0.00    +0.000 A 
ENDROOT
BRANCH   1   8
ATOM      7  C   UNL     1     -10.779  20.005  -1.207  0.00  0.00    +0.000 C 
ATOM      8  O   UNL     1      -9.632  20.312  -0.424  0.00  0.00    +0.000 OA
ENDBRANCH   1   8
BRANCH   6   9
ATOM      9  O   UNL     1      -9.885  21.710   1.835  0.00  0.00    +0.000 OA
ATOM     10  H   UNL     1      -9.527  21.984   0.969  0.00  0.00    +0.000 HD
ENDBRANCH   6   9
TORSDOF 2
ENDMDL
MODEL 6
REMARK VINA RESULT:    -4.386      2.420      4.195
REMARK INTER + INTRA:          -4.817
REMARK INTER:                  -4.775
REMARK INTRA:                  -0.042
REMARK UNBOUND:                -0.047
REMARK  Name = 
REMARK  3 active torsions:
REMARK  status: ('A' for Active; 'I' for Inactive)
REMARK    1  A    between atoms: C_1  and  O_2
REMARK    2  A    between atoms: O_2  and  C_3
REMARK    3  A    between atoms: C_8  and  O_9
REMARK                            x       y       z     vdW  Elec       q    Type
REMARK                         _______ _______ _______ _____ _____    ______ ____
ROOT
ATOM      1  C   UNL     1     -10.985  20.811  -0.703  0.00  0.00    +0.000 A 
ATOM      2  C   UNL     1     -10.388  19.597  -1.042  0.00  0.00    +0.000 A 
ATOM      3  C   UNL     1      -9.475  18.998  -0.165  0.00  0.00    +0.000 A 
ATOM      4  C   UNL     1      -9.155  19.608   1.049  0.00  0.00    +0.000 A 
ATOM      5  C   UNL     1      -9.748  20.820   1.395  0.00  0.00    +0.000 A 
ATOM      6  C   UNL     1     -10.652  21.407   0.520  0.00  0.00    +0.000 A 
ENDROOT
BRANCH   1   8
ATOM      7  C   UNL     1     -11.731  21.433  -2.872  0.00  0.00    +0.000 C 
ATOM      8  O   UNL     1     -11.892  21.508  -1.461  0.00  0.00    +0.000 OA
ENDBRANCH   1   8
BRANCH   6   9
ATOM      9  O   UNL     1     -11.222  22.599   0.881  0.00  0.00    +0.000 OA
ATOM     10  H   UNL     1     -12.138  22.548   0.547  0.00  0.00    +0.000 HD
ENDBRANCH   6   9
TORSDOF 2
ENDMDL
MODEL 7
REMARK VINA RESULT:    -4.317      2.345      3.348
REMARK INTER + INTRA:          -4.743
REMARK INTER:                  -4.693
REMARK INTRA:                  -0.050
REMARK UNBOUND:                -0.047
REMARK  Name = 
REMARK  3 active torsions:
REMARK  status: ('A' for Active; 'I' for Inactive)
REMARK    1  A    between atoms: C_1  and  O_2
REMARK    2  A    between atoms: O_2  and  C_3
REMARK    3  A    between atoms: C_8  and  O_9
REMARK                            x       y       z     vdW  Elec       q    Type
REMARK                         _______ _______ _______ _____ _____    ______ ____
ROOT
ATOM      1  C   UNL     1     -10.764  21.237   0.017  0.00  0.00    +0.000 A 
ATOM      2  C   UNL     1      -9.997  21.014   1.160  0.00  0.00    +0.000 A 
ATOM      3  C   UNL     1      -9.283  19.818   1.301  0.00  0.00    +0.000 A 
ATOM      4  C   UNL     1      -9.333  18.842   0.303  0.00  0.00    +0.000 A 
ATOM      5  C   UNL     1     -10.097  19.058  -0.841  0.00  0.00    +0.000 A 
ATOM      6  C   UNL     1     -10.803  20.247  -0.972  0.00  0.00    +0.000 A 
ENDROOT
BRANCH   1   8
ATOM      7  C   UNL     1     -12.692  22.532   0.521  0.00  0.00    +0.000 C 
ATOM      8  O   UNL     1     -11.512  22.356  -0.252  0.00  0.00    +0.000 OA
ENDBRANCH   1   8
BRANCH   6   9
ATOM      9  O   UNL     1     -11.547  20.436  -2.106  0.00  0.00    +0.000 OA
ATOM     10  H   UNL     1     -10.992  21.003  -2.676  0.00  0.00    +0.000 HD
ENDBRANCH   6   9
TORSDOF 2
ENDMDL
MODEL 8
REMARK VINA RESULT:    -4.058      6.371      7.908
REMARK INTER + INTRA:          -4.461
REMARK INTER:                  -4.410
REMARK INTRA:                  -0.051
REMARK UNBOUND:                -0.047
REMARK  Name = 
REMARK  3 active torsions:
REMARK  status: ('A' for Active; 'I' for Inactive)
REMARK    1  A    between atoms: C_1  and  O_2
REMARK    2  A    between atoms: O_2  and  C_3
REMARK    3  A    between atoms: C_8  and  O_9
REMARK                            x       y       z     vdW  Elec       q    Type
REMARK                         _______ _______ _______ _____ _____    ______ ____
ROOT
ATOM      1  C   UNL     1     -12.578  21.050  -6.030  0.00  0.00    +0.000 A 
ATOM      2  C   UNL     1     -11.788  20.817  -7.154  0.00  0.00    +0.000 A 
ATOM      3  C   UNL     1     -12.120  19.785  -8.040  0.00  0.00    +0.000 A 
ATOM      4  C   UNL     1     -13.238  18.983  -7.806  0.00  0.00    +0.000 A 
ATOM      5  C   UNL     1     -14.033  19.210  -6.685  0.00  0.00    +0.000 A 
ATOM      6  C   UNL     1     -13.696  20.236  -5.811  0.00  0.00    +0.000 A 
ENDROOT
BRANCH   1   8
ATOM      7  C   UNL     1     -11.254  21.843  -4.223  0.00  0.00    +0.000 C 
ATOM      8  O   UNL     1     -12.374  22.021  -5.082  0.00  0.00    +0.000 OA
ENDBRANCH   1   8
BRANCH   6   9
ATOM      9  O   UNL     1     -14.493  20.439  -4.716  0.00  0.00    +0.000 OA
ATOM     10  H   UNL     1     -14.173  21.277  -4.329  0.00  0.00    +0.000 HD
ENDBRANCH   6   9
TORSDOF 2
ENDMDL
MODEL 9
REMARK VINA RESULT:    -3.930      2.214      3.051
REMARK INTER + INTRA:          -4.321
REMARK INTER:                  -4.283
REMARK INTRA:                  -0.038
REMARK UNBOUND:                -0.047
REMARK  Name = 
REMARK  3 active torsions:
REMARK  status: ('A' for Active; 'I' for Inactive)
REMARK    1  A    between atoms: C_1  and  O_2
REMARK    2  A    between atoms: O_2  and  C_3
REMARK    3  A    between atoms: C_8  and  O_9
REMARK                            x       y       z     vdW  Elec       q    Type
REMARK                         _______ _______ _______ _____ _____    ______ ____
ROOT
ATOM      1  C   UNL     1     -11.023  20.552   0.508  0.00  0.00    +0.000 A 
ATOM      2  C   UNL     1     -10.549  19.720  -0.505  0.00  0.00    +0.000 A 
ATOM      3  C   UNL     1     -10.795  20.040  -1.846  0.00  0.00    +0.000 A 
ATOM      4  C   UNL     1     -11.514  21.189  -2.179  0.00  0.00    +0.000 A 
ATOM      5  C   UNL     1     -11.991  22.026  -1.173  0.00  0.00    +0.000 A 
ATOM      6  C   UNL     1     -11.742  21.701   0.154  0.00  0.00    +0.000 A 
ENDROOT
BRANCH   1   8
ATOM      7  C   UNL     1     -10.306  19.116   2.260  0.00  0.00    +0.000 C 
ATOM      8  O   UNL     1     -10.858  20.363   1.857  0.00  0.00    +0.000 OA
ENDBRANCH   1   8
BRANCH   6   9
ATOM      9  O   UNL     1     -12.221  22.539   1.126  0.00  0.00    +0.000 OA
ATOM     10  H   UNL     1     -11.484  22.632   1.759  0.00  0.00    +0.000 HD
ENDBRANCH   6   9
TORSDOF 2
ENDMDL
