MODEL 1
REMARK VINA RESULT:    -5.877      0.000      0.000
REMARK INTER + INTRA:          -8.577
REMARK INTER:                  -7.938
REMARK INTRA:                  -0.639
REMARK UNBOUND:                -0.639
REMARK  Name = 
REMARK  10 active torsions:
REMARK  status: ('A' for Active; 'I' for Inactive)
REMARK    1  A    between atoms: C_1  and  C_2
REMARK    2  A    between atoms: C_5  and  N_8
REMARK    3  A    between atoms: N_8  and  C_9
REMARK    4  A    between atoms: N_8  and  C_13
REMARK    5  A    between atoms: C_9  and  C_10
REMARK    6  A    between atoms: C_10  and  C_11
REMARK    7  A    between atoms: C_10  and  O_12
REMARK    8  A    between atoms: C_13  and  C_14
REMARK    9  A    between atoms: C_14  and  C_15
REMARK   10  A    between atoms: C_14  and  O_16
REMARK                            x       y       z     vdW  Elec       q    Type
REMARK                         _______ _______ _______ _____ _____    ______ ____
ROOT
ATOM      1  N   UNL     1      11.480   1.267   7.589  0.00  0.00    +0.000 N 
ENDROOT
BRANCH   1   6
ATOM      2  C   UNL     1      11.959  -2.559  11.886  0.00  0.00    +0.000 C 
ATOM      3  C   UNL     1      11.826  -1.549  10.787  0.00  0.00    +0.000 A 
ATOM      4  C   UNL     1      10.660  -1.461  10.035  0.00  0.00    +0.000 A 
ATOM      5  C   UNL     1      10.552  -0.533   8.987  0.00  0.00    +0.000 A 
ATOM      6  C   UNL     1      11.601   0.331   8.623  0.00  0.00    +0.000 A 
ATOM      7  C   UNL     1      12.765   0.215   9.407  0.00  0.00    +0.000 A 
ATOM      8  C   UNL     1      12.885  -0.707  10.459  0.00  0.00    +0.000 A 
ENDBRANCH   1   6
BRANCH   1   9
ATOM      9  C   UNL     1      12.292   2.508   7.611  0.00  0.00    +0.000 C 
BRANCH   9  10
ATOM     10  C   UNL     1      13.259   2.613   6.406  0.00  0.00    +0.000 C 
ATOM     11  C   UNL     1      13.712   1.232   5.948  0.00  0.00    +0.000 C 
BRANCH  10  12
ATOM     12  O   UNL     1      12.627   3.264   5.295  0.00  0.00    +0.000 OA
ATOM     13  H   UNL     1      11.721   2.921   5.220  0.00  0.00    +0.000 HD
ENDBRANCH  10  12
ENDBRANCH   9  10
ENDBRANCH   1   9
BRANCH   1  14
ATOM     14  C   UNL     1      10.251   1.340   6.758  0.00  0.00    +0.000 C 
BRANCH  14  15
ATOM     15  C   UNL     1      10.397   0.559   5.430  0.00  0.00    +0.000 C 
ATOM     16  C   UNL     1       9.289  -0.464   5.211  0.00  0.00    +0.000 C 
BRANCH  15  17
ATOM     17  O   UNL     1      10.420   1.434   4.303  0.00  0.00    +0.000 OA
ATOM     18  H   UNL     1      11.154   2.056   4.481  0.00  0.00    +0.000 HD
ENDBRANCH  15  17
ENDBRANCH  14  15
ENDBRANCH   1  14
TORSDOF 7
ENDMDL
MODEL 2
REMARK VINA RESULT:    -5.797      0.686      3.031
REMARK INTER + INTRA:          -8.469
REMARK INTER:                  -8.018
REMARK INTRA:                  -0.451
REMARK UNBOUND:                -0.639
REMARK  Name = 
REMARK  10 active torsions:
REMARK  status: ('A' for Active; 'I' for Inactive)
REMARK    1  A    between atoms: C_1  and  C_2
REMARK    2  A    between atoms: C_5  and  N_8
REMARK    3  A    between atoms: N_8  and  C_9
REMARK    4  A    between atoms: N_8  and  C_13
REMARK    5  A    between atoms: C_9  and  C_10
REMARK    6  A    between atoms: C_10  and  C_11
REMARK    7  A    between atoms: C_10  and  O_12
REMARK    8  A    between atoms: C_13  and  C_14
REMARK    9  A    between atoms: C_14  and  C_15
REMARK   10  A    between atoms: C_14  and  O_16
REMARK                            x       y       z     vdW  Elec       q    Type
REMARK                         _______ _______ _______ _____ _____    ______ ____
ROOT
ATOM      1  N   UNL     1      11.497   0.966   7.161  0.00  0.00    +0.000 N 
ENDROOT
BRANCH   1   6
ATOM      2  C   UNL     1      12.311  -1.994  12.050  0.00  0.00    +0.000 C 
ATOM      3  C   UNL     1      12.107  -1.246  10.768  0.00  0.00    +0.000 A 
ATOM      4  C   UNL     1      13.133  -0.490  10.211  0.00  0.00    +0.000 A 
ATOM      5  C   UNL     1      12.926   0.234   9.025  0.00  0.00    +0.000 A 
ATOM      6  C   UNL     1      11.690   0.258   8.354  0.00  0.00    +0.000 A 
ATOM      7  C   UNL     1      10.677  -0.520   8.944  0.00  0.00    +0.000 A 
ATOM      8  C   UNL     1      10.871  -1.250  10.128  0.00  0.00    +0.000 A 
ENDBRANCH   1   6
BRANCH   1   9
ATOM      9  C   UNL     1      10.171   0.958   6.498  0.00  0.00    +0.000 C 
BRANCH   9  10
ATOM     10  C   UNL     1      10.210   0.330   5.084  0.00  0.00    +0.000 C 
ATOM     11  C   UNL     1       9.175  -0.781   4.952  0.00  0.00    +0.000 C 
BRANCH  10  12
ATOM     12  O   UNL     1       9.937   1.313   4.076  0.00  0.00    +0.000 OA
ATOM     13  H   UNL     1      10.089   0.905   3.208  0.00  0.00    +0.000 HD
ENDBRANCH  10  12
ENDBRANCH   9  10
ENDBRANCH   1   9
BRANCH   1  14
ATOM     14  C   UNL     1      12.638   1.296   6.269  0.00  0.00    +0.000 C 
BRANCH  14  15
ATOM     15  C   UNL     1      12.824   2.823   6.099  0.00  0.00    +0.000 C 
ATOM     16  C   UNL     1      14.069   3.190   5.300  0.00  0.00    +0.000 C 
BRANCH  15  17
ATOM     17  O   UNL     1      11.698   3.424   5.463  0.00  0.00    +0.000 OA
ATOM     18  H   UNL     1      11.206   3.866   6.184  0.00  0.00    +0.000 HD
ENDBRANCH  15  17
ENDBRANCH  14  15
ENDBRANCH   1  14
TORSDOF 7
ENDMDL
MODEL 3
REMARK VINA RESULT:    -5.585      3.337      5.506
REMARK INTER + INTRA:          -8.182
REMARK INTER:                  -7.557
REMARK INTRA:                  -0.625
REMARK UNBOUND:                -0.639
REMARK  Name = 
REMARK  10 active torsions:
REMARK  status: ('A' for Active; 'I' for Inactive)
REMARK    1  A    between atoms: C_1  and  C_2
REMARK    2  A    between atoms: C_5  and  N_8
REMARK    3  A    between atoms: N_8  and  C_9
REMARK    4  A    between atoms: N_8  and  C_13
REMARK    5  A    between atoms: C_9  and  C_10
REMARK    6  A    between atoms: C_10  and  C_11
REMARK    7  A    between atoms: C_10  and  O_12
REMARK    8  A    between atoms: C_13  and  C_14
REMARK    9  A    between atoms: C_14  and  C_15
REMARK   10  A    between atoms: C_14  and  O_16
REMARK                            x       y       z     vdW  Elec       q    Type
REMARK                         _______ _______ _______ _____ _____    ______ ____
ROOT
ATOM      1  N   UNL     1      11.348   0.858  10.535  0.00  0.00    +0.000 N 
ENDROOT
BRANCH   1   6
ATOM      2  C   UNL     1      13.727   2.620   5.578  0.00  0.00    +0.000 C 
ATOM      3  C   UNL     1      13.087   2.163   6.853  0.00  0.00    +0.000 A 
ATOM      4  C   UNL     1      12.668   3.080   7.811  0.00  0.00    +0.000 A 
ATOM      5  C   UNL     1      12.096   2.645   9.017  0.00  0.00    +0.000 A 
ATOM      6  C   UNL     1      11.937   1.285   9.337  0.00  0.00    +0.000 A 
ATOM      7  C   UNL     1      12.370   0.386   8.346  0.00  0.00    +0.000 A 
ATOM      8  C   UNL     1      12.941   0.807   7.134  0.00  0.00    +0.000 A 
ENDBRANCH   1   6
BRANCH   1   9
ATOM      9  C   UNL     1      11.054   1.838  11.608  0.00  0.00    +0.000 C 
BRANCH   9  10
ATOM     10  C   UNL     1       9.546   2.172  11.719  0.00  0.00    +0.000 C 
ATOM     11  C   UNL     1       9.334   3.664  11.944  0.00  0.00    +0.000 C 
BRANCH  10  12
ATOM     12  O   UNL     1       8.847   1.799  10.524  0.00  0.00    +0.000 OA
ATOM     13  H   UNL     1       9.047   0.866  10.336  0.00  0.00    +0.000 HD
ENDBRANCH  10  12
ENDBRANCH   9  10
ENDBRANCH   1   9
BRANCH   1  14
ATOM     14  C   UNL     1      11.465  -0.551  10.989  0.00  0.00    +0.000 C 
BRANCH  14  15
ATOM     15  C   UNL     1      10.195  -1.376  10.668  0.00  0.00    +0.000 C 
ATOM     16  C   UNL     1      10.461  -2.873  10.572  0.00  0.00    +0.000 C 
BRANCH  15  17
ATOM     17  O   UNL     1       9.172  -1.170  11.641  0.00  0.00    +0.000 OA
ATOM     18  H   UNL     1       8.719  -0.349  11.362  0.00  0.00    +0.000 HD
ENDBRANCH  15  17
ENDBRANCH  14  15
ENDBRANCH   1  14
TORSDOF 7
ENDMDL
MODEL 4
REMARK VINA RESULT:    -5.325      3.154      5.429
REMARK INTER + INTRA:          -7.832
REMARK INTER:                  -7.357
REMARK INTRA:                  -0.475
REMARK UNBOUND:                -0.639
REMARK  Name = 
REMARK  10 active torsions:
REMARK  status: ('A' for Active; 'I' for Inactive)
REMARK    1  A    between atoms: C_1  and  C_2
REMARK    2  A    between atoms: C_5  and  N_8
REMARK    3  A    between atoms: N_8  and  C_9
REMARK    4  A    between atoms: N_8  and  C_13
REMARK    5  A    between atoms: C_9  and  C_10
REMARK    6  A    between atoms: C_10  and  C_11
REMARK    7  A    between atoms: C_10  and  O_12
REMARK    8  A    between atoms: C_13  and  C_14
REMARK    9  A    between atoms: C_14  and  C_15
REMARK   10  A    between atoms: C_14  and  O_16
REMARK                            x       y       z     vdW  Elec       q    Type
REMARK                         _______ _______ _______ _____ _____    ______ ____
ROOT
ATOM      1  N   UNL     1      11.816   0.488   9.552  0.00  0.00    +0.000 N 
ENDROOT
BRANCH   1   6
ATOM      2  C   UNL     1      14.026   3.250   4.990  0.00  0.00    +0.000 C 
ATOM      3  C   UNL     1      13.430   2.532   6.162  0.00  0.00    +0.000 A 
ATOM      4  C   UNL     1      12.841   3.235   7.207  0.00  0.00    +0.000 A 
ATOM      5  C   UNL     1      12.311   2.558   8.317  0.00  0.00    +0.000 A 
ATOM      6  C   UNL     1      12.363   1.158   8.451  0.00  0.00    +0.000 A 
ATOM      7  C   UNL     1      12.965   0.480   7.376  0.00  0.00    +0.000 A 
ATOM      8  C   UNL     1      13.496   1.145   6.258  0.00  0.00    +0.000 A 
ENDBRANCH   1   6
BRANCH   1   9
ATOM      9  C   UNL     1      12.604  -0.551  10.258  0.00  0.00    +0.000 C 
BRANCH   9  10
ATOM     10  C   UNL     1      13.361   0.003  11.489  0.00  0.00    +0.000 C 
ATOM     11  C   UNL     1      14.822  -0.430  11.472  0.00  0.00    +0.000 C 
BRANCH  10  12
ATOM     12  O   UNL     1      13.323   1.437  11.515  0.00  0.00    +0.000 OA
ATOM     13  H   UNL     1      13.719   1.734  12.351  0.00  0.00    +0.000 HD
ENDBRANCH  10  12
ENDBRANCH   9  10
ENDBRANCH   1   9
BRANCH   1  14
ATOM     14  C   UNL     1      10.345   0.390   9.739  0.00  0.00    +0.000 C 
BRANCH  14  15
ATOM     15  C   UNL     1       9.872   1.098  11.032  0.00  0.00    +0.000 C 
ATOM     16  C   UNL     1       9.431   2.538  10.800  0.00  0.00    +0.000 C 
BRANCH  15  17
ATOM     17  O   UNL     1       8.793   0.400  11.651  0.00  0.00    +0.000 OA
ATOM     18  H   UNL     1       8.084   1.067  11.749  0.00  0.00    +0.000 HD
ENDBRANCH  15  17
ENDBRANCH  14  15
ENDBRANCH   1  14
TORSDOF 7
ENDMDL
MODEL 5
REMARK VINA RESULT:    -5.279      3.316      5.618
REMARK INTER + INTRA:          -7.770
REMARK INTER:                  -7.029
REMARK INTRA:                  -0.741
REMARK UNBOUND:                -0.639
REMARK  Name = 
REMARK  10 active torsions:
REMARK  status: ('A' for Active; 'I' for Inactive)
REMARK    1  A    between atoms: C_1  and  C_2
REMARK    2  A    between atoms: C_5  and  N_8
REMARK    3  A    between atoms: N_8  and  C_9
REMARK    4  A    between atoms: N_8  and  C_13
REMARK    5  A    between atoms: C_9  and  C_10
REMARK    6  A    between atoms: C_10  and  C_11
REMARK    7  A    between atoms: C_10  and  O_12
REMARK    8  A    between atoms: C_13  and  C_14
REMARK    9  A    between atoms: C_14  and  C_15
REMARK   10  A    between atoms: C_14  and  O_16
REMARK                            x       y       z     vdW  Elec       q    Type
REMARK                         _______ _______ _______ _____ _____    ______ ____
ROOT
ATOM      1  N   UNL     1      11.248   1.659   9.736  0.00  0.00    +0.000 N 
ENDROOT
BRANCH   1   6
ATOM      2  C   UNL     1      10.244   0.487   4.173  0.00  0.00    +0.000 C 
ATOM      3  C   UNL     1      10.525   0.776   5.616  0.00  0.00    +0.000 A 
ATOM      4  C   UNL     1       9.939   0.017   6.623  0.00  0.00    +0.000 A 
ATOM      5  C   UNL     1      10.182   0.311   7.975  0.00  0.00    +0.000 A 
ATOM      6  C   UNL     1      10.994   1.383   8.386  0.00  0.00    +0.000 A 
ATOM      7  C   UNL     1      11.571   2.128   7.341  0.00  0.00    +0.000 A 
ATOM      8  C   UNL     1      11.339   1.843   5.986  0.00  0.00    +0.000 A 
ENDBRANCH   1   6
BRANCH   1   9
ATOM      9  C   UNL     1      10.483   2.721  10.434  0.00  0.00    +0.000 C 
BRANCH   9  10
ATOM     10  C   UNL     1       9.671   2.184  11.637  0.00  0.00    +0.000 C 
ATOM     11  C   UNL     1       8.587   3.173  12.049  0.00  0.00    +0.000 C 
BRANCH  10  12
ATOM     12  O   UNL     1       9.036   0.938  11.315  0.00  0.00    +0.000 OA
ATOM     13  H   UNL     1       8.662   1.013  10.421  0.00  0.00    +0.000 HD
ENDBRANCH  10  12
ENDBRANCH   9  10
ENDBRANCH   1   9
BRANCH   1  14
ATOM     14  C   UNL     1      12.552   1.317  10.359  0.00  0.00    +0.000 C 
BRANCH  14  15
ATOM     15  C   UNL     1      12.716  -0.208  10.569  0.00  0.00    +0.000 C 
ATOM     16  C   UNL     1      14.002  -0.577  11.300  0.00  0.00    +0.000 C 
BRANCH  15  17
ATOM     17  O   UNL     1      11.620  -0.761  11.295  0.00  0.00    +0.000 OA
ATOM     18  H   UNL     1      10.822  -0.465  10.813  0.00  0.00    +0.000 HD
ENDBRANCH  15  17
ENDBRANCH  14  15
ENDBRANCH   1  14
TORSDOF 7
ENDMDL
MODEL 6
REMARK VINA RESULT:    -5.256      3.112      5.216
REMARK INTER + INTRA:          -7.738
REMARK INTER:                  -7.331
REMARK INTRA:                  -0.407
REMARK UNBOUND:                -0.639
REMARK  Name = 
REMARK  10 active torsions:
REMARK  status: ('A' for Active; 'I' for Inactive)
REMARK    1  A    between atoms: C_1  and  C_2
REMARK    2  A    between atoms: C_5  and  N_8
REMARK    3  A    between atoms: N_8  and  C_9
REMARK    4  A    between atoms: N_8  and  C_13
REMARK    5  A    between atoms: C_9  and  C_10
REMARK    6  A    between atoms: C_10  and  C_11
REMARK    7  A    between atoms: C_10  and  O_12
REMARK    8  A    between atoms: C_13  and  C_14
REMARK    9  A    between atoms: C_14  and  C_15
REMARK   10  A    between atoms: C_14  and  O_16
REMARK                            x       y       z     vdW  Elec       q    Type
REMARK                         _______ _______ _______ _____ _____    ______ ____
ROOT
ATOM      1  N   UNL     1      11.589   0.764   9.367  0.00  0.00    +0.000 N 
ENDROOT
BRANCH   1   6
ATOM      2  C   UNL     1      10.189   0.480   3.774  0.00  0.00    +0.000 C 
ATOM      3  C   UNL     1      10.559   0.529   5.225  0.00  0.00    +0.000 A 
ATOM      4  C   UNL     1       9.619   0.254   6.212  0.00  0.00    +0.000 A 
ATOM      5  C   UNL     1       9.964   0.331   7.571  0.00  0.00    +0.000 A 
ATOM      6  C   UNL     1      11.246   0.708   8.011  0.00  0.00    +0.000 A 
ATOM      7  C   UNL     1      12.172   0.977   6.985  0.00  0.00    +0.000 A 
ATOM      8  C   UNL     1      11.840   0.901   5.623  0.00  0.00    +0.000 A 
ENDBRANCH   1   6
BRANCH   1   9
ATOM      9  C   UNL     1      12.995   1.007   9.770  0.00  0.00    +0.000 C 
BRANCH   9  10
ATOM     10  C   UNL     1      13.446   0.110  10.948  0.00  0.00    +0.000 C 
ATOM     11  C   UNL     1      14.200  -1.115  10.443  0.00  0.00    +0.000 C 
BRANCH  10  12
ATOM     12  O   UNL     1      14.311   0.827  11.840  0.00  0.00    +0.000 OA
ATOM     13  H   UNL     1      14.687   0.192  12.471  0.00  0.00    +0.000 HD
ENDBRANCH  10  12
ENDBRANCH   9  10
ENDBRANCH   1   9
BRANCH   1  14
ATOM     14  C   UNL     1      10.749   0.105  10.401  0.00  0.00    +0.000 C 
BRANCH  14  15
ATOM     15  C   UNL     1      10.037   1.131  11.316  0.00  0.00    +0.000 C 
ATOM     16  C   UNL     1       9.602   2.391  10.578  0.00  0.00    +0.000 C 
BRANCH  15  17
ATOM     17  O   UNL     1       8.888   0.567  11.945  0.00  0.00    +0.000 OA
ATOM     18  H   UNL     1       8.353   0.200  11.212  0.00  0.00    +0.000 HD
ENDBRANCH  15  17
ENDBRANCH  14  15
ENDBRANCH   1  14
TORSDOF 7
ENDMDL
MODEL 7
REMARK VINA RESULT:    -5.235      2.566      3.873
REMARK INTER + INTRA:          -7.710
REMARK INTER:                  -6.936
REMARK INTRA:                  -0.774
REMARK UNBOUND:                -0.639
REMARK  Name = 
REMARK  10 active torsions:
REMARK  status: ('A' for Active; 'I' for Inactive)
REMARK    1  A    between atoms: C_1  and  C_2
REMARK    2  A    between atoms: C_5  and  N_8
REMARK    3  A    between atoms: N_8  and  C_9
REMARK    4  A    between atoms: N_8  and  C_13
REMARK    5  A    between atoms: C_9  and  C_10
REMARK    6  A    between atoms: C_10  and  C_11
REMARK    7  A    between atoms: C_10  and  O_12
REMARK    8  A    between atoms: C_13  and  C_14
REMARK    9  A    between atoms: C_14  and  C_15
REMARK   10  A    between atoms: C_14  and  O_16
REMARK                            x       y       z     vdW  Elec       q    Type
REMARK                         _______ _______ _______ _____ _____    ______ ____
ROOT
ATOM      1  N   UNL     1      11.337   0.452   9.602  0.00  0.00    +0.000 N 
ENDROOT
BRANCH   1   6
ATOM      2  C   UNL     1      11.434  -4.836  11.916  0.00  0.00    +0.000 C 
ATOM      3  C   UNL     1      11.419  -3.473  11.295  0.00  0.00    +0.000 A 
ATOM      4  C   UNL     1      12.468  -2.583  11.501  0.00  0.00    +0.000 A 
ATOM      5  C   UNL     1      12.435  -1.296  10.941  0.00  0.00    +0.000 A 
ATOM      6  C   UNL     1      11.354  -0.827  10.173  0.00  0.00    +0.000 A 
ATOM      7  C   UNL     1      10.313  -1.754   9.983  0.00  0.00    +0.000 A 
ATOM      8  C   UNL     1      10.334  -3.045  10.536  0.00  0.00    +0.000 A 
ENDBRANCH   1   6
BRANCH   1   9
ATOM      9  C   UNL     1      11.867   0.661   8.233  0.00  0.00    +0.000 C 
BRANCH   9  10
ATOM     10  C   UNL     1      10.805   1.226   7.258  0.00  0.00    +0.000 C 
ATOM     11  C   UNL     1      11.225   1.007   5.809  0.00  0.00    +0.000 C 
BRANCH  10  12
ATOM     12  O   UNL     1       9.536   0.588   7.454  0.00  0.00    +0.000 OA
ATOM     13  H   UNL     1       9.185   0.342   6.582  0.00  0.00    +0.000 HD
ENDBRANCH  10  12
ENDBRANCH   9  10
ENDBRANCH   1   9
BRANCH   1  14
ATOM     14  C   UNL     1      11.294   1.672  10.448  0.00  0.00    +0.000 C 
BRANCH  14  15
ATOM     15  C   UNL     1       9.923   1.851  11.144  0.00  0.00    +0.000 C 
ATOM     16  C   UNL     1       9.785   3.191  11.858  0.00  0.00    +0.000 C 
BRANCH  15  17
ATOM     17  O   UNL     1       8.843   1.729  10.221  0.00  0.00    +0.000 OA
ATOM     18  H   UNL     1       8.955   2.477   9.600  0.00  0.00    +0.000 HD
ENDBRANCH  15  17
ENDBRANCH  14  15
ENDBRANCH   1  14
TORSDOF 7
ENDMDL
MODEL 8
REMARK VINA RESULT:    -5.199      3.395      5.618
REMARK INTER + INTRA:          -7.662
REMARK INTER:                  -6.819
REMARK INTRA:                  -0.842
REMARK UNBOUND:                -0.639
REMARK  Name = 
REMARK  10 active torsions:
REMARK  status: ('A' for Active; 'I' for Inactive)
REMARK    1  A    between atoms: C_1  and  C_2
REMARK    2  A    between atoms: C_5  and  N_8
REMARK    3  A    between atoms: N_8  and  C_9
REMARK    4  A    between atoms: N_8  and  C_13
REMARK    5  A    between atoms: C_9  and  C_10
REMARK    6  A    between atoms: C_10  and  C_11
REMARK    7  A    between atoms: C_10  and  O_12
REMARK    8  A    between atoms: C_13  and  C_14
REMARK    9  A    between atoms: C_14  and  C_15
REMARK   10  A    between atoms: C_14  and  O_16
REMARK                            x       y       z     vdW  Elec       q    Type
REMARK                         _______ _______ _______ _____ _____    ______ ____
ROOT
ATOM      1  N   UNL     1      11.319  -0.124  10.669  0.00  0.00    +0.000 N 
ENDROOT
BRANCH   1   6
ATOM      2  C   UNL     1      11.771   0.913   5.008  0.00  0.00    +0.000 C 
ATOM      3  C   UNL     1      11.647   0.668   6.480  0.00  0.00    +0.000 A 
ATOM      4  C   UNL     1      12.738   0.832   7.327  0.00  0.00    +0.000 A 
ATOM      5  C   UNL     1      12.623   0.571   8.702  0.00  0.00    +0.000 A 
ATOM      6  C   UNL     1      11.432   0.115   9.293  0.00  0.00    +0.000 A 
ATOM      7  C   UNL     1      10.349  -0.038   8.408  0.00  0.00    +0.000 A 
ATOM      8  C   UNL     1      10.449   0.221   7.031  0.00  0.00    +0.000 A 
ENDBRANCH   1   6
BRANCH   1   9
ATOM      9  C   UNL     1      11.215   1.013  11.615  0.00  0.00    +0.000 C 
BRANCH   9  10
ATOM     10  C   UNL     1       9.754   1.472  11.842  0.00  0.00    +0.000 C 
ATOM     11  C   UNL     1       9.389   2.614  10.901  0.00  0.00    +0.000 C 
BRANCH  10  12
ATOM     12  O   UNL     1       8.834   0.396  11.612  0.00  0.00    +0.000 OA
ATOM     13  H   UNL     1       9.076  -0.338  12.201  0.00  0.00    +0.000 HD
ENDBRANCH  10  12
ENDBRANCH   9  10
ENDBRANCH   1   9
BRANCH   1  14
ATOM     14  C   UNL     1      11.799  -1.395  11.270  0.00  0.00    +0.000 C 
BRANCH  14  15
ATOM     15  C   UNL     1      10.877  -2.589  10.926  0.00  0.00    +0.000 C 
ATOM     16  C   UNL     1      11.382  -3.916  11.479  0.00  0.00    +0.000 C 
BRANCH  15  17
ATOM     17  O   UNL     1       9.549  -2.386  11.409  0.00  0.00    +0.000 OA
ATOM     18  H   UNL     1       9.657  -2.155  12.353  0.00  0.00    +0.000 HD
ENDBRANCH  15  17
ENDBRANCH  14  15
ENDBRANCH   1  14
TORSDOF 7
ENDMDL
