MODEL 1
REMARK VINA RESULT:    -4.198      0.000      0.000
REMARK INTER + INTRA:          -6.294
REMARK INTER:                  -5.671
REMARK INTRA:                  -0.624
REMARK UNBOUND:                -0.624
REMARK  Name = 
REMARK  10 active torsions:
REMARK  status: ('A' for Active; 'I' for Inactive)
REMARK    1  A    between atoms: C_1  and  C_2
REMARK    2  A    between atoms: C_5  and  N_8
REMARK    3  A    between atoms: N_8  and  C_9
REMARK    4  A    between atoms: N_8  and  C_13
REMARK    5  A    between atoms: C_9  and  C_10
REMARK    6  A    between atoms: C_10  and  C_11
REMARK    7  A    between atoms: C_10  and  O_12
REMARK    8  A    between atoms: C_13  and  C_14
REMARK    9  A    between atoms: C_14  and  C_15
REMARK   10  A    between atoms: C_14  and  O_16
REMARK                            x       y       z     vdW  Elec       q    Type
REMARK                         _______ _______ _______ _____ _____    ______ ____
ROOT
ATOM      1  N   UNL     1      -0.614  20.450 -12.515  0.00  0.00    +0.000 N 
ENDROOT
BRANCH   1   6
ATOM      2  C   UNL     1      -2.116  15.111 -10.914  0.00  0.00    +0.000 C 
ATOM      3  C   UNL     1      -1.703  16.489 -11.330  0.00  0.00    +0.000 A 
ATOM      4  C   UNL     1      -1.408  17.464 -10.383  0.00  0.00    +0.000 A 
ATOM      5  C   UNL     1      -1.050  18.763 -10.779  0.00  0.00    +0.000 A 
ATOM      6  C   UNL     1      -0.991  19.159 -12.127  0.00  0.00    +0.000 A 
ATOM      7  C   UNL     1      -1.293  18.147 -13.058  0.00  0.00    +0.000 A 
ATOM      8  C   UNL     1      -1.650  16.844 -12.675  0.00  0.00    +0.000 A 
ENDBRANCH   1   6
BRANCH   1   9
ATOM      9  C   UNL     1      -1.556  21.300 -13.283  0.00  0.00    +0.000 C 
BRANCH   9  10
ATOM     10  C   UNL     1      -2.634  21.961 -12.389  0.00  0.00    +0.000 C 
ATOM     11  C   UNL     1      -3.918  21.139 -12.386  0.00  0.00    +0.000 C 
BRANCH  10  12
ATOM     12  O   UNL     1      -2.178  22.077 -11.034  0.00  0.00    +0.000 OA
ATOM     13  H   UNL     1      -2.707  22.765 -10.596  0.00  0.00    +0.000 HD
ENDBRANCH  10  12
ENDBRANCH   9  10
ENDBRANCH   1   9
BRANCH   1  14
ATOM     14  C   UNL     1       0.817  20.827 -12.648  0.00  0.00    +0.000 C 
BRANCH  14  15
ATOM     15  C   UNL     1       1.281  21.767 -11.510  0.00  0.00    +0.000 C 
ATOM     16  C   UNL     1       1.914  21.023 -10.339  0.00  0.00    +0.000 C 
BRANCH  15  17
ATOM     17  O   UNL     1       2.219  22.736 -11.976  0.00  0.00    +0.000 OA
ATOM     18  H   UNL     1       1.673  23.482 -12.296  0.00  0.00    +0.000 HD
ENDBRANCH  15  17
ENDBRANCH  14  15
ENDBRANCH   1  14
TORSDOF 7
ENDMDL
MODEL 2
REMARK VINA RESULT:    -3.978     21.486     22.456
REMARK INTER + INTRA:          -5.997
REMARK INTER:                  -5.276
REMARK INTRA:                  -0.721
REMARK UNBOUND:                -0.624
REMARK  Name = 
REMARK  10 active torsions:
REMARK  status: ('A' for Active; 'I' for Inactive)
REMARK    1  A    between atoms: C_1  and  C_2
REMARK    2  A    between atoms: C_5  and  N_8
REMARK    3  A    between atoms: N_8  and  C_9
REMARK    4  A    between atoms: N_8  and  C_13
REMARK    5  A    between atoms: C_9  and  C_10
REMARK    6  A    between atoms: C_10  and  C_11
REMARK    7  A    between atoms: C_10  and  O_12
REMARK    8  A    between atoms: C_13  and  C_14
REMARK    9  A    between atoms: C_14  and  C_15
REMARK   10  A    between atoms: C_14  and  O_16
REMARK                            x       y       z     vdW  Elec       q    Type
REMARK                         _______ _______ _______ _____ _____    ______ ____
ROOT
ATOM      1  N   UNL     1      11.755  21.257   6.735  0.00  0.00    +0.000 N 
ENDROOT
BRANCH   1   6
ATOM      2  C   UNL     1      16.160  18.959   3.796  0.00  0.00    +0.000 C 
ATOM      3  C   UNL     1      15.032  19.575   4.565  0.00  0.00    +0.000 A 
ATOM      4  C   UNL     1      14.804  19.234   5.895  0.00  0.00    +0.000 A 
ATOM      5  C   UNL     1      13.727  19.792   6.602  0.00  0.00    +0.000 A 
ATOM      6  C   UNL     1      12.816  20.690   6.018  0.00  0.00    +0.000 A 
ATOM      7  C   UNL     1      13.078  21.013   4.674  0.00  0.00    +0.000 A 
ATOM      8  C   UNL     1      14.153  20.465   3.955  0.00  0.00    +0.000 A 
ENDBRANCH   1   6
BRANCH   1   9
ATOM      9  C   UNL     1      11.712  22.721   6.967  0.00  0.00    +0.000 C 
BRANCH   9  10
ATOM     10  C   UNL     1      10.718  23.448   6.028  0.00  0.00    +0.000 C 
ATOM     11  C   UNL     1      11.459  24.252   4.966  0.00  0.00    +0.000 C 
BRANCH  10  12
ATOM     12  O   UNL     1       9.862  22.511   5.359  0.00  0.00    +0.000 OA
ATOM     13  H   UNL     1       9.833  22.749   4.418  0.00  0.00    +0.000 HD
ENDBRANCH  10  12
ENDBRANCH   9  10
ENDBRANCH   1   9
BRANCH   1  14
ATOM     14  C   UNL     1      10.956  20.450   7.693  0.00  0.00    +0.000 C 
BRANCH  14  15
ATOM     15  C   UNL     1      10.124  19.355   6.983  0.00  0.00    +0.000 C 
ATOM     16  C   UNL     1       9.449  18.392   7.952  0.00  0.00    +0.000 C 
BRANCH  15  17
ATOM     17  O   UNL     1       9.116  19.918   6.146  0.00  0.00    +0.000 OA
ATOM     18  H   UNL     1       8.602  19.153   5.818  0.00  0.00    +0.000 HD
ENDBRANCH  15  17
ENDBRANCH  14  15
ENDBRANCH   1  14
TORSDOF 7
ENDMDL
MODEL 3
REMARK VINA RESULT:    -3.953      1.502      1.603
REMARK INTER + INTRA:          -5.964
REMARK INTER:                  -5.458
REMARK INTRA:                  -0.505
REMARK UNBOUND:                -0.624
REMARK  Name = 
REMARK  10 active torsions:
REMARK  status: ('A' for Active; 'I' for Inactive)
REMARK    1  A    between atoms: C_1  and  C_2
REMARK    2  A    between atoms: C_5  and  N_8
REMARK    3  A    between atoms: N_8  and  C_9
REMARK    4  A    between atoms: N_8  and  C_13
REMARK    5  A    between atoms: C_9  and  C_10
REMARK    6  A    between atoms: C_10  and  C_11
REMARK    7  A    between atoms: C_10  and  O_12
REMARK    8  A    between atoms: C_13  and  C_14
REMARK    9  A    between atoms: C_14  and  C_15
REMARK   10  A    between atoms: C_14  and  O_16
REMARK                            x       y       z     vdW  Elec       q    Type
REMARK                         _______ _______ _______ _____ _____    ______ ____
ROOT
ATOM      1  N   UNL     1      -1.693  20.072 -12.269  0.00  0.00    +0.000 N 
ENDROOT
BRANCH   1   6
ATOM      2  C   UNL     1      -3.121  15.259  -9.419  0.00  0.00    +0.000 C 
ATOM      3  C   UNL     1      -2.744  16.494 -10.178  0.00  0.00    +0.000 A 
ATOM      4  C   UNL     1      -1.466  17.034 -10.074  0.00  0.00    +0.000 A 
ATOM      5  C   UNL     1      -1.127  18.209 -10.765  0.00  0.00    +0.000 A 
ATOM      6  C   UNL     1      -2.044  18.912 -11.568  0.00  0.00    +0.000 A 
ATOM      7  C   UNL     1      -3.325  18.336 -11.651  0.00  0.00    +0.000 A 
ATOM      8  C   UNL     1      -3.677  17.160 -10.968  0.00  0.00    +0.000 A 
ENDBRANCH   1   6
BRANCH   1   9
ATOM      9  C   UNL     1      -2.728  20.836 -13.006  0.00  0.00    +0.000 C 
BRANCH   9  10
ATOM     10  C   UNL     1      -3.213  22.088 -12.235  0.00  0.00    +0.000 C 
ATOM     11  C   UNL     1      -3.531  23.230 -13.194  0.00  0.00    +0.000 C 
BRANCH  10  12
ATOM     12  O   UNL     1      -4.397  21.801 -11.479  0.00  0.00    +0.000 OA
ATOM     13  H   UNL     1      -4.322  22.249 -10.620  0.00  0.00    +0.000 HD
ENDBRANCH  10  12
ENDBRANCH   9  10
ENDBRANCH   1   9
BRANCH   1  14
ATOM     14  C   UNL     1      -0.300  20.299 -12.733  0.00  0.00    +0.000 C 
BRANCH  14  15
ATOM     15  C   UNL     1       0.370  21.491 -12.009  0.00  0.00    +0.000 C 
ATOM     16  C   UNL     1       1.539  21.075 -11.124  0.00  0.00    +0.000 C 
BRANCH  15  17
ATOM     17  O   UNL     1       0.842  22.471 -12.932  0.00  0.00    +0.000 OA
ATOM     18  H   UNL     1       0.139  23.151 -12.961  0.00  0.00    +0.000 HD
ENDBRANCH  15  17
ENDBRANCH  14  15
ENDBRANCH   1  14
TORSDOF 7
ENDMDL
MODEL 4
REMARK VINA RESULT:    -3.941     18.981     21.394
REMARK INTER + INTRA:          -5.947
REMARK INTER:                  -5.578
REMARK INTRA:                  -0.368
REMARK UNBOUND:                -0.624
REMARK  Name = 
REMARK  10 active torsions:
REMARK  status: ('A' for Active; 'I' for Inactive)
REMARK    1  A    between atoms: C_1  and  C_2
REMARK    2  A    between atoms: C_5  and  N_8
REMARK    3  A    between atoms: N_8  and  C_9
REMARK    4  A    between atoms: N_8  and  C_13
REMARK    5  A    between atoms: C_9  and  C_10
REMARK    6  A    between atoms: C_10  and  C_11
REMARK    7  A    between atoms: C_10  and  O_12
REMARK    8  A    between atoms: C_13  and  C_14
REMARK    9  A    between atoms: C_14  and  C_15
REMARK   10  A    between atoms: C_14  and  O_16
REMARK                            x       y       z     vdW  Elec       q    Type
REMARK                         _______ _______ _______ _____ _____    ______ ____
ROOT
ATOM      1  N   UNL     1      11.536  21.554   5.947  0.00  0.00    +0.000 N 
ENDROOT
BRANCH   1   6
ATOM      2  C   UNL     1       7.228  24.410   3.377  0.00  0.00    +0.000 C 
ATOM      3  C   UNL     1       8.356  23.666   4.022  0.00  0.00    +0.000 A 
ATOM      4  C   UNL     1       8.276  22.294   4.238  0.00  0.00    +0.000 A 
ATOM      5  C   UNL     1       9.324  21.606   4.870  0.00  0.00    +0.000 A 
ATOM      6  C   UNL     1      10.485  22.249   5.335  0.00  0.00    +0.000 A 
ATOM      7  C   UNL     1      10.534  23.635   5.098  0.00  0.00    +0.000 A 
ATOM      8  C   UNL     1       9.493  24.335   4.465  0.00  0.00    +0.000 A 
ENDBRANCH   1   6
BRANCH   1   9
ATOM      9  C   UNL     1      11.352  20.967   7.297  0.00  0.00    +0.000 C 
BRANCH   9  10
ATOM     10  C   UNL     1      10.751  19.541   7.255  0.00  0.00    +0.000 C 
ATOM     11  C   UNL     1      11.566  18.580   8.112  0.00  0.00    +0.000 C 
BRANCH  10  12
ATOM     12  O   UNL     1       9.402  19.537   7.743  0.00  0.00    +0.000 OA
ATOM     13  H   UNL     1       8.928  18.807   7.312  0.00  0.00    +0.000 HD
ENDBRANCH  10  12
ENDBRANCH   9  10
ENDBRANCH   1   9
BRANCH   1  14
ATOM     14  C   UNL     1      12.949  21.798   5.560  0.00  0.00    +0.000 C 
BRANCH  14  15
ATOM     15  C   UNL     1      13.336  21.048   4.262  0.00  0.00    +0.000 C 
ATOM     16  C   UNL     1      14.300  21.833   3.381  0.00  0.00    +0.000 C 
BRANCH  15  17
ATOM     17  O   UNL     1      13.928  19.780   4.543  0.00  0.00    +0.000 OA
ATOM     18  H   UNL     1      14.770  19.778   4.044  0.00  0.00    +0.000 HD
ENDBRANCH  15  17
ENDBRANCH  14  15
ENDBRANCH   1  14
TORSDOF 7
ENDMDL
MODEL 5
REMARK VINA RESULT:    -3.919      1.454      3.504
REMARK INTER + INTRA:          -5.918
REMARK INTER:                  -5.487
REMARK INTRA:                  -0.431
REMARK UNBOUND:                -0.624
REMARK  Name = 
REMARK  10 active torsions:
REMARK  status: ('A' for Active; 'I' for Inactive)
REMARK    1  A    between atoms: C_1  and  C_2
REMARK    2  A    between atoms: C_5  and  N_8
REMARK    3  A    between atoms: N_8  and  C_9
REMARK    4  A    between atoms: N_8  and  C_13
REMARK    5  A    between atoms: C_9  and  C_10
REMARK    6  A    between atoms: C_10  and  C_11
REMARK    7  A    between atoms: C_10  and  O_12
REMARK    8  A    between atoms: C_13  and  C_14
REMARK    9  A    between atoms: C_14  and  C_15
REMARK   10  A    between atoms: C_14  and  O_16
REMARK                            x       y       z     vdW  Elec       q    Type
REMARK                         _______ _______ _______ _____ _____    ______ ____
ROOT
ATOM      1  N   UNL     1      -1.061  19.815 -11.816  0.00  0.00    +0.000 N 
ENDROOT
BRANCH   1   6
ATOM      2  C   UNL     1      -3.615  15.146  -9.577  0.00  0.00    +0.000 C 
ATOM      3  C   UNL     1      -2.961  16.371 -10.139  0.00  0.00    +0.000 A 
ATOM      4  C   UNL     1      -3.613  17.160 -11.082  0.00  0.00    +0.000 A 
ATOM      5  C   UNL     1      -2.983  18.290 -11.628  0.00  0.00    +0.000 A 
ATOM      6  C   UNL     1      -1.675  18.675 -11.282  0.00  0.00    +0.000 A 
ATOM      7  C   UNL     1      -1.048  17.856 -10.325  0.00  0.00    +0.000 A 
ATOM      8  C   UNL     1      -1.667  16.724  -9.769  0.00  0.00    +0.000 A 
ENDBRANCH   1   6
BRANCH   1   9
ATOM      9  C   UNL     1       0.101  20.425 -11.127  0.00  0.00    +0.000 C 
BRANCH   9  10
ATOM     10  C   UNL     1       0.973  21.289 -12.071  0.00  0.00    +0.000 C 
ATOM     11  C   UNL     1       1.199  22.678 -11.484  0.00  0.00    +0.000 C 
BRANCH  10  12
ATOM     12  O   UNL     1       2.255  20.683 -12.285  0.00  0.00    +0.000 OA
ATOM     13  H   UNL     1       2.923  21.222 -11.829  0.00  0.00    +0.000 HD
ENDBRANCH  10  12
ENDBRANCH   9  10
ENDBRANCH   1   9
BRANCH   1  14
ATOM     14  C   UNL     1      -1.796  20.728 -12.729  0.00  0.00    +0.000 C 
BRANCH  14  15
ATOM     15  C   UNL     1      -2.392  21.945 -11.982  0.00  0.00    +0.000 C 
ATOM     16  C   UNL     1      -2.343  23.232 -12.797  0.00  0.00    +0.000 C 
BRANCH  15  17
ATOM     17  O   UNL     1      -3.747  21.716 -11.599  0.00  0.00    +0.000 OA
ATOM     18  H   UNL     1      -3.878  22.259 -10.795  0.00  0.00    +0.000 HD
ENDBRANCH  15  17
ENDBRANCH  14  15
ENDBRANCH   1  14
TORSDOF 7
ENDMDL
MODEL 6
REMARK VINA RESULT:    -3.917      3.642      5.933
REMARK INTER + INTRA:          -5.914
REMARK INTER:                  -5.526
REMARK INTRA:                  -0.389
REMARK UNBOUND:                -0.624
REMARK  Name = 
REMARK  10 active torsions:
REMARK  status: ('A' for Active; 'I' for Inactive)
REMARK    1  A    between atoms: C_1  and  C_2
REMARK    2  A    between atoms: C_5  and  N_8
REMARK    3  A    between atoms: N_8  and  C_9
REMARK    4  A    between atoms: N_8  and  C_13
REMARK    5  A    between atoms: C_9  and  C_10
REMARK    6  A    between atoms: C_10  and  C_11
REMARK    7  A    between atoms: C_10  and  O_12
REMARK    8  A    between atoms: C_13  and  C_14
REMARK    9  A    between atoms: C_14  and  C_15
REMARK   10  A    between atoms: C_14  and  O_16
REMARK                            x       y       z     vdW  Elec       q    Type
REMARK                         _______ _______ _______ _____ _____    ______ ____
ROOT
ATOM      1  N   UNL     1      -2.678  17.080 -11.728  0.00  0.00    +0.000 N 
ENDROOT
BRANCH   1   6
ATOM      2  C   UNL     1       0.382  21.912 -12.515  0.00  0.00    +0.000 C 
ATOM      3  C   UNL     1      -0.392  20.644 -12.319  0.00  0.00    +0.000 A 
ATOM      4  C   UNL     1      -1.192  20.131 -13.334  0.00  0.00    +0.000 A 
ATOM      5  C   UNL     1      -1.940  18.959 -13.134  0.00  0.00    +0.000 A 
ATOM      6  C   UNL     1      -1.945  18.259 -11.914  0.00  0.00    +0.000 A 
ATOM      7  C   UNL     1      -1.124  18.805 -10.911  0.00  0.00    +0.000 A 
ATOM      8  C   UNL     1      -0.370  19.975 -11.098  0.00  0.00    +0.000 A 
ENDBRANCH   1   6
BRANCH   1   9
ATOM      9  C   UNL     1      -3.114  16.283 -12.900  0.00  0.00    +0.000 C 
BRANCH   9  10
ATOM     10  C   UNL     1      -2.162  15.102 -13.211  0.00  0.00    +0.000 C 
ATOM     11  C   UNL     1      -0.742  15.413 -12.753  0.00  0.00    +0.000 C 
BRANCH  10  12
ATOM     12  O   UNL     1      -2.591  13.906 -12.546  0.00  0.00    +0.000 OA
ATOM     13  H   UNL     1      -3.554  13.831 -12.653  0.00  0.00    +0.000 HD
ENDBRANCH  10  12
ENDBRANCH   9  10
ENDBRANCH   1   9
BRANCH   1  14
ATOM     14  C   UNL     1      -3.465  16.851 -10.489  0.00  0.00    +0.000 C 
BRANCH  14  15
ATOM     15  C   UNL     1      -2.965  15.618  -9.698  0.00  0.00    +0.000 C 
ATOM     16  C   UNL     1      -1.527  15.760  -9.212  0.00  0.00    +0.000 C 
BRANCH  15  17
ATOM     17  O   UNL     1      -3.790  15.349  -8.566  0.00  0.00    +0.000 OA
ATOM     18  H   UNL     1      -3.509  15.997  -7.889  0.00  0.00    +0.000 HD
ENDBRANCH  15  17
ENDBRANCH  14  15
ENDBRANCH   1  14
TORSDOF 7
ENDMDL
MODEL 7
REMARK VINA RESULT:    -3.783     21.341     22.349
REMARK INTER + INTRA:          -5.734
REMARK INTER:                  -5.258
REMARK INTRA:                  -0.475
REMARK UNBOUND:                -0.624
REMARK  Name = 
REMARK  10 active torsions:
REMARK  status: ('A' for Active; 'I' for Inactive)
REMARK    1  A    between atoms: C_1  and  C_2
REMARK    2  A    between atoms: C_5  and  N_8
REMARK    3  A    between atoms: N_8  and  C_9
REMARK    4  A    between atoms: N_8  and  C_13
REMARK    5  A    between atoms: C_9  and  C_10
REMARK    6  A    between atoms: C_10  and  C_11
REMARK    7  A    between atoms: C_10  and  O_12
REMARK    8  A    between atoms: C_13  and  C_14
REMARK    9  A    between atoms: C_14  and  C_15
REMARK   10  A    between atoms: C_14  and  O_16
REMARK                            x       y       z     vdW  Elec       q    Type
REMARK                         _______ _______ _______ _____ _____    ______ ____
ROOT
ATOM      1  N   UNL     1      14.396  20.853   4.471  0.00  0.00    +0.000 N 
ENDROOT
BRANCH   1   6
ATOM      2  C   UNL     1       9.876  19.488   7.794  0.00  0.00    +0.000 C 
ATOM      3  C   UNL     1      11.049  19.865   6.942  0.00  0.00    +0.000 A 
ATOM      4  C   UNL     1      10.867  20.401   5.672  0.00  0.00    +0.000 A 
ATOM      5  C   UNL     1      11.970  20.725   4.866  0.00  0.00    +0.000 A 
ATOM      6  C   UNL     1      13.300  20.510   5.273  0.00  0.00    +0.000 A 
ATOM      7  C   UNL     1      13.446  19.969   6.563  0.00  0.00    +0.000 A 
ATOM      8  C   UNL     1      12.352  19.643   7.381  0.00  0.00    +0.000 A 
ENDBRANCH   1   6
BRANCH   1   9
ATOM      9  C   UNL     1      14.193  21.646   3.235  0.00  0.00    +0.000 C 
BRANCH   9  10
ATOM     10  C   UNL     1      14.482  23.154   3.436  0.00  0.00    +0.000 C 
ATOM     11  C   UNL     1      15.219  23.733   2.234  0.00  0.00    +0.000 C 
BRANCH  10  12
ATOM     12  O   UNL     1      13.264  23.893   3.608  0.00  0.00    +0.000 OA
ATOM     13  H   UNL     1      13.267  24.275   4.501  0.00  0.00    +0.000 HD
ENDBRANCH  10  12
ENDBRANCH   9  10
ENDBRANCH   1   9
BRANCH   1  14
ATOM     14  C   UNL     1      15.651  20.060   4.506  0.00  0.00    +0.000 C 
BRANCH  14  15
ATOM     15  C   UNL     1      15.976  19.420   3.135  0.00  0.00    +0.000 C 
ATOM     16  C   UNL     1      17.464  19.434   2.804  0.00  0.00    +0.000 C 
BRANCH  15  17
ATOM     17  O   UNL     1      15.520  18.070   3.062  0.00  0.00    +0.000 OA
ATOM     18  H   UNL     1      14.556  18.137   2.906  0.00  0.00    +0.000 HD
ENDBRANCH  15  17
ENDBRANCH  14  15
ENDBRANCH   1  14
TORSDOF 7
ENDMDL
MODEL 8
REMARK VINA RESULT:    -3.765      3.453      6.250
REMARK INTER + INTRA:          -5.709
REMARK INTER:                  -5.366
REMARK INTRA:                  -0.343
REMARK UNBOUND:                -0.624
REMARK  Name = 
REMARK  10 active torsions:
REMARK  status: ('A' for Active; 'I' for Inactive)
REMARK    1  A    between atoms: C_1  and  C_2
REMARK    2  A    between atoms: C_5  and  N_8
REMARK    3  A    between atoms: N_8  and  C_9
REMARK    4  A    between atoms: N_8  and  C_13
REMARK    5  A    between atoms: C_9  and  C_10
REMARK    6  A    between atoms: C_10  and  C_11
REMARK    7  A    between atoms: C_10  and  O_12
REMARK    8  A    between atoms: C_13  and  C_14
REMARK    9  A    between atoms: C_14  and  C_15
REMARK   10  A    between atoms: C_14  and  O_16
REMARK                            x       y       z     vdW  Elec       q    Type
REMARK                         _______ _______ _______ _____ _____    ______ ____
ROOT
ATOM      1  N   UNL     1      -2.536  16.696 -11.412  0.00  0.00    +0.000 N 
ENDROOT
BRANCH   1   6
ATOM      2  C   UNL     1      -1.737  22.381 -12.021  0.00  0.00    +0.000 C 
ATOM      3  C   UNL     1      -1.954  20.910 -11.840  0.00  0.00    +0.000 A 
ATOM      4  C   UNL     1      -0.954  20.100 -11.314  0.00  0.00    +0.000 A 
ATOM      5  C   UNL     1      -1.152  18.717 -11.174  0.00  0.00    +0.000 A 
ATOM      6  C   UNL     1      -2.338  18.074 -11.572  0.00  0.00    +0.000 A 
ATOM      7  C   UNL     1      -3.328  18.924 -12.098  0.00  0.00    +0.000 A 
ATOM      8  C   UNL     1      -3.144  20.309 -12.240  0.00  0.00    +0.000 A 
ENDBRANCH   1   6
BRANCH   1   9
ATOM      9  C   UNL     1      -1.453  15.849 -10.856  0.00  0.00    +0.000 C 
BRANCH   9  10
ATOM     10  C   UNL     1      -1.613  15.591  -9.338  0.00  0.00    +0.000 C 
ATOM     11  C   UNL     1      -0.818  16.607  -8.526  0.00  0.00    +0.000 C 
BRANCH  10  12
ATOM     12  O   UNL     1      -2.988  15.684  -8.941  0.00  0.00    +0.000 OA
ATOM     13  H   UNL     1      -3.536  15.629  -9.741  0.00  0.00    +0.000 HD
ENDBRANCH  10  12
ENDBRANCH   9  10
ENDBRANCH   1   9
BRANCH   1  14
ATOM     14  C   UNL     1      -3.549  15.967 -12.217  0.00  0.00    +0.000 C 
BRANCH  14  15
ATOM     15  C   UNL     1      -3.312  14.437 -12.206  0.00  0.00    +0.000 C 
ATOM     16  C   UNL     1      -4.467  13.656 -11.592  0.00  0.00    +0.000 C 
BRANCH  15  17
ATOM     17  O   UNL     1      -3.085  13.930 -13.520  0.00  0.00    +0.000 OA
ATOM     18  H   UNL     1      -3.679  13.156 -13.599  0.00  0.00    +0.000 HD
ENDBRANCH  15  17
ENDBRANCH  14  15
ENDBRANCH   1  14
TORSDOF 7
ENDMDL
MODEL 9
REMARK VINA RESULT:    -3.674     20.849     23.040
REMARK INTER + INTRA:          -5.587
REMARK INTER:                  -4.848
REMARK INTRA:                  -0.739
REMARK UNBOUND:                -0.624
REMARK  Name = 
REMARK  10 active torsions:
REMARK  status: ('A' for Active; 'I' for Inactive)
REMARK    1  A    between atoms: C_1  and  C_2
REMARK    2  A    between atoms: C_5  and  N_8
REMARK    3  A    between atoms: N_8  and  C_9
REMARK    4  A    between atoms: N_8  and  C_13
REMARK    5  A    between atoms: C_9  and  C_10
REMARK    6  A    between atoms: C_10  and  C_11
REMARK    7  A    between atoms: C_10  and  O_12
REMARK    8  A    between atoms: C_13  and  C_14
REMARK    9  A    between atoms: C_14  and  C_15
REMARK   10  A    between atoms: C_14  and  O_16
REMARK                            x       y       z     vdW  Elec       q    Type
REMARK                         _______ _______ _______ _____ _____    ______ ____
ROOT
ATOM      1  N   UNL     1      15.121  20.847   4.856  0.00  0.00    +0.000 N 
ENDROOT
BRANCH   1   6
ATOM      2  C   UNL     1       9.742  22.942   4.908  0.00  0.00    +0.000 C 
ATOM      3  C   UNL     1      11.138  22.399   4.920  0.00  0.00    +0.000 A 
ATOM      4  C   UNL     1      12.236  23.250   4.853  0.00  0.00    +0.000 A 
ATOM      5  C   UNL     1      13.542  22.734   4.834  0.00  0.00    +0.000 A 
ATOM      6  C   UNL     1      13.816  21.355   4.856  0.00  0.00    +0.000 A 
ATOM      7  C   UNL     1      12.682  20.524   4.925  0.00  0.00    +0.000 A 
ATOM      8  C   UNL     1      11.371  21.027   4.947  0.00  0.00    +0.000 A 
ENDBRANCH   1   6
BRANCH   1   9
ATOM      9  C   UNL     1      15.923  20.860   6.103  0.00  0.00    +0.000 C 
BRANCH   9  10
ATOM     10  C   UNL     1      15.608  19.661   7.031  0.00  0.00    +0.000 C 
ATOM     11  C   UNL     1      14.583  20.047   8.091  0.00  0.00    +0.000 C 
BRANCH  10  12
ATOM     12  O   UNL     1      15.080  18.556   6.284  0.00  0.00    +0.000 OA
ATOM     13  H   UNL     1      14.963  18.844   5.363  0.00  0.00    +0.000 HD
ENDBRANCH  10  12
ENDBRANCH   9  10
ENDBRANCH   1   9
BRANCH   1  14
ATOM     14  C   UNL     1      15.915  20.769   3.603  0.00  0.00    +0.000 C 
BRANCH  14  15
ATOM     15  C   UNL     1      16.127  19.308   3.136  0.00  0.00    +0.000 C 
ATOM     16  C   UNL     1      17.444  18.710   3.616  0.00  0.00    +0.000 C 
BRANCH  15  17
ATOM     17  O   UNL     1      15.069  18.457   3.574  0.00  0.00    +0.000 OA
ATOM     18  H   UNL     1      15.144  17.655   3.018  0.00  0.00    +0.000 HD
ENDBRANCH  15  17
ENDBRANCH  14  15
ENDBRANCH   1  14
TORSDOF 7
ENDMDL
