MODEL 1
REMARK VINA RESULT:    -4.106      0.000      0.000
REMARK INTER + INTRA:          -4.501
REMARK INTER:                  -4.466
REMARK INTRA:                  -0.035
REMARK UNBOUND:                -0.035
REMARK  Name = 
REMARK  3 active torsions:
REMARK  status: ('A' for Active; 'I' for Inactive)
REMARK    1  A    between atoms: C_1  and  O_2
REMARK    2  A    between atoms: O_2  and  C_3
REMARK    3  A    between atoms: C_8  and  O_9
REMARK                            x       y       z     vdW  Elec       q    Type
REMARK                         _______ _______ _______ _____ _____    ______ ____
ROOT
ATOM      1  C   UNL     1       2.873  13.499   1.837  0.00  0.00    +0.000 A 
ATOM      2  C   UNL     1       2.346  13.639   3.121  0.00  0.00    +0.000 A 
ATOM      3  C   UNL     1       2.282  12.531   3.975  0.00  0.00    +0.000 A 
ATOM      4  C   UNL     1       2.742  11.283   3.551  0.00  0.00    +0.000 A 
ATOM      5  C   UNL     1       3.269  11.135   2.270  0.00  0.00    +0.000 A 
ATOM      6  C   UNL     1       3.329  12.240   1.430  0.00  0.00    +0.000 A 
ENDROOT
BRANCH   1   8
ATOM      7  C   UNL     1       4.068  15.409   1.082  0.00  0.00    +0.000 C 
ATOM      8  O   UNL     1       2.996  14.492   0.899  0.00  0.00    +0.000 OA
ENDBRANCH   1   8
BRANCH   6   9
ATOM      9  O   UNL     1       3.851  12.070   0.175  0.00  0.00    +0.000 OA
ATOM     10  H   UNL     1       3.081  12.113  -0.423  0.00  0.00    +0.000 HD
ENDBRANCH   6   9
TORSDOF 2
ENDMDL
MODEL 2
REMARK VINA RESULT:    -3.929     10.207     11.384
REMARK INTER + INTRA:          -4.308
REMARK INTER:                  -4.261
REMARK INTRA:                  -0.047
REMARK UNBOUND:                -0.035
REMARK  Name = 
REMARK  3 active torsions:
REMARK  status: ('A' for Active; 'I' for Inactive)
REMARK    1  A    between atoms: C_1  and  O_2
REMARK    2  A    between atoms: O_2  and  C_3
REMARK    3  A    between atoms: C_8  and  O_9
REMARK                            x       y       z     vdW  Elec       q    Type
REMARK                         _______ _______ _______ _____ _____    ______ ____
ROOT
ATOM      1  C   UNL     1       7.017  23.348   3.339  0.00  0.00    +0.000 A 
ATOM      2  C   UNL     1       7.905  24.412   3.493  0.00  0.00    +0.000 A 
ATOM      3  C   UNL     1       9.110  24.224   4.182  0.00  0.00    +0.000 A 
ATOM      4  C   UNL     1       9.431  22.976   4.719  0.00  0.00    +0.000 A 
ATOM      5  C   UNL     1       8.550  21.908   4.568  0.00  0.00    +0.000 A 
ATOM      6  C   UNL     1       7.357  22.103   3.884  0.00  0.00    +0.000 A 
ENDROOT
BRANCH   1   8
ATOM      7  C   UNL     1       5.788  24.027   1.422  0.00  0.00    +0.000 C 
ATOM      8  O   UNL     1       5.808  23.387   2.692  0.00  0.00    +0.000 OA
ENDBRANCH   1   8
BRANCH   6   9
ATOM      9  O   UNL     1       6.507  21.038   3.749  0.00  0.00    +0.000 OA
ATOM     10  H   UNL     1       6.990  20.404   3.186  0.00  0.00    +0.000 HD
ENDBRANCH   6   9
TORSDOF 2
ENDMDL
MODEL 3
REMARK VINA RESULT:    -3.852      9.779     11.180
REMARK INTER + INTRA:          -4.225
REMARK INTER:                  -4.183
REMARK INTRA:                  -0.042
REMARK UNBOUND:                -0.035
REMARK  Name = 
REMARK  3 active torsions:
REMARK  status: ('A' for Active; 'I' for Inactive)
REMARK    1  A    between atoms: C_1  and  O_2
REMARK    2  A    between atoms: O_2  and  C_3
REMARK    3  A    between atoms: C_8  and  O_9
REMARK                            x       y       z     vdW  Elec       q    Type
REMARK                         _______ _______ _______ _____ _____    ______ ____
ROOT
ATOM      1  C   UNL     1       8.067  22.172   4.305  0.00  0.00    +0.000 A 
ATOM      2  C   UNL     1       8.607  23.454   4.214  0.00  0.00    +0.000 A 
ATOM      3  C   UNL     1       8.004  24.410   3.387  0.00  0.00    +0.000 A 
ATOM      4  C   UNL     1       6.863  24.090   2.649  0.00  0.00    +0.000 A 
ATOM      5  C   UNL     1       6.317  22.811   2.735  0.00  0.00    +0.000 A 
ATOM      6  C   UNL     1       6.922  21.869   3.558  0.00  0.00    +0.000 A 
ENDROOT
BRANCH   1   8
ATOM      7  C   UNL     1       9.961  21.083   5.239  0.00  0.00    +0.000 C 
ATOM      8  O   UNL     1       8.550  21.141   5.070  0.00  0.00    +0.000 OA
ENDBRANCH   1   8
BRANCH   6   9
ATOM      9  O   UNL     1       6.367  20.619   3.626  0.00  0.00    +0.000 OA
ATOM     10  H   UNL     1       6.405  20.381   4.572  0.00  0.00    +0.000 HD
ENDBRANCH   6   9
TORSDOF 2
ENDMDL
MODEL 4
REMARK VINA RESULT:    -3.820     10.177     11.854
REMARK INTER + INTRA:          -4.190
REMARK INTER:                  -4.152
REMARK INTRA:                  -0.038
REMARK UNBOUND:                -0.035
REMARK  Name = 
REMARK  3 active torsions:
REMARK  status: ('A' for Active; 'I' for Inactive)
REMARK    1  A    between atoms: C_1  and  O_2
REMARK    2  A    between atoms: O_2  and  C_3
REMARK    3  A    between atoms: C_8  and  O_9
REMARK                            x       y       z     vdW  Elec       q    Type
REMARK                         _______ _______ _______ _____ _____    ______ ____
ROOT
ATOM      1  C   UNL     1       8.679  23.316   4.279  0.00  0.00    +0.000 A 
ATOM      2  C   UNL     1       8.236  24.386   3.503  0.00  0.00    +0.000 A 
ATOM      3  C   UNL     1       7.088  24.250   2.714  0.00  0.00    +0.000 A 
ATOM      4  C   UNL     1       6.379  23.047   2.696  0.00  0.00    +0.000 A 
ATOM      5  C   UNL     1       6.815  21.974   3.470  0.00  0.00    +0.000 A 
ATOM      6  C   UNL     1       7.956  22.118   4.249  0.00  0.00    +0.000 A 
ENDROOT
BRANCH   1   8
ATOM      7  C   UNL     1      10.671  24.412   4.972  0.00  0.00    +0.000 C 
ATOM      8  O   UNL     1       9.782  23.308   5.095  0.00  0.00    +0.000 OA
ENDBRANCH   1   8
BRANCH   6   9
ATOM      9  O   UNL     1       8.365  21.048   5.001  0.00  0.00    +0.000 OA
ATOM     10  H   UNL     1       7.772  21.049   5.776  0.00  0.00    +0.000 HD
ENDBRANCH   6   9
TORSDOF 2
ENDMDL
MODEL 5
REMARK VINA RESULT:    -3.636     10.248     11.883
REMARK INTER + INTRA:          -3.990
REMARK INTER:                  -3.943
REMARK INTRA:                  -0.046
REMARK UNBOUND:                -0.035
REMARK  Name = 
REMARK  3 active torsions:
REMARK  status: ('A' for Active; 'I' for Inactive)
REMARK    1  A    between atoms: C_1  and  O_2
REMARK    2  A    between atoms: O_2  and  C_3
REMARK    3  A    between atoms: C_8  and  O_9
REMARK                            x       y       z     vdW  Elec       q    Type
REMARK                         _______ _______ _______ _____ _____    ______ ____
ROOT
ATOM      1  C   UNL     1      10.703  19.757   7.130  0.00  0.00    +0.000 A 
ATOM      2  C   UNL     1      12.077  19.775   7.368  0.00  0.00    +0.000 A 
ATOM      3  C   UNL     1      12.944  20.333   6.420  0.00  0.00    +0.000 A 
ATOM      4  C   UNL     1      12.444  20.871   5.233  0.00  0.00    +0.000 A 
ATOM      5  C   UNL     1      11.072  20.857   4.988  0.00  0.00    +0.000 A 
ATOM      6  C   UNL     1      10.220  20.302   5.934  0.00  0.00    +0.000 A 
ENDROOT
BRANCH   1   8
ATOM      7  C   UNL     1       9.666  17.828   8.051  0.00  0.00    +0.000 C 
ATOM      8  O   UNL     1       9.742  19.246   7.965  0.00  0.00    +0.000 OA
ENDBRANCH   1   8
BRANCH   6   9
ATOM      9  O   UNL     1       8.876  20.299   5.670  0.00  0.00    +0.000 OA
ATOM     10  H   UNL     1       8.768  20.920   4.925  0.00  0.00    +0.000 HD
ENDBRANCH   6   9
TORSDOF 2
ENDMDL
MODEL 6
REMARK VINA RESULT:    -3.512     13.708     14.652
REMARK INTER + INTRA:          -3.855
REMARK INTER:                  -3.802
REMARK INTRA:                  -0.053
REMARK UNBOUND:                -0.035
REMARK  Name = 
REMARK  3 active torsions:
REMARK  status: ('A' for Active; 'I' for Inactive)
REMARK    1  A    between atoms: C_1  and  O_2
REMARK    2  A    between atoms: O_2  and  C_3
REMARK    3  A    between atoms: C_8  and  O_9
REMARK                            x       y       z     vdW  Elec       q    Type
REMARK                         _______ _______ _______ _____ _____    ______ ____
ROOT
ATOM      1  C   UNL     1      -2.533  16.173 -11.603  0.00  0.00    +0.000 A 
ATOM      2  C   UNL     1      -1.870  17.310 -11.142  0.00  0.00    +0.000 A 
ATOM      3  C   UNL     1      -1.160  17.265  -9.936  0.00  0.00    +0.000 A 
ATOM      4  C   UNL     1      -1.109  16.088  -9.187  0.00  0.00    +0.000 A 
ATOM      5  C   UNL     1      -1.768  14.947  -9.641  0.00  0.00    +0.000 A 
ATOM      6  C   UNL     1      -2.471  15.001 -10.839  0.00  0.00    +0.000 A 
ENDROOT
BRANCH   1   8
ATOM      7  C   UNL     1      -4.467  16.829 -12.816  0.00  0.00    +0.000 C 
ATOM      8  O   UNL     1      -3.264  16.073 -12.759  0.00  0.00    +0.000 OA
ENDBRANCH   1   8
BRANCH   6   9
ATOM      9  O   UNL     1      -3.110  13.868 -11.264  0.00  0.00    +0.000 OA
ATOM     10  H   UNL     1      -2.428  13.364 -11.747  0.00  0.00    +0.000 HD
ENDBRANCH   6   9
TORSDOF 2
ENDMDL
MODEL 7
REMARK VINA RESULT:    -3.426     10.925     12.035
REMARK INTER + INTRA:          -3.761
REMARK INTER:                  -3.722
REMARK INTRA:                  -0.040
REMARK UNBOUND:                -0.035
REMARK  Name = 
REMARK  3 active torsions:
REMARK  status: ('A' for Active; 'I' for Inactive)
REMARK    1  A    between atoms: C_1  and  O_2
REMARK    2  A    between atoms: O_2  and  C_3
REMARK    3  A    between atoms: C_8  and  O_9
REMARK                            x       y       z     vdW  Elec       q    Type
REMARK                         _______ _______ _______ _____ _____    ______ ____
ROOT
ATOM      1  C   UNL     1       8.983  22.462   4.628  0.00  0.00    +0.000 A 
ATOM      2  C   UNL     1       9.617  23.694   4.473  0.00  0.00    +0.000 A 
ATOM      3  C   UNL     1      10.935  23.863   4.917  0.00  0.00    +0.000 A 
ATOM      4  C   UNL     1      11.621  22.805   5.516  0.00  0.00    +0.000 A 
ATOM      5  C   UNL     1      10.994  21.571   5.673  0.00  0.00    +0.000 A 
ATOM      6  C   UNL     1       9.687  21.413   5.231  0.00  0.00    +0.000 A 
ENDROOT
BRANCH   1   8
ATOM      7  C   UNL     1       7.148  22.943   3.195  0.00  0.00    +0.000 C 
ATOM      8  O   UNL     1       7.702  22.156   4.243  0.00  0.00    +0.000 OA
ENDBRANCH   1   8
BRANCH   6   9
ATOM      9  O   UNL     1       9.092  20.191   5.397  0.00  0.00    +0.000 OA
ATOM     10  H   UNL     1       8.630  20.254   6.255  0.00  0.00    +0.000 HD
ENDBRANCH   6   9
TORSDOF 2
ENDMDL
MODEL 8
REMARK VINA RESULT:    -3.403     13.702     14.724
REMARK INTER + INTRA:          -3.736
REMARK INTER:                  -3.684
REMARK INTRA:                  -0.052
REMARK UNBOUND:                -0.035
REMARK  Name = 
REMARK  3 active torsions:
REMARK  status: ('A' for Active; 'I' for Inactive)
REMARK    1  A    between atoms: C_1  and  O_2
REMARK    2  A    between atoms: O_2  and  C_3
REMARK    3  A    between atoms: C_8  and  O_9
REMARK                            x       y       z     vdW  Elec       q    Type
REMARK                         _______ _______ _______ _____ _____    ______ ____
ROOT
ATOM      1  C   UNL     1      -3.307  16.210 -10.936  0.00  0.00    +0.000 A 
ATOM      2  C   UNL     1      -2.923  14.990 -10.381  0.00  0.00    +0.000 A 
ATOM      3  C   UNL     1      -1.759  14.909  -9.607  0.00  0.00    +0.000 A 
ATOM      4  C   UNL     1      -0.975  16.043  -9.386  0.00  0.00    +0.000 A 
ATOM      5  C   UNL     1      -1.352  17.266  -9.938  0.00  0.00    +0.000 A 
ATOM      6  C   UNL     1      -2.508  17.337 -10.704  0.00  0.00    +0.000 A 
ENDROOT
BRANCH   1   8
ATOM      7  C   UNL     1      -4.467  15.754 -12.959  0.00  0.00    +0.000 C 
ATOM      8  O   UNL     1      -4.416  16.436 -11.712  0.00  0.00    +0.000 OA
ENDBRANCH   1   8
BRANCH   6   9
ATOM      9  O   UNL     1      -2.857  18.550 -11.236  0.00  0.00    +0.000 OA
ATOM     10  H   UNL     1      -2.786  19.177 -10.492  0.00  0.00    +0.000 HD
ENDBRANCH   6   9
TORSDOF 2
ENDMDL
MODEL 9
REMARK VINA RESULT:    -3.314     13.435     14.419
REMARK INTER + INTRA:          -3.639
REMARK INTER:                  -3.602
REMARK INTRA:                  -0.038
REMARK UNBOUND:                -0.035
REMARK  Name = 
REMARK  3 active torsions:
REMARK  status: ('A' for Active; 'I' for Inactive)
REMARK    1  A    between atoms: C_1  and  O_2
REMARK    2  A    between atoms: O_2  and  C_3
REMARK    3  A    between atoms: C_8  and  O_9
REMARK                            x       y       z     vdW  Elec       q    Type
REMARK                         _______ _______ _______ _____ _____    ______ ____
ROOT
ATOM      1  C   UNL     1      -2.207  17.529 -10.794  0.00  0.00    +0.000 A 
ATOM      2  C   UNL     1      -1.134  17.309  -9.930  0.00  0.00    +0.000 A 
ATOM      3  C   UNL     1      -0.995  16.072  -9.288  0.00  0.00    +0.000 A 
ATOM      4  C   UNL     1      -1.925  15.053  -9.506  0.00  0.00    +0.000 A 
ATOM      5  C   UNL     1      -2.999  15.265 -10.367  0.00  0.00    +0.000 A 
ATOM      6  C   UNL     1      -3.129  16.495 -10.999  0.00  0.00    +0.000 A 
ENDROOT
BRANCH   1   8
ATOM      7  C   UNL     1      -1.437  19.666 -11.492  0.00  0.00    +0.000 C 
ATOM      8  O   UNL     1      -2.467  18.684 -11.485  0.00  0.00    +0.000 OA
ENDBRANCH   1   8
BRANCH   6   9
ATOM      9  O   UNL     1      -4.193  16.680 -11.841  0.00  0.00    +0.000 OA
ATOM     10  H   UNL     1      -3.988  17.503 -12.324  0.00  0.00    +0.000 HD
ENDBRANCH   6   9
TORSDOF 2
ENDMDL
