MODEL 1
REMARK VINA RESULT:    -5.848      0.000      0.000
REMARK INTER + INTRA:          -8.552
REMARK INTER:                  -7.899
REMARK INTRA:                  -0.652
REMARK UNBOUND:                -0.652
REMARK  Name = 
REMARK  10 active torsions:
REMARK  status: ('A' for Active; 'I' for Inactive)
REMARK    1  A    between atoms: C_1  and  C_2
REMARK    2  A    between atoms: C_5  and  N_8
REMARK    3  A    between atoms: N_8  and  C_9
REMARK    4  A    between atoms: N_8  and  C_13
REMARK    5  A    between atoms: C_9  and  C_10
REMARK    6  A    between atoms: C_10  and  C_11
REMARK    7  A    between atoms: C_10  and  O_12
REMARK    8  A    between atoms: C_13  and  C_14
REMARK    9  A    between atoms: C_14  and  C_15
REMARK   10  A    between atoms: C_14  and  O_16
REMARK                            x       y       z     vdW  Elec       q    Type
REMARK                         _______ _______ _______ _____ _____    ______ ____
ROOT
ATOM      1  N   UNL     1      11.465   1.270   7.606  0.00  0.00    +0.000 N 
ENDROOT
BRANCH   1   6
ATOM      2  C   UNL     1      12.021  -2.601  11.852  0.00  0.00    +0.000 C 
ATOM      3  C   UNL     1      11.868  -1.580  10.767  0.00  0.00    +0.000 A 
ATOM      4  C   UNL     1      10.698  -1.502  10.019  0.00  0.00    +0.000 A 
ATOM      5  C   UNL     1      10.571  -0.563   8.983  0.00  0.00    +0.000 A 
ATOM      6  C   UNL     1      11.605   0.323   8.627  0.00  0.00    +0.000 A 
ATOM      7  C   UNL     1      12.772   0.218   9.406  0.00  0.00    +0.000 A 
ATOM      8  C   UNL     1      12.911  -0.716  10.446  0.00  0.00    +0.000 A 
ENDBRANCH   1   6
BRANCH   1   9
ATOM      9  C   UNL     1      12.256   2.524   7.640  0.00  0.00    +0.000 C 
BRANCH   9  10
ATOM     10  C   UNL     1      13.229   2.652   6.442  0.00  0.00    +0.000 C 
ATOM     11  C   UNL     1      13.709   1.282   5.980  0.00  0.00    +0.000 C 
BRANCH  10  12
ATOM     12  O   UNL     1      12.593   3.298   5.330  0.00  0.00    +0.000 OA
ATOM     13  H   UNL     1      11.863   2.732   5.030  0.00  0.00    +0.000 HD
ENDBRANCH  10  12
ENDBRANCH   9  10
ENDBRANCH   1   9
BRANCH   1  14
ATOM     14  C   UNL     1      10.232   1.333   6.779  0.00  0.00    +0.000 C 
BRANCH  14  15
ATOM     15  C   UNL     1      10.390   0.581   5.436  0.00  0.00    +0.000 C 
ATOM     16  C   UNL     1       9.283  -0.435   5.183  0.00  0.00    +0.000 C 
BRANCH  15  17
ATOM     17  O   UNL     1      10.425   1.480   4.329  0.00  0.00    +0.000 OA
ATOM     18  H   UNL     1       9.766   1.129   3.697  0.00  0.00    +0.000 HD
ENDBRANCH  15  17
ENDBRANCH  14  15
ENDBRANCH   1  14
TORSDOF 7
ENDMDL
MODEL 2
REMARK VINA RESULT:    -5.803      0.704      3.034
REMARK INTER + INTRA:          -8.491
REMARK INTER:                  -8.030
REMARK INTRA:                  -0.461
REMARK UNBOUND:                -0.652
REMARK  Name = 
REMARK  10 active torsions:
REMARK  status: ('A' for Active; 'I' for Inactive)
REMARK    1  A    between atoms: C_1  and  C_2
REMARK    2  A    between atoms: C_5  and  N_8
REMARK    3  A    between atoms: N_8  and  C_9
REMARK    4  A    between atoms: N_8  and  C_13
REMARK    5  A    between atoms: C_9  and  C_10
REMARK    6  A    between atoms: C_10  and  C_11
REMARK    7  A    between atoms: C_10  and  O_12
REMARK    8  A    between atoms: C_13  and  C_14
REMARK    9  A    between atoms: C_14  and  C_15
REMARK   10  A    between atoms: C_14  and  O_16
REMARK                            x       y       z     vdW  Elec       q    Type
REMARK                         _______ _______ _______ _____ _____    ______ ____
ROOT
ATOM      1  N   UNL     1      11.479   0.969   7.146  0.00  0.00    +0.000 N 
ENDROOT
BRANCH   1   6
ATOM      2  C   UNL     1      12.312  -1.961  12.050  0.00  0.00    +0.000 C 
ATOM      3  C   UNL     1      12.102  -1.221  10.764  0.00  0.00    +0.000 A 
ATOM      4  C   UNL     1      13.127  -0.472  10.196  0.00  0.00    +0.000 A 
ATOM      5  C   UNL     1      12.916   0.244   9.006  0.00  0.00    +0.000 A 
ATOM      6  C   UNL     1      11.677   0.268   8.342  0.00  0.00    +0.000 A 
ATOM      7  C   UNL     1      10.664  -0.501   8.944  0.00  0.00    +0.000 A 
ATOM      8  C   UNL     1      10.862  -1.224  10.132  0.00  0.00    +0.000 A 
ENDBRANCH   1   6
BRANCH   1   9
ATOM      9  C   UNL     1      10.149   0.958   6.489  0.00  0.00    +0.000 C 
BRANCH   9  10
ATOM     10  C   UNL     1      10.183   0.322   5.078  0.00  0.00    +0.000 C 
ATOM     11  C   UNL     1       9.147  -0.789   4.956  0.00  0.00    +0.000 C 
BRANCH  10  12
ATOM     12  O   UNL     1       9.906   1.301   4.066  0.00  0.00    +0.000 OA
ATOM     13  H   UNL     1      10.576   1.210   3.368  0.00  0.00    +0.000 HD
ENDBRANCH  10  12
ENDBRANCH   9  10
ENDBRANCH   1   9
BRANCH   1  14
ATOM     14  C   UNL     1      12.616   1.293   6.247  0.00  0.00    +0.000 C 
BRANCH  14  15
ATOM     15  C   UNL     1      12.805   2.818   6.070  0.00  0.00    +0.000 C 
ATOM     16  C   UNL     1      14.057   3.180   5.279  0.00  0.00    +0.000 C 
BRANCH  15  17
ATOM     17  O   UNL     1      11.684   3.416   5.420  0.00  0.00    +0.000 OA
ATOM     18  H   UNL     1      10.927   3.248   6.017  0.00  0.00    +0.000 HD
ENDBRANCH  15  17
ENDBRANCH  14  15
ENDBRANCH   1  14
TORSDOF 7
ENDMDL
MODEL 3
REMARK VINA RESULT:    -5.579      3.321      5.487
REMARK INTER + INTRA:          -8.188
REMARK INTER:                  -7.557
REMARK INTRA:                  -0.631
REMARK UNBOUND:                -0.652
REMARK  Name = 
REMARK  10 active torsions:
REMARK  status: ('A' for Active; 'I' for Inactive)
REMARK    1  A    between atoms: C_1  and  C_2
REMARK    2  A    between atoms: C_5  and  N_8
REMARK    3  A    between atoms: N_8  and  C_9
REMARK    4  A    between atoms: N_8  and  C_13
REMARK    5  A    between atoms: C_9  and  C_10
REMARK    6  A    between atoms: C_10  and  C_11
REMARK    7  A    between atoms: C_10  and  O_12
REMARK    8  A    between atoms: C_13  and  C_14
REMARK    9  A    between atoms: C_14  and  C_15
REMARK   10  A    between atoms: C_14  and  O_16
REMARK                            x       y       z     vdW  Elec       q    Type
REMARK                         _______ _______ _______ _____ _____    ______ ____
ROOT
ATOM      1  N   UNL     1      11.369   0.838  10.517  0.00  0.00    +0.000 N 
ENDROOT
BRANCH   1   6
ATOM      2  C   UNL     1      13.750   2.591   5.558  0.00  0.00    +0.000 C 
ATOM      3  C   UNL     1      13.110   2.136   6.834  0.00  0.00    +0.000 A 
ATOM      4  C   UNL     1      12.680   3.055   7.785  0.00  0.00    +0.000 A 
ATOM      5  C   UNL     1      12.108   2.623   8.992  0.00  0.00    +0.000 A 
ATOM      6  C   UNL     1      11.958   1.263   9.319  0.00  0.00    +0.000 A 
ATOM      7  C   UNL     1      12.402   0.362   8.334  0.00  0.00    +0.000 A 
ATOM      8  C   UNL     1      12.974   0.781   7.121  0.00  0.00    +0.000 A 
ENDBRANCH   1   6
BRANCH   1   9
ATOM      9  C   UNL     1      11.071   1.820  11.587  0.00  0.00    +0.000 C 
BRANCH   9  10
ATOM     10  C   UNL     1       9.559   2.129  11.714  0.00  0.00    +0.000 C 
ATOM     11  C   UNL     1       9.325   3.615  11.957  0.00  0.00    +0.000 C 
BRANCH  10  12
ATOM     12  O   UNL     1       8.856   1.759  10.519  0.00  0.00    +0.000 OA
ATOM     13  H   UNL     1       8.007   1.364  10.780  0.00  0.00    +0.000 HD
ENDBRANCH  10  12
ENDBRANCH   9  10
ENDBRANCH   1   9
BRANCH   1  14
ATOM     14  C   UNL     1      11.489  -0.569  10.976  0.00  0.00    +0.000 C 
BRANCH  14  15
ATOM     15  C   UNL     1      10.230  -1.403  10.636  0.00  0.00    +0.000 C 
ATOM     16  C   UNL     1      10.511  -2.898  10.534  0.00  0.00    +0.000 C 
BRANCH  15  17
ATOM     17  O   UNL     1       9.196  -1.214  11.601  0.00  0.00    +0.000 OA
ATOM     18  H   UNL     1       9.327  -1.929  12.256  0.00  0.00    +0.000 HD
ENDBRANCH  15  17
ENDBRANCH  14  15
ENDBRANCH   1  14
TORSDOF 7
ENDMDL
MODEL 4
REMARK VINA RESULT:    -5.370      1.806      3.496
REMARK INTER + INTRA:          -7.906
REMARK INTER:                  -7.666
REMARK INTRA:                  -0.240
REMARK UNBOUND:                -0.652
REMARK  Name = 
REMARK  10 active torsions:
REMARK  status: ('A' for Active; 'I' for Inactive)
REMARK    1  A    between atoms: C_1  and  C_2
REMARK    2  A    between atoms: C_5  and  N_8
REMARK    3  A    between atoms: N_8  and  C_9
REMARK    4  A    between atoms: N_8  and  C_13
REMARK    5  A    between atoms: C_9  and  C_10
REMARK    6  A    between atoms: C_10  and  C_11
REMARK    7  A    between atoms: C_10  and  O_12
REMARK    8  A    between atoms: C_13  and  C_14
REMARK    9  A    between atoms: C_14  and  C_15
REMARK   10  A    between atoms: C_14  and  O_16
REMARK                            x       y       z     vdW  Elec       q    Type
REMARK                         _______ _______ _______ _____ _____    ______ ____
ROOT
ATOM      1  N   UNL     1      11.800   1.289   6.861  0.00  0.00    +0.000 N 
ENDROOT
BRANCH   1   6
ATOM      2  C   UNL     1       9.464   0.309  12.049  0.00  0.00    +0.000 C 
ATOM      3  C   UNL     1      10.093   0.559  10.712  0.00  0.00    +0.000 A 
ATOM      4  C   UNL     1      10.478   1.840  10.332  0.00  0.00    +0.000 A 
ATOM      5  C   UNL     1      11.039   2.073   9.066  0.00  0.00    +0.000 A 
ATOM      6  C   UNL     1      11.221   1.053   8.115  0.00  0.00    +0.000 A 
ATOM      7  C   UNL     1      10.823  -0.230   8.534  0.00  0.00    +0.000 A 
ATOM      8  C   UNL     1      10.262  -0.477   9.798  0.00  0.00    +0.000 A 
ENDBRANCH   1   6
BRANCH   1   9
ATOM      9  C   UNL     1      10.940   1.433   5.661  0.00  0.00    +0.000 C 
BRANCH   9  10
ATOM     10  C   UNL     1      10.715   0.092   4.921  0.00  0.00    +0.000 C 
ATOM     11  C   UNL     1       9.267  -0.367   5.054  0.00  0.00    +0.000 C 
BRANCH  10  12
ATOM     12  O   UNL     1      11.014   0.219   3.524  0.00  0.00    +0.000 OA
ATOM     13  H   UNL     1      11.683  -0.449   3.297  0.00  0.00    +0.000 HD
ENDBRANCH  10  12
ENDBRANCH   9  10
ENDBRANCH   1   9
BRANCH   1  14
ATOM     14  C   UNL     1      13.207   0.906   6.579  0.00  0.00    +0.000 C 
BRANCH  14  15
ATOM     15  C   UNL     1      13.844   1.792   5.481  0.00  0.00    +0.000 C 
ATOM     16  C   UNL     1      13.634   3.283   5.716  0.00  0.00    +0.000 C 
BRANCH  15  17
ATOM     17  O   UNL     1      15.247   1.557   5.363  0.00  0.00    +0.000 OA
ATOM     18  H   UNL     1      15.458   0.921   6.077  0.00  0.00    +0.000 HD
ENDBRANCH  15  17
ENDBRANCH  14  15
ENDBRANCH   1  14
TORSDOF 7
ENDMDL
MODEL 5
REMARK VINA RESULT:    -5.279      3.244      5.665
REMARK INTER + INTRA:          -7.783
REMARK INTER:                  -7.079
REMARK INTRA:                  -0.703
REMARK UNBOUND:                -0.652
REMARK  Name = 
REMARK  10 active torsions:
REMARK  status: ('A' for Active; 'I' for Inactive)
REMARK    1  A    between atoms: C_1  and  C_2
REMARK    2  A    between atoms: C_5  and  N_8
REMARK    3  A    between atoms: N_8  and  C_9
REMARK    4  A    between atoms: N_8  and  C_13
REMARK    5  A    between atoms: C_9  and  C_10
REMARK    6  A    between atoms: C_10  and  C_11
REMARK    7  A    between atoms: C_10  and  O_12
REMARK    8  A    between atoms: C_13  and  C_14
REMARK    9  A    between atoms: C_14  and  C_15
REMARK   10  A    between atoms: C_14  and  O_16
REMARK                            x       y       z     vdW  Elec       q    Type
REMARK                         _______ _______ _______ _____ _____    ______ ____
ROOT
ATOM      1  N   UNL     1      11.443   1.393   9.688  0.00  0.00    +0.000 N 
ENDROOT
BRANCH   1   6
ATOM      2  C   UNL     1      10.216   0.565   4.108  0.00  0.00    +0.000 C 
ATOM      3  C   UNL     1      10.515   0.795   5.558  0.00  0.00    +0.000 A 
ATOM      4  C   UNL     1      11.399   1.793   5.955  0.00  0.00    +0.000 A 
ATOM      5  C   UNL     1      11.699   1.984   7.313  0.00  0.00    +0.000 A 
ATOM      6  C   UNL     1      11.155   1.183   8.334  0.00  0.00    +0.000 A 
ATOM      7  C   UNL     1      10.263   0.187   7.896  0.00  0.00    +0.000 A 
ATOM      8  C   UNL     1       9.953  -0.014   6.541  0.00  0.00    +0.000 A 
ENDBRANCH   1   6
BRANCH   1   9
ATOM      9  C   UNL     1      10.766   2.482  10.432  0.00  0.00    +0.000 C 
BRANCH   9  10
ATOM     10  C   UNL     1       9.871   1.957  11.582  0.00  0.00    +0.000 C 
ATOM     11  C   UNL     1       8.846   3.006  11.998  0.00  0.00    +0.000 C 
BRANCH  10  12
ATOM     12  O   UNL     1       9.160   0.776  11.183  0.00  0.00    +0.000 OA
ATOM     13  H   UNL     1       8.219   1.003  11.104  0.00  0.00    +0.000 HD
ENDBRANCH  10  12
ENDBRANCH   9  10
ENDBRANCH   1   9
BRANCH   1  14
ATOM     14  C   UNL     1      12.726   0.936  10.281  0.00  0.00    +0.000 C 
BRANCH  14  15
ATOM     15  C   UNL     1      12.774  -0.602  10.453  0.00  0.00    +0.000 C 
ATOM     16  C   UNL     1      14.090  -1.098  11.042  0.00  0.00    +0.000 C 
BRANCH  15  17
ATOM     17  O   UNL     1      11.714  -1.073  11.283  0.00  0.00    +0.000 OA
ATOM     18  H   UNL     1      12.129  -1.241  12.153  0.00  0.00    +0.000 HD
ENDBRANCH  15  17
ENDBRANCH  14  15
ENDBRANCH   1  14
TORSDOF 7
ENDMDL
MODEL 6
REMARK VINA RESULT:    -5.271      3.238      5.466
REMARK INTER + INTRA:          -7.773
REMARK INTER:                  -7.298
REMARK INTRA:                  -0.475
REMARK UNBOUND:                -0.652
REMARK  Name = 
REMARK  10 active torsions:
REMARK  status: ('A' for Active; 'I' for Inactive)
REMARK    1  A    between atoms: C_1  and  C_2
REMARK    2  A    between atoms: C_5  and  N_8
REMARK    3  A    between atoms: N_8  and  C_9
REMARK    4  A    between atoms: N_8  and  C_13
REMARK    5  A    between atoms: C_9  and  C_10
REMARK    6  A    between atoms: C_10  and  C_11
REMARK    7  A    between atoms: C_10  and  O_12
REMARK    8  A    between atoms: C_13  and  C_14
REMARK    9  A    between atoms: C_14  and  C_15
REMARK   10  A    between atoms: C_14  and  O_16
REMARK                            x       y       z     vdW  Elec       q    Type
REMARK                         _______ _______ _______ _____ _____    ______ ____
ROOT
ATOM      1  N   UNL     1      11.779   0.454   9.843  0.00  0.00    +0.000 N 
ENDROOT
BRANCH   1   6
ATOM      2  C   UNL     1      13.896   3.151   5.198  0.00  0.00    +0.000 C 
ATOM      3  C   UNL     1      13.324   2.451   6.392  0.00  0.00    +0.000 A 
ATOM      4  C   UNL     1      12.818   3.171   7.469  0.00  0.00    +0.000 A 
ATOM      5  C   UNL     1      12.311   2.509   8.599  0.00  0.00    +0.000 A 
ATOM      6  C   UNL     1      12.304   1.108   8.721  0.00  0.00    +0.000 A 
ATOM      7  C   UNL     1      12.820   0.412   7.613  0.00  0.00    +0.000 A 
ATOM      8  C   UNL     1      13.329   1.061   6.476  0.00  0.00    +0.000 A 
ENDBRANCH   1   6
BRANCH   1   9
ATOM      9  C   UNL     1      12.588  -0.562  10.558  0.00  0.00    +0.000 C 
BRANCH   9  10
ATOM     10  C   UNL     1      13.379   0.031  11.750  0.00  0.00    +0.000 C 
ATOM     11  C   UNL     1      14.851  -0.356  11.673  0.00  0.00    +0.000 C 
BRANCH  10  12
ATOM     12  O   UNL     1      13.296   1.463  11.761  0.00  0.00    +0.000 OA
ATOM     13  H   UNL     1      13.367   1.776  10.844  0.00  0.00    +0.000 HD
ENDBRANCH  10  12
ENDBRANCH   9  10
ENDBRANCH   1   9
BRANCH   1  14
ATOM     14  C   UNL     1      10.312   0.344  10.052  0.00  0.00    +0.000 C 
BRANCH  14  15
ATOM     15  C   UNL     1       9.832   1.169  11.271  0.00  0.00    +0.000 C 
ATOM     16  C   UNL     1       9.323   2.555  10.894  0.00  0.00    +0.000 C 
BRANCH  15  17
ATOM     17  O   UNL     1       8.797   0.498  11.987  0.00  0.00    +0.000 OA
ATOM     18  H   UNL     1       8.744   0.961  12.847  0.00  0.00    +0.000 HD
ENDBRANCH  15  17
ENDBRANCH  14  15
ENDBRANCH   1  14
TORSDOF 7
ENDMDL
MODEL 7
REMARK VINA RESULT:    -5.242      2.560      3.843
REMARK INTER + INTRA:          -7.733
REMARK INTER:                  -6.979
REMARK INTRA:                  -0.754
REMARK UNBOUND:                -0.652
REMARK  Name = 
REMARK  10 active torsions:
REMARK  status: ('A' for Active; 'I' for Inactive)
REMARK    1  A    between atoms: C_1  and  C_2
REMARK    2  A    between atoms: C_5  and  N_8
REMARK    3  A    between atoms: N_8  and  C_9
REMARK    4  A    between atoms: N_8  and  C_13
REMARK    5  A    between atoms: C_9  and  C_10
REMARK    6  A    between atoms: C_10  and  C_11
REMARK    7  A    between atoms: C_10  and  O_12
REMARK    8  A    between atoms: C_13  and  C_14
REMARK    9  A    between atoms: C_14  and  C_15
REMARK   10  A    between atoms: C_14  and  O_16
REMARK                            x       y       z     vdW  Elec       q    Type
REMARK                         _______ _______ _______ _____ _____    ______ ____
ROOT
ATOM      1  N   UNL     1      11.323   0.530   9.591  0.00  0.00    +0.000 N 
ENDROOT
BRANCH   1   6
ATOM      2  C   UNL     1      11.431  -4.783  11.846  0.00  0.00    +0.000 C 
ATOM      3  C   UNL     1      11.414  -3.413  11.240  0.00  0.00    +0.000 A 
ATOM      4  C   UNL     1      12.459  -2.522  11.461  0.00  0.00    +0.000 A 
ATOM      5  C   UNL     1      12.423  -1.228  10.915  0.00  0.00    +0.000 A 
ATOM      6  C   UNL     1      11.343  -0.755  10.148  0.00  0.00    +0.000 A 
ATOM      7  C   UNL     1      10.306  -1.684   9.944  0.00  0.00    +0.000 A 
ATOM      8  C   UNL     1      10.330  -2.981  10.483  0.00  0.00    +0.000 A 
ENDBRANCH   1   6
BRANCH   1   9
ATOM      9  C   UNL     1      11.837   0.752   8.218  0.00  0.00    +0.000 C 
BRANCH   9  10
ATOM     10  C   UNL     1      10.757   1.304   7.255  0.00  0.00    +0.000 C 
ATOM     11  C   UNL     1      11.197   1.163   5.803  0.00  0.00    +0.000 C 
BRANCH  10  12
ATOM     12  O   UNL     1       9.517   0.600   7.414  0.00  0.00    +0.000 OA
ATOM     13  H   UNL     1       9.447   0.320   8.342  0.00  0.00    +0.000 HD
ENDBRANCH  10  12
ENDBRANCH   9  10
ENDBRANCH   1   9
BRANCH   1  14
ATOM     14  C   UNL     1      11.295   1.741  10.451  0.00  0.00    +0.000 C 
BRANCH  14  15
ATOM     15  C   UNL     1       9.919   1.943  11.131  0.00  0.00    +0.000 C 
ATOM     16  C   UNL     1       9.758   3.321  11.761  0.00  0.00    +0.000 C 
BRANCH  15  17
ATOM     17  O   UNL     1       8.844   1.748  10.213  0.00  0.00    +0.000 OA
ATOM     18  H   UNL     1       8.033   1.807  10.757  0.00  0.00    +0.000 HD
ENDBRANCH  15  17
ENDBRANCH  14  15
ENDBRANCH   1  14
TORSDOF 7
ENDMDL
MODEL 8
REMARK VINA RESULT:    -5.222      3.148      5.344
REMARK INTER + INTRA:          -7.706
REMARK INTER:                  -7.264
REMARK INTRA:                  -0.441
REMARK UNBOUND:                -0.652
REMARK  Name = 
REMARK  10 active torsions:
REMARK  status: ('A' for Active; 'I' for Inactive)
REMARK    1  A    between atoms: C_1  and  C_2
REMARK    2  A    between atoms: C_5  and  N_8
REMARK    3  A    between atoms: N_8  and  C_9
REMARK    4  A    between atoms: N_8  and  C_13
REMARK    5  A    between atoms: C_9  and  C_10
REMARK    6  A    between atoms: C_10  and  C_11
REMARK    7  A    between atoms: C_10  and  O_12
REMARK    8  A    between atoms: C_13  and  C_14
REMARK    9  A    between atoms: C_14  and  C_15
REMARK   10  A    between atoms: C_14  and  O_16
REMARK                            x       y       z     vdW  Elec       q    Type
REMARK                         _______ _______ _______ _____ _____    ______ ____
ROOT
ATOM      1  N   UNL     1      11.561   0.804   9.434  0.00  0.00    +0.000 N 
ENDROOT
BRANCH   1   6
ATOM      2  C   UNL     1      10.256   0.435   3.823  0.00  0.00    +0.000 C 
ATOM      3  C   UNL     1      10.590   0.555   5.278  0.00  0.00    +0.000 A 
ATOM      4  C   UNL     1      11.892   0.813   5.694  0.00  0.00    +0.000 A 
ATOM      5  C   UNL     1      12.204   0.894   7.061  0.00  0.00    +0.000 A 
ATOM      6  C   UNL     1      11.247   0.701   8.073  0.00  0.00    +0.000 A 
ATOM      7  C   UNL     1       9.941   0.445   7.616  0.00  0.00    +0.000 A 
ATOM      8  C   UNL     1       9.615   0.363   6.253  0.00  0.00    +0.000 A 
ENDBRANCH   1   6
BRANCH   1   9
ATOM      9  C   UNL     1      12.957   1.073   9.856  0.00  0.00    +0.000 C 
BRANCH   9  10
ATOM     10  C   UNL     1      13.413   0.172  11.030  0.00  0.00    +0.000 C 
ATOM     11  C   UNL     1      14.280  -0.977  10.531  0.00  0.00    +0.000 C 
BRANCH  10  12
ATOM     12  O   UNL     1      14.176   0.921  11.987  0.00  0.00    +0.000 OA
ATOM     13  H   UNL     1      14.770   0.305  12.447  0.00  0.00    +0.000 HD
ENDBRANCH  10  12
ENDBRANCH   9  10
ENDBRANCH   1   9
BRANCH   1  14
ATOM     14  C   UNL     1      10.707   0.169  10.471  0.00  0.00    +0.000 C 
BRANCH  14  15
ATOM     15  C   UNL     1      10.017   1.215  11.379  0.00  0.00    +0.000 C 
ATOM     16  C   UNL     1       9.615   2.483  10.635  0.00  0.00    +0.000 C 
BRANCH  15  17
ATOM     17  O   UNL     1       8.851   0.682  12.005  0.00  0.00    +0.000 OA
ATOM     18  H   UNL     1       8.677   1.275  12.763  0.00  0.00    +0.000 HD
ENDBRANCH  15  17
ENDBRANCH  14  15
ENDBRANCH   1  14
TORSDOF 7
ENDMDL
MODEL 9
REMARK VINA RESULT:    -5.105      2.436      3.299
REMARK INTER + INTRA:          -7.548
REMARK INTER:                  -7.125
REMARK INTRA:                  -0.424
REMARK UNBOUND:                -0.652
REMARK  Name = 
REMARK  10 active torsions:
REMARK  status: ('A' for Active; 'I' for Inactive)
REMARK    1  A    between atoms: C_1  and  C_2
REMARK    2  A    between atoms: C_5  and  N_8
REMARK    3  A    between atoms: N_8  and  C_9
REMARK    4  A    between atoms: N_8  and  C_13
REMARK    5  A    between atoms: C_9  and  C_10
REMARK    6  A    between atoms: C_10  and  C_11
REMARK    7  A    between atoms: C_10  and  O_12
REMARK    8  A    between atoms: C_13  and  C_14
REMARK    9  A    between atoms: C_14  and  C_15
REMARK   10  A    between atoms: C_14  and  O_16
REMARK                            x       y       z     vdW  Elec       q    Type
REMARK                         _______ _______ _______ _____ _____    ______ ____
ROOT
ATOM      1  N   UNL     1      11.150   0.983   9.066  0.00  0.00    +0.000 N 
ENDROOT
BRANCH   1   6
ATOM      2  C   UNL     1      11.479  -4.181  11.626  0.00  0.00    +0.000 C 
ATOM      3  C   UNL     1      11.381  -2.833  10.981  0.00  0.00    +0.000 A 
ATOM      4  C   UNL     1      10.334  -2.528  10.117  0.00  0.00    +0.000 A 
ATOM      5  C   UNL     1      10.264  -1.272   9.492  0.00  0.00    +0.000 A 
ATOM      6  C   UNL     1      11.237  -0.274   9.678  0.00  0.00    +0.000 A 
ATOM      7  C   UNL     1      12.279  -0.616  10.559  0.00  0.00    +0.000 A 
ATOM      8  C   UNL     1      12.361  -1.867  11.192  0.00  0.00    +0.000 A 
ENDBRANCH   1   6
BRANCH   1   9
ATOM      9  C   UNL     1      11.053   2.208   9.896  0.00  0.00    +0.000 C 
BRANCH   9  10
ATOM     10  C   UNL     1       9.934   2.123  10.963  0.00  0.00    +0.000 C 
ATOM     11  C   UNL     1       9.771   3.454  11.689  0.00  0.00    +0.000 C 
BRANCH  10  12
ATOM     12  O   UNL     1       8.675   1.788  10.363  0.00  0.00    +0.000 OA
ATOM     13  H   UNL     1       8.572   2.324   9.559  0.00  0.00    +0.000 HD
ENDBRANCH  10  12
ENDBRANCH   9  10
ENDBRANCH   1   9
BRANCH   1  14
ATOM     14  C   UNL     1      10.646   1.129   7.677  0.00  0.00    +0.000 C 
BRANCH  14  15
ATOM     15  C   UNL     1      11.699   1.765   6.737  0.00  0.00    +0.000 C 
ATOM     16  C   UNL     1      12.945   0.905   6.563  0.00  0.00    +0.000 C 
BRANCH  15  17
ATOM     17  O   UNL     1      11.159   2.030   5.443  0.00  0.00    +0.000 OA
ATOM     18  H   UNL     1      10.364   1.463   5.380  0.00  0.00    +0.000 HD
ENDBRANCH  15  17
ENDBRANCH  14  15
ENDBRANCH   1  14
TORSDOF 7
ENDMDL
