MODEL 1
REMARK VINA RESULT:    -4.543      0.000      0.000
REMARK INTER + INTRA:          -6.597
REMARK INTER:                  -6.136
REMARK INTRA:                  -0.461
REMARK UNBOUND:                -0.461
REMARK  Name = 
REMARK  10 active torsions:
REMARK  status: ('A' for Active; 'I' for Inactive)
REMARK    1  A    between atoms: C_1  and  C_2
REMARK    2  A    between atoms: C_5  and  N_8
REMARK    3  A    between atoms: N_8  and  C_9
REMARK    4  A    between atoms: N_8  and  C_13
REMARK    5  A    between atoms: C_9  and  C_10
REMARK    6  A    between atoms: C_10  and  C_11
REMARK    7  A    between atoms: C_10  and  O_12
REMARK    8  A    between atoms: C_13  and  C_14
REMARK    9  A    between atoms: C_14  and  C_15
REMARK   10  A    between atoms: C_14  and  O_16
REMARK                            x       y       z     vdW  Elec       q    Type
REMARK                         _______ _______ _______ _____ _____    ______ ____
ROOT
ATOM      1  N   UNL     1      -4.269  14.643  -2.995  0.00  0.00    +0.000 N 
ENDROOT
BRANCH   1   6
ATOM      2  C   UNL     1      -3.340  15.809   2.583  0.00  0.00    +0.000 C 
ATOM      3  C   UNL     1      -3.594  15.486   1.142  0.00  0.00    +0.000 A 
ATOM      4  C   UNL     1      -2.681  14.738   0.406  0.00  0.00    +0.000 A 
ATOM      5  C   UNL     1      -2.909  14.464  -0.952  0.00  0.00    +0.000 A 
ATOM      6  C   UNL     1      -4.038  14.937  -1.645  0.00  0.00    +0.000 A 
ATOM      7  C   UNL     1      -4.941  15.688  -0.869  0.00  0.00    +0.000 A 
ATOM      8  C   UNL     1      -4.726  15.968   0.490  0.00  0.00    +0.000 A 
ENDBRANCH   1   6
BRANCH   1   9
ATOM      9  C   UNL     1      -4.402  15.741  -3.982  0.00  0.00    +0.000 C 
BRANCH   9  10
ATOM     10  C   UNL     1      -3.856  15.360  -5.380  0.00  0.00    +0.000 C 
ATOM     11  C   UNL     1      -4.539  16.175  -6.473  0.00  0.00    +0.000 C 
BRANCH  10  12
ATOM     12  O   UNL     1      -2.444  15.600  -5.464  0.00  0.00    +0.000 OA
ATOM     13  H   UNL     1      -2.311  16.525  -5.730  0.00  0.00    +0.000 HD
ENDBRANCH  10  12
ENDBRANCH   9  10
ENDBRANCH   1   9
BRANCH   1  14
ATOM     14  C   UNL     1      -4.883  13.355  -3.407  0.00  0.00    +0.000 C 
BRANCH  14  15
ATOM     15  C   UNL     1      -6.426  13.376  -3.282  0.00  0.00    +0.000 C 
ATOM     16  C   UNL     1      -7.137  13.290  -4.628  0.00  0.00    +0.000 C 
BRANCH  15  17
ATOM     17  O   UNL     1      -6.903  12.312  -2.461  0.00  0.00    +0.000 OA
ATOM     18  H   UNL     1      -6.207  11.626  -2.506  0.00  0.00    +0.000 HD
ENDBRANCH  15  17
ENDBRANCH  14  15
ENDBRANCH   1  14
TORSDOF 7
ENDMDL
MODEL 2
REMARK VINA RESULT:    -4.384      2.591      4.372
REMARK INTER + INTRA:          -6.383
REMARK INTER:                  -5.990
REMARK INTRA:                  -0.393
REMARK UNBOUND:                -0.461
REMARK  Name = 
REMARK  10 active torsions:
REMARK  status: ('A' for Active; 'I' for Inactive)
REMARK    1  A    between atoms: C_1  and  C_2
REMARK    2  A    between atoms: C_5  and  N_8
REMARK    3  A    between atoms: N_8  and  C_9
REMARK    4  A    between atoms: N_8  and  C_13
REMARK    5  A    between atoms: C_9  and  C_10
REMARK    6  A    between atoms: C_10  and  C_11
REMARK    7  A    between atoms: C_10  and  O_12
REMARK    8  A    between atoms: C_13  and  C_14
REMARK    9  A    between atoms: C_14  and  C_15
REMARK   10  A    between atoms: C_14  and  O_16
REMARK                            x       y       z     vdW  Elec       q    Type
REMARK                         _______ _______ _______ _____ _____    ______ ____
ROOT
ATOM      1  N   UNL     1      -3.553  15.597  -0.067  0.00  0.00    +0.000 N 
ENDROOT
BRANCH   1   6
ATOM      2  C   UNL     1      -2.888  16.919   5.513  0.00  0.00    +0.000 C 
ATOM      3  C   UNL     1      -3.085  16.583   4.066  0.00  0.00    +0.000 A 
ATOM      4  C   UNL     1      -3.466  15.304   3.675  0.00  0.00    +0.000 A 
ATOM      5  C   UNL     1      -3.619  14.987   2.316  0.00  0.00    +0.000 A 
ATOM      6  C   UNL     1      -3.379  15.915   1.286  0.00  0.00    +0.000 A 
ATOM      7  C   UNL     1      -2.997  17.198   1.718  0.00  0.00    +0.000 A 
ATOM      8  C   UNL     1      -2.842  17.529   3.074  0.00  0.00    +0.000 A 
ENDBRANCH   1   6
BRANCH   1   9
ATOM      9  C   UNL     1      -4.836  15.903  -0.744  0.00  0.00    +0.000 C 
BRANCH   9  10
ATOM     10  C   UNL     1      -4.698  15.985  -2.284  0.00  0.00    +0.000 C 
ATOM     11  C   UNL     1      -5.886  15.325  -2.974  0.00  0.00    +0.000 C 
BRANCH  10  12
ATOM     12  O   UNL     1      -4.632  17.349  -2.723  0.00  0.00    +0.000 OA
ATOM     13  H   UNL     1      -5.503  17.755  -2.579  0.00  0.00    +0.000 HD
ENDBRANCH  10  12
ENDBRANCH   9  10
ENDBRANCH   1   9
BRANCH   1  14
ATOM     14  C   UNL     1      -2.741  14.537  -0.719  0.00  0.00    +0.000 C 
BRANCH  14  15
ATOM     15  C   UNL     1      -1.281  14.521  -0.205  0.00  0.00    +0.000 C 
ATOM     16  C   UNL     1      -0.894  13.206   0.460  0.00  0.00    +0.000 C 
BRANCH  15  17
ATOM     17  O   UNL     1      -0.350  14.776  -1.256  0.00  0.00    +0.000 OA
ATOM     18  H   UNL     1       0.524  14.804  -0.818  0.00  0.00    +0.000 HD
ENDBRANCH  15  17
ENDBRANCH  14  15
ENDBRANCH   1  14
TORSDOF 7
ENDMDL
MODEL 3
REMARK VINA RESULT:    -4.349      2.526      4.204
REMARK INTER + INTRA:          -6.336
REMARK INTER:                  -5.940
REMARK INTRA:                  -0.396
REMARK UNBOUND:                -0.461
REMARK  Name = 
REMARK  10 active torsions:
REMARK  status: ('A' for Active; 'I' for Inactive)
REMARK    1  A    between atoms: C_1  and  C_2
REMARK    2  A    between atoms: C_5  and  N_8
REMARK    3  A    between atoms: N_8  and  C_9
REMARK    4  A    between atoms: N_8  and  C_13
REMARK    5  A    between atoms: C_9  and  C_10
REMARK    6  A    between atoms: C_10  and  C_11
REMARK    7  A    between atoms: C_10  and  O_12
REMARK    8  A    between atoms: C_13  and  C_14
REMARK    9  A    between atoms: C_14  and  C_15
REMARK   10  A    between atoms: C_14  and  O_16
REMARK                            x       y       z     vdW  Elec       q    Type
REMARK                         _______ _______ _______ _____ _____    ______ ____
ROOT
ATOM      1  N   UNL     1      -3.675  15.512  -0.079  0.00  0.00    +0.000 N 
ENDROOT
BRANCH   1   6
ATOM      2  C   UNL     1      -2.812  17.012   5.428  0.00  0.00    +0.000 C 
ATOM      3  C   UNL     1      -3.060  16.630   4.001  0.00  0.00    +0.000 A 
ATOM      4  C   UNL     1      -3.430  15.332   3.663  0.00  0.00    +0.000 A 
ATOM      5  C   UNL     1      -3.632  14.972   2.321  0.00  0.00    +0.000 A 
ATOM      6  C   UNL     1      -3.453  15.873   1.256  0.00  0.00    +0.000 A 
ATOM      7  C   UNL     1      -3.081  17.176   1.635  0.00  0.00    +0.000 A 
ATOM      8  C   UNL     1      -2.878  17.550   2.973  0.00  0.00    +0.000 A 
ENDBRANCH   1   6
BRANCH   1   9
ATOM      9  C   UNL     1      -2.785  14.528  -0.741  0.00  0.00    +0.000 C 
BRANCH   9  10
ATOM     10  C   UNL     1      -1.321  14.615  -0.246  0.00  0.00    +0.000 C 
ATOM     11  C   UNL     1      -0.874  13.294   0.369  0.00  0.00    +0.000 C 
BRANCH  10  12
ATOM     12  O   UNL     1      -0.430  14.926  -1.326  0.00  0.00    +0.000 OA
ATOM     13  H   UNL     1      -0.400  14.160  -1.922  0.00  0.00    +0.000 HD
ENDBRANCH  10  12
ENDBRANCH   9  10
ENDBRANCH   1   9
BRANCH   1  14
ATOM     14  C   UNL     1      -4.413  16.409  -1.006  0.00  0.00    +0.000 C 
BRANCH  14  15
ATOM     15  C   UNL     1      -4.800  15.696  -2.324  0.00  0.00    +0.000 C 
ATOM     16  C   UNL     1      -6.302  15.487  -2.474  0.00  0.00    +0.000 C 
BRANCH  15  17
ATOM     17  O   UNL     1      -4.337  16.414  -3.467  0.00  0.00    +0.000 OA
ATOM     18  H   UNL     1      -4.125  15.726  -4.129  0.00  0.00    +0.000 HD
ENDBRANCH  15  17
ENDBRANCH  14  15
ENDBRANCH   1  14
TORSDOF 7
ENDMDL
MODEL 4
REMARK VINA RESULT:    -4.324      0.758      3.489
REMARK INTER + INTRA:          -6.302
REMARK INTER:                  -5.856
REMARK INTRA:                  -0.446
REMARK UNBOUND:                -0.461
REMARK  Name = 
REMARK  10 active torsions:
REMARK  status: ('A' for Active; 'I' for Inactive)
REMARK    1  A    between atoms: C_1  and  C_2
REMARK    2  A    between atoms: C_5  and  N_8
REMARK    3  A    between atoms: N_8  and  C_9
REMARK    4  A    between atoms: N_8  and  C_13
REMARK    5  A    between atoms: C_9  and  C_10
REMARK    6  A    between atoms: C_10  and  C_11
REMARK    7  A    between atoms: C_10  and  O_12
REMARK    8  A    between atoms: C_13  and  C_14
REMARK    9  A    between atoms: C_14  and  C_15
REMARK   10  A    between atoms: C_14  and  O_16
REMARK                            x       y       z     vdW  Elec       q    Type
REMARK                         _______ _______ _______ _____ _____    ______ ____
ROOT
ATOM      1  N   UNL     1      -5.012  15.075  -3.404  0.00  0.00    +0.000 N 
ENDROOT
BRANCH   1   6
ATOM      2  C   UNL     1      -3.171  15.384   2.059  0.00  0.00    +0.000 C 
ATOM      3  C   UNL     1      -3.635  15.324   0.636  0.00  0.00    +0.000 A 
ATOM      4  C   UNL     1      -4.818  15.943   0.244  0.00  0.00    +0.000 A 
ATOM      5  C   UNL     1      -5.264  15.858  -1.085  0.00  0.00    +0.000 A 
ATOM      6  C   UNL     1      -4.571  15.139  -2.076  0.00  0.00    +0.000 A 
ATOM      7  C   UNL     1      -3.379  14.528  -1.644  0.00  0.00    +0.000 A 
ATOM      8  C   UNL     1      -2.921  14.607  -0.319  0.00  0.00    +0.000 A 
ENDBRANCH   1   6
BRANCH   1   9
ATOM      9  C   UNL     1      -5.384  13.770  -4.001  0.00  0.00    +0.000 C 
BRANCH   9  10
ATOM     10  C   UNL     1      -6.915  13.601  -4.166  0.00  0.00    +0.000 C 
ATOM     11  C   UNL     1      -7.252  12.237  -4.757  0.00  0.00    +0.000 C 
BRANCH  10  12
ATOM     12  O   UNL     1      -7.585  13.716  -2.903  0.00  0.00    +0.000 OA
ATOM     13  H   UNL     1      -7.044  13.266  -2.233  0.00  0.00    +0.000 HD
ENDBRANCH  10  12
ENDBRANCH   9  10
ENDBRANCH   1   9
BRANCH   1  14
ATOM     14  C   UNL     1      -4.652  16.130  -4.385  0.00  0.00    +0.000 C 
BRANCH  14  15
ATOM     15  C   UNL     1      -3.845  15.568  -5.580  0.00  0.00    +0.000 C 
ATOM     16  C   UNL     1      -4.129  16.293  -6.890  0.00  0.00    +0.000 C 
BRANCH  15  17
ATOM     17  O   UNL     1      -2.440  15.622  -5.340  0.00  0.00    +0.000 OA
ATOM     18  H   UNL     1      -2.335  16.244  -4.592  0.00  0.00    +0.000 HD
ENDBRANCH  15  17
ENDBRANCH  14  15
ENDBRANCH   1  14
TORSDOF 7
ENDMDL
MODEL 5
REMARK VINA RESULT:    -4.291      3.204      5.705
REMARK INTER + INTRA:          -6.258
REMARK INTER:                  -5.723
REMARK INTRA:                  -0.535
REMARK UNBOUND:                -0.461
REMARK  Name = 
REMARK  10 active torsions:
REMARK  status: ('A' for Active; 'I' for Inactive)
REMARK    1  A    between atoms: C_1  and  C_2
REMARK    2  A    between atoms: C_5  and  N_8
REMARK    3  A    between atoms: N_8  and  C_9
REMARK    4  A    between atoms: N_8  and  C_13
REMARK    5  A    between atoms: C_9  and  C_10
REMARK    6  A    between atoms: C_10  and  C_11
REMARK    7  A    between atoms: C_10  and  O_12
REMARK    8  A    between atoms: C_13  and  C_14
REMARK    9  A    between atoms: C_14  and  C_15
REMARK   10  A    between atoms: C_14  and  O_16
REMARK                            x       y       z     vdW  Elec       q    Type
REMARK                         _______ _______ _______ _____ _____    ______ ____
ROOT
ATOM      1  N   UNL     1      -3.606  15.997  -0.405  0.00  0.00    +0.000 N 
ENDROOT
BRANCH   1   6
ATOM      2  C   UNL     1      -7.568  13.713  -3.928  0.00  0.00    +0.000 C 
ATOM      3  C   UNL     1      -6.544  14.288  -2.997  0.00  0.00    +0.000 A 
ATOM      4  C   UNL     1      -6.889  15.271  -2.076  0.00  0.00    +0.000 A 
ATOM      5  C   UNL     1      -5.919  15.827  -1.226  0.00  0.00    +0.000 A 
ATOM      6  C   UNL     1      -4.564  15.452  -1.269  0.00  0.00    +0.000 A 
ATOM      7  C   UNL     1      -4.252  14.454  -2.211  0.00  0.00    +0.000 A 
ATOM      8  C   UNL     1      -5.213  13.888  -3.065  0.00  0.00    +0.000 A 
ENDBRANCH   1   6
BRANCH   1   9
ATOM      9  C   UNL     1      -3.745  17.393   0.074  0.00  0.00    +0.000 C 
BRANCH   9  10
ATOM     10  C   UNL     1      -2.504  17.886   0.857  0.00  0.00    +0.000 C 
ATOM     11  C   UNL     1      -2.400  19.406   0.814  0.00  0.00    +0.000 C 
BRANCH  10  12
ATOM     12  O   UNL     1      -2.570  17.483   2.233  0.00  0.00    +0.000 OA
ATOM     13  H   UNL     1      -2.651  16.516   2.260  0.00  0.00    +0.000 HD
ENDBRANCH  10  12
ENDBRANCH   9  10
ENDBRANCH   1   9
BRANCH   1  14
ATOM     14  C   UNL     1      -2.225  15.451  -0.345  0.00  0.00    +0.000 C 
BRANCH  14  15
ATOM     15  C   UNL     1      -2.130  14.202   0.563  0.00  0.00    +0.000 C 
ATOM     16  C   UNL     1      -0.867  13.382   0.324  0.00  0.00    +0.000 C 
BRANCH  15  17
ATOM     17  O   UNL     1      -2.174  14.550   1.946  0.00  0.00    +0.000 OA
ATOM     18  H   UNL     1      -2.014  15.515   1.968  0.00  0.00    +0.000 HD
ENDBRANCH  15  17
ENDBRANCH  14  15
ENDBRANCH   1  14
TORSDOF 7
ENDMDL
MODEL 6
REMARK VINA RESULT:    -4.229      3.905      7.267
REMARK INTER + INTRA:          -6.174
REMARK INTER:                  -5.645
REMARK INTRA:                  -0.529
REMARK UNBOUND:                -0.461
REMARK  Name = 
REMARK  10 active torsions:
REMARK  status: ('A' for Active; 'I' for Inactive)
REMARK    1  A    between atoms: C_1  and  C_2
REMARK    2  A    between atoms: C_5  and  N_8
REMARK    3  A    between atoms: N_8  and  C_9
REMARK    4  A    between atoms: N_8  and  C_13
REMARK    5  A    between atoms: C_9  and  C_10
REMARK    6  A    between atoms: C_10  and  C_11
REMARK    7  A    between atoms: C_10  and  O_12
REMARK    8  A    between atoms: C_13  and  C_14
REMARK    9  A    between atoms: C_14  and  C_15
REMARK   10  A    between atoms: C_14  and  O_16
REMARK                            x       y       z     vdW  Elec       q    Type
REMARK                         _______ _______ _______ _____ _____    ______ ____
ROOT
ATOM      1  N   UNL     1      -3.989  17.066   2.223  0.00  0.00    +0.000 N 
ENDROOT
BRANCH   1   6
ATOM      2  C   UNL     1      -4.313  14.069  -2.701  0.00  0.00    +0.000 C 
ATOM      3  C   UNL     1      -4.238  14.827  -1.411  0.00  0.00    +0.000 A 
ATOM      4  C   UNL     1      -5.290  15.637  -0.996  0.00  0.00    +0.000 A 
ATOM      5  C   UNL     1      -5.202  16.369   0.199  0.00  0.00    +0.000 A 
ATOM      6  C   UNL     1      -4.062  16.349   1.022  0.00  0.00    +0.000 A 
ATOM      7  C   UNL     1      -3.019  15.518   0.573  0.00  0.00    +0.000 A 
ATOM      8  C   UNL     1      -3.094  14.779  -0.619  0.00  0.00    +0.000 A 
ENDBRANCH   1   6
BRANCH   1   9
ATOM      9  C   UNL     1      -4.696  16.571   3.428  0.00  0.00    +0.000 C 
BRANCH   9  10
ATOM     10  C   UNL     1      -3.991  15.356   4.081  0.00  0.00    +0.000 C 
ATOM     11  C   UNL     1      -2.562  15.704   4.478  0.00  0.00    +0.000 C 
BRANCH  10  12
ATOM     12  O   UNL     1      -4.688  14.929   5.260  0.00  0.00    +0.000 OA
ATOM     13  H   UNL     1      -4.219  15.284   6.033  0.00  0.00    +0.000 HD
ENDBRANCH  10  12
ENDBRANCH   9  10
ENDBRANCH   1   9
BRANCH   1  14
ATOM     14  C   UNL     1      -3.678  18.518   2.233  0.00  0.00    +0.000 C 
BRANCH  14  15
ATOM     15  C   UNL     1      -2.204  18.804   1.860  0.00  0.00    +0.000 C 
ATOM     16  C   UNL     1      -2.011  20.141   1.155  0.00  0.00    +0.000 C 
BRANCH  15  17
ATOM     17  O   UNL     1      -1.356  18.784   3.008  0.00  0.00    +0.000 OA
ATOM     18  H   UNL     1      -1.844  18.258   3.673  0.00  0.00    +0.000 HD
ENDBRANCH  15  17
ENDBRANCH  14  15
ENDBRANCH   1  14
TORSDOF 7
ENDMDL
MODEL 7
REMARK VINA RESULT:    -4.179      3.166      5.881
REMARK INTER + INTRA:          -6.106
REMARK INTER:                  -5.590
REMARK INTRA:                  -0.516
REMARK UNBOUND:                -0.461
REMARK  Name = 
REMARK  10 active torsions:
REMARK  status: ('A' for Active; 'I' for Inactive)
REMARK    1  A    between atoms: C_1  and  C_2
REMARK    2  A    between atoms: C_5  and  N_8
REMARK    3  A    between atoms: N_8  and  C_9
REMARK    4  A    between atoms: N_8  and  C_13
REMARK    5  A    between atoms: C_9  and  C_10
REMARK    6  A    between atoms: C_10  and  C_11
REMARK    7  A    between atoms: C_10  and  O_12
REMARK    8  A    between atoms: C_13  and  C_14
REMARK    9  A    between atoms: C_14  and  C_15
REMARK   10  A    between atoms: C_14  and  O_16
REMARK                            x       y       z     vdW  Elec       q    Type
REMARK                         _______ _______ _______ _____ _____    ______ ____
ROOT
ATOM      1  N   UNL     1      -3.453  16.054  -0.513  0.00  0.00    +0.000 N 
ENDROOT
BRANCH   1   6
ATOM      2  C   UNL     1      -7.306  13.352  -3.857  0.00  0.00    +0.000 C 
ATOM      3  C   UNL     1      -6.304  14.071  -3.006  0.00  0.00    +0.000 A 
ATOM      4  C   UNL     1      -4.946  13.786  -3.106  0.00  0.00    +0.000 A 
ATOM      5  C   UNL     1      -4.015  14.442  -2.285  0.00  0.00    +0.000 A 
ATOM      6  C   UNL     1      -4.389  15.389  -1.315  0.00  0.00    +0.000 A 
ATOM      7  C   UNL     1      -5.769  15.654  -1.244  0.00  0.00    +0.000 A 
ATOM      8  C   UNL     1      -6.711  15.007  -2.060  0.00  0.00    +0.000 A 
ENDBRANCH   1   6
BRANCH   1   9
ATOM      9  C   UNL     1      -2.098  15.482  -0.323  0.00  0.00    +0.000 C 
BRANCH   9  10
ATOM     10  C   UNL     1      -2.103  14.203   0.549  0.00  0.00    +0.000 C 
ATOM     11  C   UNL     1      -0.898  13.324   0.234  0.00  0.00    +0.000 C 
BRANCH  10  12
ATOM     12  O   UNL     1      -2.060  14.531   1.945  0.00  0.00    +0.000 OA
ATOM     13  H   UNL     1      -1.163  14.841   2.154  0.00  0.00    +0.000 HD
ENDBRANCH  10  12
ENDBRANCH   9  10
ENDBRANCH   1   9
BRANCH   1  14
ATOM     14  C   UNL     1      -3.883  17.004   0.545  0.00  0.00    +0.000 C 
BRANCH  14  15
ATOM     15  C   UNL     1      -2.719  17.898   1.036  0.00  0.00    +0.000 C 
ATOM     16  C   UNL     1      -3.023  19.388   0.936  0.00  0.00    +0.000 C 
BRANCH  15  17
ATOM     17  O   UNL     1      -2.366  17.609   2.388  0.00  0.00    +0.000 OA
ATOM     18  H   UNL     1      -1.928  16.734   2.353  0.00  0.00    +0.000 HD
ENDBRANCH  15  17
ENDBRANCH  14  15
ENDBRANCH   1  14
TORSDOF 7
ENDMDL
MODEL 8
REMARK VINA RESULT:    -4.170      3.441      6.535
REMARK INTER + INTRA:          -6.094
REMARK INTER:                  -5.763
REMARK INTRA:                  -0.332
REMARK UNBOUND:                -0.461
REMARK  Name = 
REMARK  10 active torsions:
REMARK  status: ('A' for Active; 'I' for Inactive)
REMARK    1  A    between atoms: C_1  and  C_2
REMARK    2  A    between atoms: C_5  and  N_8
REMARK    3  A    between atoms: N_8  and  C_9
REMARK    4  A    between atoms: N_8  and  C_13
REMARK    5  A    between atoms: C_9  and  C_10
REMARK    6  A    between atoms: C_10  and  C_11
REMARK    7  A    between atoms: C_10  and  O_12
REMARK    8  A    between atoms: C_13  and  C_14
REMARK    9  A    between atoms: C_14  and  C_15
REMARK   10  A    between atoms: C_14  and  O_16
REMARK                            x       y       z     vdW  Elec       q    Type
REMARK                         _______ _______ _______ _____ _____    ______ ____
ROOT
ATOM      1  N   UNL     1      -4.710  16.512   1.613  0.00  0.00    +0.000 N 
ENDROOT
BRANCH   1   6
ATOM      2  C   UNL     1      -4.682  14.071  -3.619  0.00  0.00    +0.000 C 
ATOM      3  C   UNL     1      -4.681  14.726  -2.271  0.00  0.00    +0.000 A 
ATOM      4  C   UNL     1      -3.566  14.655  -1.444  0.00  0.00    +0.000 A 
ATOM      5  C   UNL     1      -3.581  15.245  -0.169  0.00  0.00    +0.000 A 
ATOM      6  C   UNL     1      -4.708  15.909   0.349  0.00  0.00    +0.000 A 
ATOM      7  C   UNL     1      -5.816  15.964  -0.516  0.00  0.00    +0.000 A 
ATOM      8  C   UNL     1      -5.814  15.380  -1.794  0.00  0.00    +0.000 A 
ENDBRANCH   1   6
BRANCH   1   9
ATOM      9  C   UNL     1      -5.786  17.462   1.982  0.00  0.00    +0.000 C 
BRANCH   9  10
ATOM     10  C   UNL     1      -6.729  16.905   3.077  0.00  0.00    +0.000 C 
ATOM     11  C   UNL     1      -7.344  15.580   2.644  0.00  0.00    +0.000 C 
BRANCH  10  12
ATOM     12  O   UNL     1      -6.019  16.686   4.304  0.00  0.00    +0.000 OA
ATOM     13  H   UNL     1      -6.409  17.260   4.984  0.00  0.00    +0.000 HD
ENDBRANCH  10  12
ENDBRANCH   9  10
ENDBRANCH   1   9
BRANCH   1  14
ATOM     14  C   UNL     1      -3.458  16.651   2.400  0.00  0.00    +0.000 C 
BRANCH  14  15
ATOM     15  C   UNL     1      -3.123  15.367   3.196  0.00  0.00    +0.000 C 
ATOM     16  C   UNL     1      -2.633  15.649   4.611  0.00  0.00    +0.000 C 
BRANCH  15  17
ATOM     17  O   UNL     1      -4.247  14.493   3.284  0.00  0.00    +0.000 OA
ATOM     18  H   UNL     1      -4.233  13.979   2.451  0.00  0.00    +0.000 HD
ENDBRANCH  15  17
ENDBRANCH  14  15
ENDBRANCH   1  14
TORSDOF 7
ENDMDL
MODEL 9
REMARK VINA RESULT:    -4.120      3.092      6.498
REMARK INTER + INTRA:          -6.026
REMARK INTER:                  -5.573
REMARK INTRA:                  -0.453
REMARK UNBOUND:                -0.461
REMARK  Name = 
REMARK  10 active torsions:
REMARK  status: ('A' for Active; 'I' for Inactive)
REMARK    1  A    between atoms: C_1  and  C_2
REMARK    2  A    between atoms: C_5  and  N_8
REMARK    3  A    between atoms: N_8  and  C_9
REMARK    4  A    between atoms: N_8  and  C_13
REMARK    5  A    between atoms: C_9  and  C_10
REMARK    6  A    between atoms: C_10  and  C_11
REMARK    7  A    between atoms: C_10  and  O_12
REMARK    8  A    between atoms: C_13  and  C_14
REMARK    9  A    between atoms: C_14  and  C_15
REMARK   10  A    between atoms: C_14  and  O_16
REMARK                            x       y       z     vdW  Elec       q    Type
REMARK                         _______ _______ _______ _____ _____    ______ ____
ROOT
ATOM      1  N   UNL     1      -3.416  16.297   0.713  0.00  0.00    +0.000 N 
ENDROOT
BRANCH   1   6
ATOM      2  C   UNL     1      -6.144  13.584  -3.591  0.00  0.00    +0.000 C 
ATOM      3  C   UNL     1      -5.429  14.306  -2.490  0.00  0.00    +0.000 A 
ATOM      4  C   UNL     1      -4.100  14.022  -2.195  0.00  0.00    +0.000 A 
ATOM      5  C   UNL     1      -3.444  14.681  -1.142  0.00  0.00    +0.000 A 
ATOM      6  C   UNL     1      -4.082  15.630  -0.323  0.00  0.00    +0.000 A 
ATOM      7  C   UNL     1      -5.424  15.893  -0.651  0.00  0.00    +0.000 A 
ATOM      8  C   UNL     1      -6.092  15.243  -1.703  0.00  0.00    +0.000 A 
ENDBRANCH   1   6
BRANCH   1   9
ATOM      9  C   UNL     1      -4.010  16.342   2.071  0.00  0.00    +0.000 C 
BRANCH   9  10
ATOM     10  C   UNL     1      -3.526  15.183   2.977  0.00  0.00    +0.000 C 
ATOM     11  C   UNL     1      -2.812  15.718   4.212  0.00  0.00    +0.000 C 
BRANCH  10  12
ATOM     12  O   UNL     1      -4.629  14.377   3.415  0.00  0.00    +0.000 OA
ATOM     13  H   UNL     1      -4.499  14.175   4.357  0.00  0.00    +0.000 HD
ENDBRANCH  10  12
ENDBRANCH   9  10
ENDBRANCH   1   9
BRANCH   1  14
ATOM     14  C   UNL     1      -2.429  17.370   0.428  0.00  0.00    +0.000 C 
BRANCH  14  15
ATOM     15  C   UNL     1      -2.965  18.772   0.804  0.00  0.00    +0.000 C 
ATOM     16  C   UNL     1      -1.859  19.786   1.067  0.00  0.00    +0.000 C 
BRANCH  15  17
ATOM     17  O   UNL     1      -3.817  19.301  -0.211  0.00  0.00    +0.000 OA
ATOM     18  H   UNL     1      -3.717  20.272  -0.144  0.00  0.00    +0.000 HD
ENDBRANCH  15  17
ENDBRANCH  14  15
ENDBRANCH   1  14
TORSDOF 7
ENDMDL
