MODEL 1
REMARK VINA RESULT:    -5.893      0.000      0.000
REMARK INTER + INTRA:          -8.210
REMARK INTER:                  -7.959
REMARK INTRA:                  -0.250
REMARK UNBOUND:                -0.250
REMARK  Name = 
REMARK  10 active torsions:
REMARK  status: ('A' for Active; 'I' for Inactive)
REMARK    1  A    between atoms: C_1  and  C_2
REMARK    2  A    between atoms: C_5  and  N_8
REMARK    3  A    between atoms: N_8  and  C_9
REMARK    4  A    between atoms: N_8  and  C_13
REMARK    5  A    between atoms: C_9  and  C_10
REMARK    6  A    between atoms: C_10  and  C_11
REMARK    7  A    between atoms: C_10  and  O_12
REMARK    8  A    between atoms: C_13  and  C_14
REMARK    9  A    between atoms: C_14  and  C_15
REMARK   10  A    between atoms: C_14  and  O_16
REMARK                            x       y       z     vdW  Elec       q    Type
REMARK                         _______ _______ _______ _____ _____    ______ ____
ROOT
ATOM      1  N   UNL     1       8.713  10.356   3.991  0.00  0.00    +0.000 N 
ENDROOT
BRANCH   1   6
ATOM      2  C   UNL     1       9.420  10.515   9.718  0.00  0.00    +0.000 C 
ATOM      3  C   UNL     1       9.219  10.492   8.234  0.00  0.00    +0.000 A 
ATOM      4  C   UNL     1       8.310   9.617   7.649  0.00  0.00    +0.000 A 
ATOM      5  C   UNL     1       8.147   9.578   6.255  0.00  0.00    +0.000 A 
ATOM      6  C   UNL     1       8.894  10.386   5.379  0.00  0.00    +0.000 A 
ATOM      7  C   UNL     1       9.803  11.260   6.004  0.00  0.00    +0.000 A 
ATOM      8  C   UNL     1       9.974  11.310   7.398  0.00  0.00    +0.000 A 
ENDBRANCH   1   6
BRANCH   1   9
ATOM      9  C   UNL     1       9.147  11.505   3.159  0.00  0.00    +0.000 C 
BRANCH   9  10
ATOM     10  C   UNL     1      10.510  11.263   2.465  0.00  0.00    +0.000 C 
ATOM     11  C   UNL     1      11.299  10.173   3.180  0.00  0.00    +0.000 C 
BRANCH  10  12
ATOM     12  O   UNL     1      10.328  10.859   1.101  0.00  0.00    +0.000 OA
ATOM     13  H   UNL     1       9.736  10.088   1.092  0.00  0.00    +0.000 HD
ENDBRANCH  10  12
ENDBRANCH   9  10
ENDBRANCH   1   9
BRANCH   1  14
ATOM     14  C   UNL     1       7.679   9.491   3.368  0.00  0.00    +0.000 C 
BRANCH  14  15
ATOM     15  C   UNL     1       8.281   8.197   2.770  0.00  0.00    +0.000 C 
ATOM     16  C   UNL     1       8.105   6.981   3.672  0.00  0.00    +0.000 C 
BRANCH  15  17
ATOM     17  O   UNL     1       7.713   7.890   1.498  0.00  0.00    +0.000 OA
ATOM     18  H   UNL     1       7.673   8.746   1.026  0.00  0.00    +0.000 HD
ENDBRANCH  15  17
ENDBRANCH  14  15
ENDBRANCH   1  14
TORSDOF 7
ENDMDL
MODEL 2
REMARK VINA RESULT:    -5.891      0.086      1.193
REMARK INTER + INTRA:          -8.207
REMARK INTER:                  -7.985
REMARK INTRA:                  -0.223
REMARK UNBOUND:                -0.250
REMARK  Name = 
REMARK  10 active torsions:
REMARK  status: ('A' for Active; 'I' for Inactive)
REMARK    1  A    between atoms: C_1  and  C_2
REMARK    2  A    between atoms: C_5  and  N_8
REMARK    3  A    between atoms: N_8  and  C_9
REMARK    4  A    between atoms: N_8  and  C_13
REMARK    5  A    between atoms: C_9  and  C_10
REMARK    6  A    between atoms: C_10  and  C_11
REMARK    7  A    between atoms: C_10  and  O_12
REMARK    8  A    between atoms: C_13  and  C_14
REMARK    9  A    between atoms: C_14  and  C_15
REMARK   10  A    between atoms: C_14  and  O_16
REMARK                            x       y       z     vdW  Elec       q    Type
REMARK                         _______ _______ _______ _____ _____    ______ ____
ROOT
ATOM      1  N   UNL     1       8.721  10.384   4.013  0.00  0.00    +0.000 N 
ENDROOT
BRANCH   1   6
ATOM      2  C   UNL     1       9.583  10.575   9.718  0.00  0.00    +0.000 C 
ATOM      3  C   UNL     1       9.377  10.508   8.236  0.00  0.00    +0.000 A 
ATOM      4  C   UNL     1      10.078  11.349   7.378  0.00  0.00    +0.000 A 
ATOM      5  C   UNL     1       9.859  11.303   5.992  0.00  0.00    +0.000 A 
ATOM      6  C   UNL     1       8.921  10.439   5.398  0.00  0.00    +0.000 A 
ATOM      7  C   UNL     1       8.232   9.601   6.295  0.00  0.00    +0.000 A 
ATOM      8  C   UNL     1       8.444   9.636   7.683  0.00  0.00    +0.000 A 
ENDBRANCH   1   6
BRANCH   1   9
ATOM      9  C   UNL     1       9.147  11.516   3.155  0.00  0.00    +0.000 C 
BRANCH   9  10
ATOM     10  C   UNL     1      10.505  11.262   2.456  0.00  0.00    +0.000 C 
ATOM     11  C   UNL     1      11.302  10.189   3.188  0.00  0.00    +0.000 C 
BRANCH  10  12
ATOM     12  O   UNL     1      10.313  10.828   1.102  0.00  0.00    +0.000 OA
ATOM     13  H   UNL     1      11.186  10.628   0.724  0.00  0.00    +0.000 HD
ENDBRANCH  10  12
ENDBRANCH   9  10
ENDBRANCH   1   9
BRANCH   1  14
ATOM     14  C   UNL     1       7.676   9.511   3.421  0.00  0.00    +0.000 C 
BRANCH  14  15
ATOM     15  C   UNL     1       8.271   8.219   2.809  0.00  0.00    +0.000 C 
ATOM     16  C   UNL     1       8.093   6.996   3.701  0.00  0.00    +0.000 C 
BRANCH  15  17
ATOM     17  O   UNL     1       7.696   7.926   1.536  0.00  0.00    +0.000 OA
ATOM     18  H   UNL     1       7.376   8.786   1.199  0.00  0.00    +0.000 HD
ENDBRANCH  15  17
ENDBRANCH  14  15
ENDBRANCH   1  14
TORSDOF 7
ENDMDL
MODEL 3
REMARK VINA RESULT:    -5.876      0.783      3.212
REMARK INTER + INTRA:          -8.187
REMARK INTER:                  -7.789
REMARK INTRA:                  -0.398
REMARK UNBOUND:                -0.250
REMARK  Name = 
REMARK  10 active torsions:
REMARK  status: ('A' for Active; 'I' for Inactive)
REMARK    1  A    between atoms: C_1  and  C_2
REMARK    2  A    between atoms: C_5  and  N_8
REMARK    3  A    between atoms: N_8  and  C_9
REMARK    4  A    between atoms: N_8  and  C_13
REMARK    5  A    between atoms: C_9  and  C_10
REMARK    6  A    between atoms: C_10  and  C_11
REMARK    7  A    between atoms: C_10  and  O_12
REMARK    8  A    between atoms: C_13  and  C_14
REMARK    9  A    between atoms: C_14  and  C_15
REMARK   10  A    between atoms: C_14  and  O_16
REMARK                            x       y       z     vdW  Elec       q    Type
REMARK                         _______ _______ _______ _____ _____    ______ ____
ROOT
ATOM      1  N   UNL     1       9.173   9.820   4.235  0.00  0.00    +0.000 N 
ENDROOT
BRANCH   1   6
ATOM      2  C   UNL     1       9.962  11.457   9.714  0.00  0.00    +0.000 C 
ATOM      3  C   UNL     1       9.772  11.013   8.296  0.00  0.00    +0.000 A 
ATOM      4  C   UNL     1      10.594  11.492   7.282  0.00  0.00    +0.000 A 
ATOM      5  C   UNL     1      10.392  11.096   5.949  0.00  0.00    +0.000 A 
ATOM      6  C   UNL     1       9.356  10.227   5.562  0.00  0.00    +0.000 A 
ATOM      7  C   UNL     1       8.546   9.761   6.614  0.00  0.00    +0.000 A 
ATOM      8  C   UNL     1       8.738  10.148   7.951  0.00  0.00    +0.000 A 
ENDBRANCH   1   6
BRANCH   1   9
ATOM      9  C   UNL     1       8.002   8.988   3.867  0.00  0.00    +0.000 C 
BRANCH   9  10
ATOM     10  C   UNL     1       8.372   7.816   2.924  0.00  0.00    +0.000 C 
ATOM     11  C   UNL     1       8.031   6.475   3.562  0.00  0.00    +0.000 C 
BRANCH  10  12
ATOM     12  O   UNL     1       7.660   7.911   1.682  0.00  0.00    +0.000 OA
ATOM     13  H   UNL     1       6.822   8.374   1.850  0.00  0.00    +0.000 HD
ENDBRANCH  10  12
ENDBRANCH   9  10
ENDBRANCH   1   9
BRANCH   1  14
ATOM     14  C   UNL     1      10.316   9.742   3.290  0.00  0.00    +0.000 C 
BRANCH  14  15
ATOM     15  C   UNL     1      10.259  10.848   2.210  0.00  0.00    +0.000 C 
ATOM     16  C   UNL     1       9.331  12.000   2.579  0.00  0.00    +0.000 C 
BRANCH  15  17
ATOM     17  O   UNL     1      11.551  11.391   1.941  0.00  0.00    +0.000 OA
ATOM     18  H   UNL     1      11.981  11.466   2.817  0.00  0.00    +0.000 HD
ENDBRANCH  15  17
ENDBRANCH  14  15
ENDBRANCH   1  14
TORSDOF 7
ENDMDL
MODEL 4
REMARK VINA RESULT:    -4.964      3.762      6.271
REMARK INTER + INTRA:          -6.955
REMARK INTER:                  -6.319
REMARK INTRA:                  -0.636
REMARK UNBOUND:                -0.250
REMARK  Name = 
REMARK  10 active torsions:
REMARK  status: ('A' for Active; 'I' for Inactive)
REMARK    1  A    between atoms: C_1  and  C_2
REMARK    2  A    between atoms: C_5  and  N_8
REMARK    3  A    between atoms: N_8  and  C_9
REMARK    4  A    between atoms: N_8  and  C_13
REMARK    5  A    between atoms: C_9  and  C_10
REMARK    6  A    between atoms: C_10  and  C_11
REMARK    7  A    between atoms: C_10  and  O_12
REMARK    8  A    between atoms: C_13  and  C_14
REMARK    9  A    between atoms: C_14  and  C_15
REMARK   10  A    between atoms: C_14  and  O_16
REMARK                            x       y       z     vdW  Elec       q    Type
REMARK                         _______ _______ _______ _____ _____    ______ ____
ROOT
ATOM      1  N   UNL     1      10.532  11.465   8.261  0.00  0.00    +0.000 N 
ENDROOT
BRANCH   1   6
ATOM      2  C   UNL     1       8.625  11.467   2.812  0.00  0.00    +0.000 C 
ATOM      3  C   UNL     1       9.104  11.448   4.232  0.00  0.00    +0.000 A 
ATOM      4  C   UNL     1       8.525  12.272   5.192  0.00  0.00    +0.000 A 
ATOM      5  C   UNL     1       8.998  12.271   6.514  0.00  0.00    +0.000 A 
ATOM      6  C   UNL     1      10.078  11.475   6.936  0.00  0.00    +0.000 A 
ATOM      7  C   UNL     1      10.637  10.653   5.940  0.00  0.00    +0.000 A 
ATOM      8  C   UNL     1      10.172  10.642   4.614  0.00  0.00    +0.000 A 
ENDBRANCH   1   6
BRANCH   1   9
ATOM      9  C   UNL     1       9.574  11.260   9.374  0.00  0.00    +0.000 C 
BRANCH   9  10
ATOM     10  C   UNL     1       9.364   9.765   9.718  0.00  0.00    +0.000 C 
ATOM     11  C   UNL     1       8.442   9.097   8.705  0.00  0.00    +0.000 C 
BRANCH  10  12
ATOM     12  O   UNL     1      10.612   9.057   9.718  0.00  0.00    +0.000 OA
ATOM     13  H   UNL     1      11.305   9.670  10.014  0.00  0.00    +0.000 HD
ENDBRANCH  10  12
ENDBRANCH   9  10
ENDBRANCH   1   9
BRANCH   1  14
ATOM     14  C   UNL     1      11.799  12.139   8.645  0.00  0.00    +0.000 C 
BRANCH  14  15
ATOM     15  C   UNL     1      13.042  11.281   8.307  0.00  0.00    +0.000 C 
ATOM     16  C   UNL     1      14.358  11.982   8.624  0.00  0.00    +0.000 C 
BRANCH  15  17
ATOM     17  O   UNL     1      13.027  10.035   9.002  0.00  0.00    +0.000 OA
ATOM     18  H   UNL     1      13.577   9.436   8.458  0.00  0.00    +0.000 HD
ENDBRANCH  15  17
ENDBRANCH  14  15
ENDBRANCH   1  14
TORSDOF 7
ENDMDL
MODEL 5
REMARK VINA RESULT:    -4.916      1.548      1.887
REMARK INTER + INTRA:          -6.890
REMARK INTER:                  -6.576
REMARK INTRA:                  -0.314
REMARK UNBOUND:                -0.250
REMARK  Name = 
REMARK  10 active torsions:
REMARK  status: ('A' for Active; 'I' for Inactive)
REMARK    1  A    between atoms: C_1  and  C_2
REMARK    2  A    between atoms: C_5  and  N_8
REMARK    3  A    between atoms: N_8  and  C_9
REMARK    4  A    between atoms: N_8  and  C_13
REMARK    5  A    between atoms: C_9  and  C_10
REMARK    6  A    between atoms: C_10  and  C_11
REMARK    7  A    between atoms: C_10  and  O_12
REMARK    8  A    between atoms: C_13  and  C_14
REMARK    9  A    between atoms: C_14  and  C_15
REMARK   10  A    between atoms: C_14  and  O_16
REMARK                            x       y       z     vdW  Elec       q    Type
REMARK                         _______ _______ _______ _____ _____    ______ ____
ROOT
ATOM      1  N   UNL     1       9.395  10.318   4.689  0.00  0.00    +0.000 N 
ENDROOT
BRANCH   1   6
ATOM      2  C   UNL     1      11.581  12.246   9.673  0.00  0.00    +0.000 C 
ATOM      3  C   UNL     1      11.016  11.768   8.370  0.00  0.00    +0.000 A 
ATOM      4  C   UNL     1       9.644  11.779   8.139  0.00  0.00    +0.000 A 
ATOM      5  C   UNL     1       9.118  11.302   6.927  0.00  0.00    +0.000 A 
ATOM      6  C   UNL     1       9.925  10.774   5.903  0.00  0.00    +0.000 A 
ATOM      7  C   UNL     1      11.306  10.780   6.170  0.00  0.00    +0.000 A 
ATOM      8  C   UNL     1      11.845  11.256   7.376  0.00  0.00    +0.000 A 
ENDBRANCH   1   6
BRANCH   1   9
ATOM      9  C   UNL     1       8.559  11.218   3.858  0.00  0.00    +0.000 C 
BRANCH   9  10
ATOM     10  C   UNL     1       9.306  11.749   2.611  0.00  0.00    +0.000 C 
ATOM     11  C   UNL     1      10.583  10.955   2.361  0.00  0.00    +0.000 C 
BRANCH  10  12
ATOM     12  O   UNL     1       8.485  11.651   1.439  0.00  0.00    +0.000 OA
ATOM     13  H   UNL     1       8.444  12.529   1.025  0.00  0.00    +0.000 HD
ENDBRANCH  10  12
ENDBRANCH   9  10
ENDBRANCH   1   9
BRANCH   1  14
ATOM     14  C   UNL     1       9.197   8.868   4.433  0.00  0.00    +0.000 C 
BRANCH  14  15
ATOM     15  C   UNL     1       7.902   8.588   3.632  0.00  0.00    +0.000 C 
ATOM     16  C   UNL     1       8.140   7.748   2.383  0.00  0.00    +0.000 C 
BRANCH  15  17
ATOM     17  O   UNL     1       6.922   7.926   4.430  0.00  0.00    +0.000 OA
ATOM     18  H   UNL     1       6.410   8.645   4.850  0.00  0.00    +0.000 HD
ENDBRANCH  15  17
ENDBRANCH  14  15
ENDBRANCH   1  14
TORSDOF 7
ENDMDL
MODEL 6
REMARK VINA RESULT:    -4.819      1.806      3.538
REMARK INTER + INTRA:          -6.760
REMARK INTER:                  -6.800
REMARK INTRA:                   0.041
REMARK UNBOUND:                -0.250
REMARK  Name = 
REMARK  10 active torsions:
REMARK  status: ('A' for Active; 'I' for Inactive)
REMARK    1  A    between atoms: C_1  and  C_2
REMARK    2  A    between atoms: C_5  and  N_8
REMARK    3  A    between atoms: N_8  and  C_9
REMARK    4  A    between atoms: N_8  and  C_13
REMARK    5  A    between atoms: C_9  and  C_10
REMARK    6  A    between atoms: C_10  and  C_11
REMARK    7  A    between atoms: C_10  and  O_12
REMARK    8  A    between atoms: C_13  and  C_14
REMARK    9  A    between atoms: C_14  and  C_15
REMARK   10  A    between atoms: C_14  and  O_16
REMARK                            x       y       z     vdW  Elec       q    Type
REMARK                         _______ _______ _______ _____ _____    ______ ____
ROOT
ATOM      1  N   UNL     1       9.070  11.469   5.048  0.00  0.00    +0.000 N 
ENDROOT
BRANCH   1   6
ATOM      2  C   UNL     1      12.518  11.828   9.665  0.00  0.00    +0.000 C 
ATOM      3  C   UNL     1      11.612  11.715   8.477  0.00  0.00    +0.000 A 
ATOM      4  C   UNL     1      11.993  10.986   7.356  0.00  0.00    +0.000 A 
ATOM      5  C   UNL     1      11.153  10.908   6.233  0.00  0.00    +0.000 A 
ATOM      6  C   UNL     1       9.912  11.567   6.164  0.00  0.00    +0.000 A 
ATOM      7  C   UNL     1       9.558  12.293   7.316  0.00  0.00    +0.000 A 
ATOM      8  C   UNL     1      10.388  12.377   8.446  0.00  0.00    +0.000 A 
ENDBRANCH   1   6
BRANCH   1   9
ATOM      9  C   UNL     1       7.838  10.647   5.117  0.00  0.00    +0.000 C 
BRANCH   9  10
ATOM     10  C   UNL     1       8.093   9.228   5.681  0.00  0.00    +0.000 C 
ATOM     11  C   UNL     1       7.734   9.157   7.161  0.00  0.00    +0.000 C 
BRANCH  10  12
ATOM     12  O   UNL     1       7.309   8.249   4.986  0.00  0.00    +0.000 OA
ATOM     13  H   UNL     1       7.574   8.259   4.051  0.00  0.00    +0.000 HD
ENDBRANCH  10  12
ENDBRANCH   9  10
ENDBRANCH   1   9
BRANCH   1  14
ATOM     14  C   UNL     1       9.581  11.714   3.675  0.00  0.00    +0.000 C 
BRANCH  14  15
ATOM     15  C   UNL     1      10.620  10.652   3.241  0.00  0.00    +0.000 C 
ATOM     16  C   UNL     1       9.988   9.419   2.607  0.00  0.00    +0.000 C 
BRANCH  15  17
ATOM     17  O   UNL     1      11.566  11.188   2.317  0.00  0.00    +0.000 OA
ATOM     18  H   UNL     1      11.933  11.979   2.760  0.00  0.00    +0.000 HD
ENDBRANCH  15  17
ENDBRANCH  14  15
ENDBRANCH   1  14
TORSDOF 7
ENDMDL
MODEL 7
REMARK VINA RESULT:    -4.397      3.676      5.765
REMARK INTER + INTRA:          -6.190
REMARK INTER:                  -6.291
REMARK INTRA:                   0.102
REMARK UNBOUND:                -0.250
REMARK  Name = 
REMARK  10 active torsions:
REMARK  status: ('A' for Active; 'I' for Inactive)
REMARK    1  A    between atoms: C_1  and  C_2
REMARK    2  A    between atoms: C_5  and  N_8
REMARK    3  A    between atoms: N_8  and  C_9
REMARK    4  A    between atoms: N_8  and  C_13
REMARK    5  A    between atoms: C_9  and  C_10
REMARK    6  A    between atoms: C_10  and  C_11
REMARK    7  A    between atoms: C_10  and  O_12
REMARK    8  A    between atoms: C_13  and  C_14
REMARK    9  A    between atoms: C_14  and  C_15
REMARK   10  A    between atoms: C_14  and  O_16
REMARK                            x       y       z     vdW  Elec       q    Type
REMARK                         _______ _______ _______ _____ _____    ______ ____
ROOT
ATOM      1  N   UNL     1      10.984  11.523   7.788  0.00  0.00    +0.000 N 
ENDROOT
BRANCH   1   6
ATOM      2  C   UNL     1       8.088  11.076   2.814  0.00  0.00    +0.000 C 
ATOM      3  C   UNL     1       8.826  11.173   4.114  0.00  0.00    +0.000 A 
ATOM      4  C   UNL     1       8.368  11.997   5.136  0.00  0.00    +0.000 A 
ATOM      5  C   UNL     1       9.081  12.106   6.341  0.00  0.00    +0.000 A 
ATOM      6  C   UNL     1      10.288  11.424   6.576  0.00  0.00    +0.000 A 
ATOM      7  C   UNL     1      10.720  10.598   5.522  0.00  0.00    +0.000 A 
ATOM      8  C   UNL     1      10.016  10.478   4.313  0.00  0.00    +0.000 A 
ENDBRANCH   1   6
BRANCH   1   9
ATOM      9  C   UNL     1      12.370  11.009   7.893  0.00  0.00    +0.000 C 
BRANCH   9  10
ATOM     10  C   UNL     1      13.334  12.016   8.567  0.00  0.00    +0.000 C 
ATOM     11  C   UNL     1      14.089  11.361   9.718  0.00  0.00    +0.000 C 
BRANCH  10  12
ATOM     12  O   UNL     1      14.299  12.512   7.628  0.00  0.00    +0.000 OA
ATOM     13  H   UNL     1      13.861  12.602   6.766  0.00  0.00    +0.000 HD
ENDBRANCH  10  12
ENDBRANCH   9  10
ENDBRANCH   1   9
BRANCH   1  14
ATOM     14  C   UNL     1      10.262  11.642   9.081  0.00  0.00    +0.000 C 
BRANCH  14  15
ATOM     15  C   UNL     1       9.963  10.262   9.713  0.00  0.00    +0.000 C 
ATOM     16  C   UNL     1       8.834   9.514   9.013  0.00  0.00    +0.000 C 
BRANCH  15  17
ATOM     17  O   UNL     1      11.115   9.421   9.713  0.00  0.00    +0.000 OA
ATOM     18  H   UNL     1      11.825   9.964   9.316  0.00  0.00    +0.000 HD
ENDBRANCH  15  17
ENDBRANCH  14  15
ENDBRANCH   1  14
TORSDOF 7
ENDMDL
MODEL 8
REMARK VINA RESULT:    -4.229      2.970      5.380
REMARK INTER + INTRA:          -5.962
REMARK INTER:                  -5.963
REMARK INTRA:                   0.000
REMARK UNBOUND:                -0.250
REMARK  Name = 
REMARK  10 active torsions:
REMARK  status: ('A' for Active; 'I' for Inactive)
REMARK    1  A    between atoms: C_1  and  C_2
REMARK    2  A    between atoms: C_5  and  N_8
REMARK    3  A    between atoms: N_8  and  C_9
REMARK    4  A    between atoms: N_8  and  C_13
REMARK    5  A    between atoms: C_9  and  C_10
REMARK    6  A    between atoms: C_10  and  C_11
REMARK    7  A    between atoms: C_10  and  O_12
REMARK    8  A    between atoms: C_13  and  C_14
REMARK    9  A    between atoms: C_14  and  C_15
REMARK   10  A    between atoms: C_14  and  O_16
REMARK                            x       y       z     vdW  Elec       q    Type
REMARK                         _______ _______ _______ _____ _____    ______ ____
ROOT
ATOM      1  N   UNL     1       9.078  10.720   6.547  0.00  0.00    +0.000 N 
ENDROOT
BRANCH   1   6
ATOM      2  C   UNL     1       8.152   7.492   1.851  0.00  0.00    +0.000 C 
ATOM      3  C   UNL     1       8.379   8.348   3.060  0.00  0.00    +0.000 A 
ATOM      4  C   UNL     1       9.491   9.178   3.149  0.00  0.00    +0.000 A 
ATOM      5  C   UNL     1       9.714   9.956   4.297  0.00  0.00    +0.000 A 
ATOM      6  C   UNL     1       8.860   9.927   5.414  0.00  0.00    +0.000 A 
ATOM      7  C   UNL     1       7.745   9.079   5.288  0.00  0.00    +0.000 A 
ATOM      8  C   UNL     1       7.508   8.297   4.145  0.00  0.00    +0.000 A 
ENDBRANCH   1   6
BRANCH   1   9
ATOM      9  C   UNL     1      10.375  11.416   6.729  0.00  0.00    +0.000 C 
BRANCH   9  10
ATOM     10  C   UNL     1      10.549  11.999   8.153  0.00  0.00    +0.000 C 
ATOM     11  C   UNL     1      12.007  11.940   8.592  0.00  0.00    +0.000 C 
BRANCH  10  12
ATOM     12  O   UNL     1      10.124  13.368   8.204  0.00  0.00    +0.000 OA
ATOM     13  H   UNL     1       9.251  13.397   8.630  0.00  0.00    +0.000 HD
ENDBRANCH  10  12
ENDBRANCH   9  10
ENDBRANCH   1   9
BRANCH   1  14
ATOM     14  C   UNL     1       8.305  10.504   7.797  0.00  0.00    +0.000 C 
BRANCH  14  15
ATOM     15  C   UNL     1       8.618   9.136   8.449  0.00  0.00    +0.000 C 
ATOM     16  C   UNL     1       9.454   9.254   9.718  0.00  0.00    +0.000 C 
BRANCH  15  17
ATOM     17  O   UNL     1       7.426   8.420   8.770  0.00  0.00    +0.000 OA
ATOM     18  H   UNL     1       7.063   8.874   9.557  0.00  0.00    +0.000 HD
ENDBRANCH  15  17
ENDBRANCH  14  15
ENDBRANCH   1  14
TORSDOF 7
ENDMDL
MODEL 9
REMARK VINA RESULT:    -4.223      3.413      5.436
REMARK INTER + INTRA:          -5.955
REMARK INTER:                  -6.148
REMARK INTRA:                   0.193
REMARK UNBOUND:                -0.250
REMARK  Name = 
REMARK  10 active torsions:
REMARK  status: ('A' for Active; 'I' for Inactive)
REMARK    1  A    between atoms: C_1  and  C_2
REMARK    2  A    between atoms: C_5  and  N_8
REMARK    3  A    between atoms: N_8  and  C_9
REMARK    4  A    between atoms: N_8  and  C_13
REMARK    5  A    between atoms: C_9  and  C_10
REMARK    6  A    between atoms: C_10  and  C_11
REMARK    7  A    between atoms: C_10  and  O_12
REMARK    8  A    between atoms: C_13  and  C_14
REMARK    9  A    between atoms: C_14  and  C_15
REMARK   10  A    between atoms: C_14  and  O_16
REMARK                            x       y       z     vdW  Elec       q    Type
REMARK                         _______ _______ _______ _____ _____    ______ ____
ROOT
ATOM      1  N   UNL     1      10.080  11.559   8.261  0.00  0.00    +0.000 N 
ENDROOT
BRANCH   1   6
ATOM      2  C   UNL     1       8.813  11.383   2.631  0.00  0.00    +0.000 C 
ATOM      3  C   UNL     1       9.158  11.447   4.088  0.00  0.00    +0.000 A 
ATOM      4  C   UNL     1      10.165  10.649   4.619  0.00  0.00    +0.000 A 
ATOM      5  C   UNL     1      10.464  10.692   5.991  0.00  0.00    +0.000 A 
ATOM      6  C   UNL     1       9.763  11.507   6.897  0.00  0.00    +0.000 A 
ATOM      7  C   UNL     1       8.753  12.301   6.325  0.00  0.00    +0.000 A 
ATOM      8  C   UNL     1       8.445  12.270   4.955  0.00  0.00    +0.000 A 
ENDBRANCH   1   6
BRANCH   1   9
ATOM      9  C   UNL     1      11.414  12.037   8.697  0.00  0.00    +0.000 C 
BRANCH   9  10
ATOM     10  C   UNL     1      12.539  11.011   8.418  0.00  0.00    +0.000 C 
ATOM     11  C   UNL     1      13.913  11.656   8.563  0.00  0.00    +0.000 C 
BRANCH  10  12
ATOM     12  O   UNL     1      12.468   9.908   9.332  0.00  0.00    +0.000 OA
ATOM     13  H   UNL     1      11.552   9.836   9.647  0.00  0.00    +0.000 HD
ENDBRANCH  10  12
ENDBRANCH   9  10
ENDBRANCH   1   9
BRANCH   1  14
ATOM     14  C   UNL     1       9.369  10.706   9.248  0.00  0.00    +0.000 C 
BRANCH  14  15
ATOM     15  C   UNL     1       8.999   9.321   8.665  0.00  0.00    +0.000 C 
ATOM     16  C   UNL     1       8.956   8.220   9.718  0.00  0.00    +0.000 C 
BRANCH  15  17
ATOM     17  O   UNL     1       7.737   9.348   8.002  0.00  0.00    +0.000 OA
ATOM     18  H   UNL     1       7.113   9.713   8.661  0.00  0.00    +0.000 HD
ENDBRANCH  15  17
ENDBRANCH  14  15
ENDBRANCH   1  14
TORSDOF 7
ENDMDL
