MODEL 1
REMARK VINA RESULT:    -5.872      0.000      0.000
REMARK INTER + INTRA:          -8.555
REMARK INTER:                  -7.931
REMARK INTRA:                  -0.624
REMARK UNBOUND:                -0.624
REMARK  Name = 
REMARK  10 active torsions:
REMARK  status: ('A' for Active; 'I' for Inactive)
REMARK    1  A    between atoms: C_1  and  C_2
REMARK    2  A    between atoms: C_5  and  N_8
REMARK    3  A    between atoms: N_8  and  C_9
REMARK    4  A    between atoms: N_8  and  C_13
REMARK    5  A    between atoms: C_9  and  C_10
REMARK    6  A    between atoms: C_10  and  C_11
REMARK    7  A    between atoms: C_10  and  O_12
REMARK    8  A    between atoms: C_13  and  C_14
REMARK    9  A    between atoms: C_14  and  C_15
REMARK   10  A    between atoms: C_14  and  O_16
REMARK                            x       y       z     vdW  Elec       q    Type
REMARK                         _______ _______ _______ _____ _____    ______ ____
ROOT
ATOM      1  N   UNL     1      11.468   1.304   7.592  0.00  0.00    +0.000 N 
ENDROOT
BRANCH   1   6
ATOM      2  C   UNL     1      12.174  -2.515  11.864  0.00  0.00    +0.000 C 
ATOM      3  C   UNL     1      11.983  -1.507  10.772  0.00  0.00    +0.000 A 
ATOM      4  C   UNL     1      10.781  -1.426  10.077  0.00  0.00    +0.000 A 
ATOM      5  C   UNL     1      10.618  -0.499   9.034  0.00  0.00    +0.000 A 
ATOM      6  C   UNL     1      11.644   0.369   8.620  0.00  0.00    +0.000 A 
ATOM      7  C   UNL     1      12.844   0.261   9.346  0.00  0.00    +0.000 A 
ATOM      8  C   UNL     1      13.020  -0.660  10.392  0.00  0.00    +0.000 A 
ENDBRANCH   1   6
BRANCH   1   9
ATOM      9  C   UNL     1      12.237   2.572   7.601  0.00  0.00    +0.000 C 
BRANCH   9  10
ATOM     10  C   UNL     1      13.165   2.720   6.370  0.00  0.00    +0.000 C 
ATOM     11  C   UNL     1      13.651   1.358   5.888  0.00  0.00    +0.000 C 
BRANCH  10  12
ATOM     12  O   UNL     1      12.479   3.357   5.283  0.00  0.00    +0.000 OA
ATOM     13  H   UNL     1      11.536   3.405   5.508  0.00  0.00    +0.000 HD
ENDBRANCH  10  12
ENDBRANCH   9  10
ENDBRANCH   1   9
BRANCH   1  14
ATOM     14  C   UNL     1      10.220   1.337   6.788  0.00  0.00    +0.000 C 
BRANCH  14  15
ATOM     15  C   UNL     1      10.368   0.575   5.448  0.00  0.00    +0.000 C 
ATOM     16  C   UNL     1       9.260  -0.444   5.212  0.00  0.00    +0.000 C 
BRANCH  15  17
ATOM     17  O   UNL     1      10.393   1.467   4.335  0.00  0.00    +0.000 OA
ATOM     18  H   UNL     1      11.069   1.098   3.731  0.00  0.00    +0.000 HD
ENDBRANCH  15  17
ENDBRANCH  14  15
ENDBRANCH   1  14
TORSDOF 7
ENDMDL
MODEL 2
REMARK VINA RESULT:    -5.829      0.654      3.028
REMARK INTER + INTRA:          -8.497
REMARK INTER:                  -8.079
REMARK INTRA:                  -0.418
REMARK UNBOUND:                -0.624
REMARK  Name = 
REMARK  10 active torsions:
REMARK  status: ('A' for Active; 'I' for Inactive)
REMARK    1  A    between atoms: C_1  and  C_2
REMARK    2  A    between atoms: C_5  and  N_8
REMARK    3  A    between atoms: N_8  and  C_9
REMARK    4  A    between atoms: N_8  and  C_13
REMARK    5  A    between atoms: C_9  and  C_10
REMARK    6  A    between atoms: C_10  and  C_11
REMARK    7  A    between atoms: C_10  and  O_12
REMARK    8  A    between atoms: C_13  and  C_14
REMARK    9  A    between atoms: C_14  and  C_15
REMARK   10  A    between atoms: C_14  and  O_16
REMARK                            x       y       z     vdW  Elec       q    Type
REMARK                         _______ _______ _______ _____ _____    ______ ____
ROOT
ATOM      1  N   UNL     1      11.443   0.993   7.151  0.00  0.00    +0.000 N 
ENDROOT
BRANCH   1   6
ATOM      2  C   UNL     1      12.158  -1.976  12.050  0.00  0.00    +0.000 C 
ATOM      3  C   UNL     1      11.980  -1.226  10.766  0.00  0.00    +0.000 A 
ATOM      4  C   UNL     1      13.004  -0.437  10.252  0.00  0.00    +0.000 A 
ATOM      5  C   UNL     1      12.822   0.288   9.063  0.00  0.00    +0.000 A 
ATOM      6  C   UNL     1      11.612   0.282   8.346  0.00  0.00    +0.000 A 
ATOM      7  C   UNL     1      10.599  -0.528   8.893  0.00  0.00    +0.000 A 
ATOM      8  C   UNL     1      10.769  -1.260  10.080  0.00  0.00    +0.000 A 
ENDBRANCH   1   6
BRANCH   1   9
ATOM      9  C   UNL     1      10.127   0.998   6.468  0.00  0.00    +0.000 C 
BRANCH   9  10
ATOM     10  C   UNL     1      10.173   0.336   5.069  0.00  0.00    +0.000 C 
ATOM     11  C   UNL     1       9.160  -0.798   4.969  0.00  0.00    +0.000 C 
BRANCH  10  12
ATOM     12  O   UNL     1       9.877   1.289   4.039  0.00  0.00    +0.000 OA
ATOM     13  H   UNL     1      10.668   1.387   3.483  0.00  0.00    +0.000 HD
ENDBRANCH  10  12
ENDBRANCH   9  10
ENDBRANCH   1   9
BRANCH   1  14
ATOM     14  C   UNL     1      12.601   1.312   6.277  0.00  0.00    +0.000 C 
BRANCH  14  15
ATOM     15  C   UNL     1      12.804   2.838   6.111  0.00  0.00    +0.000 C 
ATOM     16  C   UNL     1      14.026   3.192   5.271  0.00  0.00    +0.000 C 
BRANCH  15  17
ATOM     17  O   UNL     1      11.665   3.460   5.518  0.00  0.00    +0.000 OA
ATOM     18  H   UNL     1      10.900   3.124   6.028  0.00  0.00    +0.000 HD
ENDBRANCH  15  17
ENDBRANCH  14  15
ENDBRANCH   1  14
TORSDOF 7
ENDMDL
MODEL 3
REMARK VINA RESULT:    -5.601      3.342      5.471
REMARK INTER + INTRA:          -8.189
REMARK INTER:                  -7.563
REMARK INTRA:                  -0.627
REMARK UNBOUND:                -0.624
REMARK  Name = 
REMARK  10 active torsions:
REMARK  status: ('A' for Active; 'I' for Inactive)
REMARK    1  A    between atoms: C_1  and  C_2
REMARK    2  A    between atoms: C_5  and  N_8
REMARK    3  A    between atoms: N_8  and  C_9
REMARK    4  A    between atoms: N_8  and  C_13
REMARK    5  A    between atoms: C_9  and  C_10
REMARK    6  A    between atoms: C_10  and  C_11
REMARK    7  A    between atoms: C_10  and  O_12
REMARK    8  A    between atoms: C_13  and  C_14
REMARK    9  A    between atoms: C_14  and  C_15
REMARK   10  A    between atoms: C_14  and  O_16
REMARK                            x       y       z     vdW  Elec       q    Type
REMARK                         _______ _______ _______ _____ _____    ______ ____
ROOT
ATOM      1  N   UNL     1      11.337   0.868  10.527  0.00  0.00    +0.000 N 
ENDROOT
BRANCH   1   6
ATOM      2  C   UNL     1      13.747   2.574   5.567  0.00  0.00    +0.000 C 
ATOM      3  C   UNL     1      13.099   2.131   6.843  0.00  0.00    +0.000 A 
ATOM      4  C   UNL     1      12.660   3.059   7.781  0.00  0.00    +0.000 A 
ATOM      5  C   UNL     1      12.081   2.638   8.989  0.00  0.00    +0.000 A 
ATOM      6  C   UNL     1      11.933   1.281   9.329  0.00  0.00    +0.000 A 
ATOM      7  C   UNL     1      12.386   0.371   8.357  0.00  0.00    +0.000 A 
ATOM      8  C   UNL     1      12.965   0.779   7.144  0.00  0.00    +0.000 A 
ENDBRANCH   1   6
BRANCH   1   9
ATOM      9  C   UNL     1      11.043   1.857  11.592  0.00  0.00    +0.000 C 
BRANCH   9  10
ATOM     10  C   UNL     1       9.532   2.170  11.720  0.00  0.00    +0.000 C 
ATOM     11  C   UNL     1       9.301   3.659  11.949  0.00  0.00    +0.000 C 
BRANCH  10  12
ATOM     12  O   UNL     1       8.824   1.788  10.532  0.00  0.00    +0.000 OA
ATOM     13  H   UNL     1       9.023   0.855  10.350  0.00  0.00    +0.000 HD
ENDBRANCH  10  12
ENDBRANCH   9  10
ENDBRANCH   1   9
BRANCH   1  14
ATOM     14  C   UNL     1      11.444  -0.538  10.994  0.00  0.00    +0.000 C 
BRANCH  14  15
ATOM     15  C   UNL     1      10.170  -1.359  10.676  0.00  0.00    +0.000 C 
ATOM     16  C   UNL     1      10.438  -2.853  10.541  0.00  0.00    +0.000 C 
BRANCH  15  17
ATOM     17  O   UNL     1       9.164  -1.178  11.671  0.00  0.00    +0.000 OA
ATOM     18  H   UNL     1       9.635  -1.262  12.525  0.00  0.00    +0.000 HD
ENDBRANCH  15  17
ENDBRANCH  14  15
ENDBRANCH   1  14
TORSDOF 7
ENDMDL
MODEL 4
REMARK VINA RESULT:    -5.395      3.068      5.545
REMARK INTER + INTRA:          -7.910
REMARK INTER:                  -7.386
REMARK INTRA:                  -0.525
REMARK UNBOUND:                -0.624
REMARK  Name = 
REMARK  10 active torsions:
REMARK  status: ('A' for Active; 'I' for Inactive)
REMARK    1  A    between atoms: C_1  and  C_2
REMARK    2  A    between atoms: C_5  and  N_8
REMARK    3  A    between atoms: N_8  and  C_9
REMARK    4  A    between atoms: N_8  and  C_13
REMARK    5  A    between atoms: C_9  and  C_10
REMARK    6  A    between atoms: C_10  and  C_11
REMARK    7  A    between atoms: C_10  and  O_12
REMARK    8  A    between atoms: C_13  and  C_14
REMARK    9  A    between atoms: C_14  and  C_15
REMARK   10  A    between atoms: C_14  and  O_16
REMARK                            x       y       z     vdW  Elec       q    Type
REMARK                         _______ _______ _______ _____ _____    ______ ____
ROOT
ATOM      1  N   UNL     1      11.160   0.794   9.945  0.00  0.00    +0.000 N 
ENDROOT
BRANCH   1   6
ATOM      2  C   UNL     1      13.860   3.028   5.357  0.00  0.00    +0.000 C 
ATOM      3  C   UNL     1      13.181   2.443   6.558  0.00  0.00    +0.000 A 
ATOM      4  C   UNL     1      12.818   1.101   6.590  0.00  0.00    +0.000 A 
ATOM      5  C   UNL     1      12.156   0.565   7.706  0.00  0.00    +0.000 A 
ATOM      6  C   UNL     1      11.804   1.339   8.827  0.00  0.00    +0.000 A 
ATOM      7  C   UNL     1      12.188   2.691   8.760  0.00  0.00    +0.000 A 
ATOM      8  C   UNL     1      12.853   3.239   7.651  0.00  0.00    +0.000 A 
ENDBRANCH   1   6
BRANCH   1   9
ATOM      9  C   UNL     1      11.052   1.580  11.197  0.00  0.00    +0.000 C 
BRANCH   9  10
ATOM     10  C   UNL     1       9.595   1.991  11.523  0.00  0.00    +0.000 C 
ATOM     11  C   UNL     1       9.535   3.422  12.043  0.00  0.00    +0.000 C 
BRANCH  10  12
ATOM     12  O   UNL     1       8.763   1.907  10.357  0.00  0.00    +0.000 OA
ATOM     13  H   UNL     1       7.977   2.457  10.508  0.00  0.00    +0.000 HD
ENDBRANCH  10  12
ENDBRANCH   9  10
ENDBRANCH   1   9
BRANCH   1  14
ATOM     14  C   UNL     1      11.033  -0.676  10.117  0.00  0.00    +0.000 C 
BRANCH  14  15
ATOM     15  C   UNL     1      12.059  -1.236  11.132  0.00  0.00    +0.000 C 
ATOM     16  C   UNL     1      11.787  -2.684  11.523  0.00  0.00    +0.000 C 
BRANCH  15  17
ATOM     17  O   UNL     1      13.393  -1.158  10.631  0.00  0.00    +0.000 OA
ATOM     18  H   UNL     1      13.468  -1.897   9.994  0.00  0.00    +0.000 HD
ENDBRANCH  15  17
ENDBRANCH  14  15
ENDBRANCH   1  14
TORSDOF 7
ENDMDL
MODEL 5
REMARK VINA RESULT:    -5.269      3.124      5.236
REMARK INTER + INTRA:          -7.741
REMARK INTER:                  -7.307
REMARK INTRA:                  -0.433
REMARK UNBOUND:                -0.624
REMARK  Name = 
REMARK  10 active torsions:
REMARK  status: ('A' for Active; 'I' for Inactive)
REMARK    1  A    between atoms: C_1  and  C_2
REMARK    2  A    between atoms: C_5  and  N_8
REMARK    3  A    between atoms: N_8  and  C_9
REMARK    4  A    between atoms: N_8  and  C_13
REMARK    5  A    between atoms: C_9  and  C_10
REMARK    6  A    between atoms: C_10  and  C_11
REMARK    7  A    between atoms: C_10  and  O_12
REMARK    8  A    between atoms: C_13  and  C_14
REMARK    9  A    between atoms: C_14  and  C_15
REMARK   10  A    between atoms: C_14  and  O_16
REMARK                            x       y       z     vdW  Elec       q    Type
REMARK                         _______ _______ _______ _____ _____    ______ ____
ROOT
ATOM      1  N   UNL     1      11.578   0.758   9.404  0.00  0.00    +0.000 N 
ENDROOT
BRANCH   1   6
ATOM      2  C   UNL     1      10.257   0.461   3.792  0.00  0.00    +0.000 C 
ATOM      3  C   UNL     1      10.608   0.514   5.248  0.00  0.00    +0.000 A 
ATOM      4  C   UNL     1       9.664   0.206   6.221  0.00  0.00    +0.000 A 
ATOM      5  C   UNL     1       9.989   0.287   7.585  0.00  0.00    +0.000 A 
ATOM      6  C   UNL     1      11.254   0.698   8.043  0.00  0.00    +0.000 A 
ATOM      7  C   UNL     1      12.184   1.000   7.031  0.00  0.00    +0.000 A 
ATOM      8  C   UNL     1      11.872   0.921   5.663  0.00  0.00    +0.000 A 
ENDBRANCH   1   6
BRANCH   1   9
ATOM      9  C   UNL     1      12.980   0.995   9.825  0.00  0.00    +0.000 C 
BRANCH   9  10
ATOM     10  C   UNL     1      13.419   0.079  10.993  0.00  0.00    +0.000 C 
ATOM     11  C   UNL     1      14.225  -1.109  10.480  0.00  0.00    +0.000 C 
BRANCH  10  12
ATOM     12  O   UNL     1      14.232   0.796  11.932  0.00  0.00    +0.000 OA
ATOM     13  H   UNL     1      13.759   0.824  12.780  0.00  0.00    +0.000 HD
ENDBRANCH  10  12
ENDBRANCH   9  10
ENDBRANCH   1   9
BRANCH   1  14
ATOM     14  C   UNL     1      10.721   0.106  10.428  0.00  0.00    +0.000 C 
BRANCH  14  15
ATOM     15  C   UNL     1      10.001   1.138  11.329  0.00  0.00    +0.000 C 
ATOM     16  C   UNL     1       9.591   2.403  10.584  0.00  0.00    +0.000 C 
BRANCH  15  17
ATOM     17  O   UNL     1       8.834   0.585  11.936  0.00  0.00    +0.000 OA
ATOM     18  H   UNL     1       8.993   0.655  12.899  0.00  0.00    +0.000 HD
ENDBRANCH  15  17
ENDBRANCH  14  15
ENDBRANCH   1  14
TORSDOF 7
ENDMDL
MODEL 6
REMARK VINA RESULT:    -5.231      3.309      5.688
REMARK INTER + INTRA:          -7.689
REMARK INTER:                  -6.995
REMARK INTRA:                  -0.694
REMARK UNBOUND:                -0.624
REMARK  Name = 
REMARK  10 active torsions:
REMARK  status: ('A' for Active; 'I' for Inactive)
REMARK    1  A    between atoms: C_1  and  C_2
REMARK    2  A    between atoms: C_5  and  N_8
REMARK    3  A    between atoms: N_8  and  C_9
REMARK    4  A    between atoms: N_8  and  C_13
REMARK    5  A    between atoms: C_9  and  C_10
REMARK    6  A    between atoms: C_10  and  C_11
REMARK    7  A    between atoms: C_10  and  O_12
REMARK    8  A    between atoms: C_13  and  C_14
REMARK    9  A    between atoms: C_14  and  C_15
REMARK   10  A    between atoms: C_14  and  O_16
REMARK                            x       y       z     vdW  Elec       q    Type
REMARK                         _______ _______ _______ _____ _____    ______ ____
ROOT
ATOM      1  N   UNL     1      11.404   1.361   9.768  0.00  0.00    +0.000 N 
ENDROOT
BRANCH   1   6
ATOM      2  C   UNL     1      10.240   0.495   4.180  0.00  0.00    +0.000 C 
ATOM      3  C   UNL     1      10.522   0.736   5.631  0.00  0.00    +0.000 A 
ATOM      4  C   UNL     1      11.394   1.742   6.032  0.00  0.00    +0.000 A 
ATOM      5  C   UNL     1      11.679   1.943   7.393  0.00  0.00    +0.000 A 
ATOM      6  C   UNL     1      11.131   1.143   8.411  0.00  0.00    +0.000 A 
ATOM      7  C   UNL     1      10.252   0.136   7.970  0.00  0.00    +0.000 A 
ATOM      8  C   UNL     1       9.958  -0.074   6.612  0.00  0.00    +0.000 A 
ENDBRANCH   1   6
BRANCH   1   9
ATOM      9  C   UNL     1      10.770   2.497  10.480  0.00  0.00    +0.000 C 
BRANCH   9  10
ATOM     10  C   UNL     1       9.823   2.040  11.616  0.00  0.00    +0.000 C 
ATOM     11  C   UNL     1       8.768   3.101  11.907  0.00  0.00    +0.000 C 
BRANCH  10  12
ATOM     12  O   UNL     1       9.146   0.825  11.264  0.00  0.00    +0.000 OA
ATOM     13  H   UNL     1       8.221   0.901  11.554  0.00  0.00    +0.000 HD
ENDBRANCH  10  12
ENDBRANCH   9  10
ENDBRANCH   1   9
BRANCH   1  14
ATOM     14  C   UNL     1      12.649   0.849  10.394  0.00  0.00    +0.000 C 
BRANCH  14  15
ATOM     15  C   UNL     1      12.582  -0.673  10.668  0.00  0.00    +0.000 C 
ATOM     16  C   UNL     1      13.934  -1.277  11.029  0.00  0.00    +0.000 C 
BRANCH  15  17
ATOM     17  O   UNL     1      11.667  -0.979  11.719  0.00  0.00    +0.000 OA
ATOM     18  H   UNL     1      11.758  -0.241  12.356  0.00  0.00    +0.000 HD
ENDBRANCH  15  17
ENDBRANCH  14  15
ENDBRANCH   1  14
TORSDOF 7
ENDMDL
MODEL 7
REMARK VINA RESULT:    -5.170      2.976      5.394
REMARK INTER + INTRA:          -7.606
REMARK INTER:                  -7.228
REMARK INTRA:                  -0.379
REMARK UNBOUND:                -0.624
REMARK  Name = 
REMARK  10 active torsions:
REMARK  status: ('A' for Active; 'I' for Inactive)
REMARK    1  A    between atoms: C_1  and  C_2
REMARK    2  A    between atoms: C_5  and  N_8
REMARK    3  A    between atoms: N_8  and  C_9
REMARK    4  A    between atoms: N_8  and  C_13
REMARK    5  A    between atoms: C_9  and  C_10
REMARK    6  A    between atoms: C_10  and  C_11
REMARK    7  A    between atoms: C_10  and  O_12
REMARK    8  A    between atoms: C_13  and  C_14
REMARK    9  A    between atoms: C_14  and  C_15
REMARK   10  A    between atoms: C_14  and  O_16
REMARK                            x       y       z     vdW  Elec       q    Type
REMARK                         _______ _______ _______ _____ _____    ______ ____
ROOT
ATOM      1  N   UNL     1      11.598   0.217   9.917  0.00  0.00    +0.000 N 
ENDROOT
BRANCH   1   6
ATOM      2  C   UNL     1      13.696   3.205   5.445  0.00  0.00    +0.000 C 
ATOM      3  C   UNL     1      13.129   2.433   6.597  0.00  0.00    +0.000 A 
ATOM      4  C   UNL     1      12.808   3.067   7.793  0.00  0.00    +0.000 A 
ATOM      5  C   UNL     1      12.304   2.333   8.879  0.00  0.00    +0.000 A 
ATOM      6  C   UNL     1      12.119   0.940   8.836  0.00  0.00    +0.000 A 
ATOM      7  C   UNL     1      12.452   0.333   7.611  0.00  0.00    +0.000 A 
ATOM      8  C   UNL     1      12.954   1.055   6.516  0.00  0.00    +0.000 A 
ENDBRANCH   1   6
BRANCH   1   9
ATOM      9  C   UNL     1      12.424  -0.816  10.587  0.00  0.00    +0.000 C 
BRANCH   9  10
ATOM     10  C   UNL     1      13.915  -0.415  10.696  0.00  0.00    +0.000 C 
ATOM     11  C   UNL     1      14.212   0.218  12.050  0.00  0.00    +0.000 C 
BRANCH  10  12
ATOM     12  O   UNL     1      14.768  -1.559  10.544  0.00  0.00    +0.000 OA
ATOM     13  H   UNL     1      15.291  -1.655  11.357  0.00  0.00    +0.000 HD
ENDBRANCH  10  12
ENDBRANCH   9  10
ENDBRANCH   1   9
BRANCH   1  14
ATOM     14  C   UNL     1      10.133   0.064  10.105  0.00  0.00    +0.000 C 
BRANCH  14  15
ATOM     15  C   UNL     1       9.571   1.056  11.152  0.00  0.00    +0.000 C 
ATOM     16  C   UNL     1      10.655   1.707  12.003  0.00  0.00    +0.000 C 
BRANCH  15  17
ATOM     17  O   UNL     1       8.808   2.094  10.539  0.00  0.00    +0.000 OA
ATOM     18  H   UNL     1       8.171   1.630   9.959  0.00  0.00    +0.000 HD
ENDBRANCH  15  17
ENDBRANCH  14  15
ENDBRANCH   1  14
TORSDOF 7
ENDMDL
MODEL 8
REMARK VINA RESULT:    -5.095      2.449      3.523
REMARK INTER + INTRA:          -7.506
REMARK INTER:                  -7.055
REMARK INTRA:                  -0.450
REMARK UNBOUND:                -0.624
REMARK  Name = 
REMARK  10 active torsions:
REMARK  status: ('A' for Active; 'I' for Inactive)
REMARK    1  A    between atoms: C_1  and  C_2
REMARK    2  A    between atoms: C_5  and  N_8
REMARK    3  A    between atoms: N_8  and  C_9
REMARK    4  A    between atoms: N_8  and  C_13
REMARK    5  A    between atoms: C_9  and  C_10
REMARK    6  A    between atoms: C_10  and  C_11
REMARK    7  A    between atoms: C_10  and  O_12
REMARK    8  A    between atoms: C_13  and  C_14
REMARK    9  A    between atoms: C_14  and  C_15
REMARK   10  A    between atoms: C_14  and  O_16
REMARK                            x       y       z     vdW  Elec       q    Type
REMARK                         _______ _______ _______ _____ _____    ______ ____
ROOT
ATOM      1  N   UNL     1      11.184   1.020   9.109  0.00  0.00    +0.000 N 
ENDROOT
BRANCH   1   6
ATOM      2  C   UNL     1      11.628  -4.125  11.691  0.00  0.00    +0.000 C 
ATOM      3  C   UNL     1      11.525  -2.799  11.001  0.00  0.00    +0.000 A 
ATOM      4  C   UNL     1      12.509  -1.830  11.164  0.00  0.00    +0.000 A 
ATOM      5  C   UNL     1      12.391  -0.578  10.539  0.00  0.00    +0.000 A 
ATOM      6  C   UNL     1      11.285  -0.224   9.745  0.00  0.00    +0.000 A 
ATOM      7  C   UNL     1      10.311  -1.229   9.600  0.00  0.00    +0.000 A 
ATOM      8  C   UNL     1      10.417  -2.486  10.218  0.00  0.00    +0.000 A 
ENDBRANCH   1   6
BRANCH   1   9
ATOM      9  C   UNL     1      11.047   2.258   9.913  0.00  0.00    +0.000 C 
BRANCH   9  10
ATOM     10  C   UNL     1       9.923   2.162  10.974  0.00  0.00    +0.000 C 
ATOM     11  C   UNL     1       9.764   3.481  11.721  0.00  0.00    +0.000 C 
BRANCH  10  12
ATOM     12  O   UNL     1       8.664   1.843  10.363  0.00  0.00    +0.000 OA
ATOM     13  H   UNL     1       8.789   1.053   9.813  0.00  0.00    +0.000 HD
ENDBRANCH  10  12
ENDBRANCH   9  10
ENDBRANCH   1   9
BRANCH   1  14
ATOM     14  C   UNL     1      10.704   1.129   7.707  0.00  0.00    +0.000 C 
BRANCH  14  15
ATOM     15  C   UNL     1      11.752   1.793   6.781  0.00  0.00    +0.000 C 
ATOM     16  C   UNL     1      12.935   0.886   6.467  0.00  0.00    +0.000 C 
BRANCH  15  17
ATOM     17  O   UNL     1      11.174   2.210   5.545  0.00  0.00    +0.000 OA
ATOM     18  H   UNL     1      10.693   1.425   5.214  0.00  0.00    +0.000 HD
ENDBRANCH  15  17
ENDBRANCH  14  15
ENDBRANCH   1  14
TORSDOF 7
ENDMDL
MODEL 9
REMARK VINA RESULT:    -4.910      2.527      3.512
REMARK INTER + INTRA:          -7.255
REMARK INTER:                  -6.909
REMARK INTRA:                  -0.346
REMARK UNBOUND:                -0.624
REMARK  Name = 
REMARK  10 active torsions:
REMARK  status: ('A' for Active; 'I' for Inactive)
REMARK    1  A    between atoms: C_1  and  C_2
REMARK    2  A    between atoms: C_5  and  N_8
REMARK    3  A    between atoms: N_8  and  C_9
REMARK    4  A    between atoms: N_8  and  C_13
REMARK    5  A    between atoms: C_9  and  C_10
REMARK    6  A    between atoms: C_10  and  C_11
REMARK    7  A    between atoms: C_10  and  O_12
REMARK    8  A    between atoms: C_13  and  C_14
REMARK    9  A    between atoms: C_14  and  C_15
REMARK   10  A    between atoms: C_14  and  O_16
REMARK                            x       y       z     vdW  Elec       q    Type
REMARK                         _______ _______ _______ _____ _____    ______ ____
ROOT
ATOM      1  N   UNL     1      11.446   0.890   8.955  0.00  0.00    +0.000 N 
ENDROOT
BRANCH   1   6
ATOM      2  C   UNL     1      11.120  -4.182  11.693  0.00  0.00    +0.000 C 
ATOM      3  C   UNL     1      11.217  -2.877  10.964  0.00  0.00    +0.000 A 
ATOM      4  C   UNL     1      12.262  -1.994  11.217  0.00  0.00    +0.000 A 
ATOM      5  C   UNL     1      12.332  -0.759  10.553  0.00  0.00    +0.000 A 
ATOM      6  C   UNL     1      11.359  -0.335   9.629  0.00  0.00    +0.000 A 
ATOM      7  C   UNL     1      10.319  -1.254   9.396  0.00  0.00    +0.000 A 
ATOM      8  C   UNL     1      10.239  -2.493  10.052  0.00  0.00    +0.000 A 
ENDBRANCH   1   6
BRANCH   1   9
ATOM      9  C   UNL     1      12.618   1.185   8.097  0.00  0.00    +0.000 C 
BRANCH   9  10
ATOM     10  C   UNL     1      12.522   0.523   6.701  0.00  0.00    +0.000 C 
ATOM     11  C   UNL     1      11.571   1.296   5.795  0.00  0.00    +0.000 C 
BRANCH  10  12
ATOM     12  O   UNL     1      13.806   0.477   6.063  0.00  0.00    +0.000 OA
ATOM     13  H   UNL     1      13.665   0.322   5.114  0.00  0.00    +0.000 HD
ENDBRANCH  10  12
ENDBRANCH   9  10
ENDBRANCH   1   9
BRANCH   1  14
ATOM     14  C   UNL     1      10.707   2.086   9.437  0.00  0.00    +0.000 C 
BRANCH  14  15
ATOM     15  C   UNL     1       9.885   1.789  10.714  0.00  0.00    +0.000 C 
ATOM     16  C   UNL     1      10.456   2.451  11.962  0.00  0.00    +0.000 C 
BRANCH  15  17
ATOM     17  O   UNL     1       8.527   2.206  10.575  0.00  0.00    +0.000 OA
ATOM     18  H   UNL     1       8.182   1.694   9.816  0.00  0.00    +0.000 HD
ENDBRANCH  15  17
ENDBRANCH  14  15
ENDBRANCH   1  14
TORSDOF 7
ENDMDL
