MODEL 1
REMARK VINA RESULT:    -4.305      0.000      0.000
REMARK INTER + INTRA:          -6.415
REMARK INTER:                  -5.816
REMARK INTRA:                  -0.600
REMARK UNBOUND:                -0.600
REMARK  Name = 
REMARK  10 active torsions:
REMARK  status: ('A' for Active; 'I' for Inactive)
REMARK    1  A    between atoms: C_1  and  C_2
REMARK    2  A    between atoms: C_5  and  N_8
REMARK    3  A    between atoms: N_8  and  C_9
REMARK    4  A    between atoms: N_8  and  C_13
REMARK    5  A    between atoms: C_9  and  C_10
REMARK    6  A    between atoms: C_10  and  C_11
REMARK    7  A    between atoms: C_10  and  O_12
REMARK    8  A    between atoms: C_13  and  C_14
REMARK    9  A    between atoms: C_14  and  C_15
REMARK   10  A    between atoms: C_14  and  O_16
REMARK                            x       y       z     vdW  Elec       q    Type
REMARK                         _______ _______ _______ _____ _____    ______ ____
ROOT
ATOM      1  N   UNL     1      10.193  22.486   5.060  0.00  0.00    +0.000 N 
ENDROOT
BRANCH   1   6
ATOM      2  C   UNL     1       5.322  23.783   2.245  0.00  0.00    +0.000 C 
ATOM      3  C   UNL     1       6.597  23.441   2.954  0.00  0.00    +0.000 A 
ATOM      4  C   UNL     1       6.823  22.156   3.437  0.00  0.00    +0.000 A 
ATOM      5  C   UNL     1       8.007  21.849   4.127  0.00  0.00    +0.000 A 
ATOM      6  C   UNL     1       9.006  22.805   4.389  0.00  0.00    +0.000 A 
ATOM      7  C   UNL     1       8.744  24.092   3.884  0.00  0.00    +0.000 A 
ATOM      8  C   UNL     1       7.566  24.412   3.190  0.00  0.00    +0.000 A 
ENDBRANCH   1   6
BRANCH   1   9
ATOM      9  C   UNL     1      10.655  21.079   5.127  0.00  0.00    +0.000 C 
BRANCH   9  10
ATOM     10  C   UNL     1      10.863  20.584   6.579  0.00  0.00    +0.000 C 
ATOM     11  C   UNL     1       9.852  19.499   6.934  0.00  0.00    +0.000 C 
BRANCH  10  12
ATOM     12  O   UNL     1      12.178  20.040   6.754  0.00  0.00    +0.000 OA
ATOM     13  H   UNL     1      12.487  20.279   7.644  0.00  0.00    +0.000 HD
ENDBRANCH  10  12
ENDBRANCH   9  10
ENDBRANCH   1   9
BRANCH   1  14
ATOM     14  C   UNL     1      10.738  23.373   6.120  0.00  0.00    +0.000 C 
BRANCH  14  15
ATOM     15  C   UNL     1      12.054  24.061   5.685  0.00  0.00    +0.000 C 
ATOM     16  C   UNL     1      13.293  23.445   6.325  0.00  0.00    +0.000 C 
BRANCH  15  17
ATOM     17  O   UNL     1      12.225  24.027   4.269  0.00  0.00    +0.000 OA
ATOM     18  H   UNL     1      11.503  23.453   3.942  0.00  0.00    +0.000 HD
ENDBRANCH  15  17
ENDBRANCH  14  15
ENDBRANCH   1  14
TORSDOF 7
ENDMDL
MODEL 2
REMARK VINA RESULT:    -4.224      1.017      2.993
REMARK INTER + INTRA:          -6.305
REMARK INTER:                  -5.607
REMARK INTRA:                  -0.698
REMARK UNBOUND:                -0.600
REMARK  Name = 
REMARK  10 active torsions:
REMARK  status: ('A' for Active; 'I' for Inactive)
REMARK    1  A    between atoms: C_1  and  C_2
REMARK    2  A    between atoms: C_5  and  N_8
REMARK    3  A    between atoms: N_8  and  C_9
REMARK    4  A    between atoms: N_8  and  C_13
REMARK    5  A    between atoms: C_9  and  C_10
REMARK    6  A    between atoms: C_10  and  C_11
REMARK    7  A    between atoms: C_10  and  O_12
REMARK    8  A    between atoms: C_13  and  C_14
REMARK    9  A    between atoms: C_14  and  C_15
REMARK   10  A    between atoms: C_14  and  O_16
REMARK                            x       y       z     vdW  Elec       q    Type
REMARK                         _______ _______ _______ _____ _____    ______ ____
ROOT
ATOM      1  N   UNL     1      10.241  22.270   5.352  0.00  0.00    +0.000 N 
ENDROOT
BRANCH   1   6
ATOM      2  C   UNL     1       5.633  23.952   2.307  0.00  0.00    +0.000 C 
ATOM      3  C   UNL     1       6.841  23.510   3.076  0.00  0.00    +0.000 A 
ATOM      4  C   UNL     1       6.961  22.199   3.526  0.00  0.00    +0.000 A 
ATOM      5  C   UNL     1       8.081  21.798   4.272  0.00  0.00    +0.000 A 
ATOM      6  C   UNL     1       9.117  22.681   4.624  0.00  0.00    +0.000 A 
ATOM      7  C   UNL     1       8.964  23.998   4.151  0.00  0.00    +0.000 A 
ATOM      8  C   UNL     1       7.850  24.412   3.402  0.00  0.00    +0.000 A 
ENDBRANCH   1   6
BRANCH   1   9
ATOM      9  C   UNL     1      11.346  23.222   5.615  0.00  0.00    +0.000 C 
BRANCH   9  10
ATOM     10  C   UNL     1      12.712  22.717   5.087  0.00  0.00    +0.000 C 
ATOM     11  C   UNL     1      13.384  23.774   4.218  0.00  0.00    +0.000 C 
BRANCH  10  12
ATOM     12  O   UNL     1      13.598  22.403   6.170  0.00  0.00    +0.000 OA
ATOM     13  H   UNL     1      14.413  22.918   6.051  0.00  0.00    +0.000 HD
ENDBRANCH  10  12
ENDBRANCH   9  10
ENDBRANCH   1   9
BRANCH   1  14
ATOM     14  C   UNL     1      10.619  20.836   5.436  0.00  0.00    +0.000 C 
BRANCH  14  15
ATOM     15  C   UNL     1      10.698  20.337   6.899  0.00  0.00    +0.000 C 
ATOM     16  C   UNL     1       9.793  19.142   7.175  0.00  0.00    +0.000 C 
BRANCH  15  17
ATOM     17  O   UNL     1      12.030  19.976   7.262  0.00  0.00    +0.000 OA
ATOM     18  H   UNL     1      12.091  20.165   8.220  0.00  0.00    +0.000 HD
ENDBRANCH  15  17
ENDBRANCH  14  15
ENDBRANCH   1  14
TORSDOF 7
ENDMDL
MODEL 3
REMARK VINA RESULT:    -4.222     17.755     20.363
REMARK INTER + INTRA:          -6.303
REMARK INTER:                  -5.681
REMARK INTRA:                  -0.622
REMARK UNBOUND:                -0.600
REMARK  Name = 
REMARK  10 active torsions:
REMARK  status: ('A' for Active; 'I' for Inactive)
REMARK    1  A    between atoms: C_1  and  C_2
REMARK    2  A    between atoms: C_5  and  N_8
REMARK    3  A    between atoms: N_8  and  C_9
REMARK    4  A    between atoms: N_8  and  C_13
REMARK    5  A    between atoms: C_9  and  C_10
REMARK    6  A    between atoms: C_10  and  C_11
REMARK    7  A    between atoms: C_10  and  O_12
REMARK    8  A    between atoms: C_13  and  C_14
REMARK    9  A    between atoms: C_14  and  C_15
REMARK   10  A    between atoms: C_14  and  O_16
REMARK                            x       y       z     vdW  Elec       q    Type
REMARK                         _______ _______ _______ _____ _____    ______ ____
ROOT
ATOM      1  N   UNL     1      -0.620  20.452 -12.523  0.00  0.00    +0.000 N 
ENDROOT
BRANCH   1   6
ATOM      2  C   UNL     1      -2.190  15.141 -10.892  0.00  0.00    +0.000 C 
ATOM      3  C   UNL     1      -1.759  16.511 -11.317  0.00  0.00    +0.000 A 
ATOM      4  C   UNL     1      -1.428  17.480 -10.375  0.00  0.00    +0.000 A 
ATOM      5  C   UNL     1      -1.054  18.772 -10.778  0.00  0.00    +0.000 A 
ATOM      6  C   UNL     1      -1.013  19.167 -12.127  0.00  0.00    +0.000 A 
ATOM      7  C   UNL     1      -1.351  18.162 -13.052  0.00  0.00    +0.000 A 
ATOM      8  C   UNL     1      -1.725  16.865 -12.663  0.00  0.00    +0.000 A 
ENDBRANCH   1   6
BRANCH   1   9
ATOM      9  C   UNL     1      -1.555  21.313 -13.287  0.00  0.00    +0.000 C 
BRANCH   9  10
ATOM     10  C   UNL     1      -2.620  21.988 -12.388  0.00  0.00    +0.000 C 
ATOM     11  C   UNL     1      -3.918  21.190 -12.389  0.00  0.00    +0.000 C 
BRANCH  10  12
ATOM     12  O   UNL     1      -2.161  22.089 -11.033  0.00  0.00    +0.000 OA
ATOM     13  H   UNL     1      -1.683  21.272 -10.815  0.00  0.00    +0.000 HD
ENDBRANCH  10  12
ENDBRANCH   9  10
ENDBRANCH   1   9
BRANCH   1  14
ATOM     14  C   UNL     1       0.815  20.807 -12.667  0.00  0.00    +0.000 C 
BRANCH  14  15
ATOM     15  C   UNL     1       1.297  21.759 -11.546  0.00  0.00    +0.000 C 
ATOM     16  C   UNL     1       1.879  21.024 -10.344  0.00  0.00    +0.000 C 
BRANCH  15  17
ATOM     17  O   UNL     1       2.280  22.677 -12.021  0.00  0.00    +0.000 OA
ATOM     18  H   UNL     1       2.036  23.537 -11.624  0.00  0.00    +0.000 HD
ENDBRANCH  15  17
ENDBRANCH  14  15
ENDBRANCH   1  14
TORSDOF 7
ENDMDL
MODEL 4
REMARK VINA RESULT:    -4.055      1.809      2.566
REMARK INTER + INTRA:          -6.077
REMARK INTER:                  -5.588
REMARK INTRA:                  -0.489
REMARK UNBOUND:                -0.600
REMARK  Name = 
REMARK  10 active torsions:
REMARK  status: ('A' for Active; 'I' for Inactive)
REMARK    1  A    between atoms: C_1  and  C_2
REMARK    2  A    between atoms: C_5  and  N_8
REMARK    3  A    between atoms: N_8  and  C_9
REMARK    4  A    between atoms: N_8  and  C_13
REMARK    5  A    between atoms: C_9  and  C_10
REMARK    6  A    between atoms: C_10  and  C_11
REMARK    7  A    between atoms: C_10  and  O_12
REMARK    8  A    between atoms: C_13  and  C_14
REMARK    9  A    between atoms: C_14  and  C_15
REMARK   10  A    between atoms: C_14  and  O_16
REMARK                            x       y       z     vdW  Elec       q    Type
REMARK                         _______ _______ _______ _____ _____    ______ ____
ROOT
ATOM      1  N   UNL     1      11.350  21.860   5.901  0.00  0.00    +0.000 N 
ENDROOT
BRANCH   1   6
ATOM      2  C   UNL     1       6.896  24.271   3.130  0.00  0.00    +0.000 C 
ATOM      3  C   UNL     1       8.041  23.650   3.871  0.00  0.00    +0.000 A 
ATOM      4  C   UNL     1       9.136  24.412   4.263  0.00  0.00    +0.000 A 
ATOM      5  C   UNL     1      10.219  23.818   4.931  0.00  0.00    +0.000 A 
ATOM      6  C   UNL     1      10.275  22.442   5.217  0.00  0.00    +0.000 A 
ATOM      7  C   UNL     1       9.150  21.703   4.808  0.00  0.00    +0.000 A 
ATOM      8  C   UNL     1       8.059  22.285   4.141  0.00  0.00    +0.000 A 
ENDBRANCH   1   6
BRANCH   1   9
ATOM      9  C   UNL     1      11.135  21.229   7.225  0.00  0.00    +0.000 C 
BRANCH   9  10
ATOM     10  C   UNL     1      10.784  19.724   7.124  0.00  0.00    +0.000 C 
ATOM     11  C   UNL     1      11.711  18.889   7.999  0.00  0.00    +0.000 C 
BRANCH  10  12
ATOM     12  O   UNL     1       9.435  19.481   7.546  0.00  0.00    +0.000 OA
ATOM     13  H   UNL     1       9.320  19.871   8.428  0.00  0.00    +0.000 HD
ENDBRANCH  10  12
ENDBRANCH   9  10
ENDBRANCH   1   9
BRANCH   1  14
ATOM     14  C   UNL     1      12.750  22.273   5.626  0.00  0.00    +0.000 C 
BRANCH  14  15
ATOM     15  C   UNL     1      13.531  21.198   4.831  0.00  0.00    +0.000 C 
ATOM     16  C   UNL     1      14.480  20.381   5.700  0.00  0.00    +0.000 C 
BRANCH  15  17
ATOM     17  O   UNL     1      12.652  20.293   4.165  0.00  0.00    +0.000 OA
ATOM     18  H   UNL     1      12.359  20.770   3.363  0.00  0.00    +0.000 HD
ENDBRANCH  15  17
ENDBRANCH  14  15
ENDBRANCH   1  14
TORSDOF 7
ENDMDL
MODEL 5
REMARK VINA RESULT:    -4.004      3.341      6.305
REMARK INTER + INTRA:          -6.009
REMARK INTER:                  -5.291
REMARK INTRA:                  -0.718
REMARK UNBOUND:                -0.600
REMARK  Name = 
REMARK  10 active torsions:
REMARK  status: ('A' for Active; 'I' for Inactive)
REMARK    1  A    between atoms: C_1  and  C_2
REMARK    2  A    between atoms: C_5  and  N_8
REMARK    3  A    between atoms: N_8  and  C_9
REMARK    4  A    between atoms: N_8  and  C_13
REMARK    5  A    between atoms: C_9  and  C_10
REMARK    6  A    between atoms: C_10  and  C_11
REMARK    7  A    between atoms: C_10  and  O_12
REMARK    8  A    between atoms: C_13  and  C_14
REMARK    9  A    between atoms: C_14  and  C_15
REMARK   10  A    between atoms: C_14  and  O_16
REMARK                            x       y       z     vdW  Elec       q    Type
REMARK                         _______ _______ _______ _____ _____    ______ ____
ROOT
ATOM      1  N   UNL     1      11.770  21.291   6.739  0.00  0.00    +0.000 N 
ENDROOT
BRANCH   1   6
ATOM      2  C   UNL     1      16.097  18.925   3.737  0.00  0.00    +0.000 C 
ATOM      3  C   UNL     1      14.989  19.558   4.522  0.00  0.00    +0.000 A 
ATOM      4  C   UNL     1      14.792  19.242   5.862  0.00  0.00    +0.000 A 
ATOM      5  C   UNL     1      13.733  19.816   6.585  0.00  0.00    +0.000 A 
ATOM      6  C   UNL     1      12.812  20.708   6.007  0.00  0.00    +0.000 A 
ATOM      7  C   UNL     1      13.043  21.006   4.651  0.00  0.00    +0.000 A 
ATOM      8  C   UNL     1      14.099  20.441   3.917  0.00  0.00    +0.000 A 
ENDBRANCH   1   6
BRANCH   1   9
ATOM      9  C   UNL     1      11.750  22.756   6.964  0.00  0.00    +0.000 C 
BRANCH   9  10
ATOM     10  C   UNL     1      10.755  23.493   6.034  0.00  0.00    +0.000 C 
ATOM     11  C   UNL     1      11.494  24.255   4.940  0.00  0.00    +0.000 C 
BRANCH  10  12
ATOM     12  O   UNL     1       9.859  22.568   5.403  0.00  0.00    +0.000 OA
ATOM     13  H   UNL     1       8.949  22.865   5.575  0.00  0.00    +0.000 HD
ENDBRANCH  10  12
ENDBRANCH   9  10
ENDBRANCH   1   9
BRANCH   1  14
ATOM     14  C   UNL     1      10.977  20.498   7.713  0.00  0.00    +0.000 C 
BRANCH  14  15
ATOM     15  C   UNL     1      10.142  19.392   7.024  0.00  0.00    +0.000 C 
ATOM     16  C   UNL     1       9.462  18.451   8.012  0.00  0.00    +0.000 C 
BRANCH  15  17
ATOM     17  O   UNL     1       9.136  19.942   6.175  0.00  0.00    +0.000 OA
ATOM     18  H   UNL     1       8.546  20.443   6.773  0.00  0.00    +0.000 HD
ENDBRANCH  15  17
ENDBRANCH  14  15
ENDBRANCH   1  14
TORSDOF 7
ENDMDL
MODEL 6
REMARK VINA RESULT:    -3.963     18.009     20.544
REMARK INTER + INTRA:          -5.952
REMARK INTER:                  -5.399
REMARK INTRA:                  -0.553
REMARK UNBOUND:                -0.600
REMARK  Name = 
REMARK  10 active torsions:
REMARK  status: ('A' for Active; 'I' for Inactive)
REMARK    1  A    between atoms: C_1  and  C_2
REMARK    2  A    between atoms: C_5  and  N_8
REMARK    3  A    between atoms: N_8  and  C_9
REMARK    4  A    between atoms: N_8  and  C_13
REMARK    5  A    between atoms: C_9  and  C_10
REMARK    6  A    between atoms: C_10  and  C_11
REMARK    7  A    between atoms: C_10  and  O_12
REMARK    8  A    between atoms: C_13  and  C_14
REMARK    9  A    between atoms: C_14  and  C_15
REMARK   10  A    between atoms: C_14  and  O_16
REMARK                            x       y       z     vdW  Elec       q    Type
REMARK                         _______ _______ _______ _____ _____    ______ ____
ROOT
ATOM      1  N   UNL     1      -0.895  20.986 -12.249  0.00  0.00    +0.000 N 
ENDROOT
BRANCH   1   6
ATOM      2  C   UNL     1      -1.638  15.328 -11.375  0.00  0.00    +0.000 C 
ATOM      3  C   UNL     1      -1.470  16.799 -11.600  0.00  0.00    +0.000 A 
ATOM      4  C   UNL     1      -1.443  17.327 -12.887  0.00  0.00    +0.000 A 
ATOM      5  C   UNL     1      -1.255  18.703 -13.093  0.00  0.00    +0.000 A 
ATOM      6  C   UNL     1      -1.062  19.612 -12.037  0.00  0.00    +0.000 A 
ATOM      7  C   UNL     1      -1.097  19.044 -10.750  0.00  0.00    +0.000 A 
ATOM      8  C   UNL     1      -1.286  17.670 -10.530  0.00  0.00    +0.000 A 
ENDBRANCH   1   6
BRANCH   1   9
ATOM      9  C   UNL     1       0.406  21.511 -12.731  0.00  0.00    +0.000 C 
BRANCH   9  10
ATOM     10  C   UNL     1       1.226  22.200 -11.613  0.00  0.00    +0.000 C 
ATOM     11  C   UNL     1       1.904  21.168 -10.719  0.00  0.00    +0.000 C 
BRANCH  10  12
ATOM     12  O   UNL     1       2.244  23.044 -12.168  0.00  0.00    +0.000 OA
ATOM     13  H   UNL     1       2.148  23.037 -13.135  0.00  0.00    +0.000 HD
ENDBRANCH  10  12
ENDBRANCH   9  10
ENDBRANCH   1   9
BRANCH   1  14
ATOM     14  C   UNL     1      -1.750  21.981 -11.554  0.00  0.00    +0.000 C 
BRANCH  14  15
ATOM     15  C   UNL     1      -3.123  22.157 -12.247  0.00  0.00    +0.000 C 
ATOM     16  C   UNL     1      -3.075  21.896 -13.747  0.00  0.00    +0.000 C 
BRANCH  15  17
ATOM     17  O   UNL     1      -4.113  21.299 -11.680  0.00  0.00    +0.000 OA
ATOM     18  H   UNL     1      -4.801  21.902 -11.333  0.00  0.00    +0.000 HD
ENDBRANCH  15  17
ENDBRANCH  14  15
ENDBRANCH   1  14
TORSDOF 7
ENDMDL
MODEL 7
REMARK VINA RESULT:    -3.943     19.516     21.142
REMARK INTER + INTRA:          -5.926
REMARK INTER:                  -5.534
REMARK INTRA:                  -0.392
REMARK UNBOUND:                -0.600
REMARK  Name = 
REMARK  10 active torsions:
REMARK  status: ('A' for Active; 'I' for Inactive)
REMARK    1  A    between atoms: C_1  and  C_2
REMARK    2  A    between atoms: C_5  and  N_8
REMARK    3  A    between atoms: N_8  and  C_9
REMARK    4  A    between atoms: N_8  and  C_13
REMARK    5  A    between atoms: C_9  and  C_10
REMARK    6  A    between atoms: C_10  and  C_11
REMARK    7  A    between atoms: C_10  and  O_12
REMARK    8  A    between atoms: C_13  and  C_14
REMARK    9  A    between atoms: C_14  and  C_15
REMARK   10  A    between atoms: C_14  and  O_16
REMARK                            x       y       z     vdW  Elec       q    Type
REMARK                         _______ _______ _______ _____ _____    ______ ____
ROOT
ATOM      1  N   UNL     1      -2.678  17.084 -11.729  0.00  0.00    +0.000 N 
ENDROOT
BRANCH   1   6
ATOM      2  C   UNL     1       0.373  21.916 -12.549  0.00  0.00    +0.000 C 
ATOM      3  C   UNL     1      -0.399  20.648 -12.344  0.00  0.00    +0.000 A 
ATOM      4  C   UNL     1      -1.175  20.111 -13.365  0.00  0.00    +0.000 A 
ATOM      5  C   UNL     1      -1.920  18.939 -13.157  0.00  0.00    +0.000 A 
ATOM      6  C   UNL     1      -1.948  18.263 -11.924  0.00  0.00    +0.000 A 
ATOM      7  C   UNL     1      -1.150  18.834 -10.915  0.00  0.00    +0.000 A 
ATOM      8  C   UNL     1      -0.398  20.004 -11.110  0.00  0.00    +0.000 A 
ENDBRANCH   1   6
BRANCH   1   9
ATOM      9  C   UNL     1      -3.117  16.280 -12.895  0.00  0.00    +0.000 C 
BRANCH   9  10
ATOM     10  C   UNL     1      -2.165  15.098 -13.201  0.00  0.00    +0.000 C 
ATOM     11  C   UNL     1      -0.743  15.412 -12.750  0.00  0.00    +0.000 C 
BRANCH  10  12
ATOM     12  O   UNL     1      -2.592  13.906 -12.528  0.00  0.00    +0.000 OA
ATOM     13  H   UNL     1      -2.269  13.142 -13.034  0.00  0.00    +0.000 HD
ENDBRANCH  10  12
ENDBRANCH   9  10
ENDBRANCH   1   9
BRANCH   1  14
ATOM     14  C   UNL     1      -3.462  16.861 -10.487  0.00  0.00    +0.000 C 
BRANCH  14  15
ATOM     15  C   UNL     1      -2.967  15.626  -9.698  0.00  0.00    +0.000 C 
ATOM     16  C   UNL     1      -1.529  15.761  -9.213  0.00  0.00    +0.000 C 
BRANCH  15  17
ATOM     17  O   UNL     1      -3.792  15.359  -8.565  0.00  0.00    +0.000 OA
ATOM     18  H   UNL     1      -3.884  14.385  -8.542  0.00  0.00    +0.000 HD
ENDBRANCH  15  17
ENDBRANCH  14  15
ENDBRANCH   1  14
TORSDOF 7
ENDMDL
MODEL 8
REMARK VINA RESULT:    -3.829     18.698     21.216
REMARK INTER + INTRA:          -5.772
REMARK INTER:                  -5.344
REMARK INTRA:                  -0.428
REMARK UNBOUND:                -0.600
REMARK  Name = 
REMARK  10 active torsions:
REMARK  status: ('A' for Active; 'I' for Inactive)
REMARK    1  A    between atoms: C_1  and  C_2
REMARK    2  A    between atoms: C_5  and  N_8
REMARK    3  A    between atoms: N_8  and  C_9
REMARK    4  A    between atoms: N_8  and  C_13
REMARK    5  A    between atoms: C_9  and  C_10
REMARK    6  A    between atoms: C_10  and  C_11
REMARK    7  A    between atoms: C_10  and  O_12
REMARK    8  A    between atoms: C_13  and  C_14
REMARK    9  A    between atoms: C_14  and  C_15
REMARK   10  A    between atoms: C_14  and  O_16
REMARK                            x       y       z     vdW  Elec       q    Type
REMARK                         _______ _______ _______ _____ _____    ______ ____
ROOT
ATOM      1  N   UNL     1      -2.432  16.557 -11.494  0.00  0.00    +0.000 N 
ENDROOT
BRANCH   1   6
ATOM      2  C   UNL     1      -1.964  22.283 -12.065  0.00  0.00    +0.000 C 
ATOM      3  C   UNL     1      -2.093  20.800 -11.893  0.00  0.00    +0.000 A 
ATOM      4  C   UNL     1      -1.019  20.036 -11.450  0.00  0.00    +0.000 A 
ATOM      5  C   UNL     1      -1.137  18.643 -11.320  0.00  0.00    +0.000 A 
ATOM      6  C   UNL     1      -2.315  17.945 -11.645  0.00  0.00    +0.000 A 
ATOM      7  C   UNL     1      -3.381  18.750 -12.087  0.00  0.00    +0.000 A 
ATOM      8  C   UNL     1      -3.277  20.144 -12.220  0.00  0.00    +0.000 A 
ENDBRANCH   1   6
BRANCH   1   9
ATOM      9  C   UNL     1      -1.349  15.787 -10.835  0.00  0.00    +0.000 C 
BRANCH   9  10
ATOM     10  C   UNL     1      -1.594  15.584  -9.320  0.00  0.00    +0.000 C 
ATOM     11  C   UNL     1      -0.765  16.563  -8.498  0.00  0.00    +0.000 C 
BRANCH  10  12
ATOM     12  O   UNL     1      -2.976  15.786  -8.990  0.00  0.00    +0.000 OA
ATOM     13  H   UNL     1      -3.243  15.086  -8.372  0.00  0.00    +0.000 HD
ENDBRANCH  10  12
ENDBRANCH   9  10
ENDBRANCH   1   9
BRANCH   1  14
ATOM     14  C   UNL     1      -3.314  15.759 -12.384  0.00  0.00    +0.000 C 
BRANCH  14  15
ATOM     15  C   UNL     1      -3.173  14.238 -12.134  0.00  0.00    +0.000 C 
ATOM     16  C   UNL     1      -4.467  13.586 -11.663  0.00  0.00    +0.000 C 
BRANCH  15  17
ATOM     17  O   UNL     1      -2.731  13.550 -13.303  0.00  0.00    +0.000 OA
ATOM     18  H   UNL     1      -3.552  13.261 -13.752  0.00  0.00    +0.000 HD
ENDBRANCH  15  17
ENDBRANCH  14  15
ENDBRANCH   1  14
TORSDOF 7
ENDMDL
MODEL 9
REMARK VINA RESULT:    -3.797      4.187      6.468
REMARK INTER + INTRA:          -5.728
REMARK INTER:                  -5.278
REMARK INTRA:                  -0.450
REMARK UNBOUND:                -0.600
REMARK  Name = 
REMARK  10 active torsions:
REMARK  status: ('A' for Active; 'I' for Inactive)
REMARK    1  A    between atoms: C_1  and  C_2
REMARK    2  A    between atoms: C_5  and  N_8
REMARK    3  A    between atoms: N_8  and  C_9
REMARK    4  A    between atoms: N_8  and  C_13
REMARK    5  A    between atoms: C_9  and  C_10
REMARK    6  A    between atoms: C_10  and  C_11
REMARK    7  A    between atoms: C_10  and  O_12
REMARK    8  A    between atoms: C_13  and  C_14
REMARK    9  A    between atoms: C_14  and  C_15
REMARK   10  A    between atoms: C_14  and  O_16
REMARK                            x       y       z     vdW  Elec       q    Type
REMARK                         _______ _______ _______ _____ _____    ______ ____
ROOT
ATOM      1  N   UNL     1      14.676  20.842   4.323  0.00  0.00    +0.000 N 
ENDROOT
BRANCH   1   6
ATOM      2  C   UNL     1      10.009  19.686   7.519  0.00  0.00    +0.000 C 
ATOM      3  C   UNL     1      11.221  20.008   6.700  0.00  0.00    +0.000 A 
ATOM      4  C   UNL     1      11.099  20.554   5.426  0.00  0.00    +0.000 A 
ATOM      5  C   UNL     1      12.237  20.827   4.651  0.00  0.00    +0.000 A 
ATOM      6  C   UNL     1      13.544  20.549   5.093  0.00  0.00    +0.000 A 
ATOM      7  C   UNL     1      13.630  20.000   6.386  0.00  0.00    +0.000 A 
ATOM      8  C   UNL     1      12.499  19.725   7.173  0.00  0.00    +0.000 A 
ENDBRANCH   1   6
BRANCH   1   9
ATOM      9  C   UNL     1      14.540  21.618   3.067  0.00  0.00    +0.000 C 
BRANCH   9  10
ATOM     10  C   UNL     1      14.928  23.107   3.237  0.00  0.00    +0.000 C 
ATOM     11  C   UNL     1      16.427  23.306   3.042  0.00  0.00    +0.000 C 
BRANCH  10  12
ATOM     12  O   UNL     1      14.243  23.930   2.283  0.00  0.00    +0.000 OA
ATOM     13  H   UNL     1      14.410  23.567   1.397  0.00  0.00    +0.000 HD
ENDBRANCH  10  12
ENDBRANCH   9  10
ENDBRANCH   1   9
BRANCH   1  14
ATOM     14  C   UNL     1      15.903  20.009   4.413  0.00  0.00    +0.000 C 
BRANCH  14  15
ATOM     15  C   UNL     1      16.163  19.209   3.114  0.00  0.00    +0.000 C 
ATOM     16  C   UNL     1      17.621  18.801   2.942  0.00  0.00    +0.000 C 
BRANCH  15  17
ATOM     17  O   UNL     1      15.364  18.029   3.054  0.00  0.00    +0.000 OA
ATOM     18  H   UNL     1      14.848  18.029   3.885  0.00  0.00    +0.000 HD
ENDBRANCH  15  17
ENDBRANCH  14  15
ENDBRANCH   1  14
TORSDOF 7
ENDMDL
