MODEL 1
REMARK VINA RESULT:    -4.965      0.000      0.000
REMARK INTER + INTRA:          -5.442
REMARK INTER:                  -5.401
REMARK INTRA:                  -0.041
REMARK UNBOUND:                -0.041
REMARK  Name = 
REMARK  3 active torsions:
REMARK  status: ('A' for Active; 'I' for Inactive)
REMARK    1  A    between atoms: C_1  and  O_2
REMARK    2  A    between atoms: O_2  and  C_3
REMARK    3  A    between atoms: C_8  and  O_9
REMARK                            x       y       z     vdW  Elec       q    Type
REMARK                         _______ _______ _______ _____ _____    ______ ____
ROOT
ATOM      1  C   UNL     1      12.582   0.943   6.251  0.00  0.00    +0.000 A 
ATOM      2  C   UNL     1      12.603   0.823   7.640  0.00  0.00    +0.000 A 
ATOM      3  C   UNL     1      11.464   0.374   8.320  0.00  0.00    +0.000 A 
ATOM      4  C   UNL     1      10.303   0.046   7.617  0.00  0.00    +0.000 A 
ATOM      5  C   UNL     1      10.275   0.162   6.229  0.00  0.00    +0.000 A 
ATOM      6  C   UNL     1      11.409   0.609   5.563  0.00  0.00    +0.000 A 
ENDROOT
BRANCH   1   8
ATOM      7  C   UNL     1      13.888   2.765   5.461  0.00  0.00    +0.000 C 
ATOM      8  O   UNL     1      13.618   1.368   5.458  0.00  0.00    +0.000 OA
ENDBRANCH   1   8
BRANCH   6   9
ATOM      9  O   UNL     1      11.358   0.715   4.199  0.00  0.00    +0.000 OA
ATOM     10  H   UNL     1      10.586   0.178   3.936  0.00  0.00    +0.000 HD
ENDBRANCH   6   9
TORSDOF 2
ENDMDL
MODEL 2
REMARK VINA RESULT:    -4.758      2.130      3.357
REMARK INTER + INTRA:          -5.217
REMARK INTER:                  -5.165
REMARK INTRA:                  -0.051
REMARK UNBOUND:                -0.041
REMARK  Name = 
REMARK  3 active torsions:
REMARK  status: ('A' for Active; 'I' for Inactive)
REMARK    1  A    between atoms: C_1  and  O_2
REMARK    2  A    between atoms: O_2  and  C_3
REMARK    3  A    between atoms: C_8  and  O_9
REMARK                            x       y       z     vdW  Elec       q    Type
REMARK                         _______ _______ _______ _____ _____    ______ ____
ROOT
ATOM      1  C   UNL     1      11.069   0.438   7.724  0.00  0.00    +0.000 A 
ATOM      2  C   UNL     1      12.451   0.621   7.758  0.00  0.00    +0.000 A 
ATOM      3  C   UNL     1      13.157   0.845   6.570  0.00  0.00    +0.000 A 
ATOM      4  C   UNL     1      12.487   0.885   5.345  0.00  0.00    +0.000 A 
ATOM      5  C   UNL     1      11.107   0.703   5.303  0.00  0.00    +0.000 A 
ATOM      6  C   UNL     1      10.415   0.482   6.487  0.00  0.00    +0.000 A 
ENDROOT
BRANCH   1   8
ATOM      7  C   UNL     1      10.554  -0.932   9.596  0.00  0.00    +0.000 C 
ATOM      8  O   UNL     1      10.254   0.210   8.803  0.00  0.00    +0.000 OA
ENDBRANCH   1   8
BRANCH   6   9
ATOM      9  O   UNL     1       9.058   0.305   6.419  0.00  0.00    +0.000 OA
ATOM     10  H   UNL     1       8.816  -0.090   7.278  0.00  0.00    +0.000 HD
ENDBRANCH   6   9
TORSDOF 2
ENDMDL
MODEL 3
REMARK VINA RESULT:    -4.680      1.739      2.931
REMARK INTER + INTRA:          -5.132
REMARK INTER:                  -5.091
REMARK INTRA:                  -0.041
REMARK UNBOUND:                -0.041
REMARK  Name = 
REMARK  3 active torsions:
REMARK  status: ('A' for Active; 'I' for Inactive)
REMARK    1  A    between atoms: C_1  and  O_2
REMARK    2  A    between atoms: O_2  and  C_3
REMARK    3  A    between atoms: C_8  and  O_9
REMARK                            x       y       z     vdW  Elec       q    Type
REMARK                         _______ _______ _______ _____ _____    ______ ____
ROOT
ATOM      1  C   UNL     1      11.383   1.391   6.217  0.00  0.00    +0.000 A 
ATOM      2  C   UNL     1      11.598   0.453   7.226  0.00  0.00    +0.000 A 
ATOM      3  C   UNL     1      12.207   0.843   8.425  0.00  0.00    +0.000 A 
ATOM      4  C   UNL     1      12.604   2.167   8.620  0.00  0.00    +0.000 A 
ATOM      5  C   UNL     1      12.392   3.110   7.617  0.00  0.00    +0.000 A 
ATOM      6  C   UNL     1      11.787   2.715   6.431  0.00  0.00    +0.000 A 
ENDROOT
BRANCH   1   8
ATOM      7  C   UNL     1       9.811   0.132   4.956  0.00  0.00    +0.000 C 
ATOM      8  O   UNL     1      10.801   1.152   4.998  0.00  0.00    +0.000 OA
ENDBRANCH   1   8
BRANCH   6   9
ATOM      9  O   UNL     1      11.589   3.660   5.460  0.00  0.00    +0.000 OA
ATOM     10  H   UNL     1      11.597   4.512   5.937  0.00  0.00    +0.000 HD
ENDBRANCH   6   9
TORSDOF 2
ENDMDL
MODEL 4
REMARK VINA RESULT:    -4.651      1.410      2.272
REMARK INTER + INTRA:          -5.100
REMARK INTER:                  -5.051
REMARK INTRA:                  -0.050
REMARK UNBOUND:                -0.041
REMARK  Name = 
REMARK  3 active torsions:
REMARK  status: ('A' for Active; 'I' for Inactive)
REMARK    1  A    between atoms: C_1  and  O_2
REMARK    2  A    between atoms: O_2  and  C_3
REMARK    3  A    between atoms: C_8  and  O_9
REMARK                            x       y       z     vdW  Elec       q    Type
REMARK                         _______ _______ _______ _____ _____    ______ ____
ROOT
ATOM      1  C   UNL     1      11.684   0.932   6.833  0.00  0.00    +0.000 A 
ATOM      2  C   UNL     1      10.508   0.315   7.256  0.00  0.00    +0.000 A 
ATOM      3  C   UNL     1       9.557  -0.097   6.314  0.00  0.00    +0.000 A 
ATOM      4  C   UNL     1       9.777   0.106   4.950  0.00  0.00    +0.000 A 
ATOM      5  C   UNL     1      10.950   0.722   4.520  0.00  0.00    +0.000 A 
ATOM      6  C   UNL     1      11.888   1.128   5.461  0.00  0.00    +0.000 A 
ENDROOT
BRANCH   1   8
ATOM      7  C   UNL     1      12.421   2.547   8.413  0.00  0.00    +0.000 C 
ATOM      8  O   UNL     1      12.697   1.386   7.640  0.00  0.00    +0.000 OA
ENDBRANCH   1   8
BRANCH   6   9
ATOM      9  O   UNL     1      13.033   1.731   5.014  0.00  0.00    +0.000 OA
ATOM     10  H   UNL     1      12.878   2.686   5.144  0.00  0.00    +0.000 HD
ENDBRANCH   6   9
TORSDOF 2
ENDMDL
MODEL 5
REMARK VINA RESULT:    -4.566     12.143     13.363
REMARK INTER + INTRA:          -5.007
REMARK INTER:                  -4.962
REMARK INTRA:                  -0.045
REMARK UNBOUND:                -0.041
REMARK  Name = 
REMARK  3 active torsions:
REMARK  status: ('A' for Active; 'I' for Inactive)
REMARK    1  A    between atoms: C_1  and  O_2
REMARK    2  A    between atoms: O_2  and  C_3
REMARK    3  A    between atoms: C_8  and  O_9
REMARK                            x       y       z     vdW  Elec       q    Type
REMARK                         _______ _______ _______ _____ _____    ______ ____
ROOT
ATOM      1  C   UNL     1       4.982  -9.865   7.037  0.00  0.00    +0.000 A 
ATOM      2  C   UNL     1       4.939 -10.993   7.855  0.00  0.00    +0.000 A 
ATOM      3  C   UNL     1       4.235 -12.131   7.443  0.00  0.00    +0.000 A 
ATOM      4  C   UNL     1       3.572 -12.146   6.214  0.00  0.00    +0.000 A 
ATOM      5  C   UNL     1       3.610 -11.023   5.390  0.00  0.00    +0.000 A 
ATOM      6  C   UNL     1       4.311  -9.899   5.808  0.00  0.00    +0.000 A 
ENDROOT
BRANCH   1   8
ATOM      7  C   UNL     1       6.919  -8.795   7.900  0.00  0.00    +0.000 C 
ATOM      8  O   UNL     1       5.629  -8.687   7.312  0.00  0.00    +0.000 OA
ENDBRANCH   1   8
BRANCH   6   9
ATOM      9  O   UNL     1       4.334  -8.808   4.981  0.00  0.00    +0.000 OA
ATOM     10  H   UNL     1       3.762  -9.053   4.230  0.00  0.00    +0.000 HD
ENDBRANCH   6   9
TORSDOF 2
ENDMDL
MODEL 6
REMARK VINA RESULT:    -4.530      2.078      2.779
REMARK INTER + INTRA:          -4.969
REMARK INTER:                  -4.934
REMARK INTRA:                  -0.035
REMARK UNBOUND:                -0.041
REMARK  Name = 
REMARK  3 active torsions:
REMARK  status: ('A' for Active; 'I' for Inactive)
REMARK    1  A    between atoms: C_1  and  O_2
REMARK    2  A    between atoms: O_2  and  C_3
REMARK    3  A    between atoms: C_8  and  O_9
REMARK                            x       y       z     vdW  Elec       q    Type
REMARK                         _______ _______ _______ _____ _____    ______ ____
ROOT
ATOM      1  C   UNL     1      11.641   1.044   6.886  0.00  0.00    +0.000 A 
ATOM      2  C   UNL     1      12.107   0.975   5.574  0.00  0.00    +0.000 A 
ATOM      3  C   UNL     1      11.255   0.541   4.550  0.00  0.00    +0.000 A 
ATOM      4  C   UNL     1       9.939   0.173   4.834  0.00  0.00    +0.000 A 
ATOM      5  C   UNL     1       9.466   0.239   6.143  0.00  0.00    +0.000 A 
ATOM      6  C   UNL     1      10.318   0.671   7.151  0.00  0.00    +0.000 A 
ENDROOT
BRANCH   1   8
ATOM      7  C   UNL     1      12.557   2.849   8.130  0.00  0.00    +0.000 C 
ATOM      8  O   UNL     1      12.360   1.448   7.982  0.00  0.00    +0.000 OA
ENDBRANCH   1   8
BRANCH   6   9
ATOM      9  O   UNL     1       9.830   0.727   8.430  0.00  0.00    +0.000 OA
ATOM     10  H   UNL     1       9.535  -0.183   8.623  0.00  0.00    +0.000 HD
ENDBRANCH   6   9
TORSDOF 2
ENDMDL
MODEL 7
REMARK VINA RESULT:    -4.453      1.889      3.121
REMARK INTER + INTRA:          -4.885
REMARK INTER:                  -4.841
REMARK INTRA:                  -0.044
REMARK UNBOUND:                -0.041
REMARK  Name = 
REMARK  3 active torsions:
REMARK  status: ('A' for Active; 'I' for Inactive)
REMARK    1  A    between atoms: C_1  and  O_2
REMARK    2  A    between atoms: O_2  and  C_3
REMARK    3  A    between atoms: C_8  and  O_9
REMARK                            x       y       z     vdW  Elec       q    Type
REMARK                         _______ _______ _______ _____ _____    ______ ____
ROOT
ATOM      1  C   UNL     1      11.342   0.923   6.022  0.00  0.00    +0.000 A 
ATOM      2  C   UNL     1      12.481   1.655   5.689  0.00  0.00    +0.000 A 
ATOM      3  C   UNL     1      13.029   2.555   6.612  0.00  0.00    +0.000 A 
ATOM      4  C   UNL     1      12.442   2.727   7.867  0.00  0.00    +0.000 A 
ATOM      5  C   UNL     1      11.305   1.998   8.207  0.00  0.00    +0.000 A 
ATOM      6  C   UNL     1      10.768   1.108   7.285  0.00  0.00    +0.000 A 
ENDROOT
BRANCH   1   8
ATOM      7  C   UNL     1       9.927   0.541   4.152  0.00  0.00    +0.000 C 
ATOM      8  O   UNL     1      10.701   0.012   5.221  0.00  0.00    +0.000 OA
ENDBRANCH   1   8
BRANCH   6   9
ATOM      9  O   UNL     1       9.649   0.404   7.643  0.00  0.00    +0.000 OA
ATOM     10  H   UNL     1       9.309   0.863   8.434  0.00  0.00    +0.000 HD
ENDBRANCH   6   9
TORSDOF 2
ENDMDL
MODEL 8
REMARK VINA RESULT:    -4.377     11.573     12.376
REMARK INTER + INTRA:          -4.802
REMARK INTER:                  -4.753
REMARK INTRA:                  -0.049
REMARK UNBOUND:                -0.041
REMARK  Name = 
REMARK  3 active torsions:
REMARK  status: ('A' for Active; 'I' for Inactive)
REMARK    1  A    between atoms: C_1  and  O_2
REMARK    2  A    between atoms: O_2  and  C_3
REMARK    3  A    between atoms: C_8  and  O_9
REMARK                            x       y       z     vdW  Elec       q    Type
REMARK                         _______ _______ _______ _____ _____    ______ ____
ROOT
ATOM      1  C   UNL     1       5.480  -9.642   7.853  0.00  0.00    +0.000 A 
ATOM      2  C   UNL     1       4.348  -9.344   8.609  0.00  0.00    +0.000 A 
ATOM      3  C   UNL     1       4.486  -8.821   9.901  0.00  0.00    +0.000 A 
ATOM      4  C   UNL     1       5.754  -8.597  10.442  0.00  0.00    +0.000 A 
ATOM      5  C   UNL     1       6.890  -8.891   9.692  0.00  0.00    +0.000 A 
ATOM      6  C   UNL     1       6.743  -9.409   8.412  0.00  0.00    +0.000 A 
ENDROOT
BRANCH   1   8
ATOM      7  C   UNL     1       4.722  -9.463   5.608  0.00  0.00    +0.000 C 
ATOM      8  O   UNL     1       5.495 -10.155   6.581  0.00  0.00    +0.000 OA
ENDBRANCH   1   8
BRANCH   6   9
ATOM      9  O   UNL     1       7.875  -9.691   7.695  0.00  0.00    +0.000 OA
ATOM     10  H   UNL     1       7.908 -10.666   7.656  0.00  0.00    +0.000 HD
ENDBRANCH   6   9
TORSDOF 2
ENDMDL
MODEL 9
REMARK VINA RESULT:    -4.261     13.056     13.605
REMARK INTER + INTRA:          -4.675
REMARK INTER:                  -4.623
REMARK INTRA:                  -0.053
REMARK UNBOUND:                -0.041
REMARK  Name = 
REMARK  3 active torsions:
REMARK  status: ('A' for Active; 'I' for Inactive)
REMARK    1  A    between atoms: C_1  and  O_2
REMARK    2  A    between atoms: O_2  and  C_3
REMARK    3  A    between atoms: C_8  and  O_9
REMARK                            x       y       z     vdW  Elec       q    Type
REMARK                         _______ _______ _______ _____ _____    ______ ____
ROOT
ATOM      1  C   UNL     1       4.354 -10.119   8.603  0.00  0.00    +0.000 A 
ATOM      2  C   UNL     1       3.649  -8.951   8.314  0.00  0.00    +0.000 A 
ATOM      3  C   UNL     1       3.647  -8.440   7.010  0.00  0.00    +0.000 A 
ATOM      4  C   UNL     1       4.349  -9.092   5.993  0.00  0.00    +0.000 A 
ATOM      5  C   UNL     1       5.055 -10.259   6.275  0.00  0.00    +0.000 A 
ATOM      6  C   UNL     1       5.051 -10.758   7.571  0.00  0.00    +0.000 A 
ENDROOT
BRANCH   1   8
ATOM      7  C   UNL     1       5.130 -10.011  10.847  0.00  0.00    +0.000 C 
ATOM      8  O   UNL     1       4.444 -10.729   9.829  0.00  0.00    +0.000 OA
ENDBRANCH   1   8
BRANCH   6   9
ATOM      9  O   UNL     1       5.753 -11.907   7.823  0.00  0.00    +0.000 OA
ATOM     10  H   UNL     1       5.070 -12.584   7.987  0.00  0.00    +0.000 HD
ENDBRANCH   6   9
TORSDOF 2
ENDMDL
