MODEL 1
REMARK VINA RESULT:    -4.204      0.000      0.000
REMARK INTER + INTRA:          -6.376
REMARK INTER:                  -5.678
REMARK INTRA:                  -0.698
REMARK UNBOUND:                -0.698
REMARK  Name = 
REMARK  10 active torsions:
REMARK  status: ('A' for Active; 'I' for Inactive)
REMARK    1  A    between atoms: C_1  and  C_2
REMARK    2  A    between atoms: C_5  and  N_8
REMARK    3  A    between atoms: N_8  and  C_9
REMARK    4  A    between atoms: N_8  and  C_13
REMARK    5  A    between atoms: C_9  and  C_10
REMARK    6  A    between atoms: C_10  and  C_11
REMARK    7  A    between atoms: C_10  and  O_12
REMARK    8  A    between atoms: C_13  and  C_14
REMARK    9  A    between atoms: C_14  and  C_15
REMARK   10  A    between atoms: C_14  and  O_16
REMARK                            x       y       z     vdW  Elec       q    Type
REMARK                         _______ _______ _______ _____ _____    ______ ____
ROOT
ATOM      1  N   UNL     1      10.217  22.161   5.347  0.00  0.00    +0.000 N 
ENDROOT
BRANCH   1   6
ATOM      2  C   UNL     1       5.666  24.036   2.331  0.00  0.00    +0.000 C 
ATOM      3  C   UNL     1       6.859  23.544   3.092  0.00  0.00    +0.000 A 
ATOM      4  C   UNL     1       6.944  22.220   3.508  0.00  0.00    +0.000 A 
ATOM      5  C   UNL     1       8.051  21.772   4.247  0.00  0.00    +0.000 A 
ATOM      6  C   UNL     1       9.107  22.620   4.626  0.00  0.00    +0.000 A 
ATOM      7  C   UNL     1       8.988  23.951   4.187  0.00  0.00    +0.000 A 
ATOM      8  C   UNL     1       7.888  24.412   3.445  0.00  0.00    +0.000 A 
ENDBRANCH   1   6
BRANCH   1   9
ATOM      9  C   UNL     1      11.364  23.066   5.600  0.00  0.00    +0.000 C 
BRANCH   9  10
ATOM     10  C   UNL     1      12.674  22.574   4.935  0.00  0.00    +0.000 C 
ATOM     11  C   UNL     1      13.342  23.697   4.151  0.00  0.00    +0.000 C 
BRANCH  10  12
ATOM     12  O   UNL     1      13.605  22.104   5.919  0.00  0.00    +0.000 OA
ATOM     13  H   UNL     1      13.959  22.876   6.392  0.00  0.00    +0.000 HD
ENDBRANCH  10  12
ENDBRANCH   9  10
ENDBRANCH   1   9
BRANCH   1  14
ATOM     14  C   UNL     1      10.533  20.712   5.433  0.00  0.00    +0.000 C 
BRANCH  14  15
ATOM     15  C   UNL     1      10.720  20.240   6.895  0.00  0.00    +0.000 C 
ATOM     16  C   UNL     1       9.777  19.107   7.284  0.00  0.00    +0.000 C 
BRANCH  15  17
ATOM     17  O   UNL     1      12.056  19.808   7.143  0.00  0.00    +0.000 OA
ATOM     18  H   UNL     1      12.057  18.853   6.928  0.00  0.00    +0.000 HD
ENDBRANCH  15  17
ENDBRANCH  14  15
ENDBRANCH   1  14
TORSDOF 7
ENDMDL
MODEL 2
REMARK VINA RESULT:    -4.143     17.941     20.629
REMARK INTER + INTRA:          -6.294
REMARK INTER:                  -5.670
REMARK INTRA:                  -0.623
REMARK UNBOUND:                -0.698
REMARK  Name = 
REMARK  10 active torsions:
REMARK  status: ('A' for Active; 'I' for Inactive)
REMARK    1  A    between atoms: C_1  and  C_2
REMARK    2  A    between atoms: C_5  and  N_8
REMARK    3  A    between atoms: N_8  and  C_9
REMARK    4  A    between atoms: N_8  and  C_13
REMARK    5  A    between atoms: C_9  and  C_10
REMARK    6  A    between atoms: C_10  and  C_11
REMARK    7  A    between atoms: C_10  and  O_12
REMARK    8  A    between atoms: C_13  and  C_14
REMARK    9  A    between atoms: C_14  and  C_15
REMARK   10  A    between atoms: C_14  and  O_16
REMARK                            x       y       z     vdW  Elec       q    Type
REMARK                         _______ _______ _______ _____ _____    ______ ____
ROOT
ATOM      1  N   UNL     1      -0.628  20.434 -12.523  0.00  0.00    +0.000 N 
ENDROOT
BRANCH   1   6
ATOM      2  C   UNL     1      -2.119  15.101 -10.892  0.00  0.00    +0.000 C 
ATOM      3  C   UNL     1      -1.708  16.478 -11.316  0.00  0.00    +0.000 A 
ATOM      4  C   UNL     1      -1.416  17.458 -10.374  0.00  0.00    +0.000 A 
ATOM      5  C   UNL     1      -1.061  18.755 -10.777  0.00  0.00    +0.000 A 
ATOM      6  C   UNL     1      -1.003  19.144 -12.128  0.00  0.00    +0.000 A 
ATOM      7  C   UNL     1      -1.302  18.127 -13.053  0.00  0.00    +0.000 A 
ATOM      8  C   UNL     1      -1.656  16.825 -12.663  0.00  0.00    +0.000 A 
ENDBRANCH   1   6
BRANCH   1   9
ATOM      9  C   UNL     1      -1.579  21.285 -13.278  0.00  0.00    +0.000 C 
BRANCH   9  10
ATOM     10  C   UNL     1      -2.645  21.946 -12.369  0.00  0.00    +0.000 C 
ATOM     11  C   UNL     1      -3.928  21.125 -12.347  0.00  0.00    +0.000 C 
BRANCH  10  12
ATOM     12  O   UNL     1      -2.170  22.064 -11.021  0.00  0.00    +0.000 OA
ATOM     13  H   UNL     1      -1.637  21.277 -10.819  0.00  0.00    +0.000 HD
ENDBRANCH  10  12
ENDBRANCH   9  10
ENDBRANCH   1   9
BRANCH   1  14
ATOM     14  C   UNL     1       0.801  20.807 -12.677  0.00  0.00    +0.000 C 
BRANCH  14  15
ATOM     15  C   UNL     1       1.280  21.761 -11.556  0.00  0.00    +0.000 C 
ATOM     16  C   UNL     1       1.896  21.030 -10.369  0.00  0.00    +0.000 C 
BRANCH  15  17
ATOM     17  O   UNL     1       2.237  22.703 -12.039  0.00  0.00    +0.000 OA
ATOM     18  H   UNL     1       2.119  22.708 -13.010  0.00  0.00    +0.000 HD
ENDBRANCH  15  17
ENDBRANCH  14  15
ENDBRANCH   1  14
TORSDOF 7
ENDMDL
MODEL 3
REMARK VINA RESULT:    -3.931      3.247      5.529
REMARK INTER + INTRA:          -6.007
REMARK INTER:                  -5.292
REMARK INTRA:                  -0.715
REMARK UNBOUND:                -0.698
REMARK  Name = 
REMARK  10 active torsions:
REMARK  status: ('A' for Active; 'I' for Inactive)
REMARK    1  A    between atoms: C_1  and  C_2
REMARK    2  A    between atoms: C_5  and  N_8
REMARK    3  A    between atoms: N_8  and  C_9
REMARK    4  A    between atoms: N_8  and  C_13
REMARK    5  A    between atoms: C_9  and  C_10
REMARK    6  A    between atoms: C_10  and  C_11
REMARK    7  A    between atoms: C_10  and  O_12
REMARK    8  A    between atoms: C_13  and  C_14
REMARK    9  A    between atoms: C_14  and  C_15
REMARK   10  A    between atoms: C_14  and  O_16
REMARK                            x       y       z     vdW  Elec       q    Type
REMARK                         _______ _______ _______ _____ _____    ______ ____
ROOT
ATOM      1  N   UNL     1      11.820  21.308   6.723  0.00  0.00    +0.000 N 
ENDROOT
BRANCH   1   6
ATOM      2  C   UNL     1      16.141  18.946   3.711  0.00  0.00    +0.000 C 
ATOM      3  C   UNL     1      15.035  19.577   4.500  0.00  0.00    +0.000 A 
ATOM      4  C   UNL     1      14.810  19.222   5.825  0.00  0.00    +0.000 A 
ATOM      5  C   UNL     1      13.752  19.795   6.550  0.00  0.00    +0.000 A 
ATOM      6  C   UNL     1      12.860  20.725   5.988  0.00  0.00    +0.000 A 
ATOM      7  C   UNL     1      13.119  21.063   4.647  0.00  0.00    +0.000 A 
ATOM      8  C   UNL     1      14.174  20.499   3.911  0.00  0.00    +0.000 A 
ENDBRANCH   1   6
BRANCH   1   9
ATOM      9  C   UNL     1      11.786  22.775   6.930  0.00  0.00    +0.000 C 
BRANCH   9  10
ATOM     10  C   UNL     1      10.747  23.485   6.028  0.00  0.00    +0.000 C 
ATOM     11  C   UNL     1      11.436  24.310   4.948  0.00  0.00    +0.000 C 
BRANCH  10  12
ATOM     12  O   UNL     1       9.891  22.533   5.382  0.00  0.00    +0.000 OA
ATOM     13  H   UNL     1       9.146  23.016   4.987  0.00  0.00    +0.000 HD
ENDBRANCH  10  12
ENDBRANCH   9  10
ENDBRANCH   1   9
BRANCH   1  14
ATOM     14  C   UNL     1      11.045  20.520   7.716  0.00  0.00    +0.000 C 
BRANCH  14  15
ATOM     15  C   UNL     1      10.177  19.427   7.046  0.00  0.00    +0.000 C 
ATOM     16  C   UNL     1       9.582  18.439   8.042  0.00  0.00    +0.000 C 
BRANCH  15  17
ATOM     17  O   UNL     1       9.107  19.993   6.291  0.00  0.00    +0.000 OA
ATOM     18  H   UNL     1       9.053  20.923   6.588  0.00  0.00    +0.000 HD
ENDBRANCH  15  17
ENDBRANCH  14  15
ENDBRANCH   1  14
TORSDOF 7
ENDMDL
MODEL 4
REMARK VINA RESULT:    -3.915      0.920      3.054
REMARK INTER + INTRA:          -5.986
REMARK INTER:                  -5.556
REMARK INTRA:                  -0.430
REMARK UNBOUND:                -0.698
REMARK  Name = 
REMARK  10 active torsions:
REMARK  status: ('A' for Active; 'I' for Inactive)
REMARK    1  A    between atoms: C_1  and  C_2
REMARK    2  A    between atoms: C_5  and  N_8
REMARK    3  A    between atoms: N_8  and  C_9
REMARK    4  A    between atoms: N_8  and  C_13
REMARK    5  A    between atoms: C_9  and  C_10
REMARK    6  A    between atoms: C_10  and  C_11
REMARK    7  A    between atoms: C_10  and  O_12
REMARK    8  A    between atoms: C_13  and  C_14
REMARK    9  A    between atoms: C_14  and  C_15
REMARK   10  A    between atoms: C_14  and  O_16
REMARK                            x       y       z     vdW  Elec       q    Type
REMARK                         _______ _______ _______ _____ _____    ______ ____
ROOT
ATOM      1  N   UNL     1      10.461  22.301   5.294  0.00  0.00    +0.000 N 
ENDROOT
BRANCH   1   6
ATOM      2  C   UNL     1       5.650  23.899   2.532  0.00  0.00    +0.000 C 
ATOM      3  C   UNL     1       6.910  23.480   3.227  0.00  0.00    +0.000 A 
ATOM      4  C   UNL     1       7.107  22.159   3.613  0.00  0.00    +0.000 A 
ATOM      5  C   UNL     1       8.276  21.777   4.291  0.00  0.00    +0.000 A 
ATOM      6  C   UNL     1       9.289  22.691   4.635  0.00  0.00    +0.000 A 
ATOM      7  C   UNL     1       9.057  24.018   4.227  0.00  0.00    +0.000 A 
ATOM      8  C   UNL     1       7.893  24.412   3.547  0.00  0.00    +0.000 A 
ENDBRANCH   1   6
BRANCH   1   9
ATOM      9  C   UNL     1      10.747  20.862   5.513  0.00  0.00    +0.000 C 
BRANCH   9  10
ATOM     10  C   UNL     1      10.720  20.467   7.010  0.00  0.00    +0.000 C 
ATOM     11  C   UNL     1       9.807  19.268   7.240  0.00  0.00    +0.000 C 
BRANCH  10  12
ATOM     12  O   UNL     1      12.032  20.122   7.475  0.00  0.00    +0.000 OA
ATOM     13  H   UNL     1      12.094  20.368   8.413  0.00  0.00    +0.000 HD
ENDBRANCH  10  12
ENDBRANCH   9  10
ENDBRANCH   1   9
BRANCH   1  14
ATOM     14  C   UNL     1      11.170  23.226   6.215  0.00  0.00    +0.000 C 
BRANCH  14  15
ATOM     15  C   UNL     1      12.513  23.722   5.626  0.00  0.00    +0.000 C 
ATOM     16  C   UNL     1      13.666  22.755   5.865  0.00  0.00    +0.000 C 
BRANCH  15  17
ATOM     17  O   UNL     1      12.417  23.958   4.222  0.00  0.00    +0.000 OA
ATOM     18  H   UNL     1      12.324  23.070   3.822  0.00  0.00    +0.000 HD
ENDBRANCH  15  17
ENDBRANCH  14  15
ENDBRANCH   1  14
TORSDOF 7
ENDMDL
MODEL 5
REMARK VINA RESULT:    -3.873     19.582     21.168
REMARK INTER + INTRA:          -5.929
REMARK INTER:                  -5.536
REMARK INTRA:                  -0.394
REMARK UNBOUND:                -0.698
REMARK  Name = 
REMARK  10 active torsions:
REMARK  status: ('A' for Active; 'I' for Inactive)
REMARK    1  A    between atoms: C_1  and  C_2
REMARK    2  A    between atoms: C_5  and  N_8
REMARK    3  A    between atoms: N_8  and  C_9
REMARK    4  A    between atoms: N_8  and  C_13
REMARK    5  A    between atoms: C_9  and  C_10
REMARK    6  A    between atoms: C_10  and  C_11
REMARK    7  A    between atoms: C_10  and  O_12
REMARK    8  A    between atoms: C_13  and  C_14
REMARK    9  A    between atoms: C_14  and  C_15
REMARK   10  A    between atoms: C_14  and  O_16
REMARK                            x       y       z     vdW  Elec       q    Type
REMARK                         _______ _______ _______ _____ _____    ______ ____
ROOT
ATOM      1  N   UNL     1      -2.660  17.056 -11.727  0.00  0.00    +0.000 N 
ENDROOT
BRANCH   1   6
ATOM      2  C   UNL     1       0.453  21.864 -12.451  0.00  0.00    +0.000 C 
ATOM      3  C   UNL     1      -0.335  20.603 -12.271  0.00  0.00    +0.000 A 
ATOM      4  C   UNL     1      -1.137  20.109 -13.295  0.00  0.00    +0.000 A 
ATOM      5  C   UNL     1      -1.897  18.942 -13.110  0.00  0.00    +0.000 A 
ATOM      6  C   UNL     1      -1.915  18.229 -11.898  0.00  0.00    +0.000 A 
ATOM      7  C   UNL     1      -1.091  18.756 -10.886  0.00  0.00    +0.000 A 
ATOM      8  C   UNL     1      -0.324  19.920 -11.058  0.00  0.00    +0.000 A 
ENDBRANCH   1   6
BRANCH   1   9
ATOM      9  C   UNL     1      -3.092  16.271 -12.908  0.00  0.00    +0.000 C 
BRANCH   9  10
ATOM     10  C   UNL     1      -2.137  15.095 -13.229  0.00  0.00    +0.000 C 
ATOM     11  C   UNL     1      -0.717  15.405 -12.769  0.00  0.00    +0.000 C 
BRANCH  10  12
ATOM     12  O   UNL     1      -2.564  13.892 -12.574  0.00  0.00    +0.000 OA
ATOM     13  H   UNL     1      -3.534  13.860 -12.606  0.00  0.00    +0.000 HD
ENDBRANCH  10  12
ENDBRANCH   9  10
ENDBRANCH   1   9
BRANCH   1  14
ATOM     14  C   UNL     1      -3.462  16.827 -10.498  0.00  0.00    +0.000 C 
BRANCH  14  15
ATOM     15  C   UNL     1      -2.998  15.570  -9.723  0.00  0.00    +0.000 C 
ATOM     16  C   UNL     1      -1.559  15.665  -9.232  0.00  0.00    +0.000 C 
BRANCH  15  17
ATOM     17  O   UNL     1      -3.833  15.307  -8.596  0.00  0.00    +0.000 OA
ATOM     18  H   UNL     1      -4.642  15.834  -8.753  0.00  0.00    +0.000 HD
ENDBRANCH  15  17
ENDBRANCH  14  15
ENDBRANCH   1  14
TORSDOF 7
ENDMDL
MODEL 6
REMARK VINA RESULT:    -3.847     17.958     20.661
REMARK INTER + INTRA:          -5.894
REMARK INTER:                  -5.320
REMARK INTRA:                  -0.574
REMARK UNBOUND:                -0.698
REMARK  Name = 
REMARK  10 active torsions:
REMARK  status: ('A' for Active; 'I' for Inactive)
REMARK    1  A    between atoms: C_1  and  C_2
REMARK    2  A    between atoms: C_5  and  N_8
REMARK    3  A    between atoms: N_8  and  C_9
REMARK    4  A    between atoms: N_8  and  C_13
REMARK    5  A    between atoms: C_9  and  C_10
REMARK    6  A    between atoms: C_10  and  C_11
REMARK    7  A    between atoms: C_10  and  O_12
REMARK    8  A    between atoms: C_13  and  C_14
REMARK    9  A    between atoms: C_14  and  C_15
REMARK   10  A    between atoms: C_14  and  O_16
REMARK                            x       y       z     vdW  Elec       q    Type
REMARK                         _______ _______ _______ _____ _____    ______ ____
ROOT
ATOM      1  N   UNL     1      -0.760  20.628 -12.308  0.00  0.00    +0.000 N 
ENDROOT
BRANCH   1   6
ATOM      2  C   UNL     1      -1.980  15.112 -11.120  0.00  0.00    +0.000 C 
ATOM      3  C   UNL     1      -1.639  16.537 -11.431  0.00  0.00    +0.000 A 
ATOM      4  C   UNL     1      -1.354  17.441 -10.413  0.00  0.00    +0.000 A 
ATOM      5  C   UNL     1      -1.065  18.783 -10.708  0.00  0.00    +0.000 A 
ATOM      6  C   UNL     1      -1.069  19.293 -12.020  0.00  0.00    +0.000 A 
ATOM      7  C   UNL     1      -1.359  18.350 -13.023  0.00  0.00    +0.000 A 
ATOM      8  C   UNL     1      -1.648  17.004 -12.742  0.00  0.00    +0.000 A 
ENDBRANCH   1   6
BRANCH   1   9
ATOM      9  C   UNL     1       0.639  21.020 -12.605  0.00  0.00    +0.000 C 
BRANCH   9  10
ATOM     10  C   UNL     1       1.260  21.911 -11.502  0.00  0.00    +0.000 C 
ATOM     11  C   UNL     1       1.914  21.061 -10.419  0.00  0.00    +0.000 C 
BRANCH  10  12
ATOM     12  O   UNL     1       2.259  22.784 -12.046  0.00  0.00    +0.000 OA
ATOM     13  H   UNL     1       3.069  22.681 -11.519  0.00  0.00    +0.000 HD
ENDBRANCH  10  12
ENDBRANCH   9  10
ENDBRANCH   1   9
BRANCH   1  14
ATOM     14  C   UNL     1      -1.634  21.736 -11.846  0.00  0.00    +0.000 C 
BRANCH  14  15
ATOM     15  C   UNL     1      -2.803  22.005 -12.825  0.00  0.00    +0.000 C 
ATOM     16  C   UNL     1      -4.173  21.749 -12.207  0.00  0.00    +0.000 C 
BRANCH  15  17
ATOM     17  O   UNL     1      -2.783  23.344 -13.315  0.00  0.00    +0.000 OA
ATOM     18  H   UNL     1      -3.701  23.666 -13.210  0.00  0.00    +0.000 HD
ENDBRANCH  15  17
ENDBRANCH  14  15
ENDBRANCH   1  14
TORSDOF 7
ENDMDL
MODEL 7
REMARK VINA RESULT:    -3.797      3.061      6.675
REMARK INTER + INTRA:          -5.827
REMARK INTER:                  -5.287
REMARK INTRA:                  -0.540
REMARK UNBOUND:                -0.698
REMARK  Name = 
REMARK  10 active torsions:
REMARK  status: ('A' for Active; 'I' for Inactive)
REMARK    1  A    between atoms: C_1  and  C_2
REMARK    2  A    between atoms: C_5  and  N_8
REMARK    3  A    between atoms: N_8  and  C_9
REMARK    4  A    between atoms: N_8  and  C_13
REMARK    5  A    between atoms: C_9  and  C_10
REMARK    6  A    between atoms: C_10  and  C_11
REMARK    7  A    between atoms: C_10  and  O_12
REMARK    8  A    between atoms: C_13  and  C_14
REMARK    9  A    between atoms: C_14  and  C_15
REMARK   10  A    between atoms: C_14  and  O_16
REMARK                            x       y       z     vdW  Elec       q    Type
REMARK                         _______ _______ _______ _____ _____    ______ ____
ROOT
ATOM      1  N   UNL     1      11.911  20.647   6.050  0.00  0.00    +0.000 N 
ENDROOT
BRANCH   1   6
ATOM      2  C   UNL     1      17.337  19.143   4.779  0.00  0.00    +0.000 C 
ATOM      3  C   UNL     1      15.921  19.512   5.099  0.00  0.00    +0.000 A 
ATOM      4  C   UNL     1      15.156  20.251   4.203  0.00  0.00    +0.000 A 
ATOM      5  C   UNL     1      13.838  20.620   4.521  0.00  0.00    +0.000 A 
ATOM      6  C   UNL     1      13.232  20.293   5.747  0.00  0.00    +0.000 A 
ATOM      7  C   UNL     1      14.034  19.544   6.627  0.00  0.00    +0.000 A 
ATOM      8  C   UNL     1      15.352  19.167   6.321  0.00  0.00    +0.000 A 
ENDBRANCH   1   6
BRANCH   1   9
ATOM      9  C   UNL     1      11.354  20.362   7.394  0.00  0.00    +0.000 C 
BRANCH   9  10
ATOM     10  C   UNL     1      10.466  19.093   7.419  0.00  0.00    +0.000 C 
ATOM     11  C   UNL     1      11.032  18.051   8.376  0.00  0.00    +0.000 C 
BRANCH  10  12
ATOM     12  O   UNL     1       9.132  19.406   7.841  0.00  0.00    +0.000 OA
ATOM     13  H   UNL     1       8.547  19.336   7.069  0.00  0.00    +0.000 HD
ENDBRANCH  10  12
ENDBRANCH   9  10
ENDBRANCH   1   9
BRANCH   1  14
ATOM     14  C   UNL     1      10.897  20.823   4.978  0.00  0.00    +0.000 C 
BRANCH  14  15
ATOM     15  C   UNL     1       9.724  21.728   5.426  0.00  0.00    +0.000 C 
ATOM     16  C   UNL     1       9.682  23.062   4.690  0.00  0.00    +0.000 C 
BRANCH  15  17
ATOM     17  O   UNL     1       8.464  21.085   5.248  0.00  0.00    +0.000 OA
ATOM     18  H   UNL     1       7.798  21.783   5.412  0.00  0.00    +0.000 HD
ENDBRANCH  15  17
ENDBRANCH  14  15
ENDBRANCH   1  14
TORSDOF 7
ENDMDL
MODEL 8
REMARK VINA RESULT:    -3.795      1.548      3.478
REMARK INTER + INTRA:          -5.823
REMARK INTER:                  -5.472
REMARK INTRA:                  -0.351
REMARK UNBOUND:                -0.698
REMARK  Name = 
REMARK  10 active torsions:
REMARK  status: ('A' for Active; 'I' for Inactive)
REMARK    1  A    between atoms: C_1  and  C_2
REMARK    2  A    between atoms: C_5  and  N_8
REMARK    3  A    between atoms: N_8  and  C_9
REMARK    4  A    between atoms: N_8  and  C_13
REMARK    5  A    between atoms: C_9  and  C_10
REMARK    6  A    between atoms: C_10  and  C_11
REMARK    7  A    between atoms: C_10  and  O_12
REMARK    8  A    between atoms: C_13  and  C_14
REMARK    9  A    between atoms: C_14  and  C_15
REMARK   10  A    between atoms: C_14  and  O_16
REMARK                            x       y       z     vdW  Elec       q    Type
REMARK                         _______ _______ _______ _____ _____    ______ ____
ROOT
ATOM      1  N   UNL     1      11.552  21.728   6.155  0.00  0.00    +0.000 N 
ENDROOT
BRANCH   1   6
ATOM      2  C   UNL     1       7.325  24.382   3.254  0.00  0.00    +0.000 C 
ATOM      3  C   UNL     1       8.434  23.690   3.985  0.00  0.00    +0.000 A 
ATOM      4  C   UNL     1       8.391  22.319   4.216  0.00  0.00    +0.000 A 
ATOM      5  C   UNL     1       9.419  21.681   4.929  0.00  0.00    +0.000 A 
ATOM      6  C   UNL     1      10.520  22.375   5.462  0.00  0.00    +0.000 A 
ATOM      7  C   UNL     1      10.532  23.758   5.208  0.00  0.00    +0.000 A 
ATOM      8  C   UNL     1       9.511  24.409   4.495  0.00  0.00    +0.000 A 
ENDBRANCH   1   6
BRANCH   1   9
ATOM      9  C   UNL     1      11.270  21.045   7.441  0.00  0.00    +0.000 C 
BRANCH   9  10
ATOM     10  C   UNL     1      10.770  19.592   7.251  0.00  0.00    +0.000 C 
ATOM     11  C   UNL     1      11.589  18.620   8.092  0.00  0.00    +0.000 C 
BRANCH  10  12
ATOM     12  O   UNL     1       9.395  19.467   7.640  0.00  0.00    +0.000 OA
ATOM     13  H   UNL     1       9.138  18.535   7.540  0.00  0.00    +0.000 HD
ENDBRANCH  10  12
ENDBRANCH   9  10
ENDBRANCH   1   9
BRANCH   1  14
ATOM     14  C   UNL     1      12.973  22.109   5.948  0.00  0.00    +0.000 C 
BRANCH  14  15
ATOM     15  C   UNL     1      13.554  21.513   4.644  0.00  0.00    +0.000 C 
ATOM     16  C   UNL     1      15.070  21.362   4.676  0.00  0.00    +0.000 C 
BRANCH  15  17
ATOM     17  O   UNL     1      12.989  20.236   4.350  0.00  0.00    +0.000 OA
ATOM     18  H   UNL     1      12.843  19.818   5.223  0.00  0.00    +0.000 HD
ENDBRANCH  15  17
ENDBRANCH  14  15
ENDBRANCH   1  14
TORSDOF 7
ENDMDL
MODEL 9
REMARK VINA RESULT:    -3.634      4.085      5.793
REMARK INTER + INTRA:          -5.607
REMARK INTER:                  -5.095
REMARK INTRA:                  -0.512
REMARK UNBOUND:                -0.698
REMARK  Name = 
REMARK  10 active torsions:
REMARK  status: ('A' for Active; 'I' for Inactive)
REMARK    1  A    between atoms: C_1  and  C_2
REMARK    2  A    between atoms: C_5  and  N_8
REMARK    3  A    between atoms: N_8  and  C_9
REMARK    4  A    between atoms: N_8  and  C_13
REMARK    5  A    between atoms: C_9  and  C_10
REMARK    6  A    between atoms: C_10  and  C_11
REMARK    7  A    between atoms: C_10  and  O_12
REMARK    8  A    between atoms: C_13  and  C_14
REMARK    9  A    between atoms: C_14  and  C_15
REMARK   10  A    between atoms: C_14  and  O_16
REMARK                            x       y       z     vdW  Elec       q    Type
REMARK                         _______ _______ _______ _____ _____    ______ ____
ROOT
ATOM      1  N   UNL     1      14.429  20.634   4.709  0.00  0.00    +0.000 N 
ENDROOT
BRANCH   1   6
ATOM      2  C   UNL     1       9.933  19.433   8.125  0.00  0.00    +0.000 C 
ATOM      3  C   UNL     1      11.102  19.766   7.250  0.00  0.00    +0.000 A 
ATOM      4  C   UNL     1      10.921  20.401   6.026  0.00  0.00    +0.000 A 
ATOM      5  C   UNL     1      12.018  20.684   5.196  0.00  0.00    +0.000 A 
ATOM      6  C   UNL     1      13.338  20.331   5.532  0.00  0.00    +0.000 A 
ATOM      7  C   UNL     1      13.484  19.693   6.778  0.00  0.00    +0.000 A 
ATOM      8  C   UNL     1      12.395  19.406   7.618  0.00  0.00    +0.000 A 
ENDBRANCH   1   6
BRANCH   1   9
ATOM      9  C   UNL     1      14.229  21.420   3.468  0.00  0.00    +0.000 C 
BRANCH   9  10
ATOM     10  C   UNL     1      14.786  22.861   3.574  0.00  0.00    +0.000 C 
ATOM     11  C   UNL     1      16.018  23.035   2.694  0.00  0.00    +0.000 C 
BRANCH  10  12
ATOM     12  O   UNL     1      13.806  23.823   3.162  0.00  0.00    +0.000 OA
ATOM     13  H   UNL     1      13.377  23.490   2.356  0.00  0.00    +0.000 HD
ENDBRANCH  10  12
ENDBRANCH   9  10
ENDBRANCH   1   9
BRANCH   1  14
ATOM     14  C   UNL     1      15.662  19.805   4.732  0.00  0.00    +0.000 C 
BRANCH  14  15
ATOM     15  C   UNL     1      16.015  19.244   3.333  0.00  0.00    +0.000 C 
ATOM     16  C   UNL     1      17.505  18.978   3.152  0.00  0.00    +0.000 C 
BRANCH  15  17
ATOM     17  O   UNL     1      15.313  18.033   3.058  0.00  0.00    +0.000 OA
ATOM     18  H   UNL     1      14.435  18.150   3.475  0.00  0.00    +0.000 HD
ENDBRANCH  15  17
ENDBRANCH  14  15
ENDBRANCH   1  14
TORSDOF 7
ENDMDL
