MODEL 1
REMARK VINA RESULT:    -5.879      0.000      0.000
REMARK INTER + INTRA:          -8.478
REMARK INTER:                  -7.941
REMARK INTRA:                  -0.537
REMARK UNBOUND:                -0.537
REMARK  Name = 
REMARK  10 active torsions:
REMARK  status: ('A' for Active; 'I' for Inactive)
REMARK    1  A    between atoms: C_1  and  C_2
REMARK    2  A    between atoms: C_5  and  N_8
REMARK    3  A    between atoms: N_8  and  C_9
REMARK    4  A    between atoms: N_8  and  C_13
REMARK    5  A    between atoms: C_9  and  C_10
REMARK    6  A    between atoms: C_10  and  C_11
REMARK    7  A    between atoms: C_10  and  O_12
REMARK    8  A    between atoms: C_13  and  C_14
REMARK    9  A    between atoms: C_14  and  C_15
REMARK   10  A    between atoms: C_14  and  O_16
REMARK                            x       y       z     vdW  Elec       q    Type
REMARK                         _______ _______ _______ _____ _____    ______ ____
ROOT
ATOM      1  N   UNL     1       9.573   7.845   6.174  0.00  0.00    +0.000 N 
ENDROOT
BRANCH   1   6
ATOM      2  C   UNL     1      14.628   9.116   3.694  0.00  0.00    +0.000 C 
ATOM      3  C   UNL     1      13.305   8.798   4.319  0.00  0.00    +0.000 A 
ATOM      4  C   UNL     1      12.732   9.653   5.255  0.00  0.00    +0.000 A 
ATOM      5  C   UNL     1      11.505   9.335   5.860  0.00  0.00    +0.000 A 
ATOM      6  C   UNL     1      10.805   8.147   5.582  0.00  0.00    +0.000 A 
ATOM      7  C   UNL     1      11.412   7.307   4.630  0.00  0.00    +0.000 A 
ATOM      8  C   UNL     1      12.638   7.615   4.016  0.00  0.00    +0.000 A 
ENDBRANCH   1   6
BRANCH   1   9
ATOM      9  C   UNL     1       8.543   7.100   5.410  0.00  0.00    +0.000 C 
BRANCH   9  10
ATOM     10  C   UNL     1       7.151   7.134   6.088  0.00  0.00    +0.000 C 
ATOM     11  C   UNL     1       6.045   7.302   5.053  0.00  0.00    +0.000 C 
BRANCH  10  12
ATOM     12  O   UNL     1       6.902   5.922   6.812  0.00  0.00    +0.000 OA
ATOM     13  H   UNL     1       7.690   5.719   7.342  0.00  0.00    +0.000 HD
ENDBRANCH  10  12
ENDBRANCH   9  10
ENDBRANCH   1   9
BRANCH   1  14
ATOM     14  C   UNL     1       9.049   8.646   7.311  0.00  0.00    +0.000 C 
BRANCH  14  15
ATOM     15  C   UNL     1       9.392   8.011   8.680  0.00  0.00    +0.000 C 
ATOM     16  C   UNL     1       8.485   8.490   9.807  0.00  0.00    +0.000 C 
BRANCH  15  17
ATOM     17  O   UNL     1       9.322   6.586   8.632  0.00  0.00    +0.000 OA
ATOM     18  H   UNL     1       9.366   6.363   7.681  0.00  0.00    +0.000 HD
ENDBRANCH  15  17
ENDBRANCH  14  15
ENDBRANCH   1  14
TORSDOF 7
ENDMDL
MODEL 2
REMARK VINA RESULT:    -5.871      0.716      3.109
REMARK INTER + INTRA:          -8.467
REMARK INTER:                  -8.174
REMARK INTRA:                  -0.293
REMARK UNBOUND:                -0.537
REMARK  Name = 
REMARK  10 active torsions:
REMARK  status: ('A' for Active; 'I' for Inactive)
REMARK    1  A    between atoms: C_1  and  C_2
REMARK    2  A    between atoms: C_5  and  N_8
REMARK    3  A    between atoms: N_8  and  C_9
REMARK    4  A    between atoms: N_8  and  C_13
REMARK    5  A    between atoms: C_9  and  C_10
REMARK    6  A    between atoms: C_10  and  C_11
REMARK    7  A    between atoms: C_10  and  O_12
REMARK    8  A    between atoms: C_13  and  C_14
REMARK    9  A    between atoms: C_14  and  C_15
REMARK   10  A    between atoms: C_14  and  O_16
REMARK                            x       y       z     vdW  Elec       q    Type
REMARK                         _______ _______ _______ _____ _____    ______ ____
ROOT
ATOM      1  N   UNL     1       9.340   8.073   6.176  0.00  0.00    +0.000 N 
ENDROOT
BRANCH   1   6
ATOM      2  C   UNL     1      14.390   9.248   3.636  0.00  0.00    +0.000 C 
ATOM      3  C   UNL     1      13.092   8.933   4.314  0.00  0.00    +0.000 A 
ATOM      4  C   UNL     1      12.432   7.733   4.072  0.00  0.00    +0.000 A 
ATOM      5  C   UNL     1      11.200   7.456   4.688  0.00  0.00    +0.000 A 
ATOM      6  C   UNL     1      10.559   8.364   5.550  0.00  0.00    +0.000 A 
ATOM      7  C   UNL     1      11.256   9.566   5.774  0.00  0.00    +0.000 A 
ATOM      8  C   UNL     1      12.489   9.855   5.166  0.00  0.00    +0.000 A 
ENDBRANCH   1   6
BRANCH   1   9
ATOM      9  C   UNL     1       9.099   8.511   7.572  0.00  0.00    +0.000 C 
BRANCH   9  10
ATOM     10  C   UNL     1       9.420   7.408   8.611  0.00  0.00    +0.000 C 
ATOM     11  C   UNL     1      10.914   7.106   8.640  0.00  0.00    +0.000 C 
BRANCH  10  12
ATOM     12  O   UNL     1       9.023   7.811   9.929  0.00  0.00    +0.000 OA
ATOM     13  H   UNL     1       9.494   8.633  10.147  0.00  0.00    +0.000 HD
ENDBRANCH  10  12
ENDBRANCH   9  10
ENDBRANCH   1   9
BRANCH   1  14
ATOM     14  C   UNL     1       8.493   6.941   5.721  0.00  0.00    +0.000 C 
BRANCH  14  15
ATOM     15  C   UNL     1       7.036   7.061   6.227  0.00  0.00    +0.000 C 
ATOM     16  C   UNL     1       6.041   7.389   5.120  0.00  0.00    +0.000 C 
BRANCH  15  17
ATOM     17  O   UNL     1       6.601   5.865   6.871  0.00  0.00    +0.000 OA
ATOM     18  H   UNL     1       6.143   6.166   7.682  0.00  0.00    +0.000 HD
ENDBRANCH  15  17
ENDBRANCH  14  15
ENDBRANCH   1  14
TORSDOF 7
ENDMDL
MODEL 3
REMARK VINA RESULT:    -5.609      2.890      5.650
REMARK INTER + INTRA:          -8.112
REMARK INTER:                  -7.390
REMARK INTRA:                  -0.722
REMARK UNBOUND:                -0.537
REMARK  Name = 
REMARK  10 active torsions:
REMARK  status: ('A' for Active; 'I' for Inactive)
REMARK    1  A    between atoms: C_1  and  C_2
REMARK    2  A    between atoms: C_5  and  N_8
REMARK    3  A    between atoms: N_8  and  C_9
REMARK    4  A    between atoms: N_8  and  C_13
REMARK    5  A    between atoms: C_9  and  C_10
REMARK    6  A    between atoms: C_10  and  C_11
REMARK    7  A    between atoms: C_10  and  O_12
REMARK    8  A    between atoms: C_13  and  C_14
REMARK    9  A    between atoms: C_14  and  C_15
REMARK   10  A    between atoms: C_14  and  O_16
REMARK                            x       y       z     vdW  Elec       q    Type
REMARK                         _______ _______ _______ _____ _____    ______ ____
ROOT
ATOM      1  N   UNL     1      11.727   8.345   5.152  0.00  0.00    +0.000 N 
ENDROOT
BRANCH   1   6
ATOM      2  C   UNL     1       6.363   6.951   6.767  0.00  0.00    +0.000 C 
ATOM      3  C   UNL     1       7.752   7.335   6.358  0.00  0.00    +0.000 A 
ATOM      4  C   UNL     1       8.001   7.883   5.104  0.00  0.00    +0.000 A 
ATOM      5  C   UNL     1       9.310   8.214   4.715  0.00  0.00    +0.000 A 
ATOM      6  C   UNL     1      10.428   7.995   5.539  0.00  0.00    +0.000 A 
ATOM      7  C   UNL     1      10.138   7.441   6.800  0.00  0.00    +0.000 A 
ATOM      8  C   UNL     1       8.835   7.108   7.203  0.00  0.00    +0.000 A 
ENDBRANCH   1   6
BRANCH   1   9
ATOM      9  C   UNL     1      12.619   7.331   4.539  0.00  0.00    +0.000 C 
BRANCH   9  10
ATOM     10  C   UNL     1      13.122   7.745   3.134  0.00  0.00    +0.000 C 
ATOM     11  C   UNL     1      13.873   6.600   2.465  0.00  0.00    +0.000 C 
BRANCH  10  12
ATOM     12  O   UNL     1      12.028   8.115   2.284  0.00  0.00    +0.000 OA
ATOM     13  H   UNL     1      11.203   7.990   2.783  0.00  0.00    +0.000 HD
ENDBRANCH  10  12
ENDBRANCH   9  10
ENDBRANCH   1   9
BRANCH   1  14
ATOM     14  C   UNL     1      12.427   9.502   5.766  0.00  0.00    +0.000 C 
BRANCH  14  15
ATOM     15  C   UNL     1      11.933  10.854   5.197  0.00  0.00    +0.000 C 
ATOM     16  C   UNL     1      12.902  12.002   5.451  0.00  0.00    +0.000 C 
BRANCH  15  17
ATOM     17  O   UNL     1      11.696  10.779   3.792  0.00  0.00    +0.000 OA
ATOM     18  H   UNL     1      11.555  11.705   3.509  0.00  0.00    +0.000 HD
ENDBRANCH  15  17
ENDBRANCH  14  15
ENDBRANCH   1  14
TORSDOF 7
ENDMDL
MODEL 4
REMARK VINA RESULT:    -5.605      2.605      5.989
REMARK INTER + INTRA:          -8.107
REMARK INTER:                  -7.735
REMARK INTRA:                  -0.372
REMARK UNBOUND:                -0.537
REMARK  Name = 
REMARK  10 active torsions:
REMARK  status: ('A' for Active; 'I' for Inactive)
REMARK    1  A    between atoms: C_1  and  C_2
REMARK    2  A    between atoms: C_5  and  N_8
REMARK    3  A    between atoms: N_8  and  C_9
REMARK    4  A    between atoms: N_8  and  C_13
REMARK    5  A    between atoms: C_9  and  C_10
REMARK    6  A    between atoms: C_10  and  C_11
REMARK    7  A    between atoms: C_10  and  O_12
REMARK    8  A    between atoms: C_13  and  C_14
REMARK    9  A    between atoms: C_14  and  C_15
REMARK   10  A    between atoms: C_14  and  O_16
REMARK                            x       y       z     vdW  Elec       q    Type
REMARK                         _______ _______ _______ _____ _____    ______ ____
ROOT
ATOM      1  N   UNL     1      11.393   8.637   5.604  0.00  0.00    +0.000 N 
ENDROOT
BRANCH   1   6
ATOM      2  C   UNL     1       6.014   7.095   7.026  0.00  0.00    +0.000 C 
ATOM      3  C   UNL     1       7.419   7.474   6.666  0.00  0.00    +0.000 A 
ATOM      4  C   UNL     1       8.207   8.211   7.544  0.00  0.00    +0.000 A 
ATOM      5  C   UNL     1       9.512   8.588   7.189  0.00  0.00    +0.000 A 
ATOM      6  C   UNL     1      10.084   8.273   5.943  0.00  0.00    +0.000 A 
ATOM      7  C   UNL     1       9.259   7.526   5.082  0.00  0.00    +0.000 A 
ATOM      8  C   UNL     1       7.953   7.140   5.425  0.00  0.00    +0.000 A 
ENDBRANCH   1   6
BRANCH   1   9
ATOM      9  C   UNL     1      11.691  10.022   5.165  0.00  0.00    +0.000 C 
BRANCH   9  10
ATOM     10  C   UNL     1      12.981  10.590   5.806  0.00  0.00    +0.000 C 
ATOM     11  C   UNL     1      13.874  11.234   4.753  0.00  0.00    +0.000 C 
BRANCH  10  12
ATOM     12  O   UNL     1      12.671  11.583   6.793  0.00  0.00    +0.000 OA
ATOM     13  H   UNL     1      12.447  12.408   6.331  0.00  0.00    +0.000 HD
ENDBRANCH  10  12
ENDBRANCH   9  10
ENDBRANCH   1   9
BRANCH   1  14
ATOM     14  C   UNL     1      12.387   7.619   5.175  0.00  0.00    +0.000 C 
BRANCH  14  15
ATOM     15  C   UNL     1      12.746   7.749   3.675  0.00  0.00    +0.000 C 
ATOM     16  C   UNL     1      13.978   6.943   3.281  0.00  0.00    +0.000 C 
BRANCH  15  17
ATOM     17  O   UNL     1      11.665   7.342   2.837  0.00  0.00    +0.000 OA
ATOM     18  H   UNL     1      10.993   8.047   2.932  0.00  0.00    +0.000 HD
ENDBRANCH  15  17
ENDBRANCH  14  15
ENDBRANCH   1  14
TORSDOF 7
ENDMDL
MODEL 5
REMARK VINA RESULT:    -5.597      2.608      6.088
REMARK INTER + INTRA:          -8.096
REMARK INTER:                  -7.725
REMARK INTRA:                  -0.371
REMARK UNBOUND:                -0.537
REMARK  Name = 
REMARK  10 active torsions:
REMARK  status: ('A' for Active; 'I' for Inactive)
REMARK    1  A    between atoms: C_1  and  C_2
REMARK    2  A    between atoms: C_5  and  N_8
REMARK    3  A    between atoms: N_8  and  C_9
REMARK    4  A    between atoms: N_8  and  C_13
REMARK    5  A    between atoms: C_9  and  C_10
REMARK    6  A    between atoms: C_10  and  C_11
REMARK    7  A    between atoms: C_10  and  O_12
REMARK    8  A    between atoms: C_13  and  C_14
REMARK    9  A    between atoms: C_14  and  C_15
REMARK   10  A    between atoms: C_14  and  O_16
REMARK                            x       y       z     vdW  Elec       q    Type
REMARK                         _______ _______ _______ _____ _____    ______ ____
ROOT
ATOM      1  N   UNL     1      11.410   8.614   5.592  0.00  0.00    +0.000 N 
ENDROOT
BRANCH   1   6
ATOM      2  C   UNL     1       6.027   7.067   6.992  0.00  0.00    +0.000 C 
ATOM      3  C   UNL     1       7.415   7.490   6.620  0.00  0.00    +0.000 A 
ATOM      4  C   UNL     1       7.953   7.163   5.380  0.00  0.00    +0.000 A 
ATOM      5  C   UNL     1       9.266   7.537   5.048  0.00  0.00    +0.000 A 
ATOM      6  C   UNL     1      10.109   8.228   5.937  0.00  0.00    +0.000 A 
ATOM      7  C   UNL     1       9.531   8.544   7.181  0.00  0.00    +0.000 A 
ATOM      8  C   UNL     1       8.219   8.178   7.525  0.00  0.00    +0.000 A 
ENDBRANCH   1   6
BRANCH   1   9
ATOM      9  C   UNL     1      11.683  10.006   5.161  0.00  0.00    +0.000 C 
BRANCH   9  10
ATOM     10  C   UNL     1      12.973  10.587   5.790  0.00  0.00    +0.000 C 
ATOM     11  C   UNL     1      13.850  11.242   4.729  0.00  0.00    +0.000 C 
BRANCH  10  12
ATOM     12  O   UNL     1      12.663  11.575   6.782  0.00  0.00    +0.000 OA
ATOM     13  H   UNL     1      12.101  11.159   7.456  0.00  0.00    +0.000 HD
ENDBRANCH  10  12
ENDBRANCH   9  10
ENDBRANCH   1   9
BRANCH   1  14
ATOM     14  C   UNL     1      12.417   7.615   5.151  0.00  0.00    +0.000 C 
BRANCH  14  15
ATOM     15  C   UNL     1      12.766   7.762   3.650  0.00  0.00    +0.000 C 
ATOM     16  C   UNL     1      14.006   6.973   3.243  0.00  0.00    +0.000 C 
BRANCH  15  17
ATOM     17  O   UNL     1      11.686   7.349   2.814  0.00  0.00    +0.000 OA
ATOM     18  H   UNL     1      11.897   7.712   1.931  0.00  0.00    +0.000 HD
ENDBRANCH  15  17
ENDBRANCH  14  15
ENDBRANCH   1  14
TORSDOF 7
ENDMDL
MODEL 6
REMARK VINA RESULT:    -5.414      3.432      5.955
REMARK INTER + INTRA:          -7.849
REMARK INTER:                  -7.107
REMARK INTRA:                  -0.742
REMARK UNBOUND:                -0.537
REMARK  Name = 
REMARK  10 active torsions:
REMARK  status: ('A' for Active; 'I' for Inactive)
REMARK    1  A    between atoms: C_1  and  C_2
REMARK    2  A    between atoms: C_5  and  N_8
REMARK    3  A    between atoms: N_8  and  C_9
REMARK    4  A    between atoms: N_8  and  C_13
REMARK    5  A    between atoms: C_9  and  C_10
REMARK    6  A    between atoms: C_10  and  C_11
REMARK    7  A    between atoms: C_10  and  O_12
REMARK    8  A    between atoms: C_13  and  C_14
REMARK    9  A    between atoms: C_14  and  C_15
REMARK   10  A    between atoms: C_14  and  O_16
REMARK                            x       y       z     vdW  Elec       q    Type
REMARK                         _______ _______ _______ _____ _____    ______ ____
ROOT
ATOM      1  N   UNL     1      12.132   9.377   4.377  0.00  0.00    +0.000 N 
ENDROOT
BRANCH   1   6
ATOM      2  C   UNL     1       7.533   7.774   7.476  0.00  0.00    +0.000 C 
ATOM      3  C   UNL     1       8.738   8.168   6.678  0.00  0.00    +0.000 A 
ATOM      4  C   UNL     1       9.758   8.921   7.249  0.00  0.00    +0.000 A 
ATOM      5  C   UNL     1      10.871   9.314   6.488  0.00  0.00    +0.000 A 
ATOM      6  C   UNL     1      11.010   8.998   5.125  0.00  0.00    +0.000 A 
ATOM      7  C   UNL     1       9.961   8.235   4.580  0.00  0.00    +0.000 A 
ATOM      8  C   UNL     1       8.844   7.834   5.331  0.00  0.00    +0.000 A 
ENDBRANCH   1   6
BRANCH   1   9
ATOM      9  C   UNL     1      13.253   8.425   4.185  0.00  0.00    +0.000 C 
BRANCH   9  10
ATOM     10  C   UNL     1      13.493   8.073   2.696  0.00  0.00    +0.000 C 
ATOM     11  C   UNL     1      13.971   6.633   2.546  0.00  0.00    +0.000 C 
BRANCH  10  12
ATOM     12  O   UNL     1      12.289   8.224   1.931  0.00  0.00    +0.000 OA
ATOM     13  H   UNL     1      12.453   7.872   1.040  0.00  0.00    +0.000 HD
ENDBRANCH  10  12
ENDBRANCH   9  10
ENDBRANCH   1   9
BRANCH   1  14
ATOM     14  C   UNL     1      12.490  10.807   4.197  0.00  0.00    +0.000 C 
BRANCH  14  15
ATOM     15  C   UNL     1      11.615  11.498   3.123  0.00  0.00    +0.000 C 
ATOM     16  C   UNL     1      11.505  13.005   3.319  0.00  0.00    +0.000 C 
BRANCH  15  17
ATOM     17  O   UNL     1      12.109  11.258   1.807  0.00  0.00    +0.000 OA
ATOM     18  H   UNL     1      12.944  10.764   1.936  0.00  0.00    +0.000 HD
ENDBRANCH  15  17
ENDBRANCH  14  15
ENDBRANCH   1  14
TORSDOF 7
ENDMDL
MODEL 7
REMARK VINA RESULT:    -5.094      3.820      5.968
REMARK INTER + INTRA:          -7.417
REMARK INTER:                  -6.833
REMARK INTRA:                  -0.584
REMARK UNBOUND:                -0.537
REMARK  Name = 
REMARK  10 active torsions:
REMARK  status: ('A' for Active; 'I' for Inactive)
REMARK    1  A    between atoms: C_1  and  C_2
REMARK    2  A    between atoms: C_5  and  N_8
REMARK    3  A    between atoms: N_8  and  C_9
REMARK    4  A    between atoms: N_8  and  C_13
REMARK    5  A    between atoms: C_9  and  C_10
REMARK    6  A    between atoms: C_10  and  C_11
REMARK    7  A    between atoms: C_10  and  O_12
REMARK    8  A    between atoms: C_13  and  C_14
REMARK    9  A    between atoms: C_14  and  C_15
REMARK   10  A    between atoms: C_14  and  O_16
REMARK                            x       y       z     vdW  Elec       q    Type
REMARK                         _______ _______ _______ _____ _____    ______ ____
ROOT
ATOM      1  N   UNL     1      11.503   8.959   3.777  0.00  0.00    +0.000 N 
ENDROOT
BRANCH   1   6
ATOM      2  C   UNL     1       9.573   7.052   8.873  0.00  0.00    +0.000 C 
ATOM      3  C   UNL     1      10.071   7.570   7.559  0.00  0.00    +0.000 A 
ATOM      4  C   UNL     1       9.196   7.796   6.502  0.00  0.00    +0.000 A 
ATOM      5  C   UNL     1       9.672   8.253   5.263  0.00  0.00    +0.000 A 
ATOM      6  C   UNL     1      11.037   8.484   5.010  0.00  0.00    +0.000 A 
ATOM      7  C   UNL     1      11.893   8.247   6.101  0.00  0.00    +0.000 A 
ATOM      8  C   UNL     1      11.429   7.792   7.346  0.00  0.00    +0.000 A 
ENDBRANCH   1   6
BRANCH   1   9
ATOM      9  C   UNL     1      11.025  10.261   3.254  0.00  0.00    +0.000 C 
BRANCH   9  10
ATOM     10  C   UNL     1      11.198  10.391   1.721  0.00  0.00    +0.000 C 
ATOM     11  C   UNL     1       9.981  11.058   1.089  0.00  0.00    +0.000 C 
BRANCH  10  12
ATOM     12  O   UNL     1      12.353  11.178   1.398  0.00  0.00    +0.000 OA
ATOM     13  H   UNL     1      12.930  10.646   0.825  0.00  0.00    +0.000 HD
ENDBRANCH  10  12
ENDBRANCH   9  10
ENDBRANCH   1   9
BRANCH   1  14
ATOM     14  C   UNL     1      12.038   8.031   2.748  0.00  0.00    +0.000 C 
BRANCH  14  15
ATOM     15  C   UNL     1      13.564   7.819   2.890  0.00  0.00    +0.000 C 
ATOM     16  C   UNL     1      14.034   6.468   2.363  0.00  0.00    +0.000 C 
BRANCH  15  17
ATOM     17  O   UNL     1      14.303   8.837   2.217  0.00  0.00    +0.000 OA
ATOM     18  H   UNL     1      15.231   8.704   2.498  0.00  0.00    +0.000 HD
ENDBRANCH  15  17
ENDBRANCH  14  15
ENDBRANCH   1  14
TORSDOF 7
ENDMDL
MODEL 8
REMARK VINA RESULT:    -4.867      2.803      4.495
REMARK INTER + INTRA:          -7.110
REMARK INTER:                  -6.646
REMARK INTRA:                  -0.465
REMARK UNBOUND:                -0.537
REMARK  Name = 
REMARK  10 active torsions:
REMARK  status: ('A' for Active; 'I' for Inactive)
REMARK    1  A    between atoms: C_1  and  C_2
REMARK    2  A    between atoms: C_5  and  N_8
REMARK    3  A    between atoms: N_8  and  C_9
REMARK    4  A    between atoms: N_8  and  C_13
REMARK    5  A    between atoms: C_9  and  C_10
REMARK    6  A    between atoms: C_10  and  C_11
REMARK    7  A    between atoms: C_10  and  O_12
REMARK    8  A    between atoms: C_13  and  C_14
REMARK    9  A    between atoms: C_14  and  C_15
REMARK   10  A    between atoms: C_14  and  O_16
REMARK                            x       y       z     vdW  Elec       q    Type
REMARK                         _______ _______ _______ _____ _____    ______ ____
ROOT
ATOM      1  N   UNL     1      11.654   9.016   5.497  0.00  0.00    +0.000 N 
ENDROOT
BRANCH   1   6
ATOM      2  C   UNL     1      14.471  13.912   6.691  0.00  0.00    +0.000 C 
ATOM      3  C   UNL     1      13.734  12.651   6.358  0.00  0.00    +0.000 A 
ATOM      4  C   UNL     1      12.394  12.496   6.697  0.00  0.00    +0.000 A 
ATOM      5  C   UNL     1      11.716  11.300   6.410  0.00  0.00    +0.000 A 
ATOM      6  C   UNL     1      12.341  10.199   5.798  0.00  0.00    +0.000 A 
ATOM      7  C   UNL     1      13.695  10.391   5.467  0.00  0.00    +0.000 A 
ATOM      8  C   UNL     1      14.385  11.583   5.747  0.00  0.00    +0.000 A 
ENDBRANCH   1   6
BRANCH   1   9
ATOM      9  C   UNL     1      10.331   8.749   6.110  0.00  0.00    +0.000 C 
BRANCH   9  10
ATOM     10  C   UNL     1       9.720   7.401   5.655  0.00  0.00    +0.000 C 
ATOM     11  C   UNL     1       8.835   6.808   6.745  0.00  0.00    +0.000 C 
BRANCH  10  12
ATOM     12  O   UNL     1       8.920   7.570   4.476  0.00  0.00    +0.000 OA
ATOM     13  H   UNL     1       8.001   7.348   4.701  0.00  0.00    +0.000 HD
ENDBRANCH  10  12
ENDBRANCH   9  10
ENDBRANCH   1   9
BRANCH   1  14
ATOM     14  C   UNL     1      12.375   7.809   5.016  0.00  0.00    +0.000 C 
BRANCH  14  15
ATOM     15  C   UNL     1      12.677   7.875   3.499  0.00  0.00    +0.000 C 
ATOM     16  C   UNL     1      13.666   6.811   3.039  0.00  0.00    +0.000 C 
BRANCH  15  17
ATOM     17  O   UNL     1      11.490   7.742   2.719  0.00  0.00    +0.000 OA
ATOM     18  H   UNL     1      11.681   7.019   2.088  0.00  0.00    +0.000 HD
ENDBRANCH  15  17
ENDBRANCH  14  15
ENDBRANCH   1  14
TORSDOF 7
ENDMDL
MODEL 9
REMARK VINA RESULT:    -4.802      2.652      4.454
REMARK INTER + INTRA:          -7.023
REMARK INTER:                  -6.843
REMARK INTRA:                  -0.180
REMARK UNBOUND:                -0.537
REMARK  Name = 
REMARK  10 active torsions:
REMARK  status: ('A' for Active; 'I' for Inactive)
REMARK    1  A    between atoms: C_1  and  C_2
REMARK    2  A    between atoms: C_5  and  N_8
REMARK    3  A    between atoms: N_8  and  C_9
REMARK    4  A    between atoms: N_8  and  C_13
REMARK    5  A    between atoms: C_9  and  C_10
REMARK    6  A    between atoms: C_10  and  C_11
REMARK    7  A    between atoms: C_10  and  O_12
REMARK    8  A    between atoms: C_13  and  C_14
REMARK    9  A    between atoms: C_14  and  C_15
REMARK   10  A    between atoms: C_14  and  O_16
REMARK                            x       y       z     vdW  Elec       q    Type
REMARK                         _______ _______ _______ _____ _____    ______ ____
ROOT
ATOM      1  N   UNL     1      11.187   8.456   5.119  0.00  0.00    +0.000 N 
ENDROOT
BRANCH   1   6
ATOM      2  C   UNL     1      12.299  14.117   5.343  0.00  0.00    +0.000 C 
ATOM      3  C   UNL     1      12.035  12.643   5.284  0.00  0.00    +0.000 A 
ATOM      4  C   UNL     1      11.870  11.995   4.065  0.00  0.00    +0.000 A 
ATOM      5  C   UNL     1      11.593  10.619   4.018  0.00  0.00    +0.000 A 
ATOM      6  C   UNL     1      11.444   9.832   5.174  0.00  0.00    +0.000 A 
ATOM      7  C   UNL     1      11.620  10.520   6.388  0.00  0.00    +0.000 A 
ATOM      8  C   UNL     1      11.900  11.895   6.450  0.00  0.00    +0.000 A 
ENDBRANCH   1   6
BRANCH   1   9
ATOM      9  C   UNL     1      12.299   7.500   4.894  0.00  0.00    +0.000 C 
BRANCH   9  10
ATOM     10  C   UNL     1      12.993   7.699   3.524  0.00  0.00    +0.000 C 
ATOM     11  C   UNL     1      14.155   6.728   3.356  0.00  0.00    +0.000 C 
BRANCH  10  12
ATOM     12  O   UNL     1      12.073   7.481   2.445  0.00  0.00    +0.000 OA
ATOM     13  H   UNL     1      12.414   6.751   1.901  0.00  0.00    +0.000 HD
ENDBRANCH  10  12
ENDBRANCH   9  10
ENDBRANCH   1   9
BRANCH   1  14
ATOM     14  C   UNL     1       9.839   7.939   4.769  0.00  0.00    +0.000 C 
BRANCH  14  15
ATOM     15  C   UNL     1       9.232   7.077   5.902  0.00  0.00    +0.000 C 
ATOM     16  C   UNL     1       8.751   7.902   7.090  0.00  0.00    +0.000 C 
BRANCH  15  17
ATOM     17  O   UNL     1       8.136   6.291   5.437  0.00  0.00    +0.000 OA
ATOM     18  H   UNL     1       8.544   5.477   5.077  0.00  0.00    +0.000 HD
ENDBRANCH  15  17
ENDBRANCH  14  15
ENDBRANCH   1  14
TORSDOF 7
ENDMDL
