MODEL 1
REMARK VINA RESULT:    -3.521      0.000      0.000
REMARK INTER + INTRA:          -3.876
REMARK INTER:                  -3.830
REMARK INTRA:                  -0.046
REMARK UNBOUND:                -0.046
REMARK  Name = 
REMARK  3 active torsions:
REMARK  status: ('A' for Active; 'I' for Inactive)
REMARK    1  A    between atoms: C_1  and  O_2
REMARK    2  A    between atoms: O_2  and  C_3
REMARK    3  A    between atoms: C_8  and  O_9
REMARK                            x       y       z     vdW  Elec       q    Type
REMARK                         _______ _______ _______ _____ _____    ______ ____
ROOT
ATOM      1  C   UNL     1      -3.965  14.795  -1.682  0.00  0.00    +0.000 A 
ATOM      2  C   UNL     1      -4.698  15.974  -1.554  0.00  0.00    +0.000 A 
ATOM      3  C   UNL     1      -4.265  16.974  -0.673  0.00  0.00    +0.000 A 
ATOM      4  C   UNL     1      -3.103  16.799   0.081  0.00  0.00    +0.000 A 
ATOM      5  C   UNL     1      -2.366  15.623  -0.042  0.00  0.00    +0.000 A 
ATOM      6  C   UNL     1      -2.802  14.637  -0.918  0.00  0.00    +0.000 A 
ENDROOT
BRANCH   1   8
ATOM      7  C   UNL     1      -4.653  14.054  -3.833  0.00  0.00    +0.000 C 
ATOM      8  O   UNL     1      -4.269  13.736  -2.500  0.00  0.00    +0.000 OA
ENDBRANCH   1   8
BRANCH   6   9
ATOM      9  O   UNL     1      -2.061  13.491  -1.022  0.00  0.00    +0.000 OA
ATOM     10  H   UNL     1      -2.697  12.809  -1.311  0.00  0.00    +0.000 HD
ENDBRANCH   6   9
TORSDOF 2
ENDMDL
MODEL 2
REMARK VINA RESULT:    -3.424      1.094      2.803
REMARK INTER + INTRA:          -3.770
REMARK INTER:                  -3.718
REMARK INTRA:                  -0.052
REMARK UNBOUND:                -0.046
REMARK  Name = 
REMARK  3 active torsions:
REMARK  status: ('A' for Active; 'I' for Inactive)
REMARK    1  A    between atoms: C_1  and  O_2
REMARK    2  A    between atoms: O_2  and  C_3
REMARK    3  A    between atoms: C_8  and  O_9
REMARK                            x       y       z     vdW  Elec       q    Type
REMARK                         _______ _______ _______ _____ _____    ______ ____
ROOT
ATOM      1  C   UNL     1      -2.477  15.027  -0.652  0.00  0.00    +0.000 A 
ATOM      2  C   UNL     1      -2.514  16.227   0.057  0.00  0.00    +0.000 A 
ATOM      3  C   UNL     1      -3.646  17.048  -0.018  0.00  0.00    +0.000 A 
ATOM      4  C   UNL     1      -4.741  16.676  -0.799  0.00  0.00    +0.000 A 
ATOM      5  C   UNL     1      -4.712  15.478  -1.510  0.00  0.00    +0.000 A 
ATOM      6  C   UNL     1      -3.585  14.670  -1.431  0.00  0.00    +0.000 A 
ENDROOT
BRANCH   1   8
ATOM      7  C   UNL     1      -1.127  13.492   0.560  0.00  0.00    +0.000 C 
ATOM      8  O   UNL     1      -1.440  14.129  -0.673  0.00  0.00    +0.000 OA
ENDBRANCH   1   8
BRANCH   6   9
ATOM      9  O   UNL     1      -3.579  13.497  -2.138  0.00  0.00    +0.000 OA
ATOM     10  H   UNL     1      -3.376  12.809  -1.477  0.00  0.00    +0.000 HD
ENDBRANCH   6   9
TORSDOF 2
ENDMDL
MODEL 3
REMARK VINA RESULT:    -3.370     17.314     17.923
REMARK INTER + INTRA:          -3.712
REMARK INTER:                  -3.671
REMARK INTRA:                  -0.041
REMARK UNBOUND:                -0.046
REMARK  Name = 
REMARK  3 active torsions:
REMARK  status: ('A' for Active; 'I' for Inactive)
REMARK    1  A    between atoms: C_1  and  O_2
REMARK    2  A    between atoms: O_2  and  C_3
REMARK    3  A    between atoms: C_8  and  O_9
REMARK                            x       y       z     vdW  Elec       q    Type
REMARK                         _______ _______ _______ _____ _____    ______ ____
ROOT
ATOM      1  C   UNL     1      12.457  20.331  -7.774  0.00  0.00    +0.000 A 
ATOM      2  C   UNL     1      12.451  20.757  -6.447  0.00  0.00    +0.000 A 
ATOM      3  C   UNL     1      11.575  21.773  -6.042  0.00  0.00    +0.000 A 
ATOM      4  C   UNL     1      10.706  22.365  -6.960  0.00  0.00    +0.000 A 
ATOM      5  C   UNL     1      10.706  21.944  -8.288  0.00  0.00    +0.000 A 
ATOM      6  C   UNL     1      11.578  20.937  -8.680  0.00  0.00    +0.000 A 
ENDROOT
BRANCH   1   8
ATOM      7  C   UNL     1      13.626  18.290  -7.438  0.00  0.00    +0.000 C 
ATOM      8  O   UNL     1      13.257  19.353  -8.308  0.00  0.00    +0.000 OA
ENDBRANCH   1   8
BRANCH   6   9
ATOM      9  O   UNL     1      11.559  20.540  -9.991  0.00  0.00    +0.000 OA
ATOM     10  H   UNL     1      12.497  20.530 -10.260  0.00  0.00    +0.000 HD
ENDBRANCH   6   9
TORSDOF 2
ENDMDL
MODEL 4
REMARK VINA RESULT:    -3.336      1.751      4.368
REMARK INTER + INTRA:          -3.675
REMARK INTER:                  -3.642
REMARK INTRA:                  -0.033
REMARK UNBOUND:                -0.046
REMARK  Name = 
REMARK  3 active torsions:
REMARK  status: ('A' for Active; 'I' for Inactive)
REMARK    1  A    between atoms: C_1  and  O_2
REMARK    2  A    between atoms: O_2  and  C_3
REMARK    3  A    between atoms: C_8  and  O_9
REMARK                            x       y       z     vdW  Elec       q    Type
REMARK                         _______ _______ _______ _____ _____    ______ ____
ROOT
ATOM      1  C   UNL     1      -4.900  14.053  -2.979  0.00  0.00    +0.000 A 
ATOM      2  C   UNL     1      -6.132  13.415  -2.837  0.00  0.00    +0.000 A 
ATOM      3  C   UNL     1      -7.007  13.333  -3.927  0.00  0.00    +0.000 A 
ATOM      4  C   UNL     1      -6.656  13.888  -5.159  0.00  0.00    +0.000 A 
ATOM      5  C   UNL     1      -5.428  14.527  -5.309  0.00  0.00    +0.000 A 
ATOM      6  C   UNL     1      -4.566  14.603  -4.222  0.00  0.00    +0.000 A 
ENDROOT
BRANCH   1   8
ATOM      7  C   UNL     1      -4.191  15.225  -1.037  0.00  0.00    +0.000 C 
ATOM      8  O   UNL     1      -3.950  14.208  -2.002  0.00  0.00    +0.000 OA
ENDBRANCH   1   8
BRANCH   6   9
ATOM      9  O   UNL     1      -3.364  15.237  -4.394  0.00  0.00    +0.000 OA
ATOM     10  H   UNL     1      -3.598  16.159  -4.613  0.00  0.00    +0.000 HD
ENDBRANCH   6   9
TORSDOF 2
ENDMDL
MODEL 5
REMARK VINA RESULT:    -3.320     17.425     17.894
REMARK INTER + INTRA:          -3.657
REMARK INTER:                  -3.620
REMARK INTRA:                  -0.037
REMARK UNBOUND:                -0.046
REMARK  Name = 
REMARK  3 active torsions:
REMARK  status: ('A' for Active; 'I' for Inactive)
REMARK    1  A    between atoms: C_1  and  O_2
REMARK    2  A    between atoms: O_2  and  C_3
REMARK    3  A    between atoms: C_8  and  O_9
REMARK                            x       y       z     vdW  Elec       q    Type
REMARK                         _______ _______ _______ _____ _____    ______ ____
ROOT
ATOM      1  C   UNL     1      11.866  20.795  -8.698  0.00  0.00    +0.000 A 
ATOM      2  C   UNL     1      11.096  21.747  -8.031  0.00  0.00    +0.000 A 
ATOM      3  C   UNL     1      11.124  21.815  -6.632  0.00  0.00    +0.000 A 
ATOM      4  C   UNL     1      11.919  20.934  -5.897  0.00  0.00    +0.000 A 
ATOM      5  C   UNL     1      12.692  19.981  -6.556  0.00  0.00    +0.000 A 
ATOM      6  C   UNL     1      12.657  19.920  -7.943  0.00  0.00    +0.000 A 
ENDROOT
BRANCH   1   8
ATOM      7  C   UNL     1      11.029  21.378 -10.844  0.00  0.00    +0.000 C 
ATOM      8  O   UNL     1      11.934  20.614 -10.056  0.00  0.00    +0.000 OA
ENDBRANCH   1   8
BRANCH   6   9
ATOM      9  O   UNL     1      13.425  18.974  -8.569  0.00  0.00    +0.000 OA
ATOM     10  H   UNL     1      14.245  18.932  -8.041  0.00  0.00    +0.000 HD
ENDBRANCH   6   9
TORSDOF 2
ENDMDL
MODEL 6
REMARK VINA RESULT:    -3.314      3.357      5.255
REMARK INTER + INTRA:          -3.651
REMARK INTER:                  -3.605
REMARK INTRA:                  -0.045
REMARK UNBOUND:                -0.046
REMARK  Name = 
REMARK  3 active torsions:
REMARK  status: ('A' for Active; 'I' for Inactive)
REMARK    1  A    between atoms: C_1  and  O_2
REMARK    2  A    between atoms: O_2  and  C_3
REMARK    3  A    between atoms: C_8  and  O_9
REMARK                            x       y       z     vdW  Elec       q    Type
REMARK                         _______ _______ _______ _____ _____    ______ ____
ROOT
ATOM      1  C   UNL     1      -4.663  14.838  -5.350  0.00  0.00    +0.000 A 
ATOM      2  C   UNL     1      -5.930  14.908  -5.927  0.00  0.00    +0.000 A 
ATOM      3  C   UNL     1      -6.151  15.739  -7.033  0.00  0.00    +0.000 A 
ATOM      4  C   UNL     1      -5.109  16.502  -7.564  0.00  0.00    +0.000 A 
ATOM      5  C   UNL     1      -3.840  16.437  -6.994  0.00  0.00    +0.000 A 
ATOM      6  C   UNL     1      -3.630  15.610  -5.897  0.00  0.00    +0.000 A 
ENDROOT
BRANCH   1   8
ATOM      7  C   UNL     1      -5.222  14.040  -3.183  0.00  0.00    +0.000 C 
ATOM      8  O   UNL     1      -4.305  14.072  -4.270  0.00  0.00    +0.000 OA
ENDBRANCH   1   8
BRANCH   6   9
ATOM      9  O   UNL     1      -2.374  15.563  -5.353  0.00  0.00    +0.000 OA
ATOM     10  H   UNL     1      -1.911  14.868  -5.858  0.00  0.00    +0.000 HD
ENDBRANCH   6   9
TORSDOF 2
ENDMDL
MODEL 7
REMARK VINA RESULT:    -3.275      1.806      2.740
REMARK INTER + INTRA:          -3.609
REMARK INTER:                  -3.558
REMARK INTRA:                  -0.051
REMARK UNBOUND:                -0.046
REMARK  Name = 
REMARK  3 active torsions:
REMARK  status: ('A' for Active; 'I' for Inactive)
REMARK    1  A    between atoms: C_1  and  O_2
REMARK    2  A    between atoms: O_2  and  C_3
REMARK    3  A    between atoms: C_8  and  O_9
REMARK                            x       y       z     vdW  Elec       q    Type
REMARK                         _______ _______ _______ _____ _____    ______ ____
ROOT
ATOM      1  C   UNL     1      -3.978  15.661  -0.236  0.00  0.00    +0.000 A 
ATOM      2  C   UNL     1      -3.820  15.594   1.148  0.00  0.00    +0.000 A 
ATOM      3  C   UNL     1      -2.781  14.834   1.698  0.00  0.00    +0.000 A 
ATOM      4  C   UNL     1      -1.899  14.138   0.869  0.00  0.00    +0.000 A 
ATOM      5  C   UNL     1      -2.050  14.199  -0.514  0.00  0.00    +0.000 A 
ATOM      6  C   UNL     1      -3.084  14.956  -1.050  0.00  0.00    +0.000 A 
ENDROOT
BRANCH   1   8
ATOM      7  C   UNL     1      -6.296  16.029  -0.609  0.00  0.00    +0.000 C 
ATOM      8  O   UNL     1      -4.946  16.362  -0.909  0.00  0.00    +0.000 OA
ENDBRANCH   1   8
BRANCH   6   9
ATOM      9  O   UNL     1      -3.212  15.001  -2.413  0.00  0.00    +0.000 OA
ATOM     10  H   UNL     1      -2.296  14.978  -2.750  0.00  0.00    +0.000 HD
ENDBRANCH   6   9
TORSDOF 2
ENDMDL
MODEL 8
REMARK VINA RESULT:    -3.274      2.017      4.819
REMARK INTER + INTRA:          -3.607
REMARK INTER:                  -3.558
REMARK INTRA:                  -0.049
REMARK UNBOUND:                -0.046
REMARK  Name = 
REMARK  3 active torsions:
REMARK  status: ('A' for Active; 'I' for Inactive)
REMARK    1  A    between atoms: C_1  and  O_2
REMARK    2  A    between atoms: O_2  and  C_3
REMARK    3  A    between atoms: C_8  and  O_9
REMARK                            x       y       z     vdW  Elec       q    Type
REMARK                         _______ _______ _______ _____ _____    ______ ____
ROOT
ATOM      1  C   UNL     1      -5.211  13.853  -3.561  0.00  0.00    +0.000 A 
ATOM      2  C   UNL     1      -4.874  14.683  -4.629  0.00  0.00    +0.000 A 
ATOM      3  C   UNL     1      -5.772  14.858  -5.690  0.00  0.00    +0.000 A 
ATOM      4  C   UNL     1      -7.006  14.206  -5.687  0.00  0.00    +0.000 A 
ATOM      5  C   UNL     1      -7.351  13.376  -4.622  0.00  0.00    +0.000 A 
ATOM      6  C   UNL     1      -6.454  13.208  -3.575  0.00  0.00    +0.000 A 
ENDROOT
BRANCH   1   8
ATOM      7  C   UNL     1      -3.941  14.718  -1.748  0.00  0.00    +0.000 C 
ATOM      8  O   UNL     1      -4.433  13.590  -2.461  0.00  0.00    +0.000 OA
ENDBRANCH   1   8
BRANCH   6   9
ATOM      9  O   UNL     1      -6.815  12.387  -2.540  0.00  0.00    +0.000 OA
ATOM     10  H   UNL     1      -6.024  11.841  -2.368  0.00  0.00    +0.000 HD
ENDBRANCH   6   9
TORSDOF 2
ENDMDL
MODEL 9
REMARK VINA RESULT:    -3.240      2.302      3.687
REMARK INTER + INTRA:          -3.570
REMARK INTER:                  -3.530
REMARK INTRA:                  -0.040
REMARK UNBOUND:                -0.046
REMARK  Name = 
REMARK  3 active torsions:
REMARK  status: ('A' for Active; 'I' for Inactive)
REMARK    1  A    between atoms: C_1  and  O_2
REMARK    2  A    between atoms: O_2  and  C_3
REMARK    3  A    between atoms: C_8  and  O_9
REMARK                            x       y       z     vdW  Elec       q    Type
REMARK                         _______ _______ _______ _____ _____    ______ ____
ROOT
ATOM      1  C   UNL     1      -3.216  15.193   1.418  0.00  0.00    +0.000 A 
ATOM      2  C   UNL     1      -4.385  15.804   0.967  0.00  0.00    +0.000 A 
ATOM      3  C   UNL     1      -4.688  15.812  -0.401  0.00  0.00    +0.000 A 
ATOM      4  C   UNL     1      -3.825  15.212  -1.320  0.00  0.00    +0.000 A 
ATOM      5  C   UNL     1      -2.655  14.599  -0.877  0.00  0.00    +0.000 A 
ATOM      6  C   UNL     1      -2.363  14.597   0.481  0.00  0.00    +0.000 A 
ENDROOT
BRANCH   1   8
ATOM      7  C   UNL     1      -3.807  15.164   3.719  0.00  0.00    +0.000 C 
ATOM      8  O   UNL     1      -2.795  15.111   2.721  0.00  0.00    +0.000 OA
ENDBRANCH   1   8
BRANCH   6   9
ATOM      9  O   UNL     1      -1.207  13.989   0.893  0.00  0.00    +0.000 OA
ATOM     10  H   UNL     1      -0.854  13.558   0.091  0.00  0.00    +0.000 HD
ENDBRANCH   6   9
TORSDOF 2
ENDMDL
