MODEL 1
REMARK VINA RESULT:    -4.218      0.000      0.000
REMARK INTER + INTRA:          -6.395
REMARK INTER:                  -5.698
REMARK INTRA:                  -0.698
REMARK UNBOUND:                -0.698
REMARK  Name = 
REMARK  10 active torsions:
REMARK  status: ('A' for Active; 'I' for Inactive)
REMARK    1  A    between atoms: C_1  and  C_2
REMARK    2  A    between atoms: C_5  and  N_8
REMARK    3  A    between atoms: N_8  and  C_9
REMARK    4  A    between atoms: N_8  and  C_13
REMARK    5  A    between atoms: C_9  and  C_10
REMARK    6  A    between atoms: C_10  and  C_11
REMARK    7  A    between atoms: C_10  and  O_12
REMARK    8  A    between atoms: C_13  and  C_14
REMARK    9  A    between atoms: C_14  and  C_15
REMARK   10  A    between atoms: C_14  and  O_16
REMARK                            x       y       z     vdW  Elec       q    Type
REMARK                         _______ _______ _______ _____ _____    ______ ____
ROOT
ATOM      1  N   UNL     1      10.124  22.224   5.369  0.00  0.00    +0.000 N 
ENDROOT
BRANCH   1   6
ATOM      2  C   UNL     1       5.653  23.994   2.174  0.00  0.00    +0.000 C 
ATOM      3  C   UNL     1       6.826  23.529   2.982  0.00  0.00    +0.000 A 
ATOM      4  C   UNL     1       6.904  22.217   3.439  0.00  0.00    +0.000 A 
ATOM      5  C   UNL     1       7.991  21.795   4.221  0.00  0.00    +0.000 A 
ATOM      6  C   UNL     1       9.034  22.657   4.604  0.00  0.00    +0.000 A 
ATOM      7  C   UNL     1       8.923  23.975   4.123  0.00  0.00    +0.000 A 
ATOM      8  C   UNL     1       7.843  24.410   3.338  0.00  0.00    +0.000 A 
ENDBRANCH   1   6
BRANCH   1   9
ATOM      9  C   UNL     1      11.205  23.174   5.727  0.00  0.00    +0.000 C 
BRANCH   9  10
ATOM     10  C   UNL     1      12.461  23.020   4.835  0.00  0.00    +0.000 C 
ATOM     11  C   UNL     1      12.991  24.381   4.400  0.00  0.00    +0.000 C 
BRANCH  10  12
ATOM     12  O   UNL     1      13.510  22.338   5.537  0.00  0.00    +0.000 OA
ATOM     13  H   UNL     1      13.367  21.382   5.437  0.00  0.00    +0.000 HD
ENDBRANCH  10  12
ENDBRANCH   9  10
ENDBRANCH   1   9
BRANCH   1  14
ATOM     14  C   UNL     1      10.514  20.791   5.409  0.00  0.00    +0.000 C 
BRANCH  14  15
ATOM     15  C   UNL     1      10.881  20.326   6.839  0.00  0.00    +0.000 C 
ATOM     16  C   UNL     1      10.010  19.180   7.339  0.00  0.00    +0.000 C 
BRANCH  15  17
ATOM     17  O   UNL     1      12.244  19.915   6.926  0.00  0.00    +0.000 OA
ATOM     18  H   UNL     1      12.231  19.112   7.486  0.00  0.00    +0.000 HD
ENDBRANCH  15  17
ENDBRANCH  14  15
ENDBRANCH   1  14
TORSDOF 7
ENDMDL
MODEL 2
REMARK VINA RESULT:    -4.151     17.842     20.523
REMARK INTER + INTRA:          -6.305
REMARK INTER:                  -5.684
REMARK INTRA:                  -0.621
REMARK UNBOUND:                -0.698
REMARK  Name = 
REMARK  10 active torsions:
REMARK  status: ('A' for Active; 'I' for Inactive)
REMARK    1  A    between atoms: C_1  and  C_2
REMARK    2  A    between atoms: C_5  and  N_8
REMARK    3  A    between atoms: N_8  and  C_9
REMARK    4  A    between atoms: N_8  and  C_13
REMARK    5  A    between atoms: C_9  and  C_10
REMARK    6  A    between atoms: C_10  and  C_11
REMARK    7  A    between atoms: C_10  and  O_12
REMARK    8  A    between atoms: C_13  and  C_14
REMARK    9  A    between atoms: C_14  and  C_15
REMARK   10  A    between atoms: C_14  and  O_16
REMARK                            x       y       z     vdW  Elec       q    Type
REMARK                         _______ _______ _______ _____ _____    ______ ____
ROOT
ATOM      1  N   UNL     1      -0.592  20.455 -12.513  0.00  0.00    +0.000 N 
ENDROOT
BRANCH   1   6
ATOM      2  C   UNL     1      -2.049  15.122 -10.851  0.00  0.00    +0.000 C 
ATOM      3  C   UNL     1      -1.647  16.498 -11.283  0.00  0.00    +0.000 A 
ATOM      4  C   UNL     1      -1.355  17.484 -10.347  0.00  0.00    +0.000 A 
ATOM      5  C   UNL     1      -1.007  18.782 -10.757  0.00  0.00    +0.000 A 
ATOM      6  C   UNL     1      -0.958  19.164 -12.110  0.00  0.00    +0.000 A 
ATOM      7  C   UNL     1      -1.258  18.142 -13.029  0.00  0.00    +0.000 A 
ATOM      8  C   UNL     1      -1.604  16.840 -12.632  0.00  0.00    +0.000 A 
ENDBRANCH   1   6
BRANCH   1   9
ATOM      9  C   UNL     1      -1.545  21.292 -13.281  0.00  0.00    +0.000 C 
BRANCH   9  10
ATOM     10  C   UNL     1      -2.631  21.938 -12.387  0.00  0.00    +0.000 C 
ATOM     11  C   UNL     1      -3.894  21.085 -12.361  0.00  0.00    +0.000 C 
BRANCH  10  12
ATOM     12  O   UNL     1      -2.167  22.085 -11.038  0.00  0.00    +0.000 OA
ATOM     13  H   UNL     1      -1.239  21.799 -11.005  0.00  0.00    +0.000 HD
ENDBRANCH  10  12
ENDBRANCH   9  10
ENDBRANCH   1   9
BRANCH   1  14
ATOM     14  C   UNL     1       0.835  20.838 -12.660  0.00  0.00    +0.000 C 
BRANCH  14  15
ATOM     15  C   UNL     1       1.307  21.780 -11.527  0.00  0.00    +0.000 C 
ATOM     16  C   UNL     1       1.918  21.037 -10.345  0.00  0.00    +0.000 C 
BRANCH  15  17
ATOM     17  O   UNL     1       2.265  22.729 -11.994  0.00  0.00    +0.000 OA
ATOM     18  H   UNL     1       2.524  22.410 -12.882  0.00  0.00    +0.000 HD
ENDBRANCH  15  17
ENDBRANCH  14  15
ENDBRANCH   1  14
TORSDOF 7
ENDMDL
MODEL 3
REMARK VINA RESULT:    -3.905      3.259      5.572
REMARK INTER + INTRA:          -5.973
REMARK INTER:                  -5.255
REMARK INTRA:                  -0.718
REMARK UNBOUND:                -0.698
REMARK  Name = 
REMARK  10 active torsions:
REMARK  status: ('A' for Active; 'I' for Inactive)
REMARK    1  A    between atoms: C_1  and  C_2
REMARK    2  A    between atoms: C_5  and  N_8
REMARK    3  A    between atoms: N_8  and  C_9
REMARK    4  A    between atoms: N_8  and  C_13
REMARK    5  A    between atoms: C_9  and  C_10
REMARK    6  A    between atoms: C_10  and  C_11
REMARK    7  A    between atoms: C_10  and  O_12
REMARK    8  A    between atoms: C_13  and  C_14
REMARK    9  A    between atoms: C_14  and  C_15
REMARK   10  A    between atoms: C_14  and  O_16
REMARK                            x       y       z     vdW  Elec       q    Type
REMARK                         _______ _______ _______ _____ _____    ______ ____
ROOT
ATOM      1  N   UNL     1      11.741  21.206   6.754  0.00  0.00    +0.000 N 
ENDROOT
BRANCH   1   6
ATOM      2  C   UNL     1      16.143  18.858   3.850  0.00  0.00    +0.000 C 
ATOM      3  C   UNL     1      15.016  19.486   4.610  0.00  0.00    +0.000 A 
ATOM      4  C   UNL     1      14.779  19.155   5.940  0.00  0.00    +0.000 A 
ATOM      5  C   UNL     1      13.702  19.724   6.639  0.00  0.00    +0.000 A 
ATOM      6  C   UNL     1      12.801  20.627   6.046  0.00  0.00    +0.000 A 
ATOM      7  C   UNL     1      13.073  20.941   4.701  0.00  0.00    +0.000 A 
ATOM      8  C   UNL     1      14.147  20.380   3.991  0.00  0.00    +0.000 A 
ENDBRANCH   1   6
BRANCH   1   9
ATOM      9  C   UNL     1      11.705  22.672   6.970  0.00  0.00    +0.000 C 
BRANCH   9  10
ATOM     10  C   UNL     1      10.711  23.393   6.027  0.00  0.00    +0.000 C 
ATOM     11  C   UNL     1      11.453  24.190   4.960  0.00  0.00    +0.000 C 
BRANCH  10  12
ATOM     12  O   UNL     1       9.855  22.452   5.364  0.00  0.00    +0.000 OA
ATOM     13  H   UNL     1       9.124  22.234   5.965  0.00  0.00    +0.000 HD
ENDBRANCH  10  12
ENDBRANCH   9  10
ENDBRANCH   1   9
BRANCH   1  14
ATOM     14  C   UNL     1      10.937  20.413   7.719  0.00  0.00    +0.000 C 
BRANCH  14  15
ATOM     15  C   UNL     1      10.115  19.303   7.020  0.00  0.00    +0.000 C 
ATOM     16  C   UNL     1       9.428  18.358   7.999  0.00  0.00    +0.000 C 
BRANCH  15  17
ATOM     17  O   UNL     1       9.116  19.849   6.159  0.00  0.00    +0.000 OA
ATOM     18  H   UNL     1       8.612  19.076   5.835  0.00  0.00    +0.000 HD
ENDBRANCH  15  17
ENDBRANCH  14  15
ENDBRANCH   1  14
TORSDOF 7
ENDMDL
MODEL 4
REMARK VINA RESULT:    -3.873     19.555     21.155
REMARK INTER + INTRA:          -5.930
REMARK INTER:                  -5.549
REMARK INTRA:                  -0.381
REMARK UNBOUND:                -0.698
REMARK  Name = 
REMARK  10 active torsions:
REMARK  status: ('A' for Active; 'I' for Inactive)
REMARK    1  A    between atoms: C_1  and  C_2
REMARK    2  A    between atoms: C_5  and  N_8
REMARK    3  A    between atoms: N_8  and  C_9
REMARK    4  A    between atoms: N_8  and  C_13
REMARK    5  A    between atoms: C_9  and  C_10
REMARK    6  A    between atoms: C_10  and  C_11
REMARK    7  A    between atoms: C_10  and  O_12
REMARK    8  A    between atoms: C_13  and  C_14
REMARK    9  A    between atoms: C_14  and  C_15
REMARK   10  A    between atoms: C_14  and  O_16
REMARK                            x       y       z     vdW  Elec       q    Type
REMARK                         _______ _______ _______ _____ _____    ______ ____
ROOT
ATOM      1  N   UNL     1      -2.679  17.056 -11.728  0.00  0.00    +0.000 N 
ENDROOT
BRANCH   1   6
ATOM      2  C   UNL     1       0.436  21.853 -12.505  0.00  0.00    +0.000 C 
ATOM      3  C   UNL     1      -0.352  20.595 -12.311  0.00  0.00    +0.000 A 
ATOM      4  C   UNL     1      -1.130  20.073 -13.339  0.00  0.00    +0.000 A 
ATOM      5  C   UNL     1      -1.891  18.909 -13.141  0.00  0.00    +0.000 A 
ATOM      6  C   UNL     1      -1.933  18.227 -11.912  0.00  0.00    +0.000 A 
ATOM      7  C   UNL     1      -1.133  18.781 -10.896  0.00  0.00    +0.000 A 
ATOM      8  C   UNL     1      -0.365  19.943 -11.081  0.00  0.00    +0.000 A 
ENDBRANCH   1   6
BRANCH   1   9
ATOM      9  C   UNL     1      -3.121  16.263 -12.901  0.00  0.00    +0.000 C 
BRANCH   9  10
ATOM     10  C   UNL     1      -2.176  15.077 -13.214  0.00  0.00    +0.000 C 
ATOM     11  C   UNL     1      -0.750  15.385 -12.773  0.00  0.00    +0.000 C 
BRANCH  10  12
ATOM     12  O   UNL     1      -2.604  13.886 -12.539  0.00  0.00    +0.000 OA
ATOM     13  H   UNL     1      -3.573  13.845 -12.586  0.00  0.00    +0.000 HD
ENDBRANCH  10  12
ENDBRANCH   9  10
ENDBRANCH   1   9
BRANCH   1  14
ATOM     14  C   UNL     1      -3.472  16.836 -10.491  0.00  0.00    +0.000 C 
BRANCH  14  15
ATOM     15  C   UNL     1      -2.992  15.593  -9.703  0.00  0.00    +0.000 C 
ATOM     16  C   UNL     1      -1.544  15.699  -9.241  0.00  0.00    +0.000 C 
BRANCH  15  17
ATOM     17  O   UNL     1      -3.805  15.351  -8.555  0.00  0.00    +0.000 OA
ATOM     18  H   UNL     1      -4.718  15.284  -8.902  0.00  0.00    +0.000 HD
ENDBRANCH  15  17
ENDBRANCH  14  15
ENDBRANCH   1  14
TORSDOF 7
ENDMDL
MODEL 5
REMARK VINA RESULT:    -3.858     17.902     20.560
REMARK INTER + INTRA:          -5.909
REMARK INTER:                  -5.327
REMARK INTRA:                  -0.582
REMARK UNBOUND:                -0.698
REMARK  Name = 
REMARK  10 active torsions:
REMARK  status: ('A' for Active; 'I' for Inactive)
REMARK    1  A    between atoms: C_1  and  C_2
REMARK    2  A    between atoms: C_5  and  N_8
REMARK    3  A    between atoms: N_8  and  C_9
REMARK    4  A    between atoms: N_8  and  C_13
REMARK    5  A    between atoms: C_9  and  C_10
REMARK    6  A    between atoms: C_10  and  C_11
REMARK    7  A    between atoms: C_10  and  O_12
REMARK    8  A    between atoms: C_13  and  C_14
REMARK    9  A    between atoms: C_14  and  C_15
REMARK   10  A    between atoms: C_14  and  O_16
REMARK                            x       y       z     vdW  Elec       q    Type
REMARK                         _______ _______ _______ _____ _____    ______ ____
ROOT
ATOM      1  N   UNL     1      -0.773  20.587 -12.270  0.00  0.00    +0.000 N 
ENDROOT
BRANCH   1   6
ATOM      2  C   UNL     1      -1.922  15.075 -10.997  0.00  0.00    +0.000 C 
ATOM      3  C   UNL     1      -1.600  16.500 -11.329  0.00  0.00    +0.000 A 
ATOM      4  C   UNL     1      -1.368  17.432 -10.323  0.00  0.00    +0.000 A 
ATOM      5  C   UNL     1      -1.096  18.773 -10.639  0.00  0.00    +0.000 A 
ATOM      6  C   UNL     1      -1.064  19.253 -11.961  0.00  0.00    +0.000 A 
ATOM      7  C   UNL     1      -1.301  18.282 -12.952  0.00  0.00    +0.000 A 
ATOM      8  C   UNL     1      -1.572  16.937 -12.650  0.00  0.00    +0.000 A 
ENDBRANCH   1   6
BRANCH   1   9
ATOM      9  C   UNL     1       0.614  20.985 -12.611  0.00  0.00    +0.000 C 
BRANCH   9  10
ATOM     10  C   UNL     1       1.276  21.856 -11.515  0.00  0.00    +0.000 C 
ATOM     11  C   UNL     1       1.865  20.987 -10.410  0.00  0.00    +0.000 C 
BRANCH  10  12
ATOM     12  O   UNL     1       2.334  22.656 -12.062  0.00  0.00    +0.000 OA
ATOM     13  H   UNL     1       2.134  22.819 -12.999  0.00  0.00    +0.000 HD
ENDBRANCH  10  12
ENDBRANCH   9  10
ENDBRANCH   1   9
BRANCH   1  14
ATOM     14  C   UNL     1      -1.640  21.694 -11.791  0.00  0.00    +0.000 C 
BRANCH  14  15
ATOM     15  C   UNL     1      -2.819  21.971 -12.755  0.00  0.00    +0.000 C 
ATOM     16  C   UNL     1      -4.166  21.525 -12.198  0.00  0.00    +0.000 C 
BRANCH  15  17
ATOM     17  O   UNL     1      -2.915  23.355 -13.087  0.00  0.00    +0.000 OA
ATOM     18  H   UNL     1      -2.047  23.734 -12.842  0.00  0.00    +0.000 HD
ENDBRANCH  15  17
ENDBRANCH  14  15
ENDBRANCH   1  14
TORSDOF 7
ENDMDL
MODEL 6
REMARK VINA RESULT:    -3.704      3.946      5.611
REMARK INTER + INTRA:          -5.701
REMARK INTER:                  -5.231
REMARK INTRA:                  -0.470
REMARK UNBOUND:                -0.698
REMARK  Name = 
REMARK  10 active torsions:
REMARK  status: ('A' for Active; 'I' for Inactive)
REMARK    1  A    between atoms: C_1  and  C_2
REMARK    2  A    between atoms: C_5  and  N_8
REMARK    3  A    between atoms: N_8  and  C_9
REMARK    4  A    between atoms: N_8  and  C_13
REMARK    5  A    between atoms: C_9  and  C_10
REMARK    6  A    between atoms: C_10  and  C_11
REMARK    7  A    between atoms: C_10  and  O_12
REMARK    8  A    between atoms: C_13  and  C_14
REMARK    9  A    between atoms: C_14  and  C_15
REMARK   10  A    between atoms: C_14  and  O_16
REMARK                            x       y       z     vdW  Elec       q    Type
REMARK                         _______ _______ _______ _____ _____    ______ ____
ROOT
ATOM      1  N   UNL     1      14.292  20.853   4.641  0.00  0.00    +0.000 N 
ENDROOT
BRANCH   1   6
ATOM      2  C   UNL     1       9.754  19.431   7.914  0.00  0.00    +0.000 C 
ATOM      3  C   UNL     1      10.930  19.777   7.054  0.00  0.00    +0.000 A 
ATOM      4  C   UNL     1      12.229  19.537   7.489  0.00  0.00    +0.000 A 
ATOM      5  C   UNL     1      13.329  19.891   6.691  0.00  0.00    +0.000 A 
ATOM      6  C   UNL     1      13.191  20.520   5.440  0.00  0.00    +0.000 A 
ATOM      7  C   UNL     1      11.864  20.745   5.031  0.00  0.00    +0.000 A 
ATOM      8  C   UNL     1      10.755  20.394   5.819  0.00  0.00    +0.000 A 
ENDBRANCH   1   6
BRANCH   1   9
ATOM      9  C   UNL     1      14.103  21.672   3.420  0.00  0.00    +0.000 C 
BRANCH   9  10
ATOM     10  C   UNL     1      14.318  23.185   3.673  0.00  0.00    +0.000 C 
ATOM     11  C   UNL     1      15.110  23.820   2.536  0.00  0.00    +0.000 C 
BRANCH  10  12
ATOM     12  O   UNL     1      13.064  23.873   3.779  0.00  0.00    +0.000 OA
ATOM     13  H   UNL     1      12.445  23.297   4.258  0.00  0.00    +0.000 HD
ENDBRANCH  10  12
ENDBRANCH   9  10
ENDBRANCH   1   9
BRANCH   1  14
ATOM     14  C   UNL     1      15.530  20.032   4.657  0.00  0.00    +0.000 C 
BRANCH  14  15
ATOM     15  C   UNL     1      15.897  19.501   3.251  0.00  0.00    +0.000 C 
ATOM     16  C   UNL     1      17.380  19.637   2.926  0.00  0.00    +0.000 C 
BRANCH  15  17
ATOM     17  O   UNL     1      15.534  18.129   3.095  0.00  0.00    +0.000 OA
ATOM     18  H   UNL     1      15.458  17.997   2.128  0.00  0.00    +0.000 HD
ENDBRANCH  15  17
ENDBRANCH  14  15
ENDBRANCH   1  14
TORSDOF 7
ENDMDL
MODEL 7
REMARK VINA RESULT:    -3.561     19.169     21.221
REMARK INTER + INTRA:          -5.507
REMARK INTER:                  -4.974
REMARK INTRA:                  -0.533
REMARK UNBOUND:                -0.698
REMARK  Name = 
REMARK  10 active torsions:
REMARK  status: ('A' for Active; 'I' for Inactive)
REMARK    1  A    between atoms: C_1  and  C_2
REMARK    2  A    between atoms: C_5  and  N_8
REMARK    3  A    between atoms: N_8  and  C_9
REMARK    4  A    between atoms: N_8  and  C_13
REMARK    5  A    between atoms: C_9  and  C_10
REMARK    6  A    between atoms: C_10  and  C_11
REMARK    7  A    between atoms: C_10  and  O_12
REMARK    8  A    between atoms: C_13  and  C_14
REMARK    9  A    between atoms: C_14  and  C_15
REMARK   10  A    between atoms: C_14  and  O_16
REMARK                            x       y       z     vdW  Elec       q    Type
REMARK                         _______ _______ _______ _____ _____    ______ ____
ROOT
ATOM      1  N   UNL     1      -2.476  17.424 -11.651  0.00  0.00    +0.000 N 
ENDROOT
BRANCH   1   6
ATOM      2  C   UNL     1      -1.225  23.044 -12.073  0.00  0.00    +0.000 C 
ATOM      3  C   UNL     1      -1.558  21.590 -11.940  0.00  0.00    +0.000 A 
ATOM      4  C   UNL     1      -0.615  20.681 -11.473  0.00  0.00    +0.000 A 
ATOM      5  C   UNL     1      -0.924  19.314 -11.379  0.00  0.00    +0.000 A 
ATOM      6  C   UNL     1      -2.169  18.786 -11.765  0.00  0.00    +0.000 A 
ATOM      7  C   UNL     1      -3.098  19.734 -12.231  0.00  0.00    +0.000 A 
ATOM      8  C   UNL     1      -2.804  21.104 -12.328  0.00  0.00    +0.000 A 
ENDBRANCH   1   6
BRANCH   1   9
ATOM      9  C   UNL     1      -3.058  16.896 -10.393  0.00  0.00    +0.000 C 
BRANCH   9  10
ATOM     10  C   UNL     1      -2.170  15.816  -9.729  0.00  0.00    +0.000 C 
ATOM     11  C   UNL     1      -1.036  16.454  -8.935  0.00  0.00    +0.000 C 
BRANCH  10  12
ATOM     12  O   UNL     1      -2.936  15.001  -8.831  0.00  0.00    +0.000 OA
ATOM     13  H   UNL     1      -2.728  14.070  -9.017  0.00  0.00    +0.000 HD
ENDBRANCH  10  12
ENDBRANCH   9  10
ENDBRANCH   1   9
BRANCH   1  14
ATOM     14  C   UNL     1      -1.801  16.410 -12.500  0.00  0.00    +0.000 C 
BRANCH  14  15
ATOM     15  C   UNL     1      -2.790  15.690 -13.448  0.00  0.00    +0.000 C 
ATOM     16  C   UNL     1      -3.116  14.268 -13.007  0.00  0.00    +0.000 C 
BRANCH  15  17
ATOM     17  O   UNL     1      -4.018  16.406 -13.572  0.00  0.00    +0.000 OA
ATOM     18  H   UNL     1      -4.155  16.825 -12.698  0.00  0.00    +0.000 HD
ENDBRANCH  15  17
ENDBRANCH  14  15
ENDBRANCH   1  14
TORSDOF 7
ENDMDL
