MODEL 1
REMARK VINA RESULT:    -5.773      0.000      0.000
REMARK INTER + INTRA:          -8.187
REMARK INTER:                  -7.798
REMARK INTRA:                  -0.389
REMARK UNBOUND:                -0.389
REMARK  Name = 
REMARK  10 active torsions:
REMARK  status: ('A' for Active; 'I' for Inactive)
REMARK    1  A    between atoms: C_1  and  C_2
REMARK    2  A    between atoms: C_5  and  N_8
REMARK    3  A    between atoms: N_8  and  C_9
REMARK    4  A    between atoms: N_8  and  C_13
REMARK    5  A    between atoms: C_9  and  C_10
REMARK    6  A    between atoms: C_10  and  C_11
REMARK    7  A    between atoms: C_10  and  O_12
REMARK    8  A    between atoms: C_13  and  C_14
REMARK    9  A    between atoms: C_14  and  C_15
REMARK   10  A    between atoms: C_14  and  O_16
REMARK                            x       y       z     vdW  Elec       q    Type
REMARK                         _______ _______ _______ _____ _____    ______ ____
ROOT
ATOM      1  N   UNL     1       9.174   9.852   4.207  0.00  0.00    +0.000 N 
ENDROOT
BRANCH   1   6
ATOM      2  C   UNL     1       9.905  11.417   9.716  0.00  0.00    +0.000 C 
ATOM      3  C   UNL     1       9.732  10.993   8.290  0.00  0.00    +0.000 A 
ATOM      4  C   UNL     1      10.520  11.537   7.281  0.00  0.00    +0.000 A 
ATOM      5  C   UNL     1      10.332  11.157   5.942  0.00  0.00    +0.000 A 
ATOM      6  C   UNL     1       9.342  10.241   5.542  0.00  0.00    +0.000 A 
ATOM      7  C   UNL     1       8.565   9.710   6.588  0.00  0.00    +0.000 A 
ATOM      8  C   UNL     1       8.744  10.080   7.931  0.00  0.00    +0.000 A 
ENDBRANCH   1   6
BRANCH   1   9
ATOM      9  C   UNL     1       7.996   9.043   3.812  0.00  0.00    +0.000 C 
BRANCH   9  10
ATOM     10  C   UNL     1       8.357   7.893   2.840  0.00  0.00    +0.000 C 
ATOM     11  C   UNL     1       8.039   6.537   3.458  0.00  0.00    +0.000 C 
BRANCH  10  12
ATOM     12  O   UNL     1       7.622   8.005   1.613  0.00  0.00    +0.000 OA
ATOM     13  H   UNL     1       8.061   8.672   1.059  0.00  0.00    +0.000 HD
ENDBRANCH  10  12
ENDBRANCH   9  10
ENDBRANCH   1   9
BRANCH   1  14
ATOM     14  C   UNL     1      10.331   9.766   3.279  0.00  0.00    +0.000 C 
BRANCH  14  15
ATOM     15  C   UNL     1      10.296  10.872   2.197  0.00  0.00    +0.000 C 
ATOM     16  C   UNL     1       9.373  12.031   2.554  0.00  0.00    +0.000 C 
BRANCH  15  17
ATOM     17  O   UNL     1      11.596  11.403   1.945  0.00  0.00    +0.000 OA
ATOM     18  H   UNL     1      11.768  11.213   1.001  0.00  0.00    +0.000 HD
ENDBRANCH  15  17
ENDBRANCH  14  15
ENDBRANCH   1  14
TORSDOF 7
ENDMDL
MODEL 2
REMARK VINA RESULT:    -5.062      0.998      3.347
REMARK INTER + INTRA:          -7.226
REMARK INTER:                  -6.862
REMARK INTRA:                  -0.364
REMARK UNBOUND:                -0.389
REMARK  Name = 
REMARK  10 active torsions:
REMARK  status: ('A' for Active; 'I' for Inactive)
REMARK    1  A    between atoms: C_1  and  C_2
REMARK    2  A    between atoms: C_5  and  N_8
REMARK    3  A    between atoms: N_8  and  C_9
REMARK    4  A    between atoms: N_8  and  C_13
REMARK    5  A    between atoms: C_9  and  C_10
REMARK    6  A    between atoms: C_10  and  C_11
REMARK    7  A    between atoms: C_10  and  O_12
REMARK    8  A    between atoms: C_13  and  C_14
REMARK    9  A    between atoms: C_14  and  C_15
REMARK   10  A    between atoms: C_14  and  O_16
REMARK                            x       y       z     vdW  Elec       q    Type
REMARK                         _______ _______ _______ _____ _____    ______ ____
ROOT
ATOM      1  N   UNL     1       9.143   9.614   4.454  0.00  0.00    +0.000 N 
ENDROOT
BRANCH   1   6
ATOM      2  C   UNL     1      10.156  11.756   9.718  0.00  0.00    +0.000 C 
ATOM      3  C   UNL     1       9.879  11.220   8.347  0.00  0.00    +0.000 A 
ATOM      4  C   UNL     1       8.816  10.353   8.120  0.00  0.00    +0.000 A 
ATOM      5  C   UNL     1       8.579   9.829   6.839  0.00  0.00    +0.000 A 
ATOM      6  C   UNL     1       9.397  10.124   5.733  0.00  0.00    +0.000 A 
ATOM      7  C   UNL     1      10.461  11.005   5.998  0.00  0.00    +0.000 A 
ATOM      8  C   UNL     1      10.708  11.538   7.274  0.00  0.00    +0.000 A 
ENDBRANCH   1   6
BRANCH   1   9
ATOM      9  C   UNL     1       9.528  10.394   3.253  0.00  0.00    +0.000 C 
BRANCH   9  10
ATOM     10  C   UNL     1       8.473  11.458   2.865  0.00  0.00    +0.000 C 
ATOM     11  C   UNL     1       8.788  12.800   3.514  0.00  0.00    +0.000 C 
BRANCH  10  12
ATOM     12  O   UNL     1       8.434  11.650   1.444  0.00  0.00    +0.000 OA
ATOM     13  H   UNL     1       7.791  11.024   1.072  0.00  0.00    +0.000 HD
ENDBRANCH  10  12
ENDBRANCH   9  10
ENDBRANCH   1   9
BRANCH   1  14
ATOM     14  C   UNL     1       8.080   8.602   4.226  0.00  0.00    +0.000 C 
BRANCH  14  15
ATOM     15  C   UNL     1       8.427   7.641   3.064  0.00  0.00    +0.000 C 
ATOM     16  C   UNL     1       8.133   6.180   3.385  0.00  0.00    +0.000 C 
BRANCH  15  17
ATOM     17  O   UNL     1       7.723   7.981   1.870  0.00  0.00    +0.000 OA
ATOM     18  H   UNL     1       6.799   8.128   2.155  0.00  0.00    +0.000 HD
ENDBRANCH  15  17
ENDBRANCH  14  15
ENDBRANCH   1  14
TORSDOF 7
ENDMDL
MODEL 3
REMARK VINA RESULT:    -5.029      1.684      3.321
REMARK INTER + INTRA:          -7.182
REMARK INTER:                  -6.892
REMARK INTRA:                  -0.290
REMARK UNBOUND:                -0.389
REMARK  Name = 
REMARK  10 active torsions:
REMARK  status: ('A' for Active; 'I' for Inactive)
REMARK    1  A    between atoms: C_1  and  C_2
REMARK    2  A    between atoms: C_5  and  N_8
REMARK    3  A    between atoms: N_8  and  C_9
REMARK    4  A    between atoms: N_8  and  C_13
REMARK    5  A    between atoms: C_9  and  C_10
REMARK    6  A    between atoms: C_10  and  C_11
REMARK    7  A    between atoms: C_10  and  O_12
REMARK    8  A    between atoms: C_13  and  C_14
REMARK    9  A    between atoms: C_14  and  C_15
REMARK   10  A    between atoms: C_14  and  O_16
REMARK                            x       y       z     vdW  Elec       q    Type
REMARK                         _______ _______ _______ _____ _____    ______ ____
ROOT
ATOM      1  N   UNL     1       9.090  10.968   4.121  0.00  0.00    +0.000 N 
ENDROOT
BRANCH   1   6
ATOM      2  C   UNL     1      10.746  12.459   9.446  0.00  0.00    +0.000 C 
ATOM      3  C   UNL     1      10.301  12.055   8.074  0.00  0.00    +0.000 A 
ATOM      4  C   UNL     1      11.016  11.114   7.340  0.00  0.00    +0.000 A 
ATOM      5  C   UNL     1      10.612  10.761   6.042  0.00  0.00    +0.000 A 
ATOM      6  C   UNL     1       9.498  11.340   5.408  0.00  0.00    +0.000 A 
ATOM      7  C   UNL     1       8.798  12.285   6.180  0.00  0.00    +0.000 A 
ATOM      8  C   UNL     1       9.190  12.646   7.480  0.00  0.00    +0.000 A 
ENDBRANCH   1   6
BRANCH   1   9
ATOM      9  C   UNL     1       9.787  11.516   2.932  0.00  0.00    +0.000 C 
BRANCH   9  10
ATOM     10  C   UNL     1      11.094  10.757   2.600  0.00  0.00    +0.000 C 
ATOM     11  C   UNL     1      10.795   9.440   1.894  0.00  0.00    +0.000 C 
BRANCH  10  12
ATOM     12  O   UNL     1      11.940  11.537   1.745  0.00  0.00    +0.000 OA
ATOM     13  H   UNL     1      12.003  11.083   0.888  0.00  0.00    +0.000 HD
ENDBRANCH  10  12
ENDBRANCH   9  10
ENDBRANCH   1   9
BRANCH   1  14
ATOM     14  C   UNL     1       7.713  10.474   3.864  0.00  0.00    +0.000 C 
BRANCH  14  15
ATOM     15  C   UNL     1       7.496   9.041   4.407  0.00  0.00    +0.000 C 
ATOM     16  C   UNL     1       8.609   8.077   4.016  0.00  0.00    +0.000 C 
BRANCH  15  17
ATOM     17  O   UNL     1       7.379   9.028   5.829  0.00  0.00    +0.000 OA
ATOM     18  H   UNL     1       7.659   8.129   6.097  0.00  0.00    +0.000 HD
ENDBRANCH  15  17
ENDBRANCH  14  15
ENDBRANCH   1  14
TORSDOF 7
ENDMDL
MODEL 4
REMARK VINA RESULT:    -4.847      3.628      5.694
REMARK INTER + INTRA:          -6.936
REMARK INTER:                  -6.297
REMARK INTRA:                  -0.639
REMARK UNBOUND:                -0.389
REMARK  Name = 
REMARK  10 active torsions:
REMARK  status: ('A' for Active; 'I' for Inactive)
REMARK    1  A    between atoms: C_1  and  C_2
REMARK    2  A    between atoms: C_5  and  N_8
REMARK    3  A    between atoms: N_8  and  C_9
REMARK    4  A    between atoms: N_8  and  C_13
REMARK    5  A    between atoms: C_9  and  C_10
REMARK    6  A    between atoms: C_10  and  C_11
REMARK    7  A    between atoms: C_10  and  O_12
REMARK    8  A    between atoms: C_13  and  C_14
REMARK    9  A    between atoms: C_14  and  C_15
REMARK   10  A    between atoms: C_14  and  O_16
REMARK                            x       y       z     vdW  Elec       q    Type
REMARK                         _______ _______ _______ _____ _____    ______ ____
ROOT
ATOM      1  N   UNL     1      10.522  11.469   8.268  0.00  0.00    +0.000 N 
ENDROOT
BRANCH   1   6
ATOM      2  C   UNL     1       8.536  11.491   2.847  0.00  0.00    +0.000 C 
ATOM      3  C   UNL     1       9.035  11.468   4.259  0.00  0.00    +0.000 A 
ATOM      4  C   UNL     1       8.487  12.305   5.225  0.00  0.00    +0.000 A 
ATOM      5  C   UNL     1       8.980  12.300   6.540  0.00  0.00    +0.000 A 
ATOM      6  C   UNL     1      10.049  11.484   6.950  0.00  0.00    +0.000 A 
ATOM      7  C   UNL     1      10.578  10.649   5.948  0.00  0.00    +0.000 A 
ATOM      8  C   UNL     1      10.093  10.642   4.629  0.00  0.00    +0.000 A 
ENDBRANCH   1   6
BRANCH   1   9
ATOM      9  C   UNL     1       9.580  11.263   9.394  0.00  0.00    +0.000 C 
BRANCH   9  10
ATOM     10  C   UNL     1       9.351   9.767   9.718  0.00  0.00    +0.000 C 
ATOM     11  C   UNL     1       8.424   9.122   8.694  0.00  0.00    +0.000 C 
BRANCH  10  12
ATOM     12  O   UNL     1      10.590   9.043   9.713  0.00  0.00    +0.000 OA
ATOM     13  H   UNL     1      10.944   9.060   8.809  0.00  0.00    +0.000 HD
ENDBRANCH  10  12
ENDBRANCH   9  10
ENDBRANCH   1   9
BRANCH   1  14
ATOM     14  C   UNL     1      11.796  12.140   8.635  0.00  0.00    +0.000 C 
BRANCH  14  15
ATOM     15  C   UNL     1      13.031  11.267   8.305  0.00  0.00    +0.000 C 
ATOM     16  C   UNL     1      14.354  11.961   8.610  0.00  0.00    +0.000 C 
BRANCH  15  17
ATOM     17  O   UNL     1      13.007  10.030   9.015  0.00  0.00    +0.000 OA
ATOM     18  H   UNL     1      13.249   9.353   8.351  0.00  0.00    +0.000 HD
ENDBRANCH  15  17
ENDBRANCH  14  15
ENDBRANCH   1  14
TORSDOF 7
ENDMDL
MODEL 5
REMARK VINA RESULT:    -4.529      2.960      5.455
REMARK INTER + INTRA:          -6.506
REMARK INTER:                  -6.403
REMARK INTRA:                  -0.104
REMARK UNBOUND:                -0.389
REMARK  Name = 
REMARK  10 active torsions:
REMARK  status: ('A' for Active; 'I' for Inactive)
REMARK    1  A    between atoms: C_1  and  C_2
REMARK    2  A    between atoms: C_5  and  N_8
REMARK    3  A    between atoms: N_8  and  C_9
REMARK    4  A    between atoms: N_8  and  C_13
REMARK    5  A    between atoms: C_9  and  C_10
REMARK    6  A    between atoms: C_10  and  C_11
REMARK    7  A    between atoms: C_10  and  O_12
REMARK    8  A    between atoms: C_13  and  C_14
REMARK    9  A    between atoms: C_14  and  C_15
REMARK   10  A    between atoms: C_14  and  O_16
REMARK                            x       y       z     vdW  Elec       q    Type
REMARK                         _______ _______ _______ _____ _____    ______ ____
ROOT
ATOM      1  N   UNL     1       9.158  10.418   6.610  0.00  0.00    +0.000 N 
ENDROOT
BRANCH   1   6
ATOM      2  C   UNL     1       8.156   7.452   1.760  0.00  0.00    +0.000 C 
ATOM      3  C   UNL     1       8.400   8.240   3.011  0.00  0.00    +0.000 A 
ATOM      4  C   UNL     1       9.450   9.149   3.089  0.00  0.00    +0.000 A 
ATOM      5  C   UNL     1       9.693   9.862   4.274  0.00  0.00    +0.000 A 
ATOM      6  C   UNL     1       8.922   9.689   5.438  0.00  0.00    +0.000 A 
ATOM      7  C   UNL     1       7.869   8.764   5.322  0.00  0.00    +0.000 A 
ATOM      8  C   UNL     1       7.614   8.045   4.143  0.00  0.00    +0.000 A 
ENDBRANCH   1   6
BRANCH   1   9
ATOM      9  C   UNL     1       8.236  10.289   7.764  0.00  0.00    +0.000 C 
BRANCH   9  10
ATOM     10  C   UNL     1       8.565   9.070   8.661  0.00  0.00    +0.000 C 
ATOM     11  C   UNL     1       9.620   9.427   9.701  0.00  0.00    +0.000 C 
BRANCH  10  12
ATOM     12  O   UNL     1       7.396   8.611   9.354  0.00  0.00    +0.000 OA
ATOM     13  H   UNL     1       6.749   8.317   8.691  0.00  0.00    +0.000 HD
ENDBRANCH  10  12
ENDBRANCH   9  10
ENDBRANCH   1   9
BRANCH   1  14
ATOM     14  C   UNL     1       9.961  11.668   6.590  0.00  0.00    +0.000 C 
BRANCH  14  15
ATOM     15  C   UNL     1      10.410  12.097   8.008  0.00  0.00    +0.000 C 
ATOM     16  C   UNL     1      11.908  11.936   8.238  0.00  0.00    +0.000 C 
BRANCH  15  17
ATOM     17  O   UNL     1      10.064  13.453   8.283  0.00  0.00    +0.000 OA
ATOM     18  H   UNL     1       9.555  13.421   9.118  0.00  0.00    +0.000 HD
ENDBRANCH  15  17
ENDBRANCH  14  15
ENDBRANCH   1  14
TORSDOF 7
ENDMDL
MODEL 6
REMARK VINA RESULT:    -4.120      3.122      6.192
REMARK INTER + INTRA:          -5.955
REMARK INTER:                  -6.149
REMARK INTRA:                   0.194
REMARK UNBOUND:                -0.389
REMARK  Name = 
REMARK  10 active torsions:
REMARK  status: ('A' for Active; 'I' for Inactive)
REMARK    1  A    between atoms: C_1  and  C_2
REMARK    2  A    between atoms: C_5  and  N_8
REMARK    3  A    between atoms: N_8  and  C_9
REMARK    4  A    between atoms: N_8  and  C_13
REMARK    5  A    between atoms: C_9  and  C_10
REMARK    6  A    between atoms: C_10  and  C_11
REMARK    7  A    between atoms: C_10  and  O_12
REMARK    8  A    between atoms: C_13  and  C_14
REMARK    9  A    between atoms: C_14  and  C_15
REMARK   10  A    between atoms: C_14  and  O_16
REMARK                            x       y       z     vdW  Elec       q    Type
REMARK                         _______ _______ _______ _____ _____    ______ ____
ROOT
ATOM      1  N   UNL     1       9.013  10.668   7.169  0.00  0.00    +0.000 N 
ENDROOT
BRANCH   1   6
ATOM      2  C   UNL     1       8.527   7.813   2.174  0.00  0.00    +0.000 C 
ATOM      3  C   UNL     1       8.638   8.572   3.461  0.00  0.00    +0.000 A 
ATOM      4  C   UNL     1       9.671   9.480   3.668  0.00  0.00    +0.000 A 
ATOM      5  C   UNL     1       9.788  10.167   4.888  0.00  0.00    +0.000 A 
ATOM      6  C   UNL     1       8.902   9.966   5.962  0.00  0.00    +0.000 A 
ATOM      7  C   UNL     1       7.870   9.042   5.717  0.00  0.00    +0.000 A 
ATOM      8  C   UNL     1       7.740   8.350   4.501  0.00  0.00    +0.000 A 
ENDBRANCH   1   6
BRANCH   1   9
ATOM      9  C   UNL     1       9.454  12.084   7.167  0.00  0.00    +0.000 C 
BRANCH   9  10
ATOM     10  C   UNL     1      10.283  12.456   8.421  0.00  0.00    +0.000 C 
ATOM     11  C   UNL     1      11.769  12.220   8.182  0.00  0.00    +0.000 C 
BRANCH  10  12
ATOM     12  O   UNL     1      10.102  13.836   8.767  0.00  0.00    +0.000 OA
ATOM     13  H   UNL     1      10.745  14.360   8.261  0.00  0.00    +0.000 HD
ENDBRANCH  10  12
ENDBRANCH   9  10
ENDBRANCH   1   9
BRANCH   1  14
ATOM     14  C   UNL     1       9.205   9.956   8.458  0.00  0.00    +0.000 C 
BRANCH  14  15
ATOM     15  C   UNL     1       8.185   8.807   8.649  0.00  0.00    +0.000 C 
ATOM     16  C   UNL     1       8.817   7.526   9.179  0.00  0.00    +0.000 C 
BRANCH  15  17
ATOM     17  O   UNL     1       7.132   9.180   9.535  0.00  0.00    +0.000 OA
ATOM     18  H   UNL     1       7.501   9.056  10.433  0.00  0.00    +0.000 HD
ENDBRANCH  15  17
ENDBRANCH  14  15
ENDBRANCH   1  14
TORSDOF 7
ENDMDL
MODEL 7
REMARK VINA RESULT:    -3.854     12.233     13.996
REMARK INTER + INTRA:          -5.594
REMARK INTER:                  -4.829
REMARK INTRA:                  -0.765
REMARK UNBOUND:                -0.389
REMARK  Name = 
REMARK  10 active torsions:
REMARK  status: ('A' for Active; 'I' for Inactive)
REMARK    1  A    between atoms: C_1  and  C_2
REMARK    2  A    between atoms: C_5  and  N_8
REMARK    3  A    between atoms: N_8  and  C_9
REMARK    4  A    between atoms: N_8  and  C_13
REMARK    5  A    between atoms: C_9  and  C_10
REMARK    6  A    between atoms: C_10  and  C_11
REMARK    7  A    between atoms: C_10  and  O_12
REMARK    8  A    between atoms: C_13  and  C_14
REMARK    9  A    between atoms: C_14  and  C_15
REMARK   10  A    between atoms: C_14  and  O_16
REMARK                            x       y       z     vdW  Elec       q    Type
REMARK                         _______ _______ _______ _____ _____    ______ ____
ROOT
ATOM      1  N   UNL     1      21.288  17.096   2.685  0.00  0.00    +0.000 N 
ENDROOT
BRANCH   1   6
ATOM      2  C   UNL     1      20.826  11.547   1.160  0.00  0.00    +0.000 C 
ATOM      3  C   UNL     1      20.931  12.993   1.537  0.00  0.00    +0.000 A 
ATOM      4  C   UNL     1      21.957  13.788   1.038  0.00  0.00    +0.000 A 
ATOM      5  C   UNL     1      22.068  15.136   1.418  0.00  0.00    +0.000 A 
ATOM      6  C   UNL     1      21.183  15.746   2.325  0.00  0.00    +0.000 A 
ATOM      7  C   UNL     1      20.157  14.913   2.808  0.00  0.00    +0.000 A 
ATOM      8  C   UNL     1      20.033  13.564   2.434  0.00  0.00    +0.000 A 
ENDBRANCH   1   6
BRANCH   1   9
ATOM      9  C   UNL     1      20.817  18.151   1.756  0.00  0.00    +0.000 C 
BRANCH   9  10
ATOM     10  C   UNL     1      19.288  18.384   1.838  0.00  0.00    +0.000 C 
ATOM     11  C   UNL     1      18.543  17.442   0.900  0.00  0.00    +0.000 C 
BRANCH  10  12
ATOM     12  O   UNL     1      18.804  18.161   3.169  0.00  0.00    +0.000 OA
ATOM     13  H   UNL     1      19.131  17.295   3.467  0.00  0.00    +0.000 HD
ENDBRANCH  10  12
ENDBRANCH   9  10
ENDBRANCH   1   9
BRANCH   1  14
ATOM     14  C   UNL     1      22.282  17.548   3.692  0.00  0.00    +0.000 C 
BRANCH  14  15
ATOM     15  C   UNL     1      21.836  17.227   5.138  0.00  0.00    +0.000 C 
ATOM     16  C   UNL     1      22.731  17.861   6.196  0.00  0.00    +0.000 C 
BRANCH  15  17
ATOM     17  O   UNL     1      20.495  17.651   5.382  0.00  0.00    +0.000 OA
ATOM     18  H   UNL     1      20.413  18.509   4.919  0.00  0.00    +0.000 HD
ENDBRANCH  15  17
ENDBRANCH  14  15
ENDBRANCH   1  14
TORSDOF 7
ENDMDL
MODEL 8
REMARK VINA RESULT:    -3.753      3.512      6.165
REMARK INTER + INTRA:          -5.458
REMARK INTER:                  -5.215
REMARK INTRA:                  -0.244
REMARK UNBOUND:                -0.389
REMARK  Name = 
REMARK  10 active torsions:
REMARK  status: ('A' for Active; 'I' for Inactive)
REMARK    1  A    between atoms: C_1  and  C_2
REMARK    2  A    between atoms: C_5  and  N_8
REMARK    3  A    between atoms: N_8  and  C_9
REMARK    4  A    between atoms: N_8  and  C_13
REMARK    5  A    between atoms: C_9  and  C_10
REMARK    6  A    between atoms: C_10  and  C_11
REMARK    7  A    between atoms: C_10  and  O_12
REMARK    8  A    between atoms: C_13  and  C_14
REMARK    9  A    between atoms: C_14  and  C_15
REMARK   10  A    between atoms: C_14  and  O_16
REMARK                            x       y       z     vdW  Elec       q    Type
REMARK                         _______ _______ _______ _____ _____    ______ ____
ROOT
ATOM      1  N   UNL     1      10.050  11.346   7.694  0.00  0.00    +0.000 N 
ENDROOT
BRANCH   1   6
ATOM      2  C   UNL     1       8.660  11.592   2.096  0.00  0.00    +0.000 C 
ATOM      3  C   UNL     1       9.002  11.511   3.552  0.00  0.00    +0.000 A 
ATOM      4  C   UNL     1       8.445  12.399   4.466  0.00  0.00    +0.000 A 
ATOM      5  C   UNL     1       8.792  12.338   5.826  0.00  0.00    +0.000 A 
ATOM      6  C   UNL     1       9.723  11.414   6.333  0.00  0.00    +0.000 A 
ATOM      7  C   UNL     1      10.265  10.531   5.381  0.00  0.00    +0.000 A 
ATOM      8  C   UNL     1       9.925  10.579   4.019  0.00  0.00    +0.000 A 
ENDBRANCH   1   6
BRANCH   1   9
ATOM      9  C   UNL     1      11.089  12.243   8.254  0.00  0.00    +0.000 C 
BRANCH   9  10
ATOM     10  C   UNL     1      12.260  11.470   8.908  0.00  0.00    +0.000 C 
ATOM     11  C   UNL     1      13.161  10.847   7.849  0.00  0.00    +0.000 C 
BRANCH  10  12
ATOM     12  O   UNL     1      13.062  12.340   9.718  0.00  0.00    +0.000 OA
ATOM     13  H   UNL     1      12.785  13.255   9.543  0.00  0.00    +0.000 HD
ENDBRANCH  10  12
ENDBRANCH   9  10
ENDBRANCH   1   9
BRANCH   1  14
ATOM     14  C   UNL     1       9.794  10.116   8.486  0.00  0.00    +0.000 C 
BRANCH  14  15
ATOM     15  C   UNL     1       8.285   9.783   8.578  0.00  0.00    +0.000 C 
ATOM     16  C   UNL     1       7.747   9.094   7.330  0.00  0.00    +0.000 C 
BRANCH  15  17
ATOM     17  O   UNL     1       7.996   8.953   9.701  0.00  0.00    +0.000 OA
ATOM     18  H   UNL     1       8.767   9.054  10.296  0.00  0.00    +0.000 HD
ENDBRANCH  15  17
ENDBRANCH  14  15
ENDBRANCH   1  14
TORSDOF 7
ENDMDL
MODEL 9
REMARK VINA RESULT:    -3.484      0.791      2.974
REMARK INTER + INTRA:          -5.095
REMARK INTER:                  -4.796
REMARK INTRA:                  -0.299
REMARK UNBOUND:                -0.389
REMARK  Name = 
REMARK  10 active torsions:
REMARK  status: ('A' for Active; 'I' for Inactive)
REMARK    1  A    between atoms: C_1  and  C_2
REMARK    2  A    between atoms: C_5  and  N_8
REMARK    3  A    between atoms: N_8  and  C_9
REMARK    4  A    between atoms: N_8  and  C_13
REMARK    5  A    between atoms: C_9  and  C_10
REMARK    6  A    between atoms: C_10  and  C_11
REMARK    7  A    between atoms: C_10  and  O_12
REMARK    8  A    between atoms: C_13  and  C_14
REMARK    9  A    between atoms: C_14  and  C_15
REMARK   10  A    between atoms: C_14  and  O_16
REMARK                            x       y       z     vdW  Elec       q    Type
REMARK                         _______ _______ _______ _____ _____    ______ ____
ROOT
ATOM      1  N   UNL     1       8.703  10.412   3.982  0.00  0.00    +0.000 N 
ENDROOT
BRANCH   1   6
ATOM      2  C   UNL     1       9.354  10.496   9.718  0.00  0.00    +0.000 C 
ATOM      3  C   UNL     1       9.202  10.456   8.228  0.00  0.00    +0.000 A 
ATOM      4  C   UNL     1       9.965  11.282   7.410  0.00  0.00    +0.000 A 
ATOM      5  C   UNL     1       9.797  11.262   6.016  0.00  0.00    +0.000 A 
ATOM      6  C   UNL     1       8.852  10.441   5.375  0.00  0.00    +0.000 A 
ATOM      7  C   UNL     1       8.100   9.617   6.233  0.00  0.00    +0.000 A 
ATOM      8  C   UNL     1       8.260   9.626   7.628  0.00  0.00    +0.000 A 
ENDBRANCH   1   6
BRANCH   1   9
ATOM      9  C   UNL     1       9.174  11.552   3.160  0.00  0.00    +0.000 C 
BRANCH   9  10
ATOM     10  C   UNL     1      10.514  11.262   2.442  0.00  0.00    +0.000 C 
ATOM     11  C   UNL     1      11.303  10.183   3.175  0.00  0.00    +0.000 C 
BRANCH  10  12
ATOM     12  O   UNL     1      10.292  10.814   1.098  0.00  0.00    +0.000 OA
ATOM     13  H   UNL     1       9.855   9.947   1.138  0.00  0.00    +0.000 HD
ENDBRANCH  10  12
ENDBRANCH   9  10
ENDBRANCH   1   9
BRANCH   1  14
ATOM     14  C   UNL     1       7.670   9.561   3.337  0.00  0.00    +0.000 C 
BRANCH  14  15
ATOM     15  C   UNL     1       8.267   8.256   2.758  0.00  0.00    +0.000 C 
ATOM     16  C   UNL     1       8.118   7.062   3.694  0.00  0.00    +0.000 C 
BRANCH  15  17
ATOM     17  O   UNL     1       7.671   7.913   1.507  0.00  0.00    +0.000 OA
ATOM     18  H   UNL     1       6.884   7.381   1.739  0.00  0.00    +0.000 HD
ENDBRANCH  15  17
ENDBRANCH  14  15
ENDBRANCH   1  14
TORSDOF 7
ENDMDL
