MODEL 1
REMARK VINA RESULT:    -5.968      0.000      0.000
REMARK INTER + INTRA:          -8.522
REMARK INTER:                  -8.061
REMARK INTRA:                  -0.461
REMARK UNBOUND:                -0.461
REMARK  Name = 
REMARK  10 active torsions:
REMARK  status: ('A' for Active; 'I' for Inactive)
REMARK    1  A    between atoms: C_1  and  C_2
REMARK    2  A    between atoms: C_5  and  N_8
REMARK    3  A    between atoms: N_8  and  C_9
REMARK    4  A    between atoms: N_8  and  C_13
REMARK    5  A    between atoms: C_9  and  C_10
REMARK    6  A    between atoms: C_10  and  C_11
REMARK    7  A    between atoms: C_10  and  O_12
REMARK    8  A    between atoms: C_13  and  C_14
REMARK    9  A    between atoms: C_14  and  C_15
REMARK   10  A    between atoms: C_14  and  O_16
REMARK                            x       y       z     vdW  Elec       q    Type
REMARK                         _______ _______ _______ _____ _____    ______ ____
ROOT
ATOM      1  N   UNL     1       9.581   7.823   6.234  0.00  0.00    +0.000 N 
ENDROOT
BRANCH   1   6
ATOM      2  C   UNL     1      14.536   9.145   3.583  0.00  0.00    +0.000 C 
ATOM      3  C   UNL     1      13.238   8.815   4.254  0.00  0.00    +0.000 A 
ATOM      4  C   UNL     1      12.732   9.622   5.267  0.00  0.00    +0.000 A 
ATOM      5  C   UNL     1      11.529   9.291   5.913  0.00  0.00    +0.000 A 
ATOM      6  C   UNL     1      10.790   8.136   5.600  0.00  0.00    +0.000 A 
ATOM      7  C   UNL     1      11.330   7.345   4.569  0.00  0.00    +0.000 A 
ATOM      8  C   UNL     1      12.531   7.665   3.914  0.00  0.00    +0.000 A 
ENDBRANCH   1   6
BRANCH   1   9
ATOM      9  C   UNL     1       8.564   7.003   5.533  0.00  0.00    +0.000 C 
BRANCH   9  10
ATOM     10  C   UNL     1       7.170   7.075   6.202  0.00  0.00    +0.000 C 
ATOM     11  C   UNL     1       6.077   7.293   5.162  0.00  0.00    +0.000 C 
BRANCH  10  12
ATOM     12  O   UNL     1       6.875   5.863   6.909  0.00  0.00    +0.000 OA
ATOM     13  H   UNL     1       7.474   5.170   6.584  0.00  0.00    +0.000 HD
ENDBRANCH  10  12
ENDBRANCH   9  10
ENDBRANCH   1   9
BRANCH   1  14
ATOM     14  C   UNL     1       9.052   8.663   7.339  0.00  0.00    +0.000 C 
BRANCH  14  15
ATOM     15  C   UNL     1       9.373   8.068   8.731  0.00  0.00    +0.000 C 
ATOM     16  C   UNL     1       8.427   8.554   9.823  0.00  0.00    +0.000 C 
BRANCH  15  17
ATOM     17  O   UNL     1       9.334   6.642   8.716  0.00  0.00    +0.000 OA
ATOM     18  H   UNL     1       8.552   6.416   8.173  0.00  0.00    +0.000 HD
ENDBRANCH  15  17
ENDBRANCH  14  15
ENDBRANCH   1  14
TORSDOF 7
ENDMDL
MODEL 2
REMARK VINA RESULT:    -5.903      0.709      3.082
REMARK INTER + INTRA:          -8.435
REMARK INTER:                  -8.159
REMARK INTRA:                  -0.276
REMARK UNBOUND:                -0.461
REMARK  Name = 
REMARK  10 active torsions:
REMARK  status: ('A' for Active; 'I' for Inactive)
REMARK    1  A    between atoms: C_1  and  C_2
REMARK    2  A    between atoms: C_5  and  N_8
REMARK    3  A    between atoms: N_8  and  C_9
REMARK    4  A    between atoms: N_8  and  C_13
REMARK    5  A    between atoms: C_9  and  C_10
REMARK    6  A    between atoms: C_10  and  C_11
REMARK    7  A    between atoms: C_10  and  O_12
REMARK    8  A    between atoms: C_13  and  C_14
REMARK    9  A    between atoms: C_14  and  C_15
REMARK   10  A    between atoms: C_14  and  O_16
REMARK                            x       y       z     vdW  Elec       q    Type
REMARK                         _______ _______ _______ _____ _____    ______ ____
ROOT
ATOM      1  N   UNL     1       9.350   8.057   6.159  0.00  0.00    +0.000 N 
ENDROOT
BRANCH   1   6
ATOM      2  C   UNL     1      14.365   9.197   3.535  0.00  0.00    +0.000 C 
ATOM      3  C   UNL     1      13.076   8.891   4.235  0.00  0.00    +0.000 A 
ATOM      4  C   UNL     1      12.392   7.706   3.985  0.00  0.00    +0.000 A 
ATOM      5  C   UNL     1      11.169   7.438   4.622  0.00  0.00    +0.000 A 
ATOM      6  C   UNL     1      10.560   8.340   5.513  0.00  0.00    +0.000 A 
ATOM      7  C   UNL     1      11.281   9.526   5.744  0.00  0.00    +0.000 A 
ATOM      8  C   UNL     1      12.506   9.806   5.116  0.00  0.00    +0.000 A 
ENDBRANCH   1   6
BRANCH   1   9
ATOM      9  C   UNL     1       9.132   8.502   7.557  0.00  0.00    +0.000 C 
BRANCH   9  10
ATOM     10  C   UNL     1       9.442   7.394   8.594  0.00  0.00    +0.000 C 
ATOM     11  C   UNL     1      10.931   7.070   8.617  0.00  0.00    +0.000 C 
BRANCH  10  12
ATOM     12  O   UNL     1       9.055   7.802   9.913  0.00  0.00    +0.000 OA
ATOM     13  H   UNL     1       8.824   7.006  10.420  0.00  0.00    +0.000 HD
ENDBRANCH  10  12
ENDBRANCH   9  10
ENDBRANCH   1   9
BRANCH   1  14
ATOM     14  C   UNL     1       8.491   6.927   5.722  0.00  0.00    +0.000 C 
BRANCH  14  15
ATOM     15  C   UNL     1       7.049   7.043   6.272  0.00  0.00    +0.000 C 
ATOM     16  C   UNL     1       6.025   7.399   5.201  0.00  0.00    +0.000 C 
BRANCH  15  17
ATOM     17  O   UNL     1       6.627   5.834   6.902  0.00  0.00    +0.000 OA
ATOM     18  H   UNL     1       6.129   6.122   7.694  0.00  0.00    +0.000 HD
ENDBRANCH  15  17
ENDBRANCH  14  15
ENDBRANCH   1  14
TORSDOF 7
ENDMDL
MODEL 3
REMARK VINA RESULT:    -5.706      2.625      5.995
REMARK INTER + INTRA:          -8.169
REMARK INTER:                  -7.775
REMARK INTRA:                  -0.395
REMARK UNBOUND:                -0.461
REMARK  Name = 
REMARK  10 active torsions:
REMARK  status: ('A' for Active; 'I' for Inactive)
REMARK    1  A    between atoms: C_1  and  C_2
REMARK    2  A    between atoms: C_5  and  N_8
REMARK    3  A    between atoms: N_8  and  C_9
REMARK    4  A    between atoms: N_8  and  C_13
REMARK    5  A    between atoms: C_9  and  C_10
REMARK    6  A    between atoms: C_10  and  C_11
REMARK    7  A    between atoms: C_10  and  O_12
REMARK    8  A    between atoms: C_13  and  C_14
REMARK    9  A    between atoms: C_14  and  C_15
REMARK   10  A    between atoms: C_14  and  O_16
REMARK                            x       y       z     vdW  Elec       q    Type
REMARK                         _______ _______ _______ _____ _____    ______ ____
ROOT
ATOM      1  N   UNL     1      11.399   8.624   5.538  0.00  0.00    +0.000 N 
ENDROOT
BRANCH   1   6
ATOM      2  C   UNL     1       6.024   7.026   6.911  0.00  0.00    +0.000 C 
ATOM      3  C   UNL     1       7.427   7.418   6.563  0.00  0.00    +0.000 A 
ATOM      4  C   UNL     1       8.235   8.076   7.484  0.00  0.00    +0.000 A 
ATOM      5  C   UNL     1       9.539   8.469   7.141  0.00  0.00    +0.000 A 
ATOM      6  C   UNL     1      10.091   8.247   5.867  0.00  0.00    +0.000 A 
ATOM      7  C   UNL     1       9.247   7.578   4.961  0.00  0.00    +0.000 A 
ATOM      8  C   UNL     1       7.942   7.178   5.292  0.00  0.00    +0.000 A 
ENDBRANCH   1   6
BRANCH   1   9
ATOM      9  C   UNL     1      11.681  10.004   5.075  0.00  0.00    +0.000 C 
BRANCH   9  10
ATOM     10  C   UNL     1      12.933  10.618   5.748  0.00  0.00    +0.000 C 
ATOM     11  C   UNL     1      13.816  11.318   4.721  0.00  0.00    +0.000 C 
BRANCH  10  12
ATOM     12  O   UNL     1      12.562  11.581   6.745  0.00  0.00    +0.000 OA
ATOM     13  H   UNL     1      12.701  12.468   6.373  0.00  0.00    +0.000 HD
ENDBRANCH  10  12
ENDBRANCH   9  10
ENDBRANCH   1   9
BRANCH   1  14
ATOM     14  C   UNL     1      12.414   7.613   5.144  0.00  0.00    +0.000 C 
BRANCH  14  15
ATOM     15  C   UNL     1      12.812   7.735   3.654  0.00  0.00    +0.000 C 
ATOM     16  C   UNL     1      14.077   6.960   3.306  0.00  0.00    +0.000 C 
BRANCH  15  17
ATOM     17  O   UNL     1      11.768   7.286   2.791  0.00  0.00    +0.000 OA
ATOM     18  H   UNL     1      11.002   7.131   3.381  0.00  0.00    +0.000 HD
ENDBRANCH  15  17
ENDBRANCH  14  15
ENDBRANCH   1  14
TORSDOF 7
ENDMDL
MODEL 4
REMARK VINA RESULT:    -5.678      2.929      5.649
REMARK INTER + INTRA:          -8.130
REMARK INTER:                  -7.381
REMARK INTRA:                  -0.750
REMARK UNBOUND:                -0.461
REMARK  Name = 
REMARK  10 active torsions:
REMARK  status: ('A' for Active; 'I' for Inactive)
REMARK    1  A    between atoms: C_1  and  C_2
REMARK    2  A    between atoms: C_5  and  N_8
REMARK    3  A    between atoms: N_8  and  C_9
REMARK    4  A    between atoms: N_8  and  C_13
REMARK    5  A    between atoms: C_9  and  C_10
REMARK    6  A    between atoms: C_10  and  C_11
REMARK    7  A    between atoms: C_10  and  O_12
REMARK    8  A    between atoms: C_13  and  C_14
REMARK    9  A    between atoms: C_14  and  C_15
REMARK   10  A    between atoms: C_14  and  O_16
REMARK                            x       y       z     vdW  Elec       q    Type
REMARK                         _______ _______ _______ _____ _____    ______ ____
ROOT
ATOM      1  N   UNL     1      11.692   8.305   5.131  0.00  0.00    +0.000 N 
ENDROOT
BRANCH   1   6
ATOM      2  C   UNL     1       6.346   6.936   6.827  0.00  0.00    +0.000 C 
ATOM      3  C   UNL     1       7.730   7.314   6.396  0.00  0.00    +0.000 A 
ATOM      4  C   UNL     1       7.967   7.838   5.130  0.00  0.00    +0.000 A 
ATOM      5  C   UNL     1       9.270   8.162   4.720  0.00  0.00    +0.000 A 
ATOM      6  C   UNL     1      10.397   7.961   5.538  0.00  0.00    +0.000 A 
ATOM      7  C   UNL     1      10.121   7.432   6.812  0.00  0.00    +0.000 A 
ATOM      8  C   UNL     1       8.822   7.105   7.235  0.00  0.00    +0.000 A 
ENDBRANCH   1   6
BRANCH   1   9
ATOM      9  C   UNL     1      12.571   7.286   4.507  0.00  0.00    +0.000 C 
BRANCH   9  10
ATOM     10  C   UNL     1      13.160   7.750   3.153  0.00  0.00    +0.000 C 
ATOM     11  C   UNL     1      13.851   6.596   2.435  0.00  0.00    +0.000 C 
BRANCH  10  12
ATOM     12  O   UNL     1      12.132   8.257   2.291  0.00  0.00    +0.000 OA
ATOM     13  H   UNL     1      11.279   8.149   2.743  0.00  0.00    +0.000 HD
ENDBRANCH  10  12
ENDBRANCH   9  10
ENDBRANCH   1   9
BRANCH   1  14
ATOM     14  C   UNL     1      12.406   9.461   5.732  0.00  0.00    +0.000 C 
BRANCH  14  15
ATOM     15  C   UNL     1      11.816  10.815   5.270  0.00  0.00    +0.000 C 
ATOM     16  C   UNL     1      12.630  12.015   5.741  0.00  0.00    +0.000 C 
BRANCH  15  17
ATOM     17  O   UNL     1      11.707  10.886   3.849  0.00  0.00    +0.000 OA
ATOM     18  H   UNL     1      12.526  11.333   3.555  0.00  0.00    +0.000 HD
ENDBRANCH  15  17
ENDBRANCH  14  15
ENDBRANCH   1  14
TORSDOF 7
ENDMDL
MODEL 5
REMARK VINA RESULT:    -5.621      2.912      5.616
REMARK INTER + INTRA:          -8.055
REMARK INTER:                  -7.336
REMARK INTRA:                  -0.719
REMARK UNBOUND:                -0.461
REMARK  Name = 
REMARK  10 active torsions:
REMARK  status: ('A' for Active; 'I' for Inactive)
REMARK    1  A    between atoms: C_1  and  C_2
REMARK    2  A    between atoms: C_5  and  N_8
REMARK    3  A    between atoms: N_8  and  C_9
REMARK    4  A    between atoms: N_8  and  C_13
REMARK    5  A    between atoms: C_9  and  C_10
REMARK    6  A    between atoms: C_10  and  C_11
REMARK    7  A    between atoms: C_10  and  O_12
REMARK    8  A    between atoms: C_13  and  C_14
REMARK    9  A    between atoms: C_14  and  C_15
REMARK   10  A    between atoms: C_14  and  O_16
REMARK                            x       y       z     vdW  Elec       q    Type
REMARK                         _______ _______ _______ _____ _____    ______ ____
ROOT
ATOM      1  N   UNL     1      11.691   8.394   5.160  0.00  0.00    +0.000 N 
ENDROOT
BRANCH   1   6
ATOM      2  C   UNL     1       6.342   7.100   6.903  0.00  0.00    +0.000 C 
ATOM      3  C   UNL     1       7.733   7.412   6.443  0.00  0.00    +0.000 A 
ATOM      4  C   UNL     1       8.812   7.318   7.316  0.00  0.00    +0.000 A 
ATOM      5  C   UNL     1      10.110   7.640   6.888  0.00  0.00    +0.000 A 
ATOM      6  C   UNL     1      10.392   8.092   5.586  0.00  0.00    +0.000 A 
ATOM      7  C   UNL     1       9.278   8.174   4.730  0.00  0.00    +0.000 A 
ATOM      8  C   UNL     1       7.975   7.852   5.145  0.00  0.00    +0.000 A 
ENDBRANCH   1   6
BRANCH   1   9
ATOM      9  C   UNL     1      12.526   7.347   4.522  0.00  0.00    +0.000 C 
BRANCH   9  10
ATOM     10  C   UNL     1      13.091   7.785   3.148  0.00  0.00    +0.000 C 
ATOM     11  C   UNL     1      13.818   6.633   2.466  0.00  0.00    +0.000 C 
BRANCH  10  12
ATOM     12  O   UNL     1      12.040   8.225   2.277  0.00  0.00    +0.000 OA
ATOM     13  H   UNL     1      11.355   7.537   2.258  0.00  0.00    +0.000 HD
ENDBRANCH  10  12
ENDBRANCH   9  10
ENDBRANCH   1   9
BRANCH   1  14
ATOM     14  C   UNL     1      12.452   9.524   5.752  0.00  0.00    +0.000 C 
BRANCH  14  15
ATOM     15  C   UNL     1      11.932  10.898   5.264  0.00  0.00    +0.000 C 
ATOM     16  C   UNL     1      12.791  12.065   5.734  0.00  0.00    +0.000 C 
BRANCH  15  17
ATOM     17  O   UNL     1      11.851  10.954   3.840  0.00  0.00    +0.000 OA
ATOM     18  H   UNL     1      11.145  11.606   3.653  0.00  0.00    +0.000 HD
ENDBRANCH  15  17
ENDBRANCH  14  15
ENDBRANCH   1  14
TORSDOF 7
ENDMDL
MODEL 6
REMARK VINA RESULT:    -5.551      1.798      2.107
REMARK INTER + INTRA:          -7.960
REMARK INTER:                  -7.518
REMARK INTRA:                  -0.442
REMARK UNBOUND:                -0.461
REMARK  Name = 
REMARK  10 active torsions:
REMARK  status: ('A' for Active; 'I' for Inactive)
REMARK    1  A    between atoms: C_1  and  C_2
REMARK    2  A    between atoms: C_5  and  N_8
REMARK    3  A    between atoms: N_8  and  C_9
REMARK    4  A    between atoms: N_8  and  C_13
REMARK    5  A    between atoms: C_9  and  C_10
REMARK    6  A    between atoms: C_10  and  C_11
REMARK    7  A    between atoms: C_10  and  O_12
REMARK    8  A    between atoms: C_13  and  C_14
REMARK    9  A    between atoms: C_14  and  C_15
REMARK   10  A    between atoms: C_14  and  O_16
REMARK                            x       y       z     vdW  Elec       q    Type
REMARK                         _______ _______ _______ _____ _____    ______ ____
ROOT
ATOM      1  N   UNL     1       9.548   7.524   5.236  0.00  0.00    +0.000 N 
ENDROOT
BRANCH   1   6
ATOM      2  C   UNL     1      13.624   9.596   1.711  0.00  0.00    +0.000 C 
ATOM      3  C   UNL     1      12.575   9.073   2.645  0.00  0.00    +0.000 A 
ATOM      4  C   UNL     1      12.792   7.916   3.386  0.00  0.00    +0.000 A 
ATOM      5  C   UNL     1      11.794   7.413   4.237  0.00  0.00    +0.000 A 
ATOM      6  C   UNL     1      10.532   8.020   4.371  0.00  0.00    +0.000 A 
ATOM      7  C   UNL     1      10.349   9.188   3.608  0.00  0.00    +0.000 A 
ATOM      8  C   UNL     1      11.339   9.702   2.755  0.00  0.00    +0.000 A 
ENDBRANCH   1   6
BRANCH   1   9
ATOM      9  C   UNL     1       8.228   8.193   5.322  0.00  0.00    +0.000 C 
BRANCH   9  10
ATOM     10  C   UNL     1       7.047   7.192   5.343  0.00  0.00    +0.000 C 
ATOM     11  C   UNL     1       6.409   7.131   6.726  0.00  0.00    +0.000 C 
BRANCH  10  12
ATOM     12  O   UNL     1       6.034   7.571   4.403  0.00  0.00    +0.000 OA
ATOM     13  H   UNL     1       5.168   7.373   4.796  0.00  0.00    +0.000 HD
ENDBRANCH  10  12
ENDBRANCH   9  10
ENDBRANCH   1   9
BRANCH   1  14
ATOM     14  C   UNL     1       9.908   6.699   6.418  0.00  0.00    +0.000 C 
BRANCH  14  15
ATOM     15  C   UNL     1      10.321   7.566   7.632  0.00  0.00    +0.000 C 
ATOM     16  C   UNL     1       9.829   7.008   8.962  0.00  0.00    +0.000 C 
BRANCH  15  17
ATOM     17  O   UNL     1      11.737   7.719   7.713  0.00  0.00    +0.000 OA
ATOM     18  H   UNL     1      11.969   7.444   8.623  0.00  0.00    +0.000 HD
ENDBRANCH  15  17
ENDBRANCH  14  15
ENDBRANCH   1  14
TORSDOF 7
ENDMDL
MODEL 7
REMARK VINA RESULT:    -5.440      2.824      5.930
REMARK INTER + INTRA:          -7.809
REMARK INTER:                  -7.171
REMARK INTRA:                  -0.638
REMARK UNBOUND:                -0.461
REMARK  Name = 
REMARK  10 active torsions:
REMARK  status: ('A' for Active; 'I' for Inactive)
REMARK    1  A    between atoms: C_1  and  C_2
REMARK    2  A    between atoms: C_5  and  N_8
REMARK    3  A    between atoms: N_8  and  C_9
REMARK    4  A    between atoms: N_8  and  C_13
REMARK    5  A    between atoms: C_9  and  C_10
REMARK    6  A    between atoms: C_10  and  C_11
REMARK    7  A    between atoms: C_10  and  O_12
REMARK    8  A    between atoms: C_13  and  C_14
REMARK    9  A    between atoms: C_14  and  C_15
REMARK   10  A    between atoms: C_14  and  O_16
REMARK                            x       y       z     vdW  Elec       q    Type
REMARK                         _______ _______ _______ _____ _____    ______ ____
ROOT
ATOM      1  N   UNL     1      11.922   8.125   5.507  0.00  0.00    +0.000 N 
ENDROOT
BRANCH   1   6
ATOM      2  C   UNL     1       6.407   7.383   7.045  0.00  0.00    +0.000 C 
ATOM      3  C   UNL     1       7.834   7.600   6.644  0.00  0.00    +0.000 A 
ATOM      4  C   UNL     1       8.223   7.509   5.312  0.00  0.00    +0.000 A 
ATOM      5  C   UNL     1       9.567   7.684   4.945  0.00  0.00    +0.000 A 
ATOM      6  C   UNL     1      10.586   7.932   5.882  0.00  0.00    +0.000 A 
ATOM      7  C   UNL     1      10.156   8.020   7.219  0.00  0.00    +0.000 A 
ATOM      8  C   UNL     1       8.815   7.849   7.599  0.00  0.00    +0.000 A 
ENDBRANCH   1   6
BRANCH   1   9
ATOM      9  C   UNL     1      12.537   9.470   5.614  0.00  0.00    +0.000 C 
BRANCH   9  10
ATOM     10  C   UNL     1      11.546  10.611   5.281  0.00  0.00    +0.000 C 
ATOM     11  C   UNL     1      11.808  11.833   6.153  0.00  0.00    +0.000 C 
BRANCH  10  12
ATOM     12  O   UNL     1      11.664  11.012   3.909  0.00  0.00    +0.000 OA
ATOM     13  H   UNL     1      11.448  11.958   3.851  0.00  0.00    +0.000 HD
ENDBRANCH  10  12
ENDBRANCH   9  10
ENDBRANCH   1   9
BRANCH   1  14
ATOM     14  C   UNL     1      12.593   7.204   4.554  0.00  0.00    +0.000 C 
BRANCH  14  15
ATOM     15  C   UNL     1      13.043   7.928   3.262  0.00  0.00    +0.000 C 
ATOM     16  C   UNL     1      14.097   7.155   2.478  0.00  0.00    +0.000 C 
BRANCH  15  17
ATOM     17  O   UNL     1      11.942   8.183   2.390  0.00  0.00    +0.000 OA
ATOM     18  H   UNL     1      11.285   8.652   2.943  0.00  0.00    +0.000 HD
ENDBRANCH  15  17
ENDBRANCH  14  15
ENDBRANCH   1  14
TORSDOF 7
ENDMDL
MODEL 8
REMARK VINA RESULT:    -5.386      3.626      6.062
REMARK INTER + INTRA:          -7.736
REMARK INTER:                  -7.300
REMARK INTRA:                  -0.436
REMARK UNBOUND:                -0.461
REMARK  Name = 
REMARK  10 active torsions:
REMARK  status: ('A' for Active; 'I' for Inactive)
REMARK    1  A    between atoms: C_1  and  C_2
REMARK    2  A    between atoms: C_5  and  N_8
REMARK    3  A    between atoms: N_8  and  C_9
REMARK    4  A    between atoms: N_8  and  C_13
REMARK    5  A    between atoms: C_9  and  C_10
REMARK    6  A    between atoms: C_10  and  C_11
REMARK    7  A    between atoms: C_10  and  O_12
REMARK    8  A    between atoms: C_13  and  C_14
REMARK    9  A    between atoms: C_14  and  C_15
REMARK   10  A    between atoms: C_14  and  O_16
REMARK                            x       y       z     vdW  Elec       q    Type
REMARK                         _______ _______ _______ _____ _____    ______ ____
ROOT
ATOM      1  N   UNL     1      11.930   9.078   3.927  0.00  0.00    +0.000 N 
ENDROOT
BRANCH   1   6
ATOM      2  C   UNL     1       7.918   8.129   7.968  0.00  0.00    +0.000 C 
ATOM      3  C   UNL     1       8.970   8.353   6.925  0.00  0.00    +0.000 A 
ATOM      4  C   UNL     1      10.142   9.038   7.228  0.00  0.00    +0.000 A 
ATOM      5  C   UNL     1      11.111   9.272   6.239  0.00  0.00    +0.000 A 
ATOM      6  C   UNL     1      10.951   8.859   4.904  0.00  0.00    +0.000 A 
ATOM      7  C   UNL     1       9.755   8.168   4.634  0.00  0.00    +0.000 A 
ATOM      8  C   UNL     1       8.779   7.926   5.614  0.00  0.00    +0.000 A 
ENDBRANCH   1   6
BRANCH   1   9
ATOM      9  C   UNL     1      12.274  10.461   3.516  0.00  0.00    +0.000 C 
BRANCH   9  10
ATOM     10  C   UNL     1      11.887  10.765   2.049  0.00  0.00    +0.000 C 
ATOM     11  C   UNL     1      10.406  11.106   1.936  0.00  0.00    +0.000 C 
BRANCH  10  12
ATOM     12  O   UNL     1      12.639  11.874   1.537  0.00  0.00    +0.000 OA
ATOM     13  H   UNL     1      13.458  11.946   2.053  0.00  0.00    +0.000 HD
ENDBRANCH  10  12
ENDBRANCH   9  10
ENDBRANCH   1   9
BRANCH   1  14
ATOM     14  C   UNL     1      12.275   8.028   2.934  0.00  0.00    +0.000 C 
BRANCH  14  15
ATOM     15  C   UNL     1      13.568   7.266   3.315  0.00  0.00    +0.000 C 
ATOM     16  C   UNL     1      13.988   6.240   2.270  0.00  0.00    +0.000 C 
BRANCH  15  17
ATOM     17  O   UNL     1      14.662   8.157   3.525  0.00  0.00    +0.000 OA
ATOM     18  H   UNL     1      14.721   8.683   2.702  0.00  0.00    +0.000 HD
ENDBRANCH  15  17
ENDBRANCH  14  15
ENDBRANCH   1  14
TORSDOF 7
ENDMDL
MODEL 9
REMARK VINA RESULT:    -5.311      3.696      6.185
REMARK INTER + INTRA:          -7.635
REMARK INTER:                  -6.922
REMARK INTRA:                  -0.713
REMARK UNBOUND:                -0.461
REMARK  Name = 
REMARK  10 active torsions:
REMARK  status: ('A' for Active; 'I' for Inactive)
REMARK    1  A    between atoms: C_1  and  C_2
REMARK    2  A    between atoms: C_5  and  N_8
REMARK    3  A    between atoms: N_8  and  C_9
REMARK    4  A    between atoms: N_8  and  C_13
REMARK    5  A    between atoms: C_9  and  C_10
REMARK    6  A    between atoms: C_10  and  C_11
REMARK    7  A    between atoms: C_10  and  O_12
REMARK    8  A    between atoms: C_13  and  C_14
REMARK    9  A    between atoms: C_14  and  C_15
REMARK   10  A    between atoms: C_14  and  O_16
REMARK                            x       y       z     vdW  Elec       q    Type
REMARK                         _______ _______ _______ _____ _____    ______ ____
ROOT
ATOM      1  N   UNL     1      12.320   9.712   4.054  0.00  0.00    +0.000 N 
ENDROOT
BRANCH   1   6
ATOM      2  C   UNL     1       7.980   7.650   7.254  0.00  0.00    +0.000 C 
ATOM      3  C   UNL     1       9.093   8.206   6.421  0.00  0.00    +0.000 A 
ATOM      4  C   UNL     1       9.123   8.009   5.044  0.00  0.00    +0.000 A 
ATOM      5  C   UNL     1      10.185   8.508   4.273  0.00  0.00    +0.000 A 
ATOM      6  C   UNL     1      11.274   9.201   4.833  0.00  0.00    +0.000 A 
ATOM      7  C   UNL     1      11.209   9.384   6.226  0.00  0.00    +0.000 A 
ATOM      8  C   UNL     1      10.152   8.892   7.010  0.00  0.00    +0.000 A 
ENDBRANCH   1   6
BRANCH   1   9
ATOM      9  C   UNL     1      13.592   8.961   3.933  0.00  0.00    +0.000 C 
BRANCH   9  10
ATOM     10  C   UNL     1      13.706   8.185   2.598  0.00  0.00    +0.000 C 
ATOM     11  C   UNL     1      13.751   6.681   2.844  0.00  0.00    +0.000 C 
BRANCH  10  12
ATOM     12  O   UNL     1      12.588   8.463   1.744  0.00  0.00    +0.000 OA
ATOM     13  H   UNL     1      12.027   9.121   2.187  0.00  0.00    +0.000 HD
ENDBRANCH  10  12
ENDBRANCH   9  10
ENDBRANCH   1   9
BRANCH   1  14
ATOM     14  C   UNL     1      12.423  11.165   3.764  0.00  0.00    +0.000 C 
BRANCH  14  15
ATOM     15  C   UNL     1      11.533  11.587   2.570  0.00  0.00    +0.000 C 
ATOM     16  C   UNL     1      11.086  13.042   2.640  0.00  0.00    +0.000 C 
BRANCH  15  17
ATOM     17  O   UNL     1      12.196  11.389   1.322  0.00  0.00    +0.000 OA
ATOM     18  H   UNL     1      11.663  11.887   0.671  0.00  0.00    +0.000 HD
ENDBRANCH  15  17
ENDBRANCH  14  15
ENDBRANCH   1  14
TORSDOF 7
ENDMDL
