MODEL 1
REMARK VINA RESULT:    -3.531      0.000      0.000
REMARK INTER + INTRA:          -3.886
REMARK INTER:                  -3.841
REMARK INTRA:                  -0.045
REMARK UNBOUND:                -0.045
REMARK  Name = 
REMARK  3 active torsions:
REMARK  status: ('A' for Active; 'I' for Inactive)
REMARK    1  A    between atoms: C_1  and  O_2
REMARK    2  A    between atoms: O_2  and  C_3
REMARK    3  A    between atoms: C_8  and  O_9
REMARK                            x       y       z     vdW  Elec       q    Type
REMARK                         _______ _______ _______ _____ _____    ______ ____
ROOT
ATOM      1  C   UNL     1      -3.942  14.784  -1.663  0.00  0.00    +0.000 A 
ATOM      2  C   UNL     1      -4.679  15.959  -1.523  0.00  0.00    +0.000 A 
ATOM      3  C   UNL     1      -4.239  16.961  -0.649  0.00  0.00    +0.000 A 
ATOM      4  C   UNL     1      -3.065  16.792   0.088  0.00  0.00    +0.000 A 
ATOM      5  C   UNL     1      -2.323  15.621  -0.047  0.00  0.00    +0.000 A 
ATOM      6  C   UNL     1      -2.767  14.632  -0.916  0.00  0.00    +0.000 A 
ENDROOT
BRANCH   1   8
ATOM      7  C   UNL     1      -4.723  14.043  -3.781  0.00  0.00    +0.000 C 
ATOM      8  O   UNL     1      -4.252  13.724  -2.477  0.00  0.00    +0.000 OA
ENDBRANCH   1   8
BRANCH   6   9
ATOM      9  O   UNL     1      -2.021  13.490  -1.032  0.00  0.00    +0.000 OA
ATOM     10  H   UNL     1      -1.624  13.541  -1.922  0.00  0.00    +0.000 HD
ENDBRANCH   6   9
TORSDOF 2
ENDMDL
MODEL 2
REMARK VINA RESULT:    -3.417      1.057      2.807
REMARK INTER + INTRA:          -3.761
REMARK INTER:                  -3.709
REMARK INTRA:                  -0.052
REMARK UNBOUND:                -0.045
REMARK  Name = 
REMARK  3 active torsions:
REMARK  status: ('A' for Active; 'I' for Inactive)
REMARK    1  A    between atoms: C_1  and  O_2
REMARK    2  A    between atoms: O_2  and  C_3
REMARK    3  A    between atoms: C_8  and  O_9
REMARK                            x       y       z     vdW  Elec       q    Type
REMARK                         _______ _______ _______ _____ _____    ______ ____
ROOT
ATOM      1  C   UNL     1      -2.441  14.961  -0.666  0.00  0.00    +0.000 A 
ATOM      2  C   UNL     1      -2.436  16.154   0.054  0.00  0.00    +0.000 A 
ATOM      3  C   UNL     1      -3.539  17.015  -0.009  0.00  0.00    +0.000 A 
ATOM      4  C   UNL     1      -4.649  16.687  -0.791  0.00  0.00    +0.000 A 
ATOM      5  C   UNL     1      -4.662  15.495  -1.513  0.00  0.00    +0.000 A 
ATOM      6  C   UNL     1      -3.563  14.648  -1.444  0.00  0.00    +0.000 A 
ENDROOT
BRANCH   1   8
ATOM      7  C   UNL     1      -1.075  13.441   0.546  0.00  0.00    +0.000 C 
ATOM      8  O   UNL     1      -1.436  14.028  -0.698  0.00  0.00    +0.000 OA
ENDBRANCH   1   8
BRANCH   6   9
ATOM      9  O   UNL     1      -3.599  13.483  -2.163  0.00  0.00    +0.000 OA
ATOM     10  H   UNL     1      -3.489  12.777  -1.497  0.00  0.00    +0.000 HD
ENDBRANCH   6   9
TORSDOF 2
ENDMDL
MODEL 3
REMARK VINA RESULT:    -3.372     17.297     17.914
REMARK INTER + INTRA:          -3.713
REMARK INTER:                  -3.672
REMARK INTRA:                  -0.040
REMARK UNBOUND:                -0.045
REMARK  Name = 
REMARK  3 active torsions:
REMARK  status: ('A' for Active; 'I' for Inactive)
REMARK    1  A    between atoms: C_1  and  O_2
REMARK    2  A    between atoms: O_2  and  C_3
REMARK    3  A    between atoms: C_8  and  O_9
REMARK                            x       y       z     vdW  Elec       q    Type
REMARK                         _______ _______ _______ _____ _____    ______ ____
ROOT
ATOM      1  C   UNL     1      12.457  20.303  -7.783  0.00  0.00    +0.000 A 
ATOM      2  C   UNL     1      12.456  20.710  -6.449  0.00  0.00    +0.000 A 
ATOM      3  C   UNL     1      11.586  21.723  -6.027  0.00  0.00    +0.000 A 
ATOM      4  C   UNL     1      10.716  22.333  -6.934  0.00  0.00    +0.000 A 
ATOM      5  C   UNL     1      10.711  21.931  -8.268  0.00  0.00    +0.000 A 
ATOM      6  C   UNL     1      11.578  20.926  -8.677  0.00  0.00    +0.000 A 
ENDROOT
BRANCH   1   8
ATOM      7  C   UNL     1      13.668  18.284  -7.463  0.00  0.00    +0.000 C 
ATOM      8  O   UNL     1      13.251  19.329  -8.333  0.00  0.00    +0.000 OA
ENDBRANCH   1   8
BRANCH   6   9
ATOM      9  O   UNL     1      11.554  20.549  -9.994  0.00  0.00    +0.000 OA
ATOM     10  H   UNL     1      12.369  20.026 -10.117  0.00  0.00    +0.000 HD
ENDBRANCH   6   9
TORSDOF 2
ENDMDL
MODEL 4
REMARK VINA RESULT:    -3.351      1.698      4.345
REMARK INTER + INTRA:          -3.690
REMARK INTER:                  -3.660
REMARK INTRA:                  -0.030
REMARK UNBOUND:                -0.045
REMARK  Name = 
REMARK  3 active torsions:
REMARK  status: ('A' for Active; 'I' for Inactive)
REMARK    1  A    between atoms: C_1  and  O_2
REMARK    2  A    between atoms: O_2  and  C_3
REMARK    3  A    between atoms: C_8  and  O_9
REMARK                            x       y       z     vdW  Elec       q    Type
REMARK                         _______ _______ _______ _____ _____    ______ ____
ROOT
ATOM      1  C   UNL     1      -4.834  14.035  -2.926  0.00  0.00    +0.000 A 
ATOM      2  C   UNL     1      -6.046  13.357  -2.797  0.00  0.00    +0.000 A 
ATOM      3  C   UNL     1      -6.911  13.256  -3.894  0.00  0.00    +0.000 A 
ATOM      4  C   UNL     1      -6.570  13.832  -5.119  0.00  0.00    +0.000 A 
ATOM      5  C   UNL     1      -5.362  14.511  -5.256  0.00  0.00    +0.000 A 
ATOM      6  C   UNL     1      -4.510  14.606  -4.162  0.00  0.00    +0.000 A 
ENDROOT
BRANCH   1   8
ATOM      7  C   UNL     1      -4.169  15.221  -0.977  0.00  0.00    +0.000 C 
ATOM      8  O   UNL     1      -3.895  14.211  -1.941  0.00  0.00    +0.000 OA
ENDBRANCH   1   8
BRANCH   6   9
ATOM      9  O   UNL     1      -3.327  15.278  -4.321  0.00  0.00    +0.000 OA
ATOM     10  H   UNL     1      -3.114  15.618  -3.431  0.00  0.00    +0.000 HD
ENDBRANCH   6   9
TORSDOF 2
ENDMDL
MODEL 5
REMARK VINA RESULT:    -3.311      3.296      5.264
REMARK INTER + INTRA:          -3.647
REMARK INTER:                  -3.600
REMARK INTRA:                  -0.047
REMARK UNBOUND:                -0.045
REMARK  Name = 
REMARK  3 active torsions:
REMARK  status: ('A' for Active; 'I' for Inactive)
REMARK    1  A    between atoms: C_1  and  O_2
REMARK    2  A    between atoms: O_2  and  C_3
REMARK    3  A    between atoms: C_8  and  O_9
REMARK                            x       y       z     vdW  Elec       q    Type
REMARK                         _______ _______ _______ _____ _____    ______ ____
ROOT
ATOM      1  C   UNL     1      -4.673  14.835  -5.341  0.00  0.00    +0.000 A 
ATOM      2  C   UNL     1      -5.947  14.913  -5.901  0.00  0.00    +0.000 A 
ATOM      3  C   UNL     1      -6.177  15.744  -7.005  0.00  0.00    +0.000 A 
ATOM      4  C   UNL     1      -5.137  16.499  -7.551  0.00  0.00    +0.000 A 
ATOM      5  C   UNL     1      -3.861  16.426  -6.997  0.00  0.00    +0.000 A 
ATOM      6  C   UNL     1      -3.643  15.599  -5.903  0.00  0.00    +0.000 A 
ENDROOT
BRANCH   1   8
ATOM      7  C   UNL     1      -5.158  14.120  -3.128  0.00  0.00    +0.000 C 
ATOM      8  O   UNL     1      -4.305  14.067  -4.265  0.00  0.00    +0.000 OA
ENDBRANCH   1   8
BRANCH   6   9
ATOM      9  O   UNL     1      -2.380  15.545  -5.376  0.00  0.00    +0.000 OA
ATOM     10  H   UNL     1      -1.789  15.757  -6.123  0.00  0.00    +0.000 HD
ENDBRANCH   6   9
TORSDOF 2
ENDMDL
MODEL 6
REMARK VINA RESULT:    -3.302     17.447     17.919
REMARK INTER + INTRA:          -3.637
REMARK INTER:                  -3.599
REMARK INTRA:                  -0.038
REMARK UNBOUND:                -0.045
REMARK  Name = 
REMARK  3 active torsions:
REMARK  status: ('A' for Active; 'I' for Inactive)
REMARK    1  A    between atoms: C_1  and  O_2
REMARK    2  A    between atoms: O_2  and  C_3
REMARK    3  A    between atoms: C_8  and  O_9
REMARK                            x       y       z     vdW  Elec       q    Type
REMARK                         _______ _______ _______ _____ _____    ______ ____
ROOT
ATOM      1  C   UNL     1      11.876  20.829  -8.775  0.00  0.00    +0.000 A 
ATOM      2  C   UNL     1      11.087  21.784  -8.135  0.00  0.00    +0.000 A 
ATOM      3  C   UNL     1      11.088  21.870  -6.737  0.00  0.00    +0.000 A 
ATOM      4  C   UNL     1      11.875  21.004  -5.976  0.00  0.00    +0.000 A 
ATOM      5  C   UNL     1      12.666  20.047  -6.607  0.00  0.00    +0.000 A 
ATOM      6  C   UNL     1      12.658  19.969  -7.994  0.00  0.00    +0.000 A 
ENDROOT
BRANCH   1   8
ATOM      7  C   UNL     1      11.028  21.321 -10.940  0.00  0.00    +0.000 C 
ATOM      8  O   UNL     1      11.972  20.631 -10.129  0.00  0.00    +0.000 OA
ENDBRANCH   1   8
BRANCH   6   9
ATOM      9  O   UNL     1      13.444  19.020  -8.593  0.00  0.00    +0.000 OA
ATOM     10  H   UNL     1      14.294  19.471  -8.759  0.00  0.00    +0.000 HD
ENDBRANCH   6   9
TORSDOF 2
ENDMDL
MODEL 7
REMARK VINA RESULT:    -3.281      1.789      2.694
REMARK INTER + INTRA:          -3.614
REMARK INTER:                  -3.562
REMARK INTRA:                  -0.052
REMARK UNBOUND:                -0.045
REMARK  Name = 
REMARK  3 active torsions:
REMARK  status: ('A' for Active; 'I' for Inactive)
REMARK    1  A    between atoms: C_1  and  O_2
REMARK    2  A    between atoms: O_2  and  C_3
REMARK    3  A    between atoms: C_8  and  O_9
REMARK                            x       y       z     vdW  Elec       q    Type
REMARK                         _______ _______ _______ _____ _____    ______ ____
ROOT
ATOM      1  C   UNL     1      -4.036  15.682  -0.259  0.00  0.00    +0.000 A 
ATOM      2  C   UNL     1      -3.869  15.631   1.125  0.00  0.00    +0.000 A 
ATOM      3  C   UNL     1      -2.821  14.884   1.676  0.00  0.00    +0.000 A 
ATOM      4  C   UNL     1      -1.939  14.185   0.850  0.00  0.00    +0.000 A 
ATOM      5  C   UNL     1      -2.099  14.232  -0.533  0.00  0.00    +0.000 A 
ATOM      6  C   UNL     1      -3.141  14.976  -1.071  0.00  0.00    +0.000 A 
ENDROOT
BRANCH   1   8
ATOM      7  C   UNL     1      -6.357  15.983  -0.673  0.00  0.00    +0.000 C 
ATOM      8  O   UNL     1      -5.013  16.370  -0.933  0.00  0.00    +0.000 OA
ENDBRANCH   1   8
BRANCH   6   9
ATOM      9  O   UNL     1      -3.278  15.006  -2.433  0.00  0.00    +0.000 OA
ATOM     10  H   UNL     1      -3.863  15.767  -2.607  0.00  0.00    +0.000 HD
ENDBRANCH   6   9
TORSDOF 2
ENDMDL
MODEL 8
REMARK VINA RESULT:    -3.265      2.021      4.853
REMARK INTER + INTRA:          -3.597
REMARK INTER:                  -3.547
REMARK INTRA:                  -0.050
REMARK UNBOUND:                -0.045
REMARK  Name = 
REMARK  3 active torsions:
REMARK  status: ('A' for Active; 'I' for Inactive)
REMARK    1  A    between atoms: C_1  and  O_2
REMARK    2  A    between atoms: O_2  and  C_3
REMARK    3  A    between atoms: C_8  and  O_9
REMARK                            x       y       z     vdW  Elec       q    Type
REMARK                         _______ _______ _______ _____ _____    ______ ____
ROOT
ATOM      1  C   UNL     1      -5.239  13.863  -3.576  0.00  0.00    +0.000 A 
ATOM      2  C   UNL     1      -4.910  14.698  -4.643  0.00  0.00    +0.000 A 
ATOM      3  C   UNL     1      -5.816  14.879  -5.695  0.00  0.00    +0.000 A 
ATOM      4  C   UNL     1      -7.051  14.227  -5.686  0.00  0.00    +0.000 A 
ATOM      5  C   UNL     1      -7.387  13.392  -4.623  0.00  0.00    +0.000 A 
ATOM      6  C   UNL     1      -6.482  13.218  -3.584  0.00  0.00    +0.000 A 
ENDROOT
BRANCH   1   8
ATOM      7  C   UNL     1      -3.964  14.717  -1.762  0.00  0.00    +0.000 C 
ATOM      8  O   UNL     1      -4.453  13.594  -2.484  0.00  0.00    +0.000 OA
ENDBRANCH   1   8
BRANCH   6   9
ATOM      9  O   UNL     1      -6.835  12.392  -2.550  0.00  0.00    +0.000 OA
ATOM     10  H   UNL     1      -6.678  11.489  -2.889  0.00  0.00    +0.000 HD
ENDBRANCH   6   9
TORSDOF 2
ENDMDL
MODEL 9
REMARK VINA RESULT:    -3.207      4.499      5.796
REMARK INTER + INTRA:          -3.533
REMARK INTER:                  -3.481
REMARK INTRA:                  -0.053
REMARK UNBOUND:                -0.045
REMARK  Name = 
REMARK  3 active torsions:
REMARK  status: ('A' for Active; 'I' for Inactive)
REMARK    1  A    between atoms: C_1  and  O_2
REMARK    2  A    between atoms: O_2  and  C_3
REMARK    3  A    between atoms: C_8  and  O_9
REMARK                            x       y       z     vdW  Elec       q    Type
REMARK                         _______ _______ _______ _____ _____    ______ ____
ROOT
ATOM      1  C   UNL     1      -4.181  16.315  -6.843  0.00  0.00    +0.000 A 
ATOM      2  C   UNL     1      -5.529  16.194  -7.178  0.00  0.00    +0.000 A 
ATOM      3  C   UNL     1      -6.339  15.279  -6.495  0.00  0.00    +0.000 A 
ATOM      4  C   UNL     1      -5.807  14.482  -5.479  0.00  0.00    +0.000 A 
ATOM      5  C   UNL     1      -4.462  14.598  -5.139  0.00  0.00    +0.000 A 
ATOM      6  C   UNL     1      -3.665  15.508  -5.822  0.00  0.00    +0.000 A 
ENDROOT
BRANCH   1   8
ATOM      7  C   UNL     1      -2.942  16.905  -8.784  0.00  0.00    +0.000 C 
ATOM      8  O   UNL     1      -3.274  17.165  -7.425  0.00  0.00    +0.000 OA
ENDBRANCH   1   8
BRANCH   6   9
ATOM      9  O   UNL     1      -2.345  15.604  -5.470  0.00  0.00    +0.000 OA
ATOM     10  H   UNL     1      -2.294  15.198  -4.583  0.00  0.00    +0.000 HD
ENDBRANCH   6   9
TORSDOF 2
ENDMDL
