MODEL 1
REMARK VINA RESULT:    -4.954      0.000      0.000
REMARK INTER + INTRA:          -5.428
REMARK INTER:                  -5.388
REMARK INTRA:                  -0.039
REMARK UNBOUND:                -0.039
REMARK  Name = 
REMARK  3 active torsions:
REMARK  status: ('A' for Active; 'I' for Inactive)
REMARK    1  A    between atoms: C_1  and  O_2
REMARK    2  A    between atoms: O_2  and  C_3
REMARK    3  A    between atoms: C_8  and  O_9
REMARK                            x       y       z     vdW  Elec       q    Type
REMARK                         _______ _______ _______ _____ _____    ______ ____
ROOT
ATOM      1  C   UNL     1      12.595   0.935   6.257  0.00  0.00    +0.000 A 
ATOM      2  C   UNL     1      12.577   0.841   7.648  0.00  0.00    +0.000 A 
ATOM      3  C   UNL     1      11.413   0.423   8.306  0.00  0.00    +0.000 A 
ATOM      4  C   UNL     1      10.266   0.099   7.579  0.00  0.00    +0.000 A 
ATOM      5  C   UNL     1      10.277   0.190   6.189  0.00  0.00    +0.000 A 
ATOM      6  C   UNL     1      11.435   0.605   5.545  0.00  0.00    +0.000 A 
ENDROOT
BRANCH   1   8
ATOM      7  C   UNL     1      13.941   2.722   5.456  0.00  0.00    +0.000 C 
ATOM      8  O   UNL     1      13.658   1.328   5.484  0.00  0.00    +0.000 OA
ENDBRANCH   1   8
BRANCH   6   9
ATOM      9  O   UNL     1      11.420   0.687   4.178  0.00  0.00    +0.000 OA
ATOM     10  H   UNL     1      10.973   1.533   3.984  0.00  0.00    +0.000 HD
ENDBRANCH   6   9
TORSDOF 2
ENDMDL
MODEL 2
REMARK VINA RESULT:    -4.760      2.144      3.368
REMARK INTER + INTRA:          -5.217
REMARK INTER:                  -5.166
REMARK INTRA:                  -0.051
REMARK UNBOUND:                -0.039
REMARK  Name = 
REMARK  3 active torsions:
REMARK  status: ('A' for Active; 'I' for Inactive)
REMARK    1  A    between atoms: C_1  and  O_2
REMARK    2  A    between atoms: O_2  and  C_3
REMARK    3  A    between atoms: C_8  and  O_9
REMARK                            x       y       z     vdW  Elec       q    Type
REMARK                         _______ _______ _______ _____ _____    ______ ____
ROOT
ATOM      1  C   UNL     1      11.066   0.415   7.724  0.00  0.00    +0.000 A 
ATOM      2  C   UNL     1      12.447   0.599   7.762  0.00  0.00    +0.000 A 
ATOM      3  C   UNL     1      13.154   0.839   6.577  0.00  0.00    +0.000 A 
ATOM      4  C   UNL     1      12.485   0.896   5.353  0.00  0.00    +0.000 A 
ATOM      5  C   UNL     1      11.105   0.714   5.307  0.00  0.00    +0.000 A 
ATOM      6  C   UNL     1      10.412   0.476   6.487  0.00  0.00    +0.000 A 
ENDROOT
BRANCH   1   8
ATOM      7  C   UNL     1      10.559  -0.973   9.585  0.00  0.00    +0.000 C 
ATOM      8  O   UNL     1      10.250   0.172   8.799  0.00  0.00    +0.000 OA
ENDBRANCH   1   8
BRANCH   6   9
ATOM      9  O   UNL     1       9.056   0.300   6.416  0.00  0.00    +0.000 OA
ATOM     10  H   UNL     1       8.854  -0.359   7.107  0.00  0.00    +0.000 HD
ENDBRANCH   6   9
TORSDOF 2
ENDMDL
MODEL 3
REMARK VINA RESULT:    -4.689      1.760      2.953
REMARK INTER + INTRA:          -5.140
REMARK INTER:                  -5.101
REMARK INTRA:                  -0.039
REMARK UNBOUND:                -0.039
REMARK  Name = 
REMARK  3 active torsions:
REMARK  status: ('A' for Active; 'I' for Inactive)
REMARK    1  A    between atoms: C_1  and  O_2
REMARK    2  A    between atoms: O_2  and  C_3
REMARK    3  A    between atoms: C_8  and  O_9
REMARK                            x       y       z     vdW  Elec       q    Type
REMARK                         _______ _______ _______ _____ _____    ______ ____
ROOT
ATOM      1  C   UNL     1      11.342   1.436   6.219  0.00  0.00    +0.000 A 
ATOM      2  C   UNL     1      11.522   0.507   7.242  0.00  0.00    +0.000 A 
ATOM      3  C   UNL     1      12.150   0.891   8.434  0.00  0.00    +0.000 A 
ATOM      4  C   UNL     1      12.599   2.202   8.606  0.00  0.00    +0.000 A 
ATOM      5  C   UNL     1      12.422   3.136   7.588  0.00  0.00    +0.000 A 
ATOM      6  C   UNL     1      11.799   2.746   6.410  0.00  0.00    +0.000 A 
ENDROOT
BRANCH   1   8
ATOM      7  C   UNL     1       9.920   0.046   4.917  0.00  0.00    +0.000 C 
ATOM      8  O   UNL     1      10.748   1.200   5.005  0.00  0.00    +0.000 OA
ENDBRANCH   1   8
BRANCH   6   9
ATOM      9  O   UNL     1      11.636   3.682   5.424  0.00  0.00    +0.000 OA
ATOM     10  H   UNL     1      10.679   3.676   5.231  0.00  0.00    +0.000 HD
ENDBRANCH   6   9
TORSDOF 2
ENDMDL
MODEL 4
REMARK VINA RESULT:    -4.611      1.385      2.173
REMARK INTER + INTRA:          -5.054
REMARK INTER:                  -5.003
REMARK INTRA:                  -0.052
REMARK UNBOUND:                -0.039
REMARK  Name = 
REMARK  3 active torsions:
REMARK  status: ('A' for Active; 'I' for Inactive)
REMARK    1  A    between atoms: C_1  and  O_2
REMARK    2  A    between atoms: O_2  and  C_3
REMARK    3  A    between atoms: C_8  and  O_9
REMARK                            x       y       z     vdW  Elec       q    Type
REMARK                         _______ _______ _______ _____ _____    ______ ____
ROOT
ATOM      1  C   UNL     1      11.722   0.948   6.827  0.00  0.00    +0.000 A 
ATOM      2  C   UNL     1      10.538   0.397   7.315  0.00  0.00    +0.000 A 
ATOM      3  C   UNL     1       9.562  -0.065   6.422  0.00  0.00    +0.000 A 
ATOM      4  C   UNL     1       9.765   0.024   5.044  0.00  0.00    +0.000 A 
ATOM      5  C   UNL     1      10.945   0.573   4.549  0.00  0.00    +0.000 A 
ATOM      6  C   UNL     1      11.908   1.028   5.442  0.00  0.00    +0.000 A 
ENDROOT
BRANCH   1   8
ATOM      7  C   UNL     1      12.511   2.644   8.292  0.00  0.00    +0.000 C 
ATOM      8  O   UNL     1      12.759   1.438   7.580  0.00  0.00    +0.000 OA
ENDBRANCH   1   8
BRANCH   6   9
ATOM      9  O   UNL     1      13.060   1.564   4.932  0.00  0.00    +0.000 OA
ATOM     10  H   UNL     1      13.668   1.617   5.694  0.00  0.00    +0.000 HD
ENDBRANCH   6   9
TORSDOF 2
ENDMDL
MODEL 5
REMARK VINA RESULT:    -4.583     12.771     13.660
REMARK INTER + INTRA:          -5.024
REMARK INTER:                  -4.986
REMARK INTRA:                  -0.038
REMARK UNBOUND:                -0.039
REMARK  Name = 
REMARK  3 active torsions:
REMARK  status: ('A' for Active; 'I' for Inactive)
REMARK    1  A    between atoms: C_1  and  O_2
REMARK    2  A    between atoms: O_2  and  C_3
REMARK    3  A    between atoms: C_8  and  O_9
REMARK                            x       y       z     vdW  Elec       q    Type
REMARK                         _______ _______ _______ _____ _____    ______ ____
ROOT
ATOM      1  C   UNL     1       3.898  -9.572   8.152  0.00  0.00    +0.000 A 
ATOM      2  C   UNL     1       4.009 -10.959   8.253  0.00  0.00    +0.000 A 
ATOM      3  C   UNL     1       3.895 -11.754   7.106  0.00  0.00    +0.000 A 
ATOM      4  C   UNL     1       3.671 -11.170   5.858  0.00  0.00    +0.000 A 
ATOM      5  C   UNL     1       3.560  -9.785   5.749  0.00  0.00    +0.000 A 
ATOM      6  C   UNL     1       3.673  -9.004   6.892  0.00  0.00    +0.000 A 
ENDROOT
BRANCH   1   8
ATOM      7  C   UNL     1       4.587  -9.146  10.386  0.00  0.00    +0.000 C 
ATOM      8  O   UNL     1       3.987  -8.675   9.186  0.00  0.00    +0.000 OA
ENDBRANCH   1   8
BRANCH   6   9
ATOM      9  O   UNL     1       3.560  -7.646   6.761  0.00  0.00    +0.000 OA
ATOM     10  H   UNL     1       2.664  -7.438   7.089  0.00  0.00    +0.000 HD
ENDBRANCH   6   9
TORSDOF 2
ENDMDL
MODEL 6
REMARK VINA RESULT:    -4.543      1.122      2.628
REMARK INTER + INTRA:          -4.981
REMARK INTER:                  -4.943
REMARK INTRA:                  -0.038
REMARK UNBOUND:                -0.039
REMARK  Name = 
REMARK  3 active torsions:
REMARK  status: ('A' for Active; 'I' for Inactive)
REMARK    1  A    between atoms: C_1  and  O_2
REMARK    2  A    between atoms: O_2  and  C_3
REMARK    3  A    between atoms: C_8  and  O_9
REMARK                            x       y       z     vdW  Elec       q    Type
REMARK                         _______ _______ _______ _____ _____    ______ ____
ROOT
ATOM      1  C   UNL     1      11.343   0.643   6.111  0.00  0.00    +0.000 A 
ATOM      2  C   UNL     1      10.274   0.621   7.006  0.00  0.00    +0.000 A 
ATOM      3  C   UNL     1      10.517   0.551   8.384  0.00  0.00    +0.000 A 
ATOM      4  C   UNL     1      11.825   0.503   8.870  0.00  0.00    +0.000 A 
ATOM      5  C   UNL     1      12.898   0.526   7.982  0.00  0.00    +0.000 A 
ATOM      6  C   UNL     1      12.647   0.594   6.617  0.00  0.00    +0.000 A 
ENDROOT
BRANCH   1   8
ATOM      7  C   UNL     1       9.960   0.525   4.182  0.00  0.00    +0.000 C 
ATOM      8  O   UNL     1      11.254   0.709   4.743  0.00  0.00    +0.000 OA
ENDBRANCH   1   8
BRANCH   6   9
ATOM      9  O   UNL     1      13.718   0.615   5.764  0.00  0.00    +0.000 OA
ATOM     10  H   UNL     1      13.589   1.418   5.223  0.00  0.00    +0.000 HD
ENDBRANCH   6   9
TORSDOF 2
ENDMDL
MODEL 7
REMARK VINA RESULT:    -4.518      2.103      2.793
REMARK INTER + INTRA:          -4.954
REMARK INTER:                  -4.920
REMARK INTRA:                  -0.034
REMARK UNBOUND:                -0.039
REMARK  Name = 
REMARK  3 active torsions:
REMARK  status: ('A' for Active; 'I' for Inactive)
REMARK    1  A    between atoms: C_1  and  O_2
REMARK    2  A    between atoms: O_2  and  C_3
REMARK    3  A    between atoms: C_8  and  O_9
REMARK                            x       y       z     vdW  Elec       q    Type
REMARK                         _______ _______ _______ _____ _____    ______ ____
ROOT
ATOM      1  C   UNL     1      11.662   1.097   6.972  0.00  0.00    +0.000 A 
ATOM      2  C   UNL     1      12.168   1.007   5.676  0.00  0.00    +0.000 A 
ATOM      3  C   UNL     1      11.340   0.582   4.630  0.00  0.00    +0.000 A 
ATOM      4  C   UNL     1      10.007   0.245   4.874  0.00  0.00    +0.000 A 
ATOM      5  C   UNL     1       9.494   0.333   6.166  0.00  0.00    +0.000 A 
ATOM      6  C   UNL     1      10.323   0.755   7.198  0.00  0.00    +0.000 A 
ENDROOT
BRANCH   1   8
ATOM      7  C   UNL     1      12.569   2.894   8.236  0.00  0.00    +0.000 C 
ATOM      8  O   UNL     1      12.355   1.495   8.087  0.00  0.00    +0.000 OA
ENDBRANCH   1   8
BRANCH   6   9
ATOM      9  O   UNL     1       9.797   0.833   8.460  0.00  0.00    +0.000 OA
ATOM     10  H   UNL     1      10.309   1.538   8.899  0.00  0.00    +0.000 HD
ENDBRANCH   6   9
TORSDOF 2
ENDMDL
MODEL 8
REMARK VINA RESULT:    -4.453      1.901      3.138
REMARK INTER + INTRA:          -4.883
REMARK INTER:                  -4.840
REMARK INTRA:                  -0.043
REMARK UNBOUND:                -0.039
REMARK  Name = 
REMARK  3 active torsions:
REMARK  status: ('A' for Active; 'I' for Inactive)
REMARK    1  A    between atoms: C_1  and  O_2
REMARK    2  A    between atoms: O_2  and  C_3
REMARK    3  A    between atoms: C_8  and  O_9
REMARK                            x       y       z     vdW  Elec       q    Type
REMARK                         _______ _______ _______ _____ _____    ______ ____
ROOT
ATOM      1  C   UNL     1      11.327   0.930   6.018  0.00  0.00    +0.000 A 
ATOM      2  C   UNL     1      12.465   1.662   5.683  0.00  0.00    +0.000 A 
ATOM      3  C   UNL     1      13.016   2.559   6.607  0.00  0.00    +0.000 A 
ATOM      4  C   UNL     1      12.433   2.728   7.865  0.00  0.00    +0.000 A 
ATOM      5  C   UNL     1      11.296   1.999   8.206  0.00  0.00    +0.000 A 
ATOM      6  C   UNL     1      10.756   1.112   7.283  0.00  0.00    +0.000 A 
ENDROOT
BRANCH   1   8
ATOM      7  C   UNL     1       9.901   0.555   4.154  0.00  0.00    +0.000 C 
ATOM      8  O   UNL     1      10.683   0.022   5.216  0.00  0.00    +0.000 OA
ENDBRANCH   1   8
BRANCH   6   9
ATOM      9  O   UNL     1       9.638   0.408   7.642  0.00  0.00    +0.000 OA
ATOM     10  H   UNL     1       9.234   0.136   6.796  0.00  0.00    +0.000 HD
ENDBRANCH   6   9
TORSDOF 2
ENDMDL
MODEL 9
REMARK VINA RESULT:    -4.361     11.512     12.389
REMARK INTER + INTRA:          -4.782
REMARK INTER:                  -4.730
REMARK INTRA:                  -0.053
REMARK UNBOUND:                -0.039
REMARK  Name = 
REMARK  3 active torsions:
REMARK  status: ('A' for Active; 'I' for Inactive)
REMARK    1  A    between atoms: C_1  and  O_2
REMARK    2  A    between atoms: O_2  and  C_3
REMARK    3  A    between atoms: C_8  and  O_9
REMARK                            x       y       z     vdW  Elec       q    Type
REMARK                         _______ _______ _______ _____ _____    ______ ____
ROOT
ATOM      1  C   UNL     1       5.464  -9.697   7.909  0.00  0.00    +0.000 A 
ATOM      2  C   UNL     1       4.349  -9.418   8.698  0.00  0.00    +0.000 A 
ATOM      3  C   UNL     1       4.514  -8.841   9.964  0.00  0.00    +0.000 A 
ATOM      4  C   UNL     1       5.791  -8.542  10.444  0.00  0.00    +0.000 A 
ATOM      5  C   UNL     1       6.909  -8.817   9.661  0.00  0.00    +0.000 A 
ATOM      6  C   UNL     1       6.736  -9.390   8.407  0.00  0.00    +0.000 A 
ENDROOT
BRANCH   1   8
ATOM      7  C   UNL     1       4.832  -9.498   5.627  0.00  0.00    +0.000 C 
ATOM      8  O   UNL     1       5.452 -10.258   6.657  0.00  0.00    +0.000 OA
ENDBRANCH   1   8
BRANCH   6   9
ATOM      9  O   UNL     1       7.851  -9.651   7.656  0.00  0.00    +0.000 OA
ATOM     10  H   UNL     1       8.497 -10.018   8.289  0.00  0.00    +0.000 HD
ENDBRANCH   6   9
TORSDOF 2
ENDMDL
