MODEL 1
REMARK VINA RESULT:    -3.530      0.000      0.000
REMARK INTER + INTRA:          -3.885
REMARK INTER:                  -3.839
REMARK INTRA:                  -0.046
REMARK UNBOUND:                -0.046
REMARK  Name = 
REMARK  3 active torsions:
REMARK  status: ('A' for Active; 'I' for Inactive)
REMARK    1  A    between atoms: C_1  and  O_2
REMARK    2  A    between atoms: O_2  and  C_3
REMARK    3  A    between atoms: C_8  and  O_9
REMARK                            x       y       z     vdW  Elec       q    Type
REMARK                         _______ _______ _______ _____ _____    ______ ____
ROOT
ATOM      1  C   UNL     1      -3.928  14.782  -1.634  0.00  0.00    +0.000 A 
ATOM      2  C   UNL     1      -4.657  15.961  -1.493  0.00  0.00    +0.000 A 
ATOM      3  C   UNL     1      -4.212  16.959  -0.617  0.00  0.00    +0.000 A 
ATOM      4  C   UNL     1      -3.040  16.781   0.121  0.00  0.00    +0.000 A 
ATOM      5  C   UNL     1      -2.306  15.605  -0.015  0.00  0.00    +0.000 A 
ATOM      6  C   UNL     1      -2.755  14.621  -0.886  0.00  0.00    +0.000 A 
ENDROOT
BRANCH   1   8
ATOM      7  C   UNL     1      -4.698  14.049  -3.760  0.00  0.00    +0.000 C 
ATOM      8  O   UNL     1      -4.244  13.725  -2.451  0.00  0.00    +0.000 OA
ENDBRANCH   1   8
BRANCH   6   9
ATOM      9  O   UNL     1      -2.016  13.474  -1.003  0.00  0.00    +0.000 OA
ATOM     10  H   UNL     1      -2.123  13.022  -0.144  0.00  0.00    +0.000 HD
ENDBRANCH   6   9
TORSDOF 2
ENDMDL
MODEL 2
REMARK VINA RESULT:    -3.404      0.984      2.790
REMARK INTER + INTRA:          -3.748
REMARK INTER:                  -3.701
REMARK INTRA:                  -0.046
REMARK UNBOUND:                -0.046
REMARK  Name = 
REMARK  3 active torsions:
REMARK  status: ('A' for Active; 'I' for Inactive)
REMARK    1  A    between atoms: C_1  and  O_2
REMARK    2  A    between atoms: O_2  and  C_3
REMARK    3  A    between atoms: C_8  and  O_9
REMARK                            x       y       z     vdW  Elec       q    Type
REMARK                         _______ _______ _______ _____ _____    ______ ____
ROOT
ATOM      1  C   UNL     1      -2.629  14.895  -0.701  0.00  0.00    +0.000 A 
ATOM      2  C   UNL     1      -2.607  16.088   0.020  0.00  0.00    +0.000 A 
ATOM      3  C   UNL     1      -3.671  16.992  -0.090  0.00  0.00    +0.000 A 
ATOM      4  C   UNL     1      -4.758  16.708  -0.920  0.00  0.00    +0.000 A 
ATOM      5  C   UNL     1      -4.787  15.518  -1.643  0.00  0.00    +0.000 A 
ATOM      6  C   UNL     1      -3.727  14.628  -1.528  0.00  0.00    +0.000 A 
ENDROOT
BRANCH   1   8
ATOM      7  C   UNL     1      -1.149  13.551   0.583  0.00  0.00    +0.000 C 
ATOM      8  O   UNL     1      -1.661  13.923  -0.691  0.00  0.00    +0.000 OA
ENDBRANCH   1   8
BRANCH   6   9
ATOM      9  O   UNL     1      -3.779  13.465  -2.248  0.00  0.00    +0.000 OA
ATOM     10  H   UNL     1      -4.251  12.835  -1.671  0.00  0.00    +0.000 HD
ENDBRANCH   6   9
TORSDOF 2
ENDMDL
MODEL 3
REMARK VINA RESULT:    -3.381     17.294     17.936
REMARK INTER + INTRA:          -3.723
REMARK INTER:                  -3.682
REMARK INTRA:                  -0.041
REMARK UNBOUND:                -0.046
REMARK  Name = 
REMARK  3 active torsions:
REMARK  status: ('A' for Active; 'I' for Inactive)
REMARK    1  A    between atoms: C_1  and  O_2
REMARK    2  A    between atoms: O_2  and  C_3
REMARK    3  A    between atoms: C_8  and  O_9
REMARK                            x       y       z     vdW  Elec       q    Type
REMARK                         _______ _______ _______ _____ _____    ______ ____
ROOT
ATOM      1  C   UNL     1      12.491  20.295  -7.796  0.00  0.00    +0.000 A 
ATOM      2  C   UNL     1      12.478  20.697  -6.461  0.00  0.00    +0.000 A 
ATOM      3  C   UNL     1      11.590  21.695  -6.040  0.00  0.00    +0.000 A 
ATOM      4  C   UNL     1      10.715  22.294  -6.948  0.00  0.00    +0.000 A 
ATOM      5  C   UNL     1      10.722  21.897  -8.283  0.00  0.00    +0.000 A 
ATOM      6  C   UNL     1      11.605  20.907  -8.693  0.00  0.00    +0.000 A 
ENDROOT
BRANCH   1   8
ATOM      7  C   UNL     1      13.716  18.283  -7.484  0.00  0.00    +0.000 C 
ATOM      8  O   UNL     1      13.302  19.336  -8.347  0.00  0.00    +0.000 OA
ENDBRANCH   1   8
BRANCH   6   9
ATOM      9  O   UNL     1      11.593  20.534 -10.010  0.00  0.00    +0.000 OA
ATOM     10  H   UNL     1      10.760  20.899 -10.364  0.00  0.00    +0.000 HD
ENDBRANCH   6   9
TORSDOF 2
ENDMDL
MODEL 4
REMARK VINA RESULT:    -3.340      1.737      4.400
REMARK INTER + INTRA:          -3.678
REMARK INTER:                  -3.650
REMARK INTRA:                  -0.029
REMARK UNBOUND:                -0.046
REMARK  Name = 
REMARK  3 active torsions:
REMARK  status: ('A' for Active; 'I' for Inactive)
REMARK    1  A    between atoms: C_1  and  O_2
REMARK    2  A    between atoms: O_2  and  C_3
REMARK    3  A    between atoms: C_8  and  O_9
REMARK                            x       y       z     vdW  Elec       q    Type
REMARK                         _______ _______ _______ _____ _____    ______ ____
ROOT
ATOM      1  C   UNL     1      -4.897  14.035  -2.973  0.00  0.00    +0.000 A 
ATOM      2  C   UNL     1      -6.124  13.387  -2.842  0.00  0.00    +0.000 A 
ATOM      3  C   UNL     1      -6.995  13.311  -3.936  0.00  0.00    +0.000 A 
ATOM      4  C   UNL     1      -6.645  13.881  -5.161  0.00  0.00    +0.000 A 
ATOM      5  C   UNL     1      -5.420  14.530  -5.300  0.00  0.00    +0.000 A 
ATOM      6  C   UNL     1      -4.563  14.601  -4.209  0.00  0.00    +0.000 A 
ENDROOT
BRANCH   1   8
ATOM      7  C   UNL     1      -4.191  15.205  -1.029  0.00  0.00    +0.000 C 
ATOM      8  O   UNL     1      -3.950  14.186  -1.991  0.00  0.00    +0.000 OA
ENDBRANCH   1   8
BRANCH   6   9
ATOM      9  O   UNL     1      -3.364  15.245  -4.370  0.00  0.00    +0.000 OA
ATOM     10  H   UNL     1      -2.702  14.635  -3.993  0.00  0.00    +0.000 HD
ENDBRANCH   6   9
TORSDOF 2
ENDMDL
MODEL 5
REMARK VINA RESULT:    -3.312      3.456      5.307
REMARK INTER + INTRA:          -3.648
REMARK INTER:                  -3.606
REMARK INTRA:                  -0.043
REMARK UNBOUND:                -0.046
REMARK  Name = 
REMARK  3 active torsions:
REMARK  status: ('A' for Active; 'I' for Inactive)
REMARK    1  A    between atoms: C_1  and  O_2
REMARK    2  A    between atoms: O_2  and  C_3
REMARK    3  A    between atoms: C_8  and  O_9
REMARK                            x       y       z     vdW  Elec       q    Type
REMARK                         _______ _______ _______ _____ _____    ______ ____
ROOT
ATOM      1  C   UNL     1      -4.716  14.816  -5.320  0.00  0.00    +0.000 A 
ATOM      2  C   UNL     1      -6.000  14.873  -5.859  0.00  0.00    +0.000 A 
ATOM      3  C   UNL     1      -6.256  15.682  -6.973  0.00  0.00    +0.000 A 
ATOM      4  C   UNL     1      -5.232  16.435  -7.550  0.00  0.00    +0.000 A 
ATOM      5  C   UNL     1      -3.946  16.383  -7.018  0.00  0.00    +0.000 A 
ATOM      6  C   UNL     1      -3.702  15.578  -5.912  0.00  0.00    +0.000 A 
ENDROOT
BRANCH   1   8
ATOM      7  C   UNL     1      -5.276  13.923  -3.190  0.00  0.00    +0.000 C 
ATOM      8  O   UNL     1      -4.323  14.071  -4.236  0.00  0.00    +0.000 OA
ENDBRANCH   1   8
BRANCH   6   9
ATOM      9  O   UNL     1      -2.430  15.543  -5.406  0.00  0.00    +0.000 OA
ATOM     10  H   UNL     1      -2.033  16.394  -5.674  0.00  0.00    +0.000 HD
ENDBRANCH   6   9
TORSDOF 2
ENDMDL
MODEL 6
REMARK VINA RESULT:    -3.312     17.430     17.878
REMARK INTER + INTRA:          -3.648
REMARK INTER:                  -3.610
REMARK INTRA:                  -0.038
REMARK UNBOUND:                -0.046
REMARK  Name = 
REMARK  3 active torsions:
REMARK  status: ('A' for Active; 'I' for Inactive)
REMARK    1  A    between atoms: C_1  and  O_2
REMARK    2  A    between atoms: O_2  and  C_3
REMARK    3  A    between atoms: C_8  and  O_9
REMARK                            x       y       z     vdW  Elec       q    Type
REMARK                         _______ _______ _______ _____ _____    ______ ____
ROOT
ATOM      1  C   UNL     1      11.876  20.805  -8.719  0.00  0.00    +0.000 A 
ATOM      2  C   UNL     1      11.107  21.785  -8.094  0.00  0.00    +0.000 A 
ATOM      3  C   UNL     1      11.098  21.883  -6.696  0.00  0.00    +0.000 A 
ATOM      4  C   UNL     1      11.855  21.003  -5.921  0.00  0.00    +0.000 A 
ATOM      5  C   UNL     1      12.627  20.021  -6.538  0.00  0.00    +0.000 A 
ATOM      6  C   UNL     1      12.630  19.932  -7.924  0.00  0.00    +0.000 A 
ENDROOT
BRANCH   1   8
ATOM      7  C   UNL     1      11.040  21.276 -10.892  0.00  0.00    +0.000 C 
ATOM      8  O   UNL     1      11.979  20.594 -10.070  0.00  0.00    +0.000 OA
ENDBRANCH   1   8
BRANCH   6   9
ATOM      9  O   UNL     1      13.396  18.959  -8.508  0.00  0.00    +0.000 OA
ATOM     10  H   UNL     1      14.036  19.445  -9.061  0.00  0.00    +0.000 HD
ENDBRANCH   6   9
TORSDOF 2
ENDMDL
MODEL 7
REMARK VINA RESULT:    -3.274      1.788      2.674
REMARK INTER + INTRA:          -3.607
REMARK INTER:                  -3.555
REMARK INTRA:                  -0.052
REMARK UNBOUND:                -0.046
REMARK  Name = 
REMARK  3 active torsions:
REMARK  status: ('A' for Active; 'I' for Inactive)
REMARK    1  A    between atoms: C_1  and  O_2
REMARK    2  A    between atoms: O_2  and  C_3
REMARK    3  A    between atoms: C_8  and  O_9
REMARK                            x       y       z     vdW  Elec       q    Type
REMARK                         _______ _______ _______ _____ _____    ______ ____
ROOT
ATOM      1  C   UNL     1      -4.040  15.667  -0.226  0.00  0.00    +0.000 A 
ATOM      2  C   UNL     1      -3.885  15.626   1.159  0.00  0.00    +0.000 A 
ATOM      3  C   UNL     1      -2.837  14.891   1.725  0.00  0.00    +0.000 A 
ATOM      4  C   UNL     1      -1.941  14.194   0.912  0.00  0.00    +0.000 A 
ATOM      5  C   UNL     1      -2.088  14.230  -0.473  0.00  0.00    +0.000 A 
ATOM      6  C   UNL     1      -3.131  14.962  -1.025  0.00  0.00    +0.000 A 
ENDROOT
BRANCH   1   8
ATOM      7  C   UNL     1      -6.356  15.922  -0.690  0.00  0.00    +0.000 C 
ATOM      8  O   UNL     1      -5.016  16.342  -0.914  0.00  0.00    +0.000 OA
ENDBRANCH   1   8
BRANCH   6   9
ATOM      9  O   UNL     1      -3.256  14.981  -2.389  0.00  0.00    +0.000 OA
ATOM     10  H   UNL     1      -3.974  15.619  -2.564  0.00  0.00    +0.000 HD
ENDBRANCH   6   9
TORSDOF 2
ENDMDL
MODEL 8
REMARK VINA RESULT:    -3.274      1.873      4.741
REMARK INTER + INTRA:          -3.606
REMARK INTER:                  -3.555
REMARK INTRA:                  -0.051
REMARK UNBOUND:                -0.046
REMARK  Name = 
REMARK  3 active torsions:
REMARK  status: ('A' for Active; 'I' for Inactive)
REMARK    1  A    between atoms: C_1  and  O_2
REMARK    2  A    between atoms: O_2  and  C_3
REMARK    3  A    between atoms: C_8  and  O_9
REMARK                            x       y       z     vdW  Elec       q    Type
REMARK                         _______ _______ _______ _____ _____    ______ ____
ROOT
ATOM      1  C   UNL     1      -4.993  13.925  -3.526  0.00  0.00    +0.000 A 
ATOM      2  C   UNL     1      -4.570  14.717  -4.592  0.00  0.00    +0.000 A 
ATOM      3  C   UNL     1      -5.420  14.933  -5.684  0.00  0.00    +0.000 A 
ATOM      4  C   UNL     1      -6.692  14.359  -5.715  0.00  0.00    +0.000 A 
ATOM      5  C   UNL     1      -7.123  13.567  -4.653  0.00  0.00    +0.000 A 
ATOM      6  C   UNL     1      -6.273  13.358  -3.574  0.00  0.00    +0.000 A 
ENDROOT
BRANCH   1   8
ATOM      7  C   UNL     1      -3.834  14.735  -1.616  0.00  0.00    +0.000 C 
ATOM      8  O   UNL     1      -4.271  13.630  -2.398  0.00  0.00    +0.000 OA
ENDBRANCH   1   8
BRANCH   6   9
ATOM      9  O   UNL     1      -6.719  12.576  -2.542  0.00  0.00    +0.000 OA
ATOM     10  H   UNL     1      -7.244  13.179  -1.982  0.00  0.00    +0.000 HD
ENDBRANCH   6   9
TORSDOF 2
ENDMDL
MODEL 9
REMARK VINA RESULT:    -3.200      2.376      3.734
REMARK INTER + INTRA:          -3.526
REMARK INTER:                  -3.485
REMARK INTRA:                  -0.041
REMARK UNBOUND:                -0.046
REMARK  Name = 
REMARK  3 active torsions:
REMARK  status: ('A' for Active; 'I' for Inactive)
REMARK    1  A    between atoms: C_1  and  O_2
REMARK    2  A    between atoms: O_2  and  C_3
REMARK    3  A    between atoms: C_8  and  O_9
REMARK                            x       y       z     vdW  Elec       q    Type
REMARK                         _______ _______ _______ _____ _____    ______ ____
ROOT
ATOM      1  C   UNL     1      -3.185  15.185   1.567  0.00  0.00    +0.000 A 
ATOM      2  C   UNL     1      -4.287  15.886   1.079  0.00  0.00    +0.000 A 
ATOM      3  C   UNL     1      -4.558  15.895  -0.295  0.00  0.00    +0.000 A 
ATOM      4  C   UNL     1      -3.731  15.206  -1.184  0.00  0.00    +0.000 A 
ATOM      5  C   UNL     1      -2.628  14.504  -0.705  0.00  0.00    +0.000 A 
ATOM      6  C   UNL     1      -2.366  14.501   0.660  0.00  0.00    +0.000 A 
ENDROOT
BRANCH   1   8
ATOM      7  C   UNL     1      -3.837  15.164   3.852  0.00  0.00    +0.000 C 
ATOM      8  O   UNL     1      -2.800  15.091   2.880  0.00  0.00    +0.000 OA
ENDBRANCH   1   8
BRANCH   6   9
ATOM      9  O   UNL     1      -1.276  13.803   1.107  0.00  0.00    +0.000 OA
ATOM     10  H   UNL     1      -1.489  13.578   2.033  0.00  0.00    +0.000 HD
ENDBRANCH   6   9
TORSDOF 2
ENDMDL
