MODEL 1
REMARK VINA RESULT:    -4.841      0.000      0.000
REMARK INTER + INTRA:          -5.305
REMARK INTER:                  -5.265
REMARK INTRA:                  -0.040
REMARK UNBOUND:                -0.040
REMARK  Name = 
REMARK  3 active torsions:
REMARK  status: ('A' for Active; 'I' for Inactive)
REMARK    1  A    between atoms: C_1  and  O_2
REMARK    2  A    between atoms: O_2  and  C_3
REMARK    3  A    between atoms: C_8  and  O_9
REMARK                            x       y       z     vdW  Elec       q    Type
REMARK                         _______ _______ _______ _____ _____    ______ ____
ROOT
ATOM      1  C   UNL     1       8.746   8.172   6.846  0.00  0.00    +0.000 A 
ATOM      2  C   UNL     1       8.721   7.668   5.546  0.00  0.00    +0.000 A 
ATOM      3  C   UNL     1       7.579   7.009   5.074  0.00  0.00    +0.000 A 
ATOM      4  C   UNL     1       6.462   6.851   5.896  0.00  0.00    +0.000 A 
ATOM      5  C   UNL     1       6.479   7.352   7.196  0.00  0.00    +0.000 A 
ATOM      6  C   UNL     1       7.616   8.004   7.656  0.00  0.00    +0.000 A 
ENDROOT
BRANCH   1   8
ATOM      7  C   UNL     1      11.084   8.595   6.896  0.00  0.00    +0.000 C 
ATOM      8  O   UNL     1       9.791   8.835   7.438  0.00  0.00    +0.000 OA
ENDBRANCH   1   8
BRANCH   6   9
ATOM      9  O   UNL     1       7.610   8.488   8.937  0.00  0.00    +0.000 OA
ATOM     10  H   UNL     1       7.200   7.779   9.468  0.00  0.00    +0.000 HD
ENDBRANCH   6   9
TORSDOF 2
ENDMDL
MODEL 2
REMARK VINA RESULT:    -4.810      2.063      2.793
REMARK INTER + INTRA:          -5.271
REMARK INTER:                  -5.219
REMARK INTRA:                  -0.052
REMARK UNBOUND:                -0.040
REMARK  Name = 
REMARK  3 active torsions:
REMARK  status: ('A' for Active; 'I' for Inactive)
REMARK    1  A    between atoms: C_1  and  O_2
REMARK    2  A    between atoms: O_2  and  C_3
REMARK    3  A    between atoms: C_8  and  O_9
REMARK                            x       y       z     vdW  Elec       q    Type
REMARK                         _______ _______ _______ _____ _____    ______ ____
ROOT
ATOM      1  C   UNL     1       9.424   8.175   5.745  0.00  0.00    +0.000 A 
ATOM      2  C   UNL     1       9.813   8.856   6.898  0.00  0.00    +0.000 A 
ATOM      3  C   UNL     1       8.998   8.825   8.037  0.00  0.00    +0.000 A 
ATOM      4  C   UNL     1       7.795   8.116   8.028  0.00  0.00    +0.000 A 
ATOM      5  C   UNL     1       7.401   7.433   6.880  0.00  0.00    +0.000 A 
ATOM      6  C   UNL     1       8.215   7.469   5.755  0.00  0.00    +0.000 A 
ENDROOT
BRANCH   1   8
ATOM      7  C   UNL     1      11.392   7.489   4.605  0.00  0.00    +0.000 C 
ATOM      8  O   UNL     1      10.118   8.120   4.563  0.00  0.00    +0.000 OA
ENDBRANCH   1   8
BRANCH   6   9
ATOM      9  O   UNL     1       7.805   6.790   4.638  0.00  0.00    +0.000 OA
ATOM     10  H   UNL     1       7.109   6.185   4.957  0.00  0.00    +0.000 HD
ENDBRANCH   6   9
TORSDOF 2
ENDMDL
MODEL 3
REMARK VINA RESULT:    -4.737      1.402      3.243
REMARK INTER + INTRA:          -5.192
REMARK INTER:                  -5.144
REMARK INTRA:                  -0.048
REMARK UNBOUND:                -0.040
REMARK  Name = 
REMARK  3 active torsions:
REMARK  status: ('A' for Active; 'I' for Inactive)
REMARK    1  A    between atoms: C_1  and  O_2
REMARK    2  A    between atoms: O_2  and  C_3
REMARK    3  A    between atoms: C_8  and  O_9
REMARK                            x       y       z     vdW  Elec       q    Type
REMARK                         _______ _______ _______ _____ _____    ______ ____
ROOT
ATOM      1  C   UNL     1       8.538   7.608   6.970  0.00  0.00    +0.000 A 
ATOM      2  C   UNL     1       9.004   7.839   5.676  0.00  0.00    +0.000 A 
ATOM      3  C   UNL     1      10.381   7.846   5.419  0.00  0.00    +0.000 A 
ATOM      4  C   UNL     1      11.295   7.625   6.451  0.00  0.00    +0.000 A 
ATOM      5  C   UNL     1      10.837   7.393   7.746  0.00  0.00    +0.000 A 
ATOM      6  C   UNL     1       9.470   7.388   7.992  0.00  0.00    +0.000 A 
ENDROOT
BRANCH   1   8
ATOM      7  C   UNL     1       6.354   6.750   6.600  0.00  0.00    +0.000 C 
ATOM      8  O   UNL     1       7.225   7.574   7.365  0.00  0.00    +0.000 OA
ENDBRANCH   1   8
BRANCH   6   9
ATOM      9  O   UNL     1       9.045   7.158   9.273  0.00  0.00    +0.000 OA
ATOM     10  H   UNL     1       9.324   6.243   9.468  0.00  0.00    +0.000 HD
ENDBRANCH   6   9
TORSDOF 2
ENDMDL
MODEL 4
REMARK VINA RESULT:    -4.702      1.249      2.357
REMARK INTER + INTRA:          -5.154
REMARK INTER:                  -5.117
REMARK INTRA:                  -0.037
REMARK UNBOUND:                -0.040
REMARK  Name = 
REMARK  3 active torsions:
REMARK  status: ('A' for Active; 'I' for Inactive)
REMARK    1  A    between atoms: C_1  and  O_2
REMARK    2  A    between atoms: O_2  and  C_3
REMARK    3  A    between atoms: C_8  and  O_9
REMARK                            x       y       z     vdW  Elec       q    Type
REMARK                         _______ _______ _______ _____ _____    ______ ____
ROOT
ATOM      1  C   UNL     1       8.964   8.179   6.622  0.00  0.00    +0.000 A 
ATOM      2  C   UNL     1       8.057   8.030   7.670  0.00  0.00    +0.000 A 
ATOM      3  C   UNL     1       6.793   7.478   7.428  0.00  0.00    +0.000 A 
ATOM      4  C   UNL     1       6.432   7.073   6.141  0.00  0.00    +0.000 A 
ATOM      5  C   UNL     1       7.333   7.218   5.089  0.00  0.00    +0.000 A 
ATOM      6  C   UNL     1       8.584   7.767   5.338  0.00  0.00    +0.000 A 
ENDROOT
BRANCH   1   8
ATOM      7  C   UNL     1      11.225   7.858   7.279  0.00  0.00    +0.000 C 
ATOM      8  O   UNL     1      10.229   8.701   6.712  0.00  0.00    +0.000 OA
ENDBRANCH   1   8
BRANCH   6   9
ATOM      9  O   UNL     1       9.453   7.899   4.288  0.00  0.00    +0.000 OA
ATOM     10  H   UNL     1       8.935   8.345   3.592  0.00  0.00    +0.000 HD
ENDBRANCH   6   9
TORSDOF 2
ENDMDL
MODEL 5
REMARK VINA RESULT:    -4.636     17.513     18.483
REMARK INTER + INTRA:          -5.082
REMARK INTER:                  -5.030
REMARK INTRA:                  -0.053
REMARK UNBOUND:                -0.040
REMARK  Name = 
REMARK  3 active torsions:
REMARK  status: ('A' for Active; 'I' for Inactive)
REMARK    1  A    between atoms: C_1  and  O_2
REMARK    2  A    between atoms: O_2  and  C_3
REMARK    3  A    between atoms: C_8  and  O_9
REMARK                            x       y       z     vdW  Elec       q    Type
REMARK                         _______ _______ _______ _____ _____    ______ ____
ROOT
ATOM      1  C   UNL     1      -1.683  -1.305  19.451  0.00  0.00    +0.000 A 
ATOM      2  C   UNL     1      -2.521  -2.358  19.088  0.00  0.00    +0.000 A 
ATOM      3  C   UNL     1      -3.574  -2.138  18.191  0.00  0.00    +0.000 A 
ATOM      4  C   UNL     1      -3.792  -0.868  17.654  0.00  0.00    +0.000 A 
ATOM      5  C   UNL     1      -2.959   0.189  18.011  0.00  0.00    +0.000 A 
ATOM      6  C   UNL     1      -1.918  -0.038  18.902  0.00  0.00    +0.000 A 
ENDROOT
BRANCH   1   8
ATOM      7  C   UNL     1      -0.924  -1.678  21.672  0.00  0.00    +0.000 C 
ATOM      8  O   UNL     1      -0.620  -1.374  20.315  0.00  0.00    +0.000 OA
ENDBRANCH   1   8
BRANCH   6   9
ATOM      9  O   UNL     1      -1.113   1.017  19.238  0.00  0.00    +0.000 OA
ATOM     10  H   UNL     1      -0.460   0.644  19.861  0.00  0.00    +0.000 HD
ENDBRANCH   6   9
TORSDOF 2
ENDMDL
MODEL 6
REMARK VINA RESULT:    -4.594      1.968      3.993
REMARK INTER + INTRA:          -5.036
REMARK INTER:                  -4.985
REMARK INTRA:                  -0.051
REMARK UNBOUND:                -0.040
REMARK  Name = 
REMARK  3 active torsions:
REMARK  status: ('A' for Active; 'I' for Inactive)
REMARK    1  A    between atoms: C_1  and  O_2
REMARK    2  A    between atoms: O_2  and  C_3
REMARK    3  A    between atoms: C_8  and  O_9
REMARK                            x       y       z     vdW  Elec       q    Type
REMARK                         _______ _______ _______ _____ _____    ______ ____
ROOT
ATOM      1  C   UNL     1       8.843   6.967   6.376  0.00  0.00    +0.000 A 
ATOM      2  C   UNL     1       9.335   6.640   7.639  0.00  0.00    +0.000 A 
ATOM      3  C   UNL     1      10.613   7.064   8.023  0.00  0.00    +0.000 A 
ATOM      4  C   UNL     1      11.402   7.814   7.149  0.00  0.00    +0.000 A 
ATOM      5  C   UNL     1      10.918   8.145   5.886  0.00  0.00    +0.000 A 
ATOM      6  C   UNL     1       9.649   7.719   5.513  0.00  0.00    +0.000 A 
ENDROOT
BRANCH   1   8
ATOM      7  C   UNL     1       6.480   7.035   6.617  0.00  0.00    +0.000 C 
ATOM      8  O   UNL     1       7.616   6.620   5.869  0.00  0.00    +0.000 OA
ENDBRANCH   1   8
BRANCH   6   9
ATOM      9  O   UNL     1       9.194   8.057   4.266  0.00  0.00    +0.000 OA
ATOM     10  H   UNL     1       8.536   7.370   4.048  0.00  0.00    +0.000 HD
ENDBRANCH   6   9
TORSDOF 2
ENDMDL
MODEL 7
REMARK VINA RESULT:    -4.420      1.428      2.429
REMARK INTER + INTRA:          -4.847
REMARK INTER:                  -4.935
REMARK INTRA:                   0.088
REMARK UNBOUND:                -0.040
REMARK  Name = 
REMARK  3 active torsions:
REMARK  status: ('A' for Active; 'I' for Inactive)
REMARK    1  A    between atoms: C_1  and  O_2
REMARK    2  A    between atoms: O_2  and  C_3
REMARK    3  A    between atoms: C_8  and  O_9
REMARK                            x       y       z     vdW  Elec       q    Type
REMARK                         _______ _______ _______ _____ _____    ______ ____
ROOT
ATOM      1  C   UNL     1       8.937   7.878   7.842  0.00  0.00    +0.000 A 
ATOM      2  C   UNL     1      10.137   8.137   7.182  0.00  0.00    +0.000 A 
ATOM      3  C   UNL     1      10.167   8.200   5.784  0.00  0.00    +0.000 A 
ATOM      4  C   UNL     1       9.001   8.006   5.041  0.00  0.00    +0.000 A 
ATOM      5  C   UNL     1       7.798   7.747   5.693  0.00  0.00    +0.000 A 
ATOM      6  C   UNL     1       7.777   7.685   7.081  0.00  0.00    +0.000 A 
ENDROOT
BRANCH   1   8
ATOM      7  C   UNL     1       8.372   8.980   9.871  0.00  0.00    +0.000 C 
ATOM      8  O   UNL     1       8.761   7.787   9.200  0.00  0.00    +0.000 OA
ENDBRANCH   1   8
BRANCH   6   9
ATOM      9  O   UNL     1       6.583   7.430   7.699  0.00  0.00    +0.000 OA
ATOM     10  H   UNL     1       6.640   6.495   7.975  0.00  0.00    +0.000 HD
ENDBRANCH   6   9
TORSDOF 2
ENDMDL
MODEL 8
REMARK VINA RESULT:    -4.383      1.803      3.762
REMARK INTER + INTRA:          -4.807
REMARK INTER:                  -4.762
REMARK INTRA:                  -0.046
REMARK UNBOUND:                -0.040
REMARK  Name = 
REMARK  3 active torsions:
REMARK  status: ('A' for Active; 'I' for Inactive)
REMARK    1  A    between atoms: C_1  and  O_2
REMARK    2  A    between atoms: O_2  and  C_3
REMARK    3  A    between atoms: C_8  and  O_9
REMARK                            x       y       z     vdW  Elec       q    Type
REMARK                         _______ _______ _______ _____ _____    ______ ____
ROOT
ATOM      1  C   UNL     1       9.411   7.556   6.819  0.00  0.00    +0.000 A 
ATOM      2  C   UNL     1      10.627   7.734   7.476  0.00  0.00    +0.000 A 
ATOM      3  C   UNL     1      11.810   7.863   6.737  0.00  0.00    +0.000 A 
ATOM      4  C   UNL     1      11.781   7.813   5.342  0.00  0.00    +0.000 A 
ATOM      5  C   UNL     1      10.570   7.635   4.678  0.00  0.00    +0.000 A 
ATOM      6  C   UNL     1       9.402   7.508   5.420  0.00  0.00    +0.000 A 
ENDROOT
BRANCH   1   8
ATOM      7  C   UNL     1       7.896   8.291   8.496  0.00  0.00    +0.000 C 
ATOM      8  O   UNL     1       8.182   7.415   7.412  0.00  0.00    +0.000 OA
ENDBRANCH   1   8
BRANCH   6   9
ATOM      9  O   UNL     1       8.223   7.334   4.745  0.00  0.00    +0.000 OA
ATOM     10  H   UNL     1       7.594   7.938   5.184  0.00  0.00    +0.000 HD
ENDBRANCH   6   9
TORSDOF 2
ENDMDL
MODEL 9
REMARK VINA RESULT:    -4.357      1.879      2.817
REMARK INTER + INTRA:          -4.779
REMARK INTER:                  -4.729
REMARK INTRA:                  -0.050
REMARK UNBOUND:                -0.040
REMARK  Name = 
REMARK  3 active torsions:
REMARK  status: ('A' for Active; 'I' for Inactive)
REMARK    1  A    between atoms: C_1  and  O_2
REMARK    2  A    between atoms: O_2  and  C_3
REMARK    3  A    between atoms: C_8  and  O_9
REMARK                            x       y       z     vdW  Elec       q    Type
REMARK                         _______ _______ _______ _____ _____    ______ ____
ROOT
ATOM      1  C   UNL     1       9.966   7.569   5.701  0.00  0.00    +0.000 A 
ATOM      2  C   UNL     1       8.609   7.361   5.460  0.00  0.00    +0.000 A 
ATOM      3  C   UNL     1       7.674   7.595   6.476  0.00  0.00    +0.000 A 
ATOM      4  C   UNL     1       8.090   8.037   7.733  0.00  0.00    +0.000 A 
ATOM      5  C   UNL     1       9.444   8.247   7.982  0.00  0.00    +0.000 A 
ATOM      6  C   UNL     1      10.365   8.011   6.969  0.00  0.00    +0.000 A 
ENDROOT
BRANCH   1   8
ATOM      7  C   UNL     1      11.080   8.320   3.741  0.00  0.00    +0.000 C 
ATOM      8  O   UNL     1      10.987   7.380   4.805  0.00  0.00    +0.000 OA
ENDBRANCH   1   8
BRANCH   6   9
ATOM      9  O   UNL     1      11.691   8.225   7.237  0.00  0.00    +0.000 OA
ATOM     10  H   UNL     1      12.124   7.373   7.042  0.00  0.00    +0.000 HD
ENDBRANCH   6   9
TORSDOF 2
ENDMDL
