MODEL 1
REMARK VINA RESULT:    -5.934      0.000      0.000
REMARK INTER + INTRA:          -8.246
REMARK INTER:                  -8.016
REMARK INTRA:                  -0.231
REMARK UNBOUND:                -0.231
REMARK  Name = 
REMARK  10 active torsions:
REMARK  status: ('A' for Active; 'I' for Inactive)
REMARK    1  A    between atoms: C_1  and  C_2
REMARK    2  A    between atoms: C_5  and  N_8
REMARK    3  A    between atoms: N_8  and  C_9
REMARK    4  A    between atoms: N_8  and  C_13
REMARK    5  A    between atoms: C_9  and  C_10
REMARK    6  A    between atoms: C_10  and  C_11
REMARK    7  A    between atoms: C_10  and  O_12
REMARK    8  A    between atoms: C_13  and  C_14
REMARK    9  A    between atoms: C_14  and  C_15
REMARK   10  A    between atoms: C_14  and  O_16
REMARK                            x       y       z     vdW  Elec       q    Type
REMARK                         _______ _______ _______ _____ _____    ______ ____
ROOT
ATOM      1  N   UNL     1       8.670  10.349   3.992  0.00  0.00    +0.000 N 
ENDROOT
BRANCH   1   6
ATOM      2  C   UNL     1       9.394  10.502   9.717  0.00  0.00    +0.000 C 
ATOM      3  C   UNL     1       9.224  10.445   8.230  0.00  0.00    +0.000 A 
ATOM      4  C   UNL     1       9.950  11.287   7.395  0.00  0.00    +0.000 A 
ATOM      5  C   UNL     1       9.764  11.249   6.003  0.00  0.00    +0.000 A 
ATOM      6  C   UNL     1       8.836  10.394   5.382  0.00  0.00    +0.000 A 
ATOM      7  C   UNL     1       8.121   9.556   6.257  0.00  0.00    +0.000 A 
ATOM      8  C   UNL     1       8.298   9.582   7.650  0.00  0.00    +0.000 A 
ENDBRANCH   1   6
BRANCH   1   9
ATOM      9  C   UNL     1       9.108  11.490   3.153  0.00  0.00    +0.000 C 
BRANCH   9  10
ATOM     10  C   UNL     1      10.482  11.247   2.480  0.00  0.00    +0.000 C 
ATOM     11  C   UNL     1      11.259  10.155   3.206  0.00  0.00    +0.000 C 
BRANCH  10  12
ATOM     12  O   UNL     1      10.321  10.844   1.113  0.00  0.00    +0.000 OA
ATOM     13  H   UNL     1      10.805  11.475   0.554  0.00  0.00    +0.000 HD
ENDBRANCH  10  12
ENDBRANCH   9  10
ENDBRANCH   1   9
BRANCH   1  14
ATOM     14  C   UNL     1       7.645   9.473   3.369  0.00  0.00    +0.000 C 
BRANCH  14  15
ATOM     15  C   UNL     1       8.263   8.191   2.761  0.00  0.00    +0.000 C 
ATOM     16  C   UNL     1       8.093   6.964   3.650  0.00  0.00    +0.000 C 
BRANCH  15  17
ATOM     17  O   UNL     1       7.704   7.891   1.483  0.00  0.00    +0.000 OA
ATOM     18  H   UNL     1       6.968   8.526   1.373  0.00  0.00    +0.000 HD
ENDBRANCH  15  17
ENDBRANCH  14  15
ENDBRANCH   1  14
TORSDOF 7
ENDMDL
MODEL 2
REMARK VINA RESULT:    -5.913      0.049      1.191
REMARK INTER + INTRA:          -8.218
REMARK INTER:                  -7.964
REMARK INTRA:                  -0.254
REMARK UNBOUND:                -0.231
REMARK  Name = 
REMARK  10 active torsions:
REMARK  status: ('A' for Active; 'I' for Inactive)
REMARK    1  A    between atoms: C_1  and  C_2
REMARK    2  A    between atoms: C_5  and  N_8
REMARK    3  A    between atoms: N_8  and  C_9
REMARK    4  A    between atoms: N_8  and  C_13
REMARK    5  A    between atoms: C_9  and  C_10
REMARK    6  A    between atoms: C_10  and  C_11
REMARK    7  A    between atoms: C_10  and  O_12
REMARK    8  A    between atoms: C_13  and  C_14
REMARK    9  A    between atoms: C_14  and  C_15
REMARK   10  A    between atoms: C_14  and  O_16
REMARK                            x       y       z     vdW  Elec       q    Type
REMARK                         _______ _______ _______ _____ _____    ______ ____
ROOT
ATOM      1  N   UNL     1       8.710  10.358   3.981  0.00  0.00    +0.000 N 
ENDROOT
BRANCH   1   6
ATOM      2  C   UNL     1       9.355  10.446   9.718  0.00  0.00    +0.000 C 
ATOM      3  C   UNL     1       9.170  10.440   8.231  0.00  0.00    +0.000 A 
ATOM      4  C   UNL     1       8.285   9.555   7.625  0.00  0.00    +0.000 A 
ATOM      5  C   UNL     1       8.138   9.534   6.228  0.00  0.00    +0.000 A 
ATOM      6  C   UNL     1       8.876  10.371   5.372  0.00  0.00    +0.000 A 
ATOM      7  C   UNL     1       9.759  11.254   6.020  0.00  0.00    +0.000 A 
ATOM      8  C   UNL     1       9.914  11.287   7.415  0.00  0.00    +0.000 A 
ENDBRANCH   1   6
BRANCH   1   9
ATOM      9  C   UNL     1       9.161  11.512   3.168  0.00  0.00    +0.000 C 
BRANCH   9  10
ATOM     10  C   UNL     1      10.532  11.270   2.491  0.00  0.00    +0.000 C 
ATOM     11  C   UNL     1      11.300  10.159   3.198  0.00  0.00    +0.000 C 
BRANCH  10  12
ATOM     12  O   UNL     1      10.369  10.892   1.117  0.00  0.00    +0.000 OA
ATOM     13  H   UNL     1      10.944  10.129   0.944  0.00  0.00    +0.000 HD
ENDBRANCH  10  12
ENDBRANCH   9  10
ENDBRANCH   1   9
BRANCH   1  14
ATOM     14  C   UNL     1       7.675   9.508   3.339  0.00  0.00    +0.000 C 
BRANCH  14  15
ATOM     15  C   UNL     1       8.274   8.219   2.728  0.00  0.00    +0.000 C 
ATOM     16  C   UNL     1       8.101   6.995   3.620  0.00  0.00    +0.000 C 
BRANCH  15  17
ATOM     17  O   UNL     1       7.701   7.922   1.455  0.00  0.00    +0.000 OA
ATOM     18  H   UNL     1       6.737   8.032   1.580  0.00  0.00    +0.000 HD
ENDBRANCH  15  17
ENDBRANCH  14  15
ENDBRANCH   1  14
TORSDOF 7
ENDMDL
MODEL 3
REMARK VINA RESULT:    -5.875      0.796      2.991
REMARK INTER + INTRA:          -8.167
REMARK INTER:                  -7.787
REMARK INTRA:                  -0.380
REMARK UNBOUND:                -0.231
REMARK  Name = 
REMARK  10 active torsions:
REMARK  status: ('A' for Active; 'I' for Inactive)
REMARK    1  A    between atoms: C_1  and  C_2
REMARK    2  A    between atoms: C_5  and  N_8
REMARK    3  A    between atoms: N_8  and  C_9
REMARK    4  A    between atoms: N_8  and  C_13
REMARK    5  A    between atoms: C_9  and  C_10
REMARK    6  A    between atoms: C_10  and  C_11
REMARK    7  A    between atoms: C_10  and  O_12
REMARK    8  A    between atoms: C_13  and  C_14
REMARK    9  A    between atoms: C_14  and  C_15
REMARK   10  A    between atoms: C_14  and  O_16
REMARK                            x       y       z     vdW  Elec       q    Type
REMARK                         _______ _______ _______ _____ _____    ______ ____
ROOT
ATOM      1  N   UNL     1       9.172   9.843   4.253  0.00  0.00    +0.000 N 
ENDROOT
BRANCH   1   6
ATOM      2  C   UNL     1       9.947  11.537   9.718  0.00  0.00    +0.000 C 
ATOM      3  C   UNL     1       9.762  11.079   8.304  0.00  0.00    +0.000 A 
ATOM      4  C   UNL     1      10.532  11.610   7.275  0.00  0.00    +0.000 A 
ATOM      5  C   UNL     1      10.334  11.199   5.946  0.00  0.00    +0.000 A 
ATOM      6  C   UNL     1       9.351  10.263   5.578  0.00  0.00    +0.000 A 
ATOM      7  C   UNL     1       8.593   9.746   6.644  0.00  0.00    +0.000 A 
ATOM      8  C   UNL     1       8.782  10.146   7.977  0.00  0.00    +0.000 A 
ENDBRANCH   1   6
BRANCH   1   9
ATOM      9  C   UNL     1       8.003   9.006   3.890  0.00  0.00    +0.000 C 
BRANCH   9  10
ATOM     10  C   UNL     1       8.372   7.841   2.940  0.00  0.00    +0.000 C 
ATOM     11  C   UNL     1       8.069   6.494   3.585  0.00  0.00    +0.000 C 
BRANCH  10  12
ATOM     12  O   UNL     1       7.632   7.923   1.714  0.00  0.00    +0.000 OA
ATOM     13  H   UNL     1       8.260   7.842   0.977  0.00  0.00    +0.000 HD
ENDBRANCH  10  12
ENDBRANCH   9  10
ENDBRANCH   1   9
BRANCH   1  14
ATOM     14  C   UNL     1      10.318   9.757   3.313  0.00  0.00    +0.000 C 
BRANCH  14  15
ATOM     15  C   UNL     1      10.270  10.861   2.229  0.00  0.00    +0.000 C 
ATOM     16  C   UNL     1       9.336  12.011   2.586  0.00  0.00    +0.000 C 
BRANCH  15  17
ATOM     17  O   UNL     1      11.563  11.405   1.972  0.00  0.00    +0.000 OA
ATOM     18  H   UNL     1      11.589  12.243   2.477  0.00  0.00    +0.000 HD
ENDBRANCH  15  17
ENDBRANCH  14  15
ENDBRANCH   1  14
TORSDOF 7
ENDMDL
MODEL 4
REMARK VINA RESULT:    -5.816      0.795      3.215
REMARK INTER + INTRA:          -8.087
REMARK INTER:                  -7.704
REMARK INTRA:                  -0.383
REMARK UNBOUND:                -0.231
REMARK  Name = 
REMARK  10 active torsions:
REMARK  status: ('A' for Active; 'I' for Inactive)
REMARK    1  A    between atoms: C_1  and  C_2
REMARK    2  A    between atoms: C_5  and  N_8
REMARK    3  A    between atoms: N_8  and  C_9
REMARK    4  A    between atoms: N_8  and  C_13
REMARK    5  A    between atoms: C_9  and  C_10
REMARK    6  A    between atoms: C_10  and  C_11
REMARK    7  A    between atoms: C_10  and  O_12
REMARK    8  A    between atoms: C_13  and  C_14
REMARK    9  A    between atoms: C_14  and  C_15
REMARK   10  A    between atoms: C_14  and  O_16
REMARK                            x       y       z     vdW  Elec       q    Type
REMARK                         _______ _______ _______ _____ _____    ______ ____
ROOT
ATOM      1  N   UNL     1       9.194   9.830   4.252  0.00  0.00    +0.000 N 
ENDROOT
BRANCH   1   6
ATOM      2  C   UNL     1       9.944  11.529   9.718  0.00  0.00    +0.000 C 
ATOM      3  C   UNL     1       9.733  11.107   8.296  0.00  0.00    +0.000 A 
ATOM      4  C   UNL     1       8.787  10.140   7.972  0.00  0.00    +0.000 A 
ATOM      5  C   UNL     1       8.614   9.726   6.641  0.00  0.00    +0.000 A 
ATOM      6  C   UNL     1       9.385  10.233   5.580  0.00  0.00    +0.000 A 
ATOM      7  C   UNL     1      10.330  11.210   5.944  0.00  0.00    +0.000 A 
ATOM      8  C   UNL     1      10.512  11.634   7.271  0.00  0.00    +0.000 A 
ENDBRANCH   1   6
BRANCH   1   9
ATOM      9  C   UNL     1       8.024   8.994   3.890  0.00  0.00    +0.000 C 
BRANCH   9  10
ATOM     10  C   UNL     1       8.394   7.817   2.955  0.00  0.00    +0.000 C 
ATOM     11  C   UNL     1       8.086   6.478   3.616  0.00  0.00    +0.000 C 
BRANCH  10  12
ATOM     12  O   UNL     1       7.657   7.885   1.726  0.00  0.00    +0.000 OA
ATOM     13  H   UNL     1       7.847   8.741   1.308  0.00  0.00    +0.000 HD
ENDBRANCH  10  12
ENDBRANCH   9  10
ENDBRANCH   1   9
BRANCH   1  14
ATOM     14  C   UNL     1      10.331   9.758   3.299  0.00  0.00    +0.000 C 
BRANCH  14  15
ATOM     15  C   UNL     1      10.255  10.858   2.214  0.00  0.00    +0.000 C 
ATOM     16  C   UNL     1       9.329  12.009   2.591  0.00  0.00    +0.000 C 
BRANCH  15  17
ATOM     17  O   UNL     1      11.541  11.404   1.924  0.00  0.00    +0.000 OA
ATOM     18  H   UNL     1      12.114  11.103   2.658  0.00  0.00    +0.000 HD
ENDBRANCH  15  17
ENDBRANCH  14  15
ENDBRANCH   1  14
TORSDOF 7
ENDMDL
MODEL 5
REMARK VINA RESULT:    -5.086      1.547      2.088
REMARK INTER + INTRA:          -7.101
REMARK INTER:                  -6.830
REMARK INTRA:                  -0.271
REMARK UNBOUND:                -0.231
REMARK  Name = 
REMARK  10 active torsions:
REMARK  status: ('A' for Active; 'I' for Inactive)
REMARK    1  A    between atoms: C_1  and  C_2
REMARK    2  A    between atoms: C_5  and  N_8
REMARK    3  A    between atoms: N_8  and  C_9
REMARK    4  A    between atoms: N_8  and  C_13
REMARK    5  A    between atoms: C_9  and  C_10
REMARK    6  A    between atoms: C_10  and  C_11
REMARK    7  A    between atoms: C_10  and  O_12
REMARK    8  A    between atoms: C_13  and  C_14
REMARK    9  A    between atoms: C_14  and  C_15
REMARK   10  A    between atoms: C_14  and  O_16
REMARK                            x       y       z     vdW  Elec       q    Type
REMARK                         _______ _______ _______ _____ _____    ______ ____
ROOT
ATOM      1  N   UNL     1       9.353  10.448   4.874  0.00  0.00    +0.000 N 
ENDROOT
BRANCH   1   6
ATOM      2  C   UNL     1      11.897  12.510   9.628  0.00  0.00    +0.000 C 
ATOM      3  C   UNL     1      11.245  11.995   8.382  0.00  0.00    +0.000 A 
ATOM      4  C   UNL     1       9.917  12.293   8.095  0.00  0.00    +0.000 A 
ATOM      5  C   UNL     1       9.302  11.783   6.940  0.00  0.00    +0.000 A 
ATOM      6  C   UNL     1       9.967  10.937   6.033  0.00  0.00    +0.000 A 
ATOM      7  C   UNL     1      11.308  10.659   6.354  0.00  0.00    +0.000 A 
ATOM      8  C   UNL     1      11.936  11.165   7.505  0.00  0.00    +0.000 A 
ENDBRANCH   1   6
BRANCH   1   9
ATOM      9  C   UNL     1       8.668  11.379   3.945  0.00  0.00    +0.000 C 
BRANCH   9  10
ATOM     10  C   UNL     1       9.551  11.781   2.738  0.00  0.00    +0.000 C 
ATOM     11  C   UNL     1      10.813  10.928   2.678  0.00  0.00    +0.000 C 
BRANCH  10  12
ATOM     12  O   UNL     1       8.842  11.613   1.503  0.00  0.00    +0.000 OA
ATOM     13  H   UNL     1       7.913  11.420   1.713  0.00  0.00    +0.000 HD
ENDBRANCH  10  12
ENDBRANCH   9  10
ENDBRANCH   1   9
BRANCH   1  14
ATOM     14  C   UNL     1       8.914   9.032   4.775  0.00  0.00    +0.000 C 
BRANCH  14  15
ATOM     15  C   UNL     1       8.071   8.769   3.504  0.00  0.00    +0.000 C 
ATOM     16  C   UNL     1       8.752   7.827   2.518  0.00  0.00    +0.000 C 
BRANCH  15  17
ATOM     17  O   UNL     1       6.791   8.225   3.823  0.00  0.00    +0.000 OA
ATOM     18  H   UNL     1       6.965   7.564   4.523  0.00  0.00    +0.000 HD
ENDBRANCH  15  17
ENDBRANCH  14  15
ENDBRANCH   1  14
TORSDOF 7
ENDMDL
MODEL 6
REMARK VINA RESULT:    -4.967      3.763      6.276
REMARK INTER + INTRA:          -6.940
REMARK INTER:                  -6.329
REMARK INTRA:                  -0.610
REMARK UNBOUND:                -0.231
REMARK  Name = 
REMARK  10 active torsions:
REMARK  status: ('A' for Active; 'I' for Inactive)
REMARK    1  A    between atoms: C_1  and  C_2
REMARK    2  A    between atoms: C_5  and  N_8
REMARK    3  A    between atoms: N_8  and  C_9
REMARK    4  A    between atoms: N_8  and  C_13
REMARK    5  A    between atoms: C_9  and  C_10
REMARK    6  A    between atoms: C_10  and  C_11
REMARK    7  A    between atoms: C_10  and  O_12
REMARK    8  A    between atoms: C_13  and  C_14
REMARK    9  A    between atoms: C_14  and  C_15
REMARK   10  A    between atoms: C_14  and  O_16
REMARK                            x       y       z     vdW  Elec       q    Type
REMARK                         _______ _______ _______ _____ _____    ______ ____
ROOT
ATOM      1  N   UNL     1      10.525  11.468   8.257  0.00  0.00    +0.000 N 
ENDROOT
BRANCH   1   6
ATOM      2  C   UNL     1       8.559  11.470   2.829  0.00  0.00    +0.000 C 
ATOM      3  C   UNL     1       9.086  11.487   4.231  0.00  0.00    +0.000 A 
ATOM      4  C   UNL     1      10.117  10.638   4.618  0.00  0.00    +0.000 A 
ATOM      5  C   UNL     1      10.586  10.637   5.942  0.00  0.00    +0.000 A 
ATOM      6  C   UNL     1      10.039  11.460   6.943  0.00  0.00    +0.000 A 
ATOM      7  C   UNL     1       9.000  12.307   6.516  0.00  0.00    +0.000 A 
ATOM      8  C   UNL     1       8.523  12.319   5.195  0.00  0.00    +0.000 A 
ENDBRANCH   1   6
BRANCH   1   9
ATOM      9  C   UNL     1       9.595  11.269   9.395  0.00  0.00    +0.000 C 
BRANCH   9  10
ATOM     10  C   UNL     1       9.342   9.774   9.709  0.00  0.00    +0.000 C 
ATOM     11  C   UNL     1       8.422   9.147   8.668  0.00  0.00    +0.000 C 
BRANCH  10  12
ATOM     12  O   UNL     1      10.571   9.035   9.718  0.00  0.00    +0.000 OA
ATOM     13  H   UNL     1      10.553   8.430  10.478  0.00  0.00    +0.000 HD
ENDBRANCH  10  12
ENDBRANCH   9  10
ENDBRANCH   1   9
BRANCH   1  14
ATOM     14  C   UNL     1      11.797  12.154   8.602  0.00  0.00    +0.000 C 
BRANCH  14  15
ATOM     15  C   UNL     1      13.034  11.270   8.316  0.00  0.00    +0.000 C 
ATOM     16  C   UNL     1      14.353  11.957   8.652  0.00  0.00    +0.000 C 
BRANCH  15  17
ATOM     17  O   UNL     1      12.981  10.040   9.037  0.00  0.00    +0.000 OA
ATOM     18  H   UNL     1      13.795   9.561   8.781  0.00  0.00    +0.000 HD
ENDBRANCH  15  17
ENDBRANCH  14  15
ENDBRANCH   1  14
TORSDOF 7
ENDMDL
MODEL 7
REMARK VINA RESULT:    -4.893      1.800      3.490
REMARK INTER + INTRA:          -6.841
REMARK INTER:                  -6.957
REMARK INTRA:                   0.116
REMARK UNBOUND:                -0.231
REMARK  Name = 
REMARK  10 active torsions:
REMARK  status: ('A' for Active; 'I' for Inactive)
REMARK    1  A    between atoms: C_1  and  C_2
REMARK    2  A    between atoms: C_5  and  N_8
REMARK    3  A    between atoms: N_8  and  C_9
REMARK    4  A    between atoms: N_8  and  C_13
REMARK    5  A    between atoms: C_9  and  C_10
REMARK    6  A    between atoms: C_10  and  C_11
REMARK    7  A    between atoms: C_10  and  O_12
REMARK    8  A    between atoms: C_13  and  C_14
REMARK    9  A    between atoms: C_14  and  C_15
REMARK   10  A    between atoms: C_14  and  O_16
REMARK                            x       y       z     vdW  Elec       q    Type
REMARK                         _______ _______ _______ _____ _____    ______ ____
ROOT
ATOM      1  N   UNL     1       9.051  11.465   4.962  0.00  0.00    +0.000 N 
ENDROOT
BRANCH   1   6
ATOM      2  C   UNL     1      12.374  11.850   9.667  0.00  0.00    +0.000 C 
ATOM      3  C   UNL     1      11.500  11.730   8.456  0.00  0.00    +0.000 A 
ATOM      4  C   UNL     1      11.903  10.981   7.356  0.00  0.00    +0.000 A 
ATOM      5  C   UNL     1      11.093  10.897   6.211  0.00  0.00    +0.000 A 
ATOM      6  C   UNL     1       9.863  11.569   6.099  0.00  0.00    +0.000 A 
ATOM      7  C   UNL     1       9.486  12.315   7.231  0.00  0.00    +0.000 A 
ATOM      8  C   UNL     1      10.286  12.405   8.382  0.00  0.00    +0.000 A 
ENDBRANCH   1   6
BRANCH   1   9
ATOM      9  C   UNL     1       7.836  10.615   4.991  0.00  0.00    +0.000 C 
BRANCH   9  10
ATOM     10  C   UNL     1       8.098   9.215   5.597  0.00  0.00    +0.000 C 
ATOM     11  C   UNL     1       7.732   9.184   7.077  0.00  0.00    +0.000 C 
BRANCH  10  12
ATOM     12  O   UNL     1       7.322   8.211   4.927  0.00  0.00    +0.000 OA
ATOM     13  H   UNL     1       6.408   8.271   5.250  0.00  0.00    +0.000 HD
ENDBRANCH  10  12
ENDBRANCH   9  10
ENDBRANCH   1   9
BRANCH   1  14
ATOM     14  C   UNL     1       9.590  11.737   3.605  0.00  0.00    +0.000 C 
BRANCH  14  15
ATOM     15  C   UNL     1      10.663  10.703   3.184  0.00  0.00    +0.000 C 
ATOM     16  C   UNL     1      10.070   9.432   2.588  0.00  0.00    +0.000 C 
BRANCH  15  17
ATOM     17  O   UNL     1      11.579  11.250   2.236  0.00  0.00    +0.000 OA
ATOM     18  H   UNL     1      11.750  10.524   1.603  0.00  0.00    +0.000 HD
ENDBRANCH  15  17
ENDBRANCH  14  15
ENDBRANCH   1  14
TORSDOF 7
ENDMDL
MODEL 8
REMARK VINA RESULT:    -4.344      3.476      5.537
REMARK INTER + INTRA:          -6.099
REMARK INTER:                  -5.581
REMARK INTRA:                  -0.518
REMARK UNBOUND:                -0.231
REMARK  Name = 
REMARK  10 active torsions:
REMARK  status: ('A' for Active; 'I' for Inactive)
REMARK    1  A    between atoms: C_1  and  C_2
REMARK    2  A    between atoms: C_5  and  N_8
REMARK    3  A    between atoms: N_8  and  C_9
REMARK    4  A    between atoms: N_8  and  C_13
REMARK    5  A    between atoms: C_9  and  C_10
REMARK    6  A    between atoms: C_10  and  C_11
REMARK    7  A    between atoms: C_10  and  O_12
REMARK    8  A    between atoms: C_13  and  C_14
REMARK    9  A    between atoms: C_14  and  C_15
REMARK   10  A    between atoms: C_14  and  O_16
REMARK                            x       y       z     vdW  Elec       q    Type
REMARK                         _______ _______ _______ _____ _____    ______ ____
ROOT
ATOM      1  N   UNL     1      10.519  11.314   7.480  0.00  0.00    +0.000 N 
ENDROOT
BRANCH   1   6
ATOM      2  C   UNL     1       8.097  11.388   2.240  0.00  0.00    +0.000 C 
ATOM      3  C   UNL     1       8.710  11.350   3.606  0.00  0.00    +0.000 A 
ATOM      4  C   UNL     1       8.229  12.162   4.628  0.00  0.00    +0.000 A 
ATOM      5  C   UNL     1       8.827  12.145   5.898  0.00  0.00    +0.000 A 
ATOM      6  C   UNL     1       9.939  11.341   6.205  0.00  0.00    +0.000 A 
ATOM      7  C   UNL     1      10.398  10.532   5.149  0.00  0.00    +0.000 A 
ATOM      8  C   UNL     1       9.808  10.538   3.874  0.00  0.00    +0.000 A 
ENDBRANCH   1   6
BRANCH   1   9
ATOM      9  C   UNL     1      11.992  11.236   7.625  0.00  0.00    +0.000 C 
BRANCH   9  10
ATOM     10  C   UNL     1      12.432  10.758   9.031  0.00  0.00    +0.000 C 
ATOM     11  C   UNL     1      13.325   9.527   8.933  0.00  0.00    +0.000 C 
BRANCH  10  12
ATOM     12  O   UNL     1      13.162  11.784   9.718  0.00  0.00    +0.000 OA
ATOM     13  H   UNL     1      13.037  12.618   9.236  0.00  0.00    +0.000 HD
ENDBRANCH  10  12
ENDBRANCH   9  10
ENDBRANCH   1   9
BRANCH   1  14
ATOM     14  C   UNL     1       9.749  10.854   8.664  0.00  0.00    +0.000 C 
BRANCH  14  15
ATOM     15  C   UNL     1       9.163   9.436   8.465  0.00  0.00    +0.000 C 
ATOM     16  C   UNL     1       9.346   8.535   9.681  0.00  0.00    +0.000 C 
BRANCH  15  17
ATOM     17  O   UNL     1       7.771   9.480   8.154  0.00  0.00    +0.000 OA
ATOM     18  H   UNL     1       7.692  10.149   7.444  0.00  0.00    +0.000 HD
ENDBRANCH  15  17
ENDBRANCH  14  15
ENDBRANCH   1  14
TORSDOF 7
ENDMDL
