MODEL 1
REMARK VINA RESULT:    -5.991      0.000      0.000
REMARK INTER + INTRA:          -8.521
REMARK INTER:                  -8.092
REMARK INTRA:                  -0.429
REMARK UNBOUND:                -0.429
REMARK  Name = 
REMARK  10 active torsions:
REMARK  status: ('A' for Active; 'I' for Inactive)
REMARK    1  A    between atoms: C_1  and  C_2
REMARK    2  A    between atoms: C_5  and  N_8
REMARK    3  A    between atoms: N_8  and  C_9
REMARK    4  A    between atoms: N_8  and  C_13
REMARK    5  A    between atoms: C_9  and  C_10
REMARK    6  A    between atoms: C_10  and  C_11
REMARK    7  A    between atoms: C_10  and  O_12
REMARK    8  A    between atoms: C_13  and  C_14
REMARK    9  A    between atoms: C_14  and  C_15
REMARK   10  A    between atoms: C_14  and  O_16
REMARK                            x       y       z     vdW  Elec       q    Type
REMARK                         _______ _______ _______ _____ _____    ______ ____
ROOT
ATOM      1  N   UNL     1       9.575   7.833   6.228  0.00  0.00    +0.000 N 
ENDROOT
BRANCH   1   6
ATOM      2  C   UNL     1      14.510   9.180   3.553  0.00  0.00    +0.000 C 
ATOM      3  C   UNL     1      13.217   8.844   4.230  0.00  0.00    +0.000 A 
ATOM      4  C   UNL     1      12.726   9.633   5.264  0.00  0.00    +0.000 A 
ATOM      5  C   UNL     1      11.528   9.297   5.916  0.00  0.00    +0.000 A 
ATOM      6  C   UNL     1      10.779   8.153   5.587  0.00  0.00    +0.000 A 
ATOM      7  C   UNL     1      11.304   7.379   4.536  0.00  0.00    +0.000 A 
ATOM      8  C   UNL     1      12.499   7.705   3.874  0.00  0.00    +0.000 A 
ENDBRANCH   1   6
BRANCH   1   9
ATOM      9  C   UNL     1       8.556   7.013   5.530  0.00  0.00    +0.000 C 
BRANCH   9  10
ATOM     10  C   UNL     1       7.162   7.088   6.201  0.00  0.00    +0.000 C 
ATOM     11  C   UNL     1       6.073   7.348   5.168  0.00  0.00    +0.000 C 
BRANCH  10  12
ATOM     12  O   UNL     1       6.850   5.862   6.877  0.00  0.00    +0.000 OA
ATOM     13  H   UNL     1       7.685   5.404   7.071  0.00  0.00    +0.000 HD
ENDBRANCH  10  12
ENDBRANCH   9  10
ENDBRANCH   1   9
BRANCH   1  14
ATOM     14  C   UNL     1       9.050   8.668   7.339  0.00  0.00    +0.000 C 
BRANCH  14  15
ATOM     15  C   UNL     1       9.360   8.057   8.726  0.00  0.00    +0.000 C 
ATOM     16  C   UNL     1       8.422   8.549   9.822  0.00  0.00    +0.000 C 
BRANCH  15  17
ATOM     17  O   UNL     1       9.300   6.632   8.700  0.00  0.00    +0.000 OA
ATOM     18  H   UNL     1       9.542   6.385   7.784  0.00  0.00    +0.000 HD
ENDBRANCH  15  17
ENDBRANCH  14  15
ENDBRANCH   1  14
TORSDOF 7
ENDMDL
MODEL 2
REMARK VINA RESULT:    -5.939      0.700      3.082
REMARK INTER + INTRA:          -8.452
REMARK INTER:                  -8.178
REMARK INTRA:                  -0.274
REMARK UNBOUND:                -0.429
REMARK  Name = 
REMARK  10 active torsions:
REMARK  status: ('A' for Active; 'I' for Inactive)
REMARK    1  A    between atoms: C_1  and  C_2
REMARK    2  A    between atoms: C_5  and  N_8
REMARK    3  A    between atoms: N_8  and  C_9
REMARK    4  A    between atoms: N_8  and  C_13
REMARK    5  A    between atoms: C_9  and  C_10
REMARK    6  A    between atoms: C_10  and  C_11
REMARK    7  A    between atoms: C_10  and  O_12
REMARK    8  A    between atoms: C_13  and  C_14
REMARK    9  A    between atoms: C_14  and  C_15
REMARK   10  A    between atoms: C_14  and  O_16
REMARK                            x       y       z     vdW  Elec       q    Type
REMARK                         _______ _______ _______ _____ _____    ______ ____
ROOT
ATOM      1  N   UNL     1       9.359   8.071   6.147  0.00  0.00    +0.000 N 
ENDROOT
BRANCH   1   6
ATOM      2  C   UNL     1      14.421   9.185   3.605  0.00  0.00    +0.000 C 
ATOM      3  C   UNL     1      13.120   8.885   4.283  0.00  0.00    +0.000 A 
ATOM      4  C   UNL     1      12.429   7.707   4.016  0.00  0.00    +0.000 A 
ATOM      5  C   UNL     1      11.195   7.446   4.633  0.00  0.00    +0.000 A 
ATOM      6  C   UNL     1      10.581   8.347   5.521  0.00  0.00    +0.000 A 
ATOM      7  C   UNL     1      11.308   9.526   5.769  0.00  0.00    +0.000 A 
ATOM      8  C   UNL     1      12.544   9.799   5.161  0.00  0.00    +0.000 A 
ENDBRANCH   1   6
BRANCH   1   9
ATOM      9  C   UNL     1       9.124   8.508   7.544  0.00  0.00    +0.000 C 
BRANCH   9  10
ATOM     10  C   UNL     1       9.424   7.395   8.579  0.00  0.00    +0.000 C 
ATOM     11  C   UNL     1      10.913   7.071   8.615  0.00  0.00    +0.000 C 
BRANCH  10  12
ATOM     12  O   UNL     1       9.025   7.797   9.897  0.00  0.00    +0.000 OA
ATOM     13  H   UNL     1       9.553   8.573  10.148  0.00  0.00    +0.000 HD
ENDBRANCH  10  12
ENDBRANCH   9  10
ENDBRANCH   1   9
BRANCH   1  14
ATOM     14  C   UNL     1       8.496   6.952   5.689  0.00  0.00    +0.000 C 
BRANCH  14  15
ATOM     15  C   UNL     1       7.049   7.074   6.224  0.00  0.00    +0.000 C 
ATOM     16  C   UNL     1       6.035   7.408   5.136  0.00  0.00    +0.000 C 
BRANCH  15  17
ATOM     17  O   UNL     1       6.623   5.876   6.871  0.00  0.00    +0.000 OA
ATOM     18  H   UNL     1       5.645   5.909   6.848  0.00  0.00    +0.000 HD
ENDBRANCH  15  17
ENDBRANCH  14  15
ENDBRANCH   1  14
TORSDOF 7
ENDMDL
MODEL 3
REMARK VINA RESULT:    -5.692      2.625      6.001
REMARK INTER + INTRA:          -8.118
REMARK INTER:                  -7.729
REMARK INTRA:                  -0.389
REMARK UNBOUND:                -0.429
REMARK  Name = 
REMARK  10 active torsions:
REMARK  status: ('A' for Active; 'I' for Inactive)
REMARK    1  A    between atoms: C_1  and  C_2
REMARK    2  A    between atoms: C_5  and  N_8
REMARK    3  A    between atoms: N_8  and  C_9
REMARK    4  A    between atoms: N_8  and  C_13
REMARK    5  A    between atoms: C_9  and  C_10
REMARK    6  A    between atoms: C_10  and  C_11
REMARK    7  A    between atoms: C_10  and  O_12
REMARK    8  A    between atoms: C_13  and  C_14
REMARK    9  A    between atoms: C_14  and  C_15
REMARK   10  A    between atoms: C_14  and  O_16
REMARK                            x       y       z     vdW  Elec       q    Type
REMARK                         _______ _______ _______ _____ _____    ______ ____
ROOT
ATOM      1  N   UNL     1      11.407   8.597   5.585  0.00  0.00    +0.000 N 
ENDROOT
BRANCH   1   6
ATOM      2  C   UNL     1       6.017   7.044   6.953  0.00  0.00    +0.000 C 
ATOM      3  C   UNL     1       7.424   7.425   6.607  0.00  0.00    +0.000 A 
ATOM      4  C   UNL     1       8.204   8.160   7.495  0.00  0.00    +0.000 A 
ATOM      5  C   UNL     1       9.512   8.541   7.153  0.00  0.00    +0.000 A 
ATOM      6  C   UNL     1      10.095   8.231   5.911  0.00  0.00    +0.000 A 
ATOM      7  C   UNL     1       9.279   7.485   5.040  0.00  0.00    +0.000 A 
ATOM      8  C   UNL     1       7.970   7.097   5.370  0.00  0.00    +0.000 A 
ENDBRANCH   1   6
BRANCH   1   9
ATOM      9  C   UNL     1      11.709   9.987   5.168  0.00  0.00    +0.000 C 
BRANCH   9  10
ATOM     10  C   UNL     1      12.985  10.551   5.840  0.00  0.00    +0.000 C 
ATOM     11  C   UNL     1      13.931  11.143   4.802  0.00  0.00    +0.000 C 
BRANCH  10  12
ATOM     12  O   UNL     1      12.658  11.582   6.782  0.00  0.00    +0.000 OA
ATOM     13  H   UNL     1      12.429  11.157   7.625  0.00  0.00    +0.000 HD
ENDBRANCH  10  12
ENDBRANCH   9  10
ENDBRANCH   1   9
BRANCH   1  14
ATOM     14  C   UNL     1      12.402   7.584   5.147  0.00  0.00    +0.000 C 
BRANCH  14  15
ATOM     15  C   UNL     1      12.779   7.742   3.655  0.00  0.00    +0.000 C 
ATOM     16  C   UNL     1      14.021   6.951   3.263  0.00  0.00    +0.000 C 
BRANCH  15  17
ATOM     17  O   UNL     1      11.712   7.342   2.796  0.00  0.00    +0.000 OA
ATOM     18  H   UNL     1      11.372   6.510   3.185  0.00  0.00    +0.000 HD
ENDBRANCH  15  17
ENDBRANCH  14  15
ENDBRANCH   1  14
TORSDOF 7
ENDMDL
MODEL 4
REMARK VINA RESULT:    -5.678      2.928      5.676
REMARK INTER + INTRA:          -8.099
REMARK INTER:                  -7.355
REMARK INTRA:                  -0.744
REMARK UNBOUND:                -0.429
REMARK  Name = 
REMARK  10 active torsions:
REMARK  status: ('A' for Active; 'I' for Inactive)
REMARK    1  A    between atoms: C_1  and  C_2
REMARK    2  A    between atoms: C_5  and  N_8
REMARK    3  A    between atoms: N_8  and  C_9
REMARK    4  A    between atoms: N_8  and  C_13
REMARK    5  A    between atoms: C_9  and  C_10
REMARK    6  A    between atoms: C_10  and  C_11
REMARK    7  A    between atoms: C_10  and  O_12
REMARK    8  A    between atoms: C_13  and  C_14
REMARK    9  A    between atoms: C_14  and  C_15
REMARK   10  A    between atoms: C_14  and  O_16
REMARK                            x       y       z     vdW  Elec       q    Type
REMARK                         _______ _______ _______ _____ _____    ______ ____
ROOT
ATOM      1  N   UNL     1      11.709   8.347   5.097  0.00  0.00    +0.000 N 
ENDROOT
BRANCH   1   6
ATOM      2  C   UNL     1       6.380   7.059   6.906  0.00  0.00    +0.000 C 
ATOM      3  C   UNL     1       7.760   7.417   6.445  0.00  0.00    +0.000 A 
ATOM      4  C   UNL     1       7.983   7.886   5.155  0.00  0.00    +0.000 A 
ATOM      5  C   UNL     1       9.282   8.191   4.719  0.00  0.00    +0.000 A 
ATOM      6  C   UNL     1      10.418   8.022   5.532  0.00  0.00    +0.000 A 
ATOM      7  C   UNL     1      10.154   7.548   6.831  0.00  0.00    +0.000 A 
ATOM      8  C   UNL     1       8.859   7.241   7.280  0.00  0.00    +0.000 A 
ENDBRANCH   1   6
BRANCH   1   9
ATOM      9  C   UNL     1      12.562   7.313   4.463  0.00  0.00    +0.000 C 
BRANCH   9  10
ATOM     10  C   UNL     1      13.124   7.758   3.091  0.00  0.00    +0.000 C 
ATOM     11  C   UNL     1      13.846   6.607   2.399  0.00  0.00    +0.000 C 
BRANCH  10  12
ATOM     12  O   UNL     1      12.073   8.207   2.225  0.00  0.00    +0.000 OA
ATOM     13  H   UNL     1      12.124   7.698   1.399  0.00  0.00    +0.000 HD
ENDBRANCH  10  12
ENDBRANCH   9  10
ENDBRANCH   1   9
BRANCH   1  14
ATOM     14  C   UNL     1      12.449   9.497   5.676  0.00  0.00    +0.000 C 
BRANCH  14  15
ATOM     15  C   UNL     1      11.903  10.856   5.174  0.00  0.00    +0.000 C 
ATOM     16  C   UNL     1      12.799  12.034   5.538  0.00  0.00    +0.000 C 
BRANCH  15  17
ATOM     17  O   UNL     1      11.722  10.860   3.758  0.00  0.00    +0.000 OA
ATOM     18  H   UNL     1      12.543  10.469   3.397  0.00  0.00    +0.000 HD
ENDBRANCH  15  17
ENDBRANCH  14  15
ENDBRANCH   1  14
TORSDOF 7
ENDMDL
MODEL 5
REMARK VINA RESULT:    -5.466      3.624      6.162
REMARK INTER + INTRA:          -7.813
REMARK INTER:                  -7.123
REMARK INTRA:                  -0.690
REMARK UNBOUND:                -0.429
REMARK  Name = 
REMARK  10 active torsions:
REMARK  status: ('A' for Active; 'I' for Inactive)
REMARK    1  A    between atoms: C_1  and  C_2
REMARK    2  A    between atoms: C_5  and  N_8
REMARK    3  A    between atoms: N_8  and  C_9
REMARK    4  A    between atoms: N_8  and  C_13
REMARK    5  A    between atoms: C_9  and  C_10
REMARK    6  A    between atoms: C_10  and  C_11
REMARK    7  A    between atoms: C_10  and  O_12
REMARK    8  A    between atoms: C_13  and  C_14
REMARK    9  A    between atoms: C_14  and  C_15
REMARK   10  A    between atoms: C_14  and  O_16
REMARK                            x       y       z     vdW  Elec       q    Type
REMARK                         _______ _______ _______ _____ _____    ______ ____
ROOT
ATOM      1  N   UNL     1      12.369   9.504   4.139  0.00  0.00    +0.000 N 
ENDROOT
BRANCH   1   6
ATOM      2  C   UNL     1       7.862   7.780   7.308  0.00  0.00    +0.000 C 
ATOM      3  C   UNL     1       9.021   8.249   6.482  0.00  0.00    +0.000 A 
ATOM      4  C   UNL     1       9.058   8.024   5.111  0.00  0.00    +0.000 A 
ATOM      5  C   UNL     1      10.160   8.440   4.346  0.00  0.00    +0.000 A 
ATOM      6  C   UNL     1      11.282   9.075   4.910  0.00  0.00    +0.000 A 
ATOM      7  C   UNL     1      11.208   9.289   6.299  0.00  0.00    +0.000 A 
ATOM      8  C   UNL     1      10.111   8.880   7.075  0.00  0.00    +0.000 A 
ENDBRANCH   1   6
BRANCH   1   9
ATOM      9  C   UNL     1      13.533   8.610   3.932  0.00  0.00    +0.000 C 
BRANCH   9  10
ATOM     10  C   UNL     1      13.666   8.127   2.467  0.00  0.00    +0.000 C 
ATOM     11  C   UNL     1      13.948   6.630   2.410  0.00  0.00    +0.000 C 
BRANCH  10  12
ATOM     12  O   UNL     1      12.462   8.380   1.730  0.00  0.00    +0.000 OA
ATOM     13  H   UNL     1      12.189   7.550   1.304  0.00  0.00    +0.000 HD
ENDBRANCH  10  12
ENDBRANCH   9  10
ENDBRANCH   1   9
BRANCH   1  14
ATOM     14  C   UNL     1      12.650  10.950   3.943  0.00  0.00    +0.000 C 
BRANCH  14  15
ATOM     15  C   UNL     1      11.757  11.575   2.845  0.00  0.00    +0.000 C 
ATOM     16  C   UNL     1      11.443  13.046   3.092  0.00  0.00    +0.000 C 
BRANCH  15  17
ATOM     17  O   UNL     1      12.352  11.462   1.553  0.00  0.00    +0.000 OA
ATOM     18  H   UNL     1      11.623  11.188   0.962  0.00  0.00    +0.000 HD
ENDBRANCH  15  17
ENDBRANCH  14  15
ENDBRANCH   1  14
TORSDOF 7
ENDMDL
MODEL 6
REMARK VINA RESULT:    -5.012      2.845      4.555
REMARK INTER + INTRA:          -7.199
REMARK INTER:                  -6.695
REMARK INTRA:                  -0.504
REMARK UNBOUND:                -0.429
REMARK  Name = 
REMARK  10 active torsions:
REMARK  status: ('A' for Active; 'I' for Inactive)
REMARK    1  A    between atoms: C_1  and  C_2
REMARK    2  A    between atoms: C_5  and  N_8
REMARK    3  A    between atoms: N_8  and  C_9
REMARK    4  A    between atoms: N_8  and  C_13
REMARK    5  A    between atoms: C_9  and  C_10
REMARK    6  A    between atoms: C_10  and  C_11
REMARK    7  A    between atoms: C_10  and  O_12
REMARK    8  A    between atoms: C_13  and  C_14
REMARK    9  A    between atoms: C_14  and  C_15
REMARK   10  A    between atoms: C_14  and  O_16
REMARK                            x       y       z     vdW  Elec       q    Type
REMARK                         _______ _______ _______ _____ _____    ______ ____
ROOT
ATOM      1  N   UNL     1      11.057   8.681   4.444  0.00  0.00    +0.000 N 
ENDROOT
BRANCH   1   6
ATOM      2  C   UNL     1      12.682  14.037   5.857  0.00  0.00    +0.000 C 
ATOM      3  C   UNL     1      12.236  12.654   5.493  0.00  0.00    +0.000 A 
ATOM      4  C   UNL     1      12.077  11.675   6.467  0.00  0.00    +0.000 A 
ATOM      5  C   UNL     1      11.688  10.372   6.116  0.00  0.00    +0.000 A 
ATOM      6  C   UNL     1      11.463   9.977   4.785  0.00  0.00    +0.000 A 
ATOM      7  C   UNL     1      11.632  10.993   3.826  0.00  0.00    +0.000 A 
ATOM      8  C   UNL     1      12.018  12.301   4.164  0.00  0.00    +0.000 A 
ENDBRANCH   1   6
BRANCH   1   9
ATOM      9  C   UNL     1       9.651   8.262   4.658  0.00  0.00    +0.000 C 
BRANCH   9  10
ATOM     10  C   UNL     1       9.516   7.120   5.694  0.00  0.00    +0.000 C 
ATOM     11  C   UNL     1       9.421   7.678   7.110  0.00  0.00    +0.000 C 
BRANCH  10  12
ATOM     12  O   UNL     1       8.341   6.336   5.447  0.00  0.00    +0.000 OA
ATOM     13  H   UNL     1       7.715   6.493   6.173  0.00  0.00    +0.000 HD
ENDBRANCH  10  12
ENDBRANCH   9  10
ENDBRANCH   1   9
BRANCH   1  14
ATOM     14  C   UNL     1      12.034   7.566   4.360  0.00  0.00    +0.000 C 
BRANCH  14  15
ATOM     15  C   UNL     1      13.083   7.791   3.244  0.00  0.00    +0.000 C 
ATOM     16  C   UNL     1      14.065   6.633   3.101  0.00  0.00    +0.000 C 
BRANCH  15  17
ATOM     17  O   UNL     1      12.466   8.005   1.975  0.00  0.00    +0.000 OA
ATOM     18  H   UNL     1      12.753   8.899   1.702  0.00  0.00    +0.000 HD
ENDBRANCH  15  17
ENDBRANCH  14  15
ENDBRANCH   1  14
TORSDOF 7
ENDMDL
MODEL 7
REMARK VINA RESULT:    -4.960      3.431      5.819
REMARK INTER + INTRA:          -7.129
REMARK INTER:                  -6.454
REMARK INTRA:                  -0.675
REMARK UNBOUND:                -0.429
REMARK  Name = 
REMARK  10 active torsions:
REMARK  status: ('A' for Active; 'I' for Inactive)
REMARK    1  A    between atoms: C_1  and  C_2
REMARK    2  A    between atoms: C_5  and  N_8
REMARK    3  A    between atoms: N_8  and  C_9
REMARK    4  A    between atoms: N_8  and  C_13
REMARK    5  A    between atoms: C_9  and  C_10
REMARK    6  A    between atoms: C_10  and  C_11
REMARK    7  A    between atoms: C_10  and  O_12
REMARK    8  A    between atoms: C_13  and  C_14
REMARK    9  A    between atoms: C_14  and  C_15
REMARK   10  A    between atoms: C_14  and  O_16
REMARK                            x       y       z     vdW  Elec       q    Type
REMARK                         _______ _______ _______ _____ _____    ______ ____
ROOT
ATOM      1  N   UNL     1      12.112   9.020   4.835  0.00  0.00    +0.000 N 
ENDROOT
BRANCH   1   6
ATOM      2  C   UNL     1       7.037   7.504   7.133  0.00  0.00    +0.000 C 
ATOM      3  C   UNL     1       8.345   7.920   6.533  0.00  0.00    +0.000 A 
ATOM      4  C   UNL     1       8.596   7.747   5.176  0.00  0.00    +0.000 A 
ATOM      5  C   UNL     1       9.835   8.112   4.624  0.00  0.00    +0.000 A 
ATOM      6  C   UNL     1      10.885   8.641   5.395  0.00  0.00    +0.000 A 
ATOM      7  C   UNL     1      10.596   8.803   6.763  0.00  0.00    +0.000 A 
ATOM      8  C   UNL     1       9.361   8.445   7.327  0.00  0.00    +0.000 A 
ENDBRANCH   1   6
BRANCH   1   9
ATOM      9  C   UNL     1      12.840   8.089   3.940  0.00  0.00    +0.000 C 
BRANCH   9  10
ATOM     10  C   UNL     1      13.090   8.683   2.532  0.00  0.00    +0.000 C 
ATOM     11  C   UNL     1      11.863   9.437   2.032  0.00  0.00    +0.000 C 
BRANCH  10  12
ATOM     12  O   UNL     1      14.196   9.596   2.548  0.00  0.00    +0.000 OA
ATOM     13  H   UNL     1      14.039  10.271   1.867  0.00  0.00    +0.000 HD
ENDBRANCH  10  12
ENDBRANCH   9  10
ENDBRANCH   1   9
BRANCH   1  14
ATOM     14  C   UNL     1      12.956  10.065   5.469  0.00  0.00    +0.000 C 
BRANCH  14  15
ATOM     15  C   UNL     1      12.511  11.494   5.074  0.00  0.00    +0.000 C 
ATOM     16  C   UNL     1      12.360  12.427   6.270  0.00  0.00    +0.000 C 
BRANCH  15  17
ATOM     17  O   UNL     1      13.423  12.096   4.157  0.00  0.00    +0.000 OA
ATOM     18  H   UNL     1      14.179  12.387   4.706  0.00  0.00    +0.000 HD
ENDBRANCH  15  17
ENDBRANCH  14  15
ENDBRANCH   1  14
TORSDOF 7
ENDMDL
MODEL 8
REMARK VINA RESULT:    -4.920      2.839      4.595
REMARK INTER + INTRA:          -7.075
REMARK INTER:                  -6.750
REMARK INTRA:                  -0.325
REMARK UNBOUND:                -0.429
REMARK  Name = 
REMARK  10 active torsions:
REMARK  status: ('A' for Active; 'I' for Inactive)
REMARK    1  A    between atoms: C_1  and  C_2
REMARK    2  A    between atoms: C_5  and  N_8
REMARK    3  A    between atoms: N_8  and  C_9
REMARK    4  A    between atoms: N_8  and  C_13
REMARK    5  A    between atoms: C_9  and  C_10
REMARK    6  A    between atoms: C_10  and  C_11
REMARK    7  A    between atoms: C_10  and  O_12
REMARK    8  A    between atoms: C_13  and  C_14
REMARK    9  A    between atoms: C_14  and  C_15
REMARK   10  A    between atoms: C_14  and  O_16
REMARK                            x       y       z     vdW  Elec       q    Type
REMARK                         _______ _______ _______ _____ _____    ______ ____
ROOT
ATOM      1  N   UNL     1      11.197   8.696   4.859  0.00  0.00    +0.000 N 
ENDROOT
BRANCH   1   6
ATOM      2  C   UNL     1      12.666  14.233   5.578  0.00  0.00    +0.000 C 
ATOM      3  C   UNL     1      12.261  12.802   5.394  0.00  0.00    +0.000 A 
ATOM      4  C   UNL     1      12.181  11.937   6.480  0.00  0.00    +0.000 A 
ATOM      5  C   UNL     1      11.829  10.590   6.298  0.00  0.00    +0.000 A 
ATOM      6  C   UNL     1      11.566  10.036   5.032  0.00  0.00    +0.000 A 
ATOM      7  C   UNL     1      11.654  10.940   3.957  0.00  0.00    +0.000 A 
ATOM      8  C   UNL     1      12.002  12.291   4.126  0.00  0.00    +0.000 A 
ENDBRANCH   1   6
BRANCH   1   9
ATOM      9  C   UNL     1      12.237   7.661   4.647  0.00  0.00    +0.000 C 
BRANCH   9  10
ATOM     10  C   UNL     1      13.124   7.945   3.410  0.00  0.00    +0.000 C 
ATOM     11  C   UNL     1      14.232   6.907   3.283  0.00  0.00    +0.000 C 
BRANCH  10  12
ATOM     12  O   UNL     1      12.348   7.917   2.203  0.00  0.00    +0.000 OA
ATOM     13  H   UNL     1      11.840   7.089   2.191  0.00  0.00    +0.000 HD
ENDBRANCH  10  12
ENDBRANCH   9  10
ENDBRANCH   1   9
BRANCH   1  14
ATOM     14  C   UNL     1       9.841   8.328   4.377  0.00  0.00    +0.000 C 
BRANCH  14  15
ATOM     15  C   UNL     1       9.080   7.443   5.393  0.00  0.00    +0.000 C 
ATOM     16  C   UNL     1       8.715   8.181   6.676  0.00  0.00    +0.000 C 
BRANCH  15  17
ATOM     17  O   UNL     1       7.881   6.909   4.834  0.00  0.00    +0.000 OA
ATOM     18  H   UNL     1       8.072   6.806   3.880  0.00  0.00    +0.000 HD
ENDBRANCH  15  17
ENDBRANCH  14  15
ENDBRANCH   1  14
TORSDOF 7
ENDMDL
MODEL 9
REMARK VINA RESULT:    -4.215      3.497      6.090
REMARK INTER + INTRA:          -6.122
REMARK INTER:                  -5.819
REMARK INTRA:                  -0.304
REMARK UNBOUND:                -0.429
REMARK  Name = 
REMARK  10 active torsions:
REMARK  status: ('A' for Active; 'I' for Inactive)
REMARK    1  A    between atoms: C_1  and  C_2
REMARK    2  A    between atoms: C_5  and  N_8
REMARK    3  A    between atoms: N_8  and  C_9
REMARK    4  A    between atoms: N_8  and  C_13
REMARK    5  A    between atoms: C_9  and  C_10
REMARK    6  A    between atoms: C_10  and  C_11
REMARK    7  A    between atoms: C_10  and  O_12
REMARK    8  A    between atoms: C_13  and  C_14
REMARK    9  A    between atoms: C_14  and  C_15
REMARK   10  A    between atoms: C_14  and  O_16
REMARK                            x       y       z     vdW  Elec       q    Type
REMARK                         _______ _______ _______ _____ _____    ______ ____
ROOT
ATOM      1  N   UNL     1      11.393   8.265   3.749  0.00  0.00    +0.000 N 
ENDROOT
BRANCH   1   6
ATOM      2  C   UNL     1       8.271   8.544   8.597  0.00  0.00    +0.000 C 
ATOM      3  C   UNL     1       9.088   8.449   7.345  0.00  0.00    +0.000 A 
ATOM      4  C   UNL     1      10.399   8.913   7.311  0.00  0.00    +0.000 A 
ATOM      5  C   UNL     1      11.151   8.848   6.127  0.00  0.00    +0.000 A 
ATOM      6  C   UNL     1      10.631   8.344   4.921  0.00  0.00    +0.000 A 
ATOM      7  C   UNL     1       9.304   7.882   4.993  0.00  0.00    +0.000 A 
ATOM      8  C   UNL     1       8.541   7.939   6.171  0.00  0.00    +0.000 A 
ENDBRANCH   1   6
BRANCH   1   9
ATOM      9  C   UNL     1      12.176   7.041   3.452  0.00  0.00    +0.000 C 
BRANCH   9  10
ATOM     10  C   UNL     1      13.404   7.318   2.552  0.00  0.00    +0.000 C 
ATOM     11  C   UNL     1      14.667   7.486   3.389  0.00  0.00    +0.000 C 
BRANCH  10  12
ATOM     12  O   UNL     1      13.622   6.240   1.631  0.00  0.00    +0.000 OA
ATOM     13  H   UNL     1      12.762   5.829   1.440  0.00  0.00    +0.000 HD
ENDBRANCH  10  12
ENDBRANCH   9  10
ENDBRANCH   1   9
BRANCH   1  14
ATOM     14  C   UNL     1      11.861   9.490   3.052  0.00  0.00    +0.000 C 
BRANCH  14  15
ATOM     15  C   UNL     1      10.916   9.904   1.899  0.00  0.00    +0.000 C 
ATOM     16  C   UNL     1      10.851  11.412   1.689  0.00  0.00    +0.000 C 
BRANCH  15  17
ATOM     17  O   UNL     1      11.298   9.303   0.662  0.00  0.00    +0.000 OA
ATOM     18  H   UNL     1      11.837   9.981   0.207  0.00  0.00    +0.000 HD
ENDBRANCH  15  17
ENDBRANCH  14  15
ENDBRANCH   1  14
TORSDOF 7
ENDMDL
