MODEL 1
REMARK VINA RESULT:    -4.098      0.000      0.000
REMARK INTER + INTRA:          -4.490
REMARK INTER:                  -4.457
REMARK INTRA:                  -0.033
REMARK UNBOUND:                -0.033
REMARK  Name = 
REMARK  3 active torsions:
REMARK  status: ('A' for Active; 'I' for Inactive)
REMARK    1  A    between atoms: C_1  and  O_2
REMARK    2  A    between atoms: O_2  and  C_3
REMARK    3  A    between atoms: C_8  and  O_9
REMARK                            x       y       z     vdW  Elec       q    Type
REMARK                         _______ _______ _______ _____ _____    ______ ____
ROOT
ATOM      1  C   UNL     1       2.873  13.501   1.832  0.00  0.00    +0.000 A 
ATOM      2  C   UNL     1       2.344  13.641   3.114  0.00  0.00    +0.000 A 
ATOM      3  C   UNL     1       2.271  12.531   3.966  0.00  0.00    +0.000 A 
ATOM      4  C   UNL     1       2.725  11.281   3.541  0.00  0.00    +0.000 A 
ATOM      5  C   UNL     1       3.256  11.134   2.261  0.00  0.00    +0.000 A 
ATOM      6  C   UNL     1       3.323  12.240   1.423  0.00  0.00    +0.000 A 
ENDROOT
BRANCH   1   8
ATOM      7  C   UNL     1       4.089  15.398   1.076  0.00  0.00    +0.000 C 
ATOM      8  O   UNL     1       3.004  14.495   0.896  0.00  0.00    +0.000 OA
ENDBRANCH   1   8
BRANCH   6   9
ATOM      9  O   UNL     1       3.848  12.070   0.170  0.00  0.00    +0.000 OA
ATOM     10  H   UNL     1       3.124  12.311  -0.438  0.00  0.00    +0.000 HD
ENDBRANCH   6   9
TORSDOF 2
ENDMDL
MODEL 2
REMARK VINA RESULT:    -3.906     10.194     11.395
REMARK INTER + INTRA:          -4.281
REMARK INTER:                  -4.241
REMARK INTRA:                  -0.040
REMARK UNBOUND:                -0.033
REMARK  Name = 
REMARK  3 active torsions:
REMARK  status: ('A' for Active; 'I' for Inactive)
REMARK    1  A    between atoms: C_1  and  O_2
REMARK    2  A    between atoms: O_2  and  C_3
REMARK    3  A    between atoms: C_8  and  O_9
REMARK                            x       y       z     vdW  Elec       q    Type
REMARK                         _______ _______ _______ _____ _____    ______ ____
ROOT
ATOM      1  C   UNL     1       6.948  23.347   3.308  0.00  0.00    +0.000 A 
ATOM      2  C   UNL     1       7.840  24.412   3.428  0.00  0.00    +0.000 A 
ATOM      3  C   UNL     1       9.053  24.235   4.106  0.00  0.00    +0.000 A 
ATOM      4  C   UNL     1       9.378  22.998   4.665  0.00  0.00    +0.000 A 
ATOM      5  C   UNL     1       8.492  21.929   4.548  0.00  0.00    +0.000 A 
ATOM      6  C   UNL     1       7.291  22.113   3.874  0.00  0.00    +0.000 A 
ENDROOT
BRANCH   1   8
ATOM      7  C   UNL     1       5.573  24.347   1.648  0.00  0.00    +0.000 C 
ATOM      8  O   UNL     1       5.731  23.376   2.675  0.00  0.00    +0.000 OA
ENDBRANCH   1   8
BRANCH   6   9
ATOM      9  O   UNL     1       6.437  21.048   3.773  0.00  0.00    +0.000 OA
ATOM     10  H   UNL     1       6.102  20.911   4.679  0.00  0.00    +0.000 HD
ENDBRANCH   6   9
TORSDOF 2
ENDMDL
MODEL 3
REMARK VINA RESULT:    -3.858     10.078     11.754
REMARK INTER + INTRA:          -4.229
REMARK INTER:                  -4.191
REMARK INTRA:                  -0.038
REMARK UNBOUND:                -0.033
REMARK  Name = 
REMARK  3 active torsions:
REMARK  status: ('A' for Active; 'I' for Inactive)
REMARK    1  A    between atoms: C_1  and  O_2
REMARK    2  A    between atoms: O_2  and  C_3
REMARK    3  A    between atoms: C_8  and  O_9
REMARK                            x       y       z     vdW  Elec       q    Type
REMARK                         _______ _______ _______ _____ _____    ______ ____
ROOT
ATOM      1  C   UNL     1       8.638  23.246   4.251  0.00  0.00    +0.000 A 
ATOM      2  C   UNL     1       8.143  24.301   3.486  0.00  0.00    +0.000 A 
ATOM      3  C   UNL     1       6.975  24.130   2.730  0.00  0.00    +0.000 A 
ATOM      4  C   UNL     1       6.301  22.908   2.737  0.00  0.00    +0.000 A 
ATOM      5  C   UNL     1       6.789  21.849   3.499  0.00  0.00    +0.000 A 
ATOM      6  C   UNL     1       7.947  22.027   4.245  0.00  0.00    +0.000 A 
ENDROOT
BRANCH   1   8
ATOM      7  C   UNL     1      10.612  24.404   4.890  0.00  0.00    +0.000 C 
ATOM      8  O   UNL     1       9.764  23.271   5.034  0.00  0.00    +0.000 OA
ENDBRANCH   1   8
BRANCH   6   9
ATOM      9  O   UNL     1       8.408  20.972   4.986  0.00  0.00    +0.000 OA
ATOM     10  H   UNL     1       8.332  21.268   5.914  0.00  0.00    +0.000 HD
ENDBRANCH   6   9
TORSDOF 2
ENDMDL
MODEL 4
REMARK VINA RESULT:    -3.637     10.268     11.884
REMARK INTER + INTRA:          -3.988
REMARK INTER:                  -3.940
REMARK INTRA:                  -0.049
REMARK UNBOUND:                -0.033
REMARK  Name = 
REMARK  3 active torsions:
REMARK  status: ('A' for Active; 'I' for Inactive)
REMARK    1  A    between atoms: C_1  and  O_2
REMARK    2  A    between atoms: O_2  and  C_3
REMARK    3  A    between atoms: C_8  and  O_9
REMARK                            x       y       z     vdW  Elec       q    Type
REMARK                         _______ _______ _______ _____ _____    ______ ____
ROOT
ATOM      1  C   UNL     1      10.696  19.769   7.124  0.00  0.00    +0.000 A 
ATOM      2  C   UNL     1      12.072  19.799   7.344  0.00  0.00    +0.000 A 
ATOM      3  C   UNL     1      12.922  20.361   6.383  0.00  0.00    +0.000 A 
ATOM      4  C   UNL     1      12.402  20.892   5.201  0.00  0.00    +0.000 A 
ATOM      5  C   UNL     1      11.027  20.865   4.975  0.00  0.00    +0.000 A 
ATOM      6  C   UNL     1      10.192  20.306   5.933  0.00  0.00    +0.000 A 
ENDROOT
BRANCH   1   8
ATOM      7  C   UNL     1       9.702  17.835   8.083  0.00  0.00    +0.000 C 
ATOM      8  O   UNL     1       9.750  19.253   7.973  0.00  0.00    +0.000 OA
ENDBRANCH   1   8
BRANCH   6   9
ATOM      9  O   UNL     1       8.845  20.292   5.688  0.00  0.00    +0.000 OA
ATOM     10  H   UNL     1       8.709  19.529   5.094  0.00  0.00    +0.000 HD
ENDBRANCH   6   9
TORSDOF 2
ENDMDL
MODEL 5
REMARK VINA RESULT:    -3.525     13.714     14.649
REMARK INTER + INTRA:          -3.867
REMARK INTER:                  -3.814
REMARK INTRA:                  -0.053
REMARK UNBOUND:                -0.033
REMARK  Name = 
REMARK  3 active torsions:
REMARK  status: ('A' for Active; 'I' for Inactive)
REMARK    1  A    between atoms: C_1  and  O_2
REMARK    2  A    between atoms: O_2  and  C_3
REMARK    3  A    between atoms: C_8  and  O_9
REMARK                            x       y       z     vdW  Elec       q    Type
REMARK                         _______ _______ _______ _____ _____    ______ ____
ROOT
ATOM      1  C   UNL     1      -2.514  16.190 -11.613  0.00  0.00    +0.000 A 
ATOM      2  C   UNL     1      -1.896  17.339 -11.121  0.00  0.00    +0.000 A 
ATOM      3  C   UNL     1      -1.190  17.291  -9.913  0.00  0.00    +0.000 A 
ATOM      4  C   UNL     1      -1.099  16.098  -9.193  0.00  0.00    +0.000 A 
ATOM      5  C   UNL     1      -1.713  14.946  -9.679  0.00  0.00    +0.000 A 
ATOM      6  C   UNL     1      -2.412  15.003 -10.878  0.00  0.00    +0.000 A 
ENDROOT
BRANCH   1   8
ATOM      7  C   UNL     1      -4.467  16.801 -12.820  0.00  0.00    +0.000 C 
ATOM      8  O   UNL     1      -3.236  16.091 -12.776  0.00  0.00    +0.000 OA
ENDBRANCH   1   8
BRANCH   6   9
ATOM      9  O   UNL     1      -3.007  13.857 -11.334  0.00  0.00    +0.000 OA
ATOM     10  H   UNL     1      -2.266  13.251 -11.525  0.00  0.00    +0.000 HD
ENDBRANCH   6   9
TORSDOF 2
ENDMDL
MODEL 6
REMARK VINA RESULT:    -3.474     10.685     12.238
REMARK INTER + INTRA:          -3.811
REMARK INTER:                  -3.772
REMARK INTRA:                  -0.039
REMARK UNBOUND:                -0.033
REMARK  Name = 
REMARK  3 active torsions:
REMARK  status: ('A' for Active; 'I' for Inactive)
REMARK    1  A    between atoms: C_1  and  O_2
REMARK    2  A    between atoms: O_2  and  C_3
REMARK    3  A    between atoms: C_8  and  O_9
REMARK                            x       y       z     vdW  Elec       q    Type
REMARK                         _______ _______ _______ _____ _____    ______ ____
ROOT
ATOM      1  C   UNL     1       9.083  22.477   4.621  0.00  0.00    +0.000 A 
ATOM      2  C   UNL     1       9.368  23.838   4.521  0.00  0.00    +0.000 A 
ATOM      3  C   UNL     1      10.631  24.318   4.892  0.00  0.00    +0.000 A 
ATOM      4  C   UNL     1      11.610  23.442   5.364  0.00  0.00    +0.000 A 
ATOM      5  C   UNL     1      11.333  22.080   5.466  0.00  0.00    +0.000 A 
ATOM      6  C   UNL     1      10.078  21.614   5.096  0.00  0.00    +0.000 A 
ENDROOT
BRANCH   1   8
ATOM      7  C   UNL     1       7.070  22.554   3.361  0.00  0.00    +0.000 C 
ATOM      8  O   UNL     1       7.896  21.871   4.296  0.00  0.00    +0.000 OA
ENDBRANCH   1   8
BRANCH   6   9
ATOM      9  O   UNL     1       9.829  20.272   5.206  0.00  0.00    +0.000 OA
ATOM     10  H   UNL     1      10.709  19.852   5.164  0.00  0.00    +0.000 HD
ENDBRANCH   6   9
TORSDOF 2
ENDMDL
MODEL 7
REMARK VINA RESULT:    -3.419     10.609     11.721
REMARK INTER + INTRA:          -3.752
REMARK INTER:                  -3.699
REMARK INTRA:                  -0.052
REMARK UNBOUND:                -0.033
REMARK  Name = 
REMARK  3 active torsions:
REMARK  status: ('A' for Active; 'I' for Inactive)
REMARK    1  A    between atoms: C_1  and  O_2
REMARK    2  A    between atoms: O_2  and  C_3
REMARK    3  A    between atoms: C_8  and  O_9
REMARK                            x       y       z     vdW  Elec       q    Type
REMARK                         _______ _______ _______ _____ _____    ______ ____
ROOT
ATOM      1  C   UNL     1      11.150  20.633   5.877  0.00  0.00    +0.000 A 
ATOM      2  C   UNL     1      12.306  20.324   6.593  0.00  0.00    +0.000 A 
ATOM      3  C   UNL     1      12.240  19.447   7.684  0.00  0.00    +0.000 A 
ATOM      4  C   UNL     1      11.022  18.879   8.062  0.00  0.00    +0.000 A 
ATOM      5  C   UNL     1       9.863  19.182   7.351  0.00  0.00    +0.000 A 
ATOM      6  C   UNL     1       9.938  20.053   6.271  0.00  0.00    +0.000 A 
ENDROOT
BRANCH   1   8
ATOM      7  C   UNL     1      11.286  22.854   5.045  0.00  0.00    +0.000 C 
ATOM      8  O   UNL     1      11.067  21.471   4.795  0.00  0.00    +0.000 OA
ENDBRANCH   1   8
BRANCH   6   9
ATOM      9  O   UNL     1       8.785  20.336   5.588  0.00  0.00    +0.000 OA
ATOM     10  H   UNL     1       8.602  21.274   5.789  0.00  0.00    +0.000 HD
ENDBRANCH   6   9
TORSDOF 2
ENDMDL
MODEL 8
REMARK VINA RESULT:    -3.342     13.481     14.437
REMARK INTER + INTRA:          -3.667
REMARK INTER:                  -3.629
REMARK INTRA:                  -0.039
REMARK UNBOUND:                -0.033
REMARK  Name = 
REMARK  3 active torsions:
REMARK  status: ('A' for Active; 'I' for Inactive)
REMARK    1  A    between atoms: C_1  and  O_2
REMARK    2  A    between atoms: O_2  and  C_3
REMARK    3  A    between atoms: C_8  and  O_9
REMARK                            x       y       z     vdW  Elec       q    Type
REMARK                         _______ _______ _______ _____ _____    ______ ____
ROOT
ATOM      1  C   UNL     1      -2.237  17.456 -10.823  0.00  0.00    +0.000 A 
ATOM      2  C   UNL     1      -1.194  17.279  -9.915  0.00  0.00    +0.000 A 
ATOM      3  C   UNL     1      -1.008  16.035  -9.298  0.00  0.00    +0.000 A 
ATOM      4  C   UNL     1      -1.861  14.968  -9.584  0.00  0.00    +0.000 A 
ATOM      5  C   UNL     1      -2.905  15.137 -10.491  0.00  0.00    +0.000 A 
ATOM      6  C   UNL     1      -3.082  16.374 -11.098  0.00  0.00    +0.000 A 
ENDROOT
BRANCH   1   8
ATOM      7  C   UNL     1      -1.505  19.589 -11.573  0.00  0.00    +0.000 C 
ATOM      8  O   UNL     1      -2.537  18.612 -11.498  0.00  0.00    +0.000 OA
ENDBRANCH   1   8
BRANCH   6   9
ATOM      9  O   UNL     1      -4.115  16.516 -11.986  0.00  0.00    +0.000 OA
ATOM     10  H   UNL     1      -4.347  17.464 -11.947  0.00  0.00    +0.000 HD
ENDBRANCH   6   9
TORSDOF 2
ENDMDL
MODEL 9
REMARK VINA RESULT:    -3.281     13.564     14.639
REMARK INTER + INTRA:          -3.601
REMARK INTER:                  -3.562
REMARK INTRA:                  -0.039
REMARK UNBOUND:                -0.033
REMARK  Name = 
REMARK  3 active torsions:
REMARK  status: ('A' for Active; 'I' for Inactive)
REMARK    1  A    between atoms: C_1  and  O_2
REMARK    2  A    between atoms: O_2  and  C_3
REMARK    3  A    between atoms: C_8  and  O_9
REMARK                            x       y       z     vdW  Elec       q    Type
REMARK                         _______ _______ _______ _____ _____    ______ ____
ROOT
ATOM      1  C   UNL     1      -3.320  15.482 -10.364  0.00  0.00    +0.000 A 
ATOM      2  C   UNL     1      -2.202  15.039  -9.658  0.00  0.00    +0.000 A 
ATOM      3  C   UNL     1      -1.095  15.883  -9.500  0.00  0.00    +0.000 A 
ATOM      4  C   UNL     1      -1.101  17.168 -10.045  0.00  0.00    +0.000 A 
ATOM      5  C   UNL     1      -2.215  17.618 -10.751  0.00  0.00    +0.000 A 
ATOM      6  C   UNL     1      -3.308  16.774 -10.903  0.00  0.00    +0.000 A 
ENDROOT
BRANCH   1   8
ATOM      7  C   UNL     1      -4.393  13.754 -11.593  0.00  0.00    +0.000 C 
ATOM      8  O   UNL     1      -4.467  14.767 -10.596  0.00  0.00    +0.000 OA
ENDBRANCH   1   8
BRANCH   6   9
ATOM      9  O   UNL     1      -4.391  17.238 -11.601  0.00  0.00    +0.000 OA
ATOM     10  H   UNL     1      -4.948  16.450 -11.749  0.00  0.00    +0.000 HD
ENDBRANCH   6   9
TORSDOF 2
ENDMDL
