MODEL 1
REMARK VINA RESULT:    -4.262      0.000      0.000
REMARK INTER + INTRA:          -6.317
REMARK INTER:                  -5.757
REMARK INTRA:                  -0.560
REMARK UNBOUND:                -0.560
REMARK  Name = 
REMARK  10 active torsions:
REMARK  status: ('A' for Active; 'I' for Inactive)
REMARK    1  A    between atoms: C_1  and  C_2
REMARK    2  A    between atoms: C_5  and  N_8
REMARK    3  A    between atoms: N_8  and  C_9
REMARK    4  A    between atoms: N_8  and  C_13
REMARK    5  A    between atoms: C_9  and  C_10
REMARK    6  A    between atoms: C_10  and  C_11
REMARK    7  A    between atoms: C_10  and  O_12
REMARK    8  A    between atoms: C_13  and  C_14
REMARK    9  A    between atoms: C_14  and  C_15
REMARK   10  A    between atoms: C_14  and  O_16
REMARK                            x       y       z     vdW  Elec       q    Type
REMARK                         _______ _______ _______ _____ _____    ______ ____
ROOT
ATOM      1  N   UNL     1      10.034  22.520   4.971  0.00  0.00    +0.000 N 
ENDROOT
BRANCH   1   6
ATOM      2  C   UNL     1       5.187  23.756   2.088  0.00  0.00    +0.000 C 
ATOM      3  C   UNL     1       6.456  23.430   2.815  0.00  0.00    +0.000 A 
ATOM      4  C   UNL     1       6.690  22.149   3.305  0.00  0.00    +0.000 A 
ATOM      5  C   UNL     1       7.867  21.856   4.011  0.00  0.00    +0.000 A 
ATOM      6  C   UNL     1       8.852  22.823   4.283  0.00  0.00    +0.000 A 
ATOM      7  C   UNL     1       8.584  24.106   3.771  0.00  0.00    +0.000 A 
ATOM      8  C   UNL     1       7.411  24.412   3.061  0.00  0.00    +0.000 A 
ENDBRANCH   1   6
BRANCH   1   9
ATOM      9  C   UNL     1      10.513  21.118   5.043  0.00  0.00    +0.000 C 
BRANCH   9  10
ATOM     10  C   UNL     1      10.829  20.665   6.490  0.00  0.00    +0.000 C 
ATOM     11  C   UNL     1       9.884  19.555   6.932  0.00  0.00    +0.000 C 
BRANCH  10  12
ATOM     12  O   UNL     1      12.172  20.173   6.593  0.00  0.00    +0.000 OA
ATOM     13  H   UNL     1      12.138  19.283   6.982  0.00  0.00    +0.000 HD
ENDBRANCH  10  12
ENDBRANCH   9  10
ENDBRANCH   1   9
BRANCH   1  14
ATOM     14  C   UNL     1      10.552  23.412   6.039  0.00  0.00    +0.000 C 
BRANCH  14  15
ATOM     15  C   UNL     1      11.824  24.175   5.597  0.00  0.00    +0.000 C 
ATOM     16  C   UNL     1      13.054  23.821   6.424  0.00  0.00    +0.000 C 
BRANCH  15  17
ATOM     17  O   UNL     1      12.131  23.936   4.224  0.00  0.00    +0.000 OA
ATOM     18  H   UNL     1      12.670  24.705   3.948  0.00  0.00    +0.000 HD
ENDBRANCH  15  17
ENDBRANCH  14  15
ENDBRANCH   1  14
TORSDOF 7
ENDMDL
MODEL 2
REMARK VINA RESULT:    -4.256     17.615     20.215
REMARK INTER + INTRA:          -6.309
REMARK INTER:                  -5.689
REMARK INTRA:                  -0.620
REMARK UNBOUND:                -0.560
REMARK  Name = 
REMARK  10 active torsions:
REMARK  status: ('A' for Active; 'I' for Inactive)
REMARK    1  A    between atoms: C_1  and  C_2
REMARK    2  A    between atoms: C_5  and  N_8
REMARK    3  A    between atoms: N_8  and  C_9
REMARK    4  A    between atoms: N_8  and  C_13
REMARK    5  A    between atoms: C_9  and  C_10
REMARK    6  A    between atoms: C_10  and  C_11
REMARK    7  A    between atoms: C_10  and  O_12
REMARK    8  A    between atoms: C_13  and  C_14
REMARK    9  A    between atoms: C_14  and  C_15
REMARK   10  A    between atoms: C_14  and  O_16
REMARK                            x       y       z     vdW  Elec       q    Type
REMARK                         _______ _______ _______ _____ _____    ______ ____
ROOT
ATOM      1  N   UNL     1      -0.610  20.457 -12.517  0.00  0.00    +0.000 N 
ENDROOT
BRANCH   1   6
ATOM      2  C   UNL     1      -2.088  15.114 -10.909  0.00  0.00    +0.000 C 
ATOM      3  C   UNL     1      -1.680  16.493 -11.327  0.00  0.00    +0.000 A 
ATOM      4  C   UNL     1      -1.401  17.473 -10.380  0.00  0.00    +0.000 A 
ATOM      5  C   UNL     1      -1.049  18.773 -10.778  0.00  0.00    +0.000 A 
ATOM      6  C   UNL     1      -0.981  19.164 -12.128  0.00  0.00    +0.000 A 
ATOM      7  C   UNL     1      -1.267  18.148 -13.057  0.00  0.00    +0.000 A 
ATOM      8  C   UNL     1      -1.619  16.843 -12.673  0.00  0.00    +0.000 A 
ENDBRANCH   1   6
BRANCH   1   9
ATOM      9  C   UNL     1      -1.559  21.307 -13.276  0.00  0.00    +0.000 C 
BRANCH   9  10
ATOM     10  C   UNL     1      -2.613  21.987 -12.368  0.00  0.00    +0.000 C 
ATOM     11  C   UNL     1      -3.923  21.208 -12.374  0.00  0.00    +0.000 C 
BRANCH  10  12
ATOM     12  O   UNL     1      -2.150  22.066 -11.012  0.00  0.00    +0.000 OA
ATOM     13  H   UNL     1      -1.254  21.693 -10.978  0.00  0.00    +0.000 HD
ENDBRANCH  10  12
ENDBRANCH   9  10
ENDBRANCH   1   9
BRANCH   1  14
ATOM     14  C   UNL     1       0.819  20.837 -12.662  0.00  0.00    +0.000 C 
BRANCH  14  15
ATOM     15  C   UNL     1       1.293  21.775 -11.526  0.00  0.00    +0.000 C 
ATOM     16  C   UNL     1       1.893  21.027 -10.342  0.00  0.00    +0.000 C 
BRANCH  15  17
ATOM     17  O   UNL     1       2.259  22.718 -11.989  0.00  0.00    +0.000 OA
ATOM     18  H   UNL     1       3.112  22.240 -11.959  0.00  0.00    +0.000 HD
ENDBRANCH  15  17
ENDBRANCH  14  15
ENDBRANCH   1  14
TORSDOF 7
ENDMDL
MODEL 3
REMARK VINA RESULT:    -4.101      1.920      2.600
REMARK INTER + INTRA:          -6.100
REMARK INTER:                  -5.654
REMARK INTRA:                  -0.446
REMARK UNBOUND:                -0.560
REMARK  Name = 
REMARK  10 active torsions:
REMARK  status: ('A' for Active; 'I' for Inactive)
REMARK    1  A    between atoms: C_1  and  C_2
REMARK    2  A    between atoms: C_5  and  N_8
REMARK    3  A    between atoms: N_8  and  C_9
REMARK    4  A    between atoms: N_8  and  C_13
REMARK    5  A    between atoms: C_9  and  C_10
REMARK    6  A    between atoms: C_10  and  C_11
REMARK    7  A    between atoms: C_10  and  O_12
REMARK    8  A    between atoms: C_13  and  C_14
REMARK    9  A    between atoms: C_14  and  C_15
REMARK   10  A    between atoms: C_14  and  O_16
REMARK                            x       y       z     vdW  Elec       q    Type
REMARK                         _______ _______ _______ _____ _____    ______ ____
ROOT
ATOM      1  N   UNL     1      11.438  21.706   6.073  0.00  0.00    +0.000 N 
ENDROOT
BRANCH   1   6
ATOM      2  C   UNL     1       7.214  24.412   3.216  0.00  0.00    +0.000 C 
ATOM      3  C   UNL     1       8.322  23.706   3.935  0.00  0.00    +0.000 A 
ATOM      4  C   UNL     1       8.265  22.336   4.166  0.00  0.00    +0.000 A 
ATOM      5  C   UNL     1       9.293  21.685   4.868  0.00  0.00    +0.000 A 
ATOM      6  C   UNL     1      10.407  22.365   5.391  0.00  0.00    +0.000 A 
ATOM      7  C   UNL     1      10.433  23.749   5.137  0.00  0.00    +0.000 A 
ATOM      8  C   UNL     1       9.413  24.412   4.435  0.00  0.00    +0.000 A 
ENDBRANCH   1   6
BRANCH   1   9
ATOM      9  C   UNL     1      11.161  21.025   7.361  0.00  0.00    +0.000 C 
BRANCH   9  10
ATOM     10  C   UNL     1      10.734  19.548   7.178  0.00  0.00    +0.000 C 
ATOM     11  C   UNL     1      11.525  18.633   8.106  0.00  0.00    +0.000 C 
BRANCH  10  12
ATOM     12  O   UNL     1       9.340  19.375   7.468  0.00  0.00    +0.000 OA
ATOM     13  H   UNL     1       8.901  20.235   7.358  0.00  0.00    +0.000 HD
ENDBRANCH  10  12
ENDBRANCH   9  10
ENDBRANCH   1   9
BRANCH   1  14
ATOM     14  C   UNL     1      12.861  22.071   5.854  0.00  0.00    +0.000 C 
BRANCH  14  15
ATOM     15  C   UNL     1      13.605  21.027   4.986  0.00  0.00    +0.000 C 
ATOM     16  C   UNL     1      14.314  19.959   5.810  0.00  0.00    +0.000 C 
BRANCH  15  17
ATOM     17  O   UNL     1      12.721  20.370   4.079  0.00  0.00    +0.000 OA
ATOM     18  H   UNL     1      12.209  19.746   4.632  0.00  0.00    +0.000 HD
ENDBRANCH  15  17
ENDBRANCH  14  15
ENDBRANCH   1  14
TORSDOF 7
ENDMDL
MODEL 4
REMARK VINA RESULT:    -4.034      3.317      6.359
REMARK INTER + INTRA:          -6.010
REMARK INTER:                  -5.315
REMARK INTRA:                  -0.694
REMARK UNBOUND:                -0.560
REMARK  Name = 
REMARK  10 active torsions:
REMARK  status: ('A' for Active; 'I' for Inactive)
REMARK    1  A    between atoms: C_1  and  C_2
REMARK    2  A    between atoms: C_5  and  N_8
REMARK    3  A    between atoms: N_8  and  C_9
REMARK    4  A    between atoms: N_8  and  C_13
REMARK    5  A    between atoms: C_9  and  C_10
REMARK    6  A    between atoms: C_10  and  C_11
REMARK    7  A    between atoms: C_10  and  O_12
REMARK    8  A    between atoms: C_13  and  C_14
REMARK    9  A    between atoms: C_14  and  C_15
REMARK   10  A    between atoms: C_14  and  O_16
REMARK                            x       y       z     vdW  Elec       q    Type
REMARK                         _______ _______ _______ _____ _____    ______ ____
ROOT
ATOM      1  N   UNL     1      11.743  21.397   6.580  0.00  0.00    +0.000 N 
ENDROOT
BRANCH   1   6
ATOM      2  C   UNL     1      16.170  19.020   3.738  0.00  0.00    +0.000 C 
ATOM      3  C   UNL     1      15.036  19.655   4.483  0.00  0.00    +0.000 A 
ATOM      4  C   UNL     1      14.748  19.288   5.793  0.00  0.00    +0.000 A 
ATOM      5  C   UNL     1      13.666  19.865   6.477  0.00  0.00    +0.000 A 
ATOM      6  C   UNL     1      12.809  20.812   5.886  0.00  0.00    +0.000 A 
ATOM      7  C   UNL     1      13.132  21.160   4.561  0.00  0.00    +0.000 A 
ATOM      8  C   UNL     1      14.212  20.592   3.867  0.00  0.00    +0.000 A 
ENDBRANCH   1   6
BRANCH   1   9
ATOM      9  C   UNL     1      11.686  22.869   6.750  0.00  0.00    +0.000 C 
BRANCH   9  10
ATOM     10  C   UNL     1      10.610  23.535   5.858  0.00  0.00    +0.000 C 
ATOM     11  C   UNL     1      11.253  24.412   4.790  0.00  0.00    +0.000 C 
BRANCH  10  12
ATOM     12  O   UNL     1       9.806  22.548   5.198  0.00  0.00    +0.000 OA
ATOM     13  H   UNL     1      10.134  21.671   5.456  0.00  0.00    +0.000 HD
ENDBRANCH  10  12
ENDBRANCH   9  10
ENDBRANCH   1   9
BRANCH   1  14
ATOM     14  C   UNL     1      10.953  20.623   7.571  0.00  0.00    +0.000 C 
BRANCH  14  15
ATOM     15  C   UNL     1      10.132  19.491   6.909  0.00  0.00    +0.000 C 
ATOM     16  C   UNL     1       9.523  18.523   7.916  0.00  0.00    +0.000 C 
BRANCH  15  17
ATOM     17  O   UNL     1       9.077  20.009   6.100  0.00  0.00    +0.000 OA
ATOM     18  H   UNL     1       9.051  20.967   6.301  0.00  0.00    +0.000 HD
ENDBRANCH  15  17
ENDBRANCH  14  15
ENDBRANCH   1  14
TORSDOF 7
ENDMDL
MODEL 5
REMARK VINA RESULT:    -4.032     17.790     20.381
REMARK INTER + INTRA:          -6.007
REMARK INTER:                  -5.425
REMARK INTRA:                  -0.582
REMARK UNBOUND:                -0.560
REMARK  Name = 
REMARK  10 active torsions:
REMARK  status: ('A' for Active; 'I' for Inactive)
REMARK    1  A    between atoms: C_1  and  C_2
REMARK    2  A    between atoms: C_5  and  N_8
REMARK    3  A    between atoms: N_8  and  C_9
REMARK    4  A    between atoms: N_8  and  C_13
REMARK    5  A    between atoms: C_9  and  C_10
REMARK    6  A    between atoms: C_10  and  C_11
REMARK    7  A    between atoms: C_10  and  O_12
REMARK    8  A    between atoms: C_13  and  C_14
REMARK    9  A    between atoms: C_14  and  C_15
REMARK   10  A    between atoms: C_14  and  O_16
REMARK                            x       y       z     vdW  Elec       q    Type
REMARK                         _______ _______ _______ _____ _____    ______ ____
ROOT
ATOM      1  N   UNL     1      -0.876  20.750 -12.192  0.00  0.00    +0.000 N 
ENDROOT
BRANCH   1   6
ATOM      2  C   UNL     1      -1.866  15.156 -11.164  0.00  0.00    +0.000 C 
ATOM      3  C   UNL     1      -1.633  16.613 -11.427  0.00  0.00    +0.000 A 
ATOM      4  C   UNL     1      -1.675  17.120 -12.722  0.00  0.00    +0.000 A 
ATOM      5  C   UNL     1      -1.426  18.480 -12.966  0.00  0.00    +0.000 A 
ATOM      6  C   UNL     1      -1.104  19.391 -11.944  0.00  0.00    +0.000 A 
ATOM      7  C   UNL     1      -1.073  18.844 -10.648  0.00  0.00    +0.000 A 
ATOM      8  C   UNL     1      -1.321  17.485 -10.389  0.00  0.00    +0.000 A 
ENDBRANCH   1   6
BRANCH   1   9
ATOM      9  C   UNL     1       0.456  21.209 -12.652  0.00  0.00    +0.000 C 
BRANCH   9  10
ATOM     10  C   UNL     1       1.223  22.008 -11.570  0.00  0.00    +0.000 C 
ATOM     11  C   UNL     1       1.923  21.070 -10.594  0.00  0.00    +0.000 C 
BRANCH  10  12
ATOM     12  O   UNL     1       2.218  22.854 -12.163  0.00  0.00    +0.000 OA
ATOM     13  H   UNL     1       3.063  22.376 -12.156  0.00  0.00    +0.000 HD
ENDBRANCH  10  12
ENDBRANCH   9  10
ENDBRANCH   1   9
BRANCH   1  14
ATOM     14  C   UNL     1      -1.711  21.799 -11.551  0.00  0.00    +0.000 C 
BRANCH  14  15
ATOM     15  C   UNL     1      -3.097  21.935 -12.225  0.00  0.00    +0.000 C 
ATOM     16  C   UNL     1      -3.025  21.957 -13.747  0.00  0.00    +0.000 C 
BRANCH  15  17
ATOM     17  O   UNL     1      -3.976  20.879 -11.839  0.00  0.00    +0.000 OA
ATOM     18  H   UNL     1      -3.401  20.094 -11.742  0.00  0.00    +0.000 HD
ENDBRANCH  15  17
ENDBRANCH  14  15
ENDBRANCH   1  14
TORSDOF 7
ENDMDL
MODEL 6
REMARK VINA RESULT:    -3.973     19.406     21.041
REMARK INTER + INTRA:          -5.927
REMARK INTER:                  -5.530
REMARK INTRA:                  -0.397
REMARK UNBOUND:                -0.560
REMARK  Name = 
REMARK  10 active torsions:
REMARK  status: ('A' for Active; 'I' for Inactive)
REMARK    1  A    between atoms: C_1  and  C_2
REMARK    2  A    between atoms: C_5  and  N_8
REMARK    3  A    between atoms: N_8  and  C_9
REMARK    4  A    between atoms: N_8  and  C_13
REMARK    5  A    between atoms: C_9  and  C_10
REMARK    6  A    between atoms: C_10  and  C_11
REMARK    7  A    between atoms: C_10  and  O_12
REMARK    8  A    between atoms: C_13  and  C_14
REMARK    9  A    between atoms: C_14  and  C_15
REMARK   10  A    between atoms: C_14  and  O_16
REMARK                            x       y       z     vdW  Elec       q    Type
REMARK                         _______ _______ _______ _____ _____    ______ ____
ROOT
ATOM      1  N   UNL     1      -2.676  17.056 -11.743  0.00  0.00    +0.000 N 
ENDROOT
BRANCH   1   6
ATOM      2  C   UNL     1       0.435  21.856 -12.525  0.00  0.00    +0.000 C 
ATOM      3  C   UNL     1      -0.352  20.597 -12.330  0.00  0.00    +0.000 A 
ATOM      4  C   UNL     1      -1.151  20.089 -13.349  0.00  0.00    +0.000 A 
ATOM      5  C   UNL     1      -1.911  18.925 -13.150  0.00  0.00    +0.000 A 
ATOM      6  C   UNL     1      -1.931  18.228 -11.928  0.00  0.00    +0.000 A 
ATOM      7  C   UNL     1      -1.110  18.769 -10.922  0.00  0.00    +0.000 A 
ATOM      8  C   UNL     1      -0.344  19.931 -11.108  0.00  0.00    +0.000 A 
ENDBRANCH   1   6
BRANCH   1   9
ATOM      9  C   UNL     1      -3.120  16.265 -12.916  0.00  0.00    +0.000 C 
BRANCH   9  10
ATOM     10  C   UNL     1      -2.168  15.087 -13.240  0.00  0.00    +0.000 C 
ATOM     11  C   UNL     1      -0.743  15.400 -12.796  0.00  0.00    +0.000 C 
BRANCH  10  12
ATOM     12  O   UNL     1      -2.587  13.888 -12.574  0.00  0.00    +0.000 OA
ATOM     13  H   UNL     1      -3.353  13.530 -13.053  0.00  0.00    +0.000 HD
ENDBRANCH  10  12
ENDBRANCH   9  10
ENDBRANCH   1   9
BRANCH   1  14
ATOM     14  C   UNL     1      -3.467  16.836 -10.505  0.00  0.00    +0.000 C 
BRANCH  14  15
ATOM     15  C   UNL     1      -3.009  15.573  -9.737  0.00  0.00    +0.000 C 
ATOM     16  C   UNL     1      -1.565  15.654  -9.257  0.00  0.00    +0.000 C 
BRANCH  15  17
ATOM     17  O   UNL     1      -3.837  15.315  -8.604  0.00  0.00    +0.000 OA
ATOM     18  H   UNL     1      -3.536  14.449  -8.262  0.00  0.00    +0.000 HD
ENDBRANCH  15  17
ENDBRANCH  14  15
ENDBRANCH   1  14
TORSDOF 7
ENDMDL
MODEL 7
REMARK VINA RESULT:    -3.801      4.281      6.549
REMARK INTER + INTRA:          -5.694
REMARK INTER:                  -5.179
REMARK INTRA:                  -0.515
REMARK UNBOUND:                -0.560
REMARK  Name = 
REMARK  10 active torsions:
REMARK  status: ('A' for Active; 'I' for Inactive)
REMARK    1  A    between atoms: C_1  and  C_2
REMARK    2  A    between atoms: C_5  and  N_8
REMARK    3  A    between atoms: N_8  and  C_9
REMARK    4  A    between atoms: N_8  and  C_13
REMARK    5  A    between atoms: C_9  and  C_10
REMARK    6  A    between atoms: C_10  and  C_11
REMARK    7  A    between atoms: C_10  and  O_12
REMARK    8  A    between atoms: C_13  and  C_14
REMARK    9  A    between atoms: C_14  and  C_15
REMARK   10  A    between atoms: C_14  and  O_16
REMARK                            x       y       z     vdW  Elec       q    Type
REMARK                         _______ _______ _______ _____ _____    ______ ____
ROOT
ATOM      1  N   UNL     1      14.556  20.916   4.318  0.00  0.00    +0.000 N 
ENDROOT
BRANCH   1   6
ATOM      2  C   UNL     1      10.030  19.635   7.666  0.00  0.00    +0.000 C 
ATOM      3  C   UNL     1      11.206  19.990   6.808  0.00  0.00    +0.000 A 
ATOM      4  C   UNL     1      11.026  20.539   5.543  0.00  0.00    +0.000 A 
ATOM      5  C   UNL     1      12.131  20.843   4.730  0.00  0.00    +0.000 A 
ATOM      6  C   UNL     1      13.458  20.593   5.126  0.00  0.00    +0.000 A 
ATOM      7  C   UNL     1      13.602  20.039   6.411  0.00  0.00    +0.000 A 
ATOM      8  C   UNL     1      12.505  19.733   7.234  0.00  0.00    +0.000 A 
ENDBRANCH   1   6
BRANCH   1   9
ATOM      9  C   UNL     1      14.352  21.641   3.041  0.00  0.00    +0.000 C 
BRANCH   9  10
ATOM     10  C   UNL     1      15.007  23.044   3.036  0.00  0.00    +0.000 C 
ATOM     11  C   UNL     1      16.066  23.147   1.946  0.00  0.00    +0.000 C 
BRANCH  10  12
ATOM     12  O   UNL     1      14.029  24.067   2.804  0.00  0.00    +0.000 OA
ATOM     13  H   UNL     1      13.162  23.724   3.079  0.00  0.00    +0.000 HD
ENDBRANCH  10  12
ENDBRANCH   9  10
ENDBRANCH   1   9
BRANCH   1  14
ATOM     14  C   UNL     1      15.826  20.151   4.406  0.00  0.00    +0.000 C 
BRANCH  14  15
ATOM     15  C   UNL     1      16.139  19.386   3.097  0.00  0.00    +0.000 C 
ATOM     16  C   UNL     1      17.633  19.221   2.842  0.00  0.00    +0.000 C 
BRANCH  15  17
ATOM     17  O   UNL     1      15.543  18.090   3.088  0.00  0.00    +0.000 OA
ATOM     18  H   UNL     1      16.238  17.495   2.741  0.00  0.00    +0.000 HD
ENDBRANCH  15  17
ENDBRANCH  14  15
ENDBRANCH   1  14
TORSDOF 7
ENDMDL
MODEL 8
REMARK VINA RESULT:    -3.722      4.028      5.670
REMARK INTER + INTRA:          -5.587
REMARK INTER:                  -4.847
REMARK INTRA:                  -0.740
REMARK UNBOUND:                -0.560
REMARK  Name = 
REMARK  10 active torsions:
REMARK  status: ('A' for Active; 'I' for Inactive)
REMARK    1  A    between atoms: C_1  and  C_2
REMARK    2  A    between atoms: C_5  and  N_8
REMARK    3  A    between atoms: N_8  and  C_9
REMARK    4  A    between atoms: N_8  and  C_13
REMARK    5  A    between atoms: C_9  and  C_10
REMARK    6  A    between atoms: C_10  and  C_11
REMARK    7  A    between atoms: C_10  and  O_12
REMARK    8  A    between atoms: C_13  and  C_14
REMARK    9  A    between atoms: C_14  and  C_15
REMARK   10  A    between atoms: C_14  and  O_16
REMARK                            x       y       z     vdW  Elec       q    Type
REMARK                         _______ _______ _______ _____ _____    ______ ____
ROOT
ATOM      1  N   UNL     1      15.119  20.842   4.828  0.00  0.00    +0.000 N 
ENDROOT
BRANCH   1   6
ATOM      2  C   UNL     1       9.772  23.018   4.894  0.00  0.00    +0.000 C 
ATOM      3  C   UNL     1      11.160  22.454   4.902  0.00  0.00    +0.000 A 
ATOM      4  C   UNL     1      12.271  23.288   4.827  0.00  0.00    +0.000 A 
ATOM      5  C   UNL     1      13.569  22.752   4.804  0.00  0.00    +0.000 A 
ATOM      6  C   UNL     1      13.821  21.369   4.831  0.00  0.00    +0.000 A 
ATOM      7  C   UNL     1      12.676  20.556   4.908  0.00  0.00    +0.000 A 
ATOM      8  C   UNL     1      11.372  21.079   4.934  0.00  0.00    +0.000 A 
ENDBRANCH   1   6
BRANCH   1   9
ATOM      9  C   UNL     1      15.930  20.854   6.069  0.00  0.00    +0.000 C 
BRANCH   9  10
ATOM     10  C   UNL     1      15.595  19.676   7.017  0.00  0.00    +0.000 C 
ATOM     11  C   UNL     1      14.583  20.099   8.075  0.00  0.00    +0.000 C 
BRANCH  10  12
ATOM     12  O   UNL     1      15.041  18.572   6.288  0.00  0.00    +0.000 OA
ATOM     13  H   UNL     1      15.759  18.151   5.787  0.00  0.00    +0.000 HD
ENDBRANCH  10  12
ENDBRANCH   9  10
ENDBRANCH   1   9
BRANCH   1  14
ATOM     14  C   UNL     1      15.904  20.738   3.571  0.00  0.00    +0.000 C 
BRANCH  14  15
ATOM     15  C   UNL     1      16.099  19.270   3.123  0.00  0.00    +0.000 C 
ATOM     16  C   UNL     1      17.418  18.670   3.595  0.00  0.00    +0.000 C 
BRANCH  15  17
ATOM     17  O   UNL     1      15.042  18.432   3.587  0.00  0.00    +0.000 OA
ATOM     18  H   UNL     1      15.218  18.308   4.541  0.00  0.00    +0.000 HD
ENDBRANCH  15  17
ENDBRANCH  14  15
ENDBRANCH   1  14
TORSDOF 7
ENDMDL
MODEL 9
REMARK VINA RESULT:    -3.642     19.018     21.013
REMARK INTER + INTRA:          -5.480
REMARK INTER:                  -4.948
REMARK INTRA:                  -0.532
REMARK UNBOUND:                -0.560
REMARK  Name = 
REMARK  10 active torsions:
REMARK  status: ('A' for Active; 'I' for Inactive)
REMARK    1  A    between atoms: C_1  and  C_2
REMARK    2  A    between atoms: C_5  and  N_8
REMARK    3  A    between atoms: N_8  and  C_9
REMARK    4  A    between atoms: N_8  and  C_13
REMARK    5  A    between atoms: C_9  and  C_10
REMARK    6  A    between atoms: C_10  and  C_11
REMARK    7  A    between atoms: C_10  and  O_12
REMARK    8  A    between atoms: C_13  and  C_14
REMARK    9  A    between atoms: C_14  and  C_15
REMARK   10  A    between atoms: C_14  and  O_16
REMARK                            x       y       z     vdW  Elec       q    Type
REMARK                         _______ _______ _______ _____ _____    ______ ____
ROOT
ATOM      1  N   UNL     1      -2.444  17.445 -11.686  0.00  0.00    +0.000 N 
ENDROOT
BRANCH   1   6
ATOM      2  C   UNL     1      -1.131  23.057 -12.025  0.00  0.00    +0.000 C 
ATOM      3  C   UNL     1      -1.481  21.604 -11.913  0.00  0.00    +0.000 A 
ATOM      4  C   UNL     1      -0.549  20.679 -11.456  0.00  0.00    +0.000 A 
ATOM      5  C   UNL     1      -0.872  19.314 -11.382  0.00  0.00    +0.000 A 
ATOM      6  C   UNL     1      -2.122  18.805 -11.780  0.00  0.00    +0.000 A 
ATOM      7  C   UNL     1      -3.039  19.770 -12.236  0.00  0.00    +0.000 A 
ATOM      8  C   UNL     1      -2.730  21.137 -12.312  0.00  0.00    +0.000 A 
ENDBRANCH   1   6
BRANCH   1   9
ATOM      9  C   UNL     1      -3.044  16.908 -10.441  0.00  0.00    +0.000 C 
BRANCH   9  10
ATOM     10  C   UNL     1      -2.171  15.814  -9.778  0.00  0.00    +0.000 C 
ATOM     11  C   UNL     1      -1.045  16.435  -8.960  0.00  0.00    +0.000 C 
BRANCH  10  12
ATOM     12  O   UNL     1      -2.954  14.991  -8.903  0.00  0.00    +0.000 OA
ATOM     13  H   UNL     1      -2.758  15.252  -7.988  0.00  0.00    +0.000 HD
ENDBRANCH  10  12
ENDBRANCH   9  10
ENDBRANCH   1   9
BRANCH   1  14
ATOM     14  C   UNL     1      -1.771  16.434 -12.541  0.00  0.00    +0.000 C 
BRANCH  14  15
ATOM     15  C   UNL     1      -2.760  15.730 -13.501  0.00  0.00    +0.000 C 
ATOM     16  C   UNL     1      -3.102  14.308 -13.072  0.00  0.00    +0.000 C 
BRANCH  15  17
ATOM     17  O   UNL     1      -3.981  16.458 -13.628  0.00  0.00    +0.000 OA
ATOM     18  H   UNL     1      -4.685  15.805 -13.444  0.00  0.00    +0.000 HD
ENDBRANCH  15  17
ENDBRANCH  14  15
ENDBRANCH   1  14
TORSDOF 7
ENDMDL
