MODEL 1
REMARK VINA RESULT:    -4.108      0.000      0.000
REMARK INTER + INTRA:          -4.499
REMARK INTER:                  -4.468
REMARK INTRA:                  -0.031
REMARK UNBOUND:                -0.031
REMARK  Name = 
REMARK  3 active torsions:
REMARK  status: ('A' for Active; 'I' for Inactive)
REMARK    1  A    between atoms: C_1  and  O_2
REMARK    2  A    between atoms: O_2  and  C_3
REMARK    3  A    between atoms: C_8  and  O_9
REMARK                            x       y       z     vdW  Elec       q    Type
REMARK                         _______ _______ _______ _____ _____    ______ ____
ROOT
ATOM      1  C   UNL     1       2.863  13.487   1.827  0.00  0.00    +0.000 A 
ATOM      2  C   UNL     1       2.336  13.629   3.110  0.00  0.00    +0.000 A 
ATOM      3  C   UNL     1       2.280  12.525   3.970  0.00  0.00    +0.000 A 
ATOM      4  C   UNL     1       2.748  11.278   3.552  0.00  0.00    +0.000 A 
ATOM      5  C   UNL     1       3.277  11.128   2.272  0.00  0.00    +0.000 A 
ATOM      6  C   UNL     1       3.328  12.228   1.426  0.00  0.00    +0.000 A 
ENDROOT
BRANCH   1   8
ATOM      7  C   UNL     1       4.055  15.390   1.051  0.00  0.00    +0.000 C 
ATOM      8  O   UNL     1       2.978  14.476   0.883  0.00  0.00    +0.000 OA
ENDBRANCH   1   8
BRANCH   6   9
ATOM      9  O   UNL     1       3.851  12.056   0.172  0.00  0.00    +0.000 OA
ATOM     10  H   UNL     1       3.249  12.548  -0.418  0.00  0.00    +0.000 HD
ENDBRANCH   6   9
TORSDOF 2
ENDMDL
MODEL 2
REMARK VINA RESULT:    -3.933     10.230     11.419
REMARK INTER + INTRA:          -4.309
REMARK INTER:                  -4.268
REMARK INTRA:                  -0.041
REMARK UNBOUND:                -0.031
REMARK  Name = 
REMARK  3 active torsions:
REMARK  status: ('A' for Active; 'I' for Inactive)
REMARK    1  A    between atoms: C_1  and  O_2
REMARK    2  A    between atoms: O_2  and  C_3
REMARK    3  A    between atoms: C_8  and  O_9
REMARK                            x       y       z     vdW  Elec       q    Type
REMARK                         _______ _______ _______ _____ _____    ______ ____
ROOT
ATOM      1  C   UNL     1       7.012  23.318   3.344  0.00  0.00    +0.000 A 
ATOM      2  C   UNL     1       7.867  24.411   3.477  0.00  0.00    +0.000 A 
ATOM      3  C   UNL     1       9.078  24.272   4.168  0.00  0.00    +0.000 A 
ATOM      4  C   UNL     1       9.436  23.044   4.727  0.00  0.00    +0.000 A 
ATOM      5  C   UNL     1       8.587  21.948   4.598  0.00  0.00    +0.000 A 
ATOM      6  C   UNL     1       7.389  22.095   3.911  0.00  0.00    +0.000 A 
ENDROOT
BRANCH   1   8
ATOM      7  C   UNL     1       5.651  24.225   1.620  0.00  0.00    +0.000 C 
ATOM      8  O   UNL     1       5.802  23.310   2.698  0.00  0.00    +0.000 OA
ENDBRANCH   1   8
BRANCH   6   9
ATOM      9  O   UNL     1       6.570  21.003   3.798  0.00  0.00    +0.000 OA
ATOM     10  H   UNL     1       6.184  20.888   4.687  0.00  0.00    +0.000 HD
ENDBRANCH   6   9
TORSDOF 2
ENDMDL
MODEL 3
REMARK VINA RESULT:    -3.841     10.115     11.796
REMARK INTER + INTRA:          -4.209
REMARK INTER:                  -4.171
REMARK INTRA:                  -0.037
REMARK UNBOUND:                -0.031
REMARK  Name = 
REMARK  3 active torsions:
REMARK  status: ('A' for Active; 'I' for Inactive)
REMARK    1  A    between atoms: C_1  and  O_2
REMARK    2  A    between atoms: O_2  and  C_3
REMARK    3  A    between atoms: C_8  and  O_9
REMARK                            x       y       z     vdW  Elec       q    Type
REMARK                         _______ _______ _______ _____ _____    ______ ____
ROOT
ATOM      1  C   UNL     1       8.655  23.253   4.248  0.00  0.00    +0.000 A 
ATOM      2  C   UNL     1       8.198  24.319   3.473  0.00  0.00    +0.000 A 
ATOM      3  C   UNL     1       7.044  24.172   2.693  0.00  0.00    +0.000 A 
ATOM      4  C   UNL     1       6.345  22.963   2.683  0.00  0.00    +0.000 A 
ATOM      5  C   UNL     1       6.795  21.895   3.454  0.00  0.00    +0.000 A 
ATOM      6  C   UNL     1       7.941  22.049   4.225  0.00  0.00    +0.000 A 
ENDROOT
BRANCH   1   8
ATOM      7  C   UNL     1      10.590  24.412   4.997  0.00  0.00    +0.000 C 
ATOM      8  O   UNL     1       9.764  23.255   5.055  0.00  0.00    +0.000 OA
ENDBRANCH   1   8
BRANCH   6   9
ATOM      9  O   UNL     1       8.364  20.984   4.975  0.00  0.00    +0.000 OA
ATOM     10  H   UNL     1       8.689  20.334   4.322  0.00  0.00    +0.000 HD
ENDBRANCH   6   9
TORSDOF 2
ENDMDL
MODEL 4
REMARK VINA RESULT:    -3.637     10.283     11.897
REMARK INTER + INTRA:          -3.987
REMARK INTER:                  -3.941
REMARK INTRA:                  -0.046
REMARK UNBOUND:                -0.031
REMARK  Name = 
REMARK  3 active torsions:
REMARK  status: ('A' for Active; 'I' for Inactive)
REMARK    1  A    between atoms: C_1  and  O_2
REMARK    2  A    between atoms: O_2  and  C_3
REMARK    3  A    between atoms: C_8  and  O_9
REMARK                            x       y       z     vdW  Elec       q    Type
REMARK                         _______ _______ _______ _____ _____    ______ ____
ROOT
ATOM      1  C   UNL     1      10.694  19.768   7.134  0.00  0.00    +0.000 A 
ATOM      2  C   UNL     1      12.066  19.785   7.382  0.00  0.00    +0.000 A 
ATOM      3  C   UNL     1      12.941  20.335   6.437  0.00  0.00    +0.000 A 
ATOM      4  C   UNL     1      12.450  20.868   5.244  0.00  0.00    +0.000 A 
ATOM      5  C   UNL     1      11.081  20.855   4.989  0.00  0.00    +0.000 A 
ATOM      6  C   UNL     1      10.221  20.307   5.931  0.00  0.00    +0.000 A 
ENDROOT
BRANCH   1   8
ATOM      7  C   UNL     1       9.647  17.846   8.059  0.00  0.00    +0.000 C 
ATOM      8  O   UNL     1       9.726  19.263   7.965  0.00  0.00    +0.000 OA
ENDBRANCH   1   8
BRANCH   6   9
ATOM      9  O   UNL     1       8.879  20.305   5.658  0.00  0.00    +0.000 OA
ATOM     10  H   UNL     1       8.805  19.892   4.777  0.00  0.00    +0.000 HD
ENDBRANCH   6   9
TORSDOF 2
ENDMDL
MODEL 5
REMARK VINA RESULT:    -3.513     13.696     14.659
REMARK INTER + INTRA:          -3.853
REMARK INTER:                  -3.800
REMARK INTRA:                  -0.053
REMARK UNBOUND:                -0.031
REMARK  Name = 
REMARK  3 active torsions:
REMARK  status: ('A' for Active; 'I' for Inactive)
REMARK    1  A    between atoms: C_1  and  O_2
REMARK    2  A    between atoms: O_2  and  C_3
REMARK    3  A    between atoms: C_8  and  O_9
REMARK                            x       y       z     vdW  Elec       q    Type
REMARK                         _______ _______ _______ _____ _____    ______ ____
ROOT
ATOM      1  C   UNL     1      -2.543  16.188 -11.612  0.00  0.00    +0.000 A 
ATOM      2  C   UNL     1      -1.884  17.326 -11.148  0.00  0.00    +0.000 A 
ATOM      3  C   UNL     1      -1.167  17.277  -9.946  0.00  0.00    +0.000 A 
ATOM      4  C   UNL     1      -1.106  16.095  -9.205  0.00  0.00    +0.000 A 
ATOM      5  C   UNL     1      -1.762  14.954  -9.662  0.00  0.00    +0.000 A 
ATOM      6  C   UNL     1      -2.471  15.012 -10.855  0.00  0.00    +0.000 A 
ENDROOT
BRANCH   1   8
ATOM      7  C   UNL     1      -4.462  16.880 -12.831  0.00  0.00    +0.000 C 
ATOM      8  O   UNL     1      -3.280  16.091 -12.765  0.00  0.00    +0.000 OA
ENDBRANCH   1   8
BRANCH   6   9
ATOM      9  O   UNL     1      -3.107  13.878 -11.285  0.00  0.00    +0.000 OA
ATOM     10  H   UNL     1      -3.223  13.338 -10.479  0.00  0.00    +0.000 HD
ENDBRANCH   6   9
TORSDOF 2
ENDMDL
MODEL 6
REMARK VINA RESULT:    -3.478     10.892     11.907
REMARK INTER + INTRA:          -3.814
REMARK INTER:                  -3.774
REMARK INTRA:                  -0.039
REMARK UNBOUND:                -0.031
REMARK  Name = 
REMARK  3 active torsions:
REMARK  status: ('A' for Active; 'I' for Inactive)
REMARK    1  A    between atoms: C_1  and  O_2
REMARK    2  A    between atoms: O_2  and  C_3
REMARK    3  A    between atoms: C_8  and  O_9
REMARK                            x       y       z     vdW  Elec       q    Type
REMARK                         _______ _______ _______ _____ _____    ______ ____
ROOT
ATOM      1  C   UNL     1       9.347  22.058   4.847  0.00  0.00    +0.000 A 
ATOM      2  C   UNL     1      10.138  23.191   4.661  0.00  0.00    +0.000 A 
ATOM      3  C   UNL     1      11.494  23.164   5.011  0.00  0.00    +0.000 A 
ATOM      4  C   UNL     1      12.063  22.008   5.548  0.00  0.00    +0.000 A 
ATOM      5  C   UNL     1      11.279  20.871   5.737  0.00  0.00    +0.000 A 
ATOM      6  C   UNL     1       9.935  20.908   5.387  0.00  0.00    +0.000 A 
ENDROOT
BRANCH   1   8
ATOM      7  C   UNL     1       7.493  22.859   3.596  0.00  0.00    +0.000 C 
ATOM      8  O   UNL     1       8.012  21.943   4.552  0.00  0.00    +0.000 OA
ENDBRANCH   1   8
BRANCH   6   9
ATOM      9  O   UNL     1       9.186  19.778   5.582  0.00  0.00    +0.000 OA
ATOM     10  H   UNL     1       9.834  19.049   5.597  0.00  0.00    +0.000 HD
ENDBRANCH   6   9
TORSDOF 2
ENDMDL
MODEL 7
REMARK VINA RESULT:    -3.403     10.597     11.726
REMARK INTER + INTRA:          -3.733
REMARK INTER:                  -3.690
REMARK INTRA:                  -0.043
REMARK UNBOUND:                -0.031
REMARK  Name = 
REMARK  3 active torsions:
REMARK  status: ('A' for Active; 'I' for Inactive)
REMARK    1  A    between atoms: C_1  and  O_2
REMARK    2  A    between atoms: O_2  and  C_3
REMARK    3  A    between atoms: C_8  and  O_9
REMARK                            x       y       z     vdW  Elec       q    Type
REMARK                         _______ _______ _______ _____ _____    ______ ____
ROOT
ATOM      1  C   UNL     1      11.105  20.714   5.861  0.00  0.00    +0.000 A 
ATOM      2  C   UNL     1      12.266  20.429   6.577  0.00  0.00    +0.000 A 
ATOM      3  C   UNL     1      12.223  19.529   7.650  0.00  0.00    +0.000 A 
ATOM      4  C   UNL     1      11.023  18.914   8.010  0.00  0.00    +0.000 A 
ATOM      5  C   UNL     1       9.858  19.194   7.299  0.00  0.00    +0.000 A 
ATOM      6  C   UNL     1       9.910  20.088   6.236  0.00  0.00    +0.000 A 
ENDROOT
BRANCH   1   8
ATOM      7  C   UNL     1      11.035  22.961   5.091  0.00  0.00    +0.000 C 
ATOM      8  O   UNL     1      11.000  21.570   4.794  0.00  0.00    +0.000 OA
ENDBRANCH   1   8
BRANCH   6   9
ATOM      9  O   UNL     1       8.753  20.347   5.552  0.00  0.00    +0.000 OA
ATOM     10  H   UNL     1       8.851  19.868   4.707  0.00  0.00    +0.000 HD
ENDBRANCH   6   9
TORSDOF 2
ENDMDL
MODEL 8
REMARK VINA RESULT:    -3.296     13.447     14.453
REMARK INTER + INTRA:          -3.616
REMARK INTER:                  -3.578
REMARK INTRA:                  -0.038
REMARK UNBOUND:                -0.031
REMARK  Name = 
REMARK  3 active torsions:
REMARK  status: ('A' for Active; 'I' for Inactive)
REMARK    1  A    between atoms: C_1  and  O_2
REMARK    2  A    between atoms: O_2  and  C_3
REMARK    3  A    between atoms: C_8  and  O_9
REMARK                            x       y       z     vdW  Elec       q    Type
REMARK                         _______ _______ _______ _____ _____    ______ ____
ROOT
ATOM      1  C   UNL     1      -2.219  17.554 -10.798  0.00  0.00    +0.000 A 
ATOM      2  C   UNL     1      -1.164  17.252  -9.938  0.00  0.00    +0.000 A 
ATOM      3  C   UNL     1      -1.109  16.000  -9.311  0.00  0.00    +0.000 A 
ATOM      4  C   UNL     1      -2.106  15.050  -9.540  0.00  0.00    +0.000 A 
ATOM      5  C   UNL     1      -3.163  15.345 -10.398  0.00  0.00    +0.000 A 
ATOM      6  C   UNL     1      -3.210  16.588 -11.015  0.00  0.00    +0.000 A 
ENDROOT
BRANCH   1   8
ATOM      7  C   UNL     1      -1.302  19.637 -11.482  0.00  0.00    +0.000 C 
ATOM      8  O   UNL     1      -2.401  18.733 -11.476  0.00  0.00    +0.000 OA
ENDBRANCH   1   8
BRANCH   6   9
ATOM      9  O   UNL     1      -4.259  16.855 -11.854  0.00  0.00    +0.000 OA
ATOM     10  H   UNL     1      -4.025  16.413 -12.693  0.00  0.00    +0.000 HD
ENDBRANCH   6   9
TORSDOF 2
ENDMDL
MODEL 9
REMARK VINA RESULT:    -3.155     13.589     14.686
REMARK INTER + INTRA:          -3.462
REMARK INTER:                  -3.425
REMARK INTRA:                  -0.037
REMARK UNBOUND:                -0.031
REMARK  Name = 
REMARK  3 active torsions:
REMARK  status: ('A' for Active; 'I' for Inactive)
REMARK    1  A    between atoms: C_1  and  O_2
REMARK    2  A    between atoms: O_2  and  C_3
REMARK    3  A    between atoms: C_8  and  O_9
REMARK                            x       y       z     vdW  Elec       q    Type
REMARK                         _______ _______ _______ _____ _____    ______ ____
ROOT
ATOM      1  C   UNL     1      -2.474  15.238 -11.032  0.00  0.00    +0.000 A 
ATOM      2  C   UNL     1      -1.790  15.052  -9.831  0.00  0.00    +0.000 A 
ATOM      3  C   UNL     1      -1.102  16.121  -9.246  0.00  0.00    +0.000 A 
ATOM      4  C   UNL     1      -1.093  17.377  -9.856  0.00  0.00    +0.000 A 
ATOM      5  C   UNL     1      -1.775  17.571 -11.055  0.00  0.00    +0.000 A 
ATOM      6  C   UNL     1      -2.455  16.504 -11.629  0.00  0.00    +0.000 A 
ENDROOT
BRANCH   1   8
ATOM      7  C   UNL     1      -4.468  13.954 -11.193  0.00  0.00    +0.000 C 
ATOM      8  O   UNL     1      -3.186  14.285 -11.716  0.00  0.00    +0.000 OA
ENDBRANCH   1   8
BRANCH   6   9
ATOM      9  O   UNL     1      -3.117  16.719 -12.809  0.00  0.00    +0.000 OA
ATOM     10  H   UNL     1      -3.990  17.066 -12.543  0.00  0.00    +0.000 HD
ENDBRANCH   6   9
TORSDOF 2
ENDMDL
