MODEL 1
REMARK VINA RESULT:    -4.958      0.000      0.000
REMARK INTER + INTRA:          -5.435
REMARK INTER:                  -5.393
REMARK INTRA:                  -0.042
REMARK UNBOUND:                -0.042
REMARK  Name = 
REMARK  3 active torsions:
REMARK  status: ('A' for Active; 'I' for Inactive)
REMARK    1  A    between atoms: C_1  and  O_2
REMARK    2  A    between atoms: O_2  and  C_3
REMARK    3  A    between atoms: C_8  and  O_9
REMARK                            x       y       z     vdW  Elec       q    Type
REMARK                         _______ _______ _______ _____ _____    ______ ____
ROOT
ATOM      1  C   UNL     1      12.592   0.927   6.249  0.00  0.00    +0.000 A 
ATOM      2  C   UNL     1      12.603   0.861   7.642  0.00  0.00    +0.000 A 
ATOM      3  C   UNL     1      11.452   0.463   8.333  0.00  0.00    +0.000 A 
ATOM      4  C   UNL     1      10.288   0.131   7.637  0.00  0.00    +0.000 A 
ATOM      5  C   UNL     1      10.269   0.194   6.245  0.00  0.00    +0.000 A 
ATOM      6  C   UNL     1      11.415   0.590   5.568  0.00  0.00    +0.000 A 
ENDROOT
BRANCH   1   8
ATOM      7  C   UNL     1      13.945   2.687   5.403  0.00  0.00    +0.000 C 
ATOM      8  O   UNL     1      13.640   1.299   5.446  0.00  0.00    +0.000 OA
ENDBRANCH   1   8
BRANCH   6   9
ATOM      9  O   UNL     1      11.372   0.644   4.201  0.00  0.00    +0.000 OA
ATOM     10  H   UNL     1      11.431   1.595   3.988  0.00  0.00    +0.000 HD
ENDBRANCH   6   9
TORSDOF 2
ENDMDL
MODEL 2
REMARK VINA RESULT:    -4.745      2.106      3.357
REMARK INTER + INTRA:          -5.203
REMARK INTER:                  -5.151
REMARK INTRA:                  -0.052
REMARK UNBOUND:                -0.042
REMARK  Name = 
REMARK  3 active torsions:
REMARK  status: ('A' for Active; 'I' for Inactive)
REMARK    1  A    between atoms: C_1  and  O_2
REMARK    2  A    between atoms: O_2  and  C_3
REMARK    3  A    between atoms: C_8  and  O_9
REMARK                            x       y       z     vdW  Elec       q    Type
REMARK                         _______ _______ _______ _____ _____    ______ ____
ROOT
ATOM      1  C   UNL     1      11.110   0.465   7.733  0.00  0.00    +0.000 A 
ATOM      2  C   UNL     1      12.492   0.646   7.776  0.00  0.00    +0.000 A 
ATOM      3  C   UNL     1      13.206   0.862   6.591  0.00  0.00    +0.000 A 
ATOM      4  C   UNL     1      12.545   0.898   5.362  0.00  0.00    +0.000 A 
ATOM      5  C   UNL     1      11.164   0.719   5.311  0.00  0.00    +0.000 A 
ATOM      6  C   UNL     1      10.464   0.504   6.491  0.00  0.00    +0.000 A 
ENDROOT
BRANCH   1   8
ATOM      7  C   UNL     1      10.522  -0.945   9.553  0.00  0.00    +0.000 C 
ATOM      8  O   UNL     1      10.287   0.244   8.808  0.00  0.00    +0.000 OA
ENDBRANCH   1   8
BRANCH   6   9
ATOM      9  O   UNL     1       9.108   0.330   6.415  0.00  0.00    +0.000 OA
ATOM     10  H   UNL     1       8.824   0.906   5.679  0.00  0.00    +0.000 HD
ENDBRANCH   6   9
TORSDOF 2
ENDMDL
MODEL 3
REMARK VINA RESULT:    -4.692      1.757      2.941
REMARK INTER + INTRA:          -5.146
REMARK INTER:                  -5.106
REMARK INTRA:                  -0.039
REMARK UNBOUND:                -0.042
REMARK  Name = 
REMARK  3 active torsions:
REMARK  status: ('A' for Active; 'I' for Inactive)
REMARK    1  A    between atoms: C_1  and  O_2
REMARK    2  A    between atoms: O_2  and  C_3
REMARK    3  A    between atoms: C_8  and  O_9
REMARK                            x       y       z     vdW  Elec       q    Type
REMARK                         _______ _______ _______ _____ _____    ______ ____
ROOT
ATOM      1  C   UNL     1      11.351   1.414   6.199  0.00  0.00    +0.000 A 
ATOM      2  C   UNL     1      11.554   0.495   7.228  0.00  0.00    +0.000 A 
ATOM      3  C   UNL     1      12.183   0.898   8.412  0.00  0.00    +0.000 A 
ATOM      4  C   UNL     1      12.613   2.216   8.572  0.00  0.00    +0.000 A 
ATOM      5  C   UNL     1      12.414   3.141   7.549  0.00  0.00    +0.000 A 
ATOM      6  C   UNL     1      11.789   2.732   6.378  0.00  0.00    +0.000 A 
ENDROOT
BRANCH   1   8
ATOM      7  C   UNL     1       9.869   0.046   4.942  0.00  0.00    +0.000 C 
ATOM      8  O   UNL     1      10.753   1.160   4.991  0.00  0.00    +0.000 OA
ENDBRANCH   1   8
BRANCH   6   9
ATOM      9  O   UNL     1      11.604   3.658   5.386  0.00  0.00    +0.000 OA
ATOM     10  H   UNL     1      10.647   3.850   5.400  0.00  0.00    +0.000 HD
ENDBRANCH   6   9
TORSDOF 2
ENDMDL
MODEL 4
REMARK VINA RESULT:    -4.638      1.403      2.243
REMARK INTER + INTRA:          -5.086
REMARK INTER:                  -5.038
REMARK INTRA:                  -0.049
REMARK UNBOUND:                -0.042
REMARK  Name = 
REMARK  3 active torsions:
REMARK  status: ('A' for Active; 'I' for Inactive)
REMARK    1  A    between atoms: C_1  and  O_2
REMARK    2  A    between atoms: O_2  and  C_3
REMARK    3  A    between atoms: C_8  and  O_9
REMARK                            x       y       z     vdW  Elec       q    Type
REMARK                         _______ _______ _______ _____ _____    ______ ____
ROOT
ATOM      1  C   UNL     1      11.705   0.953   6.843  0.00  0.00    +0.000 A 
ATOM      2  C   UNL     1      10.537   0.349   7.305  0.00  0.00    +0.000 A 
ATOM      3  C   UNL     1       9.579  -0.111   6.393  0.00  0.00    +0.000 A 
ATOM      4  C   UNL     1       9.783   0.032   5.019  0.00  0.00    +0.000 A 
ATOM      5  C   UNL     1      10.948   0.634   4.549  0.00  0.00    +0.000 A 
ATOM      6  C   UNL     1      11.893   1.087   5.461  0.00  0.00    +0.000 A 
ENDROOT
BRANCH   1   8
ATOM      7  C   UNL     1      12.454   2.649   8.328  0.00  0.00    +0.000 C 
ATOM      8  O   UNL     1      12.724   1.447   7.617  0.00  0.00    +0.000 OA
ENDBRANCH   1   8
BRANCH   6   9
ATOM      9  O   UNL     1      13.030   1.675   4.976  0.00  0.00    +0.000 OA
ATOM     10  H   UNL     1      13.760   1.126   5.319  0.00  0.00    +0.000 HD
ENDBRANCH   6   9
TORSDOF 2
ENDMDL
MODEL 5
REMARK VINA RESULT:    -4.595     11.070     11.832
REMARK INTER + INTRA:          -5.040
REMARK INTER:                  -4.987
REMARK INTRA:                  -0.053
REMARK UNBOUND:                -0.042
REMARK  Name = 
REMARK  3 active torsions:
REMARK  status: ('A' for Active; 'I' for Inactive)
REMARK    1  A    between atoms: C_1  and  O_2
REMARK    2  A    between atoms: O_2  and  C_3
REMARK    3  A    between atoms: C_8  and  O_9
REMARK                            x       y       z     vdW  Elec       q    Type
REMARK                         _______ _______ _______ _____ _____    ______ ____
ROOT
ATOM      1  C   UNL     1       5.852  -8.187   8.329  0.00  0.00    +0.000 A 
ATOM      2  C   UNL     1       4.541  -7.733   8.195  0.00  0.00    +0.000 A 
ATOM      3  C   UNL     1       3.689  -8.322   7.252  0.00  0.00    +0.000 A 
ATOM      4  C   UNL     1       4.143  -9.365   6.442  0.00  0.00    +0.000 A 
ATOM      5  C   UNL     1       5.451  -9.825   6.571  0.00  0.00    +0.000 A 
ATOM      6  C   UNL     1       6.289  -9.234   7.508  0.00  0.00    +0.000 A 
ENDROOT
BRANCH   1   8
ATOM      7  C   UNL     1       6.549  -7.937  10.587  0.00  0.00    +0.000 C 
ATOM      8  O   UNL     1       6.792  -7.706   9.205  0.00  0.00    +0.000 OA
ENDBRANCH   1   8
BRANCH   6   9
ATOM      9  O   UNL     1       7.571  -9.704   7.616  0.00  0.00    +0.000 OA
ATOM     10  H   UNL     1       7.822  -9.531   8.544  0.00  0.00    +0.000 HD
ENDBRANCH   6   9
TORSDOF 2
ENDMDL
MODEL 6
REMARK VINA RESULT:    -4.550      1.320      2.329
REMARK INTER + INTRA:          -4.991
REMARK INTER:                  -4.939
REMARK INTRA:                  -0.053
REMARK UNBOUND:                -0.042
REMARK  Name = 
REMARK  3 active torsions:
REMARK  status: ('A' for Active; 'I' for Inactive)
REMARK    1  A    between atoms: C_1  and  O_2
REMARK    2  A    between atoms: O_2  and  C_3
REMARK    3  A    between atoms: C_8  and  O_9
REMARK                            x       y       z     vdW  Elec       q    Type
REMARK                         _______ _______ _______ _____ _____    ______ ____
ROOT
ATOM      1  C   UNL     1      12.142   0.899   5.890  0.00  0.00    +0.000 A 
ATOM      2  C   UNL     1      11.355   0.764   4.747  0.00  0.00    +0.000 A 
ATOM      3  C   UNL     1      10.012   0.385   4.863  0.00  0.00    +0.000 A 
ATOM      4  C   UNL     1       9.451   0.139   6.118  0.00  0.00    +0.000 A 
ATOM      5  C   UNL     1      10.231   0.272   7.264  0.00  0.00    +0.000 A 
ATOM      6  C   UNL     1      11.562   0.648   7.140  0.00  0.00    +0.000 A 
ENDROOT
BRANCH   1   8
ATOM      7  C   UNL     1      13.768   2.596   5.541  0.00  0.00    +0.000 C 
ATOM      8  O   UNL     1      13.464   1.261   5.926  0.00  0.00    +0.000 OA
ENDBRANCH   1   8
BRANCH   6   9
ATOM      9  O   UNL     1      12.309   0.772   8.281  0.00  0.00    +0.000 OA
ATOM     10  H   UNL     1      13.106   1.263   8.005  0.00  0.00    +0.000 HD
ENDBRANCH   6   9
TORSDOF 2
ENDMDL
MODEL 7
REMARK VINA RESULT:    -4.472     12.921     13.814
REMARK INTER + INTRA:          -4.906
REMARK INTER:                  -4.869
REMARK INTRA:                  -0.037
REMARK UNBOUND:                -0.042
REMARK  Name = 
REMARK  3 active torsions:
REMARK  status: ('A' for Active; 'I' for Inactive)
REMARK    1  A    between atoms: C_1  and  O_2
REMARK    2  A    between atoms: O_2  and  C_3
REMARK    3  A    between atoms: C_8  and  O_9
REMARK                            x       y       z     vdW  Elec       q    Type
REMARK                         _______ _______ _______ _____ _____    ______ ____
ROOT
ATOM      1  C   UNL     1       4.046  -9.812   7.973  0.00  0.00    +0.000 A 
ATOM      2  C   UNL     1       4.142 -11.190   8.160  0.00  0.00    +0.000 A 
ATOM      3  C   UNL     1       3.947 -12.058   7.078  0.00  0.00    +0.000 A 
ATOM      4  C   UNL     1       3.655 -11.554   5.809  0.00  0.00    +0.000 A 
ATOM      5  C   UNL     1       3.558 -10.178   5.615  0.00  0.00    +0.000 A 
ATOM      6  C   UNL     1       3.752  -9.324   6.693  0.00  0.00    +0.000 A 
ENDROOT
BRANCH   1   8
ATOM      7  C   UNL     1       4.523  -9.309  10.246  0.00  0.00    +0.000 C 
ATOM      8  O   UNL     1       4.211  -8.849   8.936  0.00  0.00    +0.000 OA
ENDBRANCH   1   8
BRANCH   6   9
ATOM      9  O   UNL     1       3.651  -7.976   6.477  0.00  0.00    +0.000 OA
ATOM     10  H   UNL     1       4.343  -7.581   7.042  0.00  0.00    +0.000 HD
ENDBRANCH   6   9
TORSDOF 2
ENDMDL
MODEL 8
REMARK VINA RESULT:    -4.450      1.892      3.098
REMARK INTER + INTRA:          -4.882
REMARK INTER:                  -4.832
REMARK INTRA:                  -0.050
REMARK UNBOUND:                -0.042
REMARK  Name = 
REMARK  3 active torsions:
REMARK  status: ('A' for Active; 'I' for Inactive)
REMARK    1  A    between atoms: C_1  and  O_2
REMARK    2  A    between atoms: O_2  and  C_3
REMARK    3  A    between atoms: C_8  and  O_9
REMARK                            x       y       z     vdW  Elec       q    Type
REMARK                         _______ _______ _______ _____ _____    ______ ____
ROOT
ATOM      1  C   UNL     1      11.340   0.957   6.062  0.00  0.00    +0.000 A 
ATOM      2  C   UNL     1      12.455   1.729   5.737  0.00  0.00    +0.000 A 
ATOM      3  C   UNL     1      12.984   2.624   6.675  0.00  0.00    +0.000 A 
ATOM      4  C   UNL     1      12.402   2.753   7.937  0.00  0.00    +0.000 A 
ATOM      5  C   UNL     1      11.288   1.986   8.270  0.00  0.00    +0.000 A 
ATOM      6  C   UNL     1      10.770   1.100   7.333  0.00  0.00    +0.000 A 
ENDROOT
BRANCH   1   8
ATOM      7  C   UNL     1       9.976   0.573   4.155  0.00  0.00    +0.000 C 
ATOM      8  O   UNL     1      10.719   0.045   5.247  0.00  0.00    +0.000 OA
ENDBRANCH   1   8
BRANCH   6   9
ATOM      9  O   UNL     1       9.675   0.357   7.684  0.00  0.00    +0.000 OA
ATOM     10  H   UNL     1       9.051   1.001   8.069  0.00  0.00    +0.000 HD
ENDBRANCH   6   9
TORSDOF 2
ENDMDL
MODEL 9
REMARK VINA RESULT:    -4.368     11.476     12.342
REMARK INTER + INTRA:          -4.793
REMARK INTER:                  -4.740
REMARK INTRA:                  -0.052
REMARK UNBOUND:                -0.042
REMARK  Name = 
REMARK  3 active torsions:
REMARK  status: ('A' for Active; 'I' for Inactive)
REMARK    1  A    between atoms: C_1  and  O_2
REMARK    2  A    between atoms: O_2  and  C_3
REMARK    3  A    between atoms: C_8  and  O_9
REMARK                            x       y       z     vdW  Elec       q    Type
REMARK                         _______ _______ _______ _____ _____    ______ ____
ROOT
ATOM      1  C   UNL     1       5.451  -9.643   7.872  0.00  0.00    +0.000 A 
ATOM      2  C   UNL     1       4.343  -9.366   8.670  0.00  0.00    +0.000 A 
ATOM      3  C   UNL     1       4.519  -8.808   9.943  0.00  0.00    +0.000 A 
ATOM      4  C   UNL     1       5.800  -8.525  10.420  0.00  0.00    +0.000 A 
ATOM      5  C   UNL     1       6.913  -8.798   9.628  0.00  0.00    +0.000 A 
ATOM      6  C   UNL     1       6.728  -9.353   8.368  0.00  0.00    +0.000 A 
ENDROOT
BRANCH   1   8
ATOM      7  C   UNL     1       4.802  -9.413   5.597  0.00  0.00    +0.000 C 
ATOM      8  O   UNL     1       5.428 -10.188   6.613  0.00  0.00    +0.000 OA
ENDBRANCH   1   8
BRANCH   6   9
ATOM      9  O   UNL     1       7.837  -9.613   7.607  0.00  0.00    +0.000 OA
ATOM     10  H   UNL     1       8.543  -9.065   8.001  0.00  0.00    +0.000 HD
ENDBRANCH   6   9
TORSDOF 2
ENDMDL
