MODEL 1
REMARK VINA RESULT:    -5.253      0.000      0.000
REMARK INTER + INTRA:          -5.752
REMARK INTER:                  -5.714
REMARK INTRA:                  -0.038
REMARK UNBOUND:                -0.038
REMARK  Name = 
REMARK  3 active torsions:
REMARK  status: ('A' for Active; 'I' for Inactive)
REMARK    1  A    between atoms: C_1  and  O_2
REMARK    2  A    between atoms: O_2  and  C_3
REMARK    3  A    between atoms: C_8  and  O_9
REMARK                            x       y       z     vdW  Elec       q    Type
REMARK                         _______ _______ _______ _____ _____    ______ ____
ROOT
ATOM      1  C   UNL     1       9.832   9.545   3.194  0.00  0.00    +0.000 A 
ATOM      2  C   UNL     1       9.667  10.304   4.351  0.00  0.00    +0.000 A 
ATOM      3  C   UNL     1       8.622  10.012   5.237  0.00  0.00    +0.000 A 
ATOM      4  C   UNL     1       7.741   8.963   4.970  0.00  0.00    +0.000 A 
ATOM      5  C   UNL     1       7.899   8.199   3.816  0.00  0.00    +0.000 A 
ATOM      6  C   UNL     1       8.938   8.496   2.943  0.00  0.00    +0.000 A 
ENDROOT
BRANCH   1   8
ATOM      7  C   UNL     1      11.576  10.909   2.332  0.00  0.00    +0.000 C 
ATOM      8  O   UNL     1      10.805   9.718   2.242  0.00  0.00    +0.000 OA
ENDBRANCH   1   8
BRANCH   6   9
ATOM      9  O   UNL     1       9.074   7.732   1.815  0.00  0.00    +0.000 OA
ATOM     10  H   UNL     1       8.675   8.267   1.102  0.00  0.00    +0.000 HD
ENDBRANCH   6   9
TORSDOF 2
ENDMDL
MODEL 2
REMARK VINA RESULT:    -5.113      1.377      2.397
REMARK INTER + INTRA:          -5.599
REMARK INTER:                  -5.560
REMARK INTRA:                  -0.039
REMARK UNBOUND:                -0.038
REMARK  Name = 
REMARK  3 active torsions:
REMARK  status: ('A' for Active; 'I' for Inactive)
REMARK    1  A    between atoms: C_1  and  O_2
REMARK    2  A    between atoms: O_2  and  C_3
REMARK    3  A    between atoms: C_8  and  O_9
REMARK                            x       y       z     vdW  Elec       q    Type
REMARK                         _______ _______ _______ _____ _____    ______ ____
ROOT
ATOM      1  C   UNL     1       9.247   9.815   4.172  0.00  0.00    +0.000 A 
ATOM      2  C   UNL     1       8.042   9.382   4.724  0.00  0.00    +0.000 A 
ATOM      3  C   UNL     1       7.363   8.297   4.156  0.00  0.00    +0.000 A 
ATOM      4  C   UNL     1       7.883   7.642   3.039  0.00  0.00    +0.000 A 
ATOM      5  C   UNL     1       9.087   8.068   2.482  0.00  0.00    +0.000 A 
ATOM      6  C   UNL     1       9.753   9.146   3.051  0.00  0.00    +0.000 A 
ENDROOT
BRANCH   1   8
ATOM      7  C   UNL     1       9.842  11.236   5.981  0.00  0.00    +0.000 C 
ATOM      8  O   UNL     1      10.016  10.859   4.621  0.00  0.00    +0.000 OA
ENDBRANCH   1   8
BRANCH   6   9
ATOM      9  O   UNL     1      10.935   9.547   2.486  0.00  0.00    +0.000 OA
ATOM     10  H   UNL     1      10.812   9.406   1.528  0.00  0.00    +0.000 HD
ENDBRANCH   6   9
TORSDOF 2
ENDMDL
MODEL 3
REMARK VINA RESULT:    -5.090      1.314      2.809
REMARK INTER + INTRA:          -5.574
REMARK INTER:                  -5.536
REMARK INTRA:                  -0.038
REMARK UNBOUND:                -0.038
REMARK  Name = 
REMARK  3 active torsions:
REMARK  status: ('A' for Active; 'I' for Inactive)
REMARK    1  A    between atoms: C_1  and  O_2
REMARK    2  A    between atoms: O_2  and  C_3
REMARK    3  A    between atoms: C_8  and  O_9
REMARK                            x       y       z     vdW  Elec       q    Type
REMARK                         _______ _______ _______ _____ _____    ______ ____
ROOT
ATOM      1  C   UNL     1       8.973   9.315   3.725  0.00  0.00    +0.000 A 
ATOM      2  C   UNL     1       7.759   9.348   4.409  0.00  0.00    +0.000 A 
ATOM      3  C   UNL     1       7.600  10.196   5.512  0.00  0.00    +0.000 A 
ATOM      4  C   UNL     1       8.651  11.012   5.935  0.00  0.00    +0.000 A 
ATOM      5  C   UNL     1       9.867  10.985   5.256  0.00  0.00    +0.000 A 
ATOM      6  C   UNL     1      10.016  10.141   4.163  0.00  0.00    +0.000 A 
ENDROOT
BRANCH   1   8
ATOM      7  C   UNL     1       8.341   7.506   2.320  0.00  0.00    +0.000 C 
ATOM      8  O   UNL     1       9.269   8.537   2.634  0.00  0.00    +0.000 OA
ENDBRANCH   1   8
BRANCH   6   9
ATOM      9  O   UNL     1      11.221  10.132   3.512  0.00  0.00    +0.000 OA
ATOM     10  H   UNL     1      11.753   9.465   3.985  0.00  0.00    +0.000 HD
ENDBRANCH   6   9
TORSDOF 2
ENDMDL
MODEL 4
REMARK VINA RESULT:    -4.893      2.073      3.282
REMARK INTER + INTRA:          -5.359
REMARK INTER:                  -5.321
REMARK INTRA:                  -0.038
REMARK UNBOUND:                -0.038
REMARK  Name = 
REMARK  3 active torsions:
REMARK  status: ('A' for Active; 'I' for Inactive)
REMARK    1  A    between atoms: C_1  and  O_2
REMARK    2  A    between atoms: O_2  and  C_3
REMARK    3  A    between atoms: C_8  and  O_9
REMARK                            x       y       z     vdW  Elec       q    Type
REMARK                         _______ _______ _______ _____ _____    ______ ____
ROOT
ATOM      1  C   UNL     1       8.456   9.882   4.742  0.00  0.00    +0.000 A 
ATOM      2  C   UNL     1       9.664  10.572   4.658  0.00  0.00    +0.000 A 
ATOM      3  C   UNL     1      10.546  10.312   3.601  0.00  0.00    +0.000 A 
ATOM      4  C   UNL     1      10.224   9.363   2.628  0.00  0.00    +0.000 A 
ATOM      5  C   UNL     1       9.018   8.670   2.706  0.00  0.00    +0.000 A 
ATOM      6  C   UNL     1       8.150   8.935   3.757  0.00  0.00    +0.000 A 
ENDROOT
BRANCH   1   8
ATOM      7  C   UNL     1       7.782   9.435   6.977  0.00  0.00    +0.000 C 
ATOM      8  O   UNL     1       7.502  10.033   5.717  0.00  0.00    +0.000 OA
ENDBRANCH   1   8
BRANCH   6   9
ATOM      9  O   UNL     1       6.971   8.241   3.813  0.00  0.00    +0.000 OA
ATOM     10  H   UNL     1       6.288   8.891   3.562  0.00  0.00    +0.000 HD
ENDBRANCH   6   9
TORSDOF 2
ENDMDL
MODEL 5
REMARK VINA RESULT:    -4.877      2.090      3.164
REMARK INTER + INTRA:          -5.342
REMARK INTER:                  -5.290
REMARK INTRA:                  -0.052
REMARK UNBOUND:                -0.038
REMARK  Name = 
REMARK  3 active torsions:
REMARK  status: ('A' for Active; 'I' for Inactive)
REMARK    1  A    between atoms: C_1  and  O_2
REMARK    2  A    between atoms: O_2  and  C_3
REMARK    3  A    between atoms: C_8  and  O_9
REMARK                            x       y       z     vdW  Elec       q    Type
REMARK                         _______ _______ _______ _____ _____    ______ ____
ROOT
ATOM      1  C   UNL     1       8.085   9.723   3.687  0.00  0.00    +0.000 A 
ATOM      2  C   UNL     1       8.485  10.872   3.007  0.00  0.00    +0.000 A 
ATOM      3  C   UNL     1       8.810  12.032   3.723  0.00  0.00    +0.000 A 
ATOM      4  C   UNL     1       8.735  12.047   5.117  0.00  0.00    +0.000 A 
ATOM      5  C   UNL     1       8.337  10.902   5.804  0.00  0.00    +0.000 A 
ATOM      6  C   UNL     1       8.016   9.757   5.086  0.00  0.00    +0.000 A 
ENDROOT
BRANCH   1   8
ATOM      7  C   UNL     1       8.789   7.786   2.504  0.00  0.00    +0.000 C 
ATOM      8  O   UNL     1       7.739   8.523   3.119  0.00  0.00    +0.000 OA
ENDBRANCH   1   8
BRANCH   6   9
ATOM      9  O   UNL     1       7.627   8.645   5.783  0.00  0.00    +0.000 OA
ATOM     10  H   UNL     1       6.712   8.835   6.064  0.00  0.00    +0.000 HD
ENDBRANCH   6   9
TORSDOF 2
ENDMDL
MODEL 6
REMARK VINA RESULT:    -4.841      2.481      3.216
REMARK INTER + INTRA:          -5.303
REMARK INTER:                  -5.255
REMARK INTRA:                  -0.048
REMARK UNBOUND:                -0.038
REMARK  Name = 
REMARK  3 active torsions:
REMARK  status: ('A' for Active; 'I' for Inactive)
REMARK    1  A    between atoms: C_1  and  O_2
REMARK    2  A    between atoms: O_2  and  C_3
REMARK    3  A    between atoms: C_8  and  O_9
REMARK                            x       y       z     vdW  Elec       q    Type
REMARK                         _______ _______ _______ _____ _____    ______ ____
ROOT
ATOM      1  C   UNL     1       8.981  10.611   4.897  0.00  0.00    +0.000 A 
ATOM      2  C   UNL     1       9.917  10.378   3.890  0.00  0.00    +0.000 A 
ATOM      3  C   UNL     1       9.764   9.281   3.033  0.00  0.00    +0.000 A 
ATOM      4  C   UNL     1       8.679   8.415   3.179  0.00  0.00    +0.000 A 
ATOM      5  C   UNL     1       7.739   8.641   4.183  0.00  0.00    +0.000 A 
ATOM      6  C   UNL     1       7.899   9.731   5.028  0.00  0.00    +0.000 A 
ENDROOT
BRANCH   1   8
ATOM      7  C   UNL     1       9.992  11.562   6.826  0.00  0.00    +0.000 C 
ATOM      8  O   UNL     1       9.005  11.640   5.804  0.00  0.00    +0.000 OA
ENDBRANCH   1   8
BRANCH   6   9
ATOM      9  O   UNL     1       6.963   9.933   6.007  0.00  0.00    +0.000 OA
ATOM     10  H   UNL     1       7.465   9.890   6.844  0.00  0.00    +0.000 HD
ENDBRANCH   6   9
TORSDOF 2
ENDMDL
MODEL 7
REMARK VINA RESULT:    -4.790      1.487      2.406
REMARK INTER + INTRA:          -5.247
REMARK INTER:                  -5.204
REMARK INTRA:                  -0.043
REMARK UNBOUND:                -0.038
REMARK  Name = 
REMARK  3 active torsions:
REMARK  status: ('A' for Active; 'I' for Inactive)
REMARK    1  A    between atoms: C_1  and  O_2
REMARK    2  A    between atoms: O_2  and  C_3
REMARK    3  A    between atoms: C_8  and  O_9
REMARK                            x       y       z     vdW  Elec       q    Type
REMARK                         _______ _______ _______ _____ _____    ______ ____
ROOT
ATOM      1  C   UNL     1       9.934   9.764   3.663  0.00  0.00    +0.000 A 
ATOM      2  C   UNL     1       9.522   8.772   2.775  0.00  0.00    +0.000 A 
ATOM      3  C   UNL     1       8.293   8.128   2.967  0.00  0.00    +0.000 A 
ATOM      4  C   UNL     1       7.475   8.471   4.045  0.00  0.00    +0.000 A 
ATOM      5  C   UNL     1       7.880   9.462   4.937  0.00  0.00    +0.000 A 
ATOM      6  C   UNL     1       9.100  10.095   4.739  0.00  0.00    +0.000 A 
ENDROOT
BRANCH   1   8
ATOM      7  C   UNL     1      11.565  10.825   2.299  0.00  0.00    +0.000 C 
ATOM      8  O   UNL     1      11.106  10.474   3.599  0.00  0.00    +0.000 OA
ENDBRANCH   1   8
BRANCH   6   9
ATOM      9  O   UNL     1       9.477  11.065   5.628  0.00  0.00    +0.000 OA
ATOM     10  H   UNL     1      10.271  11.472   5.231  0.00  0.00    +0.000 HD
ENDBRANCH   6   9
TORSDOF 2
ENDMDL
MODEL 8
REMARK VINA RESULT:    -4.427      2.705      3.791
REMARK INTER + INTRA:          -4.853
REMARK INTER:                  -4.810
REMARK INTRA:                  -0.043
REMARK UNBOUND:                -0.038
REMARK  Name = 
REMARK  3 active torsions:
REMARK  status: ('A' for Active; 'I' for Inactive)
REMARK    1  A    between atoms: C_1  and  O_2
REMARK    2  A    between atoms: O_2  and  C_3
REMARK    3  A    between atoms: C_8  and  O_9
REMARK                            x       y       z     vdW  Elec       q    Type
REMARK                         _______ _______ _______ _____ _____    ______ ____
ROOT
ATOM      1  C   UNL     1       7.981  10.042   5.956  0.00  0.00    +0.000 A 
ATOM      2  C   UNL     1       8.494  11.338   5.973  0.00  0.00    +0.000 A 
ATOM      3  C   UNL     1       8.816  11.979   4.770  0.00  0.00    +0.000 A 
ATOM      4  C   UNL     1       8.627  11.329   3.549  0.00  0.00    +0.000 A 
ATOM      5  C   UNL     1       8.114  10.034   3.524  0.00  0.00    +0.000 A 
ATOM      6  C   UNL     1       7.798   9.406   4.722  0.00  0.00    +0.000 A 
ENDROOT
BRANCH   1   8
ATOM      7  C   UNL     1       8.412   9.474   8.223  0.00  0.00    +0.000 C 
ATOM      8  O   UNL     1       7.625   9.296   7.051  0.00  0.00    +0.000 OA
ENDBRANCH   1   8
BRANCH   6   9
ATOM      9  O   UNL     1       7.296   8.133   4.672  0.00  0.00    +0.000 OA
ATOM     10  H   UNL     1       7.625   7.704   5.485  0.00  0.00    +0.000 HD
ENDBRANCH   6   9
TORSDOF 2
ENDMDL
MODEL 9
REMARK VINA RESULT:    -4.347      2.367      3.988
REMARK INTER + INTRA:          -4.765
REMARK INTER:                  -4.715
REMARK INTRA:                  -0.051
REMARK UNBOUND:                -0.038
REMARK  Name = 
REMARK  3 active torsions:
REMARK  status: ('A' for Active; 'I' for Inactive)
REMARK    1  A    between atoms: C_1  and  O_2
REMARK    2  A    between atoms: O_2  and  C_3
REMARK    3  A    between atoms: C_8  and  O_9
REMARK                            x       y       z     vdW  Elec       q    Type
REMARK                         _______ _______ _______ _____ _____    ______ ____
ROOT
ATOM      1  C   UNL     1       8.369  10.064   4.607  0.00  0.00    +0.000 A 
ATOM      2  C   UNL     1       8.577   8.898   3.872  0.00  0.00    +0.000 A 
ATOM      3  C   UNL     1       9.517   8.883   2.834  0.00  0.00    +0.000 A 
ATOM      4  C   UNL     1      10.251  10.031   2.528  0.00  0.00    +0.000 A 
ATOM      5  C   UNL     1      10.050  11.199   3.259  0.00  0.00    +0.000 A 
ATOM      6  C   UNL     1       9.115  11.205   4.286  0.00  0.00    +0.000 A 
ENDROOT
BRANCH   1   8
ATOM      7  C   UNL     1       7.809   9.560   6.861  0.00  0.00    +0.000 C 
ATOM      8  O   UNL     1       7.485  10.222   5.644  0.00  0.00    +0.000 OA
ENDBRANCH   1   8
BRANCH   6   9
ATOM      9  O   UNL     1       8.934  12.366   4.990  0.00  0.00    +0.000 OA
ATOM     10  H   UNL     1       8.723  12.075   5.897  0.00  0.00    +0.000 HD
ENDBRANCH   6   9
TORSDOF 2
ENDMDL
