MODEL 1
REMARK VINA RESULT:    -5.913      0.000      0.000
REMARK INTER + INTRA:          -8.227
REMARK INTER:                  -7.988
REMARK INTRA:                  -0.239
REMARK UNBOUND:                -0.239
REMARK  Name = 
REMARK  10 active torsions:
REMARK  status: ('A' for Active; 'I' for Inactive)
REMARK    1  A    between atoms: C_1  and  C_2
REMARK    2  A    between atoms: C_5  and  N_8
REMARK    3  A    between atoms: N_8  and  C_9
REMARK    4  A    between atoms: N_8  and  C_13
REMARK    5  A    between atoms: C_9  and  C_10
REMARK    6  A    between atoms: C_10  and  C_11
REMARK    7  A    between atoms: C_10  and  O_12
REMARK    8  A    between atoms: C_13  and  C_14
REMARK    9  A    between atoms: C_14  and  C_15
REMARK   10  A    between atoms: C_14  and  O_16
REMARK                            x       y       z     vdW  Elec       q    Type
REMARK                         _______ _______ _______ _____ _____    ______ ____
ROOT
ATOM      1  N   UNL     1       8.686  10.373   3.990  0.00  0.00    +0.000 N 
ENDROOT
BRANCH   1   6
ATOM      2  C   UNL     1       9.392  10.508   9.718  0.00  0.00    +0.000 C 
ATOM      3  C   UNL     1       9.226  10.455   8.230  0.00  0.00    +0.000 A 
ATOM      4  C   UNL     1       9.964  11.291   7.399  0.00  0.00    +0.000 A 
ATOM      5  C   UNL     1       9.783  11.258   6.007  0.00  0.00    +0.000 A 
ATOM      6  C   UNL     1       8.848  10.414   5.380  0.00  0.00    +0.000 A 
ATOM      7  C   UNL     1       8.121   9.582   6.251  0.00  0.00    +0.000 A 
ATOM      8  C   UNL     1       8.294   9.603   7.645  0.00  0.00    +0.000 A 
ENDBRANCH   1   6
BRANCH   1   9
ATOM      9  C   UNL     1       9.137  11.513   3.155  0.00  0.00    +0.000 C 
BRANCH   9  10
ATOM     10  C   UNL     1      10.503  11.254   2.473  0.00  0.00    +0.000 C 
ATOM     11  C   UNL     1      11.261  10.137   3.179  0.00  0.00    +0.000 C 
BRANCH  10  12
ATOM     12  O   UNL     1      10.329  10.876   1.100  0.00  0.00    +0.000 OA
ATOM     13  H   UNL     1      11.070  11.244   0.591  0.00  0.00    +0.000 HD
ENDBRANCH  10  12
ENDBRANCH   9  10
ENDBRANCH   1   9
BRANCH   1  14
ATOM     14  C   UNL     1       7.657   9.507   3.361  0.00  0.00    +0.000 C 
BRANCH  14  15
ATOM     15  C   UNL     1       8.263   8.209   2.774  0.00  0.00    +0.000 C 
ATOM     16  C   UNL     1       8.090   7.001   3.686  0.00  0.00    +0.000 C 
BRANCH  15  17
ATOM     17  O   UNL     1       7.697   7.890   1.505  0.00  0.00    +0.000 OA
ATOM     18  H   UNL     1       7.452   6.944   1.568  0.00  0.00    +0.000 HD
ENDBRANCH  15  17
ENDBRANCH  14  15
ENDBRANCH   1  14
TORSDOF 7
ENDMDL
MODEL 2
REMARK VINA RESULT:    -5.839      0.802      2.993
REMARK INTER + INTRA:          -8.126
REMARK INTER:                  -7.746
REMARK INTRA:                  -0.380
REMARK UNBOUND:                -0.239
REMARK  Name = 
REMARK  10 active torsions:
REMARK  status: ('A' for Active; 'I' for Inactive)
REMARK    1  A    between atoms: C_1  and  C_2
REMARK    2  A    between atoms: C_5  and  N_8
REMARK    3  A    between atoms: N_8  and  C_9
REMARK    4  A    between atoms: N_8  and  C_13
REMARK    5  A    between atoms: C_9  and  C_10
REMARK    6  A    between atoms: C_10  and  C_11
REMARK    7  A    between atoms: C_10  and  O_12
REMARK    8  A    between atoms: C_13  and  C_14
REMARK    9  A    between atoms: C_14  and  C_15
REMARK   10  A    between atoms: C_14  and  O_16
REMARK                            x       y       z     vdW  Elec       q    Type
REMARK                         _______ _______ _______ _____ _____    ______ ____
ROOT
ATOM      1  N   UNL     1       9.183   9.842   4.263  0.00  0.00    +0.000 N 
ENDROOT
BRANCH   1   6
ATOM      2  C   UNL     1       9.981  11.553   9.718  0.00  0.00    +0.000 C 
ATOM      3  C   UNL     1       9.790  11.090   8.306  0.00  0.00    +0.000 A 
ATOM      4  C   UNL     1      10.558  11.616   7.272  0.00  0.00    +0.000 A 
ATOM      5  C   UNL     1      10.354  11.201   5.946  0.00  0.00    +0.000 A 
ATOM      6  C   UNL     1       9.367  10.266   5.584  0.00  0.00    +0.000 A 
ATOM      7  C   UNL     1       8.611   9.754   6.655  0.00  0.00    +0.000 A 
ATOM      8  C   UNL     1       8.806  10.159   7.986  0.00  0.00    +0.000 A 
ENDBRANCH   1   6
BRANCH   1   9
ATOM      9  C   UNL     1       8.023   8.987   3.911  0.00  0.00    +0.000 C 
BRANCH   9  10
ATOM     10  C   UNL     1       8.403   7.820   2.966  0.00  0.00    +0.000 C 
ATOM     11  C   UNL     1       8.078   6.475   3.603  0.00  0.00    +0.000 C 
BRANCH  10  12
ATOM     12  O   UNL     1       7.687   7.909   1.726  0.00  0.00    +0.000 OA
ATOM     13  H   UNL     1       7.708   7.035   1.303  0.00  0.00    +0.000 HD
ENDBRANCH  10  12
ENDBRANCH   9  10
ENDBRANCH   1   9
BRANCH   1  14
ATOM     14  C   UNL     1      10.322   9.771   3.312  0.00  0.00    +0.000 C 
BRANCH  14  15
ATOM     15  C   UNL     1      10.248  10.874   2.229  0.00  0.00    +0.000 C 
ATOM     16  C   UNL     1       9.311  12.017   2.600  0.00  0.00    +0.000 C 
BRANCH  15  17
ATOM     17  O   UNL     1      11.534  11.429   1.953  0.00  0.00    +0.000 OA
ATOM     18  H   UNL     1      11.353  12.331   1.619  0.00  0.00    +0.000 HD
ENDBRANCH  15  17
ENDBRANCH  14  15
ENDBRANCH   1  14
TORSDOF 7
ENDMDL
MODEL 3
REMARK VINA RESULT:    -5.518      1.256      1.755
REMARK INTER + INTRA:          -7.693
REMARK INTER:                  -7.499
REMARK INTRA:                  -0.193
REMARK UNBOUND:                -0.239
REMARK  Name = 
REMARK  10 active torsions:
REMARK  status: ('A' for Active; 'I' for Inactive)
REMARK    1  A    between atoms: C_1  and  C_2
REMARK    2  A    between atoms: C_5  and  N_8
REMARK    3  A    between atoms: N_8  and  C_9
REMARK    4  A    between atoms: N_8  and  C_13
REMARK    5  A    between atoms: C_9  and  C_10
REMARK    6  A    between atoms: C_10  and  C_11
REMARK    7  A    between atoms: C_10  and  O_12
REMARK    8  A    between atoms: C_13  and  C_14
REMARK    9  A    between atoms: C_14  and  C_15
REMARK   10  A    between atoms: C_14  and  O_16
REMARK                            x       y       z     vdW  Elec       q    Type
REMARK                         _______ _______ _______ _____ _____    ______ ____
ROOT
ATOM      1  N   UNL     1       8.599  10.121   4.167  0.00  0.00    +0.000 N 
ENDROOT
BRANCH   1   6
ATOM      2  C   UNL     1       9.997  11.203   9.662  0.00  0.00    +0.000 C 
ATOM      3  C   UNL     1       9.619  10.942   8.237  0.00  0.00    +0.000 A 
ATOM      4  C   UNL     1       8.576  10.077   7.921  0.00  0.00    +0.000 A 
ATOM      5  C   UNL     1       8.245   9.813   6.582  0.00  0.00    +0.000 A 
ATOM      6  C   UNL     1       8.947  10.374   5.500  0.00  0.00    +0.000 A 
ATOM      7  C   UNL     1       9.994  11.244   5.856  0.00  0.00    +0.000 A 
ATOM      8  C   UNL     1      10.334  11.518   7.191  0.00  0.00    +0.000 A 
ENDBRANCH   1   6
BRANCH   1   9
ATOM      9  C   UNL     1       9.201  10.925   3.076  0.00  0.00    +0.000 C 
BRANCH   9  10
ATOM     10  C   UNL     1      10.333  10.175   2.332  0.00  0.00    +0.000 C 
ATOM     11  C   UNL     1      11.601  11.019   2.275  0.00  0.00    +0.000 C 
BRANCH  10  12
ATOM     12  O   UNL     1      10.651   8.940   2.989  0.00  0.00    +0.000 OA
ATOM     13  H   UNL     1      10.663   8.237   2.318  0.00  0.00    +0.000 HD
ENDBRANCH  10  12
ENDBRANCH   9  10
ENDBRANCH   1   9
BRANCH   1  14
ATOM     14  C   UNL     1       7.315   9.459   3.819  0.00  0.00    +0.000 C 
BRANCH  14  15
ATOM     15  C   UNL     1       7.480   7.933   3.620  0.00  0.00    +0.000 C 
ATOM     16  C   UNL     1       7.936   7.558   2.215  0.00  0.00    +0.000 C 
BRANCH  15  17
ATOM     17  O   UNL     1       8.408   7.377   4.550  0.00  0.00    +0.000 OA
ATOM     18  H   UNL     1       9.074   8.080   4.694  0.00  0.00    +0.000 HD
ENDBRANCH  15  17
ENDBRANCH  14  15
ENDBRANCH   1  14
TORSDOF 7
ENDMDL
MODEL 4
REMARK VINA RESULT:    -5.256      1.429      1.955
REMARK INTER + INTRA:          -7.338
REMARK INTER:                  -7.006
REMARK INTRA:                  -0.333
REMARK UNBOUND:                -0.239
REMARK  Name = 
REMARK  10 active torsions:
REMARK  status: ('A' for Active; 'I' for Inactive)
REMARK    1  A    between atoms: C_1  and  C_2
REMARK    2  A    between atoms: C_5  and  N_8
REMARK    3  A    between atoms: N_8  and  C_9
REMARK    4  A    between atoms: N_8  and  C_13
REMARK    5  A    between atoms: C_9  and  C_10
REMARK    6  A    between atoms: C_10  and  C_11
REMARK    7  A    between atoms: C_10  and  O_12
REMARK    8  A    between atoms: C_13  and  C_14
REMARK    9  A    between atoms: C_14  and  C_15
REMARK   10  A    between atoms: C_14  and  O_16
REMARK                            x       y       z     vdW  Elec       q    Type
REMARK                         _______ _______ _______ _____ _____    ______ ____
ROOT
ATOM      1  N   UNL     1       8.970  11.079   4.809  0.00  0.00    +0.000 N 
ENDROOT
BRANCH   1   6
ATOM      2  C   UNL     1      12.183  11.722   9.562  0.00  0.00    +0.000 C 
ATOM      3  C   UNL     1      11.358  11.577   8.320  0.00  0.00    +0.000 A 
ATOM      4  C   UNL     1      10.042  12.027   8.280  0.00  0.00    +0.000 A 
ATOM      5  C   UNL     1       9.264  11.861   7.123  0.00  0.00    +0.000 A 
ATOM      6  C   UNL     1       9.746  11.223   5.966  0.00  0.00    +0.000 A 
ATOM      7  C   UNL     1      11.080  10.783   6.041  0.00  0.00    +0.000 A 
ATOM      8  C   UNL     1      11.870  10.944   7.192  0.00  0.00    +0.000 A 
ENDBRANCH   1   6
BRANCH   1   9
ATOM      9  C   UNL     1       8.779  12.230   3.894  0.00  0.00    +0.000 C 
BRANCH   9  10
ATOM     10  C   UNL     1       9.444  12.016   2.512  0.00  0.00    +0.000 C 
ATOM     11  C   UNL     1      10.589  11.014   2.608  0.00  0.00    +0.000 C 
BRANCH  10  12
ATOM     12  O   UNL     1       8.498  11.519   1.556  0.00  0.00    +0.000 OA
ATOM     13  H   UNL     1       8.534  10.548   1.573  0.00  0.00    +0.000 HD
ENDBRANCH  10  12
ENDBRANCH   9  10
ENDBRANCH   1   9
BRANCH   1  14
ATOM     14  C   UNL     1       7.935  10.019   4.704  0.00  0.00    +0.000 C 
BRANCH  14  15
ATOM     15  C   UNL     1       8.375   8.861   3.777  0.00  0.00    +0.000 C 
ATOM     16  C   UNL     1       8.099   7.483   4.367  0.00  0.00    +0.000 C 
BRANCH  15  17
ATOM     17  O   UNL     1       7.735   8.933   2.504  0.00  0.00    +0.000 OA
ATOM     18  H   UNL     1       8.165   9.684   2.047  0.00  0.00    +0.000 HD
ENDBRANCH  15  17
ENDBRANCH  14  15
ENDBRANCH   1  14
TORSDOF 7
ENDMDL
MODEL 5
REMARK VINA RESULT:    -4.981      1.723      3.372
REMARK INTER + INTRA:          -6.967
REMARK INTER:                  -7.344
REMARK INTRA:                   0.377
REMARK UNBOUND:                -0.239
REMARK  Name = 
REMARK  10 active torsions:
REMARK  status: ('A' for Active; 'I' for Inactive)
REMARK    1  A    between atoms: C_1  and  C_2
REMARK    2  A    between atoms: C_5  and  N_8
REMARK    3  A    between atoms: N_8  and  C_9
REMARK    4  A    between atoms: N_8  and  C_13
REMARK    5  A    between atoms: C_9  and  C_10
REMARK    6  A    between atoms: C_10  and  C_11
REMARK    7  A    between atoms: C_10  and  O_12
REMARK    8  A    between atoms: C_13  and  C_14
REMARK    9  A    between atoms: C_14  and  C_15
REMARK   10  A    between atoms: C_14  and  O_16
REMARK                            x       y       z     vdW  Elec       q    Type
REMARK                         _______ _______ _______ _____ _____    ______ ____
ROOT
ATOM      1  N   UNL     1       8.964  11.371   4.539  0.00  0.00    +0.000 N 
ENDROOT
BRANCH   1   6
ATOM      2  C   UNL     1      11.949  11.892   9.452  0.00  0.00    +0.000 C 
ATOM      3  C   UNL     1      11.162  11.737   8.187  0.00  0.00    +0.000 A 
ATOM      4  C   UNL     1      11.630  10.942   7.147  0.00  0.00    +0.000 A 
ATOM      5  C   UNL     1      10.903  10.824   5.951  0.00  0.00    +0.000 A 
ATOM      6  C   UNL     1       9.694  11.507   5.726  0.00  0.00    +0.000 A 
ATOM      7  C   UNL     1       9.250  12.301   6.799  0.00  0.00    +0.000 A 
ATOM      8  C   UNL     1       9.966  12.425   8.001  0.00  0.00    +0.000 A 
ENDBRANCH   1   6
BRANCH   1   9
ATOM      9  C   UNL     1       7.807  10.445   4.479  0.00  0.00    +0.000 C 
BRANCH   9  10
ATOM     10  C   UNL     1       8.063   9.117   5.234  0.00  0.00    +0.000 C 
ATOM     11  C   UNL     1       7.678   9.241   6.703  0.00  0.00    +0.000 C 
BRANCH  10  12
ATOM     12  O   UNL     1       7.299   8.045   4.663  0.00  0.00    +0.000 OA
ATOM     13  H   UNL     1       7.496   7.235   5.162  0.00  0.00    +0.000 HD
ENDBRANCH  10  12
ENDBRANCH   9  10
ENDBRANCH   1   9
BRANCH   1  14
ATOM     14  C   UNL     1       9.568  11.700   3.222  0.00  0.00    +0.000 C 
BRANCH  14  15
ATOM     15  C   UNL     1      10.757  10.770   2.876  0.00  0.00    +0.000 C 
ATOM     16  C   UNL     1      10.320   9.413   2.337  0.00  0.00    +0.000 C 
BRANCH  15  17
ATOM     17  O   UNL     1      11.630  11.366   1.918  0.00  0.00    +0.000 OA
ATOM     18  H   UNL     1      11.124  11.366   1.081  0.00  0.00    +0.000 HD
ENDBRANCH  15  17
ENDBRANCH  14  15
ENDBRANCH   1  14
TORSDOF 7
ENDMDL
MODEL 6
REMARK VINA RESULT:    -4.526      3.067      6.056
REMARK INTER + INTRA:          -6.353
REMARK INTER:                  -6.325
REMARK INTRA:                  -0.028
REMARK UNBOUND:                -0.239
REMARK  Name = 
REMARK  10 active torsions:
REMARK  status: ('A' for Active; 'I' for Inactive)
REMARK    1  A    between atoms: C_1  and  C_2
REMARK    2  A    between atoms: C_5  and  N_8
REMARK    3  A    between atoms: N_8  and  C_9
REMARK    4  A    between atoms: N_8  and  C_13
REMARK    5  A    between atoms: C_9  and  C_10
REMARK    6  A    between atoms: C_10  and  C_11
REMARK    7  A    between atoms: C_10  and  O_12
REMARK    8  A    between atoms: C_13  and  C_14
REMARK    9  A    between atoms: C_14  and  C_15
REMARK   10  A    between atoms: C_14  and  O_16
REMARK                            x       y       z     vdW  Elec       q    Type
REMARK                         _______ _______ _______ _____ _____    ______ ____
ROOT
ATOM      1  N   UNL     1       9.092  10.400   6.598  0.00  0.00    +0.000 N 
ENDROOT
BRANCH   1   6
ATOM      2  C   UNL     1       8.195   7.472   1.704  0.00  0.00    +0.000 C 
ATOM      3  C   UNL     1       8.445   8.215   2.981  0.00  0.00    +0.000 A 
ATOM      4  C   UNL     1       7.695   7.948   4.122  0.00  0.00    +0.000 A 
ATOM      5  C   UNL     1       7.914   8.668   5.307  0.00  0.00    +0.000 A 
ATOM      6  C   UNL     1       8.866   9.699   5.407  0.00  0.00    +0.000 A 
ATOM      7  C   UNL     1       9.606   9.940   4.236  0.00  0.00    +0.000 A 
ATOM      8  C   UNL     1       9.400   9.226   3.044  0.00  0.00    +0.000 A 
ENDBRANCH   1   6
BRANCH   1   9
ATOM      9  C   UNL     1       8.148  10.260   7.734  0.00  0.00    +0.000 C 
BRANCH   9  10
ATOM     10  C   UNL     1       8.468   9.042   8.634  0.00  0.00    +0.000 C 
ATOM     11  C   UNL     1       9.472   9.414   9.718  0.00  0.00    +0.000 C 
BRANCH  10  12
ATOM     12  O   UNL     1       7.283   8.550   9.275  0.00  0.00    +0.000 OA
ATOM     13  H   UNL     1       6.827   9.304   9.684  0.00  0.00    +0.000 HD
ENDBRANCH  10  12
ENDBRANCH   9  10
ENDBRANCH   1   9
BRANCH   1  14
ATOM     14  C   UNL     1       9.913  11.637   6.618  0.00  0.00    +0.000 C 
BRANCH  14  15
ATOM     15  C   UNL     1      10.523  11.911   8.014  0.00  0.00    +0.000 C 
ATOM     16  C   UNL     1      12.012  11.595   8.090  0.00  0.00    +0.000 C 
BRANCH  15  17
ATOM     17  O   UNL     1      10.339  13.269   8.413  0.00  0.00    +0.000 OA
ATOM     18  H   UNL     1      11.239  13.652   8.431  0.00  0.00    +0.000 HD
ENDBRANCH  15  17
ENDBRANCH  14  15
ENDBRANCH   1  14
TORSDOF 7
ENDMDL
MODEL 7
REMARK VINA RESULT:    -4.410      3.340      5.490
REMARK INTER + INTRA:          -6.196
REMARK INTER:                  -5.848
REMARK INTRA:                  -0.347
REMARK UNBOUND:                -0.239
REMARK  Name = 
REMARK  10 active torsions:
REMARK  status: ('A' for Active; 'I' for Inactive)
REMARK    1  A    between atoms: C_1  and  C_2
REMARK    2  A    between atoms: C_5  and  N_8
REMARK    3  A    between atoms: N_8  and  C_9
REMARK    4  A    between atoms: N_8  and  C_13
REMARK    5  A    between atoms: C_9  and  C_10
REMARK    6  A    between atoms: C_10  and  C_11
REMARK    7  A    between atoms: C_10  and  O_12
REMARK    8  A    between atoms: C_13  and  C_14
REMARK    9  A    between atoms: C_14  and  C_15
REMARK   10  A    between atoms: C_14  and  O_16
REMARK                            x       y       z     vdW  Elec       q    Type
REMARK                         _______ _______ _______ _____ _____    ______ ____
ROOT
ATOM      1  N   UNL     1      10.412  11.320   7.373  0.00  0.00    +0.000 N 
ENDROOT
BRANCH   1   6
ATOM      2  C   UNL     1       8.215  11.489   2.037  0.00  0.00    +0.000 C 
ATOM      3  C   UNL     1       8.802  11.462   3.415  0.00  0.00    +0.000 A 
ATOM      4  C   UNL     1       9.800  10.552   3.749  0.00  0.00    +0.000 A 
ATOM      5  C   UNL     1      10.325  10.512   5.051  0.00  0.00    +0.000 A 
ATOM      6  C   UNL     1       9.870  11.353   6.082  0.00  0.00    +0.000 A 
ATOM      7  C   UNL     1       8.863  12.261   5.708  0.00  0.00    +0.000 A 
ATOM      8  C   UNL     1       8.330  12.314   4.410  0.00  0.00    +0.000 A 
ENDBRANCH   1   6
BRANCH   1   9
ATOM      9  C   UNL     1      11.880  11.228   7.561  0.00  0.00    +0.000 C 
BRANCH   9  10
ATOM     10  C   UNL     1      12.279  10.891   9.019  0.00  0.00    +0.000 C 
ATOM     11  C   UNL     1      13.173   9.658   9.068  0.00  0.00    +0.000 C 
BRANCH  10  12
ATOM     12  O   UNL     1      12.991  11.980   9.623  0.00  0.00    +0.000 OA
ATOM     13  H   UNL     1      12.599  12.148  10.496  0.00  0.00    +0.000 HD
ENDBRANCH  10  12
ENDBRANCH   9  10
ENDBRANCH   1   9
BRANCH   1  14
ATOM     14  C   UNL     1       9.605  10.868   8.535  0.00  0.00    +0.000 C 
BRANCH  14  15
ATOM     15  C   UNL     1       9.097   9.416   8.365  0.00  0.00    +0.000 C 
ATOM     16  C   UNL     1       8.837   8.713   9.691  0.00  0.00    +0.000 C 
BRANCH  15  17
ATOM     17  O   UNL     1       7.898   9.364   7.594  0.00  0.00    +0.000 OA
ATOM     18  H   UNL     1       7.662   8.415   7.557  0.00  0.00    +0.000 HD
ENDBRANCH  15  17
ENDBRANCH  14  15
ENDBRANCH   1  14
TORSDOF 7
ENDMDL
MODEL 8
REMARK VINA RESULT:    -4.241      2.924      5.356
REMARK INTER + INTRA:          -5.967
REMARK INTER:                  -6.234
REMARK INTRA:                   0.267
REMARK UNBOUND:                -0.239
REMARK  Name = 
REMARK  10 active torsions:
REMARK  status: ('A' for Active; 'I' for Inactive)
REMARK    1  A    between atoms: C_1  and  C_2
REMARK    2  A    between atoms: C_5  and  N_8
REMARK    3  A    between atoms: N_8  and  C_9
REMARK    4  A    between atoms: N_8  and  C_13
REMARK    5  A    between atoms: C_9  and  C_10
REMARK    6  A    between atoms: C_10  and  C_11
REMARK    7  A    between atoms: C_10  and  O_12
REMARK    8  A    between atoms: C_13  and  C_14
REMARK    9  A    between atoms: C_14  and  C_15
REMARK   10  A    between atoms: C_14  and  O_16
REMARK                            x       y       z     vdW  Elec       q    Type
REMARK                         _______ _______ _______ _____ _____    ______ ____
ROOT
ATOM      1  N   UNL     1       9.331  10.753   6.445  0.00  0.00    +0.000 N 
ENDROOT
BRANCH   1   6
ATOM      2  C   UNL     1       8.189   7.436   1.860  0.00  0.00    +0.000 C 
ATOM      3  C   UNL     1       8.500   8.279   3.058  0.00  0.00    +0.000 A 
ATOM      4  C   UNL     1       7.710   8.217   4.201  0.00  0.00    +0.000 A 
ATOM      5  C   UNL     1       7.989   9.031   5.310  0.00  0.00    +0.000 A 
ATOM      6  C   UNL     1       9.047   9.958   5.327  0.00  0.00    +0.000 A 
ATOM      7  C   UNL     1       9.826   9.993   4.157  0.00  0.00    +0.000 A 
ATOM      8  C   UNL     1       9.559   9.182   3.041  0.00  0.00    +0.000 A 
ENDBRANCH   1   6
BRANCH   1   9
ATOM      9  C   UNL     1      10.702  11.276   6.656  0.00  0.00    +0.000 C 
BRANCH   9  10
ATOM     10  C   UNL     1      10.913  11.852   8.077  0.00  0.00    +0.000 C 
ATOM     11  C   UNL     1      12.373  11.741   8.499  0.00  0.00    +0.000 C 
BRANCH  10  12
ATOM     12  O   UNL     1      10.538  13.235   8.133  0.00  0.00    +0.000 OA
ATOM     13  H   UNL     1       9.676  13.296   8.577  0.00  0.00    +0.000 HD
ENDBRANCH  10  12
ENDBRANCH   9  10
ENDBRANCH   1   9
BRANCH   1  14
ATOM     14  C   UNL     1       8.493  10.686   7.669  0.00  0.00    +0.000 C 
BRANCH  14  15
ATOM     15  C   UNL     1       8.631   9.328   8.398  0.00  0.00    +0.000 C 
ATOM     16  C   UNL     1       9.387   9.430   9.718  0.00  0.00    +0.000 C 
BRANCH  15  17
ATOM     17  O   UNL     1       7.359   8.739   8.662  0.00  0.00    +0.000 OA
ATOM     18  H   UNL     1       6.727   9.245   8.111  0.00  0.00    +0.000 HD
ENDBRANCH  15  17
ENDBRANCH  14  15
ENDBRANCH   1  14
TORSDOF 7
ENDMDL
MODEL 9
REMARK VINA RESULT:    -3.590      3.738      6.256
REMARK INTER + INTRA:          -5.088
REMARK INTER:                  -4.447
REMARK INTRA:                  -0.641
REMARK UNBOUND:                -0.239
REMARK  Name = 
REMARK  10 active torsions:
REMARK  status: ('A' for Active; 'I' for Inactive)
REMARK    1  A    between atoms: C_1  and  C_2
REMARK    2  A    between atoms: C_5  and  N_8
REMARK    3  A    between atoms: N_8  and  C_9
REMARK    4  A    between atoms: N_8  and  C_13
REMARK    5  A    between atoms: C_9  and  C_10
REMARK    6  A    between atoms: C_10  and  C_11
REMARK    7  A    between atoms: C_10  and  O_12
REMARK    8  A    between atoms: C_13  and  C_14
REMARK    9  A    between atoms: C_14  and  C_15
REMARK   10  A    between atoms: C_14  and  O_16
REMARK                            x       y       z     vdW  Elec       q    Type
REMARK                         _______ _______ _______ _____ _____    ______ ____
ROOT
ATOM      1  N   UNL     1      10.514  11.472   8.248  0.00  0.00    +0.000 N 
ENDROOT
BRANCH   1   6
ATOM      2  C   UNL     1       8.482  11.375   2.845  0.00  0.00    +0.000 C 
ATOM      3  C   UNL     1       8.993  11.383   4.254  0.00  0.00    +0.000 A 
ATOM      4  C   UNL     1       8.466  12.255   5.200  0.00  0.00    +0.000 A 
ATOM      5  C   UNL     1       8.970  12.279   6.511  0.00  0.00    +0.000 A 
ATOM      6  C   UNL     1      10.030  11.457   6.934  0.00  0.00    +0.000 A 
ATOM      7  C   UNL     1      10.537  10.586   5.952  0.00  0.00    +0.000 A 
ATOM      8  C   UNL     1      10.041  10.551   4.638  0.00  0.00    +0.000 A 
ENDBRANCH   1   6
BRANCH   1   9
ATOM      9  C   UNL     1       9.586  11.261   9.385  0.00  0.00    +0.000 C 
BRANCH   9  10
ATOM     10  C   UNL     1       9.369   9.764   9.712  0.00  0.00    +0.000 C 
ATOM     11  C   UNL     1       8.455   9.108   8.683  0.00  0.00    +0.000 C 
BRANCH  10  12
ATOM     12  O   UNL     1      10.614   9.052   9.718  0.00  0.00    +0.000 OA
ATOM     13  H   UNL     1      10.443   8.149  10.032  0.00  0.00    +0.000 HD
ENDBRANCH  10  12
ENDBRANCH   9  10
ENDBRANCH   1   9
BRANCH   1  14
ATOM     14  C   UNL     1      11.776  12.175   8.594  0.00  0.00    +0.000 C 
BRANCH  14  15
ATOM     15  C   UNL     1      13.027  11.322   8.275  0.00  0.00    +0.000 C 
ATOM     16  C   UNL     1      14.336  12.025   8.616  0.00  0.00    +0.000 C 
BRANCH  15  17
ATOM     17  O   UNL     1      13.004  10.073   8.965  0.00  0.00    +0.000 OA
ATOM     18  H   UNL     1      12.063   9.926   9.190  0.00  0.00    +0.000 HD
ENDBRANCH  15  17
ENDBRANCH  14  15
ENDBRANCH   1  14
TORSDOF 7
ENDMDL
