MODEL 1
REMARK VINA RESULT:    -4.100      0.000      0.000
REMARK INTER + INTRA:          -4.493
REMARK INTER:                  -4.459
REMARK INTRA:                  -0.034
REMARK UNBOUND:                -0.034
REMARK  Name = 
REMARK  3 active torsions:
REMARK  status: ('A' for Active; 'I' for Inactive)
REMARK    1  A    between atoms: C_1  and  O_2
REMARK    2  A    between atoms: O_2  and  C_3
REMARK    3  A    between atoms: C_8  and  O_9
REMARK                            x       y       z     vdW  Elec       q    Type
REMARK                         _______ _______ _______ _____ _____    ______ ____
ROOT
ATOM      1  C   UNL     1       2.866  13.506   1.838  0.00  0.00    +0.000 A 
ATOM      2  C   UNL     1       2.339  13.647   3.121  0.00  0.00    +0.000 A 
ATOM      3  C   UNL     1       2.273  12.540   3.976  0.00  0.00    +0.000 A 
ATOM      4  C   UNL     1       2.733  11.292   3.554  0.00  0.00    +0.000 A 
ATOM      5  C   UNL     1       3.262  11.143   2.274  0.00  0.00    +0.000 A 
ATOM      6  C   UNL     1       3.322  12.246   1.432  0.00  0.00    +0.000 A 
ENDROOT
BRANCH   1   8
ATOM      7  C   UNL     1       4.068  15.410   1.077  0.00  0.00    +0.000 C 
ATOM      8  O   UNL     1       2.991  14.498   0.899  0.00  0.00    +0.000 OA
ENDBRANCH   1   8
BRANCH   6   9
ATOM      9  O   UNL     1       3.846  12.075   0.179  0.00  0.00    +0.000 OA
ATOM     10  H   UNL     1       3.493  11.216  -0.123  0.00  0.00    +0.000 HD
ENDBRANCH   6   9
TORSDOF 2
ENDMDL
MODEL 2
REMARK VINA RESULT:    -3.882      9.754     11.162
REMARK INTER + INTRA:          -4.256
REMARK INTER:                  -4.216
REMARK INTRA:                  -0.040
REMARK UNBOUND:                -0.034
REMARK  Name = 
REMARK  3 active torsions:
REMARK  status: ('A' for Active; 'I' for Inactive)
REMARK    1  A    between atoms: C_1  and  O_2
REMARK    2  A    between atoms: O_2  and  C_3
REMARK    3  A    between atoms: C_8  and  O_9
REMARK                            x       y       z     vdW  Elec       q    Type
REMARK                         _______ _______ _______ _____ _____    ______ ____
ROOT
ATOM      1  C   UNL     1       8.058  22.163   4.252  0.00  0.00    +0.000 A 
ATOM      2  C   UNL     1       8.590  23.449   4.161  0.00  0.00    +0.000 A 
ATOM      3  C   UNL     1       7.968  24.408   3.352  0.00  0.00    +0.000 A 
ATOM      4  C   UNL     1       6.815  24.086   2.632  0.00  0.00    +0.000 A 
ATOM      5  C   UNL     1       6.278  22.804   2.718  0.00  0.00    +0.000 A 
ATOM      6  C   UNL     1       6.902  21.860   3.523  0.00  0.00    +0.000 A 
ENDROOT
BRANCH   1   8
ATOM      7  C   UNL     1       9.960  21.149   5.253  0.00  0.00    +0.000 C 
ATOM      8  O   UNL     1       8.560  21.129   5.001  0.00  0.00    +0.000 OA
ENDBRANCH   1   8
BRANCH   6   9
ATOM      9  O   UNL     1       6.355  20.606   3.592  0.00  0.00    +0.000 OA
ATOM     10  H   UNL     1       5.996  20.442   2.699  0.00  0.00    +0.000 HD
ENDBRANCH   6   9
TORSDOF 2
ENDMDL
MODEL 3
REMARK VINA RESULT:    -3.641     10.231     11.866
REMARK INTER + INTRA:          -3.993
REMARK INTER:                  -3.943
REMARK INTRA:                  -0.051
REMARK UNBOUND:                -0.034
REMARK  Name = 
REMARK  3 active torsions:
REMARK  status: ('A' for Active; 'I' for Inactive)
REMARK    1  A    between atoms: C_1  and  O_2
REMARK    2  A    between atoms: O_2  and  C_3
REMARK    3  A    between atoms: C_8  and  O_9
REMARK                            x       y       z     vdW  Elec       q    Type
REMARK                         _______ _______ _______ _____ _____    ______ ____
ROOT
ATOM      1  C   UNL     1      10.664  19.754   7.116  0.00  0.00    +0.000 A 
ATOM      2  C   UNL     1      12.035  19.768   7.372  0.00  0.00    +0.000 A 
ATOM      3  C   UNL     1      12.914  20.339   6.443  0.00  0.00    +0.000 A 
ATOM      4  C   UNL     1      12.429  20.895   5.258  0.00  0.00    +0.000 A 
ATOM      5  C   UNL     1      11.061  20.884   4.995  0.00  0.00    +0.000 A 
ATOM      6  C   UNL     1      10.196  20.316   5.922  0.00  0.00    +0.000 A 
ENDROOT
BRANCH   1   8
ATOM      7  C   UNL     1       9.651  17.813   8.040  0.00  0.00    +0.000 C 
ATOM      8  O   UNL     1       9.692  19.231   7.930  0.00  0.00    +0.000 OA
ENDBRANCH   1   8
BRANCH   6   9
ATOM      9  O   UNL     1       8.856  20.318   5.641  0.00  0.00    +0.000 OA
ATOM     10  H   UNL     1       8.484  21.019   6.209  0.00  0.00    +0.000 HD
ENDBRANCH   6   9
TORSDOF 2
ENDMDL
MODEL 4
REMARK VINA RESULT:    -3.524     13.699     14.646
REMARK INTER + INTRA:          -3.866
REMARK INTER:                  -3.814
REMARK INTRA:                  -0.053
REMARK UNBOUND:                -0.034
REMARK  Name = 
REMARK  3 active torsions:
REMARK  status: ('A' for Active; 'I' for Inactive)
REMARK    1  A    between atoms: C_1  and  O_2
REMARK    2  A    between atoms: O_2  and  C_3
REMARK    3  A    between atoms: C_8  and  O_9
REMARK                            x       y       z     vdW  Elec       q    Type
REMARK                         _______ _______ _______ _____ _____    ______ ____
ROOT
ATOM      1  C   UNL     1      -2.512  16.202 -11.604  0.00  0.00    +0.000 A 
ATOM      2  C   UNL     1      -1.893  17.350 -11.112  0.00  0.00    +0.000 A 
ATOM      3  C   UNL     1      -1.182  17.300  -9.907  0.00  0.00    +0.000 A 
ATOM      4  C   UNL     1      -1.088  16.106  -9.189  0.00  0.00    +0.000 A 
ATOM      5  C   UNL     1      -1.704  14.954  -9.674  0.00  0.00    +0.000 A 
ATOM      6  C   UNL     1      -2.407  15.013 -10.871  0.00  0.00    +0.000 A 
ENDROOT
BRANCH   1   8
ATOM      7  C   UNL     1      -4.467  16.820 -12.805  0.00  0.00    +0.000 C 
ATOM      8  O   UNL     1      -3.238  16.105 -12.764  0.00  0.00    +0.000 OA
ENDBRANCH   1   8
BRANCH   6   9
ATOM      9  O   UNL     1      -3.004  13.868 -11.327  0.00  0.00    +0.000 OA
ATOM     10  H   UNL     1      -2.282  13.363 -11.748  0.00  0.00    +0.000 HD
ENDBRANCH   6   9
TORSDOF 2
ENDMDL
MODEL 5
REMARK VINA RESULT:    -3.423     10.602     11.721
REMARK INTER + INTRA:          -3.756
REMARK INTER:                  -3.704
REMARK INTRA:                  -0.053
REMARK UNBOUND:                -0.034
REMARK  Name = 
REMARK  3 active torsions:
REMARK  status: ('A' for Active; 'I' for Inactive)
REMARK    1  A    between atoms: C_1  and  O_2
REMARK    2  A    between atoms: O_2  and  C_3
REMARK    3  A    between atoms: C_8  and  O_9
REMARK                            x       y       z     vdW  Elec       q    Type
REMARK                         _______ _______ _______ _____ _____    ______ ____
ROOT
ATOM      1  C   UNL     1      11.155  20.640   5.866  0.00  0.00    +0.000 A 
ATOM      2  C   UNL     1      12.307  20.332   6.588  0.00  0.00    +0.000 A 
ATOM      3  C   UNL     1      12.235  19.459   7.681  0.00  0.00    +0.000 A 
ATOM      4  C   UNL     1      11.015  18.892   8.055  0.00  0.00    +0.000 A 
ATOM      5  C   UNL     1       9.860  19.195   7.337  0.00  0.00    +0.000 A 
ATOM      6  C   UNL     1       9.941  20.062   6.255  0.00  0.00    +0.000 A 
ENDROOT
BRANCH   1   8
ATOM      7  C   UNL     1      11.343  22.853   5.019  0.00  0.00    +0.000 C 
ATOM      8  O   UNL     1      11.078  21.476   4.780  0.00  0.00    +0.000 OA
ENDBRANCH   1   8
BRANCH   6   9
ATOM      9  O   UNL     1       8.792  20.345   5.565  0.00  0.00    +0.000 OA
ATOM     10  H   UNL     1       8.358  21.049   6.083  0.00  0.00    +0.000 HD
ENDBRANCH   6   9
TORSDOF 2
ENDMDL
MODEL 6
REMARK VINA RESULT:    -3.330     13.420     14.389
REMARK INTER + INTRA:          -3.656
REMARK INTER:                  -3.617
REMARK INTRA:                  -0.038
REMARK UNBOUND:                -0.034
REMARK  Name = 
REMARK  3 active torsions:
REMARK  status: ('A' for Active; 'I' for Inactive)
REMARK    1  A    between atoms: C_1  and  O_2
REMARK    2  A    between atoms: O_2  and  C_3
REMARK    3  A    between atoms: C_8  and  O_9
REMARK                            x       y       z     vdW  Elec       q    Type
REMARK                         _______ _______ _______ _____ _____    ______ ____
ROOT
ATOM      1  C   UNL     1      -2.142  17.447 -10.792  0.00  0.00    +0.000 A 
ATOM      2  C   UNL     1      -1.141  17.239  -9.845  0.00  0.00    +0.000 A 
ATOM      3  C   UNL     1      -0.984  15.977  -9.257  0.00  0.00    +0.000 A 
ATOM      4  C   UNL     1      -1.826  14.922  -9.613  0.00  0.00    +0.000 A 
ATOM      5  C   UNL     1      -2.829  15.121 -10.559  0.00  0.00    +0.000 A 
ATOM      6  C   UNL     1      -2.977  16.376 -11.136  0.00  0.00    +0.000 A 
ENDROOT
BRANCH   1   8
ATOM      7  C   UNL     1      -1.386  19.611 -11.417  0.00  0.00    +0.000 C 
ATOM      8  O   UNL     1      -2.410  18.623 -11.445  0.00  0.00    +0.000 OA
ENDBRANCH   1   8
BRANCH   6   9
ATOM      9  O   UNL     1      -3.969  16.548 -12.064  0.00  0.00    +0.000 OA
ATOM     10  H   UNL     1      -3.760  15.910 -12.772  0.00  0.00    +0.000 HD
ENDBRANCH   6   9
TORSDOF 2
ENDMDL
MODEL 7
REMARK VINA RESULT:    -3.300     11.040     12.412
REMARK INTER + INTRA:          -3.623
REMARK INTER:                  -3.578
REMARK INTRA:                  -0.046
REMARK UNBOUND:                -0.034
REMARK  Name = 
REMARK  3 active torsions:
REMARK  status: ('A' for Active; 'I' for Inactive)
REMARK    1  A    between atoms: C_1  and  O_2
REMARK    2  A    between atoms: O_2  and  C_3
REMARK    3  A    between atoms: C_8  and  O_9
REMARK                            x       y       z     vdW  Elec       q    Type
REMARK                         _______ _______ _______ _____ _____    ______ ____
ROOT
ATOM      1  C   UNL     1      10.154  21.685   5.272  0.00  0.00    +0.000 A 
ATOM      2  C   UNL     1      11.213  22.534   5.590  0.00  0.00    +0.000 A 
ATOM      3  C   UNL     1      11.140  23.895   5.269  0.00  0.00    +0.000 A 
ATOM      4  C   UNL     1      10.012  24.412   4.629  0.00  0.00    +0.000 A 
ATOM      5  C   UNL     1       8.949  23.570   4.308  0.00  0.00    +0.000 A 
ATOM      6  C   UNL     1       9.031  22.222   4.630  0.00  0.00    +0.000 A 
ENDROOT
BRANCH   1   8
ATOM      7  C   UNL     1      10.530  19.911   6.807  0.00  0.00    +0.000 C 
ATOM      8  O   UNL     1      10.089  20.338   5.524  0.00  0.00    +0.000 OA
ENDBRANCH   1   8
BRANCH   6   9
ATOM      9  O   UNL     1       7.974  21.414   4.304  0.00  0.00    +0.000 OA
ATOM     10  H   UNL     1       7.648  21.073   5.159  0.00  0.00    +0.000 HD
ENDBRANCH   6   9
TORSDOF 2
ENDMDL
MODEL 8
REMARK VINA RESULT:    -3.296     13.806     14.828
REMARK INTER + INTRA:          -3.618
REMARK INTER:                  -3.566
REMARK INTRA:                  -0.052
REMARK UNBOUND:                -0.034
REMARK  Name = 
REMARK  3 active torsions:
REMARK  status: ('A' for Active; 'I' for Inactive)
REMARK    1  A    between atoms: C_1  and  O_2
REMARK    2  A    between atoms: O_2  and  C_3
REMARK    3  A    between atoms: C_8  and  O_9
REMARK                            x       y       z     vdW  Elec       q    Type
REMARK                         _______ _______ _______ _____ _____    ______ ____
ROOT
ATOM      1  C   UNL     1      -3.359  16.225 -11.044  0.00  0.00    +0.000 A 
ATOM      2  C   UNL     1      -2.977  15.026 -10.444  0.00  0.00    +0.000 A 
ATOM      3  C   UNL     1      -1.842  14.984  -9.624  0.00  0.00    +0.000 A 
ATOM      4  C   UNL     1      -1.086  16.136  -9.402  0.00  0.00    +0.000 A 
ATOM      5  C   UNL     1      -1.461  17.338  -9.998  0.00  0.00    +0.000 A 
ATOM      6  C   UNL     1      -2.588  17.371 -10.810  0.00  0.00    +0.000 A 
ENDROOT
BRANCH   1   8
ATOM      7  C   UNL     1      -4.467  15.645 -13.064  0.00  0.00    +0.000 C 
ATOM      8  O   UNL     1      -4.440  16.412 -11.867  0.00  0.00    +0.000 OA
ENDBRANCH   1   8
BRANCH   6   9
ATOM      9  O   UNL     1      -2.936  18.564 -11.384  0.00  0.00    +0.000 OA
ATOM     10  H   UNL     1      -3.102  19.163 -10.632  0.00  0.00    +0.000 HD
ENDBRANCH   6   9
TORSDOF 2
ENDMDL
MODEL 9
REMARK VINA RESULT:    -3.278     13.553     14.640
REMARK INTER + INTRA:          -3.599
REMARK INTER:                  -3.552
REMARK INTRA:                  -0.047
REMARK UNBOUND:                -0.034
REMARK  Name = 
REMARK  3 active torsions:
REMARK  status: ('A' for Active; 'I' for Inactive)
REMARK    1  A    between atoms: C_1  and  O_2
REMARK    2  A    between atoms: O_2  and  C_3
REMARK    3  A    between atoms: C_8  and  O_9
REMARK                            x       y       z     vdW  Elec       q    Type
REMARK                         _______ _______ _______ _____ _____    ______ ____
ROOT
ATOM      1  C   UNL     1      -3.321  15.499 -10.374  0.00  0.00    +0.000 A 
ATOM      2  C   UNL     1      -2.212  15.050  -9.657  0.00  0.00    +0.000 A 
ATOM      3  C   UNL     1      -1.105  15.890  -9.482  0.00  0.00    +0.000 A 
ATOM      4  C   UNL     1      -1.101  17.178 -10.021  0.00  0.00    +0.000 A 
ATOM      5  C   UNL     1      -2.205  17.634 -10.738  0.00  0.00    +0.000 A 
ATOM      6  C   UNL     1      -3.299  16.794 -10.908  0.00  0.00    +0.000 A 
ENDROOT
BRANCH   1   8
ATOM      7  C   UNL     1      -4.368  13.737 -11.575  0.00  0.00    +0.000 C 
ATOM      8  O   UNL     1      -4.467  14.789 -10.624  0.00  0.00    +0.000 OA
ENDBRANCH   1   8
BRANCH   6   9
ATOM      9  O   UNL     1      -4.372  17.264 -11.616  0.00  0.00    +0.000 OA
ATOM     10  H   UNL     1      -4.965  17.648 -10.943  0.00  0.00    +0.000 HD
ENDBRANCH   6   9
TORSDOF 2
ENDMDL
