MODEL 1
REMARK VINA RESULT:    -4.835      0.000      0.000
REMARK INTER + INTRA:          -5.299
REMARK INTER:                  -5.259
REMARK INTRA:                  -0.039
REMARK UNBOUND:                -0.039
REMARK  Name = 
REMARK  3 active torsions:
REMARK  status: ('A' for Active; 'I' for Inactive)
REMARK    1  A    between atoms: C_1  and  O_2
REMARK    2  A    between atoms: O_2  and  C_3
REMARK    3  A    between atoms: C_8  and  O_9
REMARK                            x       y       z     vdW  Elec       q    Type
REMARK                         _______ _______ _______ _____ _____    ______ ____
ROOT
ATOM      1  C   UNL     1       8.760   8.124   6.844  0.00  0.00    +0.000 A 
ATOM      2  C   UNL     1       8.745   7.614   5.547  0.00  0.00    +0.000 A 
ATOM      3  C   UNL     1       7.598   6.974   5.059  0.00  0.00    +0.000 A 
ATOM      4  C   UNL     1       6.465   6.842   5.865  0.00  0.00    +0.000 A 
ATOM      5  C   UNL     1       6.472   7.350   7.162  0.00  0.00    +0.000 A 
ATOM      6  C   UNL     1       7.614   7.983   7.637  0.00  0.00    +0.000 A 
ENDROOT
BRANCH   1   8
ATOM      7  C   UNL     1      11.102   8.515   6.919  0.00  0.00    +0.000 C 
ATOM      8  O   UNL     1       9.807   8.771   7.449  0.00  0.00    +0.000 OA
ENDBRANCH   1   8
BRANCH   6   9
ATOM      9  O   UNL     1       7.597   8.474   8.915  0.00  0.00    +0.000 OA
ATOM     10  H   UNL     1       7.592   7.681   9.485  0.00  0.00    +0.000 HD
ENDBRANCH   6   9
TORSDOF 2
ENDMDL
MODEL 2
REMARK VINA RESULT:    -4.773      2.053      2.779
REMARK INTER + INTRA:          -5.231
REMARK INTER:                  -5.183
REMARK INTRA:                  -0.048
REMARK UNBOUND:                -0.039
REMARK  Name = 
REMARK  3 active torsions:
REMARK  status: ('A' for Active; 'I' for Inactive)
REMARK    1  A    between atoms: C_1  and  O_2
REMARK    2  A    between atoms: O_2  and  C_3
REMARK    3  A    between atoms: C_8  and  O_9
REMARK                            x       y       z     vdW  Elec       q    Type
REMARK                         _______ _______ _______ _____ _____    ______ ____
ROOT
ATOM      1  C   UNL     1       9.436   8.140   5.770  0.00  0.00    +0.000 A 
ATOM      2  C   UNL     1       9.852   8.820   6.914  0.00  0.00    +0.000 A 
ATOM      3  C   UNL     1       9.047   8.820   8.060  0.00  0.00    +0.000 A 
ATOM      4  C   UNL     1       7.826   8.143   8.067  0.00  0.00    +0.000 A 
ATOM      5  C   UNL     1       7.403   7.461   6.928  0.00  0.00    +0.000 A 
ATOM      6  C   UNL     1       8.208   7.467   5.796  0.00  0.00    +0.000 A 
ENDROOT
BRANCH   1   8
ATOM      7  C   UNL     1      11.487   7.676   4.663  0.00  0.00    +0.000 C 
ATOM      8  O   UNL     1      10.118   8.056   4.583  0.00  0.00    +0.000 OA
ENDBRANCH   1   8
BRANCH   6   9
ATOM      9  O   UNL     1       7.771   6.789   4.689  0.00  0.00    +0.000 OA
ATOM     10  H   UNL     1       6.904   6.422   4.948  0.00  0.00    +0.000 HD
ENDBRANCH   6   9
TORSDOF 2
ENDMDL
MODEL 3
REMARK VINA RESULT:    -4.739      1.385      3.242
REMARK INTER + INTRA:          -5.194
REMARK INTER:                  -5.146
REMARK INTRA:                  -0.048
REMARK UNBOUND:                -0.039
REMARK  Name = 
REMARK  3 active torsions:
REMARK  status: ('A' for Active; 'I' for Inactive)
REMARK    1  A    between atoms: C_1  and  O_2
REMARK    2  A    between atoms: O_2  and  C_3
REMARK    3  A    between atoms: C_8  and  O_9
REMARK                            x       y       z     vdW  Elec       q    Type
REMARK                         _______ _______ _______ _____ _____    ______ ____
ROOT
ATOM      1  C   UNL     1       8.548   7.630   6.966  0.00  0.00    +0.000 A 
ATOM      2  C   UNL     1       9.043   7.857   5.682  0.00  0.00    +0.000 A 
ATOM      3  C   UNL     1      10.425   7.865   5.457  0.00  0.00    +0.000 A 
ATOM      4  C   UNL     1      11.315   7.648   6.510  0.00  0.00    +0.000 A 
ATOM      5  C   UNL     1      10.829   7.420   7.795  0.00  0.00    +0.000 A 
ATOM      6  C   UNL     1       9.456   7.414   8.009  0.00  0.00    +0.000 A 
ENDROOT
BRANCH   1   8
ATOM      7  C   UNL     1       6.371   6.776   6.541  0.00  0.00    +0.000 C 
ATOM      8  O   UNL     1       7.226   7.594   7.331  0.00  0.00    +0.000 OA
ENDBRANCH   1   8
BRANCH   6   9
ATOM      9  O   UNL     1       9.002   7.187   9.281  0.00  0.00    +0.000 OA
ATOM     10  H   UNL     1       8.054   6.980   9.173  0.00  0.00    +0.000 HD
ENDBRANCH   6   9
TORSDOF 2
ENDMDL
MODEL 4
REMARK VINA RESULT:    -4.675      1.275      2.352
REMARK INTER + INTRA:          -5.124
REMARK INTER:                  -5.085
REMARK INTRA:                  -0.039
REMARK UNBOUND:                -0.039
REMARK  Name = 
REMARK  3 active torsions:
REMARK  status: ('A' for Active; 'I' for Inactive)
REMARK    1  A    between atoms: C_1  and  O_2
REMARK    2  A    between atoms: O_2  and  C_3
REMARK    3  A    between atoms: C_8  and  O_9
REMARK                            x       y       z     vdW  Elec       q    Type
REMARK                         _______ _______ _______ _____ _____    ______ ____
ROOT
ATOM      1  C   UNL     1       9.007   8.123   6.648  0.00  0.00    +0.000 A 
ATOM      2  C   UNL     1       8.119   7.976   7.712  0.00  0.00    +0.000 A 
ATOM      3  C   UNL     1       6.836   7.462   7.487  0.00  0.00    +0.000 A 
ATOM      4  C   UNL     1       6.437   7.094   6.200  0.00  0.00    +0.000 A 
ATOM      5  C   UNL     1       7.319   7.238   5.132  0.00  0.00    +0.000 A 
ATOM      6  C   UNL     1       8.589   7.749   5.365  0.00  0.00    +0.000 A 
ENDROOT
BRANCH   1   8
ATOM      7  C   UNL     1      11.271   7.735   7.259  0.00  0.00    +0.000 C 
ATOM      8  O   UNL     1      10.287   8.611   6.721  0.00  0.00    +0.000 OA
ENDBRANCH   1   8
BRANCH   6   9
ATOM      9  O   UNL     1       9.439   7.881   4.299  0.00  0.00    +0.000 OA
ATOM     10  H   UNL     1       9.241   8.763   3.931  0.00  0.00    +0.000 HD
ENDBRANCH   6   9
TORSDOF 2
ENDMDL
MODEL 5
REMARK VINA RESULT:    -4.640     17.499     18.450
REMARK INTER + INTRA:          -5.087
REMARK INTER:                  -5.035
REMARK INTRA:                  -0.052
REMARK UNBOUND:                -0.039
REMARK  Name = 
REMARK  3 active torsions:
REMARK  status: ('A' for Active; 'I' for Inactive)
REMARK    1  A    between atoms: C_1  and  O_2
REMARK    2  A    between atoms: O_2  and  C_3
REMARK    3  A    between atoms: C_8  and  O_9
REMARK                            x       y       z     vdW  Elec       q    Type
REMARK                         _______ _______ _______ _____ _____    ______ ____
ROOT
ATOM      1  C   UNL     1      -1.713  -1.308  19.385  0.00  0.00    +0.000 A 
ATOM      2  C   UNL     1      -2.563  -2.349  19.014  0.00  0.00    +0.000 A 
ATOM      3  C   UNL     1      -3.624  -2.105  18.132  0.00  0.00    +0.000 A 
ATOM      4  C   UNL     1      -3.838  -0.824  17.620  0.00  0.00    +0.000 A 
ATOM      5  C   UNL     1      -2.992   0.221  17.986  0.00  0.00    +0.000 A 
ATOM      6  C   UNL     1      -1.943  -0.030  18.862  0.00  0.00    +0.000 A 
ENDROOT
BRANCH   1   8
ATOM      7  C   UNL     1      -0.937  -1.637  21.607  0.00  0.00    +0.000 C 
ATOM      8  O   UNL     1      -0.641  -1.402  20.236  0.00  0.00    +0.000 OA
ENDBRANCH   1   8
BRANCH   6   9
ATOM      9  O   UNL     1      -1.126   1.013  19.207  0.00  0.00    +0.000 OA
ATOM     10  H   UNL     1      -0.298   0.853  18.714  0.00  0.00    +0.000 HD
ENDBRANCH   6   9
TORSDOF 2
ENDMDL
MODEL 6
REMARK VINA RESULT:    -4.594      1.954      3.972
REMARK INTER + INTRA:          -5.037
REMARK INTER:                  -4.985
REMARK INTRA:                  -0.051
REMARK UNBOUND:                -0.039
REMARK  Name = 
REMARK  3 active torsions:
REMARK  status: ('A' for Active; 'I' for Inactive)
REMARK    1  A    between atoms: C_1  and  O_2
REMARK    2  A    between atoms: O_2  and  C_3
REMARK    3  A    between atoms: C_8  and  O_9
REMARK                            x       y       z     vdW  Elec       q    Type
REMARK                         _______ _______ _______ _____ _____    ______ ____
ROOT
ATOM      1  C   UNL     1       8.822   6.965   6.354  0.00  0.00    +0.000 A 
ATOM      2  C   UNL     1       9.318   6.609   7.607  0.00  0.00    +0.000 A 
ATOM      3  C   UNL     1      10.591   7.037   8.003  0.00  0.00    +0.000 A 
ATOM      4  C   UNL     1      11.372   7.819   7.150  0.00  0.00    +0.000 A 
ATOM      5  C   UNL     1      10.883   8.179   5.896  0.00  0.00    +0.000 A 
ATOM      6  C   UNL     1       9.619   7.750   5.512  0.00  0.00    +0.000 A 
ENDROOT
BRANCH   1   8
ATOM      7  C   UNL     1       6.458   7.014   6.587  0.00  0.00    +0.000 C 
ATOM      8  O   UNL     1       7.599   6.618   5.837  0.00  0.00    +0.000 OA
ENDBRANCH   1   8
BRANCH   6   9
ATOM      9  O   UNL     1       9.161   8.116   4.275  0.00  0.00    +0.000 OA
ATOM     10  H   UNL     1       8.976   9.072   4.351  0.00  0.00    +0.000 HD
ENDBRANCH   6   9
TORSDOF 2
ENDMDL
MODEL 7
REMARK VINA RESULT:    -4.480      1.380      2.346
REMARK INTER + INTRA:          -4.912
REMARK INTER:                  -4.888
REMARK INTRA:                  -0.024
REMARK UNBOUND:                -0.039
REMARK  Name = 
REMARK  3 active torsions:
REMARK  status: ('A' for Active; 'I' for Inactive)
REMARK    1  A    between atoms: C_1  and  O_2
REMARK    2  A    between atoms: O_2  and  C_3
REMARK    3  A    between atoms: C_8  and  O_9
REMARK                            x       y       z     vdW  Elec       q    Type
REMARK                         _______ _______ _______ _____ _____    ______ ____
ROOT
ATOM      1  C   UNL     1       8.542   8.480   7.568  0.00  0.00    +0.000 A 
ATOM      2  C   UNL     1       9.753   8.755   6.935  0.00  0.00    +0.000 A 
ATOM      3  C   UNL     1      10.010   8.237   5.659  0.00  0.00    +0.000 A 
ATOM      4  C   UNL     1       9.061   7.442   5.014  0.00  0.00    +0.000 A 
ATOM      5  C   UNL     1       7.848   7.163   5.639  0.00  0.00    +0.000 A 
ATOM      6  C   UNL     1       7.602   7.682   6.904  0.00  0.00    +0.000 A 
ENDROOT
BRANCH   1   8
ATOM      7  C   UNL     1       8.689   8.212   9.924  0.00  0.00    +0.000 C 
ATOM      8  O   UNL     1       8.157   8.918   8.809  0.00  0.00    +0.000 OA
ENDBRANCH   1   8
BRANCH   6   9
ATOM      9  O   UNL     1       6.402   7.393   7.499  0.00  0.00    +0.000 OA
ATOM     10  H   UNL     1       5.980   8.262   7.642  0.00  0.00    +0.000 HD
ENDBRANCH   6   9
TORSDOF 2
ENDMDL
MODEL 8
REMARK VINA RESULT:    -4.385      1.884      3.723
REMARK INTER + INTRA:          -4.809
REMARK INTER:                  -4.764
REMARK INTRA:                  -0.046
REMARK UNBOUND:                -0.039
REMARK  Name = 
REMARK  3 active torsions:
REMARK  status: ('A' for Active; 'I' for Inactive)
REMARK    1  A    between atoms: C_1  and  O_2
REMARK    2  A    between atoms: O_2  and  C_3
REMARK    3  A    between atoms: C_8  and  O_9
REMARK                            x       y       z     vdW  Elec       q    Type
REMARK                         _______ _______ _______ _____ _____    ______ ____
ROOT
ATOM      1  C   UNL     1       9.435   8.383   6.697  0.00  0.00    +0.000 A 
ATOM      2  C   UNL     1      10.456   9.301   6.935  0.00  0.00    +0.000 A 
ATOM      3  C   UNL     1      11.640   9.239   6.190  0.00  0.00    +0.000 A 
ATOM      4  C   UNL     1      11.808   8.262   5.207  0.00  0.00    +0.000 A 
ATOM      5  C   UNL     1      10.791   7.341   4.963  0.00  0.00    +0.000 A 
ATOM      6  C   UNL     1       9.620   7.410   5.707  0.00  0.00    +0.000 A 
ENDROOT
BRANCH   1   8
ATOM      7  C   UNL     1       8.264   8.465   8.763  0.00  0.00    +0.000 C 
ATOM      8  O   UNL     1       8.228   8.325   7.348  0.00  0.00    +0.000 OA
ENDBRANCH   1   8
BRANCH   6   9
ATOM      9  O   UNL     1       8.635   6.494   5.449  0.00  0.00    +0.000 OA
ATOM     10  H   UNL     1       8.822   5.752   6.054  0.00  0.00    +0.000 HD
ENDBRANCH   6   9
TORSDOF 2
ENDMDL
MODEL 9
REMARK VINA RESULT:    -4.354      1.848      2.778
REMARK INTER + INTRA:          -4.776
REMARK INTER:                  -4.724
REMARK INTRA:                  -0.052
REMARK UNBOUND:                -0.039
REMARK  Name = 
REMARK  3 active torsions:
REMARK  status: ('A' for Active; 'I' for Inactive)
REMARK    1  A    between atoms: C_1  and  O_2
REMARK    2  A    between atoms: O_2  and  C_3
REMARK    3  A    between atoms: C_8  and  O_9
REMARK                            x       y       z     vdW  Elec       q    Type
REMARK                         _______ _______ _______ _____ _____    ______ ____
ROOT
ATOM      1  C   UNL     1       9.931   7.547   5.683  0.00  0.00    +0.000 A 
ATOM      2  C   UNL     1       8.576   7.368   5.408  0.00  0.00    +0.000 A 
ATOM      3  C   UNL     1       7.622   7.598   6.408  0.00  0.00    +0.000 A 
ATOM      4  C   UNL     1       8.019   8.005   7.683  0.00  0.00    +0.000 A 
ATOM      5  C   UNL     1       9.370   8.187   7.966  0.00  0.00    +0.000 A 
ATOM      6  C   UNL     1      10.309   7.957   6.968  0.00  0.00    +0.000 A 
ENDROOT
BRANCH   1   8
ATOM      7  C   UNL     1      11.080   8.300   3.744  0.00  0.00    +0.000 C 
ATOM      8  O   UNL     1      10.968   7.359   4.805  0.00  0.00    +0.000 OA
ENDBRANCH   1   8
BRANCH   6   9
ATOM      9  O   UNL     1      11.632   8.142   7.269  0.00  0.00    +0.000 OA
ATOM     10  H   UNL     1      12.093   7.403   6.828  0.00  0.00    +0.000 HD
ENDBRANCH   6   9
TORSDOF 2
ENDMDL
