MODEL 1
REMARK VINA RESULT:    -4.122      0.000      0.000
REMARK INTER + INTRA:          -4.498
REMARK INTER:                  -4.484
REMARK INTRA:                  -0.015
REMARK UNBOUND:                -0.015
REMARK  Name = 
REMARK  3 active torsions:
REMARK  status: ('A' for Active; 'I' for Inactive)
REMARK    1  A    between atoms: C_1  and  O_2
REMARK    2  A    between atoms: O_2  and  C_3
REMARK    3  A    between atoms: C_8  and  O_9
REMARK                            x       y       z     vdW  Elec       q    Type
REMARK                         _______ _______ _______ _____ _____    ______ ____
ROOT
ATOM      1  C   UNL     1       2.833  13.520   1.845  0.00  0.00    +0.000 A 
ATOM      2  C   UNL     1       2.292  13.656   3.123  0.00  0.00    +0.000 A 
ATOM      3  C   UNL     1       2.231  12.549   3.978  0.00  0.00    +0.000 A 
ATOM      4  C   UNL     1       2.708  11.305   3.561  0.00  0.00    +0.000 A 
ATOM      5  C   UNL     1       3.250  11.161   2.286  0.00  0.00    +0.000 A 
ATOM      6  C   UNL     1       3.306  12.264   1.444  0.00  0.00    +0.000 A 
ENDROOT
BRANCH   1   8
ATOM      7  C   UNL     1       4.070  15.385   1.045  0.00  0.00    +0.000 C 
ATOM      8  O   UNL     1       2.955  14.512   0.906  0.00  0.00    +0.000 OA
ENDBRANCH   1   8
BRANCH   6   9
ATOM      9  O   UNL     1       3.843  12.098   0.195  0.00  0.00    +0.000 OA
ATOM     10  H   UNL     1       4.745  11.762   0.356  0.00  0.00    +0.000 HD
ENDBRANCH   6   9
TORSDOF 2
ENDMDL
MODEL 2
REMARK VINA RESULT:    -3.973      9.960     11.633
REMARK INTER + INTRA:          -4.336
REMARK INTER:                  -4.298
REMARK INTRA:                  -0.038
REMARK UNBOUND:                -0.015
REMARK  Name = 
REMARK  3 active torsions:
REMARK  status: ('A' for Active; 'I' for Inactive)
REMARK    1  A    between atoms: C_1  and  O_2
REMARK    2  A    between atoms: O_2  and  C_3
REMARK    3  A    between atoms: C_8  and  O_9
REMARK                            x       y       z     vdW  Elec       q    Type
REMARK                         _______ _______ _______ _____ _____    ______ ____
ROOT
ATOM      1  C   UNL     1       8.521  23.145   4.230  0.00  0.00    +0.000 A 
ATOM      2  C   UNL     1       8.118  24.179   3.385  0.00  0.00    +0.000 A 
ATOM      3  C   UNL     1       6.986  24.019   2.575  0.00  0.00    +0.000 A 
ATOM      4  C   UNL     1       6.257  22.829   2.605  0.00  0.00    +0.000 A 
ATOM      5  C   UNL     1       6.654  21.792   3.446  0.00  0.00    +0.000 A 
ATOM      6  C   UNL     1       7.777  21.959   4.246  0.00  0.00    +0.000 A 
ENDROOT
BRANCH   1   8
ATOM      7  C   UNL     1      10.454  24.300   4.991  0.00  0.00    +0.000 C 
ATOM      8  O   UNL     1       9.603  23.162   5.073  0.00  0.00    +0.000 OA
ENDBRANCH   1   8
BRANCH   6   9
ATOM      9  O   UNL     1       8.147  20.926   5.064  0.00  0.00    +0.000 OA
ATOM     10  H   UNL     1       7.568  20.184   4.805  0.00  0.00    +0.000 HD
ENDBRANCH   6   9
TORSDOF 2
ENDMDL
MODEL 3
REMARK VINA RESULT:    -3.638     10.281     11.907
REMARK INTER + INTRA:          -3.971
REMARK INTER:                  -3.922
REMARK INTRA:                  -0.050
REMARK UNBOUND:                -0.015
REMARK  Name = 
REMARK  3 active torsions:
REMARK  status: ('A' for Active; 'I' for Inactive)
REMARK    1  A    between atoms: C_1  and  O_2
REMARK    2  A    between atoms: O_2  and  C_3
REMARK    3  A    between atoms: C_8  and  O_9
REMARK                            x       y       z     vdW  Elec       q    Type
REMARK                         _______ _______ _______ _____ _____    ______ ____
ROOT
ATOM      1  C   UNL     1      10.724  19.748   7.113  0.00  0.00    +0.000 A 
ATOM      2  C   UNL     1      12.097  19.801   7.346  0.00  0.00    +0.000 A 
ATOM      3  C   UNL     1      12.943  20.405   6.406  0.00  0.00    +0.000 A 
ATOM      4  C   UNL     1      12.421  20.956   5.235  0.00  0.00    +0.000 A 
ATOM      5  C   UNL     1      11.049  20.908   4.996  0.00  0.00    +0.000 A 
ATOM      6  C   UNL     1      10.218  20.306   5.933  0.00  0.00    +0.000 A 
ENDROOT
BRANCH   1   8
ATOM      7  C   UNL     1       9.772  17.770   8.024  0.00  0.00    +0.000 C 
ATOM      8  O   UNL     1       9.782  19.190   7.940  0.00  0.00    +0.000 OA
ENDBRANCH   1   8
BRANCH   6   9
ATOM      9  O   UNL     1       8.873  20.271   5.676  0.00  0.00    +0.000 OA
ATOM     10  H   UNL     1       8.521  19.596   6.287  0.00  0.00    +0.000 HD
ENDBRANCH   6   9
TORSDOF 2
ENDMDL
MODEL 4
REMARK VINA RESULT:    -3.567     10.256     11.843
REMARK INTER + INTRA:          -3.894
REMARK INTER:                  -3.852
REMARK INTRA:                  -0.042
REMARK UNBOUND:                -0.015
REMARK  Name = 
REMARK  3 active torsions:
REMARK  status: ('A' for Active; 'I' for Inactive)
REMARK    1  A    between atoms: C_1  and  O_2
REMARK    2  A    between atoms: O_2  and  C_3
REMARK    3  A    between atoms: C_8  and  O_9
REMARK                            x       y       z     vdW  Elec       q    Type
REMARK                         _______ _______ _______ _____ _____    ______ ____
ROOT
ATOM      1  C   UNL     1       8.332  22.517   4.361  0.00  0.00    +0.000 A 
ATOM      2  C   UNL     1       8.676  23.837   4.071  0.00  0.00    +0.000 A 
ATOM      3  C   UNL     1       9.919  24.341   4.476  0.00  0.00    +0.000 A 
ATOM      4  C   UNL     1      10.819  23.530   5.170  0.00  0.00    +0.000 A 
ATOM      5  C   UNL     1      10.483  22.211   5.462  0.00  0.00    +0.000 A 
ATOM      6  C   UNL     1       9.248  21.719   5.058  0.00  0.00    +0.000 A 
ENDROOT
BRANCH   1   8
ATOM      7  C   UNL     1       6.531  22.318   2.823  0.00  0.00    +0.000 C 
ATOM      8  O   UNL     1       7.156  21.894   4.029  0.00  0.00    +0.000 OA
ENDBRANCH   1   8
BRANCH   6   9
ATOM      9  O   UNL     1       8.940  20.419   5.357  0.00  0.00    +0.000 OA
ATOM     10  H   UNL     1       8.917  20.387   6.332  0.00  0.00    +0.000 HD
ENDBRANCH   6   9
TORSDOF 2
ENDMDL
MODEL 5
REMARK VINA RESULT:    -3.541     13.680     14.639
REMARK INTER + INTRA:          -3.866
REMARK INTER:                  -3.814
REMARK INTRA:                  -0.052
REMARK UNBOUND:                -0.015
REMARK  Name = 
REMARK  3 active torsions:
REMARK  status: ('A' for Active; 'I' for Inactive)
REMARK    1  A    between atoms: C_1  and  O_2
REMARK    2  A    between atoms: O_2  and  C_3
REMARK    3  A    between atoms: C_8  and  O_9
REMARK                            x       y       z     vdW  Elec       q    Type
REMARK                         _______ _______ _______ _____ _____    ______ ____
ROOT
ATOM      1  C   UNL     1      -2.528  16.190 -11.599  0.00  0.00    +0.000 A 
ATOM      2  C   UNL     1      -1.906  17.341 -11.116  0.00  0.00    +0.000 A 
ATOM      3  C   UNL     1      -1.186  17.296  -9.915  0.00  0.00    +0.000 A 
ATOM      4  C   UNL     1      -1.085  16.104  -9.195  0.00  0.00    +0.000 A 
ATOM      5  C   UNL     1      -1.703  14.950  -9.671  0.00  0.00    +0.000 A 
ATOM      6  C   UNL     1      -2.415  15.004 -10.863  0.00  0.00    +0.000 A 
ENDROOT
BRANCH   1   8
ATOM      7  C   UNL     1      -4.456  16.859 -12.815  0.00  0.00    +0.000 C 
ATOM      8  O   UNL     1      -3.262  16.088 -12.753  0.00  0.00    +0.000 OA
ENDBRANCH   1   8
BRANCH   6   9
ATOM      9  O   UNL     1      -3.014  13.857 -11.311  0.00  0.00    +0.000 OA
ATOM     10  H   UNL     1      -3.437  14.110 -12.153  0.00  0.00    +0.000 HD
ENDBRANCH   6   9
TORSDOF 2
ENDMDL
MODEL 6
REMARK VINA RESULT:    -3.362     13.535     14.546
REMARK INTER + INTRA:          -3.672
REMARK INTER:                  -3.634
REMARK INTRA:                  -0.037
REMARK UNBOUND:                -0.015
REMARK  Name = 
REMARK  3 active torsions:
REMARK  status: ('A' for Active; 'I' for Inactive)
REMARK    1  A    between atoms: C_1  and  O_2
REMARK    2  A    between atoms: O_2  and  C_3
REMARK    3  A    between atoms: C_8  and  O_9
REMARK                            x       y       z     vdW  Elec       q    Type
REMARK                         _______ _______ _______ _____ _____    ______ ____
ROOT
ATOM      1  C   UNL     1      -3.257  14.708 -10.923  0.00  0.00    +0.000 A 
ATOM      2  C   UNL     1      -2.206  14.965 -11.802  0.00  0.00    +0.000 A 
ATOM      3  C   UNL     1      -1.130  15.761 -11.392  0.00  0.00    +0.000 A 
ATOM      4  C   UNL     1      -1.100  16.303 -10.106  0.00  0.00    +0.000 A 
ATOM      5  C   UNL     1      -2.146  16.051  -9.222  0.00  0.00    +0.000 A 
ATOM      6  C   UNL     1      -3.210  15.260  -9.637  0.00  0.00    +0.000 A 
ENDROOT
BRANCH   1   8
ATOM      7  C   UNL     1      -4.467  13.401 -12.497  0.00  0.00    +0.000 C 
ATOM      8  O   UNL     1      -4.370  13.950 -11.188  0.00  0.00    +0.000 OA
ENDBRANCH   1   8
BRANCH   6   9
ATOM      9  O   UNL     1      -4.226  15.026  -8.750  0.00  0.00    +0.000 OA
ATOM     10  H   UNL     1      -4.439  15.904  -8.379  0.00  0.00    +0.000 HD
ENDBRANCH   6   9
TORSDOF 2
ENDMDL
MODEL 7
REMARK VINA RESULT:    -3.314     13.425     14.429
REMARK INTER + INTRA:          -3.619
REMARK INTER:                  -3.581
REMARK INTRA:                  -0.038
REMARK UNBOUND:                -0.015
REMARK  Name = 
REMARK  3 active torsions:
REMARK  status: ('A' for Active; 'I' for Inactive)
REMARK    1  A    between atoms: C_1  and  O_2
REMARK    2  A    between atoms: O_2  and  C_3
REMARK    3  A    between atoms: C_8  and  O_9
REMARK                            x       y       z     vdW  Elec       q    Type
REMARK                         _______ _______ _______ _____ _____    ______ ____
ROOT
ATOM      1  C   UNL     1      -2.173  17.578 -10.795  0.00  0.00    +0.000 A 
ATOM      2  C   UNL     1      -1.132  17.292  -9.914  0.00  0.00    +0.000 A 
ATOM      3  C   UNL     1      -1.082  16.049  -9.269  0.00  0.00    +0.000 A 
ATOM      4  C   UNL     1      -2.071  15.092  -9.502  0.00  0.00    +0.000 A 
ATOM      5  C   UNL     1      -3.115  15.370 -10.382  0.00  0.00    +0.000 A 
ATOM      6  C   UNL     1      -3.156  16.605 -11.016  0.00  0.00    +0.000 A 
ENDROOT
BRANCH   1   8
ATOM      7  C   UNL     1      -1.251  19.653 -11.496  0.00  0.00    +0.000 C 
ATOM      8  O   UNL     1      -2.348  18.747 -11.492  0.00  0.00    +0.000 OA
ENDBRANCH   1   8
BRANCH   6   9
ATOM      9  O   UNL     1      -4.191  16.856 -11.877  0.00  0.00    +0.000 OA
ATOM     10  H   UNL     1      -3.977  17.720 -12.278  0.00  0.00    +0.000 HD
ENDBRANCH   6   9
TORSDOF 2
ENDMDL
