MODEL 1
REMARK VINA RESULT:    -5.986      0.000      0.000
REMARK INTER + INTRA:          -8.528
REMARK INTER:                  -8.085
REMARK INTRA:                  -0.443
REMARK UNBOUND:                -0.443
REMARK  Name = 
REMARK  10 active torsions:
REMARK  status: ('A' for Active; 'I' for Inactive)
REMARK    1  A    between atoms: C_1  and  C_2
REMARK    2  A    between atoms: C_5  and  N_8
REMARK    3  A    between atoms: N_8  and  C_9
REMARK    4  A    between atoms: N_8  and  C_13
REMARK    5  A    between atoms: C_9  and  C_10
REMARK    6  A    between atoms: C_10  and  C_11
REMARK    7  A    between atoms: C_10  and  O_12
REMARK    8  A    between atoms: C_13  and  C_14
REMARK    9  A    between atoms: C_14  and  C_15
REMARK   10  A    between atoms: C_14  and  O_16
REMARK                            x       y       z     vdW  Elec       q    Type
REMARK                         _______ _______ _______ _____ _____    ______ ____
ROOT
ATOM      1  N   UNL     1       9.585   7.861   6.183  0.00  0.00    +0.000 N 
ENDROOT
BRANCH   1   6
ATOM      2  C   UNL     1      14.536   9.141   3.505  0.00  0.00    +0.000 C 
ATOM      3  C   UNL     1      13.239   8.822   4.182  0.00  0.00    +0.000 A 
ATOM      4  C   UNL     1      12.739   9.639   5.191  0.00  0.00    +0.000 A 
ATOM      5  C   UNL     1      11.538   9.319   5.843  0.00  0.00    +0.000 A 
ATOM      6  C   UNL     1      10.792   8.165   5.542  0.00  0.00    +0.000 A 
ATOM      7  C   UNL     1      11.326   7.363   4.516  0.00  0.00    +0.000 A 
ATOM      8  C   UNL     1      12.526   7.673   3.854  0.00  0.00    +0.000 A 
ENDBRANCH   1   6
BRANCH   1   9
ATOM      9  C   UNL     1       8.555   7.055   5.485  0.00  0.00    +0.000 C 
BRANCH   9  10
ATOM     10  C   UNL     1       7.171   7.118   6.178  0.00  0.00    +0.000 C 
ATOM     11  C   UNL     1       6.060   7.332   5.157  0.00  0.00    +0.000 C 
BRANCH  10  12
ATOM     12  O   UNL     1       6.895   5.903   6.888  0.00  0.00    +0.000 OA
ATOM     13  H   UNL     1       6.092   6.040   7.418  0.00  0.00    +0.000 HD
ENDBRANCH  10  12
ENDBRANCH   9  10
ENDBRANCH   1   9
BRANCH   1  14
ATOM     14  C   UNL     1       9.071   8.703   7.294  0.00  0.00    +0.000 C 
BRANCH  14  15
ATOM     15  C   UNL     1       9.372   8.086   8.681  0.00  0.00    +0.000 C 
ATOM     16  C   UNL     1       8.398   8.538   9.762  0.00  0.00    +0.000 C 
BRANCH  15  17
ATOM     17  O   UNL     1       9.355   6.660   8.639  0.00  0.00    +0.000 OA
ATOM     18  H   UNL     1       9.938   6.422   7.890  0.00  0.00    +0.000 HD
ENDBRANCH  15  17
ENDBRANCH  14  15
ENDBRANCH   1  14
TORSDOF 7
ENDMDL
MODEL 2
REMARK VINA RESULT:    -5.934      0.715      3.074
REMARK INTER + INTRA:          -8.458
REMARK INTER:                  -8.214
REMARK INTRA:                  -0.244
REMARK UNBOUND:                -0.443
REMARK  Name = 
REMARK  10 active torsions:
REMARK  status: ('A' for Active; 'I' for Inactive)
REMARK    1  A    between atoms: C_1  and  C_2
REMARK    2  A    between atoms: C_5  and  N_8
REMARK    3  A    between atoms: N_8  and  C_9
REMARK    4  A    between atoms: N_8  and  C_13
REMARK    5  A    between atoms: C_9  and  C_10
REMARK    6  A    between atoms: C_10  and  C_11
REMARK    7  A    between atoms: C_10  and  O_12
REMARK    8  A    between atoms: C_13  and  C_14
REMARK    9  A    between atoms: C_14  and  C_15
REMARK   10  A    between atoms: C_14  and  O_16
REMARK                            x       y       z     vdW  Elec       q    Type
REMARK                         _______ _______ _______ _____ _____    ______ ____
ROOT
ATOM      1  N   UNL     1       9.347   8.097   6.193  0.00  0.00    +0.000 N 
ENDROOT
BRANCH   1   6
ATOM      2  C   UNL     1      14.423   9.294   3.718  0.00  0.00    +0.000 C 
ATOM      3  C   UNL     1      13.118   8.972   4.379  0.00  0.00    +0.000 A 
ATOM      4  C   UNL     1      12.433   7.801   4.075  0.00  0.00    +0.000 A 
ATOM      5  C   UNL     1      11.195   7.519   4.675  0.00  0.00    +0.000 A 
ATOM      6  C   UNL     1      10.572   8.394   5.584  0.00  0.00    +0.000 A 
ATOM      7  C   UNL     1      11.294   9.567   5.870  0.00  0.00    +0.000 A 
ATOM      8  C   UNL     1      12.534   9.860   5.278  0.00  0.00    +0.000 A 
ENDBRANCH   1   6
BRANCH   1   9
ATOM      9  C   UNL     1       9.087   8.528   7.588  0.00  0.00    +0.000 C 
BRANCH   9  10
ATOM     10  C   UNL     1       9.395   7.420   8.625  0.00  0.00    +0.000 C 
ATOM     11  C   UNL     1      10.884   7.096   8.652  0.00  0.00    +0.000 C 
BRANCH  10  12
ATOM     12  O   UNL     1       9.005   7.828   9.944  0.00  0.00    +0.000 OA
ATOM     13  H   UNL     1       9.625   7.430  10.578  0.00  0.00    +0.000 HD
ENDBRANCH  10  12
ENDBRANCH   9  10
ENDBRANCH   1   9
BRANCH   1  14
ATOM     14  C   UNL     1       8.509   6.964   5.723  0.00  0.00    +0.000 C 
BRANCH  14  15
ATOM     15  C   UNL     1       7.061   7.044   6.266  0.00  0.00    +0.000 C 
ATOM     16  C   UNL     1       6.033   7.361   5.186  0.00  0.00    +0.000 C 
BRANCH  15  17
ATOM     17  O   UNL     1       6.670   5.830   6.905  0.00  0.00    +0.000 OA
ATOM     18  H   UNL     1       6.922   5.946   7.844  0.00  0.00    +0.000 HD
ENDBRANCH  15  17
ENDBRANCH  14  15
ENDBRANCH   1  14
TORSDOF 7
ENDMDL
MODEL 3
REMARK VINA RESULT:    -5.696      2.889      5.641
REMARK INTER + INTRA:          -8.137
REMARK INTER:                  -7.412
REMARK INTRA:                  -0.726
REMARK UNBOUND:                -0.443
REMARK  Name = 
REMARK  10 active torsions:
REMARK  status: ('A' for Active; 'I' for Inactive)
REMARK    1  A    between atoms: C_1  and  C_2
REMARK    2  A    between atoms: C_5  and  N_8
REMARK    3  A    between atoms: N_8  and  C_9
REMARK    4  A    between atoms: N_8  and  C_13
REMARK    5  A    between atoms: C_9  and  C_10
REMARK    6  A    between atoms: C_10  and  C_11
REMARK    7  A    between atoms: C_10  and  O_12
REMARK    8  A    between atoms: C_13  and  C_14
REMARK    9  A    between atoms: C_14  and  C_15
REMARK   10  A    between atoms: C_14  and  O_16
REMARK                            x       y       z     vdW  Elec       q    Type
REMARK                         _______ _______ _______ _____ _____    ______ ____
ROOT
ATOM      1  N   UNL     1      11.707   8.304   5.151  0.00  0.00    +0.000 N 
ENDROOT
BRANCH   1   6
ATOM      2  C   UNL     1       6.348   6.914   6.787  0.00  0.00    +0.000 C 
ATOM      3  C   UNL     1       7.736   7.297   6.373  0.00  0.00    +0.000 A 
ATOM      4  C   UNL     1       7.978   7.865   5.127  0.00  0.00    +0.000 A 
ATOM      5  C   UNL     1       9.285   8.194   4.732  0.00  0.00    +0.000 A 
ATOM      6  C   UNL     1      10.409   7.955   5.543  0.00  0.00    +0.000 A 
ATOM      7  C   UNL     1      10.126   7.383   6.797  0.00  0.00    +0.000 A 
ATOM      8  C   UNL     1       8.824   7.050   7.205  0.00  0.00    +0.000 A 
ENDBRANCH   1   6
BRANCH   1   9
ATOM      9  C   UNL     1      12.590   7.294   4.520  0.00  0.00    +0.000 C 
BRANCH   9  10
ATOM     10  C   UNL     1      13.112   7.736   3.131  0.00  0.00    +0.000 C 
ATOM     11  C   UNL     1      13.863   6.601   2.444  0.00  0.00    +0.000 C 
BRANCH  10  12
ATOM     12  O   UNL     1      12.030   8.133   2.277  0.00  0.00    +0.000 OA
ATOM     13  H   UNL     1      12.310   8.921   1.782  0.00  0.00    +0.000 HD
ENDBRANCH  10  12
ENDBRANCH   9  10
ENDBRANCH   1   9
BRANCH   1  14
ATOM     14  C   UNL     1      12.416   9.451   5.773  0.00  0.00    +0.000 C 
BRANCH  14  15
ATOM     15  C   UNL     1      11.893  10.813   5.254  0.00  0.00    +0.000 C 
ATOM     16  C   UNL     1      12.831  11.973   5.565  0.00  0.00    +0.000 C 
BRANCH  15  17
ATOM     17  O   UNL     1      11.671  10.790   3.845  0.00  0.00    +0.000 OA
ATOM     18  H   UNL     1      10.769  10.427   3.738  0.00  0.00    +0.000 HD
ENDBRANCH  15  17
ENDBRANCH  14  15
ENDBRANCH   1  14
TORSDOF 7
ENDMDL
MODEL 4
REMARK VINA RESULT:    -5.668      2.598      5.995
REMARK INTER + INTRA:          -8.099
REMARK INTER:                  -7.727
REMARK INTRA:                  -0.372
REMARK UNBOUND:                -0.443
REMARK  Name = 
REMARK  10 active torsions:
REMARK  status: ('A' for Active; 'I' for Inactive)
REMARK    1  A    between atoms: C_1  and  C_2
REMARK    2  A    between atoms: C_5  and  N_8
REMARK    3  A    between atoms: N_8  and  C_9
REMARK    4  A    between atoms: N_8  and  C_13
REMARK    5  A    between atoms: C_9  and  C_10
REMARK    6  A    between atoms: C_10  and  C_11
REMARK    7  A    between atoms: C_10  and  O_12
REMARK    8  A    between atoms: C_13  and  C_14
REMARK    9  A    between atoms: C_14  and  C_15
REMARK   10  A    between atoms: C_14  and  O_16
REMARK                            x       y       z     vdW  Elec       q    Type
REMARK                         _______ _______ _______ _____ _____    ______ ____
ROOT
ATOM      1  N   UNL     1      11.407   8.626   5.600  0.00  0.00    +0.000 N 
ENDROOT
BRANCH   1   6
ATOM      2  C   UNL     1       6.020   7.055   6.955  0.00  0.00    +0.000 C 
ATOM      3  C   UNL     1       7.426   7.441   6.612  0.00  0.00    +0.000 A 
ATOM      4  C   UNL     1       8.208   8.160   7.510  0.00  0.00    +0.000 A 
ATOM      5  C   UNL     1       9.516   8.545   7.171  0.00  0.00    +0.000 A 
ATOM      6  C   UNL     1      10.096   8.256   5.923  0.00  0.00    +0.000 A 
ATOM      7  C   UNL     1       9.277   7.525   5.042  0.00  0.00    +0.000 A 
ATOM      8  C   UNL     1       7.969   7.132   5.369  0.00  0.00    +0.000 A 
ENDBRANCH   1   6
BRANCH   1   9
ATOM      9  C   UNL     1      11.708  10.021   5.196  0.00  0.00    +0.000 C 
BRANCH   9  10
ATOM     10  C   UNL     1      12.989  10.576   5.865  0.00  0.00    +0.000 C 
ATOM     11  C   UNL     1      13.941  11.154   4.824  0.00  0.00    +0.000 C 
BRANCH  10  12
ATOM     12  O   UNL     1      12.673  11.614   6.802  0.00  0.00    +0.000 OA
ATOM     13  H   UNL     1      13.255  11.512   7.573  0.00  0.00    +0.000 HD
ENDBRANCH  10  12
ENDBRANCH   9  10
ENDBRANCH   1   9
BRANCH   1  14
ATOM     14  C   UNL     1      12.402   7.618   5.152  0.00  0.00    +0.000 C 
BRANCH  14  15
ATOM     15  C   UNL     1      12.755   7.772   3.652  0.00  0.00    +0.000 C 
ATOM     16  C   UNL     1      13.993   6.983   3.244  0.00  0.00    +0.000 C 
BRANCH  15  17
ATOM     17  O   UNL     1      11.675   7.366   2.813  0.00  0.00    +0.000 OA
ATOM     18  H   UNL     1      12.100   7.053   1.989  0.00  0.00    +0.000 HD
ENDBRANCH  15  17
ENDBRANCH  14  15
ENDBRANCH   1  14
TORSDOF 7
ENDMDL
MODEL 5
REMARK VINA RESULT:    -5.544      1.739      2.044
REMARK INTER + INTRA:          -7.932
REMARK INTER:                  -7.535
REMARK INTRA:                  -0.397
REMARK UNBOUND:                -0.443
REMARK  Name = 
REMARK  10 active torsions:
REMARK  status: ('A' for Active; 'I' for Inactive)
REMARK    1  A    between atoms: C_1  and  C_2
REMARK    2  A    between atoms: C_5  and  N_8
REMARK    3  A    between atoms: N_8  and  C_9
REMARK    4  A    between atoms: N_8  and  C_13
REMARK    5  A    between atoms: C_9  and  C_10
REMARK    6  A    between atoms: C_10  and  C_11
REMARK    7  A    between atoms: C_10  and  O_12
REMARK    8  A    between atoms: C_13  and  C_14
REMARK    9  A    between atoms: C_14  and  C_15
REMARK   10  A    between atoms: C_14  and  O_16
REMARK                            x       y       z     vdW  Elec       q    Type
REMARK                         _______ _______ _______ _____ _____    ______ ____
ROOT
ATOM      1  N   UNL     1       9.584   7.511   5.208  0.00  0.00    +0.000 N 
ENDROOT
BRANCH   1   6
ATOM      2  C   UNL     1      13.767   9.565   1.801  0.00  0.00    +0.000 C 
ATOM      3  C   UNL     1      12.691   9.046   2.704  0.00  0.00    +0.000 A 
ATOM      4  C   UNL     1      12.874   7.878   3.435  0.00  0.00    +0.000 A 
ATOM      5  C   UNL     1      11.850   7.379   4.257  0.00  0.00    +0.000 A 
ATOM      6  C   UNL     1      10.594   8.003   4.372  0.00  0.00    +0.000 A 
ATOM      7  C   UNL     1      10.445   9.183   3.620  0.00  0.00    +0.000 A 
ATOM      8  C   UNL     1      11.462   9.693   2.796  0.00  0.00    +0.000 A 
ENDBRANCH   1   6
BRANCH   1   9
ATOM      9  C   UNL     1       8.261   8.178   5.248  0.00  0.00    +0.000 C 
BRANCH   9  10
ATOM     10  C   UNL     1       7.093   7.183   5.455  0.00  0.00    +0.000 C 
ATOM     11  C   UNL     1       6.537   7.282   6.870  0.00  0.00    +0.000 C 
BRANCH  10  12
ATOM     12  O   UNL     1       6.022   7.448   4.538  0.00  0.00    +0.000 OA
ATOM     13  H   UNL     1       6.107   8.367   4.233  0.00  0.00    +0.000 HD
ENDBRANCH  10  12
ENDBRANCH   9  10
ENDBRANCH   1   9
BRANCH   1  14
ATOM     14  C   UNL     1       9.908   6.695   6.407  0.00  0.00    +0.000 C 
BRANCH  14  15
ATOM     15  C   UNL     1      10.311   7.570   7.618  0.00  0.00    +0.000 C 
ATOM     16  C   UNL     1       9.836   7.005   8.951  0.00  0.00    +0.000 C 
BRANCH  15  17
ATOM     17  O   UNL     1      11.725   7.748   7.692  0.00  0.00    +0.000 OA
ATOM     18  H   UNL     1      11.948   8.320   6.931  0.00  0.00    +0.000 HD
ENDBRANCH  15  17
ENDBRANCH  14  15
ENDBRANCH   1  14
TORSDOF 7
ENDMDL
MODEL 6
REMARK VINA RESULT:    -5.483      3.407      5.950
REMARK INTER + INTRA:          -7.849
REMARK INTER:                  -7.102
REMARK INTRA:                  -0.747
REMARK UNBOUND:                -0.443
REMARK  Name = 
REMARK  10 active torsions:
REMARK  status: ('A' for Active; 'I' for Inactive)
REMARK    1  A    between atoms: C_1  and  C_2
REMARK    2  A    between atoms: C_5  and  N_8
REMARK    3  A    between atoms: N_8  and  C_9
REMARK    4  A    between atoms: N_8  and  C_13
REMARK    5  A    between atoms: C_9  and  C_10
REMARK    6  A    between atoms: C_10  and  C_11
REMARK    7  A    between atoms: C_10  and  O_12
REMARK    8  A    between atoms: C_13  and  C_14
REMARK    9  A    between atoms: C_14  and  C_15
REMARK   10  A    between atoms: C_14  and  O_16
REMARK                            x       y       z     vdW  Elec       q    Type
REMARK                         _______ _______ _______ _____ _____    ______ ____
ROOT
ATOM      1  N   UNL     1      12.140   9.389   4.353  0.00  0.00    +0.000 N 
ENDROOT
BRANCH   1   6
ATOM      2  C   UNL     1       7.542   7.752   7.437  0.00  0.00    +0.000 C 
ATOM      3  C   UNL     1       8.746   8.155   6.643  0.00  0.00    +0.000 A 
ATOM      4  C   UNL     1       9.765   8.905   7.221  0.00  0.00    +0.000 A 
ATOM      5  C   UNL     1      10.878   9.306   6.464  0.00  0.00    +0.000 A 
ATOM      6  C   UNL     1      11.018   9.003   5.098  0.00  0.00    +0.000 A 
ATOM      7  C   UNL     1       9.971   8.242   4.547  0.00  0.00    +0.000 A 
ATOM      8  C   UNL     1       8.853   7.832   5.293  0.00  0.00    +0.000 A 
ENDBRANCH   1   6
BRANCH   1   9
ATOM      9  C   UNL     1      13.262   8.441   4.153  0.00  0.00    +0.000 C 
BRANCH   9  10
ATOM     10  C   UNL     1      13.476   8.071   2.665  0.00  0.00    +0.000 C 
ATOM     11  C   UNL     1      13.968   6.634   2.526  0.00  0.00    +0.000 C 
BRANCH  10  12
ATOM     12  O   UNL     1      12.256   8.196   1.922  0.00  0.00    +0.000 OA
ATOM     13  H   UNL     1      12.152   7.400   1.376  0.00  0.00    +0.000 HD
ENDBRANCH  10  12
ENDBRANCH   9  10
ENDBRANCH   1   9
BRANCH   1  14
ATOM     14  C   UNL     1      12.495  10.822   4.187  0.00  0.00    +0.000 C 
BRANCH  14  15
ATOM     15  C   UNL     1      11.601  11.528   3.139  0.00  0.00    +0.000 C 
ATOM     16  C   UNL     1      11.596  13.045   3.280  0.00  0.00    +0.000 C 
BRANCH  15  17
ATOM     17  O   UNL     1      11.998  11.209   1.806  0.00  0.00    +0.000 OA
ATOM     18  H   UNL     1      11.161  11.105   1.311  0.00  0.00    +0.000 HD
ENDBRANCH  15  17
ENDBRANCH  14  15
ENDBRANCH   1  14
TORSDOF 7
ENDMDL
MODEL 7
REMARK VINA RESULT:    -5.309      3.331      6.041
REMARK INTER + INTRA:          -7.615
REMARK INTER:                  -7.055
REMARK INTRA:                  -0.560
REMARK UNBOUND:                -0.443
REMARK  Name = 
REMARK  10 active torsions:
REMARK  status: ('A' for Active; 'I' for Inactive)
REMARK    1  A    between atoms: C_1  and  C_2
REMARK    2  A    between atoms: C_5  and  N_8
REMARK    3  A    between atoms: N_8  and  C_9
REMARK    4  A    between atoms: N_8  and  C_13
REMARK    5  A    between atoms: C_9  and  C_10
REMARK    6  A    between atoms: C_10  and  C_11
REMARK    7  A    between atoms: C_10  and  O_12
REMARK    8  A    between atoms: C_13  and  C_14
REMARK    9  A    between atoms: C_14  and  C_15
REMARK   10  A    between atoms: C_14  and  O_16
REMARK                            x       y       z     vdW  Elec       q    Type
REMARK                         _______ _______ _______ _____ _____    ______ ____
ROOT
ATOM      1  N   UNL     1      11.561   8.256   3.729  0.00  0.00    +0.000 N 
ENDROOT
BRANCH   1   6
ATOM      2  C   UNL     1       8.307   8.437   8.494  0.00  0.00    +0.000 C 
ATOM      3  C   UNL     1       9.147   8.415   7.254  0.00  0.00    +0.000 A 
ATOM      4  C   UNL     1       8.594   8.077   6.023  0.00  0.00    +0.000 A 
ATOM      5  C   UNL     1       9.392   8.028   4.869  0.00  0.00    +0.000 A 
ATOM      6  C   UNL     1      10.775   8.288   4.887  0.00  0.00    +0.000 A 
ATOM      7  C   UNL     1      11.299   8.627   6.148  0.00  0.00    +0.000 A 
ATOM      8  C   UNL     1      10.512   8.682   7.310  0.00  0.00    +0.000 A 
ENDBRANCH   1   6
BRANCH   1   9
ATOM      9  C   UNL     1      11.359   9.269   2.665  0.00  0.00    +0.000 C 
BRANCH   9  10
ATOM     10  C   UNL     1      11.519  10.720   3.180  0.00  0.00    +0.000 C 
ATOM     11  C   UNL     1      12.975  11.166   3.110  0.00  0.00    +0.000 C 
BRANCH  10  12
ATOM     12  O   UNL     1      10.737  11.633   2.398  0.00  0.00    +0.000 OA
ATOM     13  H   UNL     1      10.165  12.135   3.003  0.00  0.00    +0.000 HD
ENDBRANCH  10  12
ENDBRANCH   9  10
ENDBRANCH   1   9
BRANCH   1  14
ATOM     14  C   UNL     1      12.219   7.002   3.280  0.00  0.00    +0.000 C 
BRANCH  14  15
ATOM     15  C   UNL     1      13.460   7.277   2.398  0.00  0.00    +0.000 C 
ATOM     16  C   UNL     1      14.667   7.759   3.194  0.00  0.00    +0.000 C 
BRANCH  15  17
ATOM     17  O   UNL     1      13.851   6.118   1.662  0.00  0.00    +0.000 OA
ATOM     18  H   UNL     1      13.031   5.592   1.565  0.00  0.00    +0.000 HD
ENDBRANCH  15  17
ENDBRANCH  14  15
ENDBRANCH   1  14
TORSDOF 7
ENDMDL
MODEL 8
REMARK VINA RESULT:    -4.975      2.808      4.586
REMARK INTER + INTRA:          -7.163
REMARK INTER:                  -6.668
REMARK INTRA:                  -0.495
REMARK UNBOUND:                -0.443
REMARK  Name = 
REMARK  10 active torsions:
REMARK  status: ('A' for Active; 'I' for Inactive)
REMARK    1  A    between atoms: C_1  and  C_2
REMARK    2  A    between atoms: C_5  and  N_8
REMARK    3  A    between atoms: N_8  and  C_9
REMARK    4  A    between atoms: N_8  and  C_13
REMARK    5  A    between atoms: C_9  and  C_10
REMARK    6  A    between atoms: C_10  and  C_11
REMARK    7  A    between atoms: C_10  and  O_12
REMARK    8  A    between atoms: C_13  and  C_14
REMARK    9  A    between atoms: C_14  and  C_15
REMARK   10  A    between atoms: C_14  and  O_16
REMARK                            x       y       z     vdW  Elec       q    Type
REMARK                         _______ _______ _______ _____ _____    ______ ____
ROOT
ATOM      1  N   UNL     1      11.120   8.679   4.495  0.00  0.00    +0.000 N 
ENDROOT
BRANCH   1   6
ATOM      2  C   UNL     1      12.671  14.054   5.920  0.00  0.00    +0.000 C 
ATOM      3  C   UNL     1      12.293  12.653   5.549  0.00  0.00    +0.000 A 
ATOM      4  C   UNL     1      12.113  12.290   4.219  0.00  0.00    +0.000 A 
ATOM      5  C   UNL     1      11.729  10.982   3.879  0.00  0.00    +0.000 A 
ATOM      6  C   UNL     1      11.484   9.987   4.842  0.00  0.00    +0.000 A 
ATOM      7  C   UNL     1      11.678  10.388   6.176  0.00  0.00    +0.000 A 
ATOM      8  C   UNL     1      12.064  11.692   6.529  0.00  0.00    +0.000 A 
ENDBRANCH   1   6
BRANCH   1   9
ATOM      9  C   UNL     1       9.713   8.235   4.642  0.00  0.00    +0.000 C 
BRANCH   9  10
ATOM     10  C   UNL     1       9.546   7.111   5.693  0.00  0.00    +0.000 C 
ATOM     11  C   UNL     1       9.438   7.690   7.099  0.00  0.00    +0.000 C 
BRANCH  10  12
ATOM     12  O   UNL     1       8.363   6.340   5.438  0.00  0.00    +0.000 OA
ATOM     13  H   UNL     1       8.552   5.415   5.667  0.00  0.00    +0.000 HD
ENDBRANCH  10  12
ENDBRANCH   9  10
ENDBRANCH   1   9
BRANCH   1  14
ATOM     14  C   UNL     1      12.122   7.583   4.473  0.00  0.00    +0.000 C 
BRANCH  14  15
ATOM     15  C   UNL     1      13.157   7.760   3.336  0.00  0.00    +0.000 C 
ATOM     16  C   UNL     1      14.111   6.578   3.205  0.00  0.00    +0.000 C 
BRANCH  15  17
ATOM     17  O   UNL     1      12.524   7.958   2.073  0.00  0.00    +0.000 OA
ATOM     18  H   UNL     1      11.993   7.150   1.926  0.00  0.00    +0.000 HD
ENDBRANCH  15  17
ENDBRANCH  14  15
ENDBRANCH   1  14
TORSDOF 7
ENDMDL
