MODEL 1
REMARK VINA RESULT:    -4.961      0.000      0.000
REMARK INTER + INTRA:          -5.435
REMARK INTER:                  -5.396
REMARK INTRA:                  -0.039
REMARK UNBOUND:                -0.039
REMARK  Name = 
REMARK  3 active torsions:
REMARK  status: ('A' for Active; 'I' for Inactive)
REMARK    1  A    between atoms: C_1  and  O_2
REMARK    2  A    between atoms: O_2  and  C_3
REMARK    3  A    between atoms: C_8  and  O_9
REMARK                            x       y       z     vdW  Elec       q    Type
REMARK                         _______ _______ _______ _____ _____    ______ ____
ROOT
ATOM      1  C   UNL     1      12.597   0.958   6.257  0.00  0.00    +0.000 A 
ATOM      2  C   UNL     1      12.612   0.872   7.649  0.00  0.00    +0.000 A 
ATOM      3  C   UNL     1      11.462   0.464   8.337  0.00  0.00    +0.000 A 
ATOM      4  C   UNL     1      10.296   0.142   7.639  0.00  0.00    +0.000 A 
ATOM      5  C   UNL     1      10.274   0.226   6.249  0.00  0.00    +0.000 A 
ATOM      6  C   UNL     1      11.418   0.632   5.575  0.00  0.00    +0.000 A 
ENDROOT
BRANCH   1   8
ATOM      7  C   UNL     1      13.936   2.733   5.419  0.00  0.00    +0.000 C 
ATOM      8  O   UNL     1      13.643   1.342   5.457  0.00  0.00    +0.000 OA
ENDBRANCH   1   8
BRANCH   6   9
ATOM      9  O   UNL     1      11.371   0.707   4.208  0.00  0.00    +0.000 OA
ATOM     10  H   UNL     1      11.712  -0.155   3.901  0.00  0.00    +0.000 HD
ENDBRANCH   6   9
TORSDOF 2
ENDMDL
MODEL 2
REMARK VINA RESULT:    -4.762      2.134      3.372
REMARK INTER + INTRA:          -5.219
REMARK INTER:                  -5.168
REMARK INTRA:                  -0.051
REMARK UNBOUND:                -0.039
REMARK  Name = 
REMARK  3 active torsions:
REMARK  status: ('A' for Active; 'I' for Inactive)
REMARK    1  A    between atoms: C_1  and  O_2
REMARK    2  A    between atoms: O_2  and  C_3
REMARK    3  A    between atoms: C_8  and  O_9
REMARK                            x       y       z     vdW  Elec       q    Type
REMARK                         _______ _______ _______ _____ _____    ______ ____
ROOT
ATOM      1  C   UNL     1      11.056   0.427   7.729  0.00  0.00    +0.000 A 
ATOM      2  C   UNL     1      12.437   0.613   7.771  0.00  0.00    +0.000 A 
ATOM      3  C   UNL     1      13.145   0.863   6.588  0.00  0.00    +0.000 A 
ATOM      4  C   UNL     1      12.478   0.926   5.364  0.00  0.00    +0.000 A 
ATOM      5  C   UNL     1      11.098   0.742   5.314  0.00  0.00    +0.000 A 
ATOM      6  C   UNL     1      10.404   0.494   6.492  0.00  0.00    +0.000 A 
ENDROOT
BRANCH   1   8
ATOM      7  C   UNL     1      10.556  -0.968   9.587  0.00  0.00    +0.000 C 
ATOM      8  O   UNL     1      10.239   0.175   8.802  0.00  0.00    +0.000 OA
ENDBRANCH   1   8
BRANCH   6   9
ATOM      9  O   UNL     1       9.048   0.316   6.418  0.00  0.00    +0.000 OA
ATOM     10  H   UNL     1       8.801   0.654   5.536  0.00  0.00    +0.000 HD
ENDBRANCH   6   9
TORSDOF 2
ENDMDL
MODEL 3
REMARK VINA RESULT:    -4.693      1.746      2.931
REMARK INTER + INTRA:          -5.143
REMARK INTER:                  -5.105
REMARK INTRA:                  -0.038
REMARK UNBOUND:                -0.039
REMARK  Name = 
REMARK  3 active torsions:
REMARK  status: ('A' for Active; 'I' for Inactive)
REMARK    1  A    between atoms: C_1  and  O_2
REMARK    2  A    between atoms: O_2  and  C_3
REMARK    3  A    between atoms: C_8  and  O_9
REMARK                            x       y       z     vdW  Elec       q    Type
REMARK                         _______ _______ _______ _____ _____    ______ ____
ROOT
ATOM      1  C   UNL     1      11.337   1.432   6.214  0.00  0.00    +0.000 A 
ATOM      2  C   UNL     1      11.531   0.502   7.235  0.00  0.00    +0.000 A 
ATOM      3  C   UNL     1      12.171   0.888   8.420  0.00  0.00    +0.000 A 
ATOM      4  C   UNL     1      12.618   2.200   8.588  0.00  0.00    +0.000 A 
ATOM      5  C   UNL     1      12.427   3.134   7.573  0.00  0.00    +0.000 A 
ATOM      6  C   UNL     1      11.792   2.743   6.401  0.00  0.00    +0.000 A 
ENDROOT
BRANCH   1   8
ATOM      7  C   UNL     1       9.939   0.017   4.914  0.00  0.00    +0.000 C 
ATOM      8  O   UNL     1      10.730   1.196   5.007  0.00  0.00    +0.000 OA
ENDBRANCH   1   8
BRANCH   6   9
ATOM      9  O   UNL     1      11.616   3.679   5.418  0.00  0.00    +0.000 OA
ATOM     10  H   UNL     1      11.594   4.534   5.889  0.00  0.00    +0.000 HD
ENDBRANCH   6   9
TORSDOF 2
ENDMDL
MODEL 4
REMARK VINA RESULT:    -4.637      1.397      2.217
REMARK INTER + INTRA:          -5.082
REMARK INTER:                  -5.036
REMARK INTRA:                  -0.047
REMARK UNBOUND:                -0.039
REMARK  Name = 
REMARK  3 active torsions:
REMARK  status: ('A' for Active; 'I' for Inactive)
REMARK    1  A    between atoms: C_1  and  O_2
REMARK    2  A    between atoms: O_2  and  C_3
REMARK    3  A    between atoms: C_8  and  O_9
REMARK                            x       y       z     vdW  Elec       q    Type
REMARK                         _______ _______ _______ _____ _____    ______ ____
ROOT
ATOM      1  C   UNL     1      11.714   1.001   6.859  0.00  0.00    +0.000 A 
ATOM      2  C   UNL     1      10.554   0.394   7.338  0.00  0.00    +0.000 A 
ATOM      3  C   UNL     1       9.592  -0.082   6.438  0.00  0.00    +0.000 A 
ATOM      4  C   UNL     1       9.784   0.047   5.061  0.00  0.00    +0.000 A 
ATOM      5  C   UNL     1      10.941   0.652   4.576  0.00  0.00    +0.000 A 
ATOM      6  C   UNL     1      11.890   1.121   5.475  0.00  0.00    +0.000 A 
ENDROOT
BRANCH   1   8
ATOM      7  C   UNL     1      12.470   2.729   8.305  0.00  0.00    +0.000 C 
ATOM      8  O   UNL     1      12.736   1.511   7.620  0.00  0.00    +0.000 OA
ENDBRANCH   1   8
BRANCH   6   9
ATOM      9  O   UNL     1      13.019   1.712   4.974  0.00  0.00    +0.000 OA
ATOM     10  H   UNL     1      12.721   2.174   4.167  0.00  0.00    +0.000 HD
ENDBRANCH   6   9
TORSDOF 2
ENDMDL
MODEL 5
REMARK VINA RESULT:    -4.591     11.063     11.820
REMARK INTER + INTRA:          -5.033
REMARK INTER:                  -4.981
REMARK INTRA:                  -0.052
REMARK UNBOUND:                -0.039
REMARK  Name = 
REMARK  3 active torsions:
REMARK  status: ('A' for Active; 'I' for Inactive)
REMARK    1  A    between atoms: C_1  and  O_2
REMARK    2  A    between atoms: O_2  and  C_3
REMARK    3  A    between atoms: C_8  and  O_9
REMARK                            x       y       z     vdW  Elec       q    Type
REMARK                         _______ _______ _______ _____ _____    ______ ____
ROOT
ATOM      1  C   UNL     1       5.880  -8.153   8.346  0.00  0.00    +0.000 A 
ATOM      2  C   UNL     1       4.561  -7.726   8.196  0.00  0.00    +0.000 A 
ATOM      3  C   UNL     1       3.733  -8.335   7.245  0.00  0.00    +0.000 A 
ATOM      4  C   UNL     1       4.217  -9.370   6.443  0.00  0.00    +0.000 A 
ATOM      5  C   UNL     1       5.533  -9.803   6.588  0.00  0.00    +0.000 A 
ATOM      6  C   UNL     1       6.348  -9.193   7.533  0.00  0.00    +0.000 A 
ENDROOT
BRANCH   1   8
ATOM      7  C   UNL     1       6.566  -7.916  10.609  0.00  0.00    +0.000 C 
ATOM      8  O   UNL     1       6.800  -7.651   9.231  0.00  0.00    +0.000 OA
ENDBRANCH   1   8
BRANCH   6   9
ATOM      9  O   UNL     1       7.638  -9.636   7.656  0.00  0.00    +0.000 OA
ATOM     10  H   UNL     1       8.140  -9.125   6.993  0.00  0.00    +0.000 HD
ENDBRANCH   6   9
TORSDOF 2
ENDMDL
MODEL 6
REMARK VINA RESULT:    -4.577     12.956     13.930
REMARK INTER + INTRA:          -5.017
REMARK INTER:                  -4.979
REMARK INTRA:                  -0.038
REMARK UNBOUND:                -0.039
REMARK  Name = 
REMARK  3 active torsions:
REMARK  status: ('A' for Active; 'I' for Inactive)
REMARK    1  A    between atoms: C_1  and  O_2
REMARK    2  A    between atoms: O_2  and  C_3
REMARK    3  A    between atoms: C_8  and  O_9
REMARK                            x       y       z     vdW  Elec       q    Type
REMARK                         _______ _______ _______ _____ _____    ______ ____
ROOT
ATOM      1  C   UNL     1       3.867  -9.828   8.030  0.00  0.00    +0.000 A 
ATOM      2  C   UNL     1       3.968 -11.188   8.320  0.00  0.00    +0.000 A 
ATOM      3  C   UNL     1       3.865 -12.132   7.291  0.00  0.00    +0.000 A 
ATOM      4  C   UNL     1       3.660 -11.722   5.972  0.00  0.00    +0.000 A 
ATOM      5  C   UNL     1       3.558 -10.365   5.675  0.00  0.00    +0.000 A 
ATOM      6  C   UNL     1       3.661  -9.435   6.702  0.00  0.00    +0.000 A 
ENDROOT
BRANCH   1   8
ATOM      7  C   UNL     1       4.499  -9.112  10.206  0.00  0.00    +0.000 C 
ATOM      8  O   UNL     1       3.947  -8.798   8.933  0.00  0.00    +0.000 OA
ENDBRANCH   1   8
BRANCH   6   9
ATOM      9  O   UNL     1       3.558  -8.107   6.385  0.00  0.00    +0.000 OA
ATOM     10  H   UNL     1       4.352  -7.916   5.851  0.00  0.00    +0.000 HD
ENDBRANCH   6   9
TORSDOF 2
ENDMDL
MODEL 7
REMARK VINA RESULT:    -4.544      2.073      2.789
REMARK INTER + INTRA:          -4.981
REMARK INTER:                  -4.945
REMARK INTRA:                  -0.036
REMARK UNBOUND:                -0.039
REMARK  Name = 
REMARK  3 active torsions:
REMARK  status: ('A' for Active; 'I' for Inactive)
REMARK    1  A    between atoms: C_1  and  O_2
REMARK    2  A    between atoms: O_2  and  C_3
REMARK    3  A    between atoms: C_8  and  O_9
REMARK                            x       y       z     vdW  Elec       q    Type
REMARK                         _______ _______ _______ _____ _____    ______ ____
ROOT
ATOM      1  C   UNL     1      11.630   1.063   6.863  0.00  0.00    +0.000 A 
ATOM      2  C   UNL     1      12.110   0.967   5.558  0.00  0.00    +0.000 A 
ATOM      3  C   UNL     1      11.260   0.537   4.530  0.00  0.00    +0.000 A 
ATOM      4  C   UNL     1       9.933   0.202   4.803  0.00  0.00    +0.000 A 
ATOM      5  C   UNL     1       9.446   0.295   6.105  0.00  0.00    +0.000 A 
ATOM      6  C   UNL     1      10.296   0.722   7.118  0.00  0.00    +0.000 A 
ENDROOT
BRANCH   1   8
ATOM      7  C   UNL     1      12.571   2.864   8.095  0.00  0.00    +0.000 C 
ATOM      8  O   UNL     1      12.345   1.466   7.963  0.00  0.00    +0.000 OA
ENDBRANCH   1   8
BRANCH   6   9
ATOM      9  O   UNL     1       9.794   0.806   8.389  0.00  0.00    +0.000 OA
ATOM     10  H   UNL     1      10.581   0.812   8.967  0.00  0.00    +0.000 HD
ENDBRANCH   6   9
TORSDOF 2
ENDMDL
MODEL 8
REMARK VINA RESULT:    -4.454      1.872      3.104
REMARK INTER + INTRA:          -4.883
REMARK INTER:                  -4.837
REMARK INTRA:                  -0.046
REMARK UNBOUND:                -0.039
REMARK  Name = 
REMARK  3 active torsions:
REMARK  status: ('A' for Active; 'I' for Inactive)
REMARK    1  A    between atoms: C_1  and  O_2
REMARK    2  A    between atoms: O_2  and  C_3
REMARK    3  A    between atoms: C_8  and  O_9
REMARK                            x       y       z     vdW  Elec       q    Type
REMARK                         _______ _______ _______ _____ _____    ______ ____
ROOT
ATOM      1  C   UNL     1      11.330   0.911   6.001  0.00  0.00    +0.000 A 
ATOM      2  C   UNL     1      12.482   1.621   5.666  0.00  0.00    +0.000 A 
ATOM      3  C   UNL     1      13.041   2.520   6.582  0.00  0.00    +0.000 A 
ATOM      4  C   UNL     1      12.452   2.713   7.834  0.00  0.00    +0.000 A 
ATOM      5  C   UNL     1      11.302   2.007   8.176  0.00  0.00    +0.000 A 
ATOM      6  C   UNL     1      10.754   1.118   7.260  0.00  0.00    +0.000 A 
ENDROOT
BRANCH   1   8
ATOM      7  C   UNL     1       9.933   0.535   4.115  0.00  0.00    +0.000 C 
ATOM      8  O   UNL     1      10.677   0.004   5.206  0.00  0.00    +0.000 OA
ENDBRANCH   1   8
BRANCH   6   9
ATOM      9  O   UNL     1       9.622   0.435   7.619  0.00  0.00    +0.000 OA
ATOM     10  H   UNL     1       9.463   0.690   8.548  0.00  0.00    +0.000 HD
ENDBRANCH   6   9
TORSDOF 2
ENDMDL
MODEL 9
REMARK VINA RESULT:    -4.408     12.058     13.335
REMARK INTER + INTRA:          -4.834
REMARK INTER:                  -4.785
REMARK INTRA:                  -0.049
REMARK UNBOUND:                -0.039
REMARK  Name = 
REMARK  3 active torsions:
REMARK  status: ('A' for Active; 'I' for Inactive)
REMARK    1  A    between atoms: C_1  and  O_2
REMARK    2  A    between atoms: O_2  and  C_3
REMARK    3  A    between atoms: C_8  and  O_9
REMARK                            x       y       z     vdW  Elec       q    Type
REMARK                         _______ _______ _______ _____ _____    ______ ____
ROOT
ATOM      1  C   UNL     1       4.800  -9.489   7.959  0.00  0.00    +0.000 A 
ATOM      2  C   UNL     1       4.036 -10.006   9.004  0.00  0.00    +0.000 A 
ATOM      3  C   UNL     1       3.642 -11.350   8.985  0.00  0.00    +0.000 A 
ATOM      4  C   UNL     1       4.008 -12.179   7.923  0.00  0.00    +0.000 A 
ATOM      5  C   UNL     1       4.772 -11.670   6.875  0.00  0.00    +0.000 A 
ATOM      6  C   UNL     1       5.158 -10.336   6.903  0.00  0.00    +0.000 A 
ENDROOT
BRANCH   1   8
ATOM      7  C   UNL     1       4.279  -7.207   7.549  0.00  0.00    +0.000 C 
ATOM      8  O   UNL     1       5.254  -8.199   7.847  0.00  0.00    +0.000 OA
ENDBRANCH   1   8
BRANCH   6   9
ATOM      9  O   UNL     1       5.908  -9.858   5.862  0.00  0.00    +0.000 OA
ATOM     10  H   UNL     1       6.771  -9.634   6.259  0.00  0.00    +0.000 HD
ENDBRANCH   6   9
TORSDOF 2
ENDMDL
