MODEL 1
REMARK VINA RESULT:    -5.271      0.000      0.000
REMARK INTER + INTRA:          -5.772
REMARK INTER:                  -5.734
REMARK INTRA:                  -0.038
REMARK UNBOUND:                -0.038
REMARK  Name = 
REMARK  3 active torsions:
REMARK  status: ('A' for Active; 'I' for Inactive)
REMARK    1  A    between atoms: C_1  and  O_2
REMARK    2  A    between atoms: O_2  and  C_3
REMARK    3  A    between atoms: C_8  and  O_9
REMARK                            x       y       z     vdW  Elec       q    Type
REMARK                         _______ _______ _______ _____ _____    ______ ____
ROOT
ATOM      1  C   UNL     1       9.820   9.508   3.174  0.00  0.00    +0.000 A 
ATOM      2  C   UNL     1       9.648  10.280   4.322  0.00  0.00    +0.000 A 
ATOM      3  C   UNL     1       8.588  10.006   5.196  0.00  0.00    +0.000 A 
ATOM      4  C   UNL     1       7.699   8.963   4.926  0.00  0.00    +0.000 A 
ATOM      5  C   UNL     1       7.866   8.188   3.781  0.00  0.00    +0.000 A 
ATOM      6  C   UNL     1       8.919   8.467   2.920  0.00  0.00    +0.000 A 
ENDROOT
BRANCH   1   8
ATOM      7  C   UNL     1      11.583  10.852   2.318  0.00  0.00    +0.000 C 
ATOM      8  O   UNL     1      10.807   9.663   2.234  0.00  0.00    +0.000 OA
ENDBRANCH   1   8
BRANCH   6   9
ATOM      9  O   UNL     1       9.062   7.691   1.801  0.00  0.00    +0.000 OA
ATOM     10  H   UNL     1       8.239   7.830   1.295  0.00  0.00    +0.000 HD
ENDBRANCH   6   9
TORSDOF 2
ENDMDL
MODEL 2
REMARK VINA RESULT:    -5.149      1.368      2.429
REMARK INTER + INTRA:          -5.638
REMARK INTER:                  -5.601
REMARK INTRA:                  -0.038
REMARK UNBOUND:                -0.038
REMARK  Name = 
REMARK  3 active torsions:
REMARK  status: ('A' for Active; 'I' for Inactive)
REMARK    1  A    between atoms: C_1  and  O_2
REMARK    2  A    between atoms: O_2  and  C_3
REMARK    3  A    between atoms: C_8  and  O_9
REMARK                            x       y       z     vdW  Elec       q    Type
REMARK                         _______ _______ _______ _____ _____    ______ ____
ROOT
ATOM      1  C   UNL     1       9.357   9.757   4.222  0.00  0.00    +0.000 A 
ATOM      2  C   UNL     1       8.165   9.293   4.776  0.00  0.00    +0.000 A 
ATOM      3  C   UNL     1       7.470   8.244   4.161  0.00  0.00    +0.000 A 
ATOM      4  C   UNL     1       7.961   7.658   2.993  0.00  0.00    +0.000 A 
ATOM      5  C   UNL     1       9.151   8.116   2.433  0.00  0.00    +0.000 A 
ATOM      6  C   UNL     1       9.835   9.157   3.050  0.00  0.00    +0.000 A 
ENDROOT
BRANCH   1   8
ATOM      7  C   UNL     1       9.789  11.278   5.996  0.00  0.00    +0.000 C 
ATOM      8  O   UNL     1      10.139  10.771   4.714  0.00  0.00    +0.000 OA
ENDBRANCH   1   8
BRANCH   6   9
ATOM      9  O   UNL     1      11.003   9.590   2.481  0.00  0.00    +0.000 OA
ATOM     10  H   UNL     1      10.991   9.221   1.578  0.00  0.00    +0.000 HD
ENDBRANCH   6   9
TORSDOF 2
ENDMDL
MODEL 3
REMARK VINA RESULT:    -5.083      1.318      2.812
REMARK INTER + INTRA:          -5.567
REMARK INTER:                  -5.529
REMARK INTRA:                  -0.038
REMARK UNBOUND:                -0.038
REMARK  Name = 
REMARK  3 active torsions:
REMARK  status: ('A' for Active; 'I' for Inactive)
REMARK    1  A    between atoms: C_1  and  O_2
REMARK    2  A    between atoms: O_2  and  C_3
REMARK    3  A    between atoms: C_8  and  O_9
REMARK                            x       y       z     vdW  Elec       q    Type
REMARK                         _______ _______ _______ _____ _____    ______ ____
ROOT
ATOM      1  C   UNL     1       8.990   9.275   3.754  0.00  0.00    +0.000 A 
ATOM      2  C   UNL     1       7.788   9.275   4.459  0.00  0.00    +0.000 A 
ATOM      3  C   UNL     1       7.632  10.103   5.578  0.00  0.00    +0.000 A 
ATOM      4  C   UNL     1       8.676  10.931   5.996  0.00  0.00    +0.000 A 
ATOM      5  C   UNL     1       9.880  10.937   5.296  0.00  0.00    +0.000 A 
ATOM      6  C   UNL     1      10.025  10.113   4.188  0.00  0.00    +0.000 A 
ENDROOT
BRANCH   1   8
ATOM      7  C   UNL     1       8.356   7.490   2.320  0.00  0.00    +0.000 C 
ATOM      8  O   UNL     1       9.281   8.519   2.647  0.00  0.00    +0.000 OA
ENDBRANCH   1   8
BRANCH   6   9
ATOM      9  O   UNL     1      11.219  10.136   3.516  0.00  0.00    +0.000 OA
ATOM     10  H   UNL     1      11.212   9.327   2.970  0.00  0.00    +0.000 HD
ENDBRANCH   6   9
TORSDOF 2
ENDMDL
MODEL 4
REMARK VINA RESULT:    -4.933      2.122      3.244
REMARK INTER + INTRA:          -5.403
REMARK INTER:                  -5.370
REMARK INTRA:                  -0.034
REMARK UNBOUND:                -0.038
REMARK  Name = 
REMARK  3 active torsions:
REMARK  status: ('A' for Active; 'I' for Inactive)
REMARK    1  A    between atoms: C_1  and  O_2
REMARK    2  A    between atoms: O_2  and  C_3
REMARK    3  A    between atoms: C_8  and  O_9
REMARK                            x       y       z     vdW  Elec       q    Type
REMARK                         _______ _______ _______ _____ _____    ______ ____
ROOT
ATOM      1  C   UNL     1       7.819   9.586   4.435  0.00  0.00    +0.000 A 
ATOM      2  C   UNL     1       8.070   9.790   5.792  0.00  0.00    +0.000 A 
ATOM      3  C   UNL     1       8.644  10.992   6.224  0.00  0.00    +0.000 A 
ATOM      4  C   UNL     1       8.970  11.992   5.306  0.00  0.00    +0.000 A 
ATOM      5  C   UNL     1       8.723  11.795   3.949  0.00  0.00    +0.000 A 
ATOM      6  C   UNL     1       8.153  10.600   3.529  0.00  0.00    +0.000 A 
ENDROOT
BRANCH   1   8
ATOM      7  C   UNL     1       8.122   7.337   3.730  0.00  0.00    +0.000 C 
ATOM      8  O   UNL     1       7.266   8.464   3.872  0.00  0.00    +0.000 OA
ENDBRANCH   1   8
BRANCH   6   9
ATOM      9  O   UNL     1       7.920  10.430   2.190  0.00  0.00    +0.000 OA
ATOM     10  H   UNL     1       7.299   9.679   2.140  0.00  0.00    +0.000 HD
ENDBRANCH   6   9
TORSDOF 2
ENDMDL
MODEL 5
REMARK VINA RESULT:    -4.920      2.101      3.296
REMARK INTER + INTRA:          -5.389
REMARK INTER:                  -5.337
REMARK INTRA:                  -0.052
REMARK UNBOUND:                -0.038
REMARK  Name = 
REMARK  3 active torsions:
REMARK  status: ('A' for Active; 'I' for Inactive)
REMARK    1  A    between atoms: C_1  and  O_2
REMARK    2  A    between atoms: O_2  and  C_3
REMARK    3  A    between atoms: C_8  and  O_9
REMARK                            x       y       z     vdW  Elec       q    Type
REMARK                         _______ _______ _______ _____ _____    ______ ____
ROOT
ATOM      1  C   UNL     1       8.470   9.850   4.812  0.00  0.00    +0.000 A 
ATOM      2  C   UNL     1       9.681  10.536   4.729  0.00  0.00    +0.000 A 
ATOM      3  C   UNL     1      10.542  10.308   3.648  0.00  0.00    +0.000 A 
ATOM      4  C   UNL     1      10.197   9.396   2.649  0.00  0.00    +0.000 A 
ATOM      5  C   UNL     1       8.989   8.707   2.724  0.00  0.00    +0.000 A 
ATOM      6  C   UNL     1       8.142   8.939   3.801  0.00  0.00    +0.000 A 
ENDROOT
BRANCH   1   8
ATOM      7  C   UNL     1       7.903   9.470   7.088  0.00  0.00    +0.000 C 
ATOM      8  O   UNL     1       7.536   9.972   5.809  0.00  0.00    +0.000 OA
ENDBRANCH   1   8
BRANCH   6   9
ATOM      9  O   UNL     1       6.959   8.250   3.853  0.00  0.00    +0.000 OA
ATOM     10  H   UNL     1       6.273   8.921   3.675  0.00  0.00    +0.000 HD
ENDBRANCH   6   9
TORSDOF 2
ENDMDL
MODEL 6
REMARK VINA RESULT:    -4.911      2.197      2.945
REMARK INTER + INTRA:          -5.379
REMARK INTER:                  -5.334
REMARK INTRA:                  -0.045
REMARK UNBOUND:                -0.038
REMARK  Name = 
REMARK  3 active torsions:
REMARK  status: ('A' for Active; 'I' for Inactive)
REMARK    1  A    between atoms: C_1  and  O_2
REMARK    2  A    between atoms: O_2  and  C_3
REMARK    3  A    between atoms: C_8  and  O_9
REMARK                            x       y       z     vdW  Elec       q    Type
REMARK                         _______ _______ _______ _____ _____    ______ ____
ROOT
ATOM      1  C   UNL     1       9.111   9.752   4.470  0.00  0.00    +0.000 A 
ATOM      2  C   UNL     1       9.755   9.611   3.242  0.00  0.00    +0.000 A 
ATOM      3  C   UNL     1       9.425   8.544   2.397  0.00  0.00    +0.000 A 
ATOM      4  C   UNL     1       8.453   7.616   2.776  0.00  0.00    +0.000 A 
ATOM      5  C   UNL     1       7.805   7.750   4.002  0.00  0.00    +0.000 A 
ATOM      6  C   UNL     1       8.139   8.812   4.833  0.00  0.00    +0.000 A 
ENDROOT
BRANCH   1   8
ATOM      7  C   UNL     1       8.820  12.031   5.078  0.00  0.00    +0.000 C 
ATOM      8  O   UNL     1       9.333  10.742   5.394  0.00  0.00    +0.000 OA
ENDBRANCH   1   8
BRANCH   6   9
ATOM      9  O   UNL     1       7.488   8.923   6.033  0.00  0.00    +0.000 OA
ATOM     10  H   UNL     1       7.432   9.884   6.197  0.00  0.00    +0.000 HD
ENDBRANCH   6   9
TORSDOF 2
ENDMDL
MODEL 7
REMARK VINA RESULT:    -4.874      2.108      3.190
REMARK INTER + INTRA:          -5.340
REMARK INTER:                  -5.287
REMARK INTRA:                  -0.053
REMARK UNBOUND:                -0.038
REMARK  Name = 
REMARK  3 active torsions:
REMARK  status: ('A' for Active; 'I' for Inactive)
REMARK    1  A    between atoms: C_1  and  O_2
REMARK    2  A    between atoms: O_2  and  C_3
REMARK    3  A    between atoms: C_8  and  O_9
REMARK                            x       y       z     vdW  Elec       q    Type
REMARK                         _______ _______ _______ _____ _____    ______ ____
ROOT
ATOM      1  C   UNL     1       8.084   9.712   3.700  0.00  0.00    +0.000 A 
ATOM      2  C   UNL     1       8.486  10.840   2.988  0.00  0.00    +0.000 A 
ATOM      3  C   UNL     1       8.820  12.017   3.671  0.00  0.00    +0.000 A 
ATOM      4  C   UNL     1       8.751  12.070   5.064  0.00  0.00    +0.000 A 
ATOM      5  C   UNL     1       8.350  10.946   5.783  0.00  0.00    +0.000 A 
ATOM      6  C   UNL     1       8.021   9.784   5.097  0.00  0.00    +0.000 A 
ENDROOT
BRANCH   1   8
ATOM      7  C   UNL     1       8.762   7.762   2.522  0.00  0.00    +0.000 C 
ATOM      8  O   UNL     1       7.729   8.499   3.166  0.00  0.00    +0.000 OA
ENDBRANCH   1   8
BRANCH   6   9
ATOM      9  O   UNL     1       7.629   8.692   5.826  0.00  0.00    +0.000 OA
ATOM     10  H   UNL     1       8.149   7.951   5.461  0.00  0.00    +0.000 HD
ENDBRANCH   6   9
TORSDOF 2
ENDMDL
MODEL 8
REMARK VINA RESULT:    -4.806      1.487      2.402
REMARK INTER + INTRA:          -5.265
REMARK INTER:                  -5.223
REMARK INTRA:                  -0.042
REMARK UNBOUND:                -0.038
REMARK  Name = 
REMARK  3 active torsions:
REMARK  status: ('A' for Active; 'I' for Inactive)
REMARK    1  A    between atoms: C_1  and  O_2
REMARK    2  A    between atoms: O_2  and  C_3
REMARK    3  A    between atoms: C_8  and  O_9
REMARK                            x       y       z     vdW  Elec       q    Type
REMARK                         _______ _______ _______ _____ _____    ______ ____
ROOT
ATOM      1  C   UNL     1       9.922   9.728   3.639  0.00  0.00    +0.000 A 
ATOM      2  C   UNL     1       9.543   8.755   2.716  0.00  0.00    +0.000 A 
ATOM      3  C   UNL     1       8.343   8.053   2.892  0.00  0.00    +0.000 A 
ATOM      4  C   UNL     1       7.521   8.321   3.988  0.00  0.00    +0.000 A 
ATOM      5  C   UNL     1       7.893   9.292   4.914  0.00  0.00    +0.000 A 
ATOM      6  C   UNL     1       9.085   9.983   4.732  0.00  0.00    +0.000 A 
ENDROOT
BRANCH   1   8
ATOM      7  C   UNL     1      11.531  10.854   2.301  0.00  0.00    +0.000 C 
ATOM      8  O   UNL     1      11.064  10.488   3.594  0.00  0.00    +0.000 OA
ENDBRANCH   1   8
BRANCH   6   9
ATOM      9  O   UNL     1       9.429  10.933   5.656  0.00  0.00    +0.000 OA
ATOM     10  H   UNL     1       9.913  11.611   5.147  0.00  0.00    +0.000 HD
ENDBRANCH   6   9
TORSDOF 2
ENDMDL
MODEL 9
REMARK VINA RESULT:    -4.143     10.823     11.849
REMARK INTER + INTRA:          -4.545
REMARK INTER:                  -4.506
REMARK INTRA:                  -0.039
REMARK UNBOUND:                -0.038
REMARK  Name = 
REMARK  3 active torsions:
REMARK  status: ('A' for Active; 'I' for Inactive)
REMARK    1  A    between atoms: C_1  and  O_2
REMARK    2  A    between atoms: O_2  and  C_3
REMARK    3  A    between atoms: C_8  and  O_9
REMARK                            x       y       z     vdW  Elec       q    Type
REMARK                         _______ _______ _______ _____ _____    ______ ____
ROOT
ATOM      1  C   UNL     1       8.867  -0.475   9.137  0.00  0.00    +0.000 A 
ATOM      2  C   UNL     1       9.929  -1.351   8.918  0.00  0.00    +0.000 A 
ATOM      3  C   UNL     1       9.699  -2.592   8.312  0.00  0.00    +0.000 A 
ATOM      4  C   UNL     1       8.410  -2.962   7.925  0.00  0.00    +0.000 A 
ATOM      5  C   UNL     1       7.343  -2.092   8.140  0.00  0.00    +0.000 A 
ATOM      6  C   UNL     1       7.581  -0.863   8.742  0.00  0.00    +0.000 A 
ENDROOT
BRANCH   1   8
ATOM      7  C   UNL     1      10.225   1.387   9.718  0.00  0.00    +0.000 C 
ATOM      8  O   UNL     1       8.945   0.766   9.718  0.00  0.00    +0.000 OA
ENDBRANCH   1   8
BRANCH   6   9
ATOM      9  O   UNL     1       6.517  -0.025   8.944  0.00  0.00    +0.000 OA
ATOM     10  H   UNL     1       5.878  -0.554   9.459  0.00  0.00    +0.000 HD
ENDBRANCH   6   9
TORSDOF 2
ENDMDL
