MODEL 1
REMARK VINA RESULT:    -3.543      0.000      0.000
REMARK INTER + INTRA:          -3.901
REMARK INTER:                  -3.854
REMARK INTRA:                  -0.047
REMARK UNBOUND:                -0.047
REMARK  Name = 
REMARK  3 active torsions:
REMARK  status: ('A' for Active; 'I' for Inactive)
REMARK    1  A    between atoms: C_1  and  O_2
REMARK    2  A    between atoms: O_2  and  C_3
REMARK    3  A    between atoms: C_8  and  O_9
REMARK                            x       y       z     vdW  Elec       q    Type
REMARK                         _______ _______ _______ _____ _____    ______ ____
ROOT
ATOM      1  C   UNL     1      -3.897  14.783  -1.567  0.00  0.00    +0.000 A 
ATOM      2  C   UNL     1      -4.603  15.973  -1.402  0.00  0.00    +0.000 A 
ATOM      3  C   UNL     1      -4.126  16.953  -0.522  0.00  0.00    +0.000 A 
ATOM      4  C   UNL     1      -2.946  16.748   0.194  0.00  0.00    +0.000 A 
ATOM      5  C   UNL     1      -2.234  15.561   0.034  0.00  0.00    +0.000 A 
ATOM      6  C   UNL     1      -2.715  14.594  -0.840  0.00  0.00    +0.000 A 
ENDROOT
BRANCH   1   8
ATOM      7  C   UNL     1      -4.647  14.082  -3.710  0.00  0.00    +0.000 C 
ATOM      8  O   UNL     1      -4.245  13.741  -2.389  0.00  0.00    +0.000 OA
ENDBRANCH   1   8
BRANCH   6   9
ATOM      9  O   UNL     1      -1.998  13.436  -0.981  0.00  0.00    +0.000 OA
ATOM     10  H   UNL     1      -2.587  12.838  -1.479  0.00  0.00    +0.000 HD
ENDBRANCH   6   9
TORSDOF 2
ENDMDL
MODEL 2
REMARK VINA RESULT:    -3.422      1.077      2.780
REMARK INTER + INTRA:          -3.769
REMARK INTER:                  -3.718
REMARK INTRA:                  -0.051
REMARK UNBOUND:                -0.047
REMARK  Name = 
REMARK  3 active torsions:
REMARK  status: ('A' for Active; 'I' for Inactive)
REMARK    1  A    between atoms: C_1  and  O_2
REMARK    2  A    between atoms: O_2  and  C_3
REMARK    3  A    between atoms: C_8  and  O_9
REMARK                            x       y       z     vdW  Elec       q    Type
REMARK                         _______ _______ _______ _____ _____    ______ ____
ROOT
ATOM      1  C   UNL     1      -2.553  15.056  -0.634  0.00  0.00    +0.000 A 
ATOM      2  C   UNL     1      -2.709  16.241   0.085  0.00  0.00    +0.000 A 
ATOM      3  C   UNL     1      -3.912  16.953   0.006  0.00  0.00    +0.000 A 
ATOM      4  C   UNL     1      -4.961  16.487  -0.790  0.00  0.00    +0.000 A 
ATOM      5  C   UNL     1      -4.812  15.304  -1.510  0.00  0.00    +0.000 A 
ATOM      6  C   UNL     1      -3.616  14.604  -1.426  0.00  0.00    +0.000 A 
ENDROOT
BRANCH   1   8
ATOM      7  C   UNL     1      -1.160  13.528   0.536  0.00  0.00    +0.000 C 
ATOM      8  O   UNL     1      -1.436  14.259  -0.652  0.00  0.00    +0.000 OA
ENDBRANCH   1   8
BRANCH   6   9
ATOM      9  O   UNL     1      -3.494  13.444  -2.144  0.00  0.00    +0.000 OA
ATOM     10  H   UNL     1      -4.103  12.817  -1.709  0.00  0.00    +0.000 HD
ENDBRANCH   6   9
TORSDOF 2
ENDMDL
MODEL 3
REMARK VINA RESULT:    -3.366     17.273     17.898
REMARK INTER + INTRA:          -3.708
REMARK INTER:                  -3.666
REMARK INTRA:                  -0.042
REMARK UNBOUND:                -0.047
REMARK  Name = 
REMARK  3 active torsions:
REMARK  status: ('A' for Active; 'I' for Inactive)
REMARK    1  A    between atoms: C_1  and  O_2
REMARK    2  A    between atoms: O_2  and  C_3
REMARK    3  A    between atoms: C_8  and  O_9
REMARK                            x       y       z     vdW  Elec       q    Type
REMARK                         _______ _______ _______ _____ _____    ______ ____
ROOT
ATOM      1  C   UNL     1      12.492  20.297  -7.743  0.00  0.00    +0.000 A 
ATOM      2  C   UNL     1      12.467  20.707  -6.410  0.00  0.00    +0.000 A 
ATOM      3  C   UNL     1      11.577  21.709  -6.004  0.00  0.00    +0.000 A 
ATOM      4  C   UNL     1      10.713  22.304  -6.924  0.00  0.00    +0.000 A 
ATOM      5  C   UNL     1      10.732  21.900  -8.257  0.00  0.00    +0.000 A 
ATOM      6  C   UNL     1      11.617  20.905  -8.651  0.00  0.00    +0.000 A 
ENDROOT
BRANCH   1   8
ATOM      7  C   UNL     1      13.655  18.249  -7.425  0.00  0.00    +0.000 C 
ATOM      8  O   UNL     1      13.307  19.332  -8.279  0.00  0.00    +0.000 OA
ENDBRANCH   1   8
BRANCH   6   9
ATOM      9  O   UNL     1      11.618  20.525  -9.967  0.00  0.00    +0.000 OA
ATOM     10  H   UNL     1      11.826  19.571  -9.949  0.00  0.00    +0.000 HD
ENDBRANCH   6   9
TORSDOF 2
ENDMDL
MODEL 4
REMARK VINA RESULT:    -3.332      1.770      4.456
REMARK INTER + INTRA:          -3.671
REMARK INTER:                  -3.642
REMARK INTRA:                  -0.029
REMARK UNBOUND:                -0.047
REMARK  Name = 
REMARK  3 active torsions:
REMARK  status: ('A' for Active; 'I' for Inactive)
REMARK    1  A    between atoms: C_1  and  O_2
REMARK    2  A    between atoms: O_2  and  C_3
REMARK    3  A    between atoms: C_8  and  O_9
REMARK                            x       y       z     vdW  Elec       q    Type
REMARK                         _______ _______ _______ _____ _____    ______ ____
ROOT
ATOM      1  C   UNL     1      -4.890  14.043  -2.990  0.00  0.00    +0.000 A 
ATOM      2  C   UNL     1      -6.118  13.394  -2.863  0.00  0.00    +0.000 A 
ATOM      3  C   UNL     1      -6.990  13.326  -3.956  0.00  0.00    +0.000 A 
ATOM      4  C   UNL     1      -6.640  13.905  -5.178  0.00  0.00    +0.000 A 
ATOM      5  C   UNL     1      -5.416  14.554  -5.313  0.00  0.00    +0.000 A 
ATOM      6  C   UNL     1      -4.557  14.618  -4.223  0.00  0.00    +0.000 A 
ENDROOT
BRANCH   1   8
ATOM      7  C   UNL     1      -4.183  15.199  -1.038  0.00  0.00    +0.000 C 
ATOM      8  O   UNL     1      -3.943  14.187  -2.009  0.00  0.00    +0.000 OA
ENDBRANCH   1   8
BRANCH   6   9
ATOM      9  O   UNL     1      -3.359  15.262  -4.381  0.00  0.00    +0.000 OA
ATOM     10  H   UNL     1      -2.771  14.859  -3.714  0.00  0.00    +0.000 HD
ENDBRANCH   6   9
TORSDOF 2
ENDMDL
MODEL 5
REMARK VINA RESULT:    -3.323      3.301      5.345
REMARK INTER + INTRA:          -3.661
REMARK INTER:                  -3.610
REMARK INTRA:                  -0.052
REMARK UNBOUND:                -0.047
REMARK  Name = 
REMARK  3 active torsions:
REMARK  status: ('A' for Active; 'I' for Inactive)
REMARK    1  A    between atoms: C_1  and  O_2
REMARK    2  A    between atoms: O_2  and  C_3
REMARK    3  A    between atoms: C_8  and  O_9
REMARK                            x       y       z     vdW  Elec       q    Type
REMARK                         _______ _______ _______ _____ _____    ______ ____
ROOT
ATOM      1  C   UNL     1      -4.735  14.760  -5.337  0.00  0.00    +0.000 A 
ATOM      2  C   UNL     1      -6.020  14.835  -5.874  0.00  0.00    +0.000 A 
ATOM      3  C   UNL     1      -6.287  15.716  -6.930  0.00  0.00    +0.000 A 
ATOM      4  C   UNL     1      -5.274  16.522  -7.452  0.00  0.00    +0.000 A 
ATOM      5  C   UNL     1      -3.988  16.452  -6.922  0.00  0.00    +0.000 A 
ATOM      6  C   UNL     1      -3.732  15.577  -5.874  0.00  0.00    +0.000 A 
ENDROOT
BRANCH   1   8
ATOM      7  C   UNL     1      -5.003  14.121  -3.064  0.00  0.00    +0.000 C 
ATOM      8  O   UNL     1      -4.333  13.948  -4.307  0.00  0.00    +0.000 OA
ENDBRANCH   1   8
BRANCH   6   9
ATOM      9  O   UNL     1      -2.461  15.526  -5.369  0.00  0.00    +0.000 OA
ATOM     10  H   UNL     1      -2.510  14.883  -4.636  0.00  0.00    +0.000 HD
ENDBRANCH   6   9
TORSDOF 2
ENDMDL
MODEL 6
REMARK VINA RESULT:    -3.300     17.408     17.879
REMARK INTER + INTRA:          -3.637
REMARK INTER:                  -3.599
REMARK INTRA:                  -0.037
REMARK UNBOUND:                -0.047
REMARK  Name = 
REMARK  3 active torsions:
REMARK  status: ('A' for Active; 'I' for Inactive)
REMARK    1  A    between atoms: C_1  and  O_2
REMARK    2  A    between atoms: O_2  and  C_3
REMARK    3  A    between atoms: C_8  and  O_9
REMARK                            x       y       z     vdW  Elec       q    Type
REMARK                         _______ _______ _______ _____ _____    ______ ____
ROOT
ATOM      1  C   UNL     1      11.834  20.780  -8.795  0.00  0.00    +0.000 A 
ATOM      2  C   UNL     1      11.043  21.752  -8.183  0.00  0.00    +0.000 A 
ATOM      3  C   UNL     1      11.053  21.886  -6.789  0.00  0.00    +0.000 A 
ATOM      4  C   UNL     1      11.851  21.052  -6.004  0.00  0.00    +0.000 A 
ATOM      5  C   UNL     1      12.645  20.080  -6.608  0.00  0.00    +0.000 A 
ATOM      6  C   UNL     1      12.628  19.953  -7.991  0.00  0.00    +0.000 A 
ENDROOT
BRANCH   1   8
ATOM      7  C   UNL     1      11.076  21.310 -10.984  0.00  0.00    +0.000 C 
ATOM      8  O   UNL     1      11.923  20.537 -10.142  0.00  0.00    +0.000 OA
ENDBRANCH   1   8
BRANCH   6   9
ATOM      9  O   UNL     1      13.416  18.990  -8.562  0.00  0.00    +0.000 OA
ATOM     10  H   UNL     1      12.868  18.611  -9.275  0.00  0.00    +0.000 HD
ENDBRANCH   6   9
TORSDOF 2
ENDMDL
MODEL 7
REMARK VINA RESULT:    -3.215      2.242      3.609
REMARK INTER + INTRA:          -3.543
REMARK INTER:                  -3.502
REMARK INTRA:                  -0.041
REMARK UNBOUND:                -0.047
REMARK  Name = 
REMARK  3 active torsions:
REMARK  status: ('A' for Active; 'I' for Inactive)
REMARK    1  A    between atoms: C_1  and  O_2
REMARK    2  A    between atoms: O_2  and  C_3
REMARK    3  A    between atoms: C_8  and  O_9
REMARK                            x       y       z     vdW  Elec       q    Type
REMARK                         _______ _______ _______ _____ _____    ______ ____
ROOT
ATOM      1  C   UNL     1      -3.230  15.237   1.372  0.00  0.00    +0.000 A 
ATOM      2  C   UNL     1      -4.415  15.817   0.920  0.00  0.00    +0.000 A 
ATOM      3  C   UNL     1      -4.745  15.765  -0.441  0.00  0.00    +0.000 A 
ATOM      4  C   UNL     1      -3.894  15.136  -1.352  0.00  0.00    +0.000 A 
ATOM      5  C   UNL     1      -2.709  14.554  -0.908  0.00  0.00    +0.000 A 
ATOM      6  C   UNL     1      -2.390  14.611   0.443  0.00  0.00    +0.000 A 
ENDROOT
BRANCH   1   8
ATOM      7  C   UNL     1      -3.778  15.216   3.684  0.00  0.00    +0.000 C 
ATOM      8  O   UNL     1      -2.782  15.213   2.668  0.00  0.00    +0.000 OA
ENDBRANCH   1   8
BRANCH   6   9
ATOM      9  O   UNL     1      -1.219  14.032   0.856  0.00  0.00    +0.000 OA
ATOM     10  H   UNL     1      -0.530  14.693   0.654  0.00  0.00    +0.000 HD
ENDBRANCH   6   9
TORSDOF 2
ENDMDL
MODEL 8
REMARK VINA RESULT:    -3.212      4.561      5.872
REMARK INTER + INTRA:          -3.541
REMARK INTER:                  -3.489
REMARK INTRA:                  -0.052
REMARK UNBOUND:                -0.047
REMARK  Name = 
REMARK  3 active torsions:
REMARK  status: ('A' for Active; 'I' for Inactive)
REMARK    1  A    between atoms: C_1  and  O_2
REMARK    2  A    between atoms: O_2  and  C_3
REMARK    3  A    between atoms: C_8  and  O_9
REMARK                            x       y       z     vdW  Elec       q    Type
REMARK                         _______ _______ _______ _____ _____    ______ ____
ROOT
ATOM      1  C   UNL     1      -4.209  16.271  -6.841  0.00  0.00    +0.000 A 
ATOM      2  C   UNL     1      -5.561  16.137  -7.154  0.00  0.00    +0.000 A 
ATOM      3  C   UNL     1      -6.358  15.232  -6.442  0.00  0.00    +0.000 A 
ATOM      4  C   UNL     1      -5.809  14.460  -5.417  0.00  0.00    +0.000 A 
ATOM      5  C   UNL     1      -4.459  14.588  -5.098  0.00  0.00    +0.000 A 
ATOM      6  C   UNL     1      -3.676  15.488  -5.810  0.00  0.00    +0.000 A 
ENDROOT
BRANCH   1   8
ATOM      7  C   UNL     1      -3.096  16.905  -8.842  0.00  0.00    +0.000 C 
ATOM      8  O   UNL     1      -3.314  17.112  -7.452  0.00  0.00    +0.000 OA
ENDBRANCH   1   8
BRANCH   6   9
ATOM      9  O   UNL     1      -2.352  15.596  -5.478  0.00  0.00    +0.000 OA
ATOM     10  H   UNL     1      -1.894  14.971  -6.071  0.00  0.00    +0.000 HD
ENDBRANCH   6   9
TORSDOF 2
ENDMDL
MODEL 9
REMARK VINA RESULT:    -3.170      1.775      4.655
REMARK INTER + INTRA:          -3.495
REMARK INTER:                  -3.445
REMARK INTRA:                  -0.050
REMARK UNBOUND:                -0.047
REMARK  Name = 
REMARK  3 active torsions:
REMARK  status: ('A' for Active; 'I' for Inactive)
REMARK    1  A    between atoms: C_1  and  O_2
REMARK    2  A    between atoms: O_2  and  C_3
REMARK    3  A    between atoms: C_8  and  O_9
REMARK                            x       y       z     vdW  Elec       q    Type
REMARK                         _______ _______ _______ _____ _____    ______ ____
ROOT
ATOM      1  C   UNL     1      -4.829  14.032  -3.394  0.00  0.00    +0.000 A 
ATOM      2  C   UNL     1      -4.373  14.848  -4.428  0.00  0.00    +0.000 A 
ATOM      3  C   UNL     1      -5.163  15.037  -5.570  0.00  0.00    +0.000 A 
ATOM      4  C   UNL     1      -6.406  14.412  -5.682  0.00  0.00    +0.000 A 
ATOM      5  C   UNL     1      -6.868  13.595  -4.653  0.00  0.00    +0.000 A 
ATOM      6  C   UNL     1      -6.078  13.413  -3.525  0.00  0.00    +0.000 A 
ENDROOT
BRANCH   1   8
ATOM      7  C   UNL     1      -3.721  14.878  -1.469  0.00  0.00    +0.000 C 
ATOM      8  O   UNL     1      -4.165  13.757  -2.225  0.00  0.00    +0.000 OA
ENDBRANCH   1   8
BRANCH   6   9
ATOM      9  O   UNL     1      -6.553  12.605  -2.526  0.00  0.00    +0.000 OA
ATOM     10  H   UNL     1      -6.287  13.050  -1.699  0.00  0.00    +0.000 HD
ENDBRANCH   6   9
TORSDOF 2
ENDMDL
