MODEL 1
REMARK VINA RESULT:    -5.266      0.000      0.000
REMARK INTER + INTRA:          -5.765
REMARK INTER:                  -5.728
REMARK INTRA:                  -0.038
REMARK UNBOUND:                -0.038
REMARK  Name = 
REMARK  3 active torsions:
REMARK  status: ('A' for Active; 'I' for Inactive)
REMARK    1  A    between atoms: C_1  and  O_2
REMARK    2  A    between atoms: O_2  and  C_3
REMARK    3  A    between atoms: C_8  and  O_9
REMARK                            x       y       z     vdW  Elec       q    Type
REMARK                         _______ _______ _______ _____ _____    ______ ____
ROOT
ATOM      1  C   UNL     1       9.817   9.529   3.200  0.00  0.00    +0.000 A 
ATOM      2  C   UNL     1       9.649  10.295   4.353  0.00  0.00    +0.000 A 
ATOM      3  C   UNL     1       8.594  10.018   5.230  0.00  0.00    +0.000 A 
ATOM      4  C   UNL     1       7.703   8.977   4.959  0.00  0.00    +0.000 A 
ATOM      5  C   UNL     1       7.864   8.207   3.809  0.00  0.00    +0.000 A 
ATOM      6  C   UNL     1       8.914   8.490   2.945  0.00  0.00    +0.000 A 
ENDROOT
BRANCH   1   8
ATOM      7  C   UNL     1      11.593  10.864   2.358  0.00  0.00    +0.000 C 
ATOM      8  O   UNL     1      10.800   9.688   2.256  0.00  0.00    +0.000 OA
ENDBRANCH   1   8
BRANCH   6   9
ATOM      9  O   UNL     1       9.051   7.719   1.821  0.00  0.00    +0.000 OA
ATOM     10  H   UNL     1       9.012   8.353   1.079  0.00  0.00    +0.000 HD
ENDBRANCH   6   9
TORSDOF 2
ENDMDL
MODEL 2
REMARK VINA RESULT:    -5.158      1.371      2.411
REMARK INTER + INTRA:          -5.648
REMARK INTER:                  -5.611
REMARK INTRA:                  -0.038
REMARK UNBOUND:                -0.038
REMARK  Name = 
REMARK  3 active torsions:
REMARK  status: ('A' for Active; 'I' for Inactive)
REMARK    1  A    between atoms: C_1  and  O_2
REMARK    2  A    between atoms: O_2  and  C_3
REMARK    3  A    between atoms: C_8  and  O_9
REMARK                            x       y       z     vdW  Elec       q    Type
REMARK                         _______ _______ _______ _____ _____    ______ ____
ROOT
ATOM      1  C   UNL     1       9.372   9.716   4.171  0.00  0.00    +0.000 A 
ATOM      2  C   UNL     1       8.200   9.227   4.747  0.00  0.00    +0.000 A 
ATOM      3  C   UNL     1       7.511   8.169   4.141  0.00  0.00    +0.000 A 
ATOM      4  C   UNL     1       7.988   7.599   2.959  0.00  0.00    +0.000 A 
ATOM      5  C   UNL     1       9.158   8.082   2.378  0.00  0.00    +0.000 A 
ATOM      6  C   UNL     1       9.835   9.131   2.986  0.00  0.00    +0.000 A 
ENDROOT
BRANCH   1   8
ATOM      7  C   UNL     1       9.771  11.281   5.914  0.00  0.00    +0.000 C 
ATOM      8  O   UNL     1      10.145  10.742   4.652  0.00  0.00    +0.000 OA
ENDBRANCH   1   8
BRANCH   6   9
ATOM      9  O   UNL     1      10.983   9.589   2.395  0.00  0.00    +0.000 OA
ATOM     10  H   UNL     1      10.694   9.945   1.534  0.00  0.00    +0.000 HD
ENDBRANCH   6   9
TORSDOF 2
ENDMDL
MODEL 3
REMARK VINA RESULT:    -5.084      1.298      2.793
REMARK INTER + INTRA:          -5.568
REMARK INTER:                  -5.530
REMARK INTRA:                  -0.038
REMARK UNBOUND:                -0.038
REMARK  Name = 
REMARK  3 active torsions:
REMARK  status: ('A' for Active; 'I' for Inactive)
REMARK    1  A    between atoms: C_1  and  O_2
REMARK    2  A    between atoms: O_2  and  C_3
REMARK    3  A    between atoms: C_8  and  O_9
REMARK                            x       y       z     vdW  Elec       q    Type
REMARK                         _______ _______ _______ _____ _____    ______ ____
ROOT
ATOM      1  C   UNL     1       9.000   9.296   3.722  0.00  0.00    +0.000 A 
ATOM      2  C   UNL     1       7.787   9.297   4.409  0.00  0.00    +0.000 A 
ATOM      3  C   UNL     1       7.620  10.117   5.532  0.00  0.00    +0.000 A 
ATOM      4  C   UNL     1       8.662  10.935   5.973  0.00  0.00    +0.000 A 
ATOM      5  C   UNL     1       9.877  10.940   5.292  0.00  0.00    +0.000 A 
ATOM      6  C   UNL     1      10.034  10.123   4.179  0.00  0.00    +0.000 A 
ENDROOT
BRANCH   1   8
ATOM      7  C   UNL     1       8.384   7.518   2.271  0.00  0.00    +0.000 C 
ATOM      8  O   UNL     1       9.304   8.547   2.613  0.00  0.00    +0.000 OA
ENDBRANCH   1   8
BRANCH   6   9
ATOM      9  O   UNL     1      11.237  10.145   3.526  0.00  0.00    +0.000 OA
ATOM     10  H   UNL     1      11.906  10.108   4.236  0.00  0.00    +0.000 HD
ENDBRANCH   6   9
TORSDOF 2
ENDMDL
MODEL 4
REMARK VINA RESULT:    -4.854      2.107      3.208
REMARK INTER + INTRA:          -5.318
REMARK INTER:                  -5.265
REMARK INTRA:                  -0.053
REMARK UNBOUND:                -0.038
REMARK  Name = 
REMARK  3 active torsions:
REMARK  status: ('A' for Active; 'I' for Inactive)
REMARK    1  A    between atoms: C_1  and  O_2
REMARK    2  A    between atoms: O_2  and  C_3
REMARK    3  A    between atoms: C_8  and  O_9
REMARK                            x       y       z     vdW  Elec       q    Type
REMARK                         _______ _______ _______ _____ _____    ______ ____
ROOT
ATOM      1  C   UNL     1       8.057   9.668   3.749  0.00  0.00    +0.000 A 
ATOM      2  C   UNL     1       8.463  10.784   3.019  0.00  0.00    +0.000 A 
ATOM      3  C   UNL     1       8.812  11.966   3.684  0.00  0.00    +0.000 A 
ATOM      4  C   UNL     1       8.756  12.037   5.078  0.00  0.00    +0.000 A 
ATOM      5  C   UNL     1       8.351  10.926   5.814  0.00  0.00    +0.000 A 
ATOM      6  C   UNL     1       8.006   9.758   5.146  0.00  0.00    +0.000 A 
ENDROOT
BRANCH   1   8
ATOM      7  C   UNL     1       8.708   7.699   2.589  0.00  0.00    +0.000 C 
ATOM      8  O   UNL     1       7.687   8.452   3.233  0.00  0.00    +0.000 OA
ENDBRANCH   1   8
BRANCH   6   9
ATOM      9  O   UNL     1       7.612   8.680   5.891  0.00  0.00    +0.000 OA
ATOM     10  H   UNL     1       8.082   8.779   6.741  0.00  0.00    +0.000 HD
ENDBRANCH   6   9
TORSDOF 2
ENDMDL
MODEL 5
REMARK VINA RESULT:    -4.833      2.170      3.350
REMARK INTER + INTRA:          -5.295
REMARK INTER:                  -5.242
REMARK INTRA:                  -0.053
REMARK UNBOUND:                -0.038
REMARK  Name = 
REMARK  3 active torsions:
REMARK  status: ('A' for Active; 'I' for Inactive)
REMARK    1  A    between atoms: C_1  and  O_2
REMARK    2  A    between atoms: O_2  and  C_3
REMARK    3  A    between atoms: C_8  and  O_9
REMARK                            x       y       z     vdW  Elec       q    Type
REMARK                         _______ _______ _______ _____ _____    ______ ____
ROOT
ATOM      1  C   UNL     1       8.407   9.717   5.061  0.00  0.00    +0.000 A 
ATOM      2  C   UNL     1       9.509  10.546   4.859  0.00  0.00    +0.000 A 
ATOM      3  C   UNL     1      10.324  10.364   3.734  0.00  0.00    +0.000 A 
ATOM      4  C   UNL     1      10.041   9.356   2.811  0.00  0.00    +0.000 A 
ATOM      5  C   UNL     1       8.941   8.525   3.005  0.00  0.00    +0.000 A 
ATOM      6  C   UNL     1       8.139   8.712   4.124  0.00  0.00    +0.000 A 
ENDROOT
BRANCH   1   8
ATOM      7  C   UNL     1       8.047   9.448   7.394  0.00  0.00    +0.000 C 
ATOM      8  O   UNL     1       7.527   9.779   6.112  0.00  0.00    +0.000 OA
ENDBRANCH   1   8
BRANCH   6   9
ATOM      9  O   UNL     1       7.063   7.882   4.294  0.00  0.00    +0.000 OA
ATOM     10  H   UNL     1       6.302   8.482   4.412  0.00  0.00    +0.000 HD
ENDBRANCH   6   9
TORSDOF 2
ENDMDL
MODEL 6
REMARK VINA RESULT:    -4.819      2.454      3.204
REMARK INTER + INTRA:          -5.279
REMARK INTER:                  -5.227
REMARK INTRA:                  -0.052
REMARK UNBOUND:                -0.038
REMARK  Name = 
REMARK  3 active torsions:
REMARK  status: ('A' for Active; 'I' for Inactive)
REMARK    1  A    between atoms: C_1  and  O_2
REMARK    2  A    between atoms: O_2  and  C_3
REMARK    3  A    between atoms: C_8  and  O_9
REMARK                            x       y       z     vdW  Elec       q    Type
REMARK                         _______ _______ _______ _____ _____    ______ ____
ROOT
ATOM      1  C   UNL     1       8.959  10.597   4.894  0.00  0.00    +0.000 A 
ATOM      2  C   UNL     1       9.912  10.452   3.887  0.00  0.00    +0.000 A 
ATOM      3  C   UNL     1       9.821   9.384   2.986  0.00  0.00    +0.000 A 
ATOM      4  C   UNL     1       8.781   8.459   3.088  0.00  0.00    +0.000 A 
ATOM      5  C   UNL     1       7.824   8.597   4.092  0.00  0.00    +0.000 A 
ATOM      6  C   UNL     1       7.923   9.659   4.981  0.00  0.00    +0.000 A 
ENDROOT
BRANCH   1   8
ATOM      7  C   UNL     1       9.957  11.568   6.820  0.00  0.00    +0.000 C 
ATOM      8  O   UNL     1       8.925  11.589   5.841  0.00  0.00    +0.000 OA
ENDBRANCH   1   8
BRANCH   6   9
ATOM      9  O   UNL     1       6.971   9.774   5.959  0.00  0.00    +0.000 OA
ATOM     10  H   UNL     1       6.210   9.261   5.626  0.00  0.00    +0.000 HD
ENDBRANCH   6   9
TORSDOF 2
ENDMDL
MODEL 7
REMARK VINA RESULT:    -4.706      1.532      2.382
REMARK INTER + INTRA:          -5.157
REMARK INTER:                  -5.110
REMARK INTRA:                  -0.047
REMARK UNBOUND:                -0.038
REMARK  Name = 
REMARK  3 active torsions:
REMARK  status: ('A' for Active; 'I' for Inactive)
REMARK    1  A    between atoms: C_1  and  O_2
REMARK    2  A    between atoms: O_2  and  C_3
REMARK    3  A    between atoms: C_8  and  O_9
REMARK                            x       y       z     vdW  Elec       q    Type
REMARK                         _______ _______ _______ _____ _____    ______ ____
ROOT
ATOM      1  C   UNL     1       9.407  10.117   3.172  0.00  0.00    +0.000 A 
ATOM      2  C   UNL     1       9.337   8.804   2.708  0.00  0.00    +0.000 A 
ATOM      3  C   UNL     1       8.485   7.886   3.333  0.00  0.00    +0.000 A 
ATOM      4  C   UNL     1       7.702   8.274   4.422  0.00  0.00    +0.000 A 
ATOM      5  C   UNL     1       7.766   9.584   4.891  0.00  0.00    +0.000 A 
ATOM      6  C   UNL     1       8.615  10.488   4.265  0.00  0.00    +0.000 A 
ENDROOT
BRANCH   1   8
ATOM      7  C   UNL     1      11.548  10.781   2.381  0.00  0.00    +0.000 C 
ATOM      8  O   UNL     1      10.194  11.118   2.660  0.00  0.00    +0.000 OA
ENDBRANCH   1   8
BRANCH   6   9
ATOM      9  O   UNL     1       8.661  11.770   4.744  0.00  0.00    +0.000 OA
ATOM     10  H   UNL     1       7.831  11.877   5.248  0.00  0.00    +0.000 HD
ENDBRANCH   6   9
TORSDOF 2
ENDMDL
MODEL 8
REMARK VINA RESULT:    -4.050      2.259      3.212
REMARK INTER + INTRA:          -4.443
REMARK INTER:                  -4.390
REMARK INTRA:                  -0.053
REMARK UNBOUND:                -0.038
REMARK  Name = 
REMARK  3 active torsions:
REMARK  status: ('A' for Active; 'I' for Inactive)
REMARK    1  A    between atoms: C_1  and  O_2
REMARK    2  A    between atoms: O_2  and  C_3
REMARK    3  A    between atoms: C_8  and  O_9
REMARK                            x       y       z     vdW  Elec       q    Type
REMARK                         _______ _______ _______ _____ _____    ______ ____
ROOT
ATOM      1  C   UNL     1       8.605  10.635   3.875  0.00  0.00    +0.000 A 
ATOM      2  C   UNL     1       8.334   9.268   3.898  0.00  0.00    +0.000 A 
ATOM      3  C   UNL     1       8.044   8.632   5.111  0.00  0.00    +0.000 A 
ATOM      4  C   UNL     1       8.025   9.358   6.304  0.00  0.00    +0.000 A 
ATOM      5  C   UNL     1       8.294  10.724   6.289  0.00  0.00    +0.000 A 
ATOM      6  C   UNL     1       8.581  11.347   5.081  0.00  0.00    +0.000 A 
ENDROOT
BRANCH   1   8
ATOM      7  C   UNL     1       7.861  11.551   1.812  0.00  0.00    +0.000 C 
ATOM      8  O   UNL     1       8.904  11.385   2.765  0.00  0.00    +0.000 OA
ENDBRANCH   1   8
BRANCH   6   9
ATOM      9  O   UNL     1       8.843  12.691   5.092  0.00  0.00    +0.000 OA
ATOM     10  H   UNL     1       9.518  12.807   5.787  0.00  0.00    +0.000 HD
ENDBRANCH   6   9
TORSDOF 2
ENDMDL
MODEL 9
REMARK VINA RESULT:    -2.383     10.825     11.854
REMARK INTER + INTRA:          -2.630
REMARK INTER:                  -2.591
REMARK INTRA:                  -0.039
REMARK UNBOUND:                -0.038
REMARK  Name = 
REMARK  3 active torsions:
REMARK  status: ('A' for Active; 'I' for Inactive)
REMARK    1  A    between atoms: C_1  and  O_2
REMARK    2  A    between atoms: O_2  and  C_3
REMARK    3  A    between atoms: C_8  and  O_9
REMARK                            x       y       z     vdW  Elec       q    Type
REMARK                         _______ _______ _______ _____ _____    ______ ____
ROOT
ATOM      1  C   UNL     1       8.778  -0.440   9.161  0.00  0.00    +0.000 A 
ATOM      2  C   UNL     1       9.881  -1.267   8.958  0.00  0.00    +0.000 A 
ATOM      3  C   UNL     1       9.710  -2.530   8.376  0.00  0.00    +0.000 A 
ATOM      4  C   UNL     1       8.440  -2.969   7.997  0.00  0.00    +0.000 A 
ATOM      5  C   UNL     1       7.333  -2.147   8.197  0.00  0.00    +0.000 A 
ATOM      6  C   UNL     1       7.512  -0.897   8.775  0.00  0.00    +0.000 A 
ENDROOT
BRANCH   1   8
ATOM      7  C   UNL     1      10.046   1.494   9.710  0.00  0.00    +0.000 C 
ATOM      8  O   UNL     1       8.796   0.814   9.718  0.00  0.00    +0.000 OA
ENDBRANCH   1   8
BRANCH   6   9
ATOM      9  O   UNL     1       6.409  -0.107   8.962  0.00  0.00    +0.000 OA
ATOM     10  H   UNL     1       6.021  -0.008   8.071  0.00  0.00    +0.000 HD
ENDBRANCH   6   9
TORSDOF 2
ENDMDL
