MODEL 1
REMARK VINA RESULT:    -5.973      0.000      0.000
REMARK INTER + INTRA:          -8.491
REMARK INTER:                  -8.068
REMARK INTRA:                  -0.423
REMARK UNBOUND:                -0.423
REMARK  Name = 
REMARK  10 active torsions:
REMARK  status: ('A' for Active; 'I' for Inactive)
REMARK    1  A    between atoms: C_1  and  C_2
REMARK    2  A    between atoms: C_5  and  N_8
REMARK    3  A    between atoms: N_8  and  C_9
REMARK    4  A    between atoms: N_8  and  C_13
REMARK    5  A    between atoms: C_9  and  C_10
REMARK    6  A    between atoms: C_10  and  C_11
REMARK    7  A    between atoms: C_10  and  O_12
REMARK    8  A    between atoms: C_13  and  C_14
REMARK    9  A    between atoms: C_14  and  C_15
REMARK   10  A    between atoms: C_14  and  O_16
REMARK                            x       y       z     vdW  Elec       q    Type
REMARK                         _______ _______ _______ _____ _____    ______ ____
ROOT
ATOM      1  N   UNL     1       9.566   7.856   6.227  0.00  0.00    +0.000 N 
ENDROOT
BRANCH   1   6
ATOM      2  C   UNL     1      14.502   9.144   3.525  0.00  0.00    +0.000 C 
ATOM      3  C   UNL     1      13.209   8.823   4.209  0.00  0.00    +0.000 A 
ATOM      4  C   UNL     1      12.726   9.625   5.238  0.00  0.00    +0.000 A 
ATOM      5  C   UNL     1      11.528   9.303   5.896  0.00  0.00    +0.000 A 
ATOM      6  C   UNL     1      10.770   8.161   5.580  0.00  0.00    +0.000 A 
ATOM      7  C   UNL     1      11.286   7.375   4.534  0.00  0.00    +0.000 A 
ATOM      8  C   UNL     1      12.482   7.687   3.866  0.00  0.00    +0.000 A 
ENDBRANCH   1   6
BRANCH   1   9
ATOM      9  C   UNL     1       8.542   7.031   5.542  0.00  0.00    +0.000 C 
BRANCH   9  10
ATOM     10  C   UNL     1       7.153   7.113   6.221  0.00  0.00    +0.000 C 
ATOM     11  C   UNL     1       6.057   7.363   5.192  0.00  0.00    +0.000 C 
BRANCH  10  12
ATOM     12  O   UNL     1       6.844   5.894   6.911  0.00  0.00    +0.000 OA
ATOM     13  H   UNL     1       7.681   5.483   7.185  0.00  0.00    +0.000 HD
ENDBRANCH  10  12
ENDBRANCH   9  10
ENDBRANCH   1   9
BRANCH   1  14
ATOM     14  C   UNL     1       9.047   8.708   7.328  0.00  0.00    +0.000 C 
BRANCH  14  15
ATOM     15  C   UNL     1       9.345   8.107   8.722  0.00  0.00    +0.000 C 
ATOM     16  C   UNL     1       8.372   8.575   9.798  0.00  0.00    +0.000 C 
BRANCH  15  17
ATOM     17  O   UNL     1       9.324   6.681   8.697  0.00  0.00    +0.000 OA
ATOM     18  H   UNL     1       8.970   6.418   9.571  0.00  0.00    +0.000 HD
ENDBRANCH  15  17
ENDBRANCH  14  15
ENDBRANCH   1  14
TORSDOF 7
ENDMDL
MODEL 2
REMARK VINA RESULT:    -5.956      0.711      3.085
REMARK INTER + INTRA:          -8.468
REMARK INTER:                  -8.185
REMARK INTRA:                  -0.284
REMARK UNBOUND:                -0.423
REMARK  Name = 
REMARK  10 active torsions:
REMARK  status: ('A' for Active; 'I' for Inactive)
REMARK    1  A    between atoms: C_1  and  C_2
REMARK    2  A    between atoms: C_5  and  N_8
REMARK    3  A    between atoms: N_8  and  C_9
REMARK    4  A    between atoms: N_8  and  C_13
REMARK    5  A    between atoms: C_9  and  C_10
REMARK    6  A    between atoms: C_10  and  C_11
REMARK    7  A    between atoms: C_10  and  O_12
REMARK    8  A    between atoms: C_13  and  C_14
REMARK    9  A    between atoms: C_14  and  C_15
REMARK   10  A    between atoms: C_14  and  O_16
REMARK                            x       y       z     vdW  Elec       q    Type
REMARK                         _______ _______ _______ _____ _____    ______ ____
ROOT
ATOM      1  N   UNL     1       9.337   8.064   6.152  0.00  0.00    +0.000 N 
ENDROOT
BRANCH   1   6
ATOM      2  C   UNL     1      14.395   9.209   3.615  0.00  0.00    +0.000 C 
ATOM      3  C   UNL     1      13.095   8.901   4.292  0.00  0.00    +0.000 A 
ATOM      4  C   UNL     1      12.420   7.712   4.038  0.00  0.00    +0.000 A 
ATOM      5  C   UNL     1      11.187   7.442   4.653  0.00  0.00    +0.000 A 
ATOM      6  C   UNL     1      10.558   8.348   5.527  0.00  0.00    +0.000 A 
ATOM      7  C   UNL     1      11.269   9.539   5.762  0.00  0.00    +0.000 A 
ATOM      8  C   UNL     1      12.504   9.820   5.156  0.00  0.00    +0.000 A 
ENDBRANCH   1   6
BRANCH   1   9
ATOM      9  C   UNL     1       9.103   8.489   7.553  0.00  0.00    +0.000 C 
BRANCH   9  10
ATOM     10  C   UNL     1       9.439   7.381   8.581  0.00  0.00    +0.000 C 
ATOM     11  C   UNL     1      10.934   7.083   8.592  0.00  0.00    +0.000 C 
BRANCH  10  12
ATOM     12  O   UNL     1       9.055   7.773   9.906  0.00  0.00    +0.000 OA
ATOM     13  H   UNL     1       8.936   6.968  10.436  0.00  0.00    +0.000 HD
ENDBRANCH  10  12
ENDBRANCH   9  10
ENDBRANCH   1   9
BRANCH   1  14
ATOM     14  C   UNL     1       8.477   6.946   5.686  0.00  0.00    +0.000 C 
BRANCH  14  15
ATOM     15  C   UNL     1       7.027   7.067   6.214  0.00  0.00    +0.000 C 
ATOM     16  C   UNL     1       6.016   7.390   5.120  0.00  0.00    +0.000 C 
BRANCH  15  17
ATOM     17  O   UNL     1       6.603   5.872   6.869  0.00  0.00    +0.000 OA
ATOM     18  H   UNL     1       6.493   5.216   6.151  0.00  0.00    +0.000 HD
ENDBRANCH  15  17
ENDBRANCH  14  15
ENDBRANCH   1  14
TORSDOF 7
ENDMDL
MODEL 3
REMARK VINA RESULT:    -5.668      2.909      5.680
REMARK INTER + INTRA:          -8.079
REMARK INTER:                  -7.332
REMARK INTRA:                  -0.747
REMARK UNBOUND:                -0.423
REMARK  Name = 
REMARK  10 active torsions:
REMARK  status: ('A' for Active; 'I' for Inactive)
REMARK    1  A    between atoms: C_1  and  C_2
REMARK    2  A    between atoms: C_5  and  N_8
REMARK    3  A    between atoms: N_8  and  C_9
REMARK    4  A    between atoms: N_8  and  C_13
REMARK    5  A    between atoms: C_9  and  C_10
REMARK    6  A    between atoms: C_10  and  C_11
REMARK    7  A    between atoms: C_10  and  O_12
REMARK    8  A    between atoms: C_13  and  C_14
REMARK    9  A    between atoms: C_14  and  C_15
REMARK   10  A    between atoms: C_14  and  O_16
REMARK                            x       y       z     vdW  Elec       q    Type
REMARK                         _______ _______ _______ _____ _____    ______ ____
ROOT
ATOM      1  N   UNL     1      11.723   8.365   5.140  0.00  0.00    +0.000 N 
ENDROOT
BRANCH   1   6
ATOM      2  C   UNL     1       6.358   7.095   6.853  0.00  0.00    +0.000 C 
ATOM      3  C   UNL     1       7.747   7.448   6.417  0.00  0.00    +0.000 A 
ATOM      4  C   UNL     1       7.998   7.887   5.121  0.00  0.00    +0.000 A 
ATOM      5  C   UNL     1       9.307   8.188   4.708  0.00  0.00    +0.000 A 
ATOM      6  C   UNL     1      10.423   8.045   5.552  0.00  0.00    +0.000 A 
ATOM      7  C   UNL     1      10.131   7.601   6.855  0.00  0.00    +0.000 A 
ATOM      8  C   UNL     1       8.827   7.299   7.281  0.00  0.00    +0.000 A 
ENDBRANCH   1   6
BRANCH   1   9
ATOM      9  C   UNL     1      12.593   7.322   4.547  0.00  0.00    +0.000 C 
BRANCH   9  10
ATOM     10  C   UNL     1      13.154   7.725   3.161  0.00  0.00    +0.000 C 
ATOM     11  C   UNL     1      13.876   6.554   2.504  0.00  0.00    +0.000 C 
BRANCH  10  12
ATOM     12  O   UNL     1      12.102   8.148   2.283  0.00  0.00    +0.000 OA
ATOM     13  H   UNL     1      12.262   7.754   1.409  0.00  0.00    +0.000 HD
ENDBRANCH  10  12
ENDBRANCH   9  10
ENDBRANCH   1   9
BRANCH   1  14
ATOM     14  C   UNL     1      12.446   9.530   5.712  0.00  0.00    +0.000 C 
BRANCH  14  15
ATOM     15  C   UNL     1      11.926  10.874   5.149  0.00  0.00    +0.000 C 
ATOM     16  C   UNL     1      12.857  12.046   5.438  0.00  0.00    +0.000 C 
BRANCH  15  17
ATOM     17  O   UNL     1      11.720  10.811   3.739  0.00  0.00    +0.000 OA
ATOM     18  H   UNL     1      12.055  11.665   3.396  0.00  0.00    +0.000 HD
ENDBRANCH  15  17
ENDBRANCH  14  15
ENDBRANCH   1  14
TORSDOF 7
ENDMDL
MODEL 4
REMARK VINA RESULT:    -5.661      2.610      6.101
REMARK INTER + INTRA:          -8.070
REMARK INTER:                  -7.712
REMARK INTRA:                  -0.358
REMARK UNBOUND:                -0.423
REMARK  Name = 
REMARK  10 active torsions:
REMARK  status: ('A' for Active; 'I' for Inactive)
REMARK    1  A    between atoms: C_1  and  C_2
REMARK    2  A    between atoms: C_5  and  N_8
REMARK    3  A    between atoms: N_8  and  C_9
REMARK    4  A    between atoms: N_8  and  C_13
REMARK    5  A    between atoms: C_9  and  C_10
REMARK    6  A    between atoms: C_10  and  C_11
REMARK    7  A    between atoms: C_10  and  O_12
REMARK    8  A    between atoms: C_13  and  C_14
REMARK    9  A    between atoms: C_14  and  C_15
REMARK   10  A    between atoms: C_14  and  O_16
REMARK                            x       y       z     vdW  Elec       q    Type
REMARK                         _______ _______ _______ _____ _____    ______ ____
ROOT
ATOM      1  N   UNL     1      11.405   8.619   5.600  0.00  0.00    +0.000 N 
ENDROOT
BRANCH   1   6
ATOM      2  C   UNL     1       6.010   7.065   6.943  0.00  0.00    +0.000 C 
ATOM      3  C   UNL     1       7.401   7.490   6.586  0.00  0.00    +0.000 A 
ATOM      4  C   UNL     1       7.953   7.165   5.351  0.00  0.00    +0.000 A 
ATOM      5  C   UNL     1       9.268   7.540   5.033  0.00  0.00    +0.000 A 
ATOM      6  C   UNL     1      10.101   8.232   5.931  0.00  0.00    +0.000 A 
ATOM      7  C   UNL     1       9.510   8.546   7.169  0.00  0.00    +0.000 A 
ATOM      8  C   UNL     1       8.195   8.179   7.499  0.00  0.00    +0.000 A 
ENDBRANCH   1   6
BRANCH   1   9
ATOM      9  C   UNL     1      11.684  10.017   5.190  0.00  0.00    +0.000 C 
BRANCH   9  10
ATOM     10  C   UNL     1      12.987  10.577   5.813  0.00  0.00    +0.000 C 
ATOM     11  C   UNL     1      13.863  11.228   4.749  0.00  0.00    +0.000 C 
BRANCH  10  12
ATOM     12  O   UNL     1      12.696  11.561   6.814  0.00  0.00    +0.000 OA
ATOM     13  H   UNL     1      11.994  11.211   7.387  0.00  0.00    +0.000 HD
ENDBRANCH  10  12
ENDBRANCH   9  10
ENDBRANCH   1   9
BRANCH   1  14
ATOM     14  C   UNL     1      12.413   7.624   5.152  0.00  0.00    +0.000 C 
BRANCH  14  15
ATOM     15  C   UNL     1      12.764   7.783   3.653  0.00  0.00    +0.000 C 
ATOM     16  C   UNL     1      14.006   7.001   3.241  0.00  0.00    +0.000 C 
BRANCH  15  17
ATOM     17  O   UNL     1      11.686   7.375   2.812  0.00  0.00    +0.000 OA
ATOM     18  H   UNL     1      12.113   7.023   2.006  0.00  0.00    +0.000 HD
ENDBRANCH  15  17
ENDBRANCH  14  15
ENDBRANCH   1  14
TORSDOF 7
ENDMDL
MODEL 5
REMARK VINA RESULT:    -5.474      3.197      6.078
REMARK INTER + INTRA:          -7.818
REMARK INTER:                  -7.137
REMARK INTRA:                  -0.680
REMARK UNBOUND:                -0.423
REMARK  Name = 
REMARK  10 active torsions:
REMARK  status: ('A' for Active; 'I' for Inactive)
REMARK    1  A    between atoms: C_1  and  C_2
REMARK    2  A    between atoms: C_5  and  N_8
REMARK    3  A    between atoms: N_8  and  C_9
REMARK    4  A    between atoms: N_8  and  C_13
REMARK    5  A    between atoms: C_9  and  C_10
REMARK    6  A    between atoms: C_10  and  C_11
REMARK    7  A    between atoms: C_10  and  O_12
REMARK    8  A    between atoms: C_13  and  C_14
REMARK    9  A    between atoms: C_14  and  C_15
REMARK   10  A    between atoms: C_14  and  O_16
REMARK                            x       y       z     vdW  Elec       q    Type
REMARK                         _______ _______ _______ _____ _____    ______ ____
ROOT
ATOM      1  N   UNL     1      11.630   8.347   5.046  0.00  0.00    +0.000 N 
ENDROOT
BRANCH   1   6
ATOM      2  C   UNL     1       6.319   7.002   6.868  0.00  0.00    +0.000 C 
ATOM      3  C   UNL     1       7.699   7.329   6.385  0.00  0.00    +0.000 A 
ATOM      4  C   UNL     1       8.810   7.110   7.194  0.00  0.00    +0.000 A 
ATOM      5  C   UNL     1      10.098   7.446   6.748  0.00  0.00    +0.000 A 
ATOM      6  C   UNL     1      10.340   8.033   5.493  0.00  0.00    +0.000 A 
ATOM      7  C   UNL     1       9.195   8.237   4.701  0.00  0.00    +0.000 A 
ATOM      8  C   UNL     1       7.901   7.904   5.134  0.00  0.00    +0.000 A 
ENDBRANCH   1   6
BRANCH   1   9
ATOM      9  C   UNL     1      12.425   9.387   5.743  0.00  0.00    +0.000 C 
BRANCH   9  10
ATOM     10  C   UNL     1      12.085  10.821   5.268  0.00  0.00    +0.000 C 
ATOM     11  C   UNL     1      11.822  11.740   6.455  0.00  0.00    +0.000 C 
BRANCH  10  12
ATOM     12  O   UNL     1      13.163  11.379   4.504  0.00  0.00    +0.000 OA
ATOM     13  H   UNL     1      13.062  12.346   4.503  0.00  0.00    +0.000 HD
ENDBRANCH  10  12
ENDBRANCH   9  10
ENDBRANCH   1   9
BRANCH   1  14
ATOM     14  C   UNL     1      12.046   8.077   3.646  0.00  0.00    +0.000 C 
BRANCH  14  15
ATOM     15  C   UNL     1      13.582   7.946   3.508  0.00  0.00    +0.000 C 
ATOM     16  C   UNL     1      14.015   6.645   2.843  0.00  0.00    +0.000 C 
BRANCH  15  17
ATOM     17  O   UNL     1      14.138   9.029   2.764  0.00  0.00    +0.000 OA
ATOM     18  H   UNL     1      13.683   9.827   3.100  0.00  0.00    +0.000 HD
ENDBRANCH  15  17
ENDBRANCH  14  15
ENDBRANCH   1  14
TORSDOF 7
ENDMDL
MODEL 6
REMARK VINA RESULT:    -5.420      3.382      5.983
REMARK INTER + INTRA:          -7.745
REMARK INTER:                  -7.019
REMARK INTRA:                  -0.726
REMARK UNBOUND:                -0.423
REMARK  Name = 
REMARK  10 active torsions:
REMARK  status: ('A' for Active; 'I' for Inactive)
REMARK    1  A    between atoms: C_1  and  C_2
REMARK    2  A    between atoms: C_5  and  N_8
REMARK    3  A    between atoms: N_8  and  C_9
REMARK    4  A    between atoms: N_8  and  C_13
REMARK    5  A    between atoms: C_9  and  C_10
REMARK    6  A    between atoms: C_10  and  C_11
REMARK    7  A    between atoms: C_10  and  O_12
REMARK    8  A    between atoms: C_13  and  C_14
REMARK    9  A    between atoms: C_14  and  C_15
REMARK   10  A    between atoms: C_14  and  O_16
REMARK                            x       y       z     vdW  Elec       q    Type
REMARK                         _______ _______ _______ _____ _____    ______ ____
ROOT
ATOM      1  N   UNL     1      11.971   9.419   4.293  0.00  0.00    +0.000 N 
ENDROOT
BRANCH   1   6
ATOM      2  C   UNL     1       7.515   7.764   7.570  0.00  0.00    +0.000 C 
ATOM      3  C   UNL     1       8.683   8.171   6.725  0.00  0.00    +0.000 A 
ATOM      4  C   UNL     1       9.741   8.893   7.268  0.00  0.00    +0.000 A 
ATOM      5  C   UNL     1      10.818   9.298   6.464  0.00  0.00    +0.000 A 
ATOM      6  C   UNL     1      10.884   9.028   5.085  0.00  0.00    +0.000 A 
ATOM      7  C   UNL     1       9.798   8.295   4.570  0.00  0.00    +0.000 A 
ATOM      8  C   UNL     1       8.715   7.882   5.364  0.00  0.00    +0.000 A 
ENDBRANCH   1   6
BRANCH   1   9
ATOM      9  C   UNL     1      13.207   8.600   4.271  0.00  0.00    +0.000 C 
BRANCH   9  10
ATOM     10  C   UNL     1      13.558   8.082   2.855  0.00  0.00    +0.000 C 
ATOM     11  C   UNL     1      14.198   6.701   2.922  0.00  0.00    +0.000 C 
BRANCH  10  12
ATOM     12  O   UNL     1      12.385   7.989   2.035  0.00  0.00    +0.000 OA
ATOM     13  H   UNL     1      12.570   8.436   1.192  0.00  0.00    +0.000 HD
ENDBRANCH  10  12
ENDBRANCH   9  10
ENDBRANCH   1   9
BRANCH   1  14
ATOM     14  C   UNL     1      12.152  10.834   3.881  0.00  0.00    +0.000 C 
BRANCH  14  15
ATOM     15  C   UNL     1      11.108  11.274   2.826  0.00  0.00    +0.000 C 
ATOM     16  C   UNL     1      11.334  12.692   2.314  0.00  0.00    +0.000 C 
BRANCH  15  17
ATOM     17  O   UNL     1      11.093  10.396   1.702  0.00  0.00    +0.000 OA
ATOM     18  H   UNL     1      11.524   9.575   2.016  0.00  0.00    +0.000 HD
ENDBRANCH  15  17
ENDBRANCH  14  15
ENDBRANCH   1  14
TORSDOF 7
ENDMDL
MODEL 7
REMARK VINA RESULT:    -5.413      3.601      6.126
REMARK INTER + INTRA:          -7.735
REMARK INTER:                  -7.281
REMARK INTRA:                  -0.454
REMARK UNBOUND:                -0.423
REMARK  Name = 
REMARK  10 active torsions:
REMARK  status: ('A' for Active; 'I' for Inactive)
REMARK    1  A    between atoms: C_1  and  C_2
REMARK    2  A    between atoms: C_5  and  N_8
REMARK    3  A    between atoms: N_8  and  C_9
REMARK    4  A    between atoms: N_8  and  C_13
REMARK    5  A    between atoms: C_9  and  C_10
REMARK    6  A    between atoms: C_10  and  C_11
REMARK    7  A    between atoms: C_10  and  O_12
REMARK    8  A    between atoms: C_13  and  C_14
REMARK    9  A    between atoms: C_14  and  C_15
REMARK   10  A    between atoms: C_14  and  O_16
REMARK                            x       y       z     vdW  Elec       q    Type
REMARK                         _______ _______ _______ _____ _____    ______ ____
ROOT
ATOM      1  N   UNL     1      11.850   9.116   3.960  0.00  0.00    +0.000 N 
ENDROOT
BRANCH   1   6
ATOM      2  C   UNL     1       7.920   8.060   8.056  0.00  0.00    +0.000 C 
ATOM      3  C   UNL     1       8.929   8.357   6.989  0.00  0.00    +0.000 A 
ATOM      4  C   UNL     1       8.717   7.955   5.674  0.00  0.00    +0.000 A 
ATOM      5  C   UNL     1       9.680   8.208   4.684  0.00  0.00    +0.000 A 
ATOM      6  C   UNL     1      10.902   8.849   4.957  0.00  0.00    +0.000 A 
ATOM      7  C   UNL     1      11.082   9.243   6.295  0.00  0.00    +0.000 A 
ATOM      8  C   UNL     1      10.126   8.997   7.295  0.00  0.00    +0.000 A 
ENDBRANCH   1   6
BRANCH   1   9
ATOM      9  C   UNL     1      12.110  10.513   3.537  0.00  0.00    +0.000 C 
BRANCH   9  10
ATOM     10  C   UNL     1      11.776  10.761   2.046  0.00  0.00    +0.000 C 
ATOM     11  C   UNL     1      10.286  11.025   1.857  0.00  0.00    +0.000 C 
BRANCH  10  12
ATOM     12  O   UNL     1      12.495  11.893   1.538  0.00  0.00    +0.000 OA
ATOM     13  H   UNL     1      12.111  12.133   0.679  0.00  0.00    +0.000 HD
ENDBRANCH  10  12
ENDBRANCH   9  10
ENDBRANCH   1   9
BRANCH   1  14
ATOM     14  C   UNL     1      12.233   8.081   2.966  0.00  0.00    +0.000 C 
BRANCH  14  15
ATOM     15  C   UNL     1      13.533   7.342   3.363  0.00  0.00    +0.000 C 
ATOM     16  C   UNL     1      13.977   6.313   2.330  0.00  0.00    +0.000 C 
BRANCH  15  17
ATOM     17  O   UNL     1      14.613   8.251   3.573  0.00  0.00    +0.000 OA
ATOM     18  H   UNL     1      15.336   7.704   3.941  0.00  0.00    +0.000 HD
ENDBRANCH  15  17
ENDBRANCH  14  15
ENDBRANCH   1  14
TORSDOF 7
ENDMDL
MODEL 8
REMARK VINA RESULT:    -5.103     19.713     20.693
REMARK INTER + INTRA:          -7.316
REMARK INTER:                  -6.868
REMARK INTRA:                  -0.448
REMARK UNBOUND:                -0.423
REMARK  Name = 
REMARK  10 active torsions:
REMARK  status: ('A' for Active; 'I' for Inactive)
REMARK    1  A    between atoms: C_1  and  C_2
REMARK    2  A    between atoms: C_5  and  N_8
REMARK    3  A    between atoms: N_8  and  C_9
REMARK    4  A    between atoms: N_8  and  C_13
REMARK    5  A    between atoms: C_9  and  C_10
REMARK    6  A    between atoms: C_10  and  C_11
REMARK    7  A    between atoms: C_10  and  O_12
REMARK    8  A    between atoms: C_13  and  C_14
REMARK    9  A    between atoms: C_14  and  C_15
REMARK   10  A    between atoms: C_14  and  O_16
REMARK                            x       y       z     vdW  Elec       q    Type
REMARK                         _______ _______ _______ _____ _____    ______ ____
ROOT
ATOM      1  N   UNL     1      -1.009  -0.503  21.585  0.00  0.00    +0.000 N 
ENDROOT
BRANCH   1   6
ATOM      2  C   UNL     1      -4.453  -1.230  17.009  0.00  0.00    +0.000 C 
ATOM      3  C   UNL     1      -3.541  -1.054  18.185  0.00  0.00    +0.000 A 
ATOM      4  C   UNL     1      -3.550  -1.963  19.238  0.00  0.00    +0.000 A 
ATOM      5  C   UNL     1      -2.714  -1.777  20.351  0.00  0.00    +0.000 A 
ATOM      6  C   UNL     1      -1.853  -0.672  20.481  0.00  0.00    +0.000 A 
ATOM      7  C   UNL     1      -1.869   0.225  19.397  0.00  0.00    +0.000 A 
ATOM      8  C   UNL     1      -2.698   0.050  18.276  0.00  0.00    +0.000 A 
ENDBRANCH   1   6
BRANCH   1   9
ATOM      9  C   UNL     1      -0.440  -1.686  22.274  0.00  0.00    +0.000 C 
BRANCH   9  10
ATOM     10  C   UNL     1       0.938  -2.106  21.707  0.00  0.00    +0.000 C 
ATOM     11  C   UNL     1       0.856  -2.357  20.206  0.00  0.00    +0.000 C 
BRANCH  10  12
ATOM     12  O   UNL     1       1.920  -1.086  21.933  0.00  0.00    +0.000 OA
ATOM     13  H   UNL     1       2.645  -1.219  21.300  0.00  0.00    +0.000 HD
ENDBRANCH  10  12
ENDBRANCH   9  10
ENDBRANCH   1   9
BRANCH   1  14
ATOM     14  C   UNL     1      -1.054   0.735  22.405  0.00  0.00    +0.000 C 
BRANCH  14  15
ATOM     15  C   UNL     1      -0.055   1.805  21.902  0.00  0.00    +0.000 C 
ATOM     16  C   UNL     1      -0.397   3.213  22.375  0.00  0.00    +0.000 C 
BRANCH  15  17
ATOM     17  O   UNL     1       1.280   1.514  22.310  0.00  0.00    +0.000 OA
ATOM     18  H   UNL     1       1.713   1.143  21.515  0.00  0.00    +0.000 HD
ENDBRANCH  15  17
ENDBRANCH  14  15
ENDBRANCH   1  14
TORSDOF 7
ENDMDL
MODEL 9
REMARK VINA RESULT:    -5.033      2.721      4.514
REMARK INTER + INTRA:          -7.222
REMARK INTER:                  -6.696
REMARK INTRA:                  -0.526
REMARK UNBOUND:                -0.423
REMARK  Name = 
REMARK  10 active torsions:
REMARK  status: ('A' for Active; 'I' for Inactive)
REMARK    1  A    between atoms: C_1  and  C_2
REMARK    2  A    between atoms: C_5  and  N_8
REMARK    3  A    between atoms: N_8  and  C_9
REMARK    4  A    between atoms: N_8  and  C_13
REMARK    5  A    between atoms: C_9  and  C_10
REMARK    6  A    between atoms: C_10  and  C_11
REMARK    7  A    between atoms: C_10  and  O_12
REMARK    8  A    between atoms: C_13  and  C_14
REMARK    9  A    between atoms: C_14  and  C_15
REMARK   10  A    between atoms: C_14  and  O_16
REMARK                            x       y       z     vdW  Elec       q    Type
REMARK                         _______ _______ _______ _____ _____    ______ ____
ROOT
ATOM      1  N   UNL     1      11.763   8.277   5.485  0.00  0.00    +0.000 N 
ENDROOT
BRANCH   1   6
ATOM      2  C   UNL     1      13.363  13.722   6.541  0.00  0.00    +0.000 C 
ATOM      3  C   UNL     1      12.939  12.316   6.245  0.00  0.00    +0.000 A 
ATOM      4  C   UNL     1      11.692  11.847   6.645  0.00  0.00    +0.000 A 
ATOM      5  C   UNL     1      11.312  10.519   6.391  0.00  0.00    +0.000 A 
ATOM      6  C   UNL     1      12.157   9.594   5.752  0.00  0.00    +0.000 A 
ATOM      7  C   UNL     1      13.408  10.104   5.359  0.00  0.00    +0.000 A 
ATOM      8  C   UNL     1      13.800  11.430   5.605  0.00  0.00    +0.000 A 
ENDBRANCH   1   6
BRANCH   1   9
ATOM      9  C   UNL     1      10.675   7.651   6.274  0.00  0.00    +0.000 C 
BRANCH   9  10
ATOM     10  C   UNL     1       9.397   7.398   5.438  0.00  0.00    +0.000 C 
ATOM     11  C   UNL     1       8.145   7.737   6.239  0.00  0.00    +0.000 C 
BRANCH  10  12
ATOM     12  O   UNL     1       9.393   8.200   4.248  0.00  0.00    +0.000 OA
ATOM     13  H   UNL     1       8.474   8.283   3.945  0.00  0.00    +0.000 HD
ENDBRANCH  10  12
ENDBRANCH   9  10
ENDBRANCH   1   9
BRANCH   1  14
ATOM     14  C   UNL     1      12.686   7.318   4.823  0.00  0.00    +0.000 C 
BRANCH  14  15
ATOM     15  C   UNL     1      12.895   7.647   3.326  0.00  0.00    +0.000 C 
ATOM     16  C   UNL     1      13.852   6.688   2.629  0.00  0.00    +0.000 C 
BRANCH  15  17
ATOM     17  O   UNL     1      11.662   7.640   2.607  0.00  0.00    +0.000 OA
ATOM     18  H   UNL     1      11.764   8.333   1.924  0.00  0.00    +0.000 HD
ENDBRANCH  15  17
ENDBRANCH  14  15
ENDBRANCH   1  14
TORSDOF 7
ENDMDL
