MODEL 1
REMARK VINA RESULT:    -4.598      0.000      0.000
REMARK INTER + INTRA:          -6.667
REMARK INTER:                  -6.211
REMARK INTRA:                  -0.455
REMARK UNBOUND:                -0.455
REMARK  Name = 
REMARK  10 active torsions:
REMARK  status: ('A' for Active; 'I' for Inactive)
REMARK    1  A    between atoms: C_1  and  C_2
REMARK    2  A    between atoms: C_5  and  N_8
REMARK    3  A    between atoms: N_8  and  C_9
REMARK    4  A    between atoms: N_8  and  C_13
REMARK    5  A    between atoms: C_9  and  C_10
REMARK    6  A    between atoms: C_10  and  C_11
REMARK    7  A    between atoms: C_10  and  O_12
REMARK    8  A    between atoms: C_13  and  C_14
REMARK    9  A    between atoms: C_14  and  C_15
REMARK   10  A    between atoms: C_14  and  O_16
REMARK                            x       y       z     vdW  Elec       q    Type
REMARK                         _______ _______ _______ _____ _____    ______ ____
ROOT
ATOM      1  N   UNL     1      -4.918  14.993  -3.117  0.00  0.00    +0.000 N 
ENDROOT
BRANCH   1   6
ATOM      2  C   UNL     1      -3.148  15.453   2.358  0.00  0.00    +0.000 C 
ATOM      3  C   UNL     1      -3.595  15.355   0.932  0.00  0.00    +0.000 A 
ATOM      4  C   UNL     1      -4.809  15.898   0.525  0.00  0.00    +0.000 A 
ATOM      5  C   UNL     1      -5.237  15.777  -0.807  0.00  0.00    +0.000 A 
ATOM      6  C   UNL     1      -4.494  15.093  -1.786  0.00  0.00    +0.000 A 
ATOM      7  C   UNL     1      -3.272  14.558  -1.340  0.00  0.00    +0.000 A 
ATOM      8  C   UNL     1      -2.831  14.674  -0.011  0.00  0.00    +0.000 A 
ENDBRANCH   1   6
BRANCH   1   9
ATOM      9  C   UNL     1      -5.242  13.667  -3.697  0.00  0.00    +0.000 C 
BRANCH   9  10
ATOM     10  C   UNL     1      -6.726  13.273  -3.501  0.00  0.00    +0.000 C 
ATOM     11  C   UNL     1      -7.378  12.923  -4.833  0.00  0.00    +0.000 C 
BRANCH  10  12
ATOM     12  O   UNL     1      -6.847  12.136  -2.635  0.00  0.00    +0.000 OA
ATOM     13  H   UNL     1      -6.717  12.439  -1.720  0.00  0.00    +0.000 HD
ENDBRANCH  10  12
ENDBRANCH   9  10
ENDBRANCH   1   9
BRANCH   1  14
ATOM     14  C   UNL     1      -4.582  16.044  -4.112  0.00  0.00    +0.000 C 
BRANCH  14  15
ATOM     15  C   UNL     1      -3.916  15.457  -5.380  0.00  0.00    +0.000 C 
ATOM     16  C   UNL     1      -4.369  16.138  -6.666  0.00  0.00    +0.000 C 
BRANCH  15  17
ATOM     17  O   UNL     1      -2.493  15.540  -5.314  0.00  0.00    +0.000 OA
ATOM     18  H   UNL     1      -2.281  16.457  -5.583  0.00  0.00    +0.000 HD
ENDBRANCH  15  17
ENDBRANCH  14  15
ENDBRANCH   1  14
TORSDOF 7
ENDMDL
MODEL 2
REMARK VINA RESULT:    -4.394      0.782      3.204
REMARK INTER + INTRA:          -6.390
REMARK INTER:                  -5.887
REMARK INTRA:                  -0.503
REMARK UNBOUND:                -0.455
REMARK  Name = 
REMARK  10 active torsions:
REMARK  status: ('A' for Active; 'I' for Inactive)
REMARK    1  A    between atoms: C_1  and  C_2
REMARK    2  A    between atoms: C_5  and  N_8
REMARK    3  A    between atoms: N_8  and  C_9
REMARK    4  A    between atoms: N_8  and  C_13
REMARK    5  A    between atoms: C_9  and  C_10
REMARK    6  A    between atoms: C_10  and  C_11
REMARK    7  A    between atoms: C_10  and  O_12
REMARK    8  A    between atoms: C_13  and  C_14
REMARK    9  A    between atoms: C_14  and  C_15
REMARK   10  A    between atoms: C_14  and  O_16
REMARK                            x       y       z     vdW  Elec       q    Type
REMARK                         _______ _______ _______ _____ _____    ______ ____
ROOT
ATOM      1  N   UNL     1      -4.429  14.716  -2.672  0.00  0.00    +0.000 N 
ENDROOT
BRANCH   1   6
ATOM      2  C   UNL     1      -2.861  15.621   2.809  0.00  0.00    +0.000 C 
ATOM      3  C   UNL     1      -3.255  15.407   1.380  0.00  0.00    +0.000 A 
ATOM      4  C   UNL     1      -4.436  15.942   0.877  0.00  0.00    +0.000 A 
ATOM      5  C   UNL     1      -4.815  15.713  -0.456  0.00  0.00    +0.000 A 
ATOM      6  C   UNL     1      -4.055  14.925  -1.339  0.00  0.00    +0.000 A 
ATOM      7  C   UNL     1      -2.867  14.401  -0.797  0.00  0.00    +0.000 A 
ATOM      8  C   UNL     1      -2.475  14.625   0.533  0.00  0.00    +0.000 A 
ENDBRANCH   1   6
BRANCH   1   9
ATOM      9  C   UNL     1      -4.302  15.814  -3.661  0.00  0.00    +0.000 C 
BRANCH   9  10
ATOM     10  C   UNL     1      -3.885  15.312  -5.065  0.00  0.00    +0.000 C 
ATOM     11  C   UNL     1      -4.656  16.044  -6.157  0.00  0.00    +0.000 C 
BRANCH  10  12
ATOM     12  O   UNL     1      -2.485  15.523  -5.292  0.00  0.00    +0.000 OA
ATOM     13  H   UNL     1      -2.013  14.713  -5.038  0.00  0.00    +0.000 HD
ENDBRANCH  10  12
ENDBRANCH   9  10
ENDBRANCH   1   9
BRANCH   1  14
ATOM     14  C   UNL     1      -5.400  13.654  -3.041  0.00  0.00    +0.000 C 
BRANCH  14  15
ATOM     15  C   UNL     1      -6.854  14.181  -3.089  0.00  0.00    +0.000 C 
ATOM     16  C   UNL     1      -7.572  13.843  -4.391  0.00  0.00    +0.000 C 
BRANCH  15  17
ATOM     17  O   UNL     1      -7.635  13.673  -2.009  0.00  0.00    +0.000 OA
ATOM     18  H   UNL     1      -7.009  13.149  -1.469  0.00  0.00    +0.000 HD
ENDBRANCH  15  17
ENDBRANCH  14  15
ENDBRANCH   1  14
TORSDOF 7
ENDMDL
MODEL 3
REMARK VINA RESULT:    -4.383      2.703      4.500
REMARK INTER + INTRA:          -6.375
REMARK INTER:                  -5.960
REMARK INTRA:                  -0.415
REMARK UNBOUND:                -0.455
REMARK  Name = 
REMARK  10 active torsions:
REMARK  status: ('A' for Active; 'I' for Inactive)
REMARK    1  A    between atoms: C_1  and  C_2
REMARK    2  A    between atoms: C_5  and  N_8
REMARK    3  A    between atoms: N_8  and  C_9
REMARK    4  A    between atoms: N_8  and  C_13
REMARK    5  A    between atoms: C_9  and  C_10
REMARK    6  A    between atoms: C_10  and  C_11
REMARK    7  A    between atoms: C_10  and  O_12
REMARK    8  A    between atoms: C_13  and  C_14
REMARK    9  A    between atoms: C_14  and  C_15
REMARK   10  A    between atoms: C_14  and  O_16
REMARK                            x       y       z     vdW  Elec       q    Type
REMARK                         _______ _______ _______ _____ _____    ______ ____
ROOT
ATOM      1  N   UNL     1      -3.561  15.741  -0.003  0.00  0.00    +0.000 N 
ENDROOT
BRANCH   1   6
ATOM      2  C   UNL     1      -2.879  16.884   5.614  0.00  0.00    +0.000 C 
ATOM      3  C   UNL     1      -3.080  16.595   4.158  0.00  0.00    +0.000 A 
ATOM      4  C   UNL     1      -3.449  15.325   3.727  0.00  0.00    +0.000 A 
ATOM      5  C   UNL     1      -3.607  15.051   2.358  0.00  0.00    +0.000 A 
ATOM      6  C   UNL     1      -3.383  16.015   1.359  0.00  0.00    +0.000 A 
ATOM      7  C   UNL     1      -3.013  17.288   1.831  0.00  0.00    +0.000 A 
ATOM      8  C   UNL     1      -2.854  17.576   3.197  0.00  0.00    +0.000 A 
ENDBRANCH   1   6
BRANCH   1   9
ATOM      9  C   UNL     1      -4.822  16.128  -0.681  0.00  0.00    +0.000 C 
BRANCH   9  10
ATOM     10  C   UNL     1      -4.735  16.011  -2.222  0.00  0.00    +0.000 C 
ATOM     11  C   UNL     1      -5.980  15.339  -2.789  0.00  0.00    +0.000 C 
BRANCH  10  12
ATOM     12  O   UNL     1      -4.611  17.304  -2.831  0.00  0.00    +0.000 OA
ATOM     13  H   UNL     1      -4.122  17.879  -2.219  0.00  0.00    +0.000 HD
ENDBRANCH  10  12
ENDBRANCH   9  10
ENDBRANCH   1   9
BRANCH   1  14
ATOM     14  C   UNL     1      -2.798  14.658  -0.676  0.00  0.00    +0.000 C 
BRANCH  14  15
ATOM     15  C   UNL     1      -1.314  14.631  -0.238  0.00  0.00    +0.000 C 
ATOM     16  C   UNL     1      -0.891  13.297   0.366  0.00  0.00    +0.000 C 
BRANCH  15  17
ATOM     17  O   UNL     1      -0.438  14.921  -1.326  0.00  0.00    +0.000 OA
ATOM     18  H   UNL     1      -0.908  15.595  -1.856  0.00  0.00    +0.000 HD
ENDBRANCH  15  17
ENDBRANCH  14  15
ENDBRANCH   1  14
TORSDOF 7
ENDMDL
MODEL 4
REMARK VINA RESULT:    -4.368      2.568      4.550
REMARK INTER + INTRA:          -6.355
REMARK INTER:                  -5.975
REMARK INTRA:                  -0.380
REMARK UNBOUND:                -0.455
REMARK  Name = 
REMARK  10 active torsions:
REMARK  status: ('A' for Active; 'I' for Inactive)
REMARK    1  A    between atoms: C_1  and  C_2
REMARK    2  A    between atoms: C_5  and  N_8
REMARK    3  A    between atoms: N_8  and  C_9
REMARK    4  A    between atoms: N_8  and  C_13
REMARK    5  A    between atoms: C_9  and  C_10
REMARK    6  A    between atoms: C_10  and  C_11
REMARK    7  A    between atoms: C_10  and  O_12
REMARK    8  A    between atoms: C_13  and  C_14
REMARK    9  A    between atoms: C_14  and  C_15
REMARK   10  A    between atoms: C_14  and  O_16
REMARK                            x       y       z     vdW  Elec       q    Type
REMARK                         _______ _______ _______ _____ _____    ______ ____
ROOT
ATOM      1  N   UNL     1      -3.602  15.489  -0.088  0.00  0.00    +0.000 N 
ENDROOT
BRANCH   1   6
ATOM      2  C   UNL     1      -2.814  17.075   5.406  0.00  0.00    +0.000 C 
ATOM      3  C   UNL     1      -3.043  16.671   3.982  0.00  0.00    +0.000 A 
ATOM      4  C   UNL     1      -3.416  15.370   3.660  0.00  0.00    +0.000 A 
ATOM      5  C   UNL     1      -3.600  14.989   2.321  0.00  0.00    +0.000 A 
ATOM      6  C   UNL     1      -3.399  15.871   1.244  0.00  0.00    +0.000 A 
ATOM      7  C   UNL     1      -3.023  17.178   1.606  0.00  0.00    +0.000 A 
ATOM      8  C   UNL     1      -2.839  17.573   2.942  0.00  0.00    +0.000 A 
ENDBRANCH   1   6
BRANCH   1   9
ATOM      9  C   UNL     1      -2.719  14.477  -0.715  0.00  0.00    +0.000 C 
BRANCH   9  10
ATOM     10  C   UNL     1      -1.271  14.522  -0.167  0.00  0.00    +0.000 C 
ATOM     11  C   UNL     1      -0.887  13.190   0.468  0.00  0.00    +0.000 C 
BRANCH  10  12
ATOM     12  O   UNL     1      -0.332  14.802  -1.214  0.00  0.00    +0.000 OA
ATOM     13  H   UNL     1       0.387  15.336  -0.839  0.00  0.00    +0.000 HD
ENDBRANCH  10  12
ENDBRANCH   9  10
ENDBRANCH   1   9
BRANCH   1  14
ATOM     14  C   UNL     1      -4.306  16.382  -1.045  0.00  0.00    +0.000 C 
BRANCH  14  15
ATOM     15  C   UNL     1      -4.644  15.663  -2.374  0.00  0.00    +0.000 C 
ATOM     16  C   UNL     1      -6.117  15.294  -2.498  0.00  0.00    +0.000 C 
BRANCH  15  17
ATOM     17  O   UNL     1      -4.290  16.456  -3.506  0.00  0.00    +0.000 OA
ATOM     18  H   UNL     1      -4.536  17.371  -3.262  0.00  0.00    +0.000 HD
ENDBRANCH  15  17
ENDBRANCH  14  15
ENDBRANCH   1  14
TORSDOF 7
ENDMDL
MODEL 5
REMARK VINA RESULT:    -4.314      3.720      6.209
REMARK INTER + INTRA:          -6.283
REMARK INTER:                  -5.736
REMARK INTRA:                  -0.547
REMARK UNBOUND:                -0.455
REMARK  Name = 
REMARK  10 active torsions:
REMARK  status: ('A' for Active; 'I' for Inactive)
REMARK    1  A    between atoms: C_1  and  C_2
REMARK    2  A    between atoms: C_5  and  N_8
REMARK    3  A    between atoms: N_8  and  C_9
REMARK    4  A    between atoms: N_8  and  C_13
REMARK    5  A    between atoms: C_9  and  C_10
REMARK    6  A    between atoms: C_10  and  C_11
REMARK    7  A    between atoms: C_10  and  O_12
REMARK    8  A    between atoms: C_13  and  C_14
REMARK    9  A    between atoms: C_14  and  C_15
REMARK   10  A    between atoms: C_14  and  O_16
REMARK                            x       y       z     vdW  Elec       q    Type
REMARK                         _______ _______ _______ _____ _____    ______ ____
ROOT
ATOM      1  N   UNL     1      -3.323  16.149   1.920  0.00  0.00    +0.000 N 
ENDROOT
BRANCH   1   6
ATOM      2  C   UNL     1      -4.613  14.109  -3.324  0.00  0.00    +0.000 C 
ATOM      3  C   UNL     1      -4.267  14.659  -1.974  0.00  0.00    +0.000 A 
ATOM      4  C   UNL     1      -3.081  14.303  -1.340  0.00  0.00    +0.000 A 
ATOM      5  C   UNL     1      -2.776  14.797  -0.061  0.00  0.00    +0.000 A 
ATOM      6  C   UNL     1      -3.642  15.645   0.653  0.00  0.00    +0.000 A 
ATOM      7  C   UNL     1      -4.831  15.985  -0.018  0.00  0.00    +0.000 A 
ATOM      8  C   UNL     1      -5.147  15.499  -1.298  0.00  0.00    +0.000 A 
ENDBRANCH   1   6
BRANCH   1   9
ATOM      9  C   UNL     1      -3.414  15.274   3.114  0.00  0.00    +0.000 C 
BRANCH   9  10
ATOM     10  C   UNL     1      -4.631  15.609   4.011  0.00  0.00    +0.000 C 
ATOM     11  C   UNL     1      -5.924  15.093   3.391  0.00  0.00    +0.000 C 
BRANCH  10  12
ATOM     12  O   UNL     1      -4.493  15.014   5.309  0.00  0.00    +0.000 OA
ATOM     13  H   UNL     1      -5.050  14.219   5.337  0.00  0.00    +0.000 HD
ENDBRANCH  10  12
ENDBRANCH   9  10
ENDBRANCH   1   9
BRANCH   1  14
ATOM     14  C   UNL     1      -3.389  17.605   2.207  0.00  0.00    +0.000 C 
BRANCH  14  15
ATOM     15  C   UNL     1      -2.422  18.421   1.316  0.00  0.00    +0.000 C 
ATOM     16  C   UNL     1      -3.070  19.655   0.700  0.00  0.00    +0.000 C 
BRANCH  15  17
ATOM     17  O   UNL     1      -1.268  18.843   2.041  0.00  0.00    +0.000 OA
ATOM     18  H   UNL     1      -1.551  18.866   2.977  0.00  0.00    +0.000 HD
ENDBRANCH  15  17
ENDBRANCH  14  15
ENDBRANCH   1  14
TORSDOF 7
ENDMDL
MODEL 6
REMARK VINA RESULT:    -4.175      3.459      6.486
REMARK INTER + INTRA:          -6.095
REMARK INTER:                  -5.759
REMARK INTRA:                  -0.337
REMARK UNBOUND:                -0.455
REMARK  Name = 
REMARK  10 active torsions:
REMARK  status: ('A' for Active; 'I' for Inactive)
REMARK    1  A    between atoms: C_1  and  C_2
REMARK    2  A    between atoms: C_5  and  N_8
REMARK    3  A    between atoms: N_8  and  C_9
REMARK    4  A    between atoms: N_8  and  C_13
REMARK    5  A    between atoms: C_9  and  C_10
REMARK    6  A    between atoms: C_10  and  C_11
REMARK    7  A    between atoms: C_10  and  O_12
REMARK    8  A    between atoms: C_13  and  C_14
REMARK    9  A    between atoms: C_14  and  C_15
REMARK   10  A    between atoms: C_14  and  O_16
REMARK                            x       y       z     vdW  Elec       q    Type
REMARK                         _______ _______ _______ _____ _____    ______ ____
ROOT
ATOM      1  N   UNL     1      -4.752  16.483   1.595  0.00  0.00    +0.000 N 
ENDROOT
BRANCH   1   6
ATOM      2  C   UNL     1      -4.689  14.081  -3.654  0.00  0.00    +0.000 C 
ATOM      3  C   UNL     1      -4.697  14.726  -2.302  0.00  0.00    +0.000 A 
ATOM      4  C   UNL     1      -3.584  14.657  -1.470  0.00  0.00    +0.000 A 
ATOM      5  C   UNL     1      -3.608  15.238  -0.192  0.00  0.00    +0.000 A 
ATOM      6  C   UNL     1      -4.742  15.890   0.327  0.00  0.00    +0.000 A 
ATOM      7  C   UNL     1      -5.847  15.942  -0.541  0.00  0.00    +0.000 A 
ATOM      8  C   UNL     1      -5.836  15.368  -1.823  0.00  0.00    +0.000 A 
ENDBRANCH   1   6
BRANCH   1   9
ATOM      9  C   UNL     1      -5.838  17.422   1.968  0.00  0.00    +0.000 C 
BRANCH   9  10
ATOM     10  C   UNL     1      -6.780  16.849   3.055  0.00  0.00    +0.000 C 
ATOM     11  C   UNL     1      -7.373  15.516   2.615  0.00  0.00    +0.000 C 
BRANCH  10  12
ATOM     12  O   UNL     1      -6.075  16.637   4.287  0.00  0.00    +0.000 OA
ATOM     13  H   UNL     1      -6.651  16.923   5.016  0.00  0.00    +0.000 HD
ENDBRANCH  10  12
ENDBRANCH   9  10
ENDBRANCH   1   9
BRANCH   1  14
ATOM     14  C   UNL     1      -3.504  16.626   2.388  0.00  0.00    +0.000 C 
BRANCH  14  15
ATOM     15  C   UNL     1      -3.163  15.340   3.179  0.00  0.00    +0.000 C 
ATOM     16  C   UNL     1      -2.674  15.619   4.595  0.00  0.00    +0.000 C 
BRANCH  15  17
ATOM     17  O   UNL     1      -4.284  14.461   3.263  0.00  0.00    +0.000 OA
ATOM     18  H   UNL     1      -4.103  13.758   2.608  0.00  0.00    +0.000 HD
ENDBRANCH  15  17
ENDBRANCH  14  15
ENDBRANCH   1  14
TORSDOF 7
ENDMDL
MODEL 7
REMARK VINA RESULT:    -4.166      2.307      3.909
REMARK INTER + INTRA:          -6.082
REMARK INTER:                  -5.716
REMARK INTRA:                  -0.367
REMARK UNBOUND:                -0.455
REMARK  Name = 
REMARK  10 active torsions:
REMARK  status: ('A' for Active; 'I' for Inactive)
REMARK    1  A    between atoms: C_1  and  C_2
REMARK    2  A    between atoms: C_5  and  N_8
REMARK    3  A    between atoms: N_8  and  C_9
REMARK    4  A    between atoms: N_8  and  C_13
REMARK    5  A    between atoms: C_9  and  C_10
REMARK    6  A    between atoms: C_10  and  C_11
REMARK    7  A    between atoms: C_10  and  O_12
REMARK    8  A    between atoms: C_13  and  C_14
REMARK    9  A    between atoms: C_14  and  C_15
REMARK   10  A    between atoms: C_14  and  O_16
REMARK                            x       y       z     vdW  Elec       q    Type
REMARK                         _______ _______ _______ _____ _____    ______ ____
ROOT
ATOM      1  N   UNL     1      -3.609  15.381  -1.086  0.00  0.00    +0.000 N 
ENDROOT
BRANCH   1   6
ATOM      2  C   UNL     1      -4.464  18.829   3.465  0.00  0.00    +0.000 C 
ATOM      3  C   UNL     1      -4.224  17.922   2.297  0.00  0.00    +0.000 A 
ATOM      4  C   UNL     1      -3.330  18.274   1.291  0.00  0.00    +0.000 A 
ATOM      5  C   UNL     1      -3.132  17.434   0.183  0.00  0.00    +0.000 A 
ATOM      6  C   UNL     1      -3.826  16.223   0.012  0.00  0.00    +0.000 A 
ATOM      7  C   UNL     1      -4.720  15.898   1.049  0.00  0.00    +0.000 A 
ATOM      8  C   UNL     1      -4.926  16.728   2.163  0.00  0.00    +0.000 A 
ENDBRANCH   1   6
BRANCH   1   9
ATOM      9  C   UNL     1      -4.584  15.349  -2.203  0.00  0.00    +0.000 C 
BRANCH   9  10
ATOM     10  C   UNL     1      -4.732  13.941  -2.829  0.00  0.00    +0.000 C 
ATOM     11  C   UNL     1      -6.198  13.527  -2.898  0.00  0.00    +0.000 C 
BRANCH  10  12
ATOM     12  O   UNL     1      -4.200  13.912  -4.161  0.00  0.00    +0.000 OA
ATOM     13  H   UNL     1      -3.555  13.187  -4.211  0.00  0.00    +0.000 HD
ENDBRANCH  10  12
ENDBRANCH   9  10
ENDBRANCH   1   9
BRANCH   1  14
ATOM     14  C   UNL     1      -2.751  14.174  -0.971  0.00  0.00    +0.000 C 
BRANCH  14  15
ATOM     15  C   UNL     1      -1.392  14.484  -0.301  0.00  0.00    +0.000 C 
ATOM     16  C   UNL     1      -0.808  13.294   0.452  0.00  0.00    +0.000 C 
BRANCH  15  17
ATOM     17  O   UNL     1      -0.423  14.923  -1.252  0.00  0.00    +0.000 OA
ATOM     18  H   UNL     1      -0.358  15.890  -1.118  0.00  0.00    +0.000 HD
ENDBRANCH  15  17
ENDBRANCH  14  15
ENDBRANCH   1  14
TORSDOF 7
ENDMDL
MODEL 8
REMARK VINA RESULT:    -4.133      2.528      5.525
REMARK INTER + INTRA:          -6.037
REMARK INTER:                  -5.568
REMARK INTRA:                  -0.469
REMARK UNBOUND:                -0.455
REMARK  Name = 
REMARK  10 active torsions:
REMARK  status: ('A' for Active; 'I' for Inactive)
REMARK    1  A    between atoms: C_1  and  C_2
REMARK    2  A    between atoms: C_5  and  N_8
REMARK    3  A    between atoms: N_8  and  C_9
REMARK    4  A    between atoms: N_8  and  C_13
REMARK    5  A    between atoms: C_9  and  C_10
REMARK    6  A    between atoms: C_10  and  C_11
REMARK    7  A    between atoms: C_10  and  O_12
REMARK    8  A    between atoms: C_13  and  C_14
REMARK    9  A    between atoms: C_14  and  C_15
REMARK   10  A    between atoms: C_14  and  O_16
REMARK                            x       y       z     vdW  Elec       q    Type
REMARK                         _______ _______ _______ _____ _____    ______ ____
ROOT
ATOM      1  N   UNL     1      -3.792  15.541  -0.159  0.00  0.00    +0.000 N 
ENDROOT
BRANCH   1   6
ATOM      2  C   UNL     1      -5.803  14.732  -5.509  0.00  0.00    +0.000 C 
ATOM      3  C   UNL     1      -5.304  14.936  -4.112  0.00  0.00    +0.000 A 
ATOM      4  C   UNL     1      -5.356  16.189  -3.510  0.00  0.00    +0.000 A 
ATOM      5  C   UNL     1      -4.859  16.381  -2.211  0.00  0.00    +0.000 A 
ATOM      6  C   UNL     1      -4.268  15.348  -1.461  0.00  0.00    +0.000 A 
ATOM      7  C   UNL     1      -4.234  14.094  -2.100  0.00  0.00    +0.000 A 
ATOM      8  C   UNL     1      -4.730  13.888  -3.398  0.00  0.00    +0.000 A 
ENDBRANCH   1   6
BRANCH   1   9
ATOM      9  C   UNL     1      -4.743  15.614   0.977  0.00  0.00    +0.000 C 
BRANCH   9  10
ATOM     10  C   UNL     1      -4.032  15.679   2.351  0.00  0.00    +0.000 C 
ATOM     11  C   UNL     1      -4.624  16.783   3.219  0.00  0.00    +0.000 C 
BRANCH  10  12
ATOM     12  O   UNL     1      -4.165  14.438   3.058  0.00  0.00    +0.000 OA
ATOM     13  H   UNL     1      -3.290  14.017   3.095  0.00  0.00    +0.000 HD
ENDBRANCH  10  12
ENDBRANCH   9  10
ENDBRANCH   1   9
BRANCH   1  14
ATOM     14  C   UNL     1      -2.471  16.173   0.091  0.00  0.00    +0.000 C 
BRANCH  14  15
ATOM     15  C   UNL     1      -1.302  15.176  -0.093  0.00  0.00    +0.000 C 
ATOM     16  C   UNL     1      -1.620  13.778   0.426  0.00  0.00    +0.000 C 
BRANCH  15  17
ATOM     17  O   UNL     1      -0.917  15.062  -1.462  0.00  0.00    +0.000 OA
ATOM     18  H   UNL     1      -1.575  15.593  -1.954  0.00  0.00    +0.000 HD
ENDBRANCH  15  17
ENDBRANCH  14  15
ENDBRANCH   1  14
TORSDOF 7
ENDMDL
MODEL 9
REMARK VINA RESULT:    -4.076      2.988      5.653
REMARK INTER + INTRA:          -5.961
REMARK INTER:                  -5.284
REMARK INTRA:                  -0.678
REMARK UNBOUND:                -0.455
REMARK  Name = 
REMARK  10 active torsions:
REMARK  status: ('A' for Active; 'I' for Inactive)
REMARK    1  A    between atoms: C_1  and  C_2
REMARK    2  A    between atoms: C_5  and  N_8
REMARK    3  A    between atoms: N_8  and  C_9
REMARK    4  A    between atoms: N_8  and  C_13
REMARK    5  A    between atoms: C_9  and  C_10
REMARK    6  A    between atoms: C_10  and  C_11
REMARK    7  A    between atoms: C_10  and  O_12
REMARK    8  A    between atoms: C_13  and  C_14
REMARK    9  A    between atoms: C_14  and  C_15
REMARK   10  A    between atoms: C_14  and  O_16
REMARK                            x       y       z     vdW  Elec       q    Type
REMARK                         _______ _______ _______ _____ _____    ______ ____
ROOT
ATOM      1  N   UNL     1      -4.114  15.907  -0.423  0.00  0.00    +0.000 N 
ENDROOT
BRANCH   1   6
ATOM      2  C   UNL     1      -7.157  13.211  -4.522  0.00  0.00    +0.000 C 
ATOM      3  C   UNL     1      -6.366  13.931  -3.473  0.00  0.00    +0.000 A 
ATOM      4  C   UNL     1      -4.981  13.811  -3.415  0.00  0.00    +0.000 A 
ATOM      5  C   UNL     1      -4.247  14.464  -2.411  0.00  0.00    +0.000 A 
ATOM      6  C   UNL     1      -4.854  15.243  -1.409  0.00  0.00    +0.000 A 
ATOM      7  C   UNL     1      -6.254  15.344  -1.500  0.00  0.00    +0.000 A 
ATOM      8  C   UNL     1      -7.000  14.698  -2.500  0.00  0.00    +0.000 A 
ENDBRANCH   1   6
BRANCH   1   9
ATOM      9  C   UNL     1      -4.595  17.199   0.124  0.00  0.00    +0.000 C 
BRANCH   9  10
ATOM     10  C   UNL     1      -5.140  17.074   1.568  0.00  0.00    +0.000 C 
ATOM     11  C   UNL     1      -6.552  17.638   1.669  0.00  0.00    +0.000 C 
BRANCH  10  12
ATOM     12  O   UNL     1      -5.178  15.702   1.986  0.00  0.00    +0.000 OA
ATOM     13  H   UNL     1      -4.725  15.636   2.843  0.00  0.00    +0.000 HD
ENDBRANCH  10  12
ENDBRANCH   9  10
ENDBRANCH   1   9
BRANCH   1  14
ATOM     14  C   UNL     1      -2.658  15.664  -0.260  0.00  0.00    +0.000 C 
BRANCH  14  15
ATOM     15  C   UNL     1      -2.367  14.366   0.531  0.00  0.00    +0.000 C 
ATOM     16  C   UNL     1      -1.039  13.719   0.156  0.00  0.00    +0.000 C 
BRANCH  15  17
ATOM     17  O   UNL     1      -2.364  14.596   1.939  0.00  0.00    +0.000 OA
ATOM     18  H   UNL     1      -1.457  14.374   2.230  0.00  0.00    +0.000 HD
ENDBRANCH  15  17
ENDBRANCH  14  15
ENDBRANCH   1  14
TORSDOF 7
ENDMDL
