MODEL 1
REMARK VINA RESULT:    -3.525      0.000      0.000
REMARK INTER + INTRA:          -3.880
REMARK INTER:                  -3.835
REMARK INTRA:                  -0.046
REMARK UNBOUND:                -0.046
REMARK  Name = 
REMARK  3 active torsions:
REMARK  status: ('A' for Active; 'I' for Inactive)
REMARK    1  A    between atoms: C_1  and  O_2
REMARK    2  A    between atoms: O_2  and  C_3
REMARK    3  A    between atoms: C_8  and  O_9
REMARK                            x       y       z     vdW  Elec       q    Type
REMARK                         _______ _______ _______ _____ _____    ______ ____
ROOT
ATOM      1  C   UNL     1      -3.962  14.796  -1.656  0.00  0.00    +0.000 A 
ATOM      2  C   UNL     1      -4.693  15.975  -1.516  0.00  0.00    +0.000 A 
ATOM      3  C   UNL     1      -4.248  16.974  -0.642  0.00  0.00    +0.000 A 
ATOM      4  C   UNL     1      -3.075  16.799   0.095  0.00  0.00    +0.000 A 
ATOM      5  C   UNL     1      -2.339  15.624  -0.040  0.00  0.00    +0.000 A 
ATOM      6  C   UNL     1      -2.788  14.638  -0.910  0.00  0.00    +0.000 A 
ENDROOT
BRANCH   1   8
ATOM      7  C   UNL     1      -4.710  14.057  -3.788  0.00  0.00    +0.000 C 
ATOM      8  O   UNL     1      -4.278  13.738  -2.471  0.00  0.00    +0.000 OA
ENDBRANCH   1   8
BRANCH   6   9
ATOM      9  O   UNL     1      -2.048  13.492  -1.025  0.00  0.00    +0.000 OA
ATOM     10  H   UNL     1      -2.645  12.853  -1.457  0.00  0.00    +0.000 HD
ENDBRANCH   6   9
TORSDOF 2
ENDMDL
MODEL 2
REMARK VINA RESULT:    -3.429      1.097      2.800
REMARK INTER + INTRA:          -3.776
REMARK INTER:                  -3.723
REMARK INTRA:                  -0.053
REMARK UNBOUND:                -0.046
REMARK  Name = 
REMARK  3 active torsions:
REMARK  status: ('A' for Active; 'I' for Inactive)
REMARK    1  A    between atoms: C_1  and  O_2
REMARK    2  A    between atoms: O_2  and  C_3
REMARK    3  A    between atoms: C_8  and  O_9
REMARK                            x       y       z     vdW  Elec       q    Type
REMARK                         _______ _______ _______ _____ _____    ______ ____
ROOT
ATOM      1  C   UNL     1      -2.483  15.035  -0.651  0.00  0.00    +0.000 A 
ATOM      2  C   UNL     1      -2.526  16.239   0.050  0.00  0.00    +0.000 A 
ATOM      3  C   UNL     1      -3.665  17.050  -0.022  0.00  0.00    +0.000 A 
ATOM      4  C   UNL     1      -4.762  16.662  -0.794  0.00  0.00    +0.000 A 
ATOM      5  C   UNL     1      -4.727  15.460  -1.497  0.00  0.00    +0.000 A 
ATOM      6  C   UNL     1      -3.593  14.662  -1.419  0.00  0.00    +0.000 A 
ENDROOT
BRANCH   1   8
ATOM      7  C   UNL     1      -1.136  13.491   0.554  0.00  0.00    +0.000 C 
ATOM      8  O   UNL     1      -1.438  14.146  -0.673  0.00  0.00    +0.000 OA
ENDBRANCH   1   8
BRANCH   6   9
ATOM      9  O   UNL     1      -3.581  13.485  -2.119  0.00  0.00    +0.000 OA
ATOM     10  H   UNL     1      -3.743  13.746  -3.046  0.00  0.00    +0.000 HD
ENDBRANCH   6   9
TORSDOF 2
ENDMDL
MODEL 3
REMARK VINA RESULT:    -3.369     17.308     17.925
REMARK INTER + INTRA:          -3.711
REMARK INTER:                  -3.670
REMARK INTRA:                  -0.041
REMARK UNBOUND:                -0.046
REMARK  Name = 
REMARK  3 active torsions:
REMARK  status: ('A' for Active; 'I' for Inactive)
REMARK    1  A    between atoms: C_1  and  O_2
REMARK    2  A    between atoms: O_2  and  C_3
REMARK    3  A    between atoms: C_8  and  O_9
REMARK                            x       y       z     vdW  Elec       q    Type
REMARK                         _______ _______ _______ _____ _____    ______ ____
ROOT
ATOM      1  C   UNL     1      12.467  20.302  -7.764  0.00  0.00    +0.000 A 
ATOM      2  C   UNL     1      12.452  20.711  -6.432  0.00  0.00    +0.000 A 
ATOM      3  C   UNL     1      11.574  21.723  -6.020  0.00  0.00    +0.000 A 
ATOM      4  C   UNL     1      10.712  22.328  -6.937  0.00  0.00    +0.000 A 
ATOM      5  C   UNL     1      10.721  21.924  -8.270  0.00  0.00    +0.000 A 
ATOM      6  C   UNL     1      11.595  20.920  -8.669  0.00  0.00    +0.000 A 
ENDROOT
BRANCH   1   8
ATOM      7  C   UNL     1      13.654  18.270  -7.437  0.00  0.00    +0.000 C 
ATOM      8  O   UNL     1      13.269  19.329  -8.305  0.00  0.00    +0.000 OA
ENDBRANCH   1   8
BRANCH   6   9
ATOM      9  O   UNL     1      11.585  20.540  -9.984  0.00  0.00    +0.000 OA
ATOM     10  H   UNL     1      12.093  19.707 -10.006  0.00  0.00    +0.000 HD
ENDBRANCH   6   9
TORSDOF 2
ENDMDL
MODEL 4
REMARK VINA RESULT:    -3.362      1.752      3.147
REMARK INTER + INTRA:          -3.703
REMARK INTER:                  -3.663
REMARK INTRA:                  -0.040
REMARK UNBOUND:                -0.046
REMARK  Name = 
REMARK  3 active torsions:
REMARK  status: ('A' for Active; 'I' for Inactive)
REMARK    1  A    between atoms: C_1  and  O_2
REMARK    2  A    between atoms: O_2  and  C_3
REMARK    3  A    between atoms: C_8  and  O_9
REMARK                            x       y       z     vdW  Elec       q    Type
REMARK                         _______ _______ _______ _____ _____    ______ ____
ROOT
ATOM      1  C   UNL     1      -2.528  14.719   0.116  0.00  0.00    +0.000 A 
ATOM      2  C   UNL     1      -2.798  14.863   1.476  0.00  0.00    +0.000 A 
ATOM      3  C   UNL     1      -3.963  15.518   1.893  0.00  0.00    +0.000 A 
ATOM      4  C   UNL     1      -4.860  16.032   0.954  0.00  0.00    +0.000 A 
ATOM      5  C   UNL     1      -4.598  15.892  -0.407  0.00  0.00    +0.000 A 
ATOM      6  C   UNL     1      -3.440  15.240  -0.811  0.00  0.00    +0.000 A 
ENDROOT
BRANCH   1   8
ATOM      7  C   UNL     1      -0.812  13.093   0.353  0.00  0.00    +0.000 C 
ATOM      8  O   UNL     1      -1.432  14.103  -0.433  0.00  0.00    +0.000 OA
ENDBRANCH   1   8
BRANCH   6   9
ATOM      9  O   UNL     1      -3.204  15.114  -2.154  0.00  0.00    +0.000 OA
ATOM     10  H   UNL     1      -3.286  16.021  -2.506  0.00  0.00    +0.000 HD
ENDBRANCH   6   9
TORSDOF 2
ENDMDL
MODEL 5
REMARK VINA RESULT:    -3.351      1.708      4.352
REMARK INTER + INTRA:          -3.691
REMARK INTER:                  -3.659
REMARK INTRA:                  -0.033
REMARK UNBOUND:                -0.046
REMARK  Name = 
REMARK  3 active torsions:
REMARK  status: ('A' for Active; 'I' for Inactive)
REMARK    1  A    between atoms: C_1  and  O_2
REMARK    2  A    between atoms: O_2  and  C_3
REMARK    3  A    between atoms: C_8  and  O_9
REMARK                            x       y       z     vdW  Elec       q    Type
REMARK                         _______ _______ _______ _____ _____    ______ ____
ROOT
ATOM      1  C   UNL     1      -4.845  14.047  -2.933  0.00  0.00    +0.000 A 
ATOM      2  C   UNL     1      -6.056  13.369  -2.802  0.00  0.00    +0.000 A 
ATOM      3  C   UNL     1      -6.920  13.263  -3.899  0.00  0.00    +0.000 A 
ATOM      4  C   UNL     1      -6.578  13.833  -5.127  0.00  0.00    +0.000 A 
ATOM      5  C   UNL     1      -5.369  14.510  -5.265  0.00  0.00    +0.000 A 
ATOM      6  C   UNL     1      -4.519  14.611  -4.172  0.00  0.00    +0.000 A 
ENDROOT
BRANCH   1   8
ATOM      7  C   UNL     1      -4.186  15.236  -0.983  0.00  0.00    +0.000 C 
ATOM      8  O   UNL     1      -3.907  14.228  -1.948  0.00  0.00    +0.000 OA
ENDBRANCH   1   8
BRANCH   6   9
ATOM      9  O   UNL     1      -3.336  15.283  -4.333  0.00  0.00    +0.000 OA
ATOM     10  H   UNL     1      -3.274  15.450  -5.292  0.00  0.00    +0.000 HD
ENDBRANCH   6   9
TORSDOF 2
ENDMDL
MODEL 6
REMARK VINA RESULT:    -3.322      3.338      5.282
REMARK INTER + INTRA:          -3.660
REMARK INTER:                  -3.611
REMARK INTRA:                  -0.048
REMARK UNBOUND:                -0.046
REMARK  Name = 
REMARK  3 active torsions:
REMARK  status: ('A' for Active; 'I' for Inactive)
REMARK    1  A    between atoms: C_1  and  O_2
REMARK    2  A    between atoms: O_2  and  C_3
REMARK    3  A    between atoms: C_8  and  O_9
REMARK                            x       y       z     vdW  Elec       q    Type
REMARK                         _______ _______ _______ _____ _____    ______ ____
ROOT
ATOM      1  C   UNL     1      -4.726  14.782  -5.367  0.00  0.00    +0.000 A 
ATOM      2  C   UNL     1      -6.007  14.858  -5.913  0.00  0.00    +0.000 A 
ATOM      3  C   UNL     1      -6.259  15.718  -6.989  0.00  0.00    +0.000 A 
ATOM      4  C   UNL     1      -5.235  16.503  -7.523  0.00  0.00    +0.000 A 
ATOM      5  C   UNL     1      -3.952  16.432  -6.983  0.00  0.00    +0.000 A 
ATOM      6  C   UNL     1      -3.712  15.577  -5.915  0.00  0.00    +0.000 A 
ENDROOT
BRANCH   1   8
ATOM      7  C   UNL     1      -5.148  14.042  -3.148  0.00  0.00    +0.000 C 
ATOM      8  O   UNL     1      -4.338  13.990  -4.316  0.00  0.00    +0.000 OA
ENDBRANCH   1   8
BRANCH   6   9
ATOM      9  O   UNL     1      -2.444  15.525  -5.401  0.00  0.00    +0.000 OA
ATOM     10  H   UNL     1      -2.238  16.447  -5.154  0.00  0.00    +0.000 HD
ENDBRANCH   6   9
TORSDOF 2
ENDMDL
MODEL 7
REMARK VINA RESULT:    -3.292     17.467     17.906
REMARK INTER + INTRA:          -3.627
REMARK INTER:                  -3.588
REMARK INTRA:                  -0.038
REMARK UNBOUND:                -0.046
REMARK  Name = 
REMARK  3 active torsions:
REMARK  status: ('A' for Active; 'I' for Inactive)
REMARK    1  A    between atoms: C_1  and  O_2
REMARK    2  A    between atoms: O_2  and  C_3
REMARK    3  A    between atoms: C_8  and  O_9
REMARK                            x       y       z     vdW  Elec       q    Type
REMARK                         _______ _______ _______ _____ _____    ______ ____
ROOT
ATOM      1  C   UNL     1      11.898  20.859  -8.715  0.00  0.00    +0.000 A 
ATOM      2  C   UNL     1      11.139  21.840  -8.078  0.00  0.00    +0.000 A 
ATOM      3  C   UNL     1      11.118  21.911  -6.680  0.00  0.00    +0.000 A 
ATOM      4  C   UNL     1      11.851  21.003  -5.914  0.00  0.00    +0.000 A 
ATOM      5  C   UNL     1      12.612  20.019  -6.543  0.00  0.00    +0.000 A 
ATOM      6  C   UNL     1      12.627  19.957  -7.930  0.00  0.00    +0.000 A 
ENDROOT
BRANCH   1   8
ATOM      7  C   UNL     1      11.016  21.286 -10.880  0.00  0.00    +0.000 C 
ATOM      8  O   UNL     1      12.011  20.672 -10.069  0.00  0.00    +0.000 OA
ENDBRANCH   1   8
BRANCH   6   9
ATOM      9  O   UNL     1      13.382  18.981  -8.525  0.00  0.00    +0.000 OA
ATOM     10  H   UNL     1      12.896  18.754  -9.341  0.00  0.00    +0.000 HD
ENDBRANCH   6   9
TORSDOF 2
ENDMDL
MODEL 8
REMARK VINA RESULT:    -3.270      1.819      2.790
REMARK INTER + INTRA:          -3.603
REMARK INTER:                  -3.559
REMARK INTRA:                  -0.044
REMARK UNBOUND:                -0.046
REMARK  Name = 
REMARK  3 active torsions:
REMARK  status: ('A' for Active; 'I' for Inactive)
REMARK    1  A    between atoms: C_1  and  O_2
REMARK    2  A    between atoms: O_2  and  C_3
REMARK    3  A    between atoms: C_8  and  O_9
REMARK                            x       y       z     vdW  Elec       q    Type
REMARK                         _______ _______ _______ _____ _____    ______ ____
ROOT
ATOM      1  C   UNL     1      -4.019  15.650  -0.227  0.00  0.00    +0.000 A 
ATOM      2  C   UNL     1      -3.834  15.584   1.153  0.00  0.00    +0.000 A 
ATOM      3  C   UNL     1      -2.774  14.838   1.683  0.00  0.00    +0.000 A 
ATOM      4  C   UNL     1      -1.897  14.155   0.838  0.00  0.00    +0.000 A 
ATOM      5  C   UNL     1      -2.075  14.216  -0.543  0.00  0.00    +0.000 A 
ATOM      6  C   UNL     1      -3.129  14.959  -1.059  0.00  0.00    +0.000 A 
ENDROOT
BRANCH   1   8
ATOM      7  C   UNL     1      -6.293  16.336  -0.270  0.00  0.00    +0.000 C 
ATOM      8  O   UNL     1      -5.009  16.338  -0.881  0.00  0.00    +0.000 OA
ENDBRANCH   1   8
BRANCH   6   9
ATOM      9  O   UNL     1      -3.283  15.004  -2.419  0.00  0.00    +0.000 OA
ATOM     10  H   UNL     1      -2.408  15.272  -2.759  0.00  0.00    +0.000 HD
ENDBRANCH   6   9
TORSDOF 2
ENDMDL
MODEL 9
REMARK VINA RESULT:    -3.211      1.883      4.768
REMARK INTER + INTRA:          -3.538
REMARK INTER:                  -3.487
REMARK INTRA:                  -0.051
REMARK UNBOUND:                -0.046
REMARK  Name = 
REMARK  3 active torsions:
REMARK  status: ('A' for Active; 'I' for Inactive)
REMARK    1  A    between atoms: C_1  and  O_2
REMARK    2  A    between atoms: O_2  and  C_3
REMARK    3  A    between atoms: C_8  and  O_9
REMARK                            x       y       z     vdW  Elec       q    Type
REMARK                         _______ _______ _______ _____ _____    ______ ____
ROOT
ATOM      1  C   UNL     1      -5.031  13.912  -3.549  0.00  0.00    +0.000 A 
ATOM      2  C   UNL     1      -4.510  14.625  -4.628  0.00  0.00    +0.000 A 
ATOM      3  C   UNL     1      -5.303  14.866  -5.756  0.00  0.00    +0.000 A 
ATOM      4  C   UNL     1      -6.617  14.396  -5.812  0.00  0.00    +0.000 A 
ATOM      5  C   UNL     1      -7.145  13.683  -4.738  0.00  0.00    +0.000 A 
ATOM      6  C   UNL     1      -6.351  13.449  -3.623  0.00  0.00    +0.000 A 
ENDROOT
BRANCH   1   8
ATOM      7  C   UNL     1      -3.844  14.697  -1.647  0.00  0.00    +0.000 C 
ATOM      8  O   UNL     1      -4.372  13.603  -2.387  0.00  0.00    +0.000 OA
ENDBRANCH   1   8
BRANCH   6   9
ATOM      9  O   UNL     1      -6.892  12.745  -2.580  0.00  0.00    +0.000 OA
ATOM     10  H   UNL     1      -7.753  12.429  -2.914  0.00  0.00    +0.000 HD
ENDBRANCH   6   9
TORSDOF 2
ENDMDL
