MODEL 1
REMARK VINA RESULT:    -5.912      0.000      0.000
REMARK INTER + INTRA:          -8.297
REMARK INTER:                  -7.986
REMARK INTRA:                  -0.311
REMARK UNBOUND:                -0.311
REMARK  Name = 
REMARK  10 active torsions:
REMARK  status: ('A' for Active; 'I' for Inactive)
REMARK    1  A    between atoms: C_1  and  C_2
REMARK    2  A    between atoms: C_5  and  N_8
REMARK    3  A    between atoms: N_8  and  C_9
REMARK    4  A    between atoms: N_8  and  C_13
REMARK    5  A    between atoms: C_9  and  C_10
REMARK    6  A    between atoms: C_10  and  C_11
REMARK    7  A    between atoms: C_10  and  O_12
REMARK    8  A    between atoms: C_13  and  C_14
REMARK    9  A    between atoms: C_14  and  C_15
REMARK   10  A    between atoms: C_14  and  O_16
REMARK                            x       y       z     vdW  Elec       q    Type
REMARK                         _______ _______ _______ _____ _____    ______ ____
ROOT
ATOM      1  N   UNL     1       8.760  10.407   3.979  0.00  0.00    +0.000 N 
ENDROOT
BRANCH   1   6
ATOM      2  C   UNL     1       9.379  10.470   9.718  0.00  0.00    +0.000 C 
ATOM      3  C   UNL     1       9.201  10.472   8.230  0.00  0.00    +0.000 A 
ATOM      4  C   UNL     1       8.290   9.617   7.619  0.00  0.00    +0.000 A 
ATOM      5  C   UNL     1       8.149   9.602   6.222  0.00  0.00    +0.000 A 
ATOM      6  C   UNL     1       8.919  10.414   5.370  0.00  0.00    +0.000 A 
ATOM      7  C   UNL     1       9.829  11.267   6.023  0.00  0.00    +0.000 A 
ATOM      8  C   UNL     1       9.978  11.293   7.419  0.00  0.00    +0.000 A 
ENDBRANCH   1   6
BRANCH   1   9
ATOM      9  C   UNL     1       9.230  11.559   3.171  0.00  0.00    +0.000 C 
BRANCH   9  10
ATOM     10  C   UNL     1      10.560  11.270   2.432  0.00  0.00    +0.000 C 
ATOM     11  C   UNL     1      11.388  10.236   3.185  0.00  0.00    +0.000 C 
BRANCH  10  12
ATOM     12  O   UNL     1      10.316  10.769   1.111  0.00  0.00    +0.000 OA
ATOM     13  H   UNL     1      11.002  10.112   0.907  0.00  0.00    +0.000 HD
ENDBRANCH  10  12
ENDBRANCH   9  10
ENDBRANCH   1   9
BRANCH   1  14
ATOM     14  C   UNL     1       7.717   9.573   3.328  0.00  0.00    +0.000 C 
BRANCH  14  15
ATOM     15  C   UNL     1       8.292   8.248   2.772  0.00  0.00    +0.000 C 
ATOM     16  C   UNL     1       8.090   7.065   3.712  0.00  0.00    +0.000 C 
BRANCH  15  17
ATOM     17  O   UNL     1       7.718   7.912   1.510  0.00  0.00    +0.000 OA
ATOM     18  H   UNL     1       7.094   8.640   1.315  0.00  0.00    +0.000 HD
ENDBRANCH  15  17
ENDBRANCH  14  15
ENDBRANCH   1  14
TORSDOF 7
ENDMDL
MODEL 2
REMARK VINA RESULT:    -5.871      0.055      1.191
REMARK INTER + INTRA:          -8.241
REMARK INTER:                  -7.965
REMARK INTRA:                  -0.277
REMARK UNBOUND:                -0.311
REMARK  Name = 
REMARK  10 active torsions:
REMARK  status: ('A' for Active; 'I' for Inactive)
REMARK    1  A    between atoms: C_1  and  C_2
REMARK    2  A    between atoms: C_5  and  N_8
REMARK    3  A    between atoms: N_8  and  C_9
REMARK    4  A    between atoms: N_8  and  C_13
REMARK    5  A    between atoms: C_9  and  C_10
REMARK    6  A    between atoms: C_10  and  C_11
REMARK    7  A    between atoms: C_10  and  O_12
REMARK    8  A    between atoms: C_13  and  C_14
REMARK    9  A    between atoms: C_14  and  C_15
REMARK   10  A    between atoms: C_14  and  O_16
REMARK                            x       y       z     vdW  Elec       q    Type
REMARK                         _______ _______ _______ _____ _____    ______ ____
ROOT
ATOM      1  N   UNL     1       8.710  10.395   3.985  0.00  0.00    +0.000 N 
ENDROOT
BRANCH   1   6
ATOM      2  C   UNL     1       9.382  10.520   9.718  0.00  0.00    +0.000 C 
ATOM      3  C   UNL     1       9.225  10.470   8.229  0.00  0.00    +0.000 A 
ATOM      4  C   UNL     1       9.952  11.323   7.405  0.00  0.00    +0.000 A 
ATOM      5  C   UNL     1       9.779  11.292   6.012  0.00  0.00    +0.000 A 
ATOM      6  C   UNL     1       8.864  10.434   5.377  0.00  0.00    +0.000 A 
ATOM      7  C   UNL     1       8.148   9.584   6.240  0.00  0.00    +0.000 A 
ATOM      8  C   UNL     1       8.312   9.603   7.635  0.00  0.00    +0.000 A 
ENDBRANCH   1   6
BRANCH   1   9
ATOM      9  C   UNL     1       9.178  11.530   3.154  0.00  0.00    +0.000 C 
BRANCH   9  10
ATOM     10  C   UNL     1      10.531  11.246   2.457  0.00  0.00    +0.000 C 
ATOM     11  C   UNL     1      11.295  10.142   3.179  0.00  0.00    +0.000 C 
BRANCH  10  12
ATOM     12  O   UNL     1      10.333  10.833   1.098  0.00  0.00    +0.000 OA
ATOM     13  H   UNL     1       9.505  11.230   0.780  0.00  0.00    +0.000 HD
ENDBRANCH  10  12
ENDBRANCH   9  10
ENDBRANCH   1   9
BRANCH   1  14
ATOM     14  C   UNL     1       7.675   9.540   3.349  0.00  0.00    +0.000 C 
BRANCH  14  15
ATOM     15  C   UNL     1       8.269   8.230   2.779  0.00  0.00    +0.000 C 
ATOM     16  C   UNL     1       8.081   7.034   3.705  0.00  0.00    +0.000 C 
BRANCH  15  17
ATOM     17  O   UNL     1       7.702   7.901   1.512  0.00  0.00    +0.000 OA
ATOM     18  H   UNL     1       8.466   7.691   0.939  0.00  0.00    +0.000 HD
ENDBRANCH  15  17
ENDBRANCH  14  15
ENDBRANCH   1  14
TORSDOF 7
ENDMDL
MODEL 3
REMARK VINA RESULT:    -5.810      0.814      3.215
REMARK INTER + INTRA:          -8.158
REMARK INTER:                  -7.762
REMARK INTRA:                  -0.396
REMARK UNBOUND:                -0.311
REMARK  Name = 
REMARK  10 active torsions:
REMARK  status: ('A' for Active; 'I' for Inactive)
REMARK    1  A    between atoms: C_1  and  C_2
REMARK    2  A    between atoms: C_5  and  N_8
REMARK    3  A    between atoms: N_8  and  C_9
REMARK    4  A    between atoms: N_8  and  C_13
REMARK    5  A    between atoms: C_9  and  C_10
REMARK    6  A    between atoms: C_10  and  C_11
REMARK    7  A    between atoms: C_10  and  O_12
REMARK    8  A    between atoms: C_13  and  C_14
REMARK    9  A    between atoms: C_14  and  C_15
REMARK   10  A    between atoms: C_14  and  O_16
REMARK                            x       y       z     vdW  Elec       q    Type
REMARK                         _______ _______ _______ _____ _____    ______ ____
ROOT
ATOM      1  N   UNL     1       9.185   9.821   4.230  0.00  0.00    +0.000 N 
ENDROOT
BRANCH   1   6
ATOM      2  C   UNL     1       9.942  11.446   9.718  0.00  0.00    +0.000 C 
ATOM      3  C   UNL     1       9.760  11.005   8.298  0.00  0.00    +0.000 A 
ATOM      4  C   UNL     1      10.581  11.495   7.287  0.00  0.00    +0.000 A 
ATOM      5  C   UNL     1      10.387  11.101   5.953  0.00  0.00    +0.000 A 
ATOM      6  C   UNL     1       9.360  10.225   5.560  0.00  0.00    +0.000 A 
ATOM      7  C   UNL     1       8.551   9.747   6.608  0.00  0.00    +0.000 A 
ATOM      8  C   UNL     1       8.735  10.131   7.946  0.00  0.00    +0.000 A 
ENDBRANCH   1   6
BRANCH   1   9
ATOM      9  C   UNL     1       8.026   8.974   3.857  0.00  0.00    +0.000 C 
BRANCH   9  10
ATOM     10  C   UNL     1       8.415   7.806   2.917  0.00  0.00    +0.000 C 
ATOM     11  C   UNL     1       8.087   6.461   3.555  0.00  0.00    +0.000 C 
BRANCH  10  12
ATOM     12  O   UNL     1       7.709   7.891   1.672  0.00  0.00    +0.000 OA
ATOM     13  H   UNL     1       8.365   7.928   0.956  0.00  0.00    +0.000 HD
ENDBRANCH  10  12
ENDBRANCH   9  10
ENDBRANCH   1   9
BRANCH   1  14
ATOM     14  C   UNL     1      10.331   9.762   3.287  0.00  0.00    +0.000 C 
BRANCH  14  15
ATOM     15  C   UNL     1      10.275  10.888   2.228  0.00  0.00    +0.000 C 
ATOM     16  C   UNL     1       9.314  12.012   2.598  0.00  0.00    +0.000 C 
BRANCH  15  17
ATOM     17  O   UNL     1      11.560  11.463   2.000  0.00  0.00    +0.000 OA
ATOM     18  H   UNL     1      12.188  10.866   2.455  0.00  0.00    +0.000 HD
ENDBRANCH  15  17
ENDBRANCH  14  15
ENDBRANCH   1  14
TORSDOF 7
ENDMDL
MODEL 4
REMARK VINA RESULT:    -5.477      1.258      1.756
REMARK INTER + INTRA:          -7.709
REMARK INTER:                  -7.480
REMARK INTRA:                  -0.229
REMARK UNBOUND:                -0.311
REMARK  Name = 
REMARK  10 active torsions:
REMARK  status: ('A' for Active; 'I' for Inactive)
REMARK    1  A    between atoms: C_1  and  C_2
REMARK    2  A    between atoms: C_5  and  N_8
REMARK    3  A    between atoms: N_8  and  C_9
REMARK    4  A    between atoms: N_8  and  C_13
REMARK    5  A    between atoms: C_9  and  C_10
REMARK    6  A    between atoms: C_10  and  C_11
REMARK    7  A    between atoms: C_10  and  O_12
REMARK    8  A    between atoms: C_13  and  C_14
REMARK    9  A    between atoms: C_14  and  C_15
REMARK   10  A    between atoms: C_14  and  O_16
REMARK                            x       y       z     vdW  Elec       q    Type
REMARK                         _______ _______ _______ _____ _____    ______ ____
ROOT
ATOM      1  N   UNL     1       8.593  10.132   4.198  0.00  0.00    +0.000 N 
ENDROOT
BRANCH   1   6
ATOM      2  C   UNL     1      10.024  11.180   9.692  0.00  0.00    +0.000 C 
ATOM      3  C   UNL     1       9.669  10.889   8.267  0.00  0.00    +0.000 A 
ATOM      4  C   UNL     1      10.362  11.487   7.220  0.00  0.00    +0.000 A 
ATOM      5  C   UNL     1      10.005  11.234   5.886  0.00  0.00    +0.000 A 
ATOM      6  C   UNL     1       8.932  10.396   5.531  0.00  0.00    +0.000 A 
ATOM      7  C   UNL     1       8.254   9.807   6.614  0.00  0.00    +0.000 A 
ATOM      8  C   UNL     1       8.603  10.050   7.953  0.00  0.00    +0.000 A 
ENDBRANCH   1   6
BRANCH   1   9
ATOM      9  C   UNL     1       9.206  10.925   3.105  0.00  0.00    +0.000 C 
BRANCH   9  10
ATOM     10  C   UNL     1      10.344  10.166   2.379  0.00  0.00    +0.000 C 
ATOM     11  C   UNL     1      11.598  11.027   2.282  0.00  0.00    +0.000 C 
BRANCH  10  12
ATOM     12  O   UNL     1      10.686   8.961   3.077  0.00  0.00    +0.000 OA
ATOM     13  H   UNL     1      10.049   8.273   2.820  0.00  0.00    +0.000 HD
ENDBRANCH  10  12
ENDBRANCH   9  10
ENDBRANCH   1   9
BRANCH   1  14
ATOM     14  C   UNL     1       7.310   9.472   3.847  0.00  0.00    +0.000 C 
BRANCH  14  15
ATOM     15  C   UNL     1       7.474   7.946   3.647  0.00  0.00    +0.000 C 
ATOM     16  C   UNL     1       7.936   7.572   2.243  0.00  0.00    +0.000 C 
BRANCH  15  17
ATOM     17  O   UNL     1       8.398   7.388   4.580  0.00  0.00    +0.000 OA
ATOM     18  H   UNL     1       9.265   7.422   4.127  0.00  0.00    +0.000 HD
ENDBRANCH  15  17
ENDBRANCH  14  15
ENDBRANCH   1  14
TORSDOF 7
ENDMDL
MODEL 5
REMARK VINA RESULT:    -4.881      1.675      3.346
REMARK INTER + INTRA:          -6.904
REMARK INTER:                  -7.280
REMARK INTRA:                   0.377
REMARK UNBOUND:                -0.311
REMARK  Name = 
REMARK  10 active torsions:
REMARK  status: ('A' for Active; 'I' for Inactive)
REMARK    1  A    between atoms: C_1  and  C_2
REMARK    2  A    between atoms: C_5  and  N_8
REMARK    3  A    between atoms: N_8  and  C_9
REMARK    4  A    between atoms: N_8  and  C_13
REMARK    5  A    between atoms: C_9  and  C_10
REMARK    6  A    between atoms: C_10  and  C_11
REMARK    7  A    between atoms: C_10  and  O_12
REMARK    8  A    between atoms: C_13  and  C_14
REMARK    9  A    between atoms: C_14  and  C_15
REMARK   10  A    between atoms: C_14  and  O_16
REMARK                            x       y       z     vdW  Elec       q    Type
REMARK                         _______ _______ _______ _____ _____    ______ ____
ROOT
ATOM      1  N   UNL     1       8.934  11.348   4.465  0.00  0.00    +0.000 N 
ENDROOT
BRANCH   1   6
ATOM      2  C   UNL     1      11.961  11.830   9.357  0.00  0.00    +0.000 C 
ATOM      3  C   UNL     1      11.188  11.725   8.078  0.00  0.00    +0.000 A 
ATOM      4  C   UNL     1       9.966  12.372   7.926  0.00  0.00    +0.000 A 
ATOM      5  C   UNL     1       9.231  12.246   6.736  0.00  0.00    +0.000 A 
ATOM      6  C   UNL     1       9.662  11.454   5.656  0.00  0.00    +0.000 A 
ATOM      7  C   UNL     1      10.902  10.816   5.844  0.00  0.00    +0.000 A 
ATOM      8  C   UNL     1      11.648  10.936   7.028  0.00  0.00    +0.000 A 
ENDBRANCH   1   6
BRANCH   1   9
ATOM      9  C   UNL     1       7.778  10.423   4.380  0.00  0.00    +0.000 C 
BRANCH   9  10
ATOM     10  C   UNL     1       8.048   9.061   5.066  0.00  0.00    +0.000 C 
ATOM     11  C   UNL     1       7.697   9.119   6.548  0.00  0.00    +0.000 C 
BRANCH  10  12
ATOM     12  O   UNL     1       7.268   8.019   4.465  0.00  0.00    +0.000 OA
ATOM     13  H   UNL     1       6.926   7.450   5.175  0.00  0.00    +0.000 HD
ENDBRANCH  10  12
ENDBRANCH   9  10
ENDBRANCH   1   9
BRANCH   1  14
ATOM     14  C   UNL     1       9.540  11.712   3.158  0.00  0.00    +0.000 C 
BRANCH  14  15
ATOM     15  C   UNL     1      10.767  10.832   2.818  0.00  0.00    +0.000 C 
ATOM     16  C   UNL     1      10.389   9.450   2.299  0.00  0.00    +0.000 C 
BRANCH  15  17
ATOM     17  O   UNL     1      11.608  11.453   1.847  0.00  0.00    +0.000 OA
ATOM     18  H   UNL     1      12.379  11.780   2.353  0.00  0.00    +0.000 HD
ENDBRANCH  15  17
ENDBRANCH  14  15
ENDBRANCH   1  14
TORSDOF 7
ENDMDL
MODEL 6
REMARK VINA RESULT:    -4.877      3.738      6.252
REMARK INTER + INTRA:          -6.898
REMARK INTER:                  -6.321
REMARK INTRA:                  -0.577
REMARK UNBOUND:                -0.311
REMARK  Name = 
REMARK  10 active torsions:
REMARK  status: ('A' for Active; 'I' for Inactive)
REMARK    1  A    between atoms: C_1  and  C_2
REMARK    2  A    between atoms: C_5  and  N_8
REMARK    3  A    between atoms: N_8  and  C_9
REMARK    4  A    between atoms: N_8  and  C_13
REMARK    5  A    between atoms: C_9  and  C_10
REMARK    6  A    between atoms: C_10  and  C_11
REMARK    7  A    between atoms: C_10  and  O_12
REMARK    8  A    between atoms: C_13  and  C_14
REMARK    9  A    between atoms: C_14  and  C_15
REMARK   10  A    between atoms: C_14  and  O_16
REMARK                            x       y       z     vdW  Elec       q    Type
REMARK                         _______ _______ _______ _____ _____    ______ ____
ROOT
ATOM      1  N   UNL     1      10.515  11.465   8.227  0.00  0.00    +0.000 N 
ENDROOT
BRANCH   1   6
ATOM      2  C   UNL     1       8.588  11.473   2.785  0.00  0.00    +0.000 C 
ATOM      3  C   UNL     1       9.104  11.489   4.191  0.00  0.00    +0.000 A 
ATOM      4  C   UNL     1      10.141  10.649   4.581  0.00  0.00    +0.000 A 
ATOM      5  C   UNL     1      10.601  10.647   5.908  0.00  0.00    +0.000 A 
ATOM      6  C   UNL     1      10.038  11.458   6.910  0.00  0.00    +0.000 A 
ATOM      7  C   UNL     1       8.993  12.296   6.479  0.00  0.00    +0.000 A 
ATOM      8  C   UNL     1       8.526  12.310   5.155  0.00  0.00    +0.000 A 
ENDBRANCH   1   6
BRANCH   1   9
ATOM      9  C   UNL     1       9.578  11.256   9.357  0.00  0.00    +0.000 C 
BRANCH   9  10
ATOM     10  C   UNL     1       9.359   9.759   9.686  0.00  0.00    +0.000 C 
ATOM     11  C   UNL     1       8.466   9.097   8.643  0.00  0.00    +0.000 C 
BRANCH  10  12
ATOM     12  O   UNL     1      10.606   9.051   9.717  0.00  0.00    +0.000 OA
ATOM     13  H   UNL     1      11.299   9.674   9.993  0.00  0.00    +0.000 HD
ENDBRANCH  10  12
ENDBRANCH   9  10
ENDBRANCH   1   9
BRANCH   1  14
ATOM     14  C   UNL     1      11.779  12.159   8.584  0.00  0.00    +0.000 C 
BRANCH  14  15
ATOM     15  C   UNL     1      13.025  11.290   8.290  0.00  0.00    +0.000 C 
ATOM     16  C   UNL     1      14.336  11.983   8.644  0.00  0.00    +0.000 C 
BRANCH  15  17
ATOM     17  O   UNL     1      12.979  10.048   8.989  0.00  0.00    +0.000 OA
ATOM     18  H   UNL     1      12.105   9.666   8.769  0.00  0.00    +0.000 HD
ENDBRANCH  15  17
ENDBRANCH  14  15
ENDBRANCH   1  14
TORSDOF 7
ENDMDL
MODEL 7
REMARK VINA RESULT:    -4.530      3.105      6.061
REMARK INTER + INTRA:          -6.430
REMARK INTER:                  -6.268
REMARK INTRA:                  -0.161
REMARK UNBOUND:                -0.311
REMARK  Name = 
REMARK  10 active torsions:
REMARK  status: ('A' for Active; 'I' for Inactive)
REMARK    1  A    between atoms: C_1  and  C_2
REMARK    2  A    between atoms: C_5  and  N_8
REMARK    3  A    between atoms: N_8  and  C_9
REMARK    4  A    between atoms: N_8  and  C_13
REMARK    5  A    between atoms: C_9  and  C_10
REMARK    6  A    between atoms: C_10  and  C_11
REMARK    7  A    between atoms: C_10  and  O_12
REMARK    8  A    between atoms: C_13  and  C_14
REMARK    9  A    between atoms: C_14  and  C_15
REMARK   10  A    between atoms: C_14  and  O_16
REMARK                            x       y       z     vdW  Elec       q    Type
REMARK                         _______ _______ _______ _____ _____    ______ ____
ROOT
ATOM      1  N   UNL     1       9.018  10.479   6.651  0.00  0.00    +0.000 N 
ENDROOT
BRANCH   1   6
ATOM      2  C   UNL     1       8.241   7.508   1.762  0.00  0.00    +0.000 C 
ATOM      3  C   UNL     1       8.428   8.297   3.021  0.00  0.00    +0.000 A 
ATOM      4  C   UNL     1       9.496   9.178   3.161  0.00  0.00    +0.000 A 
ATOM      5  C   UNL     1       9.684   9.892   4.355  0.00  0.00    +0.000 A 
ATOM      6  C   UNL     1       8.837   9.749   5.469  0.00  0.00    +0.000 A 
ATOM      7  C   UNL     1       7.767   8.852   5.292  0.00  0.00    +0.000 A 
ATOM      8  C   UNL     1       7.567   8.133   4.102  0.00  0.00    +0.000 A 
ENDBRANCH   1   6
BRANCH   1   9
ATOM      9  C   UNL     1       8.096  10.284   7.795  0.00  0.00    +0.000 C 
BRANCH   9  10
ATOM     10  C   UNL     1       8.465   9.055   8.661  0.00  0.00    +0.000 C 
ATOM     11  C   UNL     1       9.499   9.425   9.718  0.00  0.00    +0.000 C 
BRANCH  10  12
ATOM     12  O   UNL     1       7.311   8.533   9.333  0.00  0.00    +0.000 OA
ATOM     13  H   UNL     1       6.580   9.161   9.209  0.00  0.00    +0.000 HD
ENDBRANCH  10  12
ENDBRANCH   9  10
ENDBRANCH   1   9
BRANCH   1  14
ATOM     14  C   UNL     1       9.747  11.773   6.650  0.00  0.00    +0.000 C 
BRANCH  14  15
ATOM     15  C   UNL     1      10.264  12.154   8.058  0.00  0.00    +0.000 C 
ATOM     16  C   UNL     1      11.766  11.951   8.220  0.00  0.00    +0.000 C 
BRANCH  15  17
ATOM     17  O   UNL     1       9.964  13.510   8.382  0.00  0.00    +0.000 OA
ATOM     18  H   UNL     1      10.130  13.584   9.343  0.00  0.00    +0.000 HD
ENDBRANCH  15  17
ENDBRANCH  14  15
ENDBRANCH   1  14
TORSDOF 7
ENDMDL
MODEL 8
REMARK VINA RESULT:    -4.335      3.678      5.758
REMARK INTER + INTRA:          -6.166
REMARK INTER:                  -6.269
REMARK INTRA:                   0.103
REMARK UNBOUND:                -0.311
REMARK  Name = 
REMARK  10 active torsions:
REMARK  status: ('A' for Active; 'I' for Inactive)
REMARK    1  A    between atoms: C_1  and  C_2
REMARK    2  A    between atoms: C_5  and  N_8
REMARK    3  A    between atoms: N_8  and  C_9
REMARK    4  A    between atoms: N_8  and  C_13
REMARK    5  A    between atoms: C_9  and  C_10
REMARK    6  A    between atoms: C_10  and  C_11
REMARK    7  A    between atoms: C_10  and  O_12
REMARK    8  A    between atoms: C_13  and  C_14
REMARK    9  A    between atoms: C_14  and  C_15
REMARK   10  A    between atoms: C_14  and  O_16
REMARK                            x       y       z     vdW  Elec       q    Type
REMARK                         _______ _______ _______ _____ _____    ______ ____
ROOT
ATOM      1  N   UNL     1      10.984  11.461   7.820  0.00  0.00    +0.000 N 
ENDROOT
BRANCH   1   6
ATOM      2  C   UNL     1       8.171  11.165   2.787  0.00  0.00    +0.000 C 
ATOM      3  C   UNL     1       8.915  11.261   4.084  0.00  0.00    +0.000 A 
ATOM      4  C   UNL     1      10.054  10.497   4.312  0.00  0.00    +0.000 A 
ATOM      5  C   UNL     1      10.730  10.569   5.541  0.00  0.00    +0.000 A 
ATOM      6  C   UNL     1      10.294  11.380   6.604  0.00  0.00    +0.000 A 
ATOM      7  C   UNL     1       9.140  12.140   6.337  0.00  0.00    +0.000 A 
ATOM      8  C   UNL     1       8.456  12.080   5.112  0.00  0.00    +0.000 A 
ENDBRANCH   1   6
BRANCH   1   9
ATOM      9  C   UNL     1      12.370  10.943   7.924  0.00  0.00    +0.000 C 
BRANCH   9  10
ATOM     10  C   UNL     1      13.337  11.948   8.596  0.00  0.00    +0.000 C 
ATOM     11  C   UNL     1      14.125  11.280   9.717  0.00  0.00    +0.000 C 
BRANCH  10  12
ATOM     12  O   UNL     1      14.274  12.475   7.646  0.00  0.00    +0.000 OA
ATOM     13  H   UNL     1      14.635  11.731   7.136  0.00  0.00    +0.000 HD
ENDBRANCH  10  12
ENDBRANCH   9  10
ENDBRANCH   1   9
BRANCH   1  14
ATOM     14  C   UNL     1      10.257  11.565   9.111  0.00  0.00    +0.000 C 
BRANCH  14  15
ATOM     15  C   UNL     1       9.944  10.176   9.718  0.00  0.00    +0.000 C 
ATOM     16  C   UNL     1       8.819   9.445   8.994  0.00  0.00    +0.000 C 
BRANCH  15  17
ATOM     17  O   UNL     1      11.093   9.330   9.718  0.00  0.00    +0.000 OA
ATOM     18  H   UNL     1      11.768   9.820   9.209  0.00  0.00    +0.000 HD
ENDBRANCH  15  17
ENDBRANCH  14  15
ENDBRANCH   1  14
TORSDOF 7
ENDMDL
MODEL 9
REMARK VINA RESULT:    -4.124      3.331      5.497
REMARK INTER + INTRA:          -5.881
REMARK INTER:                  -5.875
REMARK INTRA:                  -0.006
REMARK UNBOUND:                -0.311
REMARK  Name = 
REMARK  10 active torsions:
REMARK  status: ('A' for Active; 'I' for Inactive)
REMARK    1  A    between atoms: C_1  and  C_2
REMARK    2  A    between atoms: C_5  and  N_8
REMARK    3  A    between atoms: N_8  and  C_9
REMARK    4  A    between atoms: N_8  and  C_13
REMARK    5  A    between atoms: C_9  and  C_10
REMARK    6  A    between atoms: C_10  and  C_11
REMARK    7  A    between atoms: C_10  and  O_12
REMARK    8  A    between atoms: C_13  and  C_14
REMARK    9  A    between atoms: C_14  and  C_15
REMARK   10  A    between atoms: C_14  and  O_16
REMARK                            x       y       z     vdW  Elec       q    Type
REMARK                         _______ _______ _______ _____ _____    ______ ____
ROOT
ATOM      1  N   UNL     1      10.323  11.224   7.487  0.00  0.00    +0.000 N 
ENDROOT
BRANCH   1   6
ATOM      2  C   UNL     1       8.338  11.637   2.082  0.00  0.00    +0.000 C 
ATOM      3  C   UNL     1       8.870  11.547   3.479  0.00  0.00    +0.000 A 
ATOM      4  C   UNL     1       9.851  10.619   3.812  0.00  0.00    +0.000 A 
ATOM      5  C   UNL     1      10.325  10.518   5.130  0.00  0.00    +0.000 A 
ATOM      6  C   UNL     1       9.832  11.316   6.179  0.00  0.00    +0.000 A 
ATOM      7  C   UNL     1       8.843  12.245   5.806  0.00  0.00    +0.000 A 
ATOM      8  C   UNL     1       8.362  12.357   4.491  0.00  0.00    +0.000 A 
ENDBRANCH   1   6
BRANCH   1   9
ATOM      9  C   UNL     1      11.774  11.032   7.725  0.00  0.00    +0.000 C 
BRANCH   9  10
ATOM     10  C   UNL     1      12.182  11.295   9.195  0.00  0.00    +0.000 C 
ATOM     11  C   UNL     1      13.698  11.327   9.343  0.00  0.00    +0.000 C 
BRANCH  10  12
ATOM     12  O   UNL     1      11.665  12.552   9.655  0.00  0.00    +0.000 OA
ATOM     13  H   UNL     1      10.973  12.838   9.035  0.00  0.00    +0.000 HD
ENDBRANCH  10  12
ENDBRANCH   9  10
ENDBRANCH   1   9
BRANCH   1  14
ATOM     14  C   UNL     1       9.446  10.804   8.610  0.00  0.00    +0.000 C 
BRANCH  14  15
ATOM     15  C   UNL     1       8.875   9.380   8.405  0.00  0.00    +0.000 C 
ATOM     16  C   UNL     1       8.546   8.673   9.714  0.00  0.00    +0.000 C 
BRANCH  15  17
ATOM     17  O   UNL     1       7.696   9.395   7.602  0.00  0.00    +0.000 OA
ATOM     18  H   UNL     1       7.126   8.695   7.978  0.00  0.00    +0.000 HD
ENDBRANCH  15  17
ENDBRANCH  14  15
ENDBRANCH   1  14
TORSDOF 7
ENDMDL
