MODEL 1
REMARK VINA RESULT:    -4.651      0.000      0.000
REMARK INTER + INTRA:          -6.772
REMARK INTER:                  -6.282
REMARK INTRA:                  -0.490
REMARK UNBOUND:                -0.490
REMARK  Name = 
REMARK  10 active torsions:
REMARK  status: ('A' for Active; 'I' for Inactive)
REMARK    1  A    between atoms: C_1  and  C_2
REMARK    2  A    between atoms: C_5  and  N_8
REMARK    3  A    between atoms: N_8  and  C_9
REMARK    4  A    between atoms: N_8  and  C_13
REMARK    5  A    between atoms: C_9  and  C_10
REMARK    6  A    between atoms: C_10  and  C_11
REMARK    7  A    between atoms: C_10  and  O_12
REMARK    8  A    between atoms: C_13  and  C_14
REMARK    9  A    between atoms: C_14  and  C_15
REMARK   10  A    between atoms: C_14  and  O_16
REMARK                            x       y       z     vdW  Elec       q    Type
REMARK                         _______ _______ _______ _____ _____    ______ ____
ROOT
ATOM      1  N   UNL     1      -4.801  14.976  -2.831  0.00  0.00    +0.000 N 
ENDROOT
BRANCH   1   6
ATOM      2  C   UNL     1      -3.036  15.608   2.629  0.00  0.00    +0.000 C 
ATOM      3  C   UNL     1      -3.506  15.423   1.219  0.00  0.00    +0.000 A 
ATOM      4  C   UNL     1      -2.725  14.744   0.289  0.00  0.00    +0.000 A 
ATOM      5  C   UNL     1      -3.157  14.600  -1.040  0.00  0.00    +0.000 A 
ATOM      6  C   UNL     1      -4.368  15.141  -1.510  0.00  0.00    +0.000 A 
ATOM      7  C   UNL     1      -5.132  15.818  -0.542  0.00  0.00    +0.000 A 
ATOM      8  C   UNL     1      -4.713  15.968   0.790  0.00  0.00    +0.000 A 
ENDBRANCH   1   6
BRANCH   1   9
ATOM      9  C   UNL     1      -5.099  13.620  -3.353  0.00  0.00    +0.000 C 
BRANCH   9  10
ATOM     10  C   UNL     1      -6.612  13.292  -3.342  0.00  0.00    +0.000 C 
ATOM     11  C   UNL     1      -7.104  12.946  -4.742  0.00  0.00    +0.000 C 
BRANCH  10  12
ATOM     12  O   UNL     1      -6.890  12.176  -2.485  0.00  0.00    +0.000 OA
ATOM     13  H   UNL     1      -6.092  11.623  -2.442  0.00  0.00    +0.000 HD
ENDBRANCH  10  12
ENDBRANCH   9  10
ENDBRANCH   1   9
BRANCH   1  14
ATOM     14  C   UNL     1      -4.501  15.993  -3.871  0.00  0.00    +0.000 C 
BRANCH  14  15
ATOM     15  C   UNL     1      -3.943  15.356  -5.167  0.00  0.00    +0.000 C 
ATOM     16  C   UNL     1      -4.604  15.893  -6.431  0.00  0.00    +0.000 C 
BRANCH  15  17
ATOM     17  O   UNL     1      -2.535  15.553  -5.287  0.00  0.00    +0.000 OA
ATOM     18  H   UNL     1      -2.438  16.398  -5.771  0.00  0.00    +0.000 HD
ENDBRANCH  15  17
ENDBRANCH  14  15
ENDBRANCH   1  14
TORSDOF 7
ENDMDL
MODEL 2
REMARK VINA RESULT:    -4.434      0.402      3.341
REMARK INTER + INTRA:          -6.479
REMARK INTER:                  -5.985
REMARK INTRA:                  -0.494
REMARK UNBOUND:                -0.490
REMARK  Name = 
REMARK  10 active torsions:
REMARK  status: ('A' for Active; 'I' for Inactive)
REMARK    1  A    between atoms: C_1  and  C_2
REMARK    2  A    between atoms: C_5  and  N_8
REMARK    3  A    between atoms: N_8  and  C_9
REMARK    4  A    between atoms: N_8  and  C_13
REMARK    5  A    between atoms: C_9  and  C_10
REMARK    6  A    between atoms: C_10  and  C_11
REMARK    7  A    between atoms: C_10  and  O_12
REMARK    8  A    between atoms: C_13  and  C_14
REMARK    9  A    between atoms: C_14  and  C_15
REMARK   10  A    between atoms: C_14  and  O_16
REMARK                            x       y       z     vdW  Elec       q    Type
REMARK                         _______ _______ _______ _____ _____    ______ ____
ROOT
ATOM      1  N   UNL     1      -4.306  14.608  -2.975  0.00  0.00    +0.000 N 
ENDROOT
BRANCH   1   6
ATOM      2  C   UNL     1      -3.039  15.649   2.560  0.00  0.00    +0.000 C 
ATOM      3  C   UNL     1      -3.355  15.399   1.117  0.00  0.00    +0.000 A 
ATOM      4  C   UNL     1      -4.519  15.900   0.544  0.00  0.00    +0.000 A 
ATOM      5  C   UNL     1      -4.825  15.637  -0.802  0.00  0.00    +0.000 A 
ATOM      6  C   UNL     1      -4.004  14.849  -1.629  0.00  0.00    +0.000 A 
ATOM      7  C   UNL     1      -2.835  14.362  -1.017  0.00  0.00    +0.000 A 
ATOM      8  C   UNL     1      -2.516  14.619   0.327  0.00  0.00    +0.000 A 
ENDBRANCH   1   6
BRANCH   1   9
ATOM      9  C   UNL     1      -4.338  15.731  -3.943  0.00  0.00    +0.000 C 
BRANCH   9  10
ATOM     10  C   UNL     1      -3.819  15.330  -5.346  0.00  0.00    +0.000 C 
ATOM     11  C   UNL     1      -4.551  16.100  -6.438  0.00  0.00    +0.000 C 
BRANCH  10  12
ATOM     12  O   UNL     1      -2.417  15.603  -5.473  0.00  0.00    +0.000 OA
ATOM     13  H   UNL     1      -1.971  15.265  -4.679  0.00  0.00    +0.000 HD
ENDBRANCH  10  12
ENDBRANCH   9  10
ENDBRANCH   1   9
BRANCH   1  14
ATOM     14  C   UNL     1      -5.076  13.406  -3.387  0.00  0.00    +0.000 C 
BRANCH  14  15
ATOM     15  C   UNL     1      -6.598  13.679  -3.445  0.00  0.00    +0.000 C 
ATOM     16  C   UNL     1      -7.211  13.372  -4.807  0.00  0.00    +0.000 C 
BRANCH  15  17
ATOM     17  O   UNL     1      -7.307  12.927  -2.462  0.00  0.00    +0.000 OA
ATOM     18  H   UNL     1      -8.007  12.458  -2.959  0.00  0.00    +0.000 HD
ENDBRANCH  15  17
ENDBRANCH  14  15
ENDBRANCH   1  14
TORSDOF 7
ENDMDL
MODEL 3
REMARK VINA RESULT:    -4.347      2.652      4.219
REMARK INTER + INTRA:          -6.363
REMARK INTER:                  -5.960
REMARK INTRA:                  -0.403
REMARK UNBOUND:                -0.490
REMARK  Name = 
REMARK  10 active torsions:
REMARK  status: ('A' for Active; 'I' for Inactive)
REMARK    1  A    between atoms: C_1  and  C_2
REMARK    2  A    between atoms: C_5  and  N_8
REMARK    3  A    between atoms: N_8  and  C_9
REMARK    4  A    between atoms: N_8  and  C_13
REMARK    5  A    between atoms: C_9  and  C_10
REMARK    6  A    between atoms: C_10  and  C_11
REMARK    7  A    between atoms: C_10  and  O_12
REMARK    8  A    between atoms: C_13  and  C_14
REMARK    9  A    between atoms: C_14  and  C_15
REMARK   10  A    between atoms: C_14  and  O_16
REMARK                            x       y       z     vdW  Elec       q    Type
REMARK                         _______ _______ _______ _____ _____    ______ ____
ROOT
ATOM      1  N   UNL     1      -3.638  15.579  -0.079  0.00  0.00    +0.000 N 
ENDROOT
BRANCH   1   6
ATOM      2  C   UNL     1      -2.839  16.994   5.461  0.00  0.00    +0.000 C 
ATOM      3  C   UNL     1      -3.070  16.634   4.025  0.00  0.00    +0.000 A 
ATOM      4  C   UNL     1      -3.434  15.341   3.663  0.00  0.00    +0.000 A 
ATOM      5  C   UNL     1      -3.620  15.001   2.313  0.00  0.00    +0.000 A 
ATOM      6  C   UNL     1      -3.431  15.919   1.264  0.00  0.00    +0.000 A 
ATOM      7  C   UNL     1      -3.066  17.217   1.667  0.00  0.00    +0.000 A 
ATOM      8  C   UNL     1      -2.879  17.570   3.014  0.00  0.00    +0.000 A 
ENDBRANCH   1   6
BRANCH   1   9
ATOM      9  C   UNL     1      -4.952  15.833  -0.717  0.00  0.00    +0.000 C 
BRANCH   9  10
ATOM     10  C   UNL     1      -4.843  16.060  -2.245  0.00  0.00    +0.000 C 
ATOM     11  C   UNL     1      -6.114  15.608  -2.954  0.00  0.00    +0.000 C 
BRANCH  10  12
ATOM     12  O   UNL     1      -4.636  17.447  -2.545  0.00  0.00    +0.000 OA
ATOM     13  H   UNL     1      -3.699  17.652  -2.392  0.00  0.00    +0.000 HD
ENDBRANCH  10  12
ENDBRANCH   9  10
ENDBRANCH   1   9
BRANCH   1  14
ATOM     14  C   UNL     1      -2.812  14.539  -0.744  0.00  0.00    +0.000 C 
BRANCH  14  15
ATOM     15  C   UNL     1      -1.334  14.586  -0.287  0.00  0.00    +0.000 C 
ATOM     16  C   UNL     1      -0.865  13.290   0.363  0.00  0.00    +0.000 C 
BRANCH  15  17
ATOM     17  O   UNL     1      -0.455  14.879  -1.373  0.00  0.00    +0.000 OA
ATOM     18  H   UNL     1      -0.069  14.016  -1.625  0.00  0.00    +0.000 HD
ENDBRANCH  15  17
ENDBRANCH  14  15
ENDBRANCH   1  14
TORSDOF 7
ENDMDL
MODEL 4
REMARK VINA RESULT:    -4.323      2.490      4.270
REMARK INTER + INTRA:          -6.329
REMARK INTER:                  -5.912
REMARK INTRA:                  -0.418
REMARK UNBOUND:                -0.490
REMARK  Name = 
REMARK  10 active torsions:
REMARK  status: ('A' for Active; 'I' for Inactive)
REMARK    1  A    between atoms: C_1  and  C_2
REMARK    2  A    between atoms: C_5  and  N_8
REMARK    3  A    between atoms: N_8  and  C_9
REMARK    4  A    between atoms: N_8  and  C_13
REMARK    5  A    between atoms: C_9  and  C_10
REMARK    6  A    between atoms: C_10  and  C_11
REMARK    7  A    between atoms: C_10  and  O_12
REMARK    8  A    between atoms: C_13  and  C_14
REMARK    9  A    between atoms: C_14  and  C_15
REMARK   10  A    between atoms: C_14  and  O_16
REMARK                            x       y       z     vdW  Elec       q    Type
REMARK                         _______ _______ _______ _____ _____    ______ ____
ROOT
ATOM      1  N   UNL     1      -3.733  15.520  -0.061  0.00  0.00    +0.000 N 
ENDROOT
BRANCH   1   6
ATOM      2  C   UNL     1      -2.811  16.951   5.455  0.00  0.00    +0.000 C 
ATOM      3  C   UNL     1      -3.074  16.587   4.026  0.00  0.00    +0.000 A 
ATOM      4  C   UNL     1      -3.458  15.296   3.677  0.00  0.00    +0.000 A 
ATOM      5  C   UNL     1      -3.674  14.953   2.332  0.00  0.00    +0.000 A 
ATOM      6  C   UNL     1      -3.497  15.864   1.276  0.00  0.00    +0.000 A 
ATOM      7  C   UNL     1      -3.111  17.160   1.666  0.00  0.00    +0.000 A 
ATOM      8  C   UNL     1      -2.894  17.517   3.007  0.00  0.00    +0.000 A 
ENDBRANCH   1   6
BRANCH   1   9
ATOM      9  C   UNL     1      -2.858  14.535  -0.741  0.00  0.00    +0.000 C 
BRANCH   9  10
ATOM     10  C   UNL     1      -1.379  14.636  -0.292  0.00  0.00    +0.000 C 
ATOM     11  C   UNL     1      -0.915  13.336   0.352  0.00  0.00    +0.000 C 
BRANCH  10  12
ATOM     12  O   UNL     1      -0.520  14.911  -1.408  0.00  0.00    +0.000 OA
ATOM     13  H   UNL     1      -0.303  15.858  -1.396  0.00  0.00    +0.000 HD
ENDBRANCH  10  12
ENDBRANCH   9  10
ENDBRANCH   1   9
BRANCH   1  14
ATOM     14  C   UNL     1      -4.471  16.433  -0.972  0.00  0.00    +0.000 C 
BRANCH  14  15
ATOM     15  C   UNL     1      -4.704  15.804  -2.366  0.00  0.00    +0.000 C 
ATOM     16  C   UNL     1      -6.097  15.208  -2.530  0.00  0.00    +0.000 C 
BRANCH  15  17
ATOM     17  O   UNL     1      -4.504  16.753  -3.413  0.00  0.00    +0.000 OA
ATOM     18  H   UNL     1      -5.380  16.849  -3.838  0.00  0.00    +0.000 HD
ENDBRANCH  15  17
ENDBRANCH  14  15
ENDBRANCH   1  14
TORSDOF 7
ENDMDL
MODEL 5
REMARK VINA RESULT:    -4.302      3.642      6.119
REMARK INTER + INTRA:          -6.301
REMARK INTER:                  -5.776
REMARK INTRA:                  -0.525
REMARK UNBOUND:                -0.490
REMARK  Name = 
REMARK  10 active torsions:
REMARK  status: ('A' for Active; 'I' for Inactive)
REMARK    1  A    between atoms: C_1  and  C_2
REMARK    2  A    between atoms: C_5  and  N_8
REMARK    3  A    between atoms: N_8  and  C_9
REMARK    4  A    between atoms: N_8  and  C_13
REMARK    5  A    between atoms: C_9  and  C_10
REMARK    6  A    between atoms: C_10  and  C_11
REMARK    7  A    between atoms: C_10  and  O_12
REMARK    8  A    between atoms: C_13  and  C_14
REMARK    9  A    between atoms: C_14  and  C_15
REMARK   10  A    between atoms: C_14  and  O_16
REMARK                            x       y       z     vdW  Elec       q    Type
REMARK                         _______ _______ _______ _____ _____    ______ ____
ROOT
ATOM      1  N   UNL     1      -3.197  16.133   1.984  0.00  0.00    +0.000 N 
ENDROOT
BRANCH   1   6
ATOM      2  C   UNL     1      -4.565  14.148  -3.262  0.00  0.00    +0.000 C 
ATOM      3  C   UNL     1      -4.221  14.643  -1.890  0.00  0.00    +0.000 A 
ATOM      4  C   UNL     1      -5.075  15.501  -1.206  0.00  0.00    +0.000 A 
ATOM      5  C   UNL     1      -4.733  15.986   0.067  0.00  0.00    +0.000 A 
ATOM      6  C   UNL     1      -3.523  15.661   0.706  0.00  0.00    +0.000 A 
ATOM      7  C   UNL     1      -2.685  14.790  -0.014  0.00  0.00    +0.000 A 
ATOM      8  C   UNL     1      -3.016  14.296  -1.287  0.00  0.00    +0.000 A 
ENDBRANCH   1   6
BRANCH   1   9
ATOM      9  C   UNL     1      -3.347  15.248   3.164  0.00  0.00    +0.000 C 
BRANCH   9  10
ATOM     10  C   UNL     1      -4.578  15.609   4.032  0.00  0.00    +0.000 C 
ATOM     11  C   UNL     1      -5.865  15.112   3.385  0.00  0.00    +0.000 C 
BRANCH  10  12
ATOM     12  O   UNL     1      -4.479  15.018   5.335  0.00  0.00    +0.000 OA
ATOM     13  H   UNL     1      -4.842  15.649   5.980  0.00  0.00    +0.000 HD
ENDBRANCH  10  12
ENDBRANCH   9  10
ENDBRANCH   1   9
BRANCH   1  14
ATOM     14  C   UNL     1      -3.197  17.587   2.290  0.00  0.00    +0.000 C 
BRANCH  14  15
ATOM     15  C   UNL     1      -2.365  18.399   1.268  0.00  0.00    +0.000 C 
ATOM     16  C   UNL     1      -3.135  19.564   0.659  0.00  0.00    +0.000 C 
BRANCH  15  17
ATOM     17  O   UNL     1      -1.171  18.916   1.853  0.00  0.00    +0.000 OA
ATOM     18  H   UNL     1      -1.448  19.738   2.308  0.00  0.00    +0.000 HD
ENDBRANCH  15  17
ENDBRANCH  14  15
ENDBRANCH   1  14
TORSDOF 7
ENDMDL
MODEL 6
REMARK VINA RESULT:    -4.207      3.130      5.705
REMARK INTER + INTRA:          -6.173
REMARK INTER:                  -5.604
REMARK INTRA:                  -0.569
REMARK UNBOUND:                -0.490
REMARK  Name = 
REMARK  10 active torsions:
REMARK  status: ('A' for Active; 'I' for Inactive)
REMARK    1  A    between atoms: C_1  and  C_2
REMARK    2  A    between atoms: C_5  and  N_8
REMARK    3  A    between atoms: N_8  and  C_9
REMARK    4  A    between atoms: N_8  and  C_13
REMARK    5  A    between atoms: C_9  and  C_10
REMARK    6  A    between atoms: C_10  and  C_11
REMARK    7  A    between atoms: C_10  and  O_12
REMARK    8  A    between atoms: C_13  and  C_14
REMARK    9  A    between atoms: C_14  and  C_15
REMARK   10  A    between atoms: C_14  and  O_16
REMARK                            x       y       z     vdW  Elec       q    Type
REMARK                         _______ _______ _______ _____ _____    ______ ____
ROOT
ATOM      1  N   UNL     1      -3.555  15.947  -0.405  0.00  0.00    +0.000 N 
ENDROOT
BRANCH   1   6
ATOM      2  C   UNL     1      -7.458  13.708  -4.021  0.00  0.00    +0.000 C 
ATOM      3  C   UNL     1      -6.438  14.305  -3.101  0.00  0.00    +0.000 A 
ATOM      4  C   UNL     1      -5.152  13.781  -3.023  0.00  0.00    +0.000 A 
ATOM      5  C   UNL     1      -4.209  14.326  -2.136  0.00  0.00    +0.000 A 
ATOM      6  C   UNL     1      -4.506  15.396  -1.273  0.00  0.00    +0.000 A 
ATOM      7  C   UNL     1      -5.814  15.902  -1.380  0.00  0.00    +0.000 A 
ATOM      8  C   UNL     1      -6.766  15.368  -2.264  0.00  0.00    +0.000 A 
ENDBRANCH   1   6
BRANCH   1   9
ATOM      9  C   UNL     1      -3.714  17.337   0.087  0.00  0.00    +0.000 C 
BRANCH   9  10
ATOM     10  C   UNL     1      -3.886  17.414   1.623  0.00  0.00    +0.000 C 
ATOM     11  C   UNL     1      -4.806  16.307   2.125  0.00  0.00    +0.000 C 
BRANCH  10  12
ATOM     12  O   UNL     1      -2.624  17.278   2.290  0.00  0.00    +0.000 OA
ATOM     13  H   UNL     1      -2.515  18.037   2.887  0.00  0.00    +0.000 HD
ENDBRANCH  10  12
ENDBRANCH   9  10
ENDBRANCH   1   9
BRANCH   1  14
ATOM     14  C   UNL     1      -2.167  15.421  -0.351  0.00  0.00    +0.000 C 
BRANCH  14  15
ATOM     15  C   UNL     1      -2.057  14.150   0.525  0.00  0.00    +0.000 C 
ATOM     16  C   UNL     1      -0.841  13.294   0.191  0.00  0.00    +0.000 C 
BRANCH  15  17
ATOM     17  O   UNL     1      -2.004  14.470   1.914  0.00  0.00    +0.000 OA
ATOM     18  H   UNL     1      -1.237  15.071   2.006  0.00  0.00    +0.000 HD
ENDBRANCH  15  17
ENDBRANCH  14  15
ENDBRANCH   1  14
TORSDOF 7
ENDMDL
MODEL 7
REMARK VINA RESULT:    -4.122      3.376      6.410
REMARK INTER + INTRA:          -6.058
REMARK INTER:                  -5.750
REMARK INTRA:                  -0.308
REMARK UNBOUND:                -0.490
REMARK  Name = 
REMARK  10 active torsions:
REMARK  status: ('A' for Active; 'I' for Inactive)
REMARK    1  A    between atoms: C_1  and  C_2
REMARK    2  A    between atoms: C_5  and  N_8
REMARK    3  A    between atoms: N_8  and  C_9
REMARK    4  A    between atoms: N_8  and  C_13
REMARK    5  A    between atoms: C_9  and  C_10
REMARK    6  A    between atoms: C_10  and  C_11
REMARK    7  A    between atoms: C_10  and  O_12
REMARK    8  A    between atoms: C_13  and  C_14
REMARK    9  A    between atoms: C_14  and  C_15
REMARK   10  A    between atoms: C_14  and  O_16
REMARK                            x       y       z     vdW  Elec       q    Type
REMARK                         _______ _______ _______ _____ _____    ______ ____
ROOT
ATOM      1  N   UNL     1      -4.733  16.544   1.581  0.00  0.00    +0.000 N 
ENDROOT
BRANCH   1   6
ATOM      2  C   UNL     1      -4.689  14.050  -3.626  0.00  0.00    +0.000 C 
ATOM      3  C   UNL     1      -4.709  14.675  -2.265  0.00  0.00    +0.000 A 
ATOM      4  C   UNL     1      -5.835  15.349  -1.804  0.00  0.00    +0.000 A 
ATOM      5  C   UNL     1      -5.837  15.959  -0.539  0.00  0.00    +0.000 A 
ATOM      6  C   UNL     1      -4.717  15.949   0.313  0.00  0.00    +0.000 A 
ATOM      7  C   UNL     1      -3.597  15.258  -0.185  0.00  0.00    +0.000 A 
ATOM      8  C   UNL     1      -3.583  14.641  -1.447  0.00  0.00    +0.000 A 
ENDBRANCH   1   6
BRANCH   1   9
ATOM      9  C   UNL     1      -5.812  17.493   1.944  0.00  0.00    +0.000 C 
BRANCH   9  10
ATOM     10  C   UNL     1      -6.761  16.934   3.033  0.00  0.00    +0.000 C 
ATOM     11  C   UNL     1      -7.372  15.608   2.595  0.00  0.00    +0.000 C 
BRANCH  10  12
ATOM     12  O   UNL     1      -6.059  16.716   4.264  0.00  0.00    +0.000 OA
ATOM     13  H   UNL     1      -5.629  15.846   4.215  0.00  0.00    +0.000 HD
ENDBRANCH  10  12
ENDBRANCH   9  10
ENDBRANCH   1   9
BRANCH   1  14
ATOM     14  C   UNL     1      -3.490  16.675   2.383  0.00  0.00    +0.000 C 
BRANCH  14  15
ATOM     15  C   UNL     1      -3.166  15.386   3.176  0.00  0.00    +0.000 C 
ATOM     16  C   UNL     1      -2.692  15.659   4.598  0.00  0.00    +0.000 C 
BRANCH  15  17
ATOM     17  O   UNL     1      -4.294  14.514   3.246  0.00  0.00    +0.000 OA
ATOM     18  H   UNL     1      -4.545  14.501   4.191  0.00  0.00    +0.000 HD
ENDBRANCH  15  17
ENDBRANCH  14  15
ENDBRANCH   1  14
TORSDOF 7
ENDMDL
MODEL 8
REMARK VINA RESULT:    -4.059      3.766      6.868
REMARK INTER + INTRA:          -5.973
REMARK INTER:                  -5.484
REMARK INTRA:                  -0.489
REMARK UNBOUND:                -0.490
REMARK  Name = 
REMARK  10 active torsions:
REMARK  status: ('A' for Active; 'I' for Inactive)
REMARK    1  A    between atoms: C_1  and  C_2
REMARK    2  A    between atoms: C_5  and  N_8
REMARK    3  A    between atoms: N_8  and  C_9
REMARK    4  A    between atoms: N_8  and  C_13
REMARK    5  A    between atoms: C_9  and  C_10
REMARK    6  A    between atoms: C_10  and  C_11
REMARK    7  A    between atoms: C_10  and  O_12
REMARK    8  A    between atoms: C_13  and  C_14
REMARK    9  A    between atoms: C_14  and  C_15
REMARK   10  A    between atoms: C_14  and  O_16
REMARK                            x       y       z     vdW  Elec       q    Type
REMARK                         _______ _______ _______ _____ _____    ______ ____
ROOT
ATOM      1  N   UNL     1      -4.111  16.537   1.785  0.00  0.00    +0.000 N 
ENDROOT
BRANCH   1   6
ATOM      2  C   UNL     1      -4.566  14.102  -3.430  0.00  0.00    +0.000 C 
ATOM      3  C   UNL     1      -4.437  14.754  -2.087  0.00  0.00    +0.000 A 
ATOM      4  C   UNL     1      -3.318  14.535  -1.291  0.00  0.00    +0.000 A 
ATOM      5  C   UNL     1      -3.217  15.124  -0.020  0.00  0.00    +0.000 A 
ATOM      6  C   UNL     1      -4.228  15.936   0.525  0.00  0.00    +0.000 A 
ATOM      7  C   UNL     1      -5.343  16.138  -0.309  0.00  0.00    +0.000 A 
ATOM      8  C   UNL     1      -5.456  15.557  -1.582  0.00  0.00    +0.000 A 
ENDBRANCH   1   6
BRANCH   1   9
ATOM      9  C   UNL     1      -3.823  17.988   1.893  0.00  0.00    +0.000 C 
BRANCH   9  10
ATOM     10  C   UNL     1      -2.328  18.321   1.669  0.00  0.00    +0.000 C 
ATOM     11  C   UNL     1      -2.171  19.595   0.847  0.00  0.00    +0.000 C 
BRANCH  10  12
ATOM     12  O   UNL     1      -1.650  18.512   2.918  0.00  0.00    +0.000 OA
ATOM     13  H   UNL     1      -0.868  19.066   2.755  0.00  0.00    +0.000 HD
ENDBRANCH  10  12
ENDBRANCH   9  10
ENDBRANCH   1   9
BRANCH   1  14
ATOM     14  C   UNL     1      -3.759  15.739   2.988  0.00  0.00    +0.000 C 
BRANCH  14  15
ATOM     15  C   UNL     1      -4.920  15.679   4.009  0.00  0.00    +0.000 C 
ATOM     16  C   UNL     1      -6.184  15.042   3.444  0.00  0.00    +0.000 C 
BRANCH  15  17
ATOM     17  O   UNL     1      -4.551  14.961   5.185  0.00  0.00    +0.000 OA
ATOM     18  H   UNL     1      -3.576  14.894   5.145  0.00  0.00    +0.000 HD
ENDBRANCH  15  17
ENDBRANCH  14  15
ENDBRANCH   1  14
TORSDOF 7
ENDMDL
MODEL 9
REMARK VINA RESULT:    -4.007      1.723      2.902
REMARK INTER + INTRA:          -5.903
REMARK INTER:                  -5.178
REMARK INTRA:                  -0.725
REMARK UNBOUND:                -0.490
REMARK  Name = 
REMARK  10 active torsions:
REMARK  status: ('A' for Active; 'I' for Inactive)
REMARK    1  A    between atoms: C_1  and  C_2
REMARK    2  A    between atoms: C_5  and  N_8
REMARK    3  A    between atoms: N_8  and  C_9
REMARK    4  A    between atoms: N_8  and  C_13
REMARK    5  A    between atoms: C_9  and  C_10
REMARK    6  A    between atoms: C_10  and  C_11
REMARK    7  A    between atoms: C_10  and  O_12
REMARK    8  A    between atoms: C_13  and  C_14
REMARK    9  A    between atoms: C_14  and  C_15
REMARK   10  A    between atoms: C_14  and  O_16
REMARK                            x       y       z     vdW  Elec       q    Type
REMARK                         _______ _______ _______ _____ _____    ______ ____
ROOT
ATOM      1  N   UNL     1      -5.282  15.401  -2.882  0.00  0.00    +0.000 N 
ENDROOT
BRANCH   1   6
ATOM      2  C   UNL     1      -2.807  15.137   2.328  0.00  0.00    +0.000 C 
ATOM      3  C   UNL     1      -3.436  15.227   0.971  0.00  0.00    +0.000 A 
ATOM      4  C   UNL     1      -4.634  15.907   0.782  0.00  0.00    +0.000 A 
ATOM      5  C   UNL     1      -5.235  15.962  -0.486  0.00  0.00    +0.000 A 
ATOM      6  C   UNL     1      -4.688  15.326  -1.616  0.00  0.00    +0.000 A 
ATOM      7  C   UNL     1      -3.475  14.649  -1.388  0.00  0.00    +0.000 A 
ATOM      8  C   UNL     1      -2.863  14.589  -0.126  0.00  0.00    +0.000 A 
ENDBRANCH   1   6
BRANCH   1   9
ATOM      9  C   UNL     1      -6.454  16.282  -3.102  0.00  0.00    +0.000 C 
BRANCH   9  10
ATOM     10  C   UNL     1      -6.059  17.695  -3.598  0.00  0.00    +0.000 C 
ATOM     11  C   UNL     1      -6.627  18.772  -2.682  0.00  0.00    +0.000 C 
BRANCH  10  12
ATOM     12  O   UNL     1      -4.633  17.848  -3.633  0.00  0.00    +0.000 OA
ATOM     13  H   UNL     1      -4.339  18.133  -2.752  0.00  0.00    +0.000 HD
ENDBRANCH  10  12
ENDBRANCH   9  10
ENDBRANCH   1   9
BRANCH   1  14
ATOM     14  C   UNL     1      -5.135  14.299  -3.866  0.00  0.00    +0.000 C 
BRANCH  14  15
ATOM     15  C   UNL     1      -4.267  14.710  -5.079  0.00  0.00    +0.000 C 
ATOM     16  C   UNL     1      -5.076  15.326  -6.215  0.00  0.00    +0.000 C 
BRANCH  15  17
ATOM     17  O   UNL     1      -3.249  15.638  -4.708  0.00  0.00    +0.000 OA
ATOM     18  H   UNL     1      -2.406  15.165  -4.865  0.00  0.00    +0.000 HD
ENDBRANCH  15  17
ENDBRANCH  14  15
ENDBRANCH   1  14
TORSDOF 7
ENDMDL
