MODEL 1
REMARK VINA RESULT:    -3.705      0.000      0.000
REMARK INTER + INTRA:          -4.916
REMARK INTER:                  -5.005
REMARK INTRA:                   0.089
REMARK UNBOUND:                 0.089
REMARK  Name = 
REMARK  10 active torsions:
REMARK  status: ('A' for Active; 'I' for Inactive)
REMARK    1  A    between atoms: C_1  and  C_2
REMARK    2  A    between atoms: C_5  and  N_8
REMARK    3  A    between atoms: N_8  and  C_9
REMARK    4  A    between atoms: N_8  and  C_13
REMARK    5  A    between atoms: C_9  and  C_10
REMARK    6  A    between atoms: C_10  and  C_11
REMARK    7  A    between atoms: C_10  and  O_12
REMARK    8  A    between atoms: C_13  and  C_14
REMARK    9  A    between atoms: C_14  and  C_15
REMARK   10  A    between atoms: C_14  and  O_16
REMARK                            x       y       z     vdW  Elec       q    Type
REMARK                         _______ _______ _______ _____ _____    ______ ____
ROOT
ATOM      1  N   UNL     1       0.860   3.641  11.579  0.00  0.00    +0.000 N 
ENDROOT
BRANCH   1   6
ATOM      2  C   UNL     1       0.841   8.452  14.771  0.00  0.00    +0.000 C 
ATOM      3  C   UNL     1       0.832   7.192  13.960  0.00  0.00    +0.000 A 
ATOM      4  C   UNL     1       1.825   6.232  14.119  0.00  0.00    +0.000 A 
ATOM      5  C   UNL     1       1.828   5.067  13.335  0.00  0.00    +0.000 A 
ATOM      6  C   UNL     1       0.862   4.814  12.344  0.00  0.00    +0.000 A 
ATOM      7  C   UNL     1      -0.128   5.805  12.212  0.00  0.00    +0.000 A 
ATOM      8  C   UNL     1      -0.144   6.973  12.991  0.00  0.00    +0.000 A 
ENDBRANCH   1   6
BRANCH   1   9
ATOM      9  C   UNL     1       0.457   2.353  12.194  0.00  0.00    +0.000 C 
BRANCH   9  10
ATOM     10  C   UNL     1       1.599   1.691  13.004  0.00  0.00    +0.000 C 
ATOM     11  C   UNL     1       1.520   2.080  14.475  0.00  0.00    +0.000 C 
BRANCH  10  12
ATOM     12  O   UNL     1       1.529   0.261  12.918  0.00  0.00    +0.000 OA
ATOM     13  H   UNL     1       0.609   0.016  12.722  0.00  0.00    +0.000 HD
ENDBRANCH  10  12
ENDBRANCH   9  10
ENDBRANCH   1   9
BRANCH   1  14
ATOM     14  C   UNL     1       1.703   3.515  10.362  0.00  0.00    +0.000 C 
BRANCH  14  15
ATOM     15  C   UNL     1       0.855   3.315   9.083  0.00  0.00    +0.000 C 
ATOM     16  C   UNL     1       1.558   3.792   7.817  0.00  0.00    +0.000 C 
BRANCH  15  17
ATOM     17  O   UNL     1       0.493   1.947   8.899  0.00  0.00    +0.000 OA
ATOM     18  H   UNL     1       1.108   1.444   9.470  0.00  0.00    +0.000 HD
ENDBRANCH  15  17
ENDBRANCH  14  15
ENDBRANCH   1  14
TORSDOF 7
ENDMDL
MODEL 2
REMARK VINA RESULT:    -3.284     20.401     21.640
REMARK INTER + INTRA:          -4.347
REMARK INTER:                  -4.815
REMARK INTRA:                   0.468
REMARK UNBOUND:                 0.089
REMARK  Name = 
REMARK  10 active torsions:
REMARK  status: ('A' for Active; 'I' for Inactive)
REMARK    1  A    between atoms: C_1  and  C_2
REMARK    2  A    between atoms: C_5  and  N_8
REMARK    3  A    between atoms: N_8  and  C_9
REMARK    4  A    between atoms: N_8  and  C_13
REMARK    5  A    between atoms: C_9  and  C_10
REMARK    6  A    between atoms: C_10  and  C_11
REMARK    7  A    between atoms: C_10  and  O_12
REMARK    8  A    between atoms: C_13  and  C_14
REMARK    9  A    between atoms: C_14  and  C_15
REMARK   10  A    between atoms: C_14  and  O_16
REMARK                            x       y       z     vdW  Elec       q    Type
REMARK                         _______ _______ _______ _____ _____    ______ ____
ROOT
ATOM      1  N   UNL     1      11.193  20.566   3.461  0.00  0.00    +0.000 N 
ENDROOT
BRANCH   1   6
ATOM      2  C   UNL     1      16.665  19.689   5.079  0.00  0.00    +0.000 C 
ATOM      3  C   UNL     1      15.250  19.940   4.653  0.00  0.00    +0.000 A 
ATOM      4  C   UNL     1      14.294  20.369   5.568  0.00  0.00    +0.000 A 
ATOM      5  C   UNL     1      12.963  20.574   5.169  0.00  0.00    +0.000 A 
ATOM      6  C   UNL     1      12.517  20.341   3.856  0.00  0.00    +0.000 A 
ATOM      7  C   UNL     1      13.511  19.910   2.958  0.00  0.00    +0.000 A 
ATOM      8  C   UNL     1      14.846  19.703   3.342  0.00  0.00    +0.000 A 
ENDBRANCH   1   6
BRANCH   1   9
ATOM      9  C   UNL     1      10.448  19.517   2.725  0.00  0.00    +0.000 C 
BRANCH   9  10
ATOM     10  C   UNL     1       9.342  18.852   3.581  0.00  0.00    +0.000 C 
ATOM     11  C   UNL     1       9.945  17.895   4.602  0.00  0.00    +0.000 C 
BRANCH  10  12
ATOM     12  O   UNL     1       8.580  19.838   4.292  0.00  0.00    +0.000 OA
ATOM     13  H   UNL     1       8.306  20.522   3.658  0.00  0.00    +0.000 HD
ENDBRANCH  10  12
ENDBRANCH   9  10
ENDBRANCH   1   9
BRANCH   1  14
ATOM     14  C   UNL     1      10.666  21.944   3.287  0.00  0.00    +0.000 C 
BRANCH  14  15
ATOM     15  C   UNL     1      10.485  22.317   1.796  0.00  0.00    +0.000 C 
ATOM     16  C   UNL     1      11.794  22.317   1.015  0.00  0.00    +0.000 C 
BRANCH  15  17
ATOM     17  O   UNL     1       9.578  21.434   1.138  0.00  0.00    +0.000 OA
ATOM     18  H   UNL     1       9.222  21.951   0.387  0.00  0.00    +0.000 HD
ENDBRANCH  15  17
ENDBRANCH  14  15
ENDBRANCH   1  14
TORSDOF 7
ENDMDL
MODEL 3
REMARK VINA RESULT:    -3.137      1.025      3.549
REMARK INTER + INTRA:          -4.149
REMARK INTER:                  -4.621
REMARK INTRA:                   0.473
REMARK UNBOUND:                 0.089
REMARK  Name = 
REMARK  10 active torsions:
REMARK  status: ('A' for Active; 'I' for Inactive)
REMARK    1  A    between atoms: C_1  and  C_2
REMARK    2  A    between atoms: C_5  and  N_8
REMARK    3  A    between atoms: N_8  and  C_9
REMARK    4  A    between atoms: N_8  and  C_13
REMARK    5  A    between atoms: C_9  and  C_10
REMARK    6  A    between atoms: C_10  and  C_11
REMARK    7  A    between atoms: C_10  and  O_12
REMARK    8  A    between atoms: C_13  and  C_14
REMARK    9  A    between atoms: C_14  and  C_15
REMARK   10  A    between atoms: C_14  and  O_16
REMARK                            x       y       z     vdW  Elec       q    Type
REMARK                         _______ _______ _______ _____ _____    ______ ____
ROOT
ATOM      1  N   UNL     1       0.642   3.204  11.399  0.00  0.00    +0.000 N 
ENDROOT
BRANCH   1   6
ATOM      2  C   UNL     1       0.521   8.435  13.839  0.00  0.00    +0.000 C 
ATOM      3  C   UNL     1       0.536   7.069  13.223  0.00  0.00    +0.000 A 
ATOM      4  C   UNL     1       1.465   6.115  13.623  0.00  0.00    +0.000 A 
ATOM      5  C   UNL     1       1.494   4.847  13.021  0.00  0.00    +0.000 A 
ATOM      6  C   UNL     1       0.621   4.478  11.981  0.00  0.00    +0.000 A 
ATOM      7  C   UNL     1      -0.306   5.466  11.604  0.00  0.00    +0.000 A 
ATOM      8  C   UNL     1      -0.347   6.738  12.199  0.00  0.00    +0.000 A 
ENDBRANCH   1   6
BRANCH   1   9
ATOM      9  C   UNL     1       0.411   3.049   9.942  0.00  0.00    +0.000 C 
BRANCH   9  10
ATOM     10  C   UNL     1       1.692   3.282   9.104  0.00  0.00    +0.000 C 
ATOM     11  C   UNL     1       1.343   3.730   7.689  0.00  0.00    +0.000 C 
BRANCH  10  12
ATOM     12  O   UNL     1       2.520   4.291   9.698  0.00  0.00    +0.000 OA
ATOM     13  H   UNL     1       3.004   4.741   8.986  0.00  0.00    +0.000 HD
ENDBRANCH  10  12
ENDBRANCH   9  10
ENDBRANCH   1   9
BRANCH   1  14
ATOM     14  C   UNL     1       0.380   1.985  12.205  0.00  0.00    +0.000 C 
BRANCH  14  15
ATOM     15  C   UNL     1       1.585   1.605  13.099  0.00  0.00    +0.000 C 
ATOM     16  C   UNL     1       1.457   2.116  14.529  0.00  0.00    +0.000 C 
BRANCH  15  17
ATOM     17  O   UNL     1       1.779   0.192  13.150  0.00  0.00    +0.000 OA
ATOM     18  H   UNL     1       1.973  -0.070  12.228  0.00  0.00    +0.000 HD
ENDBRANCH  15  17
ENDBRANCH  14  15
ENDBRANCH   1  14
TORSDOF 7
ENDMDL
MODEL 4
REMARK VINA RESULT:    -3.016     20.700     22.247
REMARK INTER + INTRA:          -3.985
REMARK INTER:                  -4.056
REMARK INTRA:                   0.071
REMARK UNBOUND:                 0.089
REMARK  Name = 
REMARK  10 active torsions:
REMARK  status: ('A' for Active; 'I' for Inactive)
REMARK    1  A    between atoms: C_1  and  C_2
REMARK    2  A    between atoms: C_5  and  N_8
REMARK    3  A    between atoms: N_8  and  C_9
REMARK    4  A    between atoms: N_8  and  C_13
REMARK    5  A    between atoms: C_9  and  C_10
REMARK    6  A    between atoms: C_10  and  C_11
REMARK    7  A    between atoms: C_10  and  O_12
REMARK    8  A    between atoms: C_13  and  C_14
REMARK    9  A    between atoms: C_14  and  C_15
REMARK   10  A    between atoms: C_14  and  O_16
REMARK                            x       y       z     vdW  Elec       q    Type
REMARK                         _______ _______ _______ _____ _____    ______ ____
ROOT
ATOM      1  N   UNL     1      10.908  21.064   3.599  0.00  0.00    +0.000 N 
ENDROOT
BRANCH   1   6
ATOM      2  C   UNL     1      16.362  19.828   5.033  0.00  0.00    +0.000 C 
ATOM      3  C   UNL     1      14.954  20.170   4.651  0.00  0.00    +0.000 A 
ATOM      4  C   UNL     1      14.115  20.836   5.538  0.00  0.00    +0.000 A 
ATOM      5  C   UNL     1      12.787  21.127   5.186  0.00  0.00    +0.000 A 
ATOM      6  C   UNL     1      12.227  20.753   3.952  0.00  0.00    +0.000 A 
ATOM      7  C   UNL     1      13.105  20.083   3.079  0.00  0.00    +0.000 A 
ATOM      8  C   UNL     1      14.436  19.787   3.417  0.00  0.00    +0.000 A 
ENDBRANCH   1   6
BRANCH   1   9
ATOM      9  C   UNL     1      10.464  20.934   2.190  0.00  0.00    +0.000 C 
BRANCH   9  10
ATOM     10  C   UNL     1      10.657  22.239   1.379  0.00  0.00    +0.000 C 
ATOM     11  C   UNL     1      12.060  22.311   0.788  0.00  0.00    +0.000 C 
BRANCH  10  12
ATOM     12  O   UNL     1       9.716  22.317   0.299  0.00  0.00    +0.000 OA
ATOM     13  H   UNL     1      10.121  22.834  -0.417  0.00  0.00    +0.000 HD
ENDBRANCH  10  12
ENDBRANCH   9  10
ENDBRANCH   1   9
BRANCH   1  14
ATOM     14  C   UNL     1      10.086  21.980   4.431  0.00  0.00    +0.000 C 
BRANCH  14  15
ATOM     15  C   UNL     1       8.689  21.391   4.742  0.00  0.00    +0.000 C 
ATOM     16  C   UNL     1       7.545  22.258   4.230  0.00  0.00    +0.000 C 
BRANCH  15  17
ATOM     17  O   UNL     1       8.533  20.084   4.192  0.00  0.00    +0.000 OA
ATOM     18  H   UNL     1       8.162  19.545   4.920  0.00  0.00    +0.000 HD
ENDBRANCH  15  17
ENDBRANCH  14  15
ENDBRANCH   1  14
TORSDOF 7
ENDMDL
MODEL 5
REMARK VINA RESULT:    -2.451      2.027      4.992
REMARK INTER + INTRA:          -3.222
REMARK INTER:                  -4.501
REMARK INTRA:                   1.279
REMARK UNBOUND:                 0.089
REMARK  Name = 
REMARK  10 active torsions:
REMARK  status: ('A' for Active; 'I' for Inactive)
REMARK    1  A    between atoms: C_1  and  C_2
REMARK    2  A    between atoms: C_5  and  N_8
REMARK    3  A    between atoms: N_8  and  C_9
REMARK    4  A    between atoms: N_8  and  C_13
REMARK    5  A    between atoms: C_9  and  C_10
REMARK    6  A    between atoms: C_10  and  C_11
REMARK    7  A    between atoms: C_10  and  O_12
REMARK    8  A    between atoms: C_13  and  C_14
REMARK    9  A    between atoms: C_14  and  C_15
REMARK   10  A    between atoms: C_14  and  O_16
REMARK                            x       y       z     vdW  Elec       q    Type
REMARK                         _______ _______ _______ _____ _____    ______ ____
ROOT
ATOM      1  N   UNL     1       1.011   3.616  13.227  0.00  0.00    +0.000 N 
ENDROOT
BRANCH   1   6
ATOM      2  C   UNL     1       1.511   3.869   7.481  0.00  0.00    +0.000 C 
ATOM      3  C   UNL     1       1.388   3.779   8.972  0.00  0.00    +0.000 A 
ATOM      4  C   UNL     1       0.181   3.433   9.570  0.00  0.00    +0.000 A 
ATOM      5  C   UNL     1       0.064   3.380  10.968  0.00  0.00    +0.000 A 
ATOM      6  C   UNL     1       1.129   3.690  11.833  0.00  0.00    +0.000 A 
ATOM      7  C   UNL     1       2.335   4.033  11.194  0.00  0.00    +0.000 A 
ATOM      8  C   UNL     1       2.466   4.088   9.797  0.00  0.00    +0.000 A 
ENDBRANCH   1   6
BRANCH   1   9
ATOM      9  C   UNL     1       0.551   4.796  13.998  0.00  0.00    +0.000 C 
BRANCH   9  10
ATOM     10  C   UNL     1       1.043   6.135  13.395  0.00  0.00    +0.000 C 
ATOM     11  C   UNL     1      -0.124   6.942  12.838  0.00  0.00    +0.000 C 
BRANCH  10  12
ATOM     12  O   UNL     1       1.703   6.934  14.386  0.00  0.00    +0.000 OA
ATOM     13  H   UNL     1       1.110   7.665  14.627  0.00  0.00    +0.000 HD
ENDBRANCH  10  12
ENDBRANCH   9  10
ENDBRANCH   1   9
BRANCH   1  14
ATOM     14  C   UNL     1       1.784   2.619  14.013  0.00  0.00    +0.000 C 
BRANCH  14  15
ATOM     15  C   UNL     1       1.400   1.165  13.649  0.00  0.00    +0.000 C 
ATOM     16  C   UNL     1       1.041   0.989  12.179  0.00  0.00    +0.000 C 
BRANCH  15  17
ATOM     17  O   UNL     1       2.450   0.250  13.960  0.00  0.00    +0.000 OA
ATOM     18  H   UNL     1       2.395   0.122  14.929  0.00  0.00    +0.000 HD
ENDBRANCH  15  17
ENDBRANCH  14  15
ENDBRANCH   1  14
TORSDOF 7
ENDMDL
MODEL 6
REMARK VINA RESULT:    -2.360     19.998     21.373
REMARK INTER + INTRA:          -3.099
REMARK INTER:                  -2.929
REMARK INTRA:                  -0.169
REMARK UNBOUND:                 0.089
REMARK  Name = 
REMARK  10 active torsions:
REMARK  status: ('A' for Active; 'I' for Inactive)
REMARK    1  A    between atoms: C_1  and  C_2
REMARK    2  A    between atoms: C_5  and  N_8
REMARK    3  A    between atoms: N_8  and  C_9
REMARK    4  A    between atoms: N_8  and  C_13
REMARK    5  A    between atoms: C_9  and  C_10
REMARK    6  A    between atoms: C_10  and  C_11
REMARK    7  A    between atoms: C_10  and  O_12
REMARK    8  A    between atoms: C_13  and  C_14
REMARK    9  A    between atoms: C_14  and  C_15
REMARK   10  A    between atoms: C_14  and  O_16
REMARK                            x       y       z     vdW  Elec       q    Type
REMARK                         _______ _______ _______ _____ _____    ______ ____
ROOT
ATOM      1  N   UNL     1      11.151  20.610   3.290  0.00  0.00    +0.000 N 
ENDROOT
BRANCH   1   6
ATOM      2  C   UNL     1      16.576  19.768   5.074  0.00  0.00    +0.000 C 
ATOM      3  C   UNL     1      15.164  19.962   4.614  0.00  0.00    +0.000 A 
ATOM      4  C   UNL     1      14.842  19.921   3.262  0.00  0.00    +0.000 A 
ATOM      5  C   UNL     1      13.521  20.133   2.834  0.00  0.00    +0.000 A 
ATOM      6  C   UNL     1      12.469  20.418   3.723  0.00  0.00    +0.000 A 
ATOM      7  C   UNL     1      12.831  20.450   5.082  0.00  0.00    +0.000 A 
ATOM      8  C   UNL     1      14.147  20.238   5.524  0.00  0.00    +0.000 A 
ENDBRANCH   1   6
BRANCH   1   9
ATOM      9  C   UNL     1      10.470  19.561   2.494  0.00  0.00    +0.000 C 
BRANCH   9  10
ATOM     10  C   UNL     1      10.431  18.191   3.214  0.00  0.00    +0.000 C 
ATOM     11  C   UNL     1       9.448  18.214   4.378  0.00  0.00    +0.000 C 
BRANCH  10  12
ATOM     12  O   UNL     1      10.031  17.148   2.315  0.00  0.00    +0.000 OA
ATOM     13  H   UNL     1       9.485  16.515   2.812  0.00  0.00    +0.000 HD
ENDBRANCH  10  12
ENDBRANCH   9  10
ENDBRANCH   1   9
BRANCH   1  14
ATOM     14  C   UNL     1      10.580  21.973   3.145  0.00  0.00    +0.000 C 
BRANCH  14  15
ATOM     15  C   UNL     1       9.589  22.316   4.284  0.00  0.00    +0.000 C 
ATOM     16  C   UNL     1       8.367  21.406   4.310  0.00  0.00    +0.000 C 
BRANCH  15  17
ATOM     17  O   UNL     1      10.215  22.253   5.564  0.00  0.00    +0.000 OA
ATOM     18  H   UNL     1       9.694  22.856   6.131  0.00  0.00    +0.000 HD
ENDBRANCH  15  17
ENDBRANCH  14  15
ENDBRANCH   1  14
TORSDOF 7
ENDMDL
MODEL 7
REMARK VINA RESULT:    -2.302     20.462     21.835
REMARK INTER + INTRA:          -3.021
REMARK INTER:                  -2.358
REMARK INTRA:                  -0.662
REMARK UNBOUND:                 0.089
REMARK  Name = 
REMARK  10 active torsions:
REMARK  status: ('A' for Active; 'I' for Inactive)
REMARK    1  A    between atoms: C_1  and  C_2
REMARK    2  A    between atoms: C_5  and  N_8
REMARK    3  A    between atoms: N_8  and  C_9
REMARK    4  A    between atoms: N_8  and  C_13
REMARK    5  A    between atoms: C_9  and  C_10
REMARK    6  A    between atoms: C_10  and  C_11
REMARK    7  A    between atoms: C_10  and  O_12
REMARK    8  A    between atoms: C_13  and  C_14
REMARK    9  A    between atoms: C_14  and  C_15
REMARK   10  A    between atoms: C_14  and  O_16
REMARK                            x       y       z     vdW  Elec       q    Type
REMARK                         _______ _______ _______ _____ _____    ______ ____
ROOT
ATOM      1  N   UNL     1      12.756  21.276   3.604  0.00  0.00    +0.000 N 
ENDROOT
BRANCH   1   6
ATOM      2  C   UNL     1       7.046  21.010   4.416  0.00  0.00    +0.000 C 
ATOM      3  C   UNL     1       8.524  21.086   4.182  0.00  0.00    +0.000 A 
ATOM      4  C   UNL     1       9.239  19.970   3.759  0.00  0.00    +0.000 A 
ATOM      5  C   UNL     1      10.629  20.040   3.570  0.00  0.00    +0.000 A 
ATOM      6  C   UNL     1      11.373  21.208   3.814  0.00  0.00    +0.000 A 
ATOM      7  C   UNL     1      10.617  22.317   4.238  0.00  0.00    +0.000 A 
ATOM      8  C   UNL     1       9.227  22.262   4.429  0.00  0.00    +0.000 A 
ENDBRANCH   1   6
BRANCH   1   9
ATOM      9  C   UNL     1      13.589  22.181   4.432  0.00  0.00    +0.000 C 
BRANCH   9  10
ATOM     10  C   UNL     1      13.963  21.566   5.803  0.00  0.00    +0.000 C 
ATOM     11  C   UNL     1      13.067  22.112   6.908  0.00  0.00    +0.000 C 
BRANCH  10  12
ATOM     12  O   UNL     1      13.824  20.139   5.782  0.00  0.00    +0.000 OA
ATOM     13  H   UNL     1      13.022  19.922   5.277  0.00  0.00    +0.000 HD
ENDBRANCH  10  12
ENDBRANCH   9  10
ENDBRANCH   1   9
BRANCH   1  14
ATOM     14  C   UNL     1      13.356  20.892   2.301  0.00  0.00    +0.000 C 
BRANCH  14  15
ATOM     15  C   UNL     1      14.127  19.552   2.385  0.00  0.00    +0.000 C 
ATOM     16  C   UNL     1      14.486  18.981   1.018  0.00  0.00    +0.000 C 
BRANCH  15  17
ATOM     17  O   UNL     1      15.330  19.683   3.139  0.00  0.00    +0.000 OA
ATOM     18  H   UNL     1      15.639  20.596   2.967  0.00  0.00    +0.000 HD
ENDBRANCH  15  17
ENDBRANCH  14  15
ENDBRANCH   1  14
TORSDOF 7
ENDMDL
MODEL 8
REMARK VINA RESULT:    -2.238     20.782     22.057
REMARK INTER + INTRA:          -2.934
REMARK INTER:                  -2.358
REMARK INTRA:                  -0.576
REMARK UNBOUND:                 0.089
REMARK  Name = 
REMARK  10 active torsions:
REMARK  status: ('A' for Active; 'I' for Inactive)
REMARK    1  A    between atoms: C_1  and  C_2
REMARK    2  A    between atoms: C_5  and  N_8
REMARK    3  A    between atoms: N_8  and  C_9
REMARK    4  A    between atoms: N_8  and  C_13
REMARK    5  A    between atoms: C_9  and  C_10
REMARK    6  A    between atoms: C_10  and  C_11
REMARK    7  A    between atoms: C_10  and  O_12
REMARK    8  A    between atoms: C_13  and  C_14
REMARK    9  A    between atoms: C_14  and  C_15
REMARK   10  A    between atoms: C_14  and  O_16
REMARK                            x       y       z     vdW  Elec       q    Type
REMARK                         _______ _______ _______ _____ _____    ______ ____
ROOT
ATOM      1  N   UNL     1      12.634  20.836   3.459  0.00  0.00    +0.000 N 
ENDROOT
BRANCH   1   6
ATOM      2  C   UNL     1       7.035  21.476   4.715  0.00  0.00    +0.000 C 
ATOM      3  C   UNL     1       8.484  21.320   4.367  0.00  0.00    +0.000 A 
ATOM      4  C   UNL     1       8.954  20.156   3.768  0.00  0.00    +0.000 A 
ATOM      5  C   UNL     1      10.318  20.004   3.471  0.00  0.00    +0.000 A 
ATOM      6  C   UNL     1      11.278  20.987   3.775  0.00  0.00    +0.000 A 
ATOM      7  C   UNL     1      10.767  22.151   4.378  0.00  0.00    +0.000 A 
ATOM      8  C   UNL     1       9.405  22.317   4.679  0.00  0.00    +0.000 A 
ENDBRANCH   1   6
BRANCH   1   9
ATOM      9  C   UNL     1      13.569  20.255   4.451  0.00  0.00    +0.000 C 
BRANCH   9  10
ATOM     10  C   UNL     1      15.037  20.246   3.960  0.00  0.00    +0.000 C 
ATOM     11  C   UNL     1      16.006  20.216   5.136  0.00  0.00    +0.000 C 
BRANCH  10  12
ATOM     12  O   UNL     1      15.299  19.099   3.140  0.00  0.00    +0.000 OA
ATOM     13  H   UNL     1      14.488  18.565   3.101  0.00  0.00    +0.000 HD
ENDBRANCH  10  12
ENDBRANCH   9  10
ENDBRANCH   1   9
BRANCH   1  14
ATOM     14  C   UNL     1      13.276  21.671   2.410  0.00  0.00    +0.000 C 
BRANCH  14  15
ATOM     15  C   UNL     1      12.908  21.200   0.983  0.00  0.00    +0.000 C 
ATOM     16  C   UNL     1      12.994  22.312  -0.056  0.00  0.00    +0.000 C 
BRANCH  15  17
ATOM     17  O   UNL     1      13.742  20.126   0.550  0.00  0.00    +0.000 OA
ATOM     18  H   UNL     1      14.244  20.486  -0.209  0.00  0.00    +0.000 HD
ENDBRANCH  15  17
ENDBRANCH  14  15
ENDBRANCH   1  14
TORSDOF 7
ENDMDL
