MODEL 1
REMARK VINA RESULT:    -4.909      0.000      0.000
REMARK INTER + INTRA:          -5.385
REMARK INTER:                  -5.339
REMARK INTRA:                  -0.046
REMARK UNBOUND:                -0.046
REMARK  Name = 
REMARK  3 active torsions:
REMARK  status: ('A' for Active; 'I' for Inactive)
REMARK    1  A    between atoms: C_1  and  O_2
REMARK    2  A    between atoms: O_2  and  C_3
REMARK    3  A    between atoms: C_8  and  O_9
REMARK                            x       y       z     vdW  Elec       q    Type
REMARK                         _______ _______ _______ _____ _____    ______ ____
ROOT
ATOM      1  C   UNL     1       0.678   2.940  10.289  0.00  0.00    +0.000 A 
ATOM      2  C   UNL     1       1.167   4.098  10.892  0.00  0.00    +0.000 A 
ATOM      3  C   UNL     1       1.406   4.121  12.272  0.00  0.00    +0.000 A 
ATOM      4  C   UNL     1       1.156   2.990  13.052  0.00  0.00    +0.000 A 
ATOM      5  C   UNL     1       0.668   1.830  12.456  0.00  0.00    +0.000 A 
ATOM      6  C   UNL     1       0.434   1.816  11.087  0.00  0.00    +0.000 A 
ENDROOT
BRANCH   1   8
ATOM      7  C   UNL     1       1.359   3.287   8.039  0.00  0.00    +0.000 C 
ATOM      8  O   UNL     1       0.399   2.776   8.955  0.00  0.00    +0.000 OA
ENDBRANCH   1   8
BRANCH   6   9
ATOM      9  O   UNL     1      -0.047   0.664  10.525  0.00  0.00    +0.000 OA
ATOM     10  H   UNL     1      -0.770   0.957   9.938  0.00  0.00    +0.000 HD
ENDBRANCH   6   9
TORSDOF 2
ENDMDL
MODEL 2
REMARK VINA RESULT:    -4.457      2.312      3.324
REMARK INTER + INTRA:          -4.894
REMARK INTER:                  -4.842
REMARK INTRA:                  -0.052
REMARK UNBOUND:                -0.046
REMARK  Name = 
REMARK  3 active torsions:
REMARK  status: ('A' for Active; 'I' for Inactive)
REMARK    1  A    between atoms: C_1  and  O_2
REMARK    2  A    between atoms: O_2  and  C_3
REMARK    3  A    between atoms: C_8  and  O_9
REMARK                            x       y       z     vdW  Elec       q    Type
REMARK                         _______ _______ _______ _____ _____    ______ ____
ROOT
ATOM      1  C   UNL     1       0.924   4.067  12.082  0.00  0.00    +0.000 A 
ATOM      2  C   UNL     1       0.495   4.087  10.755  0.00  0.00    +0.000 A 
ATOM      3  C   UNL     1       0.106   2.897  10.128  0.00  0.00    +0.000 A 
ATOM      4  C   UNL     1       0.145   1.686  10.821  0.00  0.00    +0.000 A 
ATOM      5  C   UNL     1       0.572   1.658  12.146  0.00  0.00    +0.000 A 
ATOM      6  C   UNL     1       0.956   2.843  12.761  0.00  0.00    +0.000 A 
ENDROOT
BRANCH   1   8
ATOM      7  C   UNL     1       0.371   6.178  13.023  0.00  0.00    +0.000 C 
ATOM      8  O   UNL     1       1.333   5.150  12.818  0.00  0.00    +0.000 OA
ENDBRANCH   1   8
BRANCH   6   9
ATOM      9  O   UNL     1       1.373   2.790  14.064  0.00  0.00    +0.000 OA
ATOM     10  H   UNL     1       1.684   3.694  14.262  0.00  0.00    +0.000 HD
ENDBRANCH   6   9
TORSDOF 2
ENDMDL
MODEL 3
REMARK VINA RESULT:    -4.450      1.328      3.080
REMARK INTER + INTRA:          -4.886
REMARK INTER:                  -4.836
REMARK INTRA:                  -0.050
REMARK UNBOUND:                -0.046
REMARK  Name = 
REMARK  3 active torsions:
REMARK  status: ('A' for Active; 'I' for Inactive)
REMARK    1  A    between atoms: C_1  and  O_2
REMARK    2  A    between atoms: O_2  and  C_3
REMARK    3  A    between atoms: C_8  and  O_9
REMARK                            x       y       z     vdW  Elec       q    Type
REMARK                         _______ _______ _______ _____ _____    ______ ____
ROOT
ATOM      1  C   UNL     1       0.814   2.583  11.608  0.00  0.00    +0.000 A 
ATOM      2  C   UNL     1       1.573   3.728  11.368  0.00  0.00    +0.000 A 
ATOM      3  C   UNL     1       1.754   4.185  10.057  0.00  0.00    +0.000 A 
ATOM      4  C   UNL     1       1.179   3.502   8.983  0.00  0.00    +0.000 A 
ATOM      5  C   UNL     1       0.419   2.358   9.215  0.00  0.00    +0.000 A 
ATOM      6  C   UNL     1       0.245   1.912  10.519  0.00  0.00    +0.000 A 
ENDROOT
BRANCH   1   8
ATOM      7  C   UNL     1       1.685   1.732  13.649  0.00  0.00    +0.000 C 
ATOM      8  O   UNL     1       0.556   2.024  12.834  0.00  0.00    +0.000 OA
ENDBRANCH   1   8
BRANCH   6   9
ATOM      9  O   UNL     1      -0.506   0.785  10.722  0.00  0.00    +0.000 OA
ATOM     10  H   UNL     1      -1.312   0.924  10.189  0.00  0.00    +0.000 HD
ENDBRANCH   6   9
TORSDOF 2
ENDMDL
MODEL 4
REMARK VINA RESULT:    -4.079      2.099      3.672
REMARK INTER + INTRA:          -4.482
REMARK INTER:                  -4.430
REMARK INTRA:                  -0.053
REMARK UNBOUND:                -0.046
REMARK  Name = 
REMARK  3 active torsions:
REMARK  status: ('A' for Active; 'I' for Inactive)
REMARK    1  A    between atoms: C_1  and  O_2
REMARK    2  A    between atoms: O_2  and  C_3
REMARK    3  A    between atoms: C_8  and  O_9
REMARK                            x       y       z     vdW  Elec       q    Type
REMARK                         _______ _______ _______ _____ _____    ______ ____
ROOT
ATOM      1  C   UNL     1       1.008   3.946  12.413  0.00  0.00    +0.000 A 
ATOM      2  C   UNL     1       1.310   2.704  12.971  0.00  0.00    +0.000 A 
ATOM      3  C   UNL     1       0.931   1.529  12.309  0.00  0.00    +0.000 A 
ATOM      4  C   UNL     1       0.251   1.590  11.091  0.00  0.00    +0.000 A 
ATOM      5  C   UNL     1      -0.054   2.827  10.528  0.00  0.00    +0.000 A 
ATOM      6  C   UNL     1       0.325   3.987  11.191  0.00  0.00    +0.000 A 
ENDROOT
BRANCH   1   8
ATOM      7  C   UNL     1       0.649   5.522  14.155  0.00  0.00    +0.000 C 
ATOM      8  O   UNL     1       1.315   5.171  12.948  0.00  0.00    +0.000 OA
ENDBRANCH   1   8
BRANCH   6   9
ATOM      9  O   UNL     1       0.013   5.191  10.617  0.00  0.00    +0.000 OA
ATOM     10  H   UNL     1      -0.666   4.979   9.949  0.00  0.00    +0.000 HD
ENDBRANCH   6   9
TORSDOF 2
ENDMDL
MODEL 5
REMARK VINA RESULT:    -4.038      1.990      3.810
REMARK INTER + INTRA:          -4.438
REMARK INTER:                  -4.402
REMARK INTRA:                  -0.036
REMARK UNBOUND:                -0.046
REMARK  Name = 
REMARK  3 active torsions:
REMARK  status: ('A' for Active; 'I' for Inactive)
REMARK    1  A    between atoms: C_1  and  O_2
REMARK    2  A    between atoms: O_2  and  C_3
REMARK    3  A    between atoms: C_8  and  O_9
REMARK                            x       y       z     vdW  Elec       q    Type
REMARK                         _______ _______ _______ _____ _____    ______ ____
ROOT
ATOM      1  C   UNL     1       0.724   2.582  11.808  0.00  0.00    +0.000 A 
ATOM      2  C   UNL     1      -0.036   1.701  11.040  0.00  0.00    +0.000 A 
ATOM      3  C   UNL     1      -0.096   1.858   9.650  0.00  0.00    +0.000 A 
ATOM      4  C   UNL     1       0.600   2.893   9.023  0.00  0.00    +0.000 A 
ATOM      5  C   UNL     1       1.362   3.777   9.784  0.00  0.00    +0.000 A 
ATOM      6  C   UNL     1       1.415   3.614  11.163  0.00  0.00    +0.000 A 
ENDROOT
BRANCH   1   8
ATOM      7  C   UNL     1       1.752   1.559  13.690  0.00  0.00    +0.000 C 
ATOM      8  O   UNL     1       0.872   2.549  13.172  0.00  0.00    +0.000 OA
ENDBRANCH   1   8
BRANCH   6   9
ATOM      9  O   UNL     1       2.171   4.496  11.889  0.00  0.00    +0.000 OA
ATOM     10  H   UNL     1       2.366   4.027  12.723  0.00  0.00    +0.000 HD
ENDBRANCH   6   9
TORSDOF 2
ENDMDL
MODEL 6
REMARK VINA RESULT:    -3.895      1.295      2.282
REMARK INTER + INTRA:          -4.283
REMARK INTER:                  -4.268
REMARK INTRA:                  -0.015
REMARK UNBOUND:                -0.046
REMARK  Name = 
REMARK  3 active torsions:
REMARK  status: ('A' for Active; 'I' for Inactive)
REMARK    1  A    between atoms: C_1  and  O_2
REMARK    2  A    between atoms: O_2  and  C_3
REMARK    3  A    between atoms: C_8  and  O_9
REMARK                            x       y       z     vdW  Elec       q    Type
REMARK                         _______ _______ _______ _____ _____    ______ ____
ROOT
ATOM      1  C   UNL     1       0.247   2.802  10.930  0.00  0.00    +0.000 A 
ATOM      2  C   UNL     1       0.656   1.676  11.643  0.00  0.00    +0.000 A 
ATOM      3  C   UNL     1       1.134   1.812  12.952  0.00  0.00    +0.000 A 
ATOM      4  C   UNL     1       1.206   3.071  13.552  0.00  0.00    +0.000 A 
ATOM      5  C   UNL     1       0.799   4.201  12.846  0.00  0.00    +0.000 A 
ATOM      6  C   UNL     1       0.326   4.056  11.547  0.00  0.00    +0.000 A 
ENDROOT
BRANCH   1   8
ATOM      7  C   UNL     1       0.727   2.774   8.602  0.00  0.00    +0.000 C 
ATOM      8  O   UNL     1      -0.238   2.817   9.647  0.00  0.00    +0.000 OA
ENDBRANCH   1   8
BRANCH   6   9
ATOM      9  O   UNL     1      -0.068   5.181  10.873  0.00  0.00    +0.000 OA
ATOM     10  H   UNL     1      -0.167   4.893   9.946  0.00  0.00    +0.000 HD
ENDBRANCH   6   9
TORSDOF 2
ENDMDL
MODEL 7
REMARK VINA RESULT:    -3.554      2.215      2.942
REMARK INTER + INTRA:          -3.912
REMARK INTER:                  -3.890
REMARK INTRA:                  -0.021
REMARK UNBOUND:                -0.046
REMARK  Name = 
REMARK  3 active torsions:
REMARK  status: ('A' for Active; 'I' for Inactive)
REMARK    1  A    between atoms: C_1  and  O_2
REMARK    2  A    between atoms: O_2  and  C_3
REMARK    3  A    between atoms: C_8  and  O_9
REMARK                            x       y       z     vdW  Elec       q    Type
REMARK                         _______ _______ _______ _____ _____    ______ ____
ROOT
ATOM      1  C   UNL     1       0.967   3.744  12.443  0.00  0.00    +0.000 A 
ATOM      2  C   UNL     1       0.672   5.079  12.171  0.00  0.00    +0.000 A 
ATOM      3  C   UNL     1       0.415   5.967  13.223  0.00  0.00    +0.000 A 
ATOM      4  C   UNL     1       0.451   5.526  14.547  0.00  0.00    +0.000 A 
ATOM      5  C   UNL     1       0.746   4.193  14.826  0.00  0.00    +0.000 A 
ATOM      6  C   UNL     1       0.999   3.319  13.777  0.00  0.00    +0.000 A 
ENDROOT
BRANCH   1   8
ATOM      7  C   UNL     1       0.116   2.184  10.865  0.00  0.00    +0.000 C 
ATOM      8  O   UNL     1       1.238   2.768  11.517  0.00  0.00    +0.000 OA
ENDBRANCH   1   8
BRANCH   6   9
ATOM      9  O   UNL     1       1.286   2.014  14.077  0.00  0.00    +0.000 OA
ATOM     10  H   UNL     1       0.633   1.494  13.571  0.00  0.00    +0.000 HD
ENDBRANCH   6   9
TORSDOF 2
ENDMDL
MODEL 8
REMARK VINA RESULT:    -3.454     21.455     22.688
REMARK INTER + INTRA:          -3.803
REMARK INTER:                  -3.753
REMARK INTRA:                  -0.050
REMARK UNBOUND:                -0.046
REMARK  Name = 
REMARK  3 active torsions:
REMARK  status: ('A' for Active; 'I' for Inactive)
REMARK    1  A    between atoms: C_1  and  O_2
REMARK    2  A    between atoms: O_2  and  C_3
REMARK    3  A    between atoms: C_8  and  O_9
REMARK                            x       y       z     vdW  Elec       q    Type
REMARK                         _______ _______ _______ _____ _____    ______ ____
ROOT
ATOM      1  C   UNL     1      12.422  20.612   3.701  0.00  0.00    +0.000 A 
ATOM      2  C   UNL     1      12.397  20.793   5.083  0.00  0.00    +0.000 A 
ATOM      3  C   UNL     1      13.575  20.652   5.829  0.00  0.00    +0.000 A 
ATOM      4  C   UNL     1      14.778  20.330   5.197  0.00  0.00    +0.000 A 
ATOM      5  C   UNL     1      14.811  20.149   3.817  0.00  0.00    +0.000 A 
ATOM      6  C   UNL     1      13.638  20.290   3.085  0.00  0.00    +0.000 A 
ENDROOT
BRANCH   1   8
ATOM      7  C   UNL     1      10.377  19.683   2.925  0.00  0.00    +0.000 C 
ATOM      8  O   UNL     1      11.351  20.717   2.850  0.00  0.00    +0.000 OA
ENDBRANCH   1   8
BRANCH   6   9
ATOM      9  O   UNL     1      13.696  20.107   1.730  0.00  0.00    +0.000 OA
ATOM     10  H   UNL     1      14.327  20.782   1.414  0.00  0.00    +0.000 HD
ENDBRANCH   6   9
TORSDOF 2
ENDMDL
MODEL 9
REMARK VINA RESULT:    -3.401      2.286      3.703
REMARK INTER + INTRA:          -3.745
REMARK INTER:                  -3.692
REMARK INTRA:                  -0.052
REMARK UNBOUND:                -0.046
REMARK  Name = 
REMARK  3 active torsions:
REMARK  status: ('A' for Active; 'I' for Inactive)
REMARK    1  A    between atoms: C_1  and  O_2
REMARK    2  A    between atoms: O_2  and  C_3
REMARK    3  A    between atoms: C_8  and  O_9
REMARK                            x       y       z     vdW  Elec       q    Type
REMARK                         _______ _______ _______ _____ _____    ______ ____
ROOT
ATOM      1  C   UNL     1       1.042   4.317  12.625  0.00  0.00    +0.000 A 
ATOM      2  C   UNL     1       1.104   5.172  13.725  0.00  0.00    +0.000 A 
ATOM      3  C   UNL     1       0.385   6.373  13.718  0.00  0.00    +0.000 A 
ATOM      4  C   UNL     1      -0.395   6.726  12.615  0.00  0.00    +0.000 A 
ATOM      5  C   UNL     1      -0.462   5.877  11.513  0.00  0.00    +0.000 A 
ATOM      6  C   UNL     1       0.255   4.687  11.528  0.00  0.00    +0.000 A 
ENDROOT
BRANCH   1   8
ATOM      7  C   UNL     1       1.323   2.093  13.412  0.00  0.00    +0.000 C 
ATOM      8  O   UNL     1       1.691   3.116  12.494  0.00  0.00    +0.000 OA
ENDBRANCH   1   8
BRANCH   6   9
ATOM      9  O   UNL     1       0.173   3.870  10.432  0.00  0.00    +0.000 OA
ATOM     10  H   UNL     1      -0.343   3.098  10.736  0.00  0.00    +0.000 HD
ENDBRANCH   6   9
TORSDOF 2
ENDMDL
