MODEL 1
REMARK VINA RESULT:    -5.731      0.000      0.000
REMARK INTER + INTRA:          -8.054
REMARK INTER:                  -7.741
REMARK INTRA:                  -0.313
REMARK UNBOUND:                -0.313
REMARK  Name = 
REMARK  10 active torsions:
REMARK  status: ('A' for Active; 'I' for Inactive)
REMARK    1  A    between atoms: C_1  and  C_2
REMARK    2  A    between atoms: C_5  and  N_8
REMARK    3  A    between atoms: N_8  and  C_9
REMARK    4  A    between atoms: N_8  and  C_13
REMARK    5  A    between atoms: C_9  and  C_10
REMARK    6  A    between atoms: C_10  and  C_11
REMARK    7  A    between atoms: C_10  and  O_12
REMARK    8  A    between atoms: C_13  and  C_14
REMARK    9  A    between atoms: C_14  and  C_15
REMARK   10  A    between atoms: C_14  and  O_16
REMARK                            x       y       z     vdW  Elec       q    Type
REMARK                         _______ _______ _______ _____ _____    ______ ____
ROOT
ATOM      1  N   UNL     1      -9.228   4.923 -16.659  0.00  0.00    +0.000 N 
ENDROOT
BRANCH   1   6
ATOM      2  C   UNL     1     -12.019   7.572 -12.355  0.00  0.00    +0.000 C 
ATOM      3  C   UNL     1     -11.289   6.866 -13.456  0.00  0.00    +0.000 A 
ATOM      4  C   UNL     1      -9.945   7.123 -13.701  0.00  0.00    +0.000 A 
ATOM      5  C   UNL     1      -9.273   6.480 -14.754  0.00  0.00    +0.000 A 
ATOM      6  C   UNL     1      -9.909   5.575 -15.623  0.00  0.00    +0.000 A 
ATOM      7  C   UNL     1     -11.268   5.338 -15.344  0.00  0.00    +0.000 A 
ATOM      8  C   UNL     1     -11.951   5.972 -14.293  0.00  0.00    +0.000 A 
ENDBRANCH   1   6
BRANCH   1   9
ATOM      9  C   UNL     1      -9.321   3.450 -16.798  0.00  0.00    +0.000 C 
BRANCH   9  10
ATOM     10  C   UNL     1      -8.344   2.884 -17.857  0.00  0.00    +0.000 C 
ATOM     11  C   UNL     1      -7.272   2.020 -17.204  0.00  0.00    +0.000 C 
BRANCH  10  12
ATOM     12  O   UNL     1      -9.038   2.079 -18.820  0.00  0.00    +0.000 OA
ATOM     13  H   UNL     1      -9.555   2.671 -19.392  0.00  0.00    +0.000 HD
ENDBRANCH  10  12
ENDBRANCH   9  10
ENDBRANCH   1   9
BRANCH   1  14
ATOM     14  C   UNL     1      -8.039   5.537 -17.303  0.00  0.00    +0.000 C 
BRANCH  14  15
ATOM     15  C   UNL     1      -8.430   6.519 -18.435  0.00  0.00    +0.000 C 
ATOM     16  C   UNL     1      -8.755   7.919 -17.928  0.00  0.00    +0.000 C 
BRANCH  15  17
ATOM     17  O   UNL     1      -7.398   6.632 -19.414  0.00  0.00    +0.000 OA
ATOM     18  H   UNL     1      -7.761   6.202 -20.214  0.00  0.00    +0.000 HD
ENDBRANCH  15  17
ENDBRANCH  14  15
ENDBRANCH   1  14
TORSDOF 7
ENDMDL
MODEL 2
REMARK VINA RESULT:    -5.501      2.838      5.221
REMARK INTER + INTRA:          -7.743
REMARK INTER:                  -7.196
REMARK INTRA:                  -0.546
REMARK UNBOUND:                -0.313
REMARK  Name = 
REMARK  10 active torsions:
REMARK  status: ('A' for Active; 'I' for Inactive)
REMARK    1  A    between atoms: C_1  and  C_2
REMARK    2  A    between atoms: C_5  and  N_8
REMARK    3  A    between atoms: N_8  and  C_9
REMARK    4  A    between atoms: N_8  and  C_13
REMARK    5  A    between atoms: C_9  and  C_10
REMARK    6  A    between atoms: C_10  and  C_11
REMARK    7  A    between atoms: C_10  and  O_12
REMARK    8  A    between atoms: C_13  and  C_14
REMARK    9  A    between atoms: C_14  and  C_15
REMARK   10  A    between atoms: C_14  and  O_16
REMARK                            x       y       z     vdW  Elec       q    Type
REMARK                         _______ _______ _______ _____ _____    ______ ____
ROOT
ATOM      1  N   UNL     1     -10.609   6.650 -15.243  0.00  0.00    +0.000 N 
ENDROOT
BRANCH   1   6
ATOM      2  C   UNL     1      -8.193   2.109 -17.863  0.00  0.00    +0.000 C 
ATOM      3  C   UNL     1      -8.834   3.292 -17.204  0.00  0.00    +0.000 A 
ATOM      4  C   UNL     1      -8.250   4.552 -17.275  0.00  0.00    +0.000 A 
ATOM      5  C   UNL     1      -8.839   5.651 -16.629  0.00  0.00    +0.000 A 
ATOM      6  C   UNL     1     -10.017   5.546 -15.868  0.00  0.00    +0.000 A 
ATOM      7  C   UNL     1     -10.581   4.258 -15.820  0.00  0.00    +0.000 A 
ATOM      8  C   UNL     1     -10.003   3.150 -16.463  0.00  0.00    +0.000 A 
ENDBRANCH   1   6
BRANCH   1   9
ATOM      9  C   UNL     1     -10.442   6.858 -13.785  0.00  0.00    +0.000 C 
BRANCH   9  10
ATOM     10  C   UNL     1     -11.791   6.909 -13.027  0.00  0.00    +0.000 C 
ATOM     11  C   UNL     1     -12.187   5.525 -12.526  0.00  0.00    +0.000 C 
BRANCH  10  12
ATOM     12  O   UNL     1     -11.713   7.785 -11.895  0.00  0.00    +0.000 OA
ATOM     13  H   UNL     1     -10.926   7.542 -11.379  0.00  0.00    +0.000 HD
ENDBRANCH  10  12
ENDBRANCH   9  10
ENDBRANCH   1   9
BRANCH   1  14
ATOM     14  C   UNL     1     -11.788   7.330 -15.839  0.00  0.00    +0.000 C 
BRANCH  14  15
ATOM     15  C   UNL     1     -11.381   8.397 -16.884  0.00  0.00    +0.000 C 
ATOM     16  C   UNL     1     -10.034   9.045 -16.586  0.00  0.00    +0.000 C 
BRANCH  15  17
ATOM     17  O   UNL     1     -11.327   7.852 -18.201  0.00  0.00    +0.000 OA
ATOM     18  H   UNL     1     -11.902   7.060 -18.171  0.00  0.00    +0.000 HD
ENDBRANCH  15  17
ENDBRANCH  14  15
ENDBRANCH   1  14
TORSDOF 7
ENDMDL
MODEL 3
REMARK VINA RESULT:    -5.370      2.544      5.489
REMARK INTER + INTRA:          -7.567
REMARK INTER:                  -7.129
REMARK INTRA:                  -0.438
REMARK UNBOUND:                -0.313
REMARK  Name = 
REMARK  10 active torsions:
REMARK  status: ('A' for Active; 'I' for Inactive)
REMARK    1  A    between atoms: C_1  and  C_2
REMARK    2  A    between atoms: C_5  and  N_8
REMARK    3  A    between atoms: N_8  and  C_9
REMARK    4  A    between atoms: N_8  and  C_13
REMARK    5  A    between atoms: C_9  and  C_10
REMARK    6  A    between atoms: C_10  and  C_11
REMARK    7  A    between atoms: C_10  and  O_12
REMARK    8  A    between atoms: C_13  and  C_14
REMARK    9  A    between atoms: C_14  and  C_15
REMARK   10  A    between atoms: C_14  and  O_16
REMARK                            x       y       z     vdW  Elec       q    Type
REMARK                         _______ _______ _______ _____ _____    ______ ____
ROOT
ATOM      1  N   UNL     1     -10.430   6.351 -15.792  0.00  0.00    +0.000 N 
ENDROOT
BRANCH   1   6
ATOM      2  C   UNL     1      -7.795   1.653 -17.869  0.00  0.00    +0.000 C 
ATOM      3  C   UNL     1      -8.491   2.874 -17.351  0.00  0.00    +0.000 A 
ATOM      4  C   UNL     1      -7.935   4.138 -17.518  0.00  0.00    +0.000 A 
ATOM      5  C   UNL     1      -8.578   5.276 -17.005  0.00  0.00    +0.000 A 
ATOM      6  C   UNL     1      -9.784   5.210 -16.285  0.00  0.00    +0.000 A 
ATOM      7  C   UNL     1     -10.319   3.917 -16.137  0.00  0.00    +0.000 A 
ATOM      8  C   UNL     1      -9.688   2.770 -16.648  0.00  0.00    +0.000 A 
ENDBRANCH   1   6
BRANCH   1   9
ATOM      9  C   UNL     1      -9.762   7.673 -15.867  0.00  0.00    +0.000 C 
BRANCH   9  10
ATOM     10  C   UNL     1     -10.295   8.550 -17.027  0.00  0.00    +0.000 C 
ATOM     11  C   UNL     1      -9.186   8.873 -18.021  0.00  0.00    +0.000 C 
BRANCH  10  12
ATOM     12  O   UNL     1     -11.346   7.880 -17.737  0.00  0.00    +0.000 OA
ATOM     13  H   UNL     1     -11.315   6.938 -17.503  0.00  0.00    +0.000 HD
ENDBRANCH  10  12
ENDBRANCH   9  10
ENDBRANCH   1   9
BRANCH   1  14
ATOM     14  C   UNL     1     -11.496   6.248 -14.764  0.00  0.00    +0.000 C 
BRANCH  14  15
ATOM     15  C   UNL     1     -11.149   7.040 -13.480  0.00  0.00    +0.000 C 
ATOM     16  C   UNL     1     -12.086   8.216 -13.229  0.00  0.00    +0.000 C 
BRANCH  15  17
ATOM     17  O   UNL     1     -11.168   6.205 -12.324  0.00  0.00    +0.000 OA
ATOM     18  H   UNL     1     -10.511   6.600 -11.716  0.00  0.00    +0.000 HD
ENDBRANCH  15  17
ENDBRANCH  14  15
ENDBRANCH   1  14
TORSDOF 7
ENDMDL
MODEL 4
REMARK VINA RESULT:    -5.342      1.709      2.247
REMARK INTER + INTRA:          -7.528
REMARK INTER:                  -7.110
REMARK INTRA:                  -0.418
REMARK UNBOUND:                -0.313
REMARK  Name = 
REMARK  10 active torsions:
REMARK  status: ('A' for Active; 'I' for Inactive)
REMARK    1  A    between atoms: C_1  and  C_2
REMARK    2  A    between atoms: C_5  and  N_8
REMARK    3  A    between atoms: N_8  and  C_9
REMARK    4  A    between atoms: N_8  and  C_13
REMARK    5  A    between atoms: C_9  and  C_10
REMARK    6  A    between atoms: C_10  and  C_11
REMARK    7  A    between atoms: C_10  and  O_12
REMARK    8  A    between atoms: C_13  and  C_14
REMARK    9  A    between atoms: C_14  and  C_15
REMARK   10  A    between atoms: C_14  and  O_16
REMARK                            x       y       z     vdW  Elec       q    Type
REMARK                         _______ _______ _______ _____ _____    ______ ____
ROOT
ATOM      1  N   UNL     1      -9.709   6.415 -16.943  0.00  0.00    +0.000 N 
ENDROOT
BRANCH   1   6
ATOM      2  C   UNL     1     -11.970   8.610 -12.106  0.00  0.00    +0.000 C 
ATOM      3  C   UNL     1     -11.375   8.063 -13.367  0.00  0.00    +0.000 A 
ATOM      4  C   UNL     1     -12.117   8.007 -14.542  0.00  0.00    +0.000 A 
ATOM      5  C   UNL     1     -11.564   7.465 -15.713  0.00  0.00    +0.000 A 
ATOM      6  C   UNL     1     -10.262   6.935 -15.766  0.00  0.00    +0.000 A 
ATOM      7  C   UNL     1      -9.540   7.011 -14.561  0.00  0.00    +0.000 A 
ATOM      8  C   UNL     1     -10.080   7.552 -13.382  0.00  0.00    +0.000 A 
ENDBRANCH   1   6
BRANCH   1   9
ATOM      9  C   UNL     1      -8.755   5.281 -16.878  0.00  0.00    +0.000 C 
BRANCH   9  10
ATOM     10  C   UNL     1      -9.462   3.905 -16.809  0.00  0.00    +0.000 C 
ATOM     11  C   UNL     1      -8.597   2.816 -17.432  0.00  0.00    +0.000 C 
BRANCH  10  12
ATOM     12  O   UNL     1      -9.735   3.534 -15.451  0.00  0.00    +0.000 OA
ATOM     13  H   UNL     1     -10.670   3.726 -15.268  0.00  0.00    +0.000 HD
ENDBRANCH  10  12
ENDBRANCH   9  10
ENDBRANCH   1   9
BRANCH   1  14
ATOM     14  C   UNL     1      -9.624   7.233 -18.180  0.00  0.00    +0.000 C 
BRANCH  14  15
ATOM     15  C   UNL     1      -8.380   8.153 -18.186  0.00  0.00    +0.000 C 
ATOM     16  C   UNL     1      -7.337   7.745 -19.220  0.00  0.00    +0.000 C 
BRANCH  15  17
ATOM     17  O   UNL     1      -8.733   9.514 -18.429  0.00  0.00    +0.000 OA
ATOM     18  H   UNL     1      -9.351   9.748 -17.707  0.00  0.00    +0.000 HD
ENDBRANCH  15  17
ENDBRANCH  14  15
ENDBRANCH   1  14
TORSDOF 7
ENDMDL
MODEL 5
REMARK VINA RESULT:    -5.168      1.518      3.655
REMARK INTER + INTRA:          -7.293
REMARK INTER:                  -7.062
REMARK INTRA:                  -0.232
REMARK UNBOUND:                -0.313
REMARK  Name = 
REMARK  10 active torsions:
REMARK  status: ('A' for Active; 'I' for Inactive)
REMARK    1  A    between atoms: C_1  and  C_2
REMARK    2  A    between atoms: C_5  and  N_8
REMARK    3  A    between atoms: N_8  and  C_9
REMARK    4  A    between atoms: N_8  and  C_13
REMARK    5  A    between atoms: C_9  and  C_10
REMARK    6  A    between atoms: C_10  and  C_11
REMARK    7  A    between atoms: C_10  and  O_12
REMARK    8  A    between atoms: C_13  and  C_14
REMARK    9  A    between atoms: C_14  and  C_15
REMARK   10  A    between atoms: C_14  and  O_16
REMARK                            x       y       z     vdW  Elec       q    Type
REMARK                         _______ _______ _______ _____ _____    ______ ____
ROOT
ATOM      1  N   UNL     1      -8.826   6.433 -17.223  0.00  0.00    +0.000 N 
ENDROOT
BRANCH   1   6
ATOM      2  C   UNL     1     -11.786   8.433 -12.689  0.00  0.00    +0.000 C 
ATOM      3  C   UNL     1     -11.024   7.891 -13.859  0.00  0.00    +0.000 A 
ATOM      4  C   UNL     1      -9.664   7.613 -13.759  0.00  0.00    +0.000 A 
ATOM      5  C   UNL     1      -8.948   7.133 -14.868  0.00  0.00    +0.000 A 
ATOM      6  C   UNL     1      -9.541   6.930 -16.127  0.00  0.00    +0.000 A 
ATOM      7  C   UNL     1     -10.917   7.219 -16.191  0.00  0.00    +0.000 A 
ATOM      8  C   UNL     1     -11.645   7.698 -15.089  0.00  0.00    +0.000 A 
ENDBRANCH   1   6
BRANCH   1   9
ATOM      9  C   UNL     1      -9.148   6.897 -18.594  0.00  0.00    +0.000 C 
BRANCH   9  10
ATOM     10  C   UNL     1      -8.046   7.802 -19.196  0.00  0.00    +0.000 C 
ATOM     11  C   UNL     1      -8.378   9.275 -18.991  0.00  0.00    +0.000 C 
BRANCH  10  12
ATOM     12  O   UNL     1      -6.775   7.543 -18.583  0.00  0.00    +0.000 OA
ATOM     13  H   UNL     1      -6.915   7.455 -17.626  0.00  0.00    +0.000 HD
ENDBRANCH  10  12
ENDBRANCH   9  10
ENDBRANCH   1   9
BRANCH   1  14
ATOM     14  C   UNL     1      -8.127   5.123 -17.156  0.00  0.00    +0.000 C 
BRANCH  14  15
ATOM     15  C   UNL     1      -9.116   3.939 -17.039  0.00  0.00    +0.000 C 
ATOM     16  C   UNL     1      -8.538   2.623 -17.547  0.00  0.00    +0.000 C 
BRANCH  15  17
ATOM     17  O   UNL     1      -9.545   3.741 -15.693  0.00  0.00    +0.000 OA
ATOM     18  H   UNL     1      -8.741   3.464 -15.209  0.00  0.00    +0.000 HD
ENDBRANCH  15  17
ENDBRANCH  14  15
ENDBRANCH   1  14
TORSDOF 7
ENDMDL
MODEL 6
REMARK VINA RESULT:    -5.159      0.873      3.261
REMARK INTER + INTRA:          -7.281
REMARK INTER:                  -6.735
REMARK INTRA:                  -0.546
REMARK UNBOUND:                -0.313
REMARK  Name = 
REMARK  10 active torsions:
REMARK  status: ('A' for Active; 'I' for Inactive)
REMARK    1  A    between atoms: C_1  and  C_2
REMARK    2  A    between atoms: C_5  and  N_8
REMARK    3  A    between atoms: N_8  and  C_9
REMARK    4  A    between atoms: N_8  and  C_13
REMARK    5  A    between atoms: C_9  and  C_10
REMARK    6  A    between atoms: C_10  and  C_11
REMARK    7  A    between atoms: C_10  and  O_12
REMARK    8  A    between atoms: C_13  and  C_14
REMARK    9  A    between atoms: C_14  and  C_15
REMARK   10  A    between atoms: C_14  and  O_16
REMARK                            x       y       z     vdW  Elec       q    Type
REMARK                         _______ _______ _______ _____ _____    ______ ____
ROOT
ATOM      1  N   UNL     1      -9.160   5.629 -16.410  0.00  0.00    +0.000 N 
ENDROOT
BRANCH   1   6
ATOM      2  C   UNL     1     -12.048   8.388 -12.241  0.00  0.00    +0.000 C 
ATOM      3  C   UNL     1     -11.293   7.654 -13.307  0.00  0.00    +0.000 A 
ATOM      4  C   UNL     1      -9.944   7.908 -13.530  0.00  0.00    +0.000 A 
ATOM      5  C   UNL     1      -9.248   7.238 -14.550  0.00  0.00    +0.000 A 
ATOM      6  C   UNL     1      -9.864   6.308 -15.407  0.00  0.00    +0.000 A 
ATOM      7  C   UNL     1     -11.227   6.074 -15.151  0.00  0.00    +0.000 A 
ATOM      8  C   UNL     1     -11.934   6.735 -14.133  0.00  0.00    +0.000 A 
ENDBRANCH   1   6
BRANCH   1   9
ATOM      9  C   UNL     1      -8.058   6.308 -17.134  0.00  0.00    +0.000 C 
BRANCH   9  10
ATOM     10  C   UNL     1      -8.481   6.806 -18.538  0.00  0.00    +0.000 C 
ATOM     11  C   UNL     1      -9.119   8.188 -18.457  0.00  0.00    +0.000 C 
BRANCH  10  12
ATOM     12  O   UNL     1      -7.350   6.890 -19.416  0.00  0.00    +0.000 OA
ATOM     13  H   UNL     1      -7.633   7.337 -20.231  0.00  0.00    +0.000 HD
ENDBRANCH  10  12
ENDBRANCH   9  10
ENDBRANCH   1   9
BRANCH   1  14
ATOM     14  C   UNL     1      -9.763   4.478 -17.129  0.00  0.00    +0.000 C 
BRANCH  14  15
ATOM     15  C   UNL     1      -8.809   3.261 -17.188  0.00  0.00    +0.000 C 
ATOM     16  C   UNL     1      -9.304   2.071 -16.375  0.00  0.00    +0.000 C 
BRANCH  15  17
ATOM     17  O   UNL     1      -8.597   2.822 -18.529  0.00  0.00    +0.000 OA
ATOM     18  H   UNL     1      -7.658   3.021 -18.715  0.00  0.00    +0.000 HD
ENDBRANCH  15  17
ENDBRANCH  14  15
ENDBRANCH   1  14
TORSDOF 7
ENDMDL
MODEL 7
REMARK VINA RESULT:    -4.108     19.655     20.764
REMARK INTER + INTRA:          -5.861
REMARK INTER:                  -5.250
REMARK INTRA:                  -0.611
REMARK UNBOUND:                -0.313
REMARK  Name = 
REMARK  10 active torsions:
REMARK  status: ('A' for Active; 'I' for Inactive)
REMARK    1  A    between atoms: C_1  and  C_2
REMARK    2  A    between atoms: C_5  and  N_8
REMARK    3  A    between atoms: N_8  and  C_9
REMARK    4  A    between atoms: N_8  and  C_13
REMARK    5  A    between atoms: C_9  and  C_10
REMARK    6  A    between atoms: C_10  and  C_11
REMARK    7  A    between atoms: C_10  and  O_12
REMARK    8  A    between atoms: C_13  and  C_14
REMARK    9  A    between atoms: C_14  and  C_15
REMARK   10  A    between atoms: C_14  and  O_16
REMARK                            x       y       z     vdW  Elec       q    Type
REMARK                         _______ _______ _______ _____ _____    ______ ____
ROOT
ATOM      1  N   UNL     1       3.801  21.658 -14.973  0.00  0.00    +0.000 N 
ENDROOT
BRANCH   1   6
ATOM      2  C   UNL     1      -1.263  23.004 -12.551  0.00  0.00    +0.000 C 
ATOM      3  C   UNL     1       0.062  22.672 -13.165  0.00  0.00    +0.000 A 
ATOM      4  C   UNL     1       0.491  23.308 -14.325  0.00  0.00    +0.000 A 
ATOM      5  C   UNL     1       1.721  22.971 -14.913  0.00  0.00    +0.000 A 
ATOM      6  C   UNL     1       2.567  21.975 -14.392  0.00  0.00    +0.000 A 
ATOM      7  C   UNL     1       2.102  21.355 -13.218  0.00  0.00    +0.000 A 
ATOM      8  C   UNL     1       0.875  21.684 -12.618  0.00  0.00    +0.000 A 
ENDBRANCH   1   6
BRANCH   1   9
ATOM      9  C   UNL     1       5.046  21.752 -14.172  0.00  0.00    +0.000 C 
BRANCH   9  10
ATOM     10  C   UNL     1       6.312  21.393 -14.987  0.00  0.00    +0.000 C 
ATOM     11  C   UNL     1       7.562  21.977 -14.338  0.00  0.00    +0.000 C 
BRANCH  10  12
ATOM     12  O   UNL     1       6.481  19.971 -15.075  0.00  0.00    +0.000 OA
ATOM     13  H   UNL     1       7.177  19.710 -14.449  0.00  0.00    +0.000 HD
ENDBRANCH  10  12
ENDBRANCH   9  10
ENDBRANCH   1   9
BRANCH   1  14
ATOM     14  C   UNL     1       3.999  21.724 -16.443  0.00  0.00    +0.000 C 
BRANCH  14  15
ATOM     15  C   UNL     1       3.384  20.504 -17.171  0.00  0.00    +0.000 C 
ATOM     16  C   UNL     1       3.053  20.782 -18.632  0.00  0.00    +0.000 C 
BRANCH  15  17
ATOM     17  O   UNL     1       4.249  19.371 -17.122  0.00  0.00    +0.000 OA
ATOM     18  H   UNL     1       4.073  18.956 -16.253  0.00  0.00    +0.000 HD
ENDBRANCH  15  17
ENDBRANCH  14  15
ENDBRANCH   1  14
TORSDOF 7
ENDMDL
MODEL 8
REMARK VINA RESULT:    -4.053     19.417     20.763
REMARK INTER + INTRA:          -5.787
REMARK INTER:                  -5.225
REMARK INTRA:                  -0.562
REMARK UNBOUND:                -0.313
REMARK  Name = 
REMARK  10 active torsions:
REMARK  status: ('A' for Active; 'I' for Inactive)
REMARK    1  A    between atoms: C_1  and  C_2
REMARK    2  A    between atoms: C_5  and  N_8
REMARK    3  A    between atoms: N_8  and  C_9
REMARK    4  A    between atoms: N_8  and  C_13
REMARK    5  A    between atoms: C_9  and  C_10
REMARK    6  A    between atoms: C_10  and  C_11
REMARK    7  A    between atoms: C_10  and  O_12
REMARK    8  A    between atoms: C_13  and  C_14
REMARK    9  A    between atoms: C_14  and  C_15
REMARK   10  A    between atoms: C_14  and  O_16
REMARK                            x       y       z     vdW  Elec       q    Type
REMARK                         _______ _______ _______ _____ _____    ______ ____
ROOT
ATOM      1  N   UNL     1       3.990  22.057 -15.122  0.00  0.00    +0.000 N 
ENDROOT
BRANCH   1   6
ATOM      2  C   UNL     1      -1.457  22.591 -13.285  0.00  0.00    +0.000 C 
ATOM      3  C   UNL     1      -0.037  22.470 -13.746  0.00  0.00    +0.000 A 
ATOM      4  C   UNL     1       0.430  23.214 -14.824  0.00  0.00    +0.000 A 
ATOM      5  C   UNL     1       1.754  23.074 -15.271  0.00  0.00    +0.000 A 
ATOM      6  C   UNL     1       2.665  22.176 -14.684  0.00  0.00    +0.000 A 
ATOM      7  C   UNL     1       2.159  21.443 -13.596  0.00  0.00    +0.000 A 
ATOM      8  C   UNL     1       0.838  21.574 -13.138  0.00  0.00    +0.000 A 
ENDBRANCH   1   6
BRANCH   1   9
ATOM      9  C   UNL     1       4.277  21.711 -16.535  0.00  0.00    +0.000 C 
BRANCH   9  10
ATOM     10  C   UNL     1       3.451  20.501 -17.037  0.00  0.00    +0.000 C 
ATOM     11  C   UNL     1       2.870  20.773 -18.420  0.00  0.00    +0.000 C 
BRANCH  10  12
ATOM     12  O   UNL     1       4.265  19.322 -17.121  0.00  0.00    +0.000 OA
ATOM     13  H   UNL     1       4.003  18.832 -17.918  0.00  0.00    +0.000 HD
ENDBRANCH  10  12
ENDBRANCH   9  10
ENDBRANCH   1   9
BRANCH   1  14
ATOM     14  C   UNL     1       5.090  21.758 -14.170  0.00  0.00    +0.000 C 
BRANCH  14  15
ATOM     15  C   UNL     1       6.402  21.375 -14.896  0.00  0.00    +0.000 C 
ATOM     16  C   UNL     1       7.652  21.864 -14.173  0.00  0.00    +0.000 C 
BRANCH  15  17
ATOM     17  O   UNL     1       6.516  19.964 -15.069  0.00  0.00    +0.000 OA
ATOM     18  H   UNL     1       7.168  19.678 -14.398  0.00  0.00    +0.000 HD
ENDBRANCH  15  17
ENDBRANCH  14  15
ENDBRANCH   1  14
TORSDOF 7
ENDMDL
MODEL 9
REMARK VINA RESULT:    -3.601     16.993     18.042
REMARK INTER + INTRA:          -5.177
REMARK INTER:                  -4.781
REMARK INTRA:                  -0.396
REMARK UNBOUND:                -0.313
REMARK  Name = 
REMARK  10 active torsions:
REMARK  status: ('A' for Active; 'I' for Inactive)
REMARK    1  A    between atoms: C_1  and  C_2
REMARK    2  A    between atoms: C_5  and  N_8
REMARK    3  A    between atoms: N_8  and  C_9
REMARK    4  A    between atoms: N_8  and  C_13
REMARK    5  A    between atoms: C_9  and  C_10
REMARK    6  A    between atoms: C_10  and  C_11
REMARK    7  A    between atoms: C_10  and  O_12
REMARK    8  A    between atoms: C_13  and  C_14
REMARK    9  A    between atoms: C_14  and  C_15
REMARK   10  A    between atoms: C_14  and  O_16
REMARK                            x       y       z     vdW  Elec       q    Type
REMARK                         _______ _______ _______ _____ _____    ______ ____
ROOT
ATOM      1  N   UNL     1      -4.773  21.773 -14.400  0.00  0.00    +0.000 N 
ENDROOT
BRANCH   1   6
ATOM      2  C   UNL     1      -8.664  23.209 -18.415  0.00  0.00    +0.000 C 
ATOM      3  C   UNL     1      -7.652  22.814 -17.383  0.00  0.00    +0.000 A 
ATOM      4  C   UNL     1      -8.046  22.242 -16.178  0.00  0.00    +0.000 A 
ATOM      5  C   UNL     1      -7.095  21.901 -15.203  0.00  0.00    +0.000 A 
ATOM      6  C   UNL     1      -5.717  22.133 -15.369  0.00  0.00    +0.000 A 
ATOM      7  C   UNL     1      -5.355  22.710 -16.599  0.00  0.00    +0.000 A 
ATOM      8  C   UNL     1      -6.296  23.054 -17.584  0.00  0.00    +0.000 A 
ENDBRANCH   1   6
BRANCH   1   9
ATOM      9  C   UNL     1      -3.555  21.023 -14.791  0.00  0.00    +0.000 C 
BRANCH   9  10
ATOM     10  C   UNL     1      -2.357  21.950 -15.113  0.00  0.00    +0.000 C 
ATOM     11  C   UNL     1      -1.329  21.923 -13.988  0.00  0.00    +0.000 C 
BRANCH  10  12
ATOM     12  O   UNL     1      -1.702  21.543 -16.323  0.00  0.00    +0.000 OA
ATOM     13  H   UNL     1      -2.379  21.439 -17.012  0.00  0.00    +0.000 HD
ENDBRANCH  10  12
ENDBRANCH   9  10
ENDBRANCH   1   9
BRANCH   1  14
ATOM     14  C   UNL     1      -5.149  21.649 -12.968  0.00  0.00    +0.000 C 
BRANCH  14  15
ATOM     15  C   UNL     1      -5.096  23.008 -12.230  0.00  0.00    +0.000 C 
ATOM     16  C   UNL     1      -5.826  22.993 -10.892  0.00  0.00    +0.000 C 
BRANCH  15  17
ATOM     17  O   UNL     1      -3.753  23.430 -11.996  0.00  0.00    +0.000 OA
ATOM     18  H   UNL     1      -3.478  22.958 -11.185  0.00  0.00    +0.000 HD
ENDBRANCH  15  17
ENDBRANCH  14  15
ENDBRANCH   1  14
TORSDOF 7
ENDMDL
