MODEL 1
REMARK VINA RESULT:    -4.932      0.000      0.000
REMARK INTER + INTRA:          -5.410
REMARK INTER:                  -5.365
REMARK INTRA:                  -0.046
REMARK UNBOUND:                -0.046
REMARK  Name = 
REMARK  3 active torsions:
REMARK  status: ('A' for Active; 'I' for Inactive)
REMARK    1  A    between atoms: C_1  and  O_2
REMARK    2  A    between atoms: O_2  and  C_3
REMARK    3  A    between atoms: C_8  and  O_9
REMARK                            x       y       z     vdW  Elec       q    Type
REMARK                         _______ _______ _______ _____ _____    ______ ____
ROOT
ATOM      1  C   UNL     1       0.664   2.940  10.268  0.00  0.00    +0.000 A 
ATOM      2  C   UNL     1       1.127   4.108  10.870  0.00  0.00    +0.000 A 
ATOM      3  C   UNL     1       1.359   4.139  12.251  0.00  0.00    +0.000 A 
ATOM      4  C   UNL     1       1.128   3.006  13.033  0.00  0.00    +0.000 A 
ATOM      5  C   UNL     1       0.666   1.834  12.438  0.00  0.00    +0.000 A 
ATOM      6  C   UNL     1       0.438   1.813  11.068  0.00  0.00    +0.000 A 
ENDROOT
BRANCH   1   8
ATOM      7  C   UNL     1       1.344   3.302   8.020  0.00  0.00    +0.000 C 
ATOM      8  O   UNL     1       0.394   2.767   8.934  0.00  0.00    +0.000 OA
ENDBRANCH   1   8
BRANCH   6   9
ATOM      9  O   UNL     1      -0.016   0.650  10.506  0.00  0.00    +0.000 OA
ATOM     10  H   UNL     1       0.415  -0.060  11.020  0.00  0.00    +0.000 HD
ENDBRANCH   6   9
TORSDOF 2
ENDMDL
MODEL 2
REMARK VINA RESULT:    -4.472      2.317      3.339
REMARK INTER + INTRA:          -4.909
REMARK INTER:                  -4.857
REMARK INTRA:                  -0.053
REMARK UNBOUND:                -0.046
REMARK  Name = 
REMARK  3 active torsions:
REMARK  status: ('A' for Active; 'I' for Inactive)
REMARK    1  A    between atoms: C_1  and  O_2
REMARK    2  A    between atoms: O_2  and  C_3
REMARK    3  A    between atoms: C_8  and  O_9
REMARK                            x       y       z     vdW  Elec       q    Type
REMARK                         _______ _______ _______ _____ _____    ______ ____
ROOT
ATOM      1  C   UNL     1       0.957   4.014  12.125  0.00  0.00    +0.000 A 
ATOM      2  C   UNL     1       0.546   4.049  10.793  0.00  0.00    +0.000 A 
ATOM      3  C   UNL     1       0.169   2.865  10.146  0.00  0.00    +0.000 A 
ATOM      4  C   UNL     1       0.201   1.646  10.825  0.00  0.00    +0.000 A 
ATOM      5  C   UNL     1       0.610   1.603  12.156  0.00  0.00    +0.000 A 
ATOM      6  C   UNL     1       0.983   2.781  12.790  0.00  0.00    +0.000 A 
ENDROOT
BRANCH   1   8
ATOM      7  C   UNL     1       0.366   6.078  13.143  0.00  0.00    +0.000 C 
ATOM      8  O   UNL     1       1.353   5.088  12.880  0.00  0.00    +0.000 OA
ENDBRANCH   1   8
BRANCH   6   9
ATOM      9  O   UNL     1       1.381   2.714  14.098  0.00  0.00    +0.000 OA
ATOM     10  H   UNL     1       1.438   3.644  14.389  0.00  0.00    +0.000 HD
ENDBRANCH   6   9
TORSDOF 2
ENDMDL
MODEL 3
REMARK VINA RESULT:    -4.455      1.335      3.086
REMARK INTER + INTRA:          -4.891
REMARK INTER:                  -4.842
REMARK INTRA:                  -0.049
REMARK UNBOUND:                -0.046
REMARK  Name = 
REMARK  3 active torsions:
REMARK  status: ('A' for Active; 'I' for Inactive)
REMARK    1  A    between atoms: C_1  and  O_2
REMARK    2  A    between atoms: O_2  and  C_3
REMARK    3  A    between atoms: C_8  and  O_9
REMARK                            x       y       z     vdW  Elec       q    Type
REMARK                         _______ _______ _______ _____ _____    ______ ____
ROOT
ATOM      1  C   UNL     1       0.841   2.555  11.597  0.00  0.00    +0.000 A 
ATOM      2  C   UNL     1       1.616   3.692  11.371  0.00  0.00    +0.000 A 
ATOM      3  C   UNL     1       1.797   4.167  10.066  0.00  0.00    +0.000 A 
ATOM      4  C   UNL     1       1.207   3.509   8.985  0.00  0.00    +0.000 A 
ATOM      5  C   UNL     1       0.431   2.373   9.203  0.00  0.00    +0.000 A 
ATOM      6  C   UNL     1       0.257   1.909  10.501  0.00  0.00    +0.000 A 
ENDROOT
BRANCH   1   8
ATOM      7  C   UNL     1       1.704   1.708  13.643  0.00  0.00    +0.000 C 
ATOM      8  O   UNL     1       0.579   1.981  12.815  0.00  0.00    +0.000 OA
ENDBRANCH   1   8
BRANCH   6   9
ATOM      9  O   UNL     1      -0.510   0.791  10.690  0.00  0.00    +0.000 OA
ATOM     10  H   UNL     1       0.129   0.082  10.895  0.00  0.00    +0.000 HD
ENDBRANCH   6   9
TORSDOF 2
ENDMDL
MODEL 4
REMARK VINA RESULT:    -4.109      2.154      3.739
REMARK INTER + INTRA:          -4.515
REMARK INTER:                  -4.462
REMARK INTRA:                  -0.053
REMARK UNBOUND:                -0.046
REMARK  Name = 
REMARK  3 active torsions:
REMARK  status: ('A' for Active; 'I' for Inactive)
REMARK    1  A    between atoms: C_1  and  O_2
REMARK    2  A    between atoms: O_2  and  C_3
REMARK    3  A    between atoms: C_8  and  O_9
REMARK                            x       y       z     vdW  Elec       q    Type
REMARK                         _______ _______ _______ _____ _____    ______ ____
ROOT
ATOM      1  C   UNL     1       0.967   3.977  12.483  0.00  0.00    +0.000 A 
ATOM      2  C   UNL     1       1.260   2.717  13.004  0.00  0.00    +0.000 A 
ATOM      3  C   UNL     1       0.902   1.565  12.293  0.00  0.00    +0.000 A 
ATOM      4  C   UNL     1       0.250   1.667  11.062  0.00  0.00    +0.000 A 
ATOM      5  C   UNL     1      -0.046   2.922  10.535  0.00  0.00    +0.000 A 
ATOM      6  C   UNL     1       0.313   4.059  11.247  0.00  0.00    +0.000 A 
ENDROOT
BRANCH   1   8
ATOM      7  C   UNL     1       0.545   5.500  14.258  0.00  0.00    +0.000 C 
ATOM      8  O   UNL     1       1.257   5.184  13.067  0.00  0.00    +0.000 OA
ENDBRANCH   1   8
BRANCH   6   9
ATOM      9  O   UNL     1       0.011   5.282  10.709  0.00  0.00    +0.000 OA
ATOM     10  H   UNL     1      -0.292   5.085   9.802  0.00  0.00    +0.000 HD
ENDBRANCH   6   9
TORSDOF 2
ENDMDL
MODEL 5
REMARK VINA RESULT:    -3.978      2.009      3.813
REMARK INTER + INTRA:          -4.373
REMARK INTER:                  -4.329
REMARK INTRA:                  -0.044
REMARK UNBOUND:                -0.046
REMARK  Name = 
REMARK  3 active torsions:
REMARK  status: ('A' for Active; 'I' for Inactive)
REMARK    1  A    between atoms: C_1  and  O_2
REMARK    2  A    between atoms: O_2  and  C_3
REMARK    3  A    between atoms: C_8  and  O_9
REMARK                            x       y       z     vdW  Elec       q    Type
REMARK                         _______ _______ _______ _____ _____    ______ ____
ROOT
ATOM      1  C   UNL     1       0.778   2.644  11.773  0.00  0.00    +0.000 A 
ATOM      2  C   UNL     1      -0.044   1.777  11.054  0.00  0.00    +0.000 A 
ATOM      3  C   UNL     1      -0.109   1.871   9.658  0.00  0.00    +0.000 A 
ATOM      4  C   UNL     1       0.645   2.829   8.978  0.00  0.00    +0.000 A 
ATOM      5  C   UNL     1       1.469   3.698   9.689  0.00  0.00    +0.000 A 
ATOM      6  C   UNL     1       1.527   3.598  11.073  0.00  0.00    +0.000 A 
ENDROOT
BRANCH   1   8
ATOM      7  C   UNL     1       1.715   1.616  13.700  0.00  0.00    +0.000 C 
ATOM      8  O   UNL     1       0.939   2.666  13.135  0.00  0.00    +0.000 OA
ENDBRANCH   1   8
BRANCH   6   9
ATOM      9  O   UNL     1       2.343   4.464  11.750  0.00  0.00    +0.000 OA
ATOM     10  H   UNL     1       2.385   5.259  11.186  0.00  0.00    +0.000 HD
ENDBRANCH   6   9
TORSDOF 2
ENDMDL
MODEL 6
REMARK VINA RESULT:    -3.906      1.256      2.272
REMARK INTER + INTRA:          -4.294
REMARK INTER:                  -4.285
REMARK INTRA:                  -0.009
REMARK UNBOUND:                -0.046
REMARK  Name = 
REMARK  3 active torsions:
REMARK  status: ('A' for Active; 'I' for Inactive)
REMARK    1  A    between atoms: C_1  and  O_2
REMARK    2  A    between atoms: O_2  and  C_3
REMARK    3  A    between atoms: C_8  and  O_9
REMARK                            x       y       z     vdW  Elec       q    Type
REMARK                         _______ _______ _______ _____ _____    ______ ____
ROOT
ATOM      1  C   UNL     1       0.259   2.737  10.883  0.00  0.00    +0.000 A 
ATOM      2  C   UNL     1       0.640   1.609  11.609  0.00  0.00    +0.000 A 
ATOM      3  C   UNL     1       1.122   1.749  12.917  0.00  0.00    +0.000 A 
ATOM      4  C   UNL     1       1.225   3.012  13.502  0.00  0.00    +0.000 A 
ATOM      5  C   UNL     1       0.845   4.143  12.784  0.00  0.00    +0.000 A 
ATOM      6  C   UNL     1       0.369   3.996  11.487  0.00  0.00    +0.000 A 
ENDROOT
BRANCH   1   8
ATOM      7  C   UNL     1       0.737   2.689   8.556  0.00  0.00    +0.000 C 
ATOM      8  O   UNL     1      -0.227   2.750   9.601  0.00  0.00    +0.000 OA
ENDBRANCH   1   8
BRANCH   6   9
ATOM      9  O   UNL     1       0.002   5.122  10.801  0.00  0.00    +0.000 OA
ATOM     10  H   UNL     1       0.709   5.251  10.139  0.00  0.00    +0.000 HD
ENDBRANCH   6   9
TORSDOF 2
ENDMDL
MODEL 7
REMARK VINA RESULT:    -3.609      1.788      2.395
REMARK INTER + INTRA:          -3.971
REMARK INTER:                  -3.956
REMARK INTRA:                  -0.015
REMARK UNBOUND:                -0.046
REMARK  Name = 
REMARK  3 active torsions:
REMARK  status: ('A' for Active; 'I' for Inactive)
REMARK    1  A    between atoms: C_1  and  O_2
REMARK    2  A    between atoms: O_2  and  C_3
REMARK    3  A    between atoms: C_8  and  O_9
REMARK                            x       y       z     vdW  Elec       q    Type
REMARK                         _______ _______ _______ _____ _____    ______ ____
ROOT
ATOM      1  C   UNL     1       1.028   3.691  12.162  0.00  0.00    +0.000 A 
ATOM      2  C   UNL     1       0.811   5.051  12.381  0.00  0.00    +0.000 A 
ATOM      3  C   UNL     1       0.645   5.532  13.686  0.00  0.00    +0.000 A 
ATOM      4  C   UNL     1       0.695   4.658  14.774  0.00  0.00    +0.000 A 
ATOM      5  C   UNL     1       0.911   3.298  14.563  0.00  0.00    +0.000 A 
ATOM      6  C   UNL     1       1.074   2.830  13.266  0.00  0.00    +0.000 A 
ENDROOT
BRANCH   1   8
ATOM      7  C   UNL     1       0.027   2.794  10.203  0.00  0.00    +0.000 C 
ATOM      8  O   UNL     1       1.205   3.084  10.945  0.00  0.00    +0.000 OA
ENDBRANCH   1   8
BRANCH   6   9
ATOM      9  O   UNL     1       1.286   1.489  13.084  0.00  0.00    +0.000 OA
ATOM     10  H   UNL     1       1.965   1.253  13.745  0.00  0.00    +0.000 HD
ENDBRANCH   6   9
TORSDOF 2
ENDMDL
MODEL 8
REMARK VINA RESULT:    -3.462     21.450     22.680
REMARK INTER + INTRA:          -3.811
REMARK INTER:                  -3.760
REMARK INTRA:                  -0.051
REMARK UNBOUND:                -0.046
REMARK  Name = 
REMARK  3 active torsions:
REMARK  status: ('A' for Active; 'I' for Inactive)
REMARK    1  A    between atoms: C_1  and  O_2
REMARK    2  A    between atoms: O_2  and  C_3
REMARK    3  A    between atoms: C_8  and  O_9
REMARK                            x       y       z     vdW  Elec       q    Type
REMARK                         _______ _______ _______ _____ _____    ______ ____
ROOT
ATOM      1  C   UNL     1      12.414  20.614   3.711  0.00  0.00    +0.000 A 
ATOM      2  C   UNL     1      12.366  20.805   5.091  0.00  0.00    +0.000 A 
ATOM      3  C   UNL     1      13.534  20.682   5.855  0.00  0.00    +0.000 A 
ATOM      4  C   UNL     1      14.749  20.367   5.244  0.00  0.00    +0.000 A 
ATOM      5  C   UNL     1      14.805  20.175   3.866  0.00  0.00    +0.000 A 
ATOM      6  C   UNL     1      13.642  20.298   3.116  0.00  0.00    +0.000 A 
ENDROOT
BRANCH   1   8
ATOM      7  C   UNL     1      10.388  19.660   2.914  0.00  0.00    +0.000 C 
ATOM      8  O   UNL     1      11.355  20.702   2.843  0.00  0.00    +0.000 OA
ENDBRANCH   1   8
BRANCH   6   9
ATOM      9  O   UNL     1      13.721  20.104   1.763  0.00  0.00    +0.000 OA
ATOM     10  H   UNL     1      14.263  19.299   1.659  0.00  0.00    +0.000 HD
ENDBRANCH   6   9
TORSDOF 2
ENDMDL
MODEL 9
REMARK VINA RESULT:    -3.411     21.518     22.587
REMARK INTER + INTRA:          -3.756
REMARK INTER:                  -3.703
REMARK INTRA:                  -0.053
REMARK UNBOUND:                -0.046
REMARK  Name = 
REMARK  3 active torsions:
REMARK  status: ('A' for Active; 'I' for Inactive)
REMARK    1  A    between atoms: C_1  and  O_2
REMARK    2  A    between atoms: O_2  and  C_3
REMARK    3  A    between atoms: C_8  and  O_9
REMARK                            x       y       z     vdW  Elec       q    Type
REMARK                         _______ _______ _______ _____ _____    ______ ____
ROOT
ATOM      1  C   UNL     1      12.450  20.648   3.763  0.00  0.00    +0.000 A 
ATOM      2  C   UNL     1      13.509  20.128   3.020  0.00  0.00    +0.000 A 
ATOM      3  C   UNL     1      14.745  19.893   3.634  0.00  0.00    +0.000 A 
ATOM      4  C   UNL     1      14.928  20.176   4.988  0.00  0.00    +0.000 A 
ATOM      5  C   UNL     1      13.875  20.695   5.738  0.00  0.00    +0.000 A 
ATOM      6  C   UNL     1      12.652  20.926   5.121  0.00  0.00    +0.000 A 
ENDROOT
BRANCH   1   8
ATOM      7  C   UNL     1      10.407  19.817   2.878  0.00  0.00    +0.000 C 
ATOM      8  O   UNL     1      11.191  20.928   3.296  0.00  0.00    +0.000 OA
ENDBRANCH   1   8
BRANCH   6   9
ATOM      9  O   UNL     1      11.632  21.437   5.878  0.00  0.00    +0.000 OA
ATOM     10  H   UNL     1      11.993  22.261   6.257  0.00  0.00    +0.000 HD
ENDBRANCH   6   9
TORSDOF 2
ENDMDL
