MODEL 1
REMARK VINA RESULT:    -6.144      0.000      0.000
REMARK INTER + INTRA:          -8.818
REMARK INTER:                  -8.299
REMARK INTRA:                  -0.519
REMARK UNBOUND:                -0.519
REMARK  Name = 
REMARK  10 active torsions:
REMARK  status: ('A' for Active; 'I' for Inactive)
REMARK    1  A    between atoms: C_1  and  C_2
REMARK    2  A    between atoms: C_5  and  N_8
REMARK    3  A    between atoms: N_8  and  C_9
REMARK    4  A    between atoms: N_8  and  C_13
REMARK    5  A    between atoms: C_9  and  C_10
REMARK    6  A    between atoms: C_10  and  C_11
REMARK    7  A    between atoms: C_10  and  O_12
REMARK    8  A    between atoms: C_13  and  C_14
REMARK    9  A    between atoms: C_14  and  C_15
REMARK   10  A    between atoms: C_14  and  O_16
REMARK                            x       y       z     vdW  Elec       q    Type
REMARK                         _______ _______ _______ _____ _____    ______ ____
ROOT
ATOM      1  N   UNL     1      12.491   1.212   7.108  0.00  0.00    +0.000 N 
ENDROOT
BRANCH   1   6
ATOM      2  C   UNL     1      10.233   2.772  12.187  0.00  0.00    +0.000 C 
ATOM      3  C   UNL     1      10.797   2.371  10.858  0.00  0.00    +0.000 A 
ATOM      4  C   UNL     1      10.804   1.039  10.458  0.00  0.00    +0.000 A 
ATOM      5  C   UNL     1      11.361   0.665   9.224  0.00  0.00    +0.000 A 
ATOM      6  C   UNL     1      11.955   1.589   8.346  0.00  0.00    +0.000 A 
ATOM      7  C   UNL     1      11.928   2.927   8.782  0.00  0.00    +0.000 A 
ATOM      8  C   UNL     1      11.372   3.315  10.012  0.00  0.00    +0.000 A 
ENDBRANCH   1   6
BRANCH   1   9
ATOM      9  C   UNL     1      11.715   0.335   6.198  0.00  0.00    +0.000 C 
BRANCH   9  10
ATOM     10  C   UNL     1      10.414   1.000   5.688  0.00  0.00    +0.000 C 
ATOM     11  C   UNL     1      10.180   0.681   4.216  0.00  0.00    +0.000 C 
BRANCH  10  12
ATOM     12  O   UNL     1       9.275   0.540   6.429  0.00  0.00    +0.000 OA
ATOM     13  H   UNL     1       9.598   0.070   7.216  0.00  0.00    +0.000 HD
ENDBRANCH  10  12
ENDBRANCH   9  10
ENDBRANCH   1   9
BRANCH   1  14
ATOM     14  C   UNL     1      13.958   1.215   6.872  0.00  0.00    +0.000 C 
BRANCH  14  15
ATOM     15  C   UNL     1      14.345   2.024   5.611  0.00  0.00    +0.000 C 
ATOM     16  C   UNL     1      14.030   3.510   5.732  0.00  0.00    +0.000 C 
BRANCH  15  17
ATOM     17  O   UNL     1      15.732   1.890   5.304  0.00  0.00    +0.000 OA
ATOM     18  H   UNL     1      15.917   2.600   4.657  0.00  0.00    +0.000 HD
ENDBRANCH  15  17
ENDBRANCH  14  15
ENDBRANCH   1  14
TORSDOF 7
ENDMDL
MODEL 2
REMARK VINA RESULT:    -5.997      1.898      3.671
REMARK INTER + INTRA:          -8.620
REMARK INTER:                  -8.460
REMARK INTRA:                  -0.159
REMARK UNBOUND:                -0.519
REMARK  Name = 
REMARK  10 active torsions:
REMARK  status: ('A' for Active; 'I' for Inactive)
REMARK    1  A    between atoms: C_1  and  C_2
REMARK    2  A    between atoms: C_5  and  N_8
REMARK    3  A    between atoms: N_8  and  C_9
REMARK    4  A    between atoms: N_8  and  C_13
REMARK    5  A    between atoms: C_9  and  C_10
REMARK    6  A    between atoms: C_10  and  C_11
REMARK    7  A    between atoms: C_10  and  O_12
REMARK    8  A    between atoms: C_13  and  C_14
REMARK    9  A    between atoms: C_14  and  C_15
REMARK   10  A    between atoms: C_14  and  O_16
REMARK                            x       y       z     vdW  Elec       q    Type
REMARK                         _______ _______ _______ _____ _____    ______ ____
ROOT
ATOM      1  N   UNL     1      12.291   2.217   6.822  0.00  0.00    +0.000 N 
ENDROOT
BRANCH   1   6
ATOM      2  C   UNL     1      14.023   1.467  12.278  0.00  0.00    +0.000 C 
ATOM      3  C   UNL     1      13.552   1.650  10.868  0.00  0.00    +0.000 A 
ATOM      4  C   UNL     1      13.861   0.716   9.885  0.00  0.00    +0.000 A 
ATOM      5  C   UNL     1      13.443   0.908   8.558  0.00  0.00    +0.000 A 
ATOM      6  C   UNL     1      12.722   2.042   8.143  0.00  0.00    +0.000 A 
ATOM      7  C   UNL     1      12.425   2.964   9.164  0.00  0.00    +0.000 A 
ATOM      8  C   UNL     1      12.836   2.784  10.495  0.00  0.00    +0.000 A 
ENDBRANCH   1   6
BRANCH   1   9
ATOM      9  C   UNL     1      12.854   3.311   5.996  0.00  0.00    +0.000 C 
BRANCH   9  10
ATOM     10  C   UNL     1      14.348   3.094   5.650  0.00  0.00    +0.000 C 
ATOM     11  C   UNL     1      14.670   1.610   5.530  0.00  0.00    +0.000 C 
BRANCH  10  12
ATOM     12  O   UNL     1      14.685   3.724   4.406  0.00  0.00    +0.000 OA
ATOM     13  H   UNL     1      14.238   3.240   3.693  0.00  0.00    +0.000 HD
ENDBRANCH  10  12
ENDBRANCH   9  10
ENDBRANCH   1   9
BRANCH   1  14
ATOM     14  C   UNL     1      10.969   1.711   6.371  0.00  0.00    +0.000 C 
BRANCH  14  15
ATOM     15  C   UNL     1      11.091   0.389   5.575  0.00  0.00    +0.000 C 
ATOM     16  C   UNL     1       9.766  -0.351   5.435  0.00  0.00    +0.000 C 
BRANCH  15  17
ATOM     17  O   UNL     1      11.615   0.608   4.266  0.00  0.00    +0.000 OA
ATOM     18  H   UNL     1      11.835  -0.284   3.930  0.00  0.00    +0.000 HD
ENDBRANCH  15  17
ENDBRANCH  14  15
ENDBRANCH   1  14
TORSDOF 7
ENDMDL
MODEL 3
REMARK VINA RESULT:    -5.986      0.923      3.555
REMARK INTER + INTRA:          -8.605
REMARK INTER:                  -8.439
REMARK INTRA:                  -0.166
REMARK UNBOUND:                -0.519
REMARK  Name = 
REMARK  10 active torsions:
REMARK  status: ('A' for Active; 'I' for Inactive)
REMARK    1  A    between atoms: C_1  and  C_2
REMARK    2  A    between atoms: C_5  and  N_8
REMARK    3  A    between atoms: N_8  and  C_9
REMARK    4  A    between atoms: N_8  and  C_13
REMARK    5  A    between atoms: C_9  and  C_10
REMARK    6  A    between atoms: C_10  and  C_11
REMARK    7  A    between atoms: C_10  and  O_12
REMARK    8  A    between atoms: C_13  and  C_14
REMARK    9  A    between atoms: C_14  and  C_15
REMARK   10  A    between atoms: C_14  and  O_16
REMARK                            x       y       z     vdW  Elec       q    Type
REMARK                         _______ _______ _______ _____ _____    ______ ____
ROOT
ATOM      1  N   UNL     1      12.224   1.352   6.896  0.00  0.00    +0.000 N 
ENDROOT
BRANCH   1   6
ATOM      2  C   UNL     1      10.329   2.227  12.279  0.00  0.00    +0.000 C 
ATOM      3  C   UNL     1      10.844   1.998  10.891  0.00  0.00    +0.000 A 
ATOM      4  C   UNL     1      11.185   3.068  10.070  0.00  0.00    +0.000 A 
ATOM      5  C   UNL     1      11.639   2.849   8.759  0.00  0.00    +0.000 A 
ATOM      6  C   UNL     1      11.752   1.565   8.198  0.00  0.00    +0.000 A 
ATOM      7  C   UNL     1      11.401   0.507   9.056  0.00  0.00    +0.000 A 
ATOM      8  C   UNL     1      10.948   0.712  10.370  0.00  0.00    +0.000 A 
ENDBRANCH   1   6
BRANCH   1   9
ATOM      9  C   UNL     1      13.673   1.146   6.655  0.00  0.00    +0.000 C 
BRANCH   9  10
ATOM     10  C   UNL     1      14.238   2.081   5.558  0.00  0.00    +0.000 C 
ATOM     11  C   UNL     1      14.098   3.544   5.964  0.00  0.00    +0.000 C 
BRANCH  10  12
ATOM     12  O   UNL     1      15.627   1.816   5.321  0.00  0.00    +0.000 OA
ATOM     13  H   UNL     1      15.740   1.621   4.376  0.00  0.00    +0.000 HD
ENDBRANCH  10  12
ENDBRANCH   9  10
ENDBRANCH   1   9
BRANCH   1  14
ATOM     14  C   UNL     1      11.454   1.817   5.714  0.00  0.00    +0.000 C 
BRANCH  14  15
ATOM     15  C   UNL     1      10.810   0.644   4.938  0.00  0.00    +0.000 C 
ATOM     16  C   UNL     1       9.833  -0.168   5.781  0.00  0.00    +0.000 C 
BRANCH  15  17
ATOM     17  O   UNL     1      10.119   1.097   3.775  0.00  0.00    +0.000 OA
ATOM     18  H   UNL     1       9.907   2.035   3.956  0.00  0.00    +0.000 HD
ENDBRANCH  15  17
ENDBRANCH  14  15
ENDBRANCH   1  14
TORSDOF 7
ENDMDL
MODEL 4
REMARK VINA RESULT:    -5.923      1.807      2.159
REMARK INTER + INTRA:          -8.519
REMARK INTER:                  -8.008
REMARK INTRA:                  -0.511
REMARK UNBOUND:                -0.519
REMARK  Name = 
REMARK  10 active torsions:
REMARK  status: ('A' for Active; 'I' for Inactive)
REMARK    1  A    between atoms: C_1  and  C_2
REMARK    2  A    between atoms: C_5  and  N_8
REMARK    3  A    between atoms: N_8  and  C_9
REMARK    4  A    between atoms: N_8  and  C_13
REMARK    5  A    between atoms: C_9  and  C_10
REMARK    6  A    between atoms: C_10  and  C_11
REMARK    7  A    between atoms: C_10  and  O_12
REMARK    8  A    between atoms: C_13  and  C_14
REMARK    9  A    between atoms: C_14  and  C_15
REMARK   10  A    between atoms: C_14  and  O_16
REMARK                            x       y       z     vdW  Elec       q    Type
REMARK                         _______ _______ _______ _____ _____    ______ ____
ROOT
ATOM      1  N   UNL     1      12.298   1.451   6.874  0.00  0.00    +0.000 N 
ENDROOT
BRANCH   1   6
ATOM      2  C   UNL     1      12.569  -0.558  12.279  0.00  0.00    +0.000 C 
ATOM      3  C   UNL     1      12.506  -0.059  10.868  0.00  0.00    +0.000 A 
ATOM      4  C   UNL     1      13.608   0.548  10.275  0.00  0.00    +0.000 A 
ATOM      5  C   UNL     1      13.533   1.040   8.962  0.00  0.00    +0.000 A 
ATOM      6  C   UNL     1      12.360   0.975   8.189  0.00  0.00    +0.000 A 
ATOM      7  C   UNL     1      11.266   0.353   8.820  0.00  0.00    +0.000 A 
ATOM      8  C   UNL     1      11.328  -0.146  10.132  0.00  0.00    +0.000 A 
ENDBRANCH   1   6
BRANCH   1   9
ATOM      9  C   UNL     1      10.984   1.685   6.228  0.00  0.00    +0.000 C 
BRANCH   9  10
ATOM     10  C   UNL     1      10.691   0.685   5.083  0.00  0.00    +0.000 C 
ATOM     11  C   UNL     1       9.682  -0.369   5.524  0.00  0.00    +0.000 C 
BRANCH  10  12
ATOM     12  O   UNL     1      10.156   1.359   3.935  0.00  0.00    +0.000 OA
ATOM     13  H   UNL     1      10.901   1.674   3.397  0.00  0.00    +0.000 HD
ENDBRANCH  10  12
ENDBRANCH   9  10
ENDBRANCH   1   9
BRANCH   1  14
ATOM     14  C   UNL     1      13.430   1.256   5.932  0.00  0.00    +0.000 C 
BRANCH  14  15
ATOM     15  C   UNL     1      14.047   2.599   5.474  0.00  0.00    +0.000 C 
ATOM     16  C   UNL     1      13.913   3.706   6.513  0.00  0.00    +0.000 C 
BRANCH  15  17
ATOM     17  O   UNL     1      15.430   2.462   5.152  0.00  0.00    +0.000 OA
ATOM     18  H   UNL     1      15.759   1.756   5.744  0.00  0.00    +0.000 HD
ENDBRANCH  15  17
ENDBRANCH  14  15
ENDBRANCH   1  14
TORSDOF 7
ENDMDL
MODEL 5
REMARK VINA RESULT:    -5.717      2.863      5.602
REMARK INTER + INTRA:          -8.241
REMARK INTER:                  -7.524
REMARK INTRA:                  -0.717
REMARK UNBOUND:                -0.519
REMARK  Name = 
REMARK  10 active torsions:
REMARK  status: ('A' for Active; 'I' for Inactive)
REMARK    1  A    between atoms: C_1  and  C_2
REMARK    2  A    between atoms: C_5  and  N_8
REMARK    3  A    between atoms: N_8  and  C_9
REMARK    4  A    between atoms: N_8  and  C_13
REMARK    5  A    between atoms: C_9  and  C_10
REMARK    6  A    between atoms: C_10  and  C_11
REMARK    7  A    between atoms: C_10  and  O_12
REMARK    8  A    between atoms: C_13  and  C_14
REMARK    9  A    between atoms: C_14  and  C_15
REMARK   10  A    between atoms: C_14  and  O_16
REMARK                            x       y       z     vdW  Elec       q    Type
REMARK                         _______ _______ _______ _____ _____    ______ ____
ROOT
ATOM      1  N   UNL     1      12.386   1.461  10.388  0.00  0.00    +0.000 N 
ENDROOT
BRANCH   1   6
ATOM      2  C   UNL     1      14.274   3.332   5.263  0.00  0.00    +0.000 C 
ATOM      3  C   UNL     1      13.761   2.844   6.583  0.00  0.00    +0.000 A 
ATOM      4  C   UNL     1      13.302   3.737   7.545  0.00  0.00    +0.000 A 
ATOM      5  C   UNL     1      12.851   3.276   8.793  0.00  0.00    +0.000 A 
ATOM      6  C   UNL     1      12.856   1.916   9.149  0.00  0.00    +0.000 A 
ATOM      7  C   UNL     1      13.325   1.041   8.151  0.00  0.00    +0.000 A 
ATOM      8  C   UNL     1      13.777   1.489   6.899  0.00  0.00    +0.000 A 
ENDBRANCH   1   6
BRANCH   1   9
ATOM      9  C   UNL     1      12.043   2.432  11.454  0.00  0.00    +0.000 C 
BRANCH   9  10
ATOM     10  C   UNL     1      10.516   2.611  11.635  0.00  0.00    +0.000 C 
ATOM     11  C   UNL     1      10.164   4.072  11.889  0.00  0.00    +0.000 C 
BRANCH  10  12
ATOM     12  O   UNL     1       9.805   2.179  10.466  0.00  0.00    +0.000 OA
ATOM     13  H   UNL     1       9.415   1.310  10.654  0.00  0.00    +0.000 HD
ENDBRANCH  10  12
ENDBRANCH   9  10
ENDBRANCH   1   9
BRANCH   1  14
ATOM     14  C   UNL     1      12.686   0.088  10.867  0.00  0.00    +0.000 C 
BRANCH  14  15
ATOM     15  C   UNL     1      11.477  -0.864  10.705  0.00  0.00    +0.000 C 
ATOM     16  C   UNL     1      10.627  -0.974  11.966  0.00  0.00    +0.000 C 
BRANCH  15  17
ATOM     17  O   UNL     1      10.626  -0.460   9.633  0.00  0.00    +0.000 OA
ATOM     18  H   UNL     1      10.291   0.421   9.896  0.00  0.00    +0.000 HD
ENDBRANCH  15  17
ENDBRANCH  14  15
ENDBRANCH   1  14
TORSDOF 7
ENDMDL
MODEL 6
REMARK VINA RESULT:    -5.692      2.713      5.245
REMARK INTER + INTRA:          -8.208
REMARK INTER:                  -7.498
REMARK INTRA:                  -0.709
REMARK UNBOUND:                -0.519
REMARK  Name = 
REMARK  10 active torsions:
REMARK  status: ('A' for Active; 'I' for Inactive)
REMARK    1  A    between atoms: C_1  and  C_2
REMARK    2  A    between atoms: C_5  and  N_8
REMARK    3  A    between atoms: N_8  and  C_9
REMARK    4  A    between atoms: N_8  and  C_13
REMARK    5  A    between atoms: C_9  and  C_10
REMARK    6  A    between atoms: C_10  and  C_11
REMARK    7  A    between atoms: C_10  and  O_12
REMARK    8  A    between atoms: C_13  and  C_14
REMARK    9  A    between atoms: C_14  and  C_15
REMARK   10  A    between atoms: C_14  and  O_16
REMARK                            x       y       z     vdW  Elec       q    Type
REMARK                         _______ _______ _______ _____ _____    ______ ____
ROOT
ATOM      1  N   UNL     1      11.967   2.337   9.748  0.00  0.00    +0.000 N 
ENDROOT
BRANCH   1   6
ATOM      2  C   UNL     1      10.600   0.581   4.421  0.00  0.00    +0.000 C 
ATOM      3  C   UNL     1      10.975   1.023   5.802  0.00  0.00    +0.000 A 
ATOM      4  C   UNL     1      10.529   0.328   6.921  0.00  0.00    +0.000 A 
ATOM      5  C   UNL     1      10.859   0.764   8.215  0.00  0.00    +0.000 A 
ATOM      6  C   UNL     1      11.625   1.919   8.456  0.00  0.00    +0.000 A 
ATOM      7  C   UNL     1      12.061   2.595   7.302  0.00  0.00    +0.000 A 
ATOM      8  C   UNL     1      11.740   2.169   6.003  0.00  0.00    +0.000 A 
ENDBRANCH   1   6
BRANCH   1   9
ATOM      9  C   UNL     1      11.196   3.417  10.409  0.00  0.00    +0.000 C 
BRANCH   9  10
ATOM     10  C   UNL     1      10.490   2.945  11.704  0.00  0.00    +0.000 C 
ATOM     11  C   UNL     1       9.479   3.980  12.182  0.00  0.00    +0.000 C 
BRANCH  10  12
ATOM     12  O   UNL     1       9.793   1.710  11.489  0.00  0.00    +0.000 OA
ATOM     13  H   UNL     1       8.868   1.919  11.279  0.00  0.00    +0.000 HD
ENDBRANCH  10  12
ENDBRANCH   9  10
ENDBRANCH   1   9
BRANCH   1  14
ATOM     14  C   UNL     1      13.336   2.129  10.286  0.00  0.00    +0.000 C 
BRANCH  14  15
ATOM     15  C   UNL     1      13.594   0.652  10.671  0.00  0.00    +0.000 C 
ATOM     16  C   UNL     1      14.872   0.457  11.478  0.00  0.00    +0.000 C 
BRANCH  15  17
ATOM     17  O   UNL     1      12.510   0.106  11.422  0.00  0.00    +0.000 OA
ATOM     18  H   UNL     1      11.844  -0.152  10.754  0.00  0.00    +0.000 HD
ENDBRANCH  15  17
ENDBRANCH  14  15
ENDBRANCH   1  14
TORSDOF 7
ENDMDL
MODEL 7
REMARK VINA RESULT:    -5.605      1.458      1.948
REMARK INTER + INTRA:          -8.089
REMARK INTER:                  -8.606
REMARK INTRA:                   0.516
REMARK UNBOUND:                -0.519
REMARK  Name = 
REMARK  10 active torsions:
REMARK  status: ('A' for Active; 'I' for Inactive)
REMARK    1  A    between atoms: C_1  and  C_2
REMARK    2  A    between atoms: C_5  and  N_8
REMARK    3  A    between atoms: N_8  and  C_9
REMARK    4  A    between atoms: N_8  and  C_13
REMARK    5  A    between atoms: C_9  and  C_10
REMARK    6  A    between atoms: C_10  and  C_11
REMARK    7  A    between atoms: C_10  and  O_12
REMARK    8  A    between atoms: C_13  and  C_14
REMARK    9  A    between atoms: C_14  and  C_15
REMARK   10  A    between atoms: C_14  and  O_16
REMARK                            x       y       z     vdW  Elec       q    Type
REMARK                         _______ _______ _______ _____ _____    ______ ____
ROOT
ATOM      1  N   UNL     1      12.223   2.073   6.498  0.00  0.00    +0.000 N 
ENDROOT
BRANCH   1   6
ATOM      2  C   UNL     1      12.374   2.062  12.269  0.00  0.00    +0.000 C 
ATOM      3  C   UNL     1      12.353   2.082  10.771  0.00  0.00    +0.000 A 
ATOM      4  C   UNL     1      11.487   2.923  10.080  0.00  0.00    +0.000 A 
ATOM      5  C   UNL     1      11.450   2.916   8.676  0.00  0.00    +0.000 A 
ATOM      6  C   UNL     1      12.251   2.060   7.898  0.00  0.00    +0.000 A 
ATOM      7  C   UNL     1      13.115   1.226   8.630  0.00  0.00    +0.000 A 
ATOM      8  C   UNL     1      13.164   1.224  10.033  0.00  0.00    +0.000 A 
ENDBRANCH   1   6
BRANCH   1   9
ATOM      9  C   UNL     1      12.181   0.796   5.744  0.00  0.00    +0.000 C 
BRANCH   9  10
ATOM     10  C   UNL     1      10.789   0.508   5.129  0.00  0.00    +0.000 C 
ATOM     11  C   UNL     1       9.753   0.258   6.218  0.00  0.00    +0.000 C 
BRANCH  10  12
ATOM     12  O   UNL     1      10.339   1.614   4.334  0.00  0.00    +0.000 OA
ATOM     13  H   UNL     1       9.562   2.001   4.769  0.00  0.00    +0.000 HD
ENDBRANCH  10  12
ENDBRANCH   9  10
ENDBRANCH   1   9
BRANCH   1  14
ATOM     14  C   UNL     1      12.735   3.235   5.728  0.00  0.00    +0.000 C 
BRANCH  14  15
ATOM     15  C   UNL     1      14.271   3.186   5.548  0.00  0.00    +0.000 C 
ATOM     16  C   UNL     1      14.835   1.771   5.597  0.00  0.00    +0.000 C 
BRANCH  15  17
ATOM     17  O   UNL     1      14.677   3.780   4.316  0.00  0.00    +0.000 OA
ATOM     18  H   UNL     1      13.940   4.374   4.068  0.00  0.00    +0.000 HD
ENDBRANCH  15  17
ENDBRANCH  14  15
ENDBRANCH   1  14
TORSDOF 7
ENDMDL
MODEL 8
REMARK VINA RESULT:    -5.600      2.783      5.755
REMARK INTER + INTRA:          -8.083
REMARK INTER:                  -7.727
REMARK INTRA:                  -0.356
REMARK UNBOUND:                -0.519
REMARK  Name = 
REMARK  10 active torsions:
REMARK  status: ('A' for Active; 'I' for Inactive)
REMARK    1  A    between atoms: C_1  and  C_2
REMARK    2  A    between atoms: C_5  and  N_8
REMARK    3  A    between atoms: N_8  and  C_9
REMARK    4  A    between atoms: N_8  and  C_13
REMARK    5  A    between atoms: C_9  and  C_10
REMARK    6  A    between atoms: C_10  and  C_11
REMARK    7  A    between atoms: C_10  and  O_12
REMARK    8  A    between atoms: C_13  and  C_14
REMARK    9  A    between atoms: C_14  and  C_15
REMARK   10  A    between atoms: C_14  and  O_16
REMARK                            x       y       z     vdW  Elec       q    Type
REMARK                         _______ _______ _______ _____ _____    ______ ____
ROOT
ATOM      1  N   UNL     1      12.486   1.173   9.548  0.00  0.00    +0.000 N 
ENDROOT
BRANCH   1   6
ATOM      2  C   UNL     1      10.626   0.545   4.119  0.00  0.00    +0.000 C 
ATOM      3  C   UNL     1      11.115   0.684   5.529  0.00  0.00    +0.000 A 
ATOM      4  C   UNL     1      10.251   0.512   6.605  0.00  0.00    +0.000 A 
ATOM      5  C   UNL     1      10.708   0.674   7.923  0.00  0.00    +0.000 A 
ATOM      6  C   UNL     1      12.033   1.033   8.231  0.00  0.00    +0.000 A 
ATOM      7  C   UNL     1      12.879   1.196   7.118  0.00  0.00    +0.000 A 
ATOM      8  C   UNL     1      12.435   1.036   5.795  0.00  0.00    +0.000 A 
ENDBRANCH   1   6
BRANCH   1   9
ATOM      9  C   UNL     1      13.929   1.026   9.857  0.00  0.00    +0.000 C 
BRANCH   9  10
ATOM     10  C   UNL     1      14.206   0.881  11.374  0.00  0.00    +0.000 C 
ATOM     11  C   UNL     1      15.245  -0.203  11.637  0.00  0.00    +0.000 C 
BRANCH  10  12
ATOM     12  O   UNL     1      14.698   2.110  11.927  0.00  0.00    +0.000 OA
ATOM     13  H   UNL     1      14.326   2.843  11.409  0.00  0.00    +0.000 HD
ENDBRANCH  10  12
ENDBRANCH   9  10
ENDBRANCH   1   9
BRANCH   1  14
ATOM     14  C   UNL     1      11.576   0.959  10.702  0.00  0.00    +0.000 C 
BRANCH  14  15
ATOM     15  C   UNL     1      10.916   2.275  11.178  0.00  0.00    +0.000 C 
ATOM     16  C   UNL     1      11.375   3.496  10.389  0.00  0.00    +0.000 C 
BRANCH  15  17
ATOM     17  O   UNL     1       9.493   2.209  11.101  0.00  0.00    +0.000 OA
ATOM     18  H   UNL     1       9.213   1.791  11.941  0.00  0.00    +0.000 HD
ENDBRANCH  15  17
ENDBRANCH  14  15
ENDBRANCH   1  14
TORSDOF 7
ENDMDL
MODEL 9
REMARK VINA RESULT:    -5.554      2.785      5.611
REMARK INTER + INTRA:          -8.021
REMARK INTER:                  -7.491
REMARK INTRA:                  -0.530
REMARK UNBOUND:                -0.519
REMARK  Name = 
REMARK  10 active torsions:
REMARK  status: ('A' for Active; 'I' for Inactive)
REMARK    1  A    between atoms: C_1  and  C_2
REMARK    2  A    between atoms: C_5  and  N_8
REMARK    3  A    between atoms: N_8  and  C_9
REMARK    4  A    between atoms: N_8  and  C_13
REMARK    5  A    between atoms: C_9  and  C_10
REMARK    6  A    between atoms: C_10  and  C_11
REMARK    7  A    between atoms: C_10  and  O_12
REMARK    8  A    between atoms: C_13  and  C_14
REMARK    9  A    between atoms: C_14  and  C_15
REMARK   10  A    between atoms: C_14  and  O_16
REMARK                            x       y       z     vdW  Elec       q    Type
REMARK                         _______ _______ _______ _____ _____    ______ ____
ROOT
ATOM      1  N   UNL     1      11.881   1.407  10.310  0.00  0.00    +0.000 N 
ENDROOT
BRANCH   1   6
ATOM      2  C   UNL     1      14.299   3.328   5.432  0.00  0.00    +0.000 C 
ATOM      3  C   UNL     1      13.649   2.830   6.687  0.00  0.00    +0.000 A 
ATOM      4  C   UNL     1      13.221   3.716   7.669  0.00  0.00    +0.000 A 
ATOM      5  C   UNL     1      12.639   3.242   8.857  0.00  0.00    +0.000 A 
ATOM      6  C   UNL     1      12.479   1.872   9.132  0.00  0.00    +0.000 A 
ATOM      7  C   UNL     1      12.922   1.006   8.116  0.00  0.00    +0.000 A 
ATOM      8  C   UNL     1      13.503   1.466   6.923  0.00  0.00    +0.000 A 
ENDBRANCH   1   6
BRANCH   1   9
ATOM      9  C   UNL     1      11.850   2.268  11.517  0.00  0.00    +0.000 C 
BRANCH   9  10
ATOM     10  C   UNL     1      10.426   2.772  11.858  0.00  0.00    +0.000 C 
ATOM     11  C   UNL     1      10.409   4.288  12.017  0.00  0.00    +0.000 C 
BRANCH  10  12
ATOM     12  O   UNL     1       9.495   2.423  10.824  0.00  0.00    +0.000 OA
ATOM     13  H   UNL     1       9.814   2.806   9.990  0.00  0.00    +0.000 HD
ENDBRANCH  10  12
ENDBRANCH   9  10
ENDBRANCH   1   9
BRANCH   1  14
ATOM     14  C   UNL     1      11.733  -0.047  10.575  0.00  0.00    +0.000 C 
BRANCH  14  15
ATOM     15  C   UNL     1      12.749  -0.555  11.627  0.00  0.00    +0.000 C 
ATOM     16  C   UNL     1      12.413  -1.941  12.164  0.00  0.00    +0.000 C 
BRANCH  15  17
ATOM     17  O   UNL     1      14.075  -0.594  11.104  0.00  0.00    +0.000 OA
ATOM     18  H   UNL     1      14.192   0.263  10.646  0.00  0.00    +0.000 HD
ENDBRANCH  15  17
ENDBRANCH  14  15
ENDBRANCH   1  14
TORSDOF 7
ENDMDL
