MODEL 1
REMARK VINA RESULT:    -4.945      0.000      0.000
REMARK INTER + INTRA:          -5.428
REMARK INTER:                  -5.378
REMARK INTRA:                  -0.049
REMARK UNBOUND:                -0.049
REMARK  Name = 
REMARK  3 active torsions:
REMARK  status: ('A' for Active; 'I' for Inactive)
REMARK    1  A    between atoms: C_1  and  O_2
REMARK    2  A    between atoms: O_2  and  C_3
REMARK    3  A    between atoms: C_8  and  O_9
REMARK                            x       y       z     vdW  Elec       q    Type
REMARK                         _______ _______ _______ _____ _____    ______ ____
ROOT
ATOM      1  C   UNL     1      13.188   1.536   6.390  0.00  0.00    +0.000 A 
ATOM      2  C   UNL     1      13.156   1.704   7.773  0.00  0.00    +0.000 A 
ATOM      3  C   UNL     1      12.026   1.310   8.500  0.00  0.00    +0.000 A 
ATOM      4  C   UNL     1      10.925   0.750   7.849  0.00  0.00    +0.000 A 
ATOM      5  C   UNL     1      10.949   0.579   6.467  0.00  0.00    +0.000 A 
ATOM      6  C   UNL     1      12.075   0.973   5.754  0.00  0.00    +0.000 A 
ENDROOT
BRANCH   1   8
ATOM      7  C   UNL     1      14.433   3.265   5.337  0.00  0.00    +0.000 C 
ATOM      8  O   UNL     1      14.222   1.875   5.555  0.00  0.00    +0.000 OA
ENDBRANCH   1   8
BRANCH   6   9
ATOM      9  O   UNL     1      12.075   0.795   4.396  0.00  0.00    +0.000 OA
ATOM     10  H   UNL     1      11.328   0.189   4.225  0.00  0.00    +0.000 HD
ENDBRANCH   6   9
TORSDOF 2
ENDMDL
MODEL 2
REMARK VINA RESULT:    -4.822      2.236      3.295
REMARK INTER + INTRA:          -5.295
REMARK INTER:                  -5.247
REMARK INTRA:                  -0.048
REMARK UNBOUND:                -0.049
REMARK  Name = 
REMARK  3 active torsions:
REMARK  status: ('A' for Active; 'I' for Inactive)
REMARK    1  A    between atoms: C_1  and  O_2
REMARK    2  A    between atoms: O_2  and  C_3
REMARK    3  A    between atoms: C_8  and  O_9
REMARK                            x       y       z     vdW  Elec       q    Type
REMARK                         _______ _______ _______ _____ _____    ______ ____
ROOT
ATOM      1  C   UNL     1      11.610   0.896   7.910  0.00  0.00    +0.000 A 
ATOM      2  C   UNL     1      12.989   1.100   7.896  0.00  0.00    +0.000 A 
ATOM      3  C   UNL     1      13.670   1.196   6.676  0.00  0.00    +0.000 A 
ATOM      4  C   UNL     1      12.977   1.088   5.468  0.00  0.00    +0.000 A 
ATOM      5  C   UNL     1      11.599   0.884   5.474  0.00  0.00    +0.000 A 
ATOM      6  C   UNL     1      10.932   0.789   6.689  0.00  0.00    +0.000 A 
ENDROOT
BRANCH   1   8
ATOM      7  C   UNL     1      10.990   1.774  10.029  0.00  0.00    +0.000 C 
ATOM      8  O   UNL     1      10.818   0.782   9.024  0.00  0.00    +0.000 OA
ENDBRANCH   1   8
BRANCH   6   9
ATOM      9  O   UNL     1       9.578   0.589   6.669  0.00  0.00    +0.000 OA
ATOM     10  H   UNL     1       9.458  -0.253   6.188  0.00  0.00    +0.000 HD
ENDBRANCH   6   9
TORSDOF 2
ENDMDL
MODEL 3
REMARK VINA RESULT:    -4.792     11.077     12.335
REMARK INTER + INTRA:          -5.261
REMARK INTER:                  -5.217
REMARK INTRA:                  -0.044
REMARK UNBOUND:                -0.049
REMARK  Name = 
REMARK  3 active torsions:
REMARK  status: ('A' for Active; 'I' for Inactive)
REMARK    1  A    between atoms: C_1  and  O_2
REMARK    2  A    between atoms: O_2  and  C_3
REMARK    3  A    between atoms: C_8  and  O_9
REMARK                            x       y       z     vdW  Elec       q    Type
REMARK                         _______ _______ _______ _____ _____    ______ ____
ROOT
ATOM      1  C   UNL     1       5.801  -7.968   9.489  0.00  0.00    +0.000 A 
ATOM      2  C   UNL     1       6.271  -9.253   9.220  0.00  0.00    +0.000 A 
ATOM      3  C   UNL     1       5.748  -9.977   8.142  0.00  0.00    +0.000 A 
ATOM      4  C   UNL     1       4.756  -9.422   7.331  0.00  0.00    +0.000 A 
ATOM      5  C   UNL     1       4.282  -8.139   7.592  0.00  0.00    +0.000 A 
ATOM      6  C   UNL     1       4.806  -7.428   8.664  0.00  0.00    +0.000 A 
ENDROOT
BRANCH   1   8
ATOM      7  C   UNL     1       7.616  -7.136  10.779  0.00  0.00    +0.000 C 
ATOM      8  O   UNL     1       6.219  -7.148  10.506  0.00  0.00    +0.000 OA
ENDBRANCH   1   8
BRANCH   6   9
ATOM      9  O   UNL     1       4.325  -6.168   8.902  0.00  0.00    +0.000 OA
ATOM     10  H   UNL     1       3.509  -6.308   9.419  0.00  0.00    +0.000 HD
ENDBRANCH   6   9
TORSDOF 2
ENDMDL
MODEL 4
REMARK VINA RESULT:    -4.714      1.666      2.978
REMARK INTER + INTRA:          -5.176
REMARK INTER:                  -5.137
REMARK INTRA:                  -0.040
REMARK UNBOUND:                -0.049
REMARK  Name = 
REMARK  3 active torsions:
REMARK  status: ('A' for Active; 'I' for Inactive)
REMARK    1  A    between atoms: C_1  and  O_2
REMARK    2  A    between atoms: O_2  and  C_3
REMARK    3  A    between atoms: C_8  and  O_9
REMARK                            x       y       z     vdW  Elec       q    Type
REMARK                         _______ _______ _______ _____ _____    ______ ____
ROOT
ATOM      1  C   UNL     1      11.905   1.776   6.466  0.00  0.00    +0.000 A 
ATOM      2  C   UNL     1      12.200   0.973   7.567  0.00  0.00    +0.000 A 
ATOM      3  C   UNL     1      12.862   1.520   8.674  0.00  0.00    +0.000 A 
ATOM      4  C   UNL     1      13.231   2.866   8.684  0.00  0.00    +0.000 A 
ATOM      5  C   UNL     1      12.939   3.674   7.588  0.00  0.00    +0.000 A 
ATOM      6  C   UNL     1      12.283   3.124   6.494  0.00  0.00    +0.000 A 
ENDROOT
BRANCH   1   8
ATOM      7  C   UNL     1      10.404   0.250   5.433  0.00  0.00    +0.000 C 
ATOM      8  O   UNL     1      11.265   1.377   5.320  0.00  0.00    +0.000 OA
ENDBRANCH   1   8
BRANCH   6   9
ATOM      9  O   UNL     1      12.007   3.938   5.429  0.00  0.00    +0.000 OA
ATOM     10  H   UNL     1      11.831   3.327   4.688  0.00  0.00    +0.000 HD
ENDBRANCH   6   9
TORSDOF 2
ENDMDL
MODEL 5
REMARK VINA RESULT:    -4.640      1.385      2.128
REMARK INTER + INTRA:          -5.096
REMARK INTER:                  -5.043
REMARK INTRA:                  -0.053
REMARK UNBOUND:                -0.049
REMARK  Name = 
REMARK  3 active torsions:
REMARK  status: ('A' for Active; 'I' for Inactive)
REMARK    1  A    between atoms: C_1  and  O_2
REMARK    2  A    between atoms: O_2  and  C_3
REMARK    3  A    between atoms: C_8  and  O_9
REMARK                            x       y       z     vdW  Elec       q    Type
REMARK                         _______ _______ _______ _____ _____    ______ ____
ROOT
ATOM      1  C   UNL     1      12.364   1.447   6.968  0.00  0.00    +0.000 A 
ATOM      2  C   UNL     1      11.214   0.945   7.577  0.00  0.00    +0.000 A 
ATOM      3  C   UNL     1      10.228   0.321   6.802  0.00  0.00    +0.000 A 
ATOM      4  C   UNL     1      10.386   0.197   5.421  0.00  0.00    +0.000 A 
ATOM      5  C   UNL     1      11.532   0.696   4.805  0.00  0.00    +0.000 A 
ATOM      6  C   UNL     1      12.505   1.314   5.581  0.00  0.00    +0.000 A 
ENDROOT
BRANCH   1   8
ATOM      7  C   UNL     1      13.125   3.354   8.164  0.00  0.00    +0.000 C 
ATOM      8  O   UNL     1      13.405   2.079   7.599  0.00  0.00    +0.000 OA
ENDBRANCH   1   8
BRANCH   6   9
ATOM      9  O   UNL     1      13.622   1.796   4.954  0.00  0.00    +0.000 OA
ATOM     10  H   UNL     1      13.885   1.087   4.336  0.00  0.00    +0.000 HD
ENDBRANCH   6   9
TORSDOF 2
ENDMDL
MODEL 6
REMARK VINA RESULT:    -4.628      2.054      2.788
REMARK INTER + INTRA:          -5.083
REMARK INTER:                  -5.055
REMARK INTRA:                  -0.029
REMARK UNBOUND:                -0.049
REMARK  Name = 
REMARK  3 active torsions:
REMARK  status: ('A' for Active; 'I' for Inactive)
REMARK    1  A    between atoms: C_1  and  O_2
REMARK    2  A    between atoms: O_2  and  C_3
REMARK    3  A    between atoms: C_8  and  O_9
REMARK                            x       y       z     vdW  Elec       q    Type
REMARK                         _______ _______ _______ _____ _____    ______ ____
ROOT
ATOM      1  C   UNL     1      12.262   1.487   7.060  0.00  0.00    +0.000 A 
ATOM      2  C   UNL     1      12.722   1.217   5.771  0.00  0.00    +0.000 A 
ATOM      3  C   UNL     1      11.852   0.671   4.819  0.00  0.00    +0.000 A 
ATOM      4  C   UNL     1      10.525   0.392   5.149  0.00  0.00    +0.000 A 
ATOM      5  C   UNL     1      10.058   0.660   6.434  0.00  0.00    +0.000 A 
ATOM      6  C   UNL     1      10.927   1.201   7.372  0.00  0.00    +0.000 A 
ENDROOT
BRANCH   1   8
ATOM      7  C   UNL     1      13.210   3.425   8.057  0.00  0.00    +0.000 C 
ATOM      8  O   UNL     1      12.998   2.018   8.089  0.00  0.00    +0.000 OA
ENDBRANCH   1   8
BRANCH   6   9
ATOM      9  O   UNL     1      10.445   1.455   8.629  0.00  0.00    +0.000 OA
ATOM     10  H   UNL     1      10.553   2.418   8.746  0.00  0.00    +0.000 HD
ENDBRANCH   6   9
TORSDOF 2
ENDMDL
MODEL 7
REMARK VINA RESULT:    -4.602      2.442      3.723
REMARK INTER + INTRA:          -5.055
REMARK INTER:                  -5.016
REMARK INTRA:                  -0.039
REMARK UNBOUND:                -0.049
REMARK  Name = 
REMARK  3 active torsions:
REMARK  status: ('A' for Active; 'I' for Inactive)
REMARK    1  A    between atoms: C_1  and  O_2
REMARK    2  A    between atoms: O_2  and  C_3
REMARK    3  A    between atoms: C_8  and  O_9
REMARK                            x       y       z     vdW  Elec       q    Type
REMARK                         _______ _______ _______ _____ _____    ______ ____
ROOT
ATOM      1  C   UNL     1      11.201   1.913   7.016  0.00  0.00    +0.000 A 
ATOM      2  C   UNL     1      12.125   2.483   6.142  0.00  0.00    +0.000 A 
ATOM      3  C   UNL     1      13.114   3.344   6.633  0.00  0.00    +0.000 A 
ATOM      4  C   UNL     1      13.182   3.640   7.996  0.00  0.00    +0.000 A 
ATOM      5  C   UNL     1      12.262   3.074   8.876  0.00  0.00    +0.000 A 
ATOM      6  C   UNL     1      11.285   2.220   8.380  0.00  0.00    +0.000 A 
ENDROOT
BRANCH   1   8
ATOM      7  C   UNL     1      10.331   0.352   5.449  0.00  0.00    +0.000 C 
ATOM      8  O   UNL     1      10.184   1.056   6.677  0.00  0.00    +0.000 OA
ENDBRANCH   1   8
BRANCH   6   9
ATOM      9  O   UNL     1      10.392   1.676   9.264  0.00  0.00    +0.000 OA
ATOM     10  H   UNL     1      10.733   0.779   9.442  0.00  0.00    +0.000 HD
ENDBRANCH   6   9
TORSDOF 2
ENDMDL
MODEL 8
REMARK VINA RESULT:    -4.571     11.538     12.216
REMARK INTER + INTRA:          -5.021
REMARK INTER:                  -4.969
REMARK INTRA:                  -0.052
REMARK UNBOUND:                -0.049
REMARK  Name = 
REMARK  3 active torsions:
REMARK  status: ('A' for Active; 'I' for Inactive)
REMARK    1  A    between atoms: C_1  and  O_2
REMARK    2  A    between atoms: O_2  and  C_3
REMARK    3  A    between atoms: C_8  and  O_9
REMARK                            x       y       z     vdW  Elec       q    Type
REMARK                         _______ _______ _______ _____ _____    ______ ____
ROOT
ATOM      1  C   UNL     1       6.400  -7.830   9.510  0.00  0.00    +0.000 A 
ATOM      2  C   UNL     1       5.115  -7.324   9.321  0.00  0.00    +0.000 A 
ATOM      3  C   UNL     1       4.258  -7.919   8.385  0.00  0.00    +0.000 A 
ATOM      4  C   UNL     1       4.683  -9.018   7.637  0.00  0.00    +0.000 A 
ATOM      5  C   UNL     1       5.965  -9.530   7.820  0.00  0.00    +0.000 A 
ATOM      6  C   UNL     1       6.807  -8.933   8.750  0.00  0.00    +0.000 A 
ENDROOT
BRANCH   1   8
ATOM      7  C   UNL     1       6.996  -7.380  11.765  0.00  0.00    +0.000 C 
ATOM      8  O   UNL     1       7.340  -7.350  10.385  0.00  0.00    +0.000 OA
ENDBRANCH   1   8
BRANCH   6   9
ATOM      9  O   UNL     1       8.063  -9.454   8.912  0.00  0.00    +0.000 OA
ATOM     10  H   UNL     1       8.086 -10.235   8.326  0.00  0.00    +0.000 HD
ENDBRANCH   6   9
TORSDOF 2
ENDMDL
MODEL 9
REMARK VINA RESULT:    -4.364      1.910      2.546
REMARK INTER + INTRA:          -4.796
REMARK INTER:                  -4.752
REMARK INTRA:                  -0.044
REMARK UNBOUND:                -0.049
REMARK  Name = 
REMARK  3 active torsions:
REMARK  status: ('A' for Active; 'I' for Inactive)
REMARK    1  A    between atoms: C_1  and  O_2
REMARK    2  A    between atoms: O_2  and  C_3
REMARK    3  A    between atoms: C_8  and  O_9
REMARK                            x       y       z     vdW  Elec       q    Type
REMARK                         _______ _______ _______ _____ _____    ______ ____
ROOT
ATOM      1  C   UNL     1      12.117   2.061   7.123  0.00  0.00    +0.000 A 
ATOM      2  C   UNL     1      13.032   2.979   7.637  0.00  0.00    +0.000 A 
ATOM      3  C   UNL     1      12.874   3.471   8.938  0.00  0.00    +0.000 A 
ATOM      4  C   UNL     1      11.804   3.049   9.730  0.00  0.00    +0.000 A 
ATOM      5  C   UNL     1      10.887   2.130   9.224  0.00  0.00    +0.000 A 
ATOM      6  C   UNL     1      11.051   1.648   7.932  0.00  0.00    +0.000 A 
ENDROOT
BRANCH   1   8
ATOM      7  C   UNL     1      13.426   1.120   5.377  0.00  0.00    +0.000 C 
ATOM      8  O   UNL     1      12.147   1.499   5.872  0.00  0.00    +0.000 OA
ENDBRANCH   1   8
BRANCH   6   9
ATOM      9  O   UNL     1      10.136   0.747   7.457  0.00  0.00    +0.000 OA
ATOM     10  H   UNL     1       9.703   0.388   8.255  0.00  0.00    +0.000 HD
ENDBRANCH   6   9
TORSDOF 2
ENDMDL
