MODEL 1
REMARK VINA RESULT:    -4.123      0.000      0.000
REMARK INTER + INTRA:          -6.089
REMARK INTER:                  -5.570
REMARK INTRA:                  -0.519
REMARK UNBOUND:                -0.519
REMARK  Name = 
REMARK  10 active torsions:
REMARK  status: ('A' for Active; 'I' for Inactive)
REMARK    1  A    between atoms: C_1  and  C_2
REMARK    2  A    between atoms: C_5  and  N_8
REMARK    3  A    between atoms: N_8  and  C_9
REMARK    4  A    between atoms: N_8  and  C_13
REMARK    5  A    between atoms: C_9  and  C_10
REMARK    6  A    between atoms: C_10  and  C_11
REMARK    7  A    between atoms: C_10  and  O_12
REMARK    8  A    between atoms: C_13  and  C_14
REMARK    9  A    between atoms: C_14  and  C_15
REMARK   10  A    between atoms: C_14  and  O_16
REMARK                            x       y       z     vdW  Elec       q    Type
REMARK                         _______ _______ _______ _____ _____    ______ ____
ROOT
ATOM      1  N   UNL     1       3.346  19.327  -3.146  0.00  0.00    +0.000 N 
ENDROOT
BRANCH   1   6
ATOM      2  C   UNL     1       8.678  19.719  -0.968  0.00  0.00    +0.000 C 
ATOM      3  C   UNL     1       7.287  19.636  -1.519  0.00  0.00    +0.000 A 
ATOM      4  C   UNL     1       6.334  18.811  -0.932  0.00  0.00    +0.000 A 
ATOM      5  C   UNL     1       5.040  18.715  -1.470  0.00  0.00    +0.000 A 
ATOM      6  C   UNL     1       4.643  19.413  -2.625  0.00  0.00    +0.000 A 
ATOM      7  C   UNL     1       5.631  20.239  -3.191  0.00  0.00    +0.000 A 
ATOM      8  C   UNL     1       6.928  20.346  -2.661  0.00  0.00    +0.000 A 
ENDBRANCH   1   6
BRANCH   1   9
ATOM      9  C   UNL     1       2.900  20.280  -4.191  0.00  0.00    +0.000 C 
BRANCH   9  10
ATOM     10  C   UNL     1       2.939  19.671  -5.614  0.00  0.00    +0.000 C 
ATOM     11  C   UNL     1       3.914  20.430  -6.505  0.00  0.00    +0.000 C 
BRANCH  10  12
ATOM     12  O   UNL     1       3.349  18.297  -5.575  0.00  0.00    +0.000 OA
ATOM     13  H   UNL     1       4.192  18.248  -5.093  0.00  0.00    +0.000 HD
ENDBRANCH  10  12
ENDBRANCH   9  10
ENDBRANCH   1   9
BRANCH   1  14
ATOM     14  C   UNL     1       2.249  18.687  -2.375  0.00  0.00    +0.000 C 
BRANCH  14  15
ATOM     15  C   UNL     1       1.111  19.683  -2.042  0.00  0.00    +0.000 C 
ATOM     16  C   UNL     1      -0.242  19.006  -1.853  0.00  0.00    +0.000 C 
BRANCH  15  17
ATOM     17  O   UNL     1       1.397  20.435  -0.863  0.00  0.00    +0.000 OA
ATOM     18  H   UNL     1       0.525  20.737  -0.539  0.00  0.00    +0.000 HD
ENDBRANCH  15  17
ENDBRANCH  14  15
ENDBRANCH   1  14
TORSDOF 7
ENDMDL
MODEL 2
REMARK VINA RESULT:    -4.040      1.444      3.583
REMARK INTER + INTRA:          -5.976
REMARK INTER:                  -5.759
REMARK INTRA:                  -0.216
REMARK UNBOUND:                -0.519
REMARK  Name = 
REMARK  10 active torsions:
REMARK  status: ('A' for Active; 'I' for Inactive)
REMARK    1  A    between atoms: C_1  and  C_2
REMARK    2  A    between atoms: C_5  and  N_8
REMARK    3  A    between atoms: N_8  and  C_9
REMARK    4  A    between atoms: N_8  and  C_13
REMARK    5  A    between atoms: C_9  and  C_10
REMARK    6  A    between atoms: C_10  and  C_11
REMARK    7  A    between atoms: C_10  and  O_12
REMARK    8  A    between atoms: C_13  and  C_14
REMARK    9  A    between atoms: C_14  and  C_15
REMARK   10  A    between atoms: C_14  and  O_16
REMARK                            x       y       z     vdW  Elec       q    Type
REMARK                         _______ _______ _______ _____ _____    ______ ____
ROOT
ATOM      1  N   UNL     1       2.684  20.422  -3.378  0.00  0.00    +0.000 N 
ENDROOT
BRANCH   1   6
ATOM      2  C   UNL     1       7.499  18.470  -0.860  0.00  0.00    +0.000 C 
ATOM      3  C   UNL     1       6.252  18.959  -1.531  0.00  0.00    +0.000 A 
ATOM      4  C   UNL     1       6.304  19.964  -2.490  0.00  0.00    +0.000 A 
ATOM      5  C   UNL     1       5.129  20.440  -3.094  0.00  0.00    +0.000 A 
ATOM      6  C   UNL     1       3.851  19.957  -2.758  0.00  0.00    +0.000 A 
ATOM      7  C   UNL     1       3.836  18.940  -1.786  0.00  0.00    +0.000 A 
ATOM      8  C   UNL     1       5.004  18.454  -1.176  0.00  0.00    +0.000 A 
ENDBRANCH   1   6
BRANCH   1   9
ATOM      9  C   UNL     1       1.401  20.434  -2.635  0.00  0.00    +0.000 C 
BRANCH   9  10
ATOM     10  C   UNL     1       0.556  19.159  -2.876  0.00  0.00    +0.000 C 
ATOM     11  C   UNL     1      -0.132  18.711  -1.592  0.00  0.00    +0.000 C 
BRANCH  10  12
ATOM     12  O   UNL     1      -0.456  19.392  -3.865  0.00  0.00    +0.000 OA
ATOM     13  H   UNL     1      -1.059  18.631  -3.863  0.00  0.00    +0.000 HD
ENDBRANCH  10  12
ENDBRANCH   9  10
ENDBRANCH   1   9
BRANCH   1  14
ATOM     14  C   UNL     1       2.549  20.426  -4.857  0.00  0.00    +0.000 C 
BRANCH  14  15
ATOM     15  C   UNL     1       3.374  19.297  -5.522  0.00  0.00    +0.000 C 
ATOM     16  C   UNL     1       2.583  18.008  -5.710  0.00  0.00    +0.000 C 
BRANCH  15  17
ATOM     17  O   UNL     1       3.880  19.695  -6.795  0.00  0.00    +0.000 OA
ATOM     18  H   UNL     1       3.411  20.527  -7.005  0.00  0.00    +0.000 HD
ENDBRANCH  15  17
ENDBRANCH  14  15
ENDBRANCH   1  14
TORSDOF 7
ENDMDL
MODEL 3
REMARK VINA RESULT:    -3.850      1.062      3.228
REMARK INTER + INTRA:          -5.720
REMARK INTER:                  -5.688
REMARK INTRA:                  -0.032
REMARK UNBOUND:                -0.519
REMARK  Name = 
REMARK  10 active torsions:
REMARK  status: ('A' for Active; 'I' for Inactive)
REMARK    1  A    between atoms: C_1  and  C_2
REMARK    2  A    between atoms: C_5  and  N_8
REMARK    3  A    between atoms: N_8  and  C_9
REMARK    4  A    between atoms: N_8  and  C_13
REMARK    5  A    between atoms: C_9  and  C_10
REMARK    6  A    between atoms: C_10  and  C_11
REMARK    7  A    between atoms: C_10  and  O_12
REMARK    8  A    between atoms: C_13  and  C_14
REMARK    9  A    between atoms: C_14  and  C_15
REMARK   10  A    between atoms: C_14  and  O_16
REMARK                            x       y       z     vdW  Elec       q    Type
REMARK                         _______ _______ _______ _____ _____    ______ ____
ROOT
ATOM      1  N   UNL     1       3.051  19.197  -3.181  0.00  0.00    +0.000 N 
ENDROOT
BRANCH   1   6
ATOM      2  C   UNL     1       8.407  19.998  -1.181  0.00  0.00    +0.000 C 
ATOM      3  C   UNL     1       7.010  19.810  -1.686  0.00  0.00    +0.000 A 
ATOM      4  C   UNL     1       6.122  18.962  -1.033  0.00  0.00    +0.000 A 
ATOM      5  C   UNL     1       4.822  18.766  -1.529  0.00  0.00    +0.000 A 
ATOM      6  C   UNL     1       4.355  19.382  -2.704  0.00  0.00    +0.000 A 
ATOM      7  C   UNL     1       5.279  20.234  -3.337  0.00  0.00    +0.000 A 
ATOM      8  C   UNL     1       6.580  20.440  -2.851  0.00  0.00    +0.000 A 
ENDBRANCH   1   6
BRANCH   1   9
ATOM      9  C   UNL     1       2.026  18.563  -2.318  0.00  0.00    +0.000 C 
BRANCH   9  10
ATOM     10  C   UNL     1       0.844  19.510  -1.996  0.00  0.00    +0.000 C 
ATOM     11  C   UNL     1      -0.373  18.722  -1.527  0.00  0.00    +0.000 C 
BRANCH  10  12
ATOM     12  O   UNL     1       1.196  20.440  -0.962  0.00  0.00    +0.000 OA
ATOM     13  H   UNL     1       2.042  20.156  -0.577  0.00  0.00    +0.000 HD
ENDBRANCH  10  12
ENDBRANCH   9  10
ENDBRANCH   1   9
BRANCH   1  14
ATOM     14  C   UNL     1       2.769  19.131  -4.638  0.00  0.00    +0.000 C 
BRANCH  14  15
ATOM     15  C   UNL     1       1.497  18.306  -4.950  0.00  0.00    +0.000 C 
ATOM     16  C   UNL     1       0.300  19.169  -5.331  0.00  0.00    +0.000 C 
BRANCH  15  17
ATOM     17  O   UNL     1       1.721  17.370  -6.004  0.00  0.00    +0.000 OA
ATOM     18  H   UNL     1       1.310  16.538  -5.695  0.00  0.00    +0.000 HD
ENDBRANCH  15  17
ENDBRANCH  14  15
ENDBRANCH   1  14
TORSDOF 7
ENDMDL
MODEL 4
REMARK VINA RESULT:    -3.776     11.602     14.194
REMARK INTER + INTRA:          -5.620
REMARK INTER:                  -5.331
REMARK INTRA:                  -0.289
REMARK UNBOUND:                -0.519
REMARK  Name = 
REMARK  10 active torsions:
REMARK  status: ('A' for Active; 'I' for Inactive)
REMARK    1  A    between atoms: C_1  and  C_2
REMARK    2  A    between atoms: C_5  and  N_8
REMARK    3  A    between atoms: N_8  and  C_9
REMARK    4  A    between atoms: N_8  and  C_13
REMARK    5  A    between atoms: C_9  and  C_10
REMARK    6  A    between atoms: C_10  and  C_11
REMARK    7  A    between atoms: C_10  and  O_12
REMARK    8  A    between atoms: C_13  and  C_14
REMARK    9  A    between atoms: C_14  and  C_15
REMARK   10  A    between atoms: C_14  and  O_16
REMARK                            x       y       z     vdW  Elec       q    Type
REMARK                         _______ _______ _______ _____ _____    ______ ____
ROOT
ATOM      1  N   UNL     1      16.334  17.779   2.185  0.00  0.00    +0.000 N 
ENDROOT
BRANCH   1   6
ATOM      2  C   UNL     1      20.441  13.808   3.022  0.00  0.00    +0.000 C 
ATOM      3  C   UNL     1      19.371  14.829   2.782  0.00  0.00    +0.000 A 
ATOM      4  C   UNL     1      19.673  16.062   2.214  0.00  0.00    +0.000 A 
ATOM      5  C   UNL     1      18.671  17.026   2.020  0.00  0.00    +0.000 A 
ATOM      6  C   UNL     1      17.333  16.820   2.400  0.00  0.00    +0.000 A 
ATOM      7  C   UNL     1      17.062  15.562   2.969  0.00  0.00    +0.000 A 
ATOM      8  C   UNL     1      18.055  14.588   3.167  0.00  0.00    +0.000 A 
ENDBRANCH   1   6
BRANCH   1   9
ATOM      9  C   UNL     1      16.130  18.348   0.831  0.00  0.00    +0.000 C 
BRANCH   9  10
ATOM     10  C   UNL     1      16.226  19.894   0.810  0.00  0.00    +0.000 C 
ATOM     11  C   UNL     1      17.655  20.354   1.070  0.00  0.00    +0.000 C 
BRANCH  10  12
ATOM     12  O   UNL     1      15.815  20.417  -0.461  0.00  0.00    +0.000 OA
ATOM     13  H   UNL     1      16.543  20.285  -1.091  0.00  0.00    +0.000 HD
ENDBRANCH  10  12
ENDBRANCH   9  10
ENDBRANCH   1   9
BRANCH   1  14
ATOM     14  C   UNL     1      15.819  18.616   3.299  0.00  0.00    +0.000 C 
BRANCH  14  15
ATOM     15  C   UNL     1      14.344  18.293   3.638  0.00  0.00    +0.000 C 
ATOM     16  C   UNL     1      13.351  19.189   2.906  0.00  0.00    +0.000 C 
BRANCH  15  17
ATOM     17  O   UNL     1      14.019  16.937   3.339  0.00  0.00    +0.000 OA
ATOM     18  H   UNL     1      14.778  16.603   2.820  0.00  0.00    +0.000 HD
ENDBRANCH  15  17
ENDBRANCH  14  15
ENDBRANCH   1  14
TORSDOF 7
ENDMDL
MODEL 5
REMARK VINA RESULT:    -3.652     12.759     15.127
REMARK INTER + INTRA:          -5.451
REMARK INTER:                  -4.980
REMARK INTRA:                  -0.471
REMARK UNBOUND:                -0.519
REMARK  Name = 
REMARK  10 active torsions:
REMARK  status: ('A' for Active; 'I' for Inactive)
REMARK    1  A    between atoms: C_1  and  C_2
REMARK    2  A    between atoms: C_5  and  N_8
REMARK    3  A    between atoms: N_8  and  C_9
REMARK    4  A    between atoms: N_8  and  C_13
REMARK    5  A    between atoms: C_9  and  C_10
REMARK    6  A    between atoms: C_10  and  C_11
REMARK    7  A    between atoms: C_10  and  O_12
REMARK    8  A    between atoms: C_13  and  C_14
REMARK    9  A    between atoms: C_14  and  C_15
REMARK   10  A    between atoms: C_14  and  O_16
REMARK                            x       y       z     vdW  Elec       q    Type
REMARK                         _______ _______ _______ _____ _____    ______ ____
ROOT
ATOM      1  N   UNL     1      17.315  18.042   2.682  0.00  0.00    +0.000 N 
ENDROOT
BRANCH   1   6
ATOM      2  C   UNL     1      17.390  12.432   4.045  0.00  0.00    +0.000 C 
ATOM      3  C   UNL     1      17.365  13.882   3.667  0.00  0.00    +0.000 A 
ATOM      4  C   UNL     1      18.519  14.529   3.238  0.00  0.00    +0.000 A 
ATOM      5  C   UNL     1      18.495  15.895   2.915  0.00  0.00    +0.000 A 
ATOM      6  C   UNL     1      17.336  16.684   3.025  0.00  0.00    +0.000 A 
ATOM      7  C   UNL     1      16.188  15.997   3.460  0.00  0.00    +0.000 A 
ATOM      8  C   UNL     1      16.197  14.630   3.784  0.00  0.00    +0.000 A 
ENDBRANCH   1   6
BRANCH   1   9
ATOM      9  C   UNL     1      18.374  18.951   3.183  0.00  0.00    +0.000 C 
BRANCH   9  10
ATOM     10  C   UNL     1      19.185  19.613   2.043  0.00  0.00    +0.000 C 
ATOM     11  C   UNL     1      20.388  20.368   2.597  0.00  0.00    +0.000 C 
BRANCH  10  12
ATOM     12  O   UNL     1      19.666  18.630   1.115  0.00  0.00    +0.000 OA
ATOM     13  H   UNL     1      20.339  18.094   1.566  0.00  0.00    +0.000 HD
ENDBRANCH  10  12
ENDBRANCH   9  10
ENDBRANCH   1   9
BRANCH   1  14
ATOM     14  C   UNL     1      16.053  18.714   2.280  0.00  0.00    +0.000 C 
BRANCH  14  15
ATOM     15  C   UNL     1      15.997  18.989   0.758  0.00  0.00    +0.000 C 
ATOM     16  C   UNL     1      16.456  17.804  -0.083  0.00  0.00    +0.000 C 
BRANCH  15  17
ATOM     17  O   UNL     1      14.682  19.348   0.335  0.00  0.00    +0.000 OA
ATOM     18  H   UNL     1      14.790  20.204  -0.127  0.00  0.00    +0.000 HD
ENDBRANCH  15  17
ENDBRANCH  14  15
ENDBRANCH   1  14
TORSDOF 7
ENDMDL
MODEL 6
REMARK VINA RESULT:    -3.509      1.359      2.026
REMARK INTER + INTRA:          -5.259
REMARK INTER:                  -4.763
REMARK INTRA:                  -0.497
REMARK UNBOUND:                -0.519
REMARK  Name = 
REMARK  10 active torsions:
REMARK  status: ('A' for Active; 'I' for Inactive)
REMARK    1  A    between atoms: C_1  and  C_2
REMARK    2  A    between atoms: C_5  and  N_8
REMARK    3  A    between atoms: N_8  and  C_9
REMARK    4  A    between atoms: N_8  and  C_13
REMARK    5  A    between atoms: C_9  and  C_10
REMARK    6  A    between atoms: C_10  and  C_11
REMARK    7  A    between atoms: C_10  and  O_12
REMARK    8  A    between atoms: C_13  and  C_14
REMARK    9  A    between atoms: C_14  and  C_15
REMARK   10  A    between atoms: C_14  and  O_16
REMARK                            x       y       z     vdW  Elec       q    Type
REMARK                         _______ _______ _______ _____ _____    ______ ____
ROOT
ATOM      1  N   UNL     1       2.549  19.620  -3.466  0.00  0.00    +0.000 N 
ENDROOT
BRANCH   1   6
ATOM      2  C   UNL     1       7.780  19.013  -1.098  0.00  0.00    +0.000 C 
ATOM      3  C   UNL     1       6.424  19.148  -1.722  0.00  0.00    +0.000 A 
ATOM      4  C   UNL     1       6.274  19.683  -2.997  0.00  0.00    +0.000 A 
ATOM      5  C   UNL     1       4.999  19.835  -3.564  0.00  0.00    +0.000 A 
ATOM      6  C   UNL     1       3.817  19.484  -2.886  0.00  0.00    +0.000 A 
ATOM      7  C   UNL     1       4.007  18.944  -1.601  0.00  0.00    +0.000 A 
ATOM      8  C   UNL     1       5.277  18.785  -1.022  0.00  0.00    +0.000 A 
ENDBRANCH   1   6
BRANCH   1   9
ATOM      9  C   UNL     1       2.372  19.409  -4.923  0.00  0.00    +0.000 C 
BRANCH   9  10
ATOM     10  C   UNL     1       1.980  17.953  -5.275  0.00  0.00    +0.000 C 
ATOM     11  C   UNL     1       0.518  17.868  -5.696  0.00  0.00    +0.000 C 
BRANCH  10  12
ATOM     12  O   UNL     1       2.783  17.450  -6.352  0.00  0.00    +0.000 OA
ATOM     13  H   UNL     1       3.630  17.151  -5.982  0.00  0.00    +0.000 HD
ENDBRANCH  10  12
ENDBRANCH   9  10
ENDBRANCH   1   9
BRANCH   1  14
ATOM     14  C   UNL     1       1.492  20.440  -2.820  0.00  0.00    +0.000 C 
BRANCH  14  15
ATOM     15  C   UNL     1       0.240  19.603  -2.464  0.00  0.00    +0.000 C 
ATOM     16  C   UNL     1       0.578  18.223  -1.913  0.00  0.00    +0.000 C 
BRANCH  15  17
ATOM     17  O   UNL     1      -0.585  20.270  -1.510  0.00  0.00    +0.000 OA
ATOM     18  H   UNL     1      -0.297  19.925  -0.641  0.00  0.00    +0.000 HD
ENDBRANCH  15  17
ENDBRANCH  14  15
ENDBRANCH   1  14
TORSDOF 7
ENDMDL
MODEL 7
REMARK VINA RESULT:    -3.466     11.956     14.899
REMARK INTER + INTRA:          -5.200
REMARK INTER:                  -4.580
REMARK INTRA:                  -0.620
REMARK UNBOUND:                -0.519
REMARK  Name = 
REMARK  10 active torsions:
REMARK  status: ('A' for Active; 'I' for Inactive)
REMARK    1  A    between atoms: C_1  and  C_2
REMARK    2  A    between atoms: C_5  and  N_8
REMARK    3  A    between atoms: N_8  and  C_9
REMARK    4  A    between atoms: N_8  and  C_13
REMARK    5  A    between atoms: C_9  and  C_10
REMARK    6  A    between atoms: C_10  and  C_11
REMARK    7  A    between atoms: C_10  and  O_12
REMARK    8  A    between atoms: C_13  and  C_14
REMARK    9  A    between atoms: C_14  and  C_15
REMARK   10  A    between atoms: C_14  and  O_16
REMARK                            x       y       z     vdW  Elec       q    Type
REMARK                         _______ _______ _______ _____ _____    ______ ____
ROOT
ATOM      1  N   UNL     1      16.767  17.900   2.027  0.00  0.00    +0.000 N 
ENDROOT
BRANCH   1   6
ATOM      2  C   UNL     1      17.682  12.567   4.040  0.00  0.00    +0.000 C 
ATOM      3  C   UNL     1      17.435  13.941   3.496  0.00  0.00    +0.000 A 
ATOM      4  C   UNL     1      18.431  14.626   2.808  0.00  0.00    +0.000 A 
ATOM      5  C   UNL     1      18.204  15.926   2.327  0.00  0.00    +0.000 A 
ATOM      6  C   UNL     1      16.993  16.611   2.527  0.00  0.00    +0.000 A 
ATOM      7  C   UNL     1      16.008  15.888   3.225  0.00  0.00    +0.000 A 
ATOM      8  C   UNL     1      16.221  14.587   3.710  0.00  0.00    +0.000 A 
ENDBRANCH   1   6
BRANCH   1   9
ATOM      9  C   UNL     1      15.383  18.362   1.760  0.00  0.00    +0.000 C 
BRANCH   9  10
ATOM     10  C   UNL     1      14.891  19.409   2.790  0.00  0.00    +0.000 C 
ATOM     11  C   UNL     1      13.396  19.263   3.044  0.00  0.00    +0.000 C 
BRANCH  10  12
ATOM     12  O   UNL     1      15.572  19.257   4.043  0.00  0.00    +0.000 OA
ATOM     13  H   UNL     1      16.525  19.358   3.883  0.00  0.00    +0.000 HD
ENDBRANCH  10  12
ENDBRANCH   9  10
ENDBRANCH   1   9
BRANCH   1  14
ATOM     14  C   UNL     1      17.824  18.633   1.284  0.00  0.00    +0.000 C 
BRANCH  14  15
ATOM     15  C   UNL     1      18.827  19.332   2.233  0.00  0.00    +0.000 C 
ATOM     16  C   UNL     1      19.876  20.156   1.495  0.00  0.00    +0.000 C 
BRANCH  15  17
ATOM     17  O   UNL     1      18.165  20.190   3.161  0.00  0.00    +0.000 OA
ATOM     18  H   UNL     1      17.799  19.590   3.843  0.00  0.00    +0.000 HD
ENDBRANCH  15  17
ENDBRANCH  14  15
ENDBRANCH   1  14
TORSDOF 7
ENDMDL
MODEL 8
REMARK VINA RESULT:    -3.295     11.065     14.334
REMARK INTER + INTRA:          -4.970
REMARK INTER:                  -4.529
REMARK INTRA:                  -0.441
REMARK UNBOUND:                -0.519
REMARK  Name = 
REMARK  10 active torsions:
REMARK  status: ('A' for Active; 'I' for Inactive)
REMARK    1  A    between atoms: C_1  and  C_2
REMARK    2  A    between atoms: C_5  and  N_8
REMARK    3  A    between atoms: N_8  and  C_9
REMARK    4  A    between atoms: N_8  and  C_13
REMARK    5  A    between atoms: C_9  and  C_10
REMARK    6  A    between atoms: C_10  and  C_11
REMARK    7  A    between atoms: C_10  and  O_12
REMARK    8  A    between atoms: C_13  and  C_14
REMARK    9  A    between atoms: C_14  and  C_15
REMARK   10  A    between atoms: C_14  and  O_16
REMARK                            x       y       z     vdW  Elec       q    Type
REMARK                         _______ _______ _______ _____ _____    ______ ____
ROOT
ATOM      1  N   UNL     1      16.271  17.943   3.416  0.00  0.00    +0.000 N 
ENDROOT
BRANCH   1   6
ATOM      2  C   UNL     1      17.235  12.286   4.045  0.00  0.00    +0.000 C 
ATOM      3  C   UNL     1      16.989  13.757   3.906  0.00  0.00    +0.000 A 
ATOM      4  C   UNL     1      15.707  14.282   4.031  0.00  0.00    +0.000 A 
ATOM      5  C   UNL     1      15.478  15.658   3.870  0.00  0.00    +0.000 A 
ATOM      6  C   UNL     1      16.503  16.569   3.556  0.00  0.00    +0.000 A 
ATOM      7  C   UNL     1      17.786  16.004   3.439  0.00  0.00    +0.000 A 
ATOM      8  C   UNL     1      18.029  14.629   3.599  0.00  0.00    +0.000 A 
ENDBRANCH   1   6
BRANCH   1   9
ATOM      9  C   UNL     1      17.381  18.908   3.606  0.00  0.00    +0.000 C 
BRANCH   9  10
ATOM     10  C   UNL     1      18.060  19.310   2.274  0.00  0.00    +0.000 C 
ATOM     11  C   UNL     1      19.537  18.935   2.280  0.00  0.00    +0.000 C 
BRANCH  10  12
ATOM     12  O   UNL     1      17.440  18.652   1.160  0.00  0.00    +0.000 OA
ATOM     13  H   UNL     1      17.919  17.824   0.994  0.00  0.00    +0.000 HD
ENDBRANCH  10  12
ENDBRANCH   9  10
ENDBRANCH   1   9
BRANCH   1  14
ATOM     14  C   UNL     1      14.910  18.514   3.589  0.00  0.00    +0.000 C 
BRANCH  14  15
ATOM     15  C   UNL     1      14.168  18.674   2.241  0.00  0.00    +0.000 C 
ATOM     16  C   UNL     1      12.776  19.277   2.390  0.00  0.00    +0.000 C 
BRANCH  15  17
ATOM     17  O   UNL     1      14.904  19.484   1.326  0.00  0.00    +0.000 OA
ATOM     18  H   UNL     1      15.153  20.280   1.837  0.00  0.00    +0.000 HD
ENDBRANCH  15  17
ENDBRANCH  14  15
ENDBRANCH   1  14
TORSDOF 7
ENDMDL
MODEL 9
REMARK VINA RESULT:    -2.310     11.297     14.216
REMARK INTER + INTRA:          -3.640
REMARK INTER:                  -3.199
REMARK INTRA:                  -0.441
REMARK UNBOUND:                -0.519
REMARK  Name = 
REMARK  10 active torsions:
REMARK  status: ('A' for Active; 'I' for Inactive)
REMARK    1  A    between atoms: C_1  and  C_2
REMARK    2  A    between atoms: C_5  and  N_8
REMARK    3  A    between atoms: N_8  and  C_9
REMARK    4  A    between atoms: N_8  and  C_13
REMARK    5  A    between atoms: C_9  and  C_10
REMARK    6  A    between atoms: C_10  and  C_11
REMARK    7  A    between atoms: C_10  and  O_12
REMARK    8  A    between atoms: C_13  and  C_14
REMARK    9  A    between atoms: C_14  and  C_15
REMARK   10  A    between atoms: C_14  and  O_16
REMARK                            x       y       z     vdW  Elec       q    Type
REMARK                         _______ _______ _______ _____ _____    ______ ____
ROOT
ATOM      1  N   UNL     1      16.331  17.925   3.048  0.00  0.00    +0.000 N 
ENDROOT
BRANCH   1   6
ATOM      2  C   UNL     1      21.419  18.505   0.383  0.00  0.00    +0.000 C 
ATOM      3  C   UNL     1      20.088  18.353   1.052  0.00  0.00    +0.000 A 
ATOM      4  C   UNL     1      19.318  19.466   1.375  0.00  0.00    +0.000 A 
ATOM      5  C   UNL     1      18.084  19.318   2.029  0.00  0.00    +0.000 A 
ATOM      6  C   UNL     1      17.571  18.066   2.413  0.00  0.00    +0.000 A 
ATOM      7  C   UNL     1      18.374  16.963   2.069  0.00  0.00    +0.000 A 
ATOM      8  C   UNL     1      19.609  17.096   1.413  0.00  0.00    +0.000 A 
ENDBRANCH   1   6
BRANCH   1   9
ATOM      9  C   UNL     1      15.414  19.086   3.155  0.00  0.00    +0.000 C 
BRANCH   9  10
ATOM     10  C   UNL     1      14.098  18.886   2.364  0.00  0.00    +0.000 C 
ATOM     11  C   UNL     1      12.962  19.688   2.986  0.00  0.00    +0.000 C 
BRANCH  10  12
ATOM     12  O   UNL     1      14.248  19.310   1.002  0.00  0.00    +0.000 OA
ATOM     13  H   UNL     1      14.501  20.249   1.004  0.00  0.00    +0.000 HD
ENDBRANCH  10  12
ENDBRANCH   9  10
ENDBRANCH   1   9
BRANCH   1  14
ATOM     14  C   UNL     1      16.095  16.849   4.045  0.00  0.00    +0.000 C 
BRANCH  14  15
ATOM     15  C   UNL     1      15.397  15.617   3.421  0.00  0.00    +0.000 C 
ATOM     16  C   UNL     1      16.034  14.295   3.832  0.00  0.00    +0.000 C 
BRANCH  15  17
ATOM     17  O   UNL     1      14.013  15.566   3.763  0.00  0.00    +0.000 OA
ATOM     18  H   UNL     1      13.908  16.212   4.490  0.00  0.00    +0.000 HD
ENDBRANCH  15  17
ENDBRANCH  14  15
ENDBRANCH   1  14
TORSDOF 7
ENDMDL
