MODEL 1
REMARK VINA RESULT:    -4.051      0.000      0.000
REMARK INTER + INTRA:          -4.443
REMARK INTER:                  -4.406
REMARK INTRA:                  -0.037
REMARK UNBOUND:                -0.037
REMARK  Name = 
REMARK  3 active torsions:
REMARK  status: ('A' for Active; 'I' for Inactive)
REMARK    1  A    between atoms: C_1  and  O_2
REMARK    2  A    between atoms: O_2  and  C_3
REMARK    3  A    between atoms: C_8  and  O_9
REMARK                            x       y       z     vdW  Elec       q    Type
REMARK                         _______ _______ _______ _____ _____    ______ ____
ROOT
ATOM      1  C   UNL     1      -6.247   8.125 -17.860  0.00  0.00    +0.000 A 
ATOM      2  C   UNL     1      -7.050   7.161 -18.467  0.00  0.00    +0.000 A 
ATOM      3  C   UNL     1      -7.469   6.040 -17.738  0.00  0.00    +0.000 A 
ATOM      4  C   UNL     1      -7.087   5.879 -16.405  0.00  0.00    +0.000 A 
ATOM      5  C   UNL     1      -6.285   6.839 -15.792  0.00  0.00    +0.000 A 
ATOM      6  C   UNL     1      -5.874   7.947 -16.522  0.00  0.00    +0.000 A 
ENDROOT
BRANCH   1   8
ATOM      7  C   UNL     1      -6.239   9.554 -19.759  0.00  0.00    +0.000 C 
ATOM      8  O   UNL     1      -5.764   9.266 -18.449  0.00  0.00    +0.000 OA
ENDBRANCH   1   8
BRANCH   6   9
ATOM      9  O   UNL     1      -5.085   8.876 -15.898  0.00  0.00    +0.000 OA
ATOM     10  H   UNL     1      -5.127   8.642 -14.951  0.00  0.00    +0.000 HD
ENDBRANCH   6   9
TORSDOF 2
ENDMDL
MODEL 2
REMARK VINA RESULT:    -3.833      2.345      3.047
REMARK INTER + INTRA:          -4.206
REMARK INTER:                  -4.155
REMARK INTRA:                  -0.051
REMARK UNBOUND:                -0.037
REMARK  Name = 
REMARK  3 active torsions:
REMARK  status: ('A' for Active; 'I' for Inactive)
REMARK    1  A    between atoms: C_1  and  O_2
REMARK    2  A    between atoms: O_2  and  C_3
REMARK    3  A    between atoms: C_8  and  O_9
REMARK                            x       y       z     vdW  Elec       q    Type
REMARK                         _______ _______ _______ _____ _____    ______ ____
ROOT
ATOM      1  C   UNL     1      -6.522   6.385 -18.247  0.00  0.00    +0.000 A 
ATOM      2  C   UNL     1      -6.049   7.667 -18.525  0.00  0.00    +0.000 A 
ATOM      3  C   UNL     1      -5.721   8.534 -17.476  0.00  0.00    +0.000 A 
ATOM      4  C   UNL     1      -5.864   8.126 -16.148  0.00  0.00    +0.000 A 
ATOM      5  C   UNL     1      -6.336   6.847 -15.862  0.00  0.00    +0.000 A 
ATOM      6  C   UNL     1      -6.659   5.993 -16.909  0.00  0.00    +0.000 A 
ENDROOT
BRANCH   1   8
ATOM      7  C   UNL     1      -5.893   5.076 -20.128  0.00  0.00    +0.000 C 
ATOM      8  O   UNL     1      -6.880   5.435 -19.169  0.00  0.00    +0.000 OA
ENDBRANCH   1   8
BRANCH   6   9
ATOM      9  O   UNL     1      -7.121   4.741 -16.603  0.00  0.00    +0.000 OA
ATOM     10  H   UNL     1      -6.321   4.182 -16.573  0.00  0.00    +0.000 HD
ENDBRANCH   6   9
TORSDOF 2
ENDMDL
MODEL 3
REMARK VINA RESULT:    -3.607      2.084      2.740
REMARK INTER + INTRA:          -3.960
REMARK INTER:                  -3.913
REMARK INTRA:                  -0.047
REMARK UNBOUND:                -0.037
REMARK  Name = 
REMARK  3 active torsions:
REMARK  status: ('A' for Active; 'I' for Inactive)
REMARK    1  A    between atoms: C_1  and  O_2
REMARK    2  A    between atoms: O_2  and  C_3
REMARK    3  A    between atoms: C_8  and  O_9
REMARK                            x       y       z     vdW  Elec       q    Type
REMARK                         _______ _______ _______ _____ _____    ______ ____
ROOT
ATOM      1  C   UNL     1      -5.334   6.849 -18.291  0.00  0.00    +0.000 A 
ATOM      2  C   UNL     1      -5.315   7.703 -17.189  0.00  0.00    +0.000 A 
ATOM      3  C   UNL     1      -6.130   7.436 -16.082  0.00  0.00    +0.000 A 
ATOM      4  C   UNL     1      -6.964   6.316 -16.071  0.00  0.00    +0.000 A 
ATOM      5  C   UNL     1      -6.989   5.457 -17.168  0.00  0.00    +0.000 A 
ATOM      6  C   UNL     1      -6.178   5.731 -18.262  0.00  0.00    +0.000 A 
ENDROOT
BRANCH   1   8
ATOM      7  C   UNL     1      -4.992   8.023 -20.328  0.00  0.00    +0.000 C 
ATOM      8  O   UNL     1      -4.594   6.987 -19.438  0.00  0.00    +0.000 OA
ENDBRANCH   1   8
BRANCH   6   9
ATOM      9  O   UNL     1      -6.219   4.872 -19.328  0.00  0.00    +0.000 OA
ATOM     10  H   UNL     1      -5.586   4.165 -19.101  0.00  0.00    +0.000 HD
ENDBRANCH   6   9
TORSDOF 2
ENDMDL
MODEL 4
REMARK VINA RESULT:    -3.454     23.592     23.945
REMARK INTER + INTRA:          -3.794
REMARK INTER:                  -3.755
REMARK INTRA:                  -0.040
REMARK UNBOUND:                -0.037
REMARK  Name = 
REMARK  3 active torsions:
REMARK  status: ('A' for Active; 'I' for Inactive)
REMARK    1  A    between atoms: C_1  and  O_2
REMARK    2  A    between atoms: O_2  and  C_3
REMARK    3  A    between atoms: C_8  and  O_9
REMARK                            x       y       z     vdW  Elec       q    Type
REMARK                         _______ _______ _______ _____ _____    ______ ____
ROOT
ATOM      1  C   UNL     1       7.803  20.305  -2.796  0.00  0.00    +0.000 A 
ATOM      2  C   UNL     1       9.114  19.887  -3.020  0.00  0.00    +0.000 A 
ATOM      3  C   UNL     1       9.618  18.770  -2.342  0.00  0.00    +0.000 A 
ATOM      4  C   UNL     1       8.816  18.068  -1.439  0.00  0.00    +0.000 A 
ATOM      5  C   UNL     1       7.505  18.479  -1.210  0.00  0.00    +0.000 A 
ATOM      6  C   UNL     1       7.014  19.589  -1.887  0.00  0.00    +0.000 A 
ENDROOT
BRANCH   1   8
ATOM      7  C   UNL     1       7.675  21.775  -4.658  0.00  0.00    +0.000 C 
ATOM      8  O   UNL     1       7.181  21.376  -3.385  0.00  0.00    +0.000 OA
ENDBRANCH   1   8
BRANCH   6   9
ATOM      9  O   UNL     1       5.722  19.973  -1.645  0.00  0.00    +0.000 OA
ATOM     10  H   UNL     1       5.176  19.343  -2.153  0.00  0.00    +0.000 HD
ENDBRANCH   6   9
TORSDOF 2
ENDMDL
MODEL 5
REMARK VINA RESULT:    -3.435      2.253      3.064
REMARK INTER + INTRA:          -3.773
REMARK INTER:                  -3.721
REMARK INTRA:                  -0.052
REMARK UNBOUND:                -0.037
REMARK  Name = 
REMARK  3 active torsions:
REMARK  status: ('A' for Active; 'I' for Inactive)
REMARK    1  A    between atoms: C_1  and  O_2
REMARK    2  A    between atoms: O_2  and  C_3
REMARK    3  A    between atoms: C_8  and  O_9
REMARK                            x       y       z     vdW  Elec       q    Type
REMARK                         _______ _______ _______ _____ _____    ______ ____
ROOT
ATOM      1  C   UNL     1      -6.099   5.719 -18.479  0.00  0.00    +0.000 A 
ATOM      2  C   UNL     1      -6.992   5.554 -17.421  0.00  0.00    +0.000 A 
ATOM      3  C   UNL     1      -6.953   6.429 -16.329  0.00  0.00    +0.000 A 
ATOM      4  C   UNL     1      -6.023   7.469 -16.289  0.00  0.00    +0.000 A 
ATOM      5  C   UNL     1      -5.127   7.641 -17.342  0.00  0.00    +0.000 A 
ATOM      6  C   UNL     1      -5.173   6.768 -18.421  0.00  0.00    +0.000 A 
ENDROOT
BRANCH   1   8
ATOM      7  C   UNL     1      -7.104   5.049 -20.526  0.00  0.00    +0.000 C 
ATOM      8  O   UNL     1      -6.024   4.941 -19.606  0.00  0.00    +0.000 OA
ENDBRANCH   1   8
BRANCH   6   9
ATOM      9  O   UNL     1      -4.283   6.957 -19.444  0.00  0.00    +0.000 OA
ATOM     10  H   UNL     1      -3.406   6.809 -19.041  0.00  0.00    +0.000 HD
ENDBRANCH   6   9
TORSDOF 2
ENDMDL
MODEL 6
REMARK VINA RESULT:    -3.409     23.473     24.493
REMARK INTER + INTRA:          -3.745
REMARK INTER:                  -3.693
REMARK INTRA:                  -0.052
REMARK UNBOUND:                -0.037
REMARK  Name = 
REMARK  3 active torsions:
REMARK  status: ('A' for Active; 'I' for Inactive)
REMARK    1  A    between atoms: C_1  and  O_2
REMARK    2  A    between atoms: O_2  and  C_3
REMARK    3  A    between atoms: C_8  and  O_9
REMARK                            x       y       z     vdW  Elec       q    Type
REMARK                         _______ _______ _______ _____ _____    ______ ____
ROOT
ATOM      1  C   UNL     1       8.765  18.484  -1.814  0.00  0.00    +0.000 A 
ATOM      2  C   UNL     1       9.979  19.069  -2.172  0.00  0.00    +0.000 A 
ATOM      3  C   UNL     1       9.991  20.253  -2.920  0.00  0.00    +0.000 A 
ATOM      4  C   UNL     1       8.795  20.854  -3.315  0.00  0.00    +0.000 A 
ATOM      5  C   UNL     1       7.578  20.276  -2.961  0.00  0.00    +0.000 A 
ATOM      6  C   UNL     1       7.575  19.102  -2.219  0.00  0.00    +0.000 A 
ENDROOT
BRANCH   1   8
ATOM      7  C   UNL     1       9.118  17.340   0.238  0.00  0.00    +0.000 C 
ATOM      8  O   UNL     1       8.603  17.332  -1.088  0.00  0.00    +0.000 OA
ENDBRANCH   1   8
BRANCH   6   9
ATOM      9  O   UNL     1       6.366  18.552  -1.883  0.00  0.00    +0.000 OA
ATOM     10  H   UNL     1       5.706  19.218  -2.155  0.00  0.00    +0.000 HD
ENDBRANCH   6   9
TORSDOF 2
ENDMDL
MODEL 7
REMARK VINA RESULT:    -3.314     23.596     24.561
REMARK INTER + INTRA:          -3.642
REMARK INTER:                  -3.595
REMARK INTRA:                  -0.046
REMARK UNBOUND:                -0.037
REMARK  Name = 
REMARK  3 active torsions:
REMARK  status: ('A' for Active; 'I' for Inactive)
REMARK    1  A    between atoms: C_1  and  O_2
REMARK    2  A    between atoms: O_2  and  C_3
REMARK    3  A    between atoms: C_8  and  O_9
REMARK                            x       y       z     vdW  Elec       q    Type
REMARK                         _______ _______ _______ _____ _____    ______ ____
ROOT
ATOM      1  C   UNL     1       8.492  18.807  -2.014  0.00  0.00    +0.000 A 
ATOM      2  C   UNL     1       9.819  19.233  -2.042  0.00  0.00    +0.000 A 
ATOM      3  C   UNL     1      10.728  18.755  -1.089  0.00  0.00    +0.000 A 
ATOM      4  C   UNL     1      10.314  17.854  -0.106  0.00  0.00    +0.000 A 
ATOM      5  C   UNL     1       8.990  17.423  -0.072  0.00  0.00    +0.000 A 
ATOM      6  C   UNL     1       8.096  17.903  -1.021  0.00  0.00    +0.000 A 
ENDROOT
BRANCH   1   8
ATOM      7  C   UNL     1       7.423  20.578  -3.183  0.00  0.00    +0.000 C 
ATOM      8  O   UNL     1       7.499  19.190  -2.879  0.00  0.00    +0.000 OA
ENDBRANCH   1   8
BRANCH   6   9
ATOM      9  O   UNL     1       6.799  17.465  -0.966  0.00  0.00    +0.000 OA
ATOM     10  H   UNL     1       6.429  17.674  -1.846  0.00  0.00    +0.000 HD
ENDBRANCH   6   9
TORSDOF 2
ENDMDL
MODEL 8
REMARK VINA RESULT:    -3.226      2.534      3.466
REMARK INTER + INTRA:          -3.546
REMARK INTER:                  -3.495
REMARK INTRA:                  -0.051
REMARK UNBOUND:                -0.037
REMARK  Name = 
REMARK  3 active torsions:
REMARK  status: ('A' for Active; 'I' for Inactive)
REMARK    1  A    between atoms: C_1  and  O_2
REMARK    2  A    between atoms: O_2  and  C_3
REMARK    3  A    between atoms: C_8  and  O_9
REMARK                            x       y       z     vdW  Elec       q    Type
REMARK                         _______ _______ _______ _____ _____    ______ ____
ROOT
ATOM      1  C   UNL     1      -5.891   7.224 -18.370  0.00  0.00    +0.000 A 
ATOM      2  C   UNL     1      -5.252   7.950 -19.374  0.00  0.00    +0.000 A 
ATOM      3  C   UNL     1      -4.725   7.287 -20.490  0.00  0.00    +0.000 A 
ATOM      4  C   UNL     1      -4.834   5.899 -20.605  0.00  0.00    +0.000 A 
ATOM      5  C   UNL     1      -5.472   5.168 -19.606  0.00  0.00    +0.000 A 
ATOM      6  C   UNL     1      -5.991   5.834 -18.503  0.00  0.00    +0.000 A 
ENDROOT
BRANCH   1   8
ATOM      7  C   UNL     1      -5.592   8.502 -16.389  0.00  0.00    +0.000 C 
ATOM      8  O   UNL     1      -6.450   7.739 -17.228  0.00  0.00    +0.000 OA
ENDBRANCH   1   8
BRANCH   6   9
ATOM      9  O   UNL     1      -6.613   5.093 -17.534  0.00  0.00    +0.000 OA
ATOM     10  H   UNL     1      -6.569   5.647 -16.731  0.00  0.00    +0.000 HD
ENDBRANCH   6   9
TORSDOF 2
ENDMDL
MODEL 9
REMARK VINA RESULT:    -3.112      2.020      3.455
REMARK INTER + INTRA:          -3.422
REMARK INTER:                  -3.377
REMARK INTRA:                  -0.045
REMARK UNBOUND:                -0.037
REMARK  Name = 
REMARK  3 active torsions:
REMARK  status: ('A' for Active; 'I' for Inactive)
REMARK    1  A    between atoms: C_1  and  O_2
REMARK    2  A    between atoms: O_2  and  C_3
REMARK    3  A    between atoms: C_8  and  O_9
REMARK                            x       y       z     vdW  Elec       q    Type
REMARK                         _______ _______ _______ _____ _____    ______ ____
ROOT
ATOM      1  C   UNL     1      -5.969   6.521 -17.937  0.00  0.00    +0.000 A 
ATOM      2  C   UNL     1      -5.666   5.425 -18.744  0.00  0.00    +0.000 A 
ATOM      3  C   UNL     1      -5.173   5.625 -20.040  0.00  0.00    +0.000 A 
ATOM      4  C   UNL     1      -4.983   6.917 -20.533  0.00  0.00    +0.000 A 
ATOM      5  C   UNL     1      -5.283   8.017 -19.733  0.00  0.00    +0.000 A 
ATOM      6  C   UNL     1      -5.772   7.809 -18.449  0.00  0.00    +0.000 A 
ENDROOT
BRANCH   1   8
ATOM      7  C   UNL     1      -7.468   5.508 -16.396  0.00  0.00    +0.000 C 
ATOM      8  O   UNL     1      -6.456   6.474 -16.656  0.00  0.00    +0.000 OA
ENDBRANCH   1   8
BRANCH   6   9
ATOM      9  O   UNL     1      -6.059   8.906 -17.681  0.00  0.00    +0.000 OA
ATOM     10  H   UNL     1      -5.284   9.011 -17.098  0.00  0.00    +0.000 HD
ENDBRANCH   6   9
TORSDOF 2
ENDMDL
