MODEL 1
REMARK VINA RESULT:    -5.465      0.000      0.000
REMARK INTER + INTRA:          -7.740
REMARK INTER:                  -7.381
REMARK INTRA:                  -0.359
REMARK UNBOUND:                -0.359
REMARK  Name = 
REMARK  10 active torsions:
REMARK  status: ('A' for Active; 'I' for Inactive)
REMARK    1  A    between atoms: C_1  and  C_2
REMARK    2  A    between atoms: C_5  and  N_8
REMARK    3  A    between atoms: N_8  and  C_9
REMARK    4  A    between atoms: N_8  and  C_13
REMARK    5  A    between atoms: C_9  and  C_10
REMARK    6  A    between atoms: C_10  and  C_11
REMARK    7  A    between atoms: C_10  and  O_12
REMARK    8  A    between atoms: C_13  and  C_14
REMARK    9  A    between atoms: C_14  and  C_15
REMARK   10  A    between atoms: C_14  and  O_16
REMARK                            x       y       z     vdW  Elec       q    Type
REMARK                         _______ _______ _______ _____ _____    ______ ____
ROOT
ATOM      1  N   UNL     1      -4.917  12.157  -6.516  0.00  0.00    +0.000 N 
ENDROOT
BRANCH   1   6
ATOM      2  C   UNL     1      -4.074  17.002  -9.540  0.00  0.00    +0.000 C 
ATOM      3  C   UNL     1      -4.312  15.755  -8.744  0.00  0.00    +0.000 A 
ATOM      4  C   UNL     1      -3.647  15.538  -7.542  0.00  0.00    +0.000 A 
ATOM      5  C   UNL     1      -3.851  14.354  -6.814  0.00  0.00    +0.000 A 
ATOM      6  C   UNL     1      -4.703  13.326  -7.256  0.00  0.00    +0.000 A 
ATOM      7  C   UNL     1      -5.360  13.581  -8.474  0.00  0.00    +0.000 A 
ATOM      8  C   UNL     1      -5.167  14.761  -9.211  0.00  0.00    +0.000 A 
ENDBRANCH   1   6
BRANCH   1   9
ATOM      9  C   UNL     1      -5.152  10.869  -7.212  0.00  0.00    +0.000 C 
BRANCH   9  10
ATOM     10  C   UNL     1      -4.297   9.712  -6.638  0.00  0.00    +0.000 C 
ATOM     11  C   UNL     1      -4.514   8.429  -7.431  0.00  0.00    +0.000 C 
BRANCH  10  12
ATOM     12  O   UNL     1      -2.900  10.032  -6.685  0.00  0.00    +0.000 OA
ATOM     13  H   UNL     1      -2.491   9.495  -7.383  0.00  0.00    +0.000 HD
ENDBRANCH  10  12
ENDBRANCH   9  10
ENDBRANCH   1   9
BRANCH   1  14
ATOM     14  C   UNL     1      -5.419  12.212  -5.119  0.00  0.00    +0.000 C 
BRANCH  14  15
ATOM     15  C   UNL     1      -4.270  12.344  -4.090  0.00  0.00    +0.000 C 
ATOM     16  C   UNL     1      -4.739  12.846  -2.730  0.00  0.00    +0.000 C 
BRANCH  15  17
ATOM     17  O   UNL     1      -3.594  11.103  -3.894  0.00  0.00    +0.000 OA
ATOM     18  H   UNL     1      -3.202  10.888  -4.765  0.00  0.00    +0.000 HD
ENDBRANCH  15  17
ENDBRANCH  14  15
ENDBRANCH   1  14
TORSDOF 7
ENDMDL
MODEL 2
REMARK VINA RESULT:    -5.430      1.311      1.504
REMARK INTER + INTRA:          -7.693
REMARK INTER:                  -7.167
REMARK INTRA:                  -0.526
REMARK UNBOUND:                -0.359
REMARK  Name = 
REMARK  10 active torsions:
REMARK  status: ('A' for Active; 'I' for Inactive)
REMARK    1  A    between atoms: C_1  and  C_2
REMARK    2  A    between atoms: C_5  and  N_8
REMARK    3  A    between atoms: N_8  and  C_9
REMARK    4  A    between atoms: N_8  and  C_13
REMARK    5  A    between atoms: C_9  and  C_10
REMARK    6  A    between atoms: C_10  and  C_11
REMARK    7  A    between atoms: C_10  and  O_12
REMARK    8  A    between atoms: C_13  and  C_14
REMARK    9  A    between atoms: C_14  and  C_15
REMARK   10  A    between atoms: C_14  and  O_16
REMARK                            x       y       z     vdW  Elec       q    Type
REMARK                         _______ _______ _______ _____ _____    ______ ____
ROOT
ATOM      1  N   UNL     1      -4.362  12.508  -6.266  0.00  0.00    +0.000 N 
ENDROOT
BRANCH   1   6
ATOM      2  C   UNL     1      -3.256  17.602  -8.747  0.00  0.00    +0.000 C 
ATOM      3  C   UNL     1      -3.560  16.291  -8.088  0.00  0.00    +0.000 A 
ATOM      4  C   UNL     1      -2.833  15.861  -6.984  0.00  0.00    +0.000 A 
ATOM      5  C   UNL     1      -3.102  14.617  -6.389  0.00  0.00    +0.000 A 
ATOM      6  C   UNL     1      -4.086  13.738  -6.876  0.00  0.00    +0.000 A 
ATOM      7  C   UNL     1      -4.803  14.207  -7.992  0.00  0.00    +0.000 A 
ATOM      8  C   UNL     1      -4.545  15.449  -8.595  0.00  0.00    +0.000 A 
ENDBRANCH   1   6
BRANCH   1   9
ATOM      9  C   UNL     1      -4.552  11.293  -7.095  0.00  0.00    +0.000 C 
BRANCH   9  10
ATOM     10  C   UNL     1      -5.943  10.643  -6.897  0.00  0.00    +0.000 C 
ATOM     11  C   UNL     1      -6.923  11.118  -7.963  0.00  0.00    +0.000 C 
BRANCH  10  12
ATOM     12  O   UNL     1      -5.859   9.213  -6.977  0.00  0.00    +0.000 OA
ATOM     13  H   UNL     1      -5.070   8.930  -6.486  0.00  0.00    +0.000 HD
ENDBRANCH  10  12
ENDBRANCH   9  10
ENDBRANCH   1   9
BRANCH   1  14
ATOM     14  C   UNL     1      -4.968  12.440  -4.912  0.00  0.00    +0.000 C 
BRANCH  14  15
ATOM     15  C   UNL     1      -3.913  12.168  -3.813  0.00  0.00    +0.000 C 
ATOM     16  C   UNL     1      -4.344  12.654  -2.434  0.00  0.00    +0.000 C 
BRANCH  15  17
ATOM     17  O   UNL     1      -3.601  10.779  -3.714  0.00  0.00    +0.000 OA
ATOM     18  H   UNL     1      -2.724  10.748  -3.280  0.00  0.00    +0.000 HD
ENDBRANCH  15  17
ENDBRANCH  14  15
ENDBRANCH   1  14
TORSDOF 7
ENDMDL
MODEL 3
REMARK VINA RESULT:    -5.402      1.008      3.356
REMARK INTER + INTRA:          -7.657
REMARK INTER:                  -7.532
REMARK INTRA:                  -0.124
REMARK UNBOUND:                -0.359
REMARK  Name = 
REMARK  10 active torsions:
REMARK  status: ('A' for Active; 'I' for Inactive)
REMARK    1  A    between atoms: C_1  and  C_2
REMARK    2  A    between atoms: C_5  and  N_8
REMARK    3  A    between atoms: N_8  and  C_9
REMARK    4  A    between atoms: N_8  and  C_13
REMARK    5  A    between atoms: C_9  and  C_10
REMARK    6  A    between atoms: C_10  and  C_11
REMARK    7  A    between atoms: C_10  and  O_12
REMARK    8  A    between atoms: C_13  and  C_14
REMARK    9  A    between atoms: C_14  and  C_15
REMARK   10  A    between atoms: C_14  and  O_16
REMARK                            x       y       z     vdW  Elec       q    Type
REMARK                         _______ _______ _______ _____ _____    ______ ____
ROOT
ATOM      1  N   UNL     1      -4.759  11.835  -6.326  0.00  0.00    +0.000 N 
ENDROOT
BRANCH   1   6
ATOM      2  C   UNL     1      -4.468  16.543  -9.654  0.00  0.00    +0.000 C 
ATOM      3  C   UNL     1      -4.524  15.312  -8.802  0.00  0.00    +0.000 A 
ATOM      4  C   UNL     1      -5.301  14.220  -9.175  0.00  0.00    +0.000 A 
ATOM      5  C   UNL     1      -5.372  13.080  -8.357  0.00  0.00    +0.000 A 
ATOM      6  C   UNL     1      -4.698  12.982  -7.127  0.00  0.00    +0.000 A 
ATOM      7  C   UNL     1      -3.921  14.103  -6.783  0.00  0.00    +0.000 A 
ATOM      8  C   UNL     1      -3.839  15.249  -7.592  0.00  0.00    +0.000 A 
ENDBRANCH   1   6
BRANCH   1   9
ATOM      9  C   UNL     1      -5.158  11.942  -4.902  0.00  0.00    +0.000 C 
BRANCH   9  10
ATOM     10  C   UNL     1      -3.945  12.000  -3.941  0.00  0.00    +0.000 C 
ATOM     11  C   UNL     1      -4.282  12.792  -2.684  0.00  0.00    +0.000 C 
BRANCH  10  12
ATOM     12  O   UNL     1      -3.542  10.682  -3.542  0.00  0.00    +0.000 OA
ATOM     13  H   UNL     1      -3.105  10.258  -4.300  0.00  0.00    +0.000 HD
ENDBRANCH  10  12
ENDBRANCH   9  10
ENDBRANCH   1   9
BRANCH   1  14
ATOM     14  C   UNL     1      -3.977  10.618  -6.665  0.00  0.00    +0.000 C 
BRANCH  14  15
ATOM     15  C   UNL     1      -4.853   9.524  -7.321  0.00  0.00    +0.000 C 
ATOM     16  C   UNL     1      -4.420   8.109  -6.955  0.00  0.00    +0.000 C 
BRANCH  15  17
ATOM     17  O   UNL     1      -6.228   9.670  -6.971  0.00  0.00    +0.000 OA
ATOM     18  H   UNL     1      -6.316  10.598  -6.672  0.00  0.00    +0.000 HD
ENDBRANCH  15  17
ENDBRANCH  14  15
ENDBRANCH   1  14
TORSDOF 7
ENDMDL
MODEL 4
REMARK VINA RESULT:    -5.066      1.438      3.227
REMARK INTER + INTRA:          -7.202
REMARK INTER:                  -6.684
REMARK INTRA:                  -0.518
REMARK UNBOUND:                -0.359
REMARK  Name = 
REMARK  10 active torsions:
REMARK  status: ('A' for Active; 'I' for Inactive)
REMARK    1  A    between atoms: C_1  and  C_2
REMARK    2  A    between atoms: C_5  and  N_8
REMARK    3  A    between atoms: N_8  and  C_9
REMARK    4  A    between atoms: N_8  and  C_13
REMARK    5  A    between atoms: C_9  and  C_10
REMARK    6  A    between atoms: C_10  and  C_11
REMARK    7  A    between atoms: C_10  and  O_12
REMARK    8  A    between atoms: C_13  and  C_14
REMARK    9  A    between atoms: C_14  and  C_15
REMARK   10  A    between atoms: C_14  and  O_16
REMARK                            x       y       z     vdW  Elec       q    Type
REMARK                         _______ _______ _______ _____ _____    ______ ____
ROOT
ATOM      1  N   UNL     1      -5.049  12.783  -6.598  0.00  0.00    +0.000 N 
ENDROOT
BRANCH   1   6
ATOM      2  C   UNL     1      -5.045  16.473 -11.037  0.00  0.00    +0.000 C 
ATOM      3  C   UNL     1      -5.066  15.527  -9.876  0.00  0.00    +0.000 A 
ATOM      4  C   UNL     1      -4.330  15.792  -8.726  0.00  0.00    +0.000 A 
ATOM      5  C   UNL     1      -4.330  14.886  -7.652  0.00  0.00    +0.000 A 
ATOM      6  C   UNL     1      -5.038  13.672  -7.680  0.00  0.00    +0.000 A 
ATOM      7  C   UNL     1      -5.772  13.438  -8.857  0.00  0.00    +0.000 A 
ATOM      8  C   UNL     1      -5.783  14.336  -9.938  0.00  0.00    +0.000 A 
ENDBRANCH   1   6
BRANCH   1   9
ATOM      9  C   UNL     1      -5.380  13.272  -5.238  0.00  0.00    +0.000 C 
BRANCH   9  10
ATOM     10  C   UNL     1      -5.332  12.152  -4.169  0.00  0.00    +0.000 C 
ATOM     11  C   UNL     1      -4.935  12.713  -2.809  0.00  0.00    +0.000 C 
BRANCH  10  12
ATOM     12  O   UNL     1      -6.611  11.517  -4.032  0.00  0.00    +0.000 OA
ATOM     13  H   UNL     1      -7.173  11.807  -4.769  0.00  0.00    +0.000 HD
ENDBRANCH  10  12
ENDBRANCH   9  10
ENDBRANCH   1   9
BRANCH   1  14
ATOM     14  C   UNL     1      -4.273  11.517  -6.635  0.00  0.00    +0.000 C 
BRANCH  14  15
ATOM     15  C   UNL     1      -5.070  10.361  -7.285  0.00  0.00    +0.000 C 
ATOM     16  C   UNL     1      -4.323   9.033  -7.267  0.00  0.00    +0.000 C 
BRANCH  15  17
ATOM     17  O   UNL     1      -6.332  10.167  -6.648  0.00  0.00    +0.000 OA
ATOM     18  H   UNL     1      -6.559  11.038  -6.266  0.00  0.00    +0.000 HD
ENDBRANCH  15  17
ENDBRANCH  14  15
ENDBRANCH   1  14
TORSDOF 7
ENDMDL
MODEL 5
REMARK VINA RESULT:    -4.903      3.383      5.740
REMARK INTER + INTRA:          -6.982
REMARK INTER:                  -6.500
REMARK INTRA:                  -0.482
REMARK UNBOUND:                -0.359
REMARK  Name = 
REMARK  10 active torsions:
REMARK  status: ('A' for Active; 'I' for Inactive)
REMARK    1  A    between atoms: C_1  and  C_2
REMARK    2  A    between atoms: C_5  and  N_8
REMARK    3  A    between atoms: N_8  and  C_9
REMARK    4  A    between atoms: N_8  and  C_13
REMARK    5  A    between atoms: C_9  and  C_10
REMARK    6  A    between atoms: C_10  and  C_11
REMARK    7  A    between atoms: C_10  and  O_12
REMARK    8  A    between atoms: C_13  and  C_14
REMARK    9  A    between atoms: C_14  and  C_15
REMARK   10  A    between atoms: C_14  and  O_16
REMARK                            x       y       z     vdW  Elec       q    Type
REMARK                         _______ _______ _______ _____ _____    ______ ____
ROOT
ATOM      1  N   UNL     1      -3.703  14.254  -2.318  0.00  0.00    +0.000 N 
ENDROOT
BRANCH   1   6
ATOM      2  C   UNL     1      -4.384  11.246  -7.198  0.00  0.00    +0.000 C 
ATOM      3  C   UNL     1      -4.182  12.024  -5.934  0.00  0.00    +0.000 A 
ATOM      4  C   UNL     1      -4.186  11.389  -4.696  0.00  0.00    +0.000 A 
ATOM      5  C   UNL     1      -4.026  12.127  -3.512  0.00  0.00    +0.000 A 
ATOM      6  C   UNL     1      -3.880  13.526  -3.501  0.00  0.00    +0.000 A 
ATOM      7  C   UNL     1      -3.880  14.134  -4.770  0.00  0.00    +0.000 A 
ATOM      8  C   UNL     1      -4.036  13.407  -5.962  0.00  0.00    +0.000 A 
ENDBRANCH   1   6
BRANCH   1   9
ATOM      9  C   UNL     1      -2.601  13.905  -1.389  0.00  0.00    +0.000 C 
BRANCH   9  10
ATOM     10  C   UNL     1      -1.402  14.880  -1.486  0.00  0.00    +0.000 C 
ATOM     11  C   UNL     1      -1.310  15.756  -0.242  0.00  0.00    +0.000 C 
BRANCH  10  12
ATOM     12  O   UNL     1      -0.166  14.164  -1.617  0.00  0.00    +0.000 OA
ATOM     13  H   UNL     1      -0.290  13.277  -1.240  0.00  0.00    +0.000 HD
ENDBRANCH  10  12
ENDBRANCH   9  10
ENDBRANCH   1   9
BRANCH   1  14
ATOM     14  C   UNL     1      -4.826  15.004  -1.700  0.00  0.00    +0.000 C 
BRANCH  14  15
ATOM     15  C   UNL     1      -5.240  14.414  -0.331  0.00  0.00    +0.000 C 
ATOM     16  C   UNL     1      -6.049  15.385   0.521  0.00  0.00    +0.000 C 
BRANCH  15  17
ATOM     17  O   UNL     1      -6.002  13.217  -0.481  0.00  0.00    +0.000 OA
ATOM     18  H   UNL     1      -6.325  13.238  -1.405  0.00  0.00    +0.000 HD
ENDBRANCH  15  17
ENDBRANCH  14  15
ENDBRANCH   1  14
TORSDOF 7
ENDMDL
MODEL 6
REMARK VINA RESULT:    -4.790      3.191      5.766
REMARK INTER + INTRA:          -6.830
REMARK INTER:                  -6.344
REMARK INTRA:                  -0.485
REMARK UNBOUND:                -0.359
REMARK  Name = 
REMARK  10 active torsions:
REMARK  status: ('A' for Active; 'I' for Inactive)
REMARK    1  A    between atoms: C_1  and  C_2
REMARK    2  A    between atoms: C_5  and  N_8
REMARK    3  A    between atoms: N_8  and  C_9
REMARK    4  A    between atoms: N_8  and  C_13
REMARK    5  A    between atoms: C_9  and  C_10
REMARK    6  A    between atoms: C_10  and  C_11
REMARK    7  A    between atoms: C_10  and  O_12
REMARK    8  A    between atoms: C_13  and  C_14
REMARK    9  A    between atoms: C_14  and  C_15
REMARK   10  A    between atoms: C_14  and  O_16
REMARK                            x       y       z     vdW  Elec       q    Type
REMARK                         _______ _______ _______ _____ _____    ______ ____
ROOT
ATOM      1  N   UNL     1      -3.810  14.466  -2.595  0.00  0.00    +0.000 N 
ENDROOT
BRANCH   1   6
ATOM      2  C   UNL     1      -4.286  10.917  -7.123  0.00  0.00    +0.000 C 
ATOM      3  C   UNL     1      -4.187  11.841  -5.948  0.00  0.00    +0.000 A 
ATOM      4  C   UNL     1      -3.990  13.206  -6.128  0.00  0.00    +0.000 A 
ATOM      5  C   UNL     1      -3.868  14.063  -5.022  0.00  0.00    +0.000 A 
ATOM      6  C   UNL     1      -3.913  13.603  -3.693  0.00  0.00    +0.000 A 
ATOM      7  C   UNL     1      -4.115  12.218  -3.550  0.00  0.00    +0.000 A 
ATOM      8  C   UNL     1      -4.241  11.350  -4.647  0.00  0.00    +0.000 A 
ENDBRANCH   1   6
BRANCH   1   9
ATOM      9  C   UNL     1      -5.031  14.905  -1.878  0.00  0.00    +0.000 C 
BRANCH   9  10
ATOM     10  C   UNL     1      -5.167  14.262  -0.476  0.00  0.00    +0.000 C 
ATOM     11  C   UNL     1      -5.597  15.295   0.559  0.00  0.00    +0.000 C 
BRANCH  10  12
ATOM     12  O   UNL     1      -6.143  13.210  -0.485  0.00  0.00    +0.000 OA
ATOM     13  H   UNL     1      -6.988  13.581  -0.181  0.00  0.00    +0.000 HD
ENDBRANCH  10  12
ENDBRANCH   9  10
ENDBRANCH   1   9
BRANCH   1  14
ATOM     14  C   UNL     1      -2.632  15.354  -2.423  0.00  0.00    +0.000 C 
BRANCH  14  15
ATOM     15  C   UNL     1      -1.596  14.765  -1.435  0.00  0.00    +0.000 C 
ATOM     16  C   UNL     1      -1.672  15.385  -0.045  0.00  0.00    +0.000 C 
BRANCH  15  17
ATOM     17  O   UNL     1      -1.743  13.352  -1.298  0.00  0.00    +0.000 OA
ATOM     18  H   UNL     1      -1.495  12.986  -2.170  0.00  0.00    +0.000 HD
ENDBRANCH  15  17
ENDBRANCH  14  15
ENDBRANCH   1  14
TORSDOF 7
ENDMDL
MODEL 7
REMARK VINA RESULT:    -4.686      5.178      7.964
REMARK INTER + INTRA:          -6.689
REMARK INTER:                  -6.159
REMARK INTRA:                  -0.529
REMARK UNBOUND:                -0.359
REMARK  Name = 
REMARK  10 active torsions:
REMARK  status: ('A' for Active; 'I' for Inactive)
REMARK    1  A    between atoms: C_1  and  C_2
REMARK    2  A    between atoms: C_5  and  N_8
REMARK    3  A    between atoms: N_8  and  C_9
REMARK    4  A    between atoms: N_8  and  C_13
REMARK    5  A    between atoms: C_9  and  C_10
REMARK    6  A    between atoms: C_10  and  C_11
REMARK    7  A    between atoms: C_10  and  O_12
REMARK    8  A    between atoms: C_13  and  C_14
REMARK    9  A    between atoms: C_14  and  C_15
REMARK   10  A    between atoms: C_14  and  O_16
REMARK                            x       y       z     vdW  Elec       q    Type
REMARK                         _______ _______ _______ _____ _____    ______ ____
ROOT
ATOM      1  N   UNL     1      -3.541  15.152  -1.061  0.00  0.00    +0.000 N 
ENDROOT
BRANCH   1   6
ATOM      2  C   UNL     1       0.722  18.502   0.922  0.00  0.00    +0.000 C 
ATOM      3  C   UNL     1      -0.375  17.613   0.420  0.00  0.00    +0.000 A 
ATOM      4  C   UNL     1      -0.238  16.915  -0.775  0.00  0.00    +0.000 A 
ATOM      5  C   UNL     1      -1.282  16.107  -1.255  0.00  0.00    +0.000 A 
ATOM      6  C   UNL     1      -2.512  15.974  -0.586  0.00  0.00    +0.000 A 
ATOM      7  C   UNL     1      -2.614  16.693   0.620  0.00  0.00    +0.000 A 
ATOM      8  C   UNL     1      -1.577  17.502   1.112  0.00  0.00    +0.000 A 
ENDBRANCH   1   6
BRANCH   1   9
ATOM      9  C   UNL     1      -4.579  14.648  -0.130  0.00  0.00    +0.000 C 
BRANCH   9  10
ATOM     10  C   UNL     1      -5.946  15.351  -0.318  0.00  0.00    +0.000 C 
ATOM     11  C   UNL     1      -6.886  14.499  -1.162  0.00  0.00    +0.000 C 
BRANCH  10  12
ATOM     12  O   UNL     1      -6.579  15.591   0.947  0.00  0.00    +0.000 OA
ATOM     13  H   UNL     1      -7.362  16.145   0.791  0.00  0.00    +0.000 HD
ENDBRANCH  10  12
ENDBRANCH   9  10
ENDBRANCH   1   9
BRANCH   1  14
ATOM     14  C   UNL     1      -3.377  14.355  -2.304  0.00  0.00    +0.000 C 
BRANCH  14  15
ATOM     15  C   UNL     1      -3.619  12.845  -2.066  0.00  0.00    +0.000 C 
ATOM     16  C   UNL     1      -4.206  12.133  -3.279  0.00  0.00    +0.000 C 
BRANCH  15  17
ATOM     17  O   UNL     1      -2.418  12.170  -1.696  0.00  0.00    +0.000 OA
ATOM     18  H   UNL     1      -1.965  12.779  -1.079  0.00  0.00    +0.000 HD
ENDBRANCH  15  17
ENDBRANCH  14  15
ENDBRANCH   1  14
TORSDOF 7
ENDMDL
MODEL 8
REMARK VINA RESULT:    -4.630      2.033      4.767
REMARK INTER + INTRA:          -6.612
REMARK INTER:                  -6.141
REMARK INTRA:                  -0.471
REMARK UNBOUND:                -0.359
REMARK  Name = 
REMARK  10 active torsions:
REMARK  status: ('A' for Active; 'I' for Inactive)
REMARK    1  A    between atoms: C_1  and  C_2
REMARK    2  A    between atoms: C_5  and  N_8
REMARK    3  A    between atoms: N_8  and  C_9
REMARK    4  A    between atoms: N_8  and  C_13
REMARK    5  A    between atoms: C_9  and  C_10
REMARK    6  A    between atoms: C_10  and  C_11
REMARK    7  A    between atoms: C_10  and  O_12
REMARK    8  A    between atoms: C_13  and  C_14
REMARK    9  A    between atoms: C_14  and  C_15
REMARK   10  A    between atoms: C_14  and  O_16
REMARK                            x       y       z     vdW  Elec       q    Type
REMARK                         _______ _______ _______ _____ _____    ______ ____
ROOT
ATOM      1  N   UNL     1      -5.521  12.073  -6.366  0.00  0.00    +0.000 N 
ENDROOT
BRANCH   1   6
ATOM      2  C   UNL     1      -5.391  13.840  -0.871  0.00  0.00    +0.000 C 
ATOM      3  C   UNL     1      -5.437  13.361  -2.290  0.00  0.00    +0.000 A 
ATOM      4  C   UNL     1      -4.397  12.606  -2.823  0.00  0.00    +0.000 A 
ATOM      5  C   UNL     1      -4.432  12.185  -4.162  0.00  0.00    +0.000 A 
ATOM      6  C   UNL     1      -5.484  12.512  -5.036  0.00  0.00    +0.000 A 
ATOM      7  C   UNL     1      -6.519  13.274  -4.463  0.00  0.00    +0.000 A 
ATOM      8  C   UNL     1      -6.498  13.700  -3.125  0.00  0.00    +0.000 A 
ENDBRANCH   1   6
BRANCH   1   9
ATOM      9  C   UNL     1      -4.546  11.062  -6.842  0.00  0.00    +0.000 C 
BRANCH   9  10
ATOM     10  C   UNL     1      -5.226   9.771  -7.361  0.00  0.00    +0.000 C 
ATOM     11  C   UNL     1      -4.342   8.554  -7.117  0.00  0.00    +0.000 C 
BRANCH  10  12
ATOM     12  O   UNL     1      -6.480   9.549  -6.702  0.00  0.00    +0.000 OA
ATOM     13  H   UNL     1      -7.163   9.437  -7.385  0.00  0.00    +0.000 HD
ENDBRANCH  10  12
ENDBRANCH   9  10
ENDBRANCH   1   9
BRANCH   1  14
ATOM     14  C   UNL     1      -6.128  12.906  -7.435  0.00  0.00    +0.000 C 
BRANCH  14  15
ATOM     15  C   UNL     1      -5.065  13.487  -8.398  0.00  0.00    +0.000 C 
ATOM     16  C   UNL     1      -5.656  14.001  -9.705  0.00  0.00    +0.000 C 
BRANCH  15  17
ATOM     17  O   UNL     1      -4.333  14.553  -7.795  0.00  0.00    +0.000 OA
ATOM     18  H   UNL     1      -4.504  15.330  -8.364  0.00  0.00    +0.000 HD
ENDBRANCH  15  17
ENDBRANCH  14  15
ENDBRANCH   1  14
TORSDOF 7
ENDMDL
