MODEL 1
REMARK VINA RESULT:    -5.474      0.000      0.000
REMARK INTER + INTRA:          -7.780
REMARK INTER:                  -7.394
REMARK INTRA:                  -0.386
REMARK UNBOUND:                -0.386
REMARK  Name = 
REMARK  10 active torsions:
REMARK  status: ('A' for Active; 'I' for Inactive)
REMARK    1  A    between atoms: C_1  and  C_2
REMARK    2  A    between atoms: C_5  and  N_8
REMARK    3  A    between atoms: N_8  and  C_9
REMARK    4  A    between atoms: N_8  and  C_13
REMARK    5  A    between atoms: C_9  and  C_10
REMARK    6  A    between atoms: C_10  and  C_11
REMARK    7  A    between atoms: C_10  and  O_12
REMARK    8  A    between atoms: C_13  and  C_14
REMARK    9  A    between atoms: C_14  and  C_15
REMARK   10  A    between atoms: C_14  and  O_16
REMARK                            x       y       z     vdW  Elec       q    Type
REMARK                         _______ _______ _______ _____ _____    ______ ____
ROOT
ATOM      1  N   UNL     1      -4.912  12.155  -6.475  0.00  0.00    +0.000 N 
ENDROOT
BRANCH   1   6
ATOM      2  C   UNL     1      -4.122  16.967  -9.566  0.00  0.00    +0.000 C 
ATOM      3  C   UNL     1      -4.308  15.708  -8.776  0.00  0.00    +0.000 A 
ATOM      4  C   UNL     1      -5.170  14.709  -9.216  0.00  0.00    +0.000 A 
ATOM      5  C   UNL     1      -5.363  13.544  -8.456  0.00  0.00    +0.000 A 
ATOM      6  C   UNL     1      -4.730  13.328  -7.219  0.00  0.00    +0.000 A 
ATOM      7  C   UNL     1      -3.864  14.358  -6.806  0.00  0.00    +0.000 A 
ATOM      8  C   UNL     1      -3.661  15.527  -7.557  0.00  0.00    +0.000 A 
ENDBRANCH   1   6
BRANCH   1   9
ATOM      9  C   UNL     1      -5.180  10.871  -7.167  0.00  0.00    +0.000 C 
BRANCH   9  10
ATOM     10  C   UNL     1      -4.306   9.709  -6.635  0.00  0.00    +0.000 C 
ATOM     11  C   UNL     1      -4.535   8.440  -7.447  0.00  0.00    +0.000 C 
BRANCH  10  12
ATOM     12  O   UNL     1      -2.912  10.039  -6.708  0.00  0.00    +0.000 OA
ATOM     13  H   UNL     1      -2.698  10.612  -5.954  0.00  0.00    +0.000 HD
ENDBRANCH  10  12
ENDBRANCH   9  10
ENDBRANCH   1   9
BRANCH   1  14
ATOM     14  C   UNL     1      -5.351  12.204  -5.057  0.00  0.00    +0.000 C 
BRANCH  14  15
ATOM     15  C   UNL     1      -4.155  12.303  -4.079  0.00  0.00    +0.000 C 
ATOM     16  C   UNL     1      -4.532  12.906  -2.731  0.00  0.00    +0.000 C 
BRANCH  15  17
ATOM     17  O   UNL     1      -3.560  11.028  -3.842  0.00  0.00    +0.000 OA
ATOM     18  H   UNL     1      -4.095  10.399  -4.367  0.00  0.00    +0.000 HD
ENDBRANCH  15  17
ENDBRANCH  14  15
ENDBRANCH   1  14
TORSDOF 7
ENDMDL
MODEL 2
REMARK VINA RESULT:    -5.471      1.476      3.533
REMARK INTER + INTRA:          -7.776
REMARK INTER:                  -7.109
REMARK INTRA:                  -0.666
REMARK UNBOUND:                -0.386
REMARK  Name = 
REMARK  10 active torsions:
REMARK  status: ('A' for Active; 'I' for Inactive)
REMARK    1  A    between atoms: C_1  and  C_2
REMARK    2  A    between atoms: C_5  and  N_8
REMARK    3  A    between atoms: N_8  and  C_9
REMARK    4  A    between atoms: N_8  and  C_13
REMARK    5  A    between atoms: C_9  and  C_10
REMARK    6  A    between atoms: C_10  and  C_11
REMARK    7  A    between atoms: C_10  and  O_12
REMARK    8  A    between atoms: C_13  and  C_14
REMARK    9  A    between atoms: C_14  and  C_15
REMARK   10  A    between atoms: C_14  and  O_16
REMARK                            x       y       z     vdW  Elec       q    Type
REMARK                         _______ _______ _______ _____ _____    ______ ____
ROOT
ATOM      1  N   UNL     1      -4.470  11.805  -5.845  0.00  0.00    +0.000 N 
ENDROOT
BRANCH   1   6
ATOM      2  C   UNL     1      -4.445  16.294  -9.475  0.00  0.00    +0.000 C 
ATOM      3  C   UNL     1      -4.470  15.140  -8.520  0.00  0.00    +0.000 A 
ATOM      4  C   UNL     1      -3.653  15.126  -7.395  0.00  0.00    +0.000 A 
ATOM      5  C   UNL     1      -3.658  14.028  -6.519  0.00  0.00    +0.000 A 
ATOM      6  C   UNL     1      -4.455  12.888  -6.733  0.00  0.00    +0.000 A 
ATOM      7  C   UNL     1      -5.269  12.938  -7.879  0.00  0.00    +0.000 A 
ATOM      8  C   UNL     1      -5.275  14.030  -8.762  0.00  0.00    +0.000 A 
ENDBRANCH   1   6
BRANCH   1   9
ATOM      9  C   UNL     1      -4.588  12.041  -4.386  0.00  0.00    +0.000 C 
BRANCH   9  10
ATOM     10  C   UNL     1      -6.059  12.139  -3.912  0.00  0.00    +0.000 C 
ATOM     11  C   UNL     1      -6.546  13.583  -3.940  0.00  0.00    +0.000 C 
BRANCH  10  12
ATOM     12  O   UNL     1      -6.924  11.362  -4.753  0.00  0.00    +0.000 OA
ATOM     13  H   UNL     1      -6.508  10.495  -4.893  0.00  0.00    +0.000 HD
ENDBRANCH  10  12
ENDBRANCH   9  10
ENDBRANCH   1   9
BRANCH   1  14
ATOM     14  C   UNL     1      -3.876  10.496  -6.219  0.00  0.00    +0.000 C 
BRANCH  14  15
ATOM     15  C   UNL     1      -4.787   9.694  -7.179  0.00  0.00    +0.000 C 
ATOM     16  C   UNL     1      -4.382   8.230  -7.307  0.00  0.00    +0.000 C 
BRANCH  15  17
ATOM     17  O   UNL     1      -6.153   9.740  -6.770  0.00  0.00    +0.000 OA
ATOM     18  H   UNL     1      -6.407  10.682  -6.842  0.00  0.00    +0.000 HD
ENDBRANCH  15  17
ENDBRANCH  14  15
ENDBRANCH   1  14
TORSDOF 7
ENDMDL
MODEL 3
REMARK VINA RESULT:    -5.420      1.287      1.885
REMARK INTER + INTRA:          -7.707
REMARK INTER:                  -7.175
REMARK INTRA:                  -0.531
REMARK UNBOUND:                -0.386
REMARK  Name = 
REMARK  10 active torsions:
REMARK  status: ('A' for Active; 'I' for Inactive)
REMARK    1  A    between atoms: C_1  and  C_2
REMARK    2  A    between atoms: C_5  and  N_8
REMARK    3  A    between atoms: N_8  and  C_9
REMARK    4  A    between atoms: N_8  and  C_13
REMARK    5  A    between atoms: C_9  and  C_10
REMARK    6  A    between atoms: C_10  and  C_11
REMARK    7  A    between atoms: C_10  and  O_12
REMARK    8  A    between atoms: C_13  and  C_14
REMARK    9  A    between atoms: C_14  and  C_15
REMARK   10  A    between atoms: C_14  and  O_16
REMARK                            x       y       z     vdW  Elec       q    Type
REMARK                         _______ _______ _______ _____ _____    ______ ____
ROOT
ATOM      1  N   UNL     1      -4.387  12.521  -6.278  0.00  0.00    +0.000 N 
ENDROOT
BRANCH   1   6
ATOM      2  C   UNL     1      -3.322  17.586  -8.837  0.00  0.00    +0.000 C 
ATOM      3  C   UNL     1      -3.616  16.283  -8.158  0.00  0.00    +0.000 A 
ATOM      4  C   UNL     1      -2.879  15.871  -7.053  0.00  0.00    +0.000 A 
ATOM      5  C   UNL     1      -3.138  14.635  -6.439  0.00  0.00    +0.000 A 
ATOM      6  C   UNL     1      -4.121  13.744  -6.907  0.00  0.00    +0.000 A 
ATOM      7  C   UNL     1      -4.847  14.193  -8.025  0.00  0.00    +0.000 A 
ATOM      8  C   UNL     1      -4.600  15.428  -8.647  0.00  0.00    +0.000 A 
ENDBRANCH   1   6
BRANCH   1   9
ATOM      9  C   UNL     1      -4.553  11.290  -7.087  0.00  0.00    +0.000 C 
BRANCH   9  10
ATOM     10  C   UNL     1      -5.936  10.622  -6.887  0.00  0.00    +0.000 C 
ATOM     11  C   UNL     1      -6.924  11.087  -7.950  0.00  0.00    +0.000 C 
BRANCH  10  12
ATOM     12  O   UNL     1      -5.834   9.194  -6.969  0.00  0.00    +0.000 OA
ATOM     13  H   UNL     1      -5.802   8.948  -7.909  0.00  0.00    +0.000 HD
ENDBRANCH  10  12
ENDBRANCH   9  10
ENDBRANCH   1   9
BRANCH   1  14
ATOM     14  C   UNL     1      -5.006  12.470  -4.928  0.00  0.00    +0.000 C 
BRANCH  14  15
ATOM     15  C   UNL     1      -3.962  12.197  -3.818  0.00  0.00    +0.000 C 
ATOM     16  C   UNL     1      -4.401  12.699  -2.447  0.00  0.00    +0.000 C 
BRANCH  15  17
ATOM     17  O   UNL     1      -3.664  10.807  -3.704  0.00  0.00    +0.000 OA
ATOM     18  H   UNL     1      -4.191  10.497  -2.940  0.00  0.00    +0.000 HD
ENDBRANCH  15  17
ENDBRANCH  14  15
ENDBRANCH   1  14
TORSDOF 7
ENDMDL
MODEL 4
REMARK VINA RESULT:    -5.384      0.996      3.144
REMARK INTER + INTRA:          -7.658
REMARK INTER:                  -7.534
REMARK INTRA:                  -0.124
REMARK UNBOUND:                -0.386
REMARK  Name = 
REMARK  10 active torsions:
REMARK  status: ('A' for Active; 'I' for Inactive)
REMARK    1  A    between atoms: C_1  and  C_2
REMARK    2  A    between atoms: C_5  and  N_8
REMARK    3  A    between atoms: N_8  and  C_9
REMARK    4  A    between atoms: N_8  and  C_13
REMARK    5  A    between atoms: C_9  and  C_10
REMARK    6  A    between atoms: C_10  and  C_11
REMARK    7  A    between atoms: C_10  and  O_12
REMARK    8  A    between atoms: C_13  and  C_14
REMARK    9  A    between atoms: C_14  and  C_15
REMARK   10  A    between atoms: C_14  and  O_16
REMARK                            x       y       z     vdW  Elec       q    Type
REMARK                         _______ _______ _______ _____ _____    ______ ____
ROOT
ATOM      1  N   UNL     1      -4.765  11.828  -6.324  0.00  0.00    +0.000 N 
ENDROOT
BRANCH   1   6
ATOM      2  C   UNL     1      -4.528  16.524  -9.673  0.00  0.00    +0.000 C 
ATOM      3  C   UNL     1      -4.570  15.296  -8.816  0.00  0.00    +0.000 A 
ATOM      4  C   UNL     1      -5.352  14.202  -9.172  0.00  0.00    +0.000 A 
ATOM      5  C   UNL     1      -5.410  13.066  -8.350  0.00  0.00    +0.000 A 
ATOM      6  C   UNL     1      -4.717  12.972  -7.129  0.00  0.00    +0.000 A 
ATOM      7  C   UNL     1      -3.936  14.095  -6.802  0.00  0.00    +0.000 A 
ATOM      8  C   UNL     1      -3.866  15.238  -7.616  0.00  0.00    +0.000 A 
ENDBRANCH   1   6
BRANCH   1   9
ATOM      9  C   UNL     1      -5.149  11.939  -4.896  0.00  0.00    +0.000 C 
BRANCH   9  10
ATOM     10  C   UNL     1      -3.926  11.983  -3.947  0.00  0.00    +0.000 C 
ATOM     11  C   UNL     1      -4.245  12.772  -2.682  0.00  0.00    +0.000 C 
BRANCH  10  12
ATOM     12  O   UNL     1      -3.528  10.661  -3.558  0.00  0.00    +0.000 OA
ATOM     13  H   UNL     1      -2.796  10.741  -2.925  0.00  0.00    +0.000 HD
ENDBRANCH  10  12
ENDBRANCH   9  10
ENDBRANCH   1   9
BRANCH   1  14
ATOM     14  C   UNL     1      -3.982  10.613  -6.666  0.00  0.00    +0.000 C 
BRANCH  14  15
ATOM     15  C   UNL     1      -4.860   9.517  -7.318  0.00  0.00    +0.000 C 
ATOM     16  C   UNL     1      -4.422   8.103  -6.954  0.00  0.00    +0.000 C 
BRANCH  15  17
ATOM     17  O   UNL     1      -6.234   9.660  -6.960  0.00  0.00    +0.000 OA
ATOM     18  H   UNL     1      -6.648  10.111  -7.723  0.00  0.00    +0.000 HD
ENDBRANCH  15  17
ENDBRANCH  14  15
ENDBRANCH   1  14
TORSDOF 7
ENDMDL
MODEL 5
REMARK VINA RESULT:    -5.007      1.550      3.496
REMARK INTER + INTRA:          -7.149
REMARK INTER:                  -6.776
REMARK INTRA:                  -0.373
REMARK UNBOUND:                -0.386
REMARK  Name = 
REMARK  10 active torsions:
REMARK  status: ('A' for Active; 'I' for Inactive)
REMARK    1  A    between atoms: C_1  and  C_2
REMARK    2  A    between atoms: C_5  and  N_8
REMARK    3  A    between atoms: N_8  and  C_9
REMARK    4  A    between atoms: N_8  and  C_13
REMARK    5  A    between atoms: C_9  and  C_10
REMARK    6  A    between atoms: C_10  and  C_11
REMARK    7  A    between atoms: C_10  and  O_12
REMARK    8  A    between atoms: C_13  and  C_14
REMARK    9  A    between atoms: C_14  and  C_15
REMARK   10  A    between atoms: C_14  and  O_16
REMARK                            x       y       z     vdW  Elec       q    Type
REMARK                         _______ _______ _______ _____ _____    ______ ____
ROOT
ATOM      1  N   UNL     1      -4.515  12.648  -6.390  0.00  0.00    +0.000 N 
ENDROOT
BRANCH   1   6
ATOM      2  C   UNL     1      -3.924  17.414  -9.594  0.00  0.00    +0.000 C 
ATOM      3  C   UNL     1      -4.096  16.188  -8.750  0.00  0.00    +0.000 A 
ATOM      4  C   UNL     1      -3.361  16.017  -7.581  0.00  0.00    +0.000 A 
ATOM      5  C   UNL     1      -3.505  14.852  -6.810  0.00  0.00    +0.000 A 
ATOM      6  C   UNL     1      -4.363  13.798  -7.174  0.00  0.00    +0.000 A 
ATOM      7  C   UNL     1      -5.091  14.007  -8.360  0.00  0.00    +0.000 A 
ATOM      8  C   UNL     1      -4.959  15.168  -9.139  0.00  0.00    +0.000 A 
ENDBRANCH   1   6
BRANCH   1   9
ATOM      9  C   UNL     1      -4.143  12.672  -4.955  0.00  0.00    +0.000 C 
BRANCH   9  10
ATOM     10  C   UNL     1      -5.361  12.491  -4.016  0.00  0.00    +0.000 C 
ATOM     11  C   UNL     1      -5.033  12.958  -2.602  0.00  0.00    +0.000 C 
BRANCH  10  12
ATOM     12  O   UNL     1      -6.488  13.246  -4.483  0.00  0.00    +0.000 OA
ATOM     13  H   UNL     1      -6.230  14.182  -4.516  0.00  0.00    +0.000 HD
ENDBRANCH  10  12
ENDBRANCH   9  10
ENDBRANCH   1   9
BRANCH   1  14
ATOM     14  C   UNL     1      -4.544  11.296  -7.005  0.00  0.00    +0.000 C 
BRANCH  14  15
ATOM     15  C   UNL     1      -5.931  10.624  -6.874  0.00  0.00    +0.000 C 
ATOM     16  C   UNL     1      -6.923  11.081  -7.937  0.00  0.00    +0.000 C 
BRANCH  15  17
ATOM     17  O   UNL     1      -5.836   9.202  -6.941  0.00  0.00    +0.000 OA
ATOM     18  H   UNL     1      -5.384   8.939  -6.114  0.00  0.00    +0.000 HD
ENDBRANCH  15  17
ENDBRANCH  14  15
ENDBRANCH   1  14
TORSDOF 7
ENDMDL
MODEL 6
REMARK VINA RESULT:    -4.938      1.679      2.328
REMARK INTER + INTRA:          -7.056
REMARK INTER:                  -6.398
REMARK INTRA:                  -0.657
REMARK UNBOUND:                -0.386
REMARK  Name = 
REMARK  10 active torsions:
REMARK  status: ('A' for Active; 'I' for Inactive)
REMARK    1  A    between atoms: C_1  and  C_2
REMARK    2  A    between atoms: C_5  and  N_8
REMARK    3  A    between atoms: N_8  and  C_9
REMARK    4  A    between atoms: N_8  and  C_13
REMARK    5  A    between atoms: C_9  and  C_10
REMARK    6  A    between atoms: C_10  and  C_11
REMARK    7  A    between atoms: C_10  and  O_12
REMARK    8  A    between atoms: C_13  and  C_14
REMARK    9  A    between atoms: C_14  and  C_15
REMARK   10  A    between atoms: C_14  and  O_16
REMARK                            x       y       z     vdW  Elec       q    Type
REMARK                         _______ _______ _______ _____ _____    ______ ____
ROOT
ATOM      1  N   UNL     1      -6.120  11.962  -6.509  0.00  0.00    +0.000 N 
ENDROOT
BRANCH   1   6
ATOM      2  C   UNL     1      -5.762  15.202 -11.274  0.00  0.00    +0.000 C 
ATOM      3  C   UNL     1      -5.871  14.378 -10.028  0.00  0.00    +0.000 A 
ATOM      4  C   UNL     1      -4.967  14.541  -8.983  0.00  0.00    +0.000 A 
ATOM      5  C   UNL     1      -5.056  13.745  -7.829  0.00  0.00    +0.000 A 
ATOM      6  C   UNL     1      -6.026  12.739  -7.671  0.00  0.00    +0.000 A 
ATOM      7  C   UNL     1      -6.923  12.604  -8.746  0.00  0.00    +0.000 A 
ATOM      8  C   UNL     1      -6.848  13.395  -9.904  0.00  0.00    +0.000 A 
ENDBRANCH   1   6
BRANCH   1   9
ATOM      9  C   UNL     1      -6.248  10.488  -6.609  0.00  0.00    +0.000 C 
BRANCH   9  10
ATOM     10  C   UNL     1      -4.997   9.818  -7.229  0.00  0.00    +0.000 C 
ATOM     11  C   UNL     1      -3.728  10.268  -6.516  0.00  0.00    +0.000 C 
BRANCH  10  12
ATOM     12  O   UNL     1      -5.078   8.389  -7.133  0.00  0.00    +0.000 OA
ATOM     13  H   UNL     1      -4.427   8.094  -6.475  0.00  0.00    +0.000 HD
ENDBRANCH  10  12
ENDBRANCH   9  10
ENDBRANCH   1   9
BRANCH   1  14
ATOM     14  C   UNL     1      -6.602  12.546  -5.231  0.00  0.00    +0.000 C 
BRANCH  14  15
ATOM     15  C   UNL     1      -5.619  12.287  -4.064  0.00  0.00    +0.000 C 
ATOM     16  C   UNL     1      -4.330  13.093  -4.175  0.00  0.00    +0.000 C 
BRANCH  15  17
ATOM     17  O   UNL     1      -6.214  12.577  -2.800  0.00  0.00    +0.000 OA
ATOM     18  H   UNL     1      -5.629  13.247  -2.393  0.00  0.00    +0.000 HD
ENDBRANCH  15  17
ENDBRANCH  14  15
ENDBRANCH   1  14
TORSDOF 7
ENDMDL
MODEL 7
REMARK VINA RESULT:    -4.839      3.736      5.917
REMARK INTER + INTRA:          -6.921
REMARK INTER:                  -6.435
REMARK INTRA:                  -0.487
REMARK UNBOUND:                -0.386
REMARK  Name = 
REMARK  10 active torsions:
REMARK  status: ('A' for Active; 'I' for Inactive)
REMARK    1  A    between atoms: C_1  and  C_2
REMARK    2  A    between atoms: C_5  and  N_8
REMARK    3  A    between atoms: N_8  and  C_9
REMARK    4  A    between atoms: N_8  and  C_13
REMARK    5  A    between atoms: C_9  and  C_10
REMARK    6  A    between atoms: C_10  and  C_11
REMARK    7  A    between atoms: C_10  and  O_12
REMARK    8  A    between atoms: C_13  and  C_14
REMARK    9  A    between atoms: C_14  and  C_15
REMARK   10  A    between atoms: C_14  and  O_16
REMARK                            x       y       z     vdW  Elec       q    Type
REMARK                         _______ _______ _______ _____ _____    ______ ____
ROOT
ATOM      1  N   UNL     1      -4.631  13.320  -2.208  0.00  0.00    +0.000 N 
ENDROOT
BRANCH   1   6
ATOM      2  C   UNL     1      -5.999  10.966  -7.298  0.00  0.00    +0.000 C 
ATOM      3  C   UNL     1      -5.641  11.599  -5.989  0.00  0.00    +0.000 A 
ATOM      4  C   UNL     1      -4.323  11.624  -5.544  0.00  0.00    +0.000 A 
ATOM      5  C   UNL     1      -3.998  12.192  -4.301  0.00  0.00    +0.000 A 
ATOM      6  C   UNL     1      -4.965  12.738  -3.437  0.00  0.00    +0.000 A 
ATOM      7  C   UNL     1      -6.285  12.697  -3.920  0.00  0.00    +0.000 A 
ATOM      8  C   UNL     1      -6.624  12.134  -5.161  0.00  0.00    +0.000 A 
ENDBRANCH   1   6
BRANCH   1   9
ATOM      9  C   UNL     1      -5.480  14.394  -1.638  0.00  0.00    +0.000 C 
BRANCH   9  10
ATOM     10  C   UNL     1      -5.688  14.248  -0.111  0.00  0.00    +0.000 C 
ATOM     11  C   UNL     1      -5.718  15.613   0.567  0.00  0.00    +0.000 C 
BRANCH  10  12
ATOM     12  O   UNL     1      -6.924  13.581   0.179  0.00  0.00    +0.000 OA
ATOM     13  H   UNL     1      -6.951  12.759  -0.338  0.00  0.00    +0.000 HD
ENDBRANCH  10  12
ENDBRANCH   9  10
ENDBRANCH   1   9
BRANCH   1  14
ATOM     14  C   UNL     1      -3.236  13.290  -1.696  0.00  0.00    +0.000 C 
BRANCH  14  15
ATOM     15  C   UNL     1      -2.552  14.675  -1.784  0.00  0.00    +0.000 C 
ATOM     16  C   UNL     1      -1.354  14.812  -0.852  0.00  0.00    +0.000 C 
BRANCH  15  17
ATOM     17  O   UNL     1      -2.115  14.964  -3.111  0.00  0.00    +0.000 OA
ATOM     18  H   UNL     1      -2.056  15.940  -3.151  0.00  0.00    +0.000 HD
ENDBRANCH  15  17
ENDBRANCH  14  15
ENDBRANCH   1  14
TORSDOF 7
ENDMDL
MODEL 8
REMARK VINA RESULT:    -4.814      3.436      5.870
REMARK INTER + INTRA:          -6.888
REMARK INTER:                  -6.483
REMARK INTRA:                  -0.405
REMARK UNBOUND:                -0.386
REMARK  Name = 
REMARK  10 active torsions:
REMARK  status: ('A' for Active; 'I' for Inactive)
REMARK    1  A    between atoms: C_1  and  C_2
REMARK    2  A    between atoms: C_5  and  N_8
REMARK    3  A    between atoms: N_8  and  C_9
REMARK    4  A    between atoms: N_8  and  C_13
REMARK    5  A    between atoms: C_9  and  C_10
REMARK    6  A    between atoms: C_10  and  C_11
REMARK    7  A    between atoms: C_10  and  O_12
REMARK    8  A    between atoms: C_13  and  C_14
REMARK    9  A    between atoms: C_14  and  C_15
REMARK   10  A    between atoms: C_14  and  O_16
REMARK                            x       y       z     vdW  Elec       q    Type
REMARK                         _______ _______ _______ _____ _____    ______ ____
ROOT
ATOM      1  N   UNL     1      -3.514  14.472  -2.192  0.00  0.00    +0.000 N 
ENDROOT
BRANCH   1   6
ATOM      2  C   UNL     1      -4.409  11.351  -6.965  0.00  0.00    +0.000 C 
ATOM      3  C   UNL     1      -4.202  12.163  -5.724  0.00  0.00    +0.000 A 
ATOM      4  C   UNL     1      -4.045  13.543  -5.791  0.00  0.00    +0.000 A 
ATOM      5  C   UNL     1      -3.821  14.296  -4.627  0.00  0.00    +0.000 A 
ATOM      6  C   UNL     1      -3.719  13.713  -3.351  0.00  0.00    +0.000 A 
ATOM      7  C   UNL     1      -3.883  12.316  -3.321  0.00  0.00    +0.000 A 
ATOM      8  C   UNL     1      -4.110  11.551  -4.477  0.00  0.00    +0.000 A 
ENDBRANCH   1   6
BRANCH   1   9
ATOM      9  C   UNL     1      -2.368  14.172  -1.299  0.00  0.00    +0.000 C 
BRANCH   9  10
ATOM     10  C   UNL     1      -1.184  15.150  -1.495  0.00  0.00    +0.000 C 
ATOM     11  C   UNL     1      -1.036  16.075  -0.293  0.00  0.00    +0.000 C 
BRANCH  10  12
ATOM     12  O   UNL     1       0.050  14.438  -1.662  0.00  0.00    +0.000 OA
ATOM     13  H   UNL     1       0.571  14.894  -2.343  0.00  0.00    +0.000 HD
ENDBRANCH  10  12
ENDBRANCH   9  10
ENDBRANCH   1   9
BRANCH   1  14
ATOM     14  C   UNL     1      -4.632  15.206  -1.546  0.00  0.00    +0.000 C 
BRANCH  14  15
ATOM     15  C   UNL     1      -5.187  14.458  -0.311  0.00  0.00    +0.000 C 
ATOM     16  C   UNL     1      -6.136  15.306   0.528  0.00  0.00    +0.000 C 
BRANCH  15  17
ATOM     17  O   UNL     1      -5.873  13.263  -0.682  0.00  0.00    +0.000 OA
ATOM     18  H   UNL     1      -5.525  12.574  -0.081  0.00  0.00    +0.000 HD
ENDBRANCH  15  17
ENDBRANCH  14  15
ENDBRANCH   1  14
TORSDOF 7
ENDMDL
MODEL 9
REMARK VINA RESULT:    -4.638      1.977      4.809
REMARK INTER + INTRA:          -6.651
REMARK INTER:                  -6.200
REMARK INTRA:                  -0.451
REMARK UNBOUND:                -0.386
REMARK  Name = 
REMARK  10 active torsions:
REMARK  status: ('A' for Active; 'I' for Inactive)
REMARK    1  A    between atoms: C_1  and  C_2
REMARK    2  A    between atoms: C_5  and  N_8
REMARK    3  A    between atoms: N_8  and  C_9
REMARK    4  A    between atoms: N_8  and  C_13
REMARK    5  A    between atoms: C_9  and  C_10
REMARK    6  A    between atoms: C_10  and  C_11
REMARK    7  A    between atoms: C_10  and  O_12
REMARK    8  A    between atoms: C_13  and  C_14
REMARK    9  A    between atoms: C_14  and  C_15
REMARK   10  A    between atoms: C_14  and  O_16
REMARK                            x       y       z     vdW  Elec       q    Type
REMARK                         _______ _______ _______ _____ _____    ______ ____
ROOT
ATOM      1  N   UNL     1      -5.533  12.121  -6.133  0.00  0.00    +0.000 N 
ENDROOT
BRANCH   1   6
ATOM      2  C   UNL     1      -5.490  13.992  -0.672  0.00  0.00    +0.000 C 
ATOM      3  C   UNL     1      -5.487  13.526  -2.095  0.00  0.00    +0.000 A 
ATOM      4  C   UNL     1      -6.483  13.925  -2.980  0.00  0.00    +0.000 A 
ATOM      5  C   UNL     1      -6.492  13.460  -4.305  0.00  0.00    +0.000 A 
ATOM      6  C   UNL     1      -5.529  12.564  -4.804  0.00  0.00    +0.000 A 
ATOM      7  C   UNL     1      -4.536  12.184  -3.883  0.00  0.00    +0.000 A 
ATOM      8  C   UNL     1      -4.515  12.642  -2.555  0.00  0.00    +0.000 A 
ENDBRANCH   1   6
BRANCH   1   9
ATOM      9  C   UNL     1      -4.562  11.090  -6.575  0.00  0.00    +0.000 C 
BRANCH   9  10
ATOM     10  C   UNL     1      -5.239   9.899  -7.296  0.00  0.00    +0.000 C 
ATOM     11  C   UNL     1      -4.370   8.649  -7.217  0.00  0.00    +0.000 C 
BRANCH  10  12
ATOM     12  O   UNL     1      -6.510   9.594  -6.705  0.00  0.00    +0.000 OA
ATOM     13  H   UNL     1      -7.129   9.371  -7.420  0.00  0.00    +0.000 HD
ENDBRANCH  10  12
ENDBRANCH   9  10
ENDBRANCH   1   9
BRANCH   1  14
ATOM     14  C   UNL     1      -6.090  12.961  -7.223  0.00  0.00    +0.000 C 
BRANCH  14  15
ATOM     15  C   UNL     1      -4.988  13.506  -8.163  0.00  0.00    +0.000 C 
ATOM     16  C   UNL     1      -5.536  14.049  -9.477  0.00  0.00    +0.000 C 
BRANCH  15  17
ATOM     17  O   UNL     1      -4.228  14.541  -7.540  0.00  0.00    +0.000 OA
ATOM     18  H   UNL     1      -4.331  14.386  -6.579  0.00  0.00    +0.000 HD
ENDBRANCH  15  17
ENDBRANCH  14  15
ENDBRANCH   1  14
TORSDOF 7
ENDMDL
