MODEL 1
REMARK VINA RESULT:    -4.946      0.000      0.000
REMARK INTER + INTRA:          -5.428
REMARK INTER:                  -5.379
REMARK INTRA:                  -0.049
REMARK UNBOUND:                -0.049
REMARK  Name = 
REMARK  3 active torsions:
REMARK  status: ('A' for Active; 'I' for Inactive)
REMARK    1  A    between atoms: C_1  and  O_2
REMARK    2  A    between atoms: O_2  and  C_3
REMARK    3  A    between atoms: C_8  and  O_9
REMARK                            x       y       z     vdW  Elec       q    Type
REMARK                         _______ _______ _______ _____ _____    ______ ____
ROOT
ATOM      1  C   UNL     1      13.185   1.538   6.387  0.00  0.00    +0.000 A 
ATOM      2  C   UNL     1      13.149   1.703   7.771  0.00  0.00    +0.000 A 
ATOM      3  C   UNL     1      12.015   1.310   8.494  0.00  0.00    +0.000 A 
ATOM      4  C   UNL     1      10.916   0.753   7.837  0.00  0.00    +0.000 A 
ATOM      5  C   UNL     1      10.945   0.584   6.455  0.00  0.00    +0.000 A 
ATOM      6  C   UNL     1      12.073   0.977   5.747  0.00  0.00    +0.000 A 
ENDROOT
BRANCH   1   8
ATOM      7  C   UNL     1      14.436   3.266   5.341  0.00  0.00    +0.000 C 
ATOM      8  O   UNL     1      14.223   1.876   5.557  0.00  0.00    +0.000 OA
ENDBRANCH   1   8
BRANCH   6   9
ATOM      9  O   UNL     1      12.078   0.802   4.389  0.00  0.00    +0.000 OA
ATOM     10  H   UNL     1      12.019   1.704   4.021  0.00  0.00    +0.000 HD
ENDBRANCH   6   9
TORSDOF 2
ENDMDL
MODEL 2
REMARK VINA RESULT:    -4.837      2.254      3.297
REMARK INTER + INTRA:          -5.311
REMARK INTER:                  -5.262
REMARK INTRA:                  -0.048
REMARK UNBOUND:                -0.049
REMARK  Name = 
REMARK  3 active torsions:
REMARK  status: ('A' for Active; 'I' for Inactive)
REMARK    1  A    between atoms: C_1  and  O_2
REMARK    2  A    between atoms: O_2  and  C_3
REMARK    3  A    between atoms: C_8  and  O_9
REMARK                            x       y       z     vdW  Elec       q    Type
REMARK                         _______ _______ _______ _____ _____    ______ ____
ROOT
ATOM      1  C   UNL     1      11.600   0.880   7.894  0.00  0.00    +0.000 A 
ATOM      2  C   UNL     1      12.982   1.063   7.860  0.00  0.00    +0.000 A 
ATOM      3  C   UNL     1      13.645   1.156   6.630  0.00  0.00    +0.000 A 
ATOM      4  C   UNL     1      12.933   1.067   5.433  0.00  0.00    +0.000 A 
ATOM      5  C   UNL     1      11.552   0.885   5.458  0.00  0.00    +0.000 A 
ATOM      6  C   UNL     1      10.902   0.793   6.682  0.00  0.00    +0.000 A 
ENDROOT
BRANCH   1   8
ATOM      7  C   UNL     1      11.017   1.761  10.022  0.00  0.00    +0.000 C 
ATOM      8  O   UNL     1      10.823   0.771   9.019  0.00  0.00    +0.000 OA
ENDBRANCH   1   8
BRANCH   6   9
ATOM      9  O   UNL     1       9.544   0.614   6.682  0.00  0.00    +0.000 OA
ATOM     10  H   UNL     1       9.219   1.185   5.961  0.00  0.00    +0.000 HD
ENDBRANCH   6   9
TORSDOF 2
ENDMDL
MODEL 3
REMARK VINA RESULT:    -4.816     10.973     12.304
REMARK INTER + INTRA:          -5.288
REMARK INTER:                  -5.238
REMARK INTRA:                  -0.050
REMARK UNBOUND:                -0.049
REMARK  Name = 
REMARK  3 active torsions:
REMARK  status: ('A' for Active; 'I' for Inactive)
REMARK    1  A    between atoms: C_1  and  O_2
REMARK    2  A    between atoms: O_2  and  C_3
REMARK    3  A    between atoms: C_8  and  O_9
REMARK                            x       y       z     vdW  Elec       q    Type
REMARK                         _______ _______ _______ _____ _____    ______ ____
ROOT
ATOM      1  C   UNL     1       5.825  -7.970   9.623  0.00  0.00    +0.000 A 
ATOM      2  C   UNL     1       6.179  -9.303   9.421  0.00  0.00    +0.000 A 
ATOM      3  C   UNL     1       5.642 -10.013   8.340  0.00  0.00    +0.000 A 
ATOM      4  C   UNL     1       4.752  -9.396   7.459  0.00  0.00    +0.000 A 
ATOM      5  C   UNL     1       4.394  -8.064   7.654  0.00  0.00    +0.000 A 
ATOM      6  C   UNL     1       4.931  -7.367   8.730  0.00  0.00    +0.000 A 
ENDROOT
BRANCH   1   8
ATOM      7  C   UNL     1       7.680  -7.053  10.792  0.00  0.00    +0.000 C 
ATOM      8  O   UNL     1       6.270  -7.157  10.635  0.00  0.00    +0.000 OA
ENDBRANCH   1   8
BRANCH   6   9
ATOM      9  O   UNL     1       4.564  -6.059   8.901  0.00  0.00    +0.000 OA
ATOM     10  H   UNL     1       5.269  -5.673   9.454  0.00  0.00    +0.000 HD
ENDBRANCH   6   9
TORSDOF 2
ENDMDL
MODEL 4
REMARK VINA RESULT:    -4.686      1.683      3.010
REMARK INTER + INTRA:          -5.146
REMARK INTER:                  -5.107
REMARK INTRA:                  -0.039
REMARK UNBOUND:                -0.049
REMARK  Name = 
REMARK  3 active torsions:
REMARK  status: ('A' for Active; 'I' for Inactive)
REMARK    1  A    between atoms: C_1  and  O_2
REMARK    2  A    between atoms: O_2  and  C_3
REMARK    3  A    between atoms: C_8  and  O_9
REMARK                            x       y       z     vdW  Elec       q    Type
REMARK                         _______ _______ _______ _____ _____    ______ ____
ROOT
ATOM      1  C   UNL     1      11.869   1.799   6.539  0.00  0.00    +0.000 A 
ATOM      2  C   UNL     1      12.166   0.992   7.636  0.00  0.00    +0.000 A 
ATOM      3  C   UNL     1      12.871   1.521   8.724  0.00  0.00    +0.000 A 
ATOM      4  C   UNL     1      13.281   2.856   8.720  0.00  0.00    +0.000 A 
ATOM      5  C   UNL     1      12.988   3.669   7.628  0.00  0.00    +0.000 A 
ATOM      6  C   UNL     1      12.289   3.135   6.553  0.00  0.00    +0.000 A 
ENDROOT
BRANCH   1   8
ATOM      7  C   UNL     1      10.370   0.259   5.525  0.00  0.00    +0.000 C 
ATOM      8  O   UNL     1      11.191   1.416   5.410  0.00  0.00    +0.000 OA
ENDBRANCH   1   8
BRANCH   6   9
ATOM      9  O   UNL     1      12.012   3.954   5.490  0.00  0.00    +0.000 OA
ATOM     10  H   UNL     1      11.104   4.274   5.653  0.00  0.00    +0.000 HD
ENDBRANCH   6   9
TORSDOF 2
ENDMDL
MODEL 5
REMARK VINA RESULT:    -4.610      1.389      2.108
REMARK INTER + INTRA:          -5.063
REMARK INTER:                  -5.010
REMARK INTRA:                  -0.053
REMARK UNBOUND:                -0.049
REMARK  Name = 
REMARK  3 active torsions:
REMARK  status: ('A' for Active; 'I' for Inactive)
REMARK    1  A    between atoms: C_1  and  O_2
REMARK    2  A    between atoms: O_2  and  C_3
REMARK    3  A    between atoms: C_8  and  O_9
REMARK                            x       y       z     vdW  Elec       q    Type
REMARK                         _______ _______ _______ _____ _____    ______ ____
ROOT
ATOM      1  C   UNL     1      12.349   1.476   6.910  0.00  0.00    +0.000 A 
ATOM      2  C   UNL     1      11.204   0.983   7.534  0.00  0.00    +0.000 A 
ATOM      3  C   UNL     1      10.204   0.365   6.773  0.00  0.00    +0.000 A 
ATOM      4  C   UNL     1      10.344   0.239   5.389  0.00  0.00    +0.000 A 
ATOM      5  C   UNL     1      11.485   0.728   4.759  0.00  0.00    +0.000 A 
ATOM      6  C   UNL     1      12.472   1.340   5.522  0.00  0.00    +0.000 A 
ENDROOT
BRANCH   1   8
ATOM      7  C   UNL     1      13.139   3.379   8.094  0.00  0.00    +0.000 C 
ATOM      8  O   UNL     1      13.403   2.102   7.527  0.00  0.00    +0.000 OA
ENDBRANCH   1   8
BRANCH   6   9
ATOM      9  O   UNL     1      13.585   1.814   4.880  0.00  0.00    +0.000 OA
ATOM     10  H   UNL     1      14.321   1.639   5.497  0.00  0.00    +0.000 HD
ENDBRANCH   6   9
TORSDOF 2
ENDMDL
MODEL 6
REMARK VINA RESULT:    -4.601      2.071      2.782
REMARK INTER + INTRA:          -5.054
REMARK INTER:                  -5.034
REMARK INTRA:                  -0.020
REMARK UNBOUND:                -0.049
REMARK  Name = 
REMARK  3 active torsions:
REMARK  status: ('A' for Active; 'I' for Inactive)
REMARK    1  A    between atoms: C_1  and  O_2
REMARK    2  A    between atoms: O_2  and  C_3
REMARK    3  A    between atoms: C_8  and  O_9
REMARK                            x       y       z     vdW  Elec       q    Type
REMARK                         _______ _______ _______ _____ _____    ______ ____
ROOT
ATOM      1  C   UNL     1      12.333   1.588   7.153  0.00  0.00    +0.000 A 
ATOM      2  C   UNL     1      12.811   1.306   5.874  0.00  0.00    +0.000 A 
ATOM      3  C   UNL     1      11.954   0.756   4.912  0.00  0.00    +0.000 A 
ATOM      4  C   UNL     1      10.621   0.485   5.224  0.00  0.00    +0.000 A 
ATOM      5  C   UNL     1      10.135   0.764   6.500  0.00  0.00    +0.000 A 
ATOM      6  C   UNL     1      10.992   1.310   7.447  0.00  0.00    +0.000 A 
ENDROOT
BRANCH   1   8
ATOM      7  C   UNL     1      13.241   3.534   8.169  0.00  0.00    +0.000 C 
ATOM      8  O   UNL     1      13.055   2.124   8.189  0.00  0.00    +0.000 OA
ENDBRANCH   1   8
BRANCH   6   9
ATOM      9  O   UNL     1      10.492   1.575   8.694  0.00  0.00    +0.000 OA
ATOM     10  H   UNL     1      10.343   0.697   9.094  0.00  0.00    +0.000 HD
ENDBRANCH   6   9
TORSDOF 2
ENDMDL
MODEL 7
REMARK VINA RESULT:    -4.587      2.450      3.702
REMARK INTER + INTRA:          -5.039
REMARK INTER:                  -4.996
REMARK INTRA:                  -0.043
REMARK UNBOUND:                -0.049
REMARK  Name = 
REMARK  3 active torsions:
REMARK  status: ('A' for Active; 'I' for Inactive)
REMARK    1  A    between atoms: C_1  and  O_2
REMARK    2  A    between atoms: O_2  and  C_3
REMARK    3  A    between atoms: C_8  and  O_9
REMARK                            x       y       z     vdW  Elec       q    Type
REMARK                         _______ _______ _______ _____ _____    ______ ____
ROOT
ATOM      1  C   UNL     1      11.225   1.987   7.069  0.00  0.00    +0.000 A 
ATOM      2  C   UNL     1      12.153   2.646   6.263  0.00  0.00    +0.000 A 
ATOM      3  C   UNL     1      13.119   3.477   6.844  0.00  0.00    +0.000 A 
ATOM      4  C   UNL     1      13.160   3.654   8.228  0.00  0.00    +0.000 A 
ATOM      5  C   UNL     1      12.237   3.000   9.040  0.00  0.00    +0.000 A 
ATOM      6  C   UNL     1      11.283   2.177   8.455  0.00  0.00    +0.000 A 
ENDROOT
BRANCH   1   8
ATOM      7  C   UNL     1      10.526   0.337   5.509  0.00  0.00    +0.000 C 
ATOM      8  O   UNL     1      10.229   1.148   6.639  0.00  0.00    +0.000 OA
ENDBRANCH   1   8
BRANCH   6   9
ATOM      9  O   UNL     1      10.386   1.544   9.274  0.00  0.00    +0.000 OA
ATOM     10  H   UNL     1      10.933   0.975   9.849  0.00  0.00    +0.000 HD
ENDBRANCH   6   9
TORSDOF 2
ENDMDL
MODEL 8
REMARK VINA RESULT:    -4.536     11.542     12.221
REMARK INTER + INTRA:          -4.983
REMARK INTER:                  -4.930
REMARK INTRA:                  -0.053
REMARK UNBOUND:                -0.049
REMARK  Name = 
REMARK  3 active torsions:
REMARK  status: ('A' for Active; 'I' for Inactive)
REMARK    1  A    between atoms: C_1  and  O_2
REMARK    2  A    between atoms: O_2  and  C_3
REMARK    3  A    between atoms: C_8  and  O_9
REMARK                            x       y       z     vdW  Elec       q    Type
REMARK                         _______ _______ _______ _____ _____    ______ ____
ROOT
ATOM      1  C   UNL     1       6.443  -7.806   9.579  0.00  0.00    +0.000 A 
ATOM      2  C   UNL     1       5.209  -7.226   9.286  0.00  0.00    +0.000 A 
ATOM      3  C   UNL     1       4.366  -7.816   8.336  0.00  0.00    +0.000 A 
ATOM      4  C   UNL     1       4.752  -8.984   7.676  0.00  0.00    +0.000 A 
ATOM      5  C   UNL     1       5.983  -9.570   7.963  0.00  0.00    +0.000 A 
ATOM      6  C   UNL     1       6.812  -8.977   8.907  0.00  0.00    +0.000 A 
ENDROOT
BRANCH   1   8
ATOM      7  C   UNL     1       6.996  -7.398  11.853  0.00  0.00    +0.000 C 
ATOM      8  O   UNL     1       7.365  -7.339  10.481  0.00  0.00    +0.000 OA
ENDBRANCH   1   8
BRANCH   6   9
ATOM      9  O   UNL     1       8.017  -9.571   9.172  0.00  0.00    +0.000 OA
ATOM     10  H   UNL     1       8.299  -9.954   8.319  0.00  0.00    +0.000 HD
ENDBRANCH   6   9
TORSDOF 2
ENDMDL
MODEL 9
REMARK VINA RESULT:    -4.465      1.249      2.298
REMARK INTER + INTRA:          -4.906
REMARK INTER:                  -4.853
REMARK INTRA:                  -0.053
REMARK UNBOUND:                -0.049
REMARK  Name = 
REMARK  3 active torsions:
REMARK  status: ('A' for Active; 'I' for Inactive)
REMARK    1  A    between atoms: C_1  and  O_2
REMARK    2  A    between atoms: O_2  and  C_3
REMARK    3  A    between atoms: C_8  and  O_9
REMARK                            x       y       z     vdW  Elec       q    Type
REMARK                         _______ _______ _______ _____ _____    ______ ____
ROOT
ATOM      1  C   UNL     1      12.922   1.587   6.215  0.00  0.00    +0.000 A 
ATOM      2  C   UNL     1      12.210   1.013   5.163  0.00  0.00    +0.000 A 
ATOM      3  C   UNL     1      10.902   0.556   5.371  0.00  0.00    +0.000 A 
ATOM      4  C   UNL     1      10.304   0.671   6.627  0.00  0.00    +0.000 A 
ATOM      5  C   UNL     1      11.009   1.244   7.683  0.00  0.00    +0.000 A 
ATOM      6  C   UNL     1      12.306   1.694   7.468  0.00  0.00    +0.000 A 
ENDROOT
BRANCH   1   8
ATOM      7  C   UNL     1      14.408   3.227   5.348  0.00  0.00    +0.000 C 
ATOM      8  O   UNL     1      14.204   2.074   6.156  0.00  0.00    +0.000 OA
ENDBRANCH   1   8
BRANCH   6   9
ATOM      9  O   UNL     1      12.979   2.253   8.521  0.00  0.00    +0.000 OA
ATOM     10  H   UNL     1      12.448   3.035   8.768  0.00  0.00    +0.000 HD
ENDBRANCH   6   9
TORSDOF 2
ENDMDL
