MODEL 1
REMARK VINA RESULT:    -3.781      0.000      0.000
REMARK INTER + INTRA:          -4.935
REMARK INTER:                  -5.108
REMARK INTRA:                   0.172
REMARK UNBOUND:                 0.172
REMARK  Name = 
REMARK  10 active torsions:
REMARK  status: ('A' for Active; 'I' for Inactive)
REMARK    1  A    between atoms: C_1  and  C_2
REMARK    2  A    between atoms: C_5  and  N_8
REMARK    3  A    between atoms: N_8  and  C_9
REMARK    4  A    between atoms: N_8  and  C_13
REMARK    5  A    between atoms: C_9  and  C_10
REMARK    6  A    between atoms: C_10  and  C_11
REMARK    7  A    between atoms: C_10  and  O_12
REMARK    8  A    between atoms: C_13  and  C_14
REMARK    9  A    between atoms: C_14  and  C_15
REMARK   10  A    between atoms: C_14  and  O_16
REMARK                            x       y       z     vdW  Elec       q    Type
REMARK                         _______ _______ _______ _____ _____    ______ ____
ROOT
ATOM      1  N   UNL     1       0.859   3.590  11.536  0.00  0.00    +0.000 N 
ENDROOT
BRANCH   1   6
ATOM      2  C   UNL     1       0.763   8.403  14.723  0.00  0.00    +0.000 C 
ATOM      3  C   UNL     1       0.802   7.166  13.879  0.00  0.00    +0.000 A 
ATOM      4  C   UNL     1      -0.180   6.920  12.925  0.00  0.00    +0.000 A 
ATOM      5  C   UNL     1      -0.154   5.744  12.157  0.00  0.00    +0.000 A 
ATOM      6  C   UNL     1       0.829   4.752  12.318  0.00  0.00    +0.000 A 
ATOM      7  C   UNL     1       1.806   5.034  13.290  0.00  0.00    +0.000 A 
ATOM      8  C   UNL     1       1.794   6.207  14.062  0.00  0.00    +0.000 A 
ENDBRANCH   1   6
BRANCH   1   9
ATOM      9  C   UNL     1       0.479   2.285  12.128  0.00  0.00    +0.000 C 
BRANCH   9  10
ATOM     10  C   UNL     1       1.607   1.666  12.989  0.00  0.00    +0.000 C 
ATOM     11  C   UNL     1       1.482   2.100  14.445  0.00  0.00    +0.000 C 
BRANCH  10  12
ATOM     12  O   UNL     1       1.559   0.233  12.947  0.00  0.00    +0.000 OA
ATOM     13  H   UNL     1       2.472  -0.099  12.931  0.00  0.00    +0.000 HD
ENDBRANCH  10  12
ENDBRANCH   9  10
ENDBRANCH   1   9
BRANCH   1  14
ATOM     14  C   UNL     1       1.714   3.501  10.324  0.00  0.00    +0.000 C 
BRANCH  14  15
ATOM     15  C   UNL     1       0.880   3.339   9.031  0.00  0.00    +0.000 C 
ATOM     16  C   UNL     1       1.605   3.831   7.784  0.00  0.00    +0.000 C 
BRANCH  15  17
ATOM     17  O   UNL     1       0.503   1.980   8.814  0.00  0.00    +0.000 OA
ATOM     18  H   UNL     1      -0.398   2.025   8.436  0.00  0.00    +0.000 HD
ENDBRANCH  15  17
ENDBRANCH  14  15
ENDBRANCH   1  14
TORSDOF 7
ENDMDL
MODEL 2
REMARK VINA RESULT:    -3.255      0.789      3.358
REMARK INTER + INTRA:          -4.224
REMARK INTER:                  -4.543
REMARK INTRA:                   0.319
REMARK UNBOUND:                 0.172
REMARK  Name = 
REMARK  10 active torsions:
REMARK  status: ('A' for Active; 'I' for Inactive)
REMARK    1  A    between atoms: C_1  and  C_2
REMARK    2  A    between atoms: C_5  and  N_8
REMARK    3  A    between atoms: N_8  and  C_9
REMARK    4  A    between atoms: N_8  and  C_13
REMARK    5  A    between atoms: C_9  and  C_10
REMARK    6  A    between atoms: C_10  and  C_11
REMARK    7  A    between atoms: C_10  and  O_12
REMARK    8  A    between atoms: C_13  and  C_14
REMARK    9  A    between atoms: C_14  and  C_15
REMARK   10  A    between atoms: C_14  and  O_16
REMARK                            x       y       z     vdW  Elec       q    Type
REMARK                         _______ _______ _______ _____ _____    ______ ____
ROOT
ATOM      1  N   UNL     1       1.033   3.541  11.746  0.00  0.00    +0.000 N 
ENDROOT
BRANCH   1   6
ATOM      2  C   UNL     1       0.740   8.414  14.827  0.00  0.00    +0.000 C 
ATOM      3  C   UNL     1       0.832   7.161  14.012  0.00  0.00    +0.000 A 
ATOM      4  C   UNL     1      -0.063   6.915  12.976  0.00  0.00    +0.000 A 
ATOM      5  C   UNL     1       0.010   5.725  12.235  0.00  0.00    +0.000 A 
ATOM      6  C   UNL     1       0.954   4.717  12.502  0.00  0.00    +0.000 A 
ATOM      7  C   UNL     1       1.843   5.000  13.555  0.00  0.00    +0.000 A 
ATOM      8  C   UNL     1       1.784   6.188  14.303  0.00  0.00    +0.000 A 
ENDBRANCH   1   6
BRANCH   1   9
ATOM      9  C   UNL     1       0.997   3.605  10.265  0.00  0.00    +0.000 C 
BRANCH   9  10
ATOM     10  C   UNL     1       0.406   2.326   9.624  0.00  0.00    +0.000 C 
ATOM     11  C   UNL     1      -1.101   2.455   9.437  0.00  0.00    +0.000 C 
BRANCH  10  12
ATOM     12  O   UNL     1       0.994   2.076   8.339  0.00  0.00    +0.000 OA
ATOM     13  H   UNL     1       1.291   1.151   8.318  0.00  0.00    +0.000 HD
ENDBRANCH  10  12
ENDBRANCH   9  10
ENDBRANCH   1   9
BRANCH   1  14
ATOM     14  C   UNL     1       0.645   2.229  12.324  0.00  0.00    +0.000 C 
BRANCH  14  15
ATOM     15  C   UNL     1       1.706   1.690  13.314  0.00  0.00    +0.000 C 
ATOM     16  C   UNL     1       1.464   2.133  14.752  0.00  0.00    +0.000 C 
BRANCH  15  17
ATOM     17  O   UNL     1       1.768   0.265  13.296  0.00  0.00    +0.000 OA
ATOM     18  H   UNL     1       2.346   0.027  14.049  0.00  0.00    +0.000 HD
ENDBRANCH  15  17
ENDBRANCH  14  15
ENDBRANCH   1  14
TORSDOF 7
ENDMDL
MODEL 3
REMARK VINA RESULT:    -3.160      1.342      1.972
REMARK INTER + INTRA:          -4.096
REMARK INTER:                  -3.830
REMARK INTRA:                  -0.266
REMARK UNBOUND:                 0.172
REMARK  Name = 
REMARK  10 active torsions:
REMARK  status: ('A' for Active; 'I' for Inactive)
REMARK    1  A    between atoms: C_1  and  C_2
REMARK    2  A    between atoms: C_5  and  N_8
REMARK    3  A    between atoms: N_8  and  C_9
REMARK    4  A    between atoms: N_8  and  C_13
REMARK    5  A    between atoms: C_9  and  C_10
REMARK    6  A    between atoms: C_10  and  C_11
REMARK    7  A    between atoms: C_10  and  O_12
REMARK    8  A    between atoms: C_13  and  C_14
REMARK    9  A    between atoms: C_14  and  C_15
REMARK   10  A    between atoms: C_14  and  O_16
REMARK                            x       y       z     vdW  Elec       q    Type
REMARK                         _______ _______ _______ _____ _____    ______ ____
ROOT
ATOM      1  N   UNL     1       0.780   4.222  12.054  0.00  0.00    +0.000 N 
ENDROOT
BRANCH   1   6
ATOM      2  C   UNL     1       1.179   9.270  14.827  0.00  0.00    +0.000 C 
ATOM      3  C   UNL     1       1.057   7.953  14.123  0.00  0.00    +0.000 A 
ATOM      4  C   UNL     1       1.820   6.859  14.516  0.00  0.00    +0.000 A 
ATOM      5  C   UNL     1       1.724   5.636  13.833  0.00  0.00    +0.000 A 
ATOM      6  C   UNL     1       0.886   5.450  12.719  0.00  0.00    +0.000 A 
ATOM      7  C   UNL     1       0.127   6.577  12.350  0.00  0.00    +0.000 A 
ATOM      8  C   UNL     1       0.212   7.805  13.026  0.00  0.00    +0.000 A 
ENDBRANCH   1   6
BRANCH   1   9
ATOM      9  C   UNL     1       1.705   3.113  12.390  0.00  0.00    +0.000 C 
BRANCH   9  10
ATOM     10  C   UNL     1       1.067   2.063  13.332  0.00  0.00    +0.000 C 
ATOM     11  C   UNL     1       1.808   0.734  13.249  0.00  0.00    +0.000 C 
BRANCH  10  12
ATOM     12  O   UNL     1       1.101   2.507  14.695  0.00  0.00    +0.000 OA
ATOM     13  H   UNL     1       1.154   3.477  14.695  0.00  0.00    +0.000 HD
ENDBRANCH  10  12
ENDBRANCH   9  10
ENDBRANCH   1   9
BRANCH   1  14
ATOM     14  C   UNL     1       0.150   4.126  10.712  0.00  0.00    +0.000 C 
BRANCH  14  15
ATOM     15  C   UNL     1       0.552   2.828   9.970  0.00  0.00    +0.000 C 
ATOM     16  C   UNL     1      -0.525   1.751  10.021  0.00  0.00    +0.000 C 
BRANCH  15  17
ATOM     17  O   UNL     1       0.863   3.078   8.600  0.00  0.00    +0.000 OA
ATOM     18  H   UNL     1       1.119   2.207   8.236  0.00  0.00    +0.000 HD
ENDBRANCH  15  17
ENDBRANCH  14  15
ENDBRANCH   1  14
TORSDOF 7
ENDMDL
MODEL 4
REMARK VINA RESULT:    -2.677      2.236      4.507
REMARK INTER + INTRA:          -3.443
REMARK INTER:                  -3.569
REMARK INTRA:                   0.126
REMARK UNBOUND:                 0.172
REMARK  Name = 
REMARK  10 active torsions:
REMARK  status: ('A' for Active; 'I' for Inactive)
REMARK    1  A    between atoms: C_1  and  C_2
REMARK    2  A    between atoms: C_5  and  N_8
REMARK    3  A    between atoms: N_8  and  C_9
REMARK    4  A    between atoms: N_8  and  C_13
REMARK    5  A    between atoms: C_9  and  C_10
REMARK    6  A    between atoms: C_10  and  C_11
REMARK    7  A    between atoms: C_10  and  O_12
REMARK    8  A    between atoms: C_13  and  C_14
REMARK    9  A    between atoms: C_14  and  C_15
REMARK   10  A    between atoms: C_14  and  O_16
REMARK                            x       y       z     vdW  Elec       q    Type
REMARK                         _______ _______ _______ _____ _____    ______ ____
ROOT
ATOM      1  N   UNL     1       0.939   4.018  13.391  0.00  0.00    +0.000 N 
ENDROOT
BRANCH   1   6
ATOM      2  C   UNL     1       1.493   3.346   7.684  0.00  0.00    +0.000 C 
ATOM      3  C   UNL     1       1.360   3.498   9.168  0.00  0.00    +0.000 A 
ATOM      4  C   UNL     1       0.207   3.086   9.828  0.00  0.00    +0.000 A 
ATOM      5  C   UNL     1       0.075   3.259  11.216  0.00  0.00    +0.000 A 
ATOM      6  C   UNL     1       1.068   3.867  12.005  0.00  0.00    +0.000 A 
ATOM      7  C   UNL     1       2.221   4.270  11.305  0.00  0.00    +0.000 A 
ATOM      8  C   UNL     1       2.366   4.101   9.918  0.00  0.00    +0.000 A 
ENDBRANCH   1   6
BRANCH   1   9
ATOM      9  C   UNL     1       0.658   2.839  14.244  0.00  0.00    +0.000 C 
BRANCH   9  10
ATOM     10  C   UNL     1       1.788   1.781  14.197  0.00  0.00    +0.000 C 
ATOM     11  C   UNL     1       1.544   0.772  13.082  0.00  0.00    +0.000 C 
BRANCH  10  12
ATOM     12  O   UNL     1       3.061   2.399  13.967  0.00  0.00    +0.000 OA
ATOM     13  H   UNL     1       3.599   2.289  14.768  0.00  0.00    +0.000 HD
ENDBRANCH  10  12
ENDBRANCH   9  10
ENDBRANCH   1   9
BRANCH   1  14
ATOM     14  C   UNL     1       0.567   5.326  13.990  0.00  0.00    +0.000 C 
BRANCH  14  15
ATOM     15  C   UNL     1       0.545   6.464  12.942  0.00  0.00    +0.000 C 
ATOM     16  C   UNL     1      -0.827   6.672  12.311  0.00  0.00    +0.000 C 
BRANCH  15  17
ATOM     17  O   UNL     1       0.965   7.706  13.504  0.00  0.00    +0.000 OA
ATOM     18  H   UNL     1       0.645   7.687  14.428  0.00  0.00    +0.000 HD
ENDBRANCH  15  17
ENDBRANCH  14  15
ENDBRANCH   1  14
TORSDOF 7
ENDMDL
MODEL 5
REMARK VINA RESULT:    -2.542      2.058      4.889
REMARK INTER + INTRA:          -3.261
REMARK INTER:                  -4.579
REMARK INTRA:                   1.318
REMARK UNBOUND:                 0.172
REMARK  Name = 
REMARK  10 active torsions:
REMARK  status: ('A' for Active; 'I' for Inactive)
REMARK    1  A    between atoms: C_1  and  C_2
REMARK    2  A    between atoms: C_5  and  N_8
REMARK    3  A    between atoms: N_8  and  C_9
REMARK    4  A    between atoms: N_8  and  C_13
REMARK    5  A    between atoms: C_9  and  C_10
REMARK    6  A    between atoms: C_10  and  C_11
REMARK    7  A    between atoms: C_10  and  O_12
REMARK    8  A    between atoms: C_13  and  C_14
REMARK    9  A    between atoms: C_14  and  C_15
REMARK   10  A    between atoms: C_14  and  O_16
REMARK                            x       y       z     vdW  Elec       q    Type
REMARK                         _______ _______ _______ _____ _____    ______ ____
ROOT
ATOM      1  N   UNL     1       1.020   3.616  13.216  0.00  0.00    +0.000 N 
ENDROOT
BRANCH   1   6
ATOM      2  C   UNL     1       1.524   3.867   7.471  0.00  0.00    +0.000 C 
ATOM      3  C   UNL     1       1.401   3.778   8.961  0.00  0.00    +0.000 A 
ATOM      4  C   UNL     1       0.196   3.424   9.558  0.00  0.00    +0.000 A 
ATOM      5  C   UNL     1       0.078   3.371  10.957  0.00  0.00    +0.000 A 
ATOM      6  C   UNL     1       1.139   3.689  11.823  0.00  0.00    +0.000 A 
ATOM      7  C   UNL     1       2.343   4.041  11.185  0.00  0.00    +0.000 A 
ATOM      8  C   UNL     1       2.475   4.096   9.787  0.00  0.00    +0.000 A 
ENDBRANCH   1   6
BRANCH   1   9
ATOM      9  C   UNL     1       0.560   4.797  13.986  0.00  0.00    +0.000 C 
BRANCH   9  10
ATOM     10  C   UNL     1       0.899   6.137  13.289  0.00  0.00    +0.000 C 
ATOM     11  C   UNL     1      -0.344   6.752  12.657  0.00  0.00    +0.000 C 
BRANCH  10  12
ATOM     12  O   UNL     1       1.436   7.083  14.224  0.00  0.00    +0.000 OA
ATOM     13  H   UNL     1       1.818   6.587  14.968  0.00  0.00    +0.000 HD
ENDBRANCH  10  12
ENDBRANCH   9  10
ENDBRANCH   1   9
BRANCH   1  14
ATOM     14  C   UNL     1       1.792   2.620  14.003  0.00  0.00    +0.000 C 
BRANCH  14  15
ATOM     15  C   UNL     1       1.400   1.165  13.649  0.00  0.00    +0.000 C 
ATOM     16  C   UNL     1       1.019   0.986  12.184  0.00  0.00    +0.000 C 
BRANCH  15  17
ATOM     17  O   UNL     1       2.451   0.248  13.947  0.00  0.00    +0.000 OA
ATOM     18  H   UNL     1       2.023  -0.470  14.455  0.00  0.00    +0.000 HD
ENDBRANCH  15  17
ENDBRANCH  14  15
ENDBRANCH   1  14
TORSDOF 7
ENDMDL
MODEL 6
REMARK VINA RESULT:    -2.129     20.858     22.424
REMARK INTER + INTRA:          -2.703
REMARK INTER:                  -2.247
REMARK INTRA:                  -0.456
REMARK UNBOUND:                 0.172
REMARK  Name = 
REMARK  10 active torsions:
REMARK  status: ('A' for Active; 'I' for Inactive)
REMARK    1  A    between atoms: C_1  and  C_2
REMARK    2  A    between atoms: C_5  and  N_8
REMARK    3  A    between atoms: N_8  and  C_9
REMARK    4  A    between atoms: N_8  and  C_13
REMARK    5  A    between atoms: C_9  and  C_10
REMARK    6  A    between atoms: C_10  and  C_11
REMARK    7  A    between atoms: C_10  and  O_12
REMARK    8  A    between atoms: C_13  and  C_14
REMARK    9  A    between atoms: C_14  and  C_15
REMARK   10  A    between atoms: C_14  and  O_16
REMARK                            x       y       z     vdW  Elec       q    Type
REMARK                         _______ _______ _______ _____ _____    ______ ____
ROOT
ATOM      1  N   UNL     1      11.569  21.723   3.386  0.00  0.00    +0.000 N 
ENDROOT
BRANCH   1   6
ATOM      2  C   UNL     1      16.615  19.355   4.889  0.00  0.00    +0.000 C 
ATOM      3  C   UNL     1      15.318  19.986   4.485  0.00  0.00    +0.000 A 
ATOM      4  C   UNL     1      14.749  21.000   5.248  0.00  0.00    +0.000 A 
ATOM      5  C   UNL     1      13.518  21.568   4.881  0.00  0.00    +0.000 A 
ATOM      6  C   UNL     1      12.787  21.140   3.758  0.00  0.00    +0.000 A 
ATOM      7  C   UNL     1      13.393  20.114   3.009  0.00  0.00    +0.000 A 
ATOM      8  C   UNL     1      14.625  19.539   3.363  0.00  0.00    +0.000 A 
ENDBRANCH   1   6
BRANCH   1   9
ATOM      9  C   UNL     1      11.377  22.229   2.006  0.00  0.00    +0.000 C 
BRANCH   9  10
ATOM     10  C   UNL     1       9.974  21.903   1.437  0.00  0.00    +0.000 C 
ATOM     11  C   UNL     1       9.870  22.317  -0.026  0.00  0.00    +0.000 C 
BRANCH  10  12
ATOM     12  O   UNL     1       9.698  20.498   1.522  0.00  0.00    +0.000 OA
ATOM     13  H   UNL     1       9.260  20.227   0.698  0.00  0.00    +0.000 HD
ENDBRANCH  10  12
ENDBRANCH   9  10
ENDBRANCH   1   9
BRANCH   1  14
ATOM     14  C   UNL     1      10.660  22.317   4.400  0.00  0.00    +0.000 C 
BRANCH  14  15
ATOM     15  C   UNL     1       9.548  21.333   4.835  0.00  0.00    +0.000 C 
ATOM     16  C   UNL     1       8.143  21.874   4.600  0.00  0.00    +0.000 C 
BRANCH  15  17
ATOM     17  O   UNL     1       9.658  20.081   4.160  0.00  0.00    +0.000 OA
ATOM     18  H   UNL     1      10.593  20.028   3.876  0.00  0.00    +0.000 HD
ENDBRANCH  15  17
ENDBRANCH  14  15
ENDBRANCH   1  14
TORSDOF 7
ENDMDL
MODEL 7
REMARK VINA RESULT:    -2.116     20.536     21.911
REMARK INTER + INTRA:          -2.686
REMARK INTER:                  -2.346
REMARK INTRA:                  -0.340
REMARK UNBOUND:                 0.172
REMARK  Name = 
REMARK  10 active torsions:
REMARK  status: ('A' for Active; 'I' for Inactive)
REMARK    1  A    between atoms: C_1  and  C_2
REMARK    2  A    between atoms: C_5  and  N_8
REMARK    3  A    between atoms: N_8  and  C_9
REMARK    4  A    between atoms: N_8  and  C_13
REMARK    5  A    between atoms: C_9  and  C_10
REMARK    6  A    between atoms: C_10  and  C_11
REMARK    7  A    between atoms: C_10  and  O_12
REMARK    8  A    between atoms: C_13  and  C_14
REMARK    9  A    between atoms: C_14  and  C_15
REMARK   10  A    between atoms: C_14  and  O_16
REMARK                            x       y       z     vdW  Elec       q    Type
REMARK                         _______ _______ _______ _____ _____    ______ ____
ROOT
ATOM      1  N   UNL     1      12.691  21.320   3.554  0.00  0.00    +0.000 N 
ENDROOT
BRANCH   1   6
ATOM      2  C   UNL     1       7.022  21.319   4.645  0.00  0.00    +0.000 C 
ATOM      3  C   UNL     1       8.489  21.333   4.341  0.00  0.00    +0.000 A 
ATOM      4  C   UNL     1       9.068  20.337   3.562  0.00  0.00    +0.000 A 
ATOM      5  C   UNL     1      10.449  20.339   3.306  0.00  0.00    +0.000 A 
ATOM      6  C   UNL     1      11.318  21.313   3.829  0.00  0.00    +0.000 A 
ATOM      7  C   UNL     1      10.699  22.306   4.611  0.00  0.00    +0.000 A 
ATOM      8  C   UNL     1       9.319  22.317   4.873  0.00  0.00    +0.000 A 
ENDBRANCH   1   6
BRANCH   1   9
ATOM      9  C   UNL     1      13.593  22.237   4.293  0.00  0.00    +0.000 C 
BRANCH   9  10
ATOM     10  C   UNL     1      14.085  21.641   5.635  0.00  0.00    +0.000 C 
ATOM     11  C   UNL     1      13.363  22.284   6.814  0.00  0.00    +0.000 C 
BRANCH  10  12
ATOM     12  O   UNL     1      13.850  20.227   5.688  0.00  0.00    +0.000 OA
ATOM     13  H   UNL     1      12.933  20.064   5.411  0.00  0.00    +0.000 HD
ENDBRANCH  10  12
ENDBRANCH   9  10
ENDBRANCH   1   9
BRANCH   1  14
ATOM     14  C   UNL     1      13.216  20.848   2.247  0.00  0.00    +0.000 C 
BRANCH  14  15
ATOM     15  C   UNL     1      14.071  19.565   2.390  0.00  0.00    +0.000 C 
ATOM     16  C   UNL     1      14.506  18.983   1.050  0.00  0.00    +0.000 C 
BRANCH  15  17
ATOM     17  O   UNL     1      15.241  19.796   3.172  0.00  0.00    +0.000 OA
ATOM     18  H   UNL     1      14.926  20.279   3.963  0.00  0.00    +0.000 HD
ENDBRANCH  15  17
ENDBRANCH  14  15
ENDBRANCH   1  14
TORSDOF 7
ENDMDL
MODEL 8
REMARK VINA RESULT:    -1.804     21.717     22.958
REMARK INTER + INTRA:          -2.264
REMARK INTER:                  -2.698
REMARK INTRA:                   0.433
REMARK UNBOUND:                 0.172
REMARK  Name = 
REMARK  10 active torsions:
REMARK  status: ('A' for Active; 'I' for Inactive)
REMARK    1  A    between atoms: C_1  and  C_2
REMARK    2  A    between atoms: C_5  and  N_8
REMARK    3  A    between atoms: N_8  and  C_9
REMARK    4  A    between atoms: N_8  and  C_13
REMARK    5  A    between atoms: C_9  and  C_10
REMARK    6  A    between atoms: C_10  and  C_11
REMARK    7  A    between atoms: C_10  and  O_12
REMARK    8  A    between atoms: C_13  and  C_14
REMARK    9  A    between atoms: C_14  and  C_15
REMARK   10  A    between atoms: C_14  and  O_16
REMARK                            x       y       z     vdW  Elec       q    Type
REMARK                         _______ _______ _______ _____ _____    ______ ____
ROOT
ATOM      1  N   UNL     1      13.354  21.534   4.326  0.00  0.00    +0.000 N 
ENDROOT
BRANCH   1   6
ATOM      2  C   UNL     1       9.387  22.281   0.198  0.00  0.00    +0.000 C 
ATOM      3  C   UNL     1      10.420  22.064   1.262  0.00  0.00    +0.000 A 
ATOM      4  C   UNL     1      10.054  21.650   2.538  0.00  0.00    +0.000 A 
ATOM      5  C   UNL     1      11.023  21.477   3.540  0.00  0.00    +0.000 A 
ATOM      6  C   UNL     1      12.390  21.727   3.328  0.00  0.00    +0.000 A 
ATOM      7  C   UNL     1      12.724  22.142   2.025  0.00  0.00    +0.000 A 
ATOM      8  C   UNL     1      11.766  22.317   1.014  0.00  0.00    +0.000 A 
ENDBRANCH   1   6
BRANCH   1   9
ATOM      9  C   UNL     1      14.778  21.842   4.054  0.00  0.00    +0.000 C 
BRANCH   9  10
ATOM     10  C   UNL     1      15.614  20.581   3.726  0.00  0.00    +0.000 C 
ATOM     11  C   UNL     1      16.206  19.974   4.993  0.00  0.00    +0.000 C 
BRANCH  10  12
ATOM     12  O   UNL     1      14.807  19.580   3.089  0.00  0.00    +0.000 OA
ATOM     13  H   UNL     1      14.118  19.304   3.717  0.00  0.00    +0.000 HD
ENDBRANCH  10  12
ENDBRANCH   9  10
ENDBRANCH   1   9
BRANCH   1  14
ATOM     14  C   UNL     1      13.123  20.581   5.442  0.00  0.00    +0.000 C 
BRANCH  14  15
ATOM     15  C   UNL     1      12.871  21.306   6.786  0.00  0.00    +0.000 C 
ATOM     16  C   UNL     1      13.957  22.317   7.135  0.00  0.00    +0.000 C 
BRANCH  15  17
ATOM     17  O   UNL     1      11.617  21.986   6.791  0.00  0.00    +0.000 OA
ATOM     18  H   UNL     1      11.023  21.417   7.322  0.00  0.00    +0.000 HD
ENDBRANCH  15  17
ENDBRANCH  14  15
ENDBRANCH   1  14
TORSDOF 7
ENDMDL
MODEL 9
REMARK VINA RESULT:    -1.321     20.309     21.749
REMARK INTER + INTRA:          -1.612
REMARK INTER:                  -1.824
REMARK INTRA:                   0.212
REMARK UNBOUND:                 0.172
REMARK  Name = 
REMARK  10 active torsions:
REMARK  status: ('A' for Active; 'I' for Inactive)
REMARK    1  A    between atoms: C_1  and  C_2
REMARK    2  A    between atoms: C_5  and  N_8
REMARK    3  A    between atoms: N_8  and  C_9
REMARK    4  A    between atoms: N_8  and  C_13
REMARK    5  A    between atoms: C_9  and  C_10
REMARK    6  A    between atoms: C_10  and  C_11
REMARK    7  A    between atoms: C_10  and  O_12
REMARK    8  A    between atoms: C_13  and  C_14
REMARK    9  A    between atoms: C_14  and  C_15
REMARK   10  A    between atoms: C_14  and  O_16
REMARK                            x       y       z     vdW  Elec       q    Type
REMARK                         _______ _______ _______ _____ _____    ______ ____
ROOT
ATOM      1  N   UNL     1      11.063  20.918   3.790  0.00  0.00    +0.000 N 
ENDROOT
BRANCH   1   6
ATOM      2  C   UNL     1      16.494  19.353   4.967  0.00  0.00    +0.000 C 
ATOM      3  C   UNL     1      15.077  19.735   4.665  0.00  0.00    +0.000 A 
ATOM      4  C   UNL     1      14.608  19.759   3.356  0.00  0.00    +0.000 A 
ATOM      5  C   UNL     1      13.288  20.147   3.075  0.00  0.00    +0.000 A 
ATOM      6  C   UNL     1      12.384  20.551   4.075  0.00  0.00    +0.000 A 
ATOM      7  C   UNL     1      12.892  20.513   5.387  0.00  0.00    +0.000 A 
ATOM      8  C   UNL     1      14.210  20.124   5.681  0.00  0.00    +0.000 A 
ENDBRANCH   1   6
BRANCH   1   9
ATOM      9  C   UNL     1      10.761  22.282   3.295  0.00  0.00    +0.000 C 
BRANCH   9  10
ATOM     10  C   UNL     1      10.431  22.312   1.782  0.00  0.00    +0.000 C 
ATOM     11  C   UNL     1      11.705  22.317   0.946  0.00  0.00    +0.000 C 
BRANCH  10  12
ATOM     12  O   UNL     1       9.655  21.167   1.402  0.00  0.00    +0.000 OA
ATOM     13  H   UNL     1      10.010  20.827   0.564  0.00  0.00    +0.000 HD
ENDBRANCH  10  12
ENDBRANCH   9  10
ENDBRANCH   1   9
BRANCH   1  14
ATOM     14  C   UNL     1       9.917  20.215   4.421  0.00  0.00    +0.000 C 
BRANCH  14  15
ATOM     15  C   UNL     1       9.809  18.741   3.960  0.00  0.00    +0.000 C 
ATOM     16  C   UNL     1      10.448  18.491   2.599  0.00  0.00    +0.000 C 
BRANCH  15  17
ATOM     17  O   UNL     1      10.408  17.850   4.899  0.00  0.00    +0.000 OA
ATOM     18  H   UNL     1      10.649  18.412   5.663  0.00  0.00    +0.000 HD
ENDBRANCH  15  17
ENDBRANCH  14  15
ENDBRANCH   1  14
TORSDOF 7
ENDMDL
