MODEL 1
REMARK VINA RESULT:    -4.057      0.000      0.000
REMARK INTER + INTRA:          -4.458
REMARK INTER:                  -4.413
REMARK INTRA:                  -0.046
REMARK UNBOUND:                -0.046
REMARK  Name = 
REMARK  3 active torsions:
REMARK  status: ('A' for Active; 'I' for Inactive)
REMARK    1  A    between atoms: C_1  and  O_2
REMARK    2  A    between atoms: O_2  and  C_3
REMARK    3  A    between atoms: C_8  and  O_9
REMARK                            x       y       z     vdW  Elec       q    Type
REMARK                         _______ _______ _______ _____ _____    ______ ____
ROOT
ATOM      1  C   UNL     1       2.858   8.722   4.742  0.00  0.00    +0.000 A 
ATOM      2  C   UNL     1       3.092   9.254   6.010  0.00  0.00    +0.000 A 
ATOM      3  C   UNL     1       2.016   9.532   6.862  0.00  0.00    +0.000 A 
ATOM      4  C   UNL     1       0.705   9.281   6.451  0.00  0.00    +0.000 A 
ATOM      5  C   UNL     1       0.463   8.750   5.186  0.00  0.00    +0.000 A 
ATOM      6  C   UNL     1       1.536   8.478   4.348  0.00  0.00    +0.000 A 
ENDROOT
BRANCH   1   8
ATOM      7  C   UNL     1       4.967   7.727   4.285  0.00  0.00    +0.000 C 
ATOM      8  O   UNL     1       3.810   8.404   3.807  0.00  0.00    +0.000 OA
ENDBRANCH   1   8
BRANCH   6   9
ATOM      9  O   UNL     1       1.273   7.956   3.109  0.00  0.00    +0.000 OA
ATOM     10  H   UNL     1       0.650   7.223   3.276  0.00  0.00    +0.000 HD
ENDBRANCH   6   9
TORSDOF 2
ENDMDL
MODEL 2
REMARK VINA RESULT:    -4.008      1.584      3.503
REMARK INTER + INTRA:          -4.405
REMARK INTER:                  -4.362
REMARK INTRA:                  -0.043
REMARK UNBOUND:                -0.046
REMARK  Name = 
REMARK  3 active torsions:
REMARK  status: ('A' for Active; 'I' for Inactive)
REMARK    1  A    between atoms: C_1  and  O_2
REMARK    2  A    between atoms: O_2  and  C_3
REMARK    3  A    between atoms: C_8  and  O_9
REMARK                            x       y       z     vdW  Elec       q    Type
REMARK                         _______ _______ _______ _____ _____    ______ ____
ROOT
ATOM      1  C   UNL     1       2.227   8.485   4.550  0.00  0.00    +0.000 A 
ATOM      2  C   UNL     1       2.904   9.533   3.926  0.00  0.00    +0.000 A 
ATOM      3  C   UNL     1       4.291   9.461   3.748  0.00  0.00    +0.000 A 
ATOM      4  C   UNL     1       5.006   8.347   4.192  0.00  0.00    +0.000 A 
ATOM      5  C   UNL     1       4.336   7.296   4.816  0.00  0.00    +0.000 A 
ATOM      6  C   UNL     1       2.960   7.376   4.989  0.00  0.00    +0.000 A 
ENDROOT
BRANCH   1   8
ATOM      7  C   UNL     1       0.382   9.236   5.845  0.00  0.00    +0.000 C 
ATOM      8  O   UNL     1       0.878   8.421   4.790  0.00  0.00    +0.000 OA
ENDBRANCH   1   8
BRANCH   6   9
ATOM      9  O   UNL     1       2.325   6.331   5.605  0.00  0.00    +0.000 OA
ATOM     10  H   UNL     1       1.426   6.663   5.793  0.00  0.00    +0.000 HD
ENDBRANCH   6   9
TORSDOF 2
ENDMDL
MODEL 3
REMARK VINA RESULT:    -3.816     19.754     21.108
REMARK INTER + INTRA:          -4.196
REMARK INTER:                  -4.159
REMARK INTRA:                  -0.037
REMARK UNBOUND:                -0.046
REMARK  Name = 
REMARK  3 active torsions:
REMARK  status: ('A' for Active; 'I' for Inactive)
REMARK    1  A    between atoms: C_1  and  O_2
REMARK    2  A    between atoms: O_2  and  C_3
REMARK    3  A    between atoms: C_8  and  O_9
REMARK                            x       y       z     vdW  Elec       q    Type
REMARK                         _______ _______ _______ _____ _____    ______ ____
ROOT
ATOM      1  C   UNL     1      17.660  -6.154   6.654  0.00  0.00    +0.000 A 
ATOM      2  C   UNL     1      18.431  -5.528   5.675  0.00  0.00    +0.000 A 
ATOM      3  C   UNL     1      18.408  -4.133   5.553  0.00  0.00    +0.000 A 
ATOM      4  C   UNL     1      17.617  -3.360   6.405  0.00  0.00    +0.000 A 
ATOM      5  C   UNL     1      16.844  -3.978   7.386  0.00  0.00    +0.000 A 
ATOM      6  C   UNL     1      16.872  -5.363   7.499  0.00  0.00    +0.000 A 
ENDROOT
BRANCH   1   8
ATOM      7  C   UNL     1      18.447  -8.330   6.114  0.00  0.00    +0.000 C 
ATOM      8  O   UNL     1      17.584  -7.504   6.886  0.00  0.00    +0.000 OA
ENDBRANCH   1   8
BRANCH   6   9
ATOM      9  O   UNL     1      16.104  -5.947   8.471  0.00  0.00    +0.000 OA
ATOM     10  H   UNL     1      16.732  -6.168   9.185  0.00  0.00    +0.000 HD
ENDBRANCH   6   9
TORSDOF 2
ENDMDL
MODEL 4
REMARK VINA RESULT:    -3.739     19.496     20.551
REMARK INTER + INTRA:          -4.112
REMARK INTER:                  -4.074
REMARK INTRA:                  -0.038
REMARK UNBOUND:                -0.046
REMARK  Name = 
REMARK  3 active torsions:
REMARK  status: ('A' for Active; 'I' for Inactive)
REMARK    1  A    between atoms: C_1  and  O_2
REMARK    2  A    between atoms: O_2  and  C_3
REMARK    3  A    between atoms: C_8  and  O_9
REMARK                            x       y       z     vdW  Elec       q    Type
REMARK                         _______ _______ _______ _____ _____    ______ ____
ROOT
ATOM      1  C   UNL     1      17.636  -4.130   6.478  0.00  0.00    +0.000 A 
ATOM      2  C   UNL     1      18.386  -5.036   5.730  0.00  0.00    +0.000 A 
ATOM      3  C   UNL     1      18.438  -6.383   6.109  0.00  0.00    +0.000 A 
ATOM      4  C   UNL     1      17.743  -6.829   7.234  0.00  0.00    +0.000 A 
ATOM      5  C   UNL     1      16.990  -5.930   7.987  0.00  0.00    +0.000 A 
ATOM      6  C   UNL     1      16.945  -4.596   7.604  0.00  0.00    +0.000 A 
ENDROOT
BRANCH   1   8
ATOM      7  C   UNL     1      18.451  -2.206   5.348  0.00  0.00    +0.000 C 
ATOM      8  O   UNL     1      17.496  -2.789   6.226  0.00  0.00    +0.000 OA
ENDBRANCH   1   8
BRANCH   6   9
ATOM      9  O   UNL     1      16.199  -3.731   8.359  0.00  0.00    +0.000 OA
ATOM     10  H   UNL     1      16.631  -2.864   8.244  0.00  0.00    +0.000 HD
ENDBRANCH   6   9
TORSDOF 2
ENDMDL
MODEL 5
REMARK VINA RESULT:    -3.476     20.065     21.365
REMARK INTER + INTRA:          -3.827
REMARK INTER:                  -3.784
REMARK INTRA:                  -0.043
REMARK UNBOUND:                -0.046
REMARK  Name = 
REMARK  3 active torsions:
REMARK  status: ('A' for Active; 'I' for Inactive)
REMARK    1  A    between atoms: C_1  and  O_2
REMARK    2  A    between atoms: O_2  and  C_3
REMARK    3  A    between atoms: C_8  and  O_9
REMARK                            x       y       z     vdW  Elec       q    Type
REMARK                         _______ _______ _______ _____ _____    ______ ____
ROOT
ATOM      1  C   UNL     1      17.934  -6.463   6.660  0.00  0.00    +0.000 A 
ATOM      2  C   UNL     1      17.446  -6.543   7.964  0.00  0.00    +0.000 A 
ATOM      3  C   UNL     1      16.946  -5.397   8.595  0.00  0.00    +0.000 A 
ATOM      4  C   UNL     1      16.933  -4.170   7.929  0.00  0.00    +0.000 A 
ATOM      5  C   UNL     1      17.417  -4.082   6.626  0.00  0.00    +0.000 A 
ATOM      6  C   UNL     1      17.911  -5.224   6.007  0.00  0.00    +0.000 A 
ENDROOT
BRANCH   1   8
ATOM      7  C   UNL     1      17.841  -8.770   6.100  0.00  0.00    +0.000 C 
ATOM      8  O   UNL     1      18.451  -7.497   5.922  0.00  0.00    +0.000 OA
ENDBRANCH   1   8
BRANCH   6   9
ATOM      9  O   UNL     1      18.383  -5.112   4.726  0.00  0.00    +0.000 OA
ATOM     10  H   UNL     1      19.349  -5.016   4.825  0.00  0.00    +0.000 HD
ENDBRANCH   6   9
TORSDOF 2
ENDMDL
MODEL 6
REMARK VINA RESULT:    -3.389      1.914      2.644
REMARK INTER + INTRA:          -3.731
REMARK INTER:                  -3.683
REMARK INTRA:                  -0.049
REMARK UNBOUND:                -0.046
REMARK  Name = 
REMARK  3 active torsions:
REMARK  status: ('A' for Active; 'I' for Inactive)
REMARK    1  A    between atoms: C_1  and  O_2
REMARK    2  A    between atoms: O_2  and  C_3
REMARK    3  A    between atoms: C_8  and  O_9
REMARK                            x       y       z     vdW  Elec       q    Type
REMARK                         _______ _______ _______ _____ _____    ______ ____
ROOT
ATOM      1  C   UNL     1       3.470   9.166   4.858  0.00  0.00    +0.000 A 
ATOM      2  C   UNL     1       3.561   8.973   3.480  0.00  0.00    +0.000 A 
ATOM      3  C   UNL     1       2.426   8.596   2.750  0.00  0.00    +0.000 A 
ATOM      4  C   UNL     1       1.201   8.411   3.393  0.00  0.00    +0.000 A 
ATOM      5  C   UNL     1       1.102   8.602   4.769  0.00  0.00    +0.000 A 
ATOM      6  C   UNL     1       2.233   8.976   5.485  0.00  0.00    +0.000 A 
ENDROOT
BRANCH   1   8
ATOM      7  C   UNL     1       5.698   8.782   5.591  0.00  0.00    +0.000 C 
ATOM      8  O   UNL     1       4.494   9.533   5.694  0.00  0.00    +0.000 OA
ENDBRANCH   1   8
BRANCH   6   9
ATOM      9  O   UNL     1       2.111   9.158   6.836  0.00  0.00    +0.000 OA
ATOM     10  H   UNL     1       2.491   8.350   7.231  0.00  0.00    +0.000 HD
ENDBRANCH   6   9
TORSDOF 2
ENDMDL
MODEL 7
REMARK VINA RESULT:    -3.132     27.353     27.867
REMARK INTER + INTRA:          -3.453
REMARK INTER:                  -3.430
REMARK INTRA:                  -0.023
REMARK UNBOUND:                -0.046
REMARK  Name = 
REMARK  3 active torsions:
REMARK  status: ('A' for Active; 'I' for Inactive)
REMARK    1  A    between atoms: C_1  and  O_2
REMARK    2  A    between atoms: O_2  and  C_3
REMARK    3  A    between atoms: C_8  and  O_9
REMARK                            x       y       z     vdW  Elec       q    Type
REMARK                         _______ _______ _______ _____ _____    ______ ____
ROOT
ATOM      1  C   UNL     1      16.882  -9.722  20.180  0.00  0.00    +0.000 A 
ATOM      2  C   UNL     1      17.224  -9.581  18.836  0.00  0.00    +0.000 A 
ATOM      3  C   UNL     1      16.430 -10.173  17.846  0.00  0.00    +0.000 A 
ATOM      4  C   UNL     1      15.295 -10.908  18.194  0.00  0.00    +0.000 A 
ATOM      5  C   UNL     1      14.947 -11.054  19.535  0.00  0.00    +0.000 A 
ATOM      6  C   UNL     1      15.740 -10.463  20.510  0.00  0.00    +0.000 A 
ENDROOT
BRANCH   1   8
ATOM      7  C   UNL     1      17.341  -7.825  21.535  0.00  0.00    +0.000 C 
ATOM      8  O   UNL     1      17.564  -9.200  21.250  0.00  0.00    +0.000 OA
ENDBRANCH   1   8
BRANCH   6   9
ATOM      9  O   UNL     1      15.378 -10.620  21.822  0.00  0.00    +0.000 OA
ATOM     10  H   UNL     1      15.680  -9.803  22.263  0.00  0.00    +0.000 HD
ENDBRANCH   6   9
TORSDOF 2
ENDMDL
MODEL 8
REMARK VINA RESULT:    -3.058     18.007     19.388
REMARK INTER + INTRA:          -3.372
REMARK INTER:                  -3.334
REMARK INTRA:                  -0.038
REMARK UNBOUND:                -0.046
REMARK  Name = 
REMARK  3 active torsions:
REMARK  status: ('A' for Active; 'I' for Inactive)
REMARK    1  A    between atoms: C_1  and  O_2
REMARK    2  A    between atoms: O_2  and  C_3
REMARK    3  A    between atoms: C_8  and  O_9
REMARK                            x       y       z     vdW  Elec       q    Type
REMARK                         _______ _______ _______ _____ _____    ______ ____
ROOT
ATOM      1  C   UNL     1      16.865   6.623  16.581  0.00  0.00    +0.000 A 
ATOM      2  C   UNL     1      16.738   7.378  17.746  0.00  0.00    +0.000 A 
ATOM      3  C   UNL     1      17.296   6.915  18.944  0.00  0.00    +0.000 A 
ATOM      4  C   UNL     1      17.981   5.699  18.982  0.00  0.00    +0.000 A 
ATOM      5  C   UNL     1      18.112   4.939  17.822  0.00  0.00    +0.000 A 
ATOM      6  C   UNL     1      17.555   5.406  16.638  0.00  0.00    +0.000 A 
ENDROOT
BRANCH   1   8
ATOM      7  C   UNL     1      15.382   7.974  15.306  0.00  0.00    +0.000 C 
ATOM      8  O   UNL     1      16.371   6.952  15.344  0.00  0.00    +0.000 OA
ENDBRANCH   1   8
BRANCH   6   9
ATOM      9  O   UNL     1      17.697   4.642  15.511  0.00  0.00    +0.000 OA
ATOM     10  H   UNL     1      18.659   4.622  15.344  0.00  0.00    +0.000 HD
ENDBRANCH   6   9
TORSDOF 2
ENDMDL
MODEL 9
REMARK VINA RESULT:    -2.027     17.936     18.585
REMARK INTER + INTRA:          -2.250
REMARK INTER:                  -2.211
REMARK INTRA:                  -0.039
REMARK UNBOUND:                -0.046
REMARK  Name = 
REMARK  3 active torsions:
REMARK  status: ('A' for Active; 'I' for Inactive)
REMARK    1  A    between atoms: C_1  and  O_2
REMARK    2  A    between atoms: O_2  and  C_3
REMARK    3  A    between atoms: C_8  and  O_9
REMARK                            x       y       z     vdW  Elec       q    Type
REMARK                         _______ _______ _______ _____ _____    ______ ____
ROOT
ATOM      1  C   UNL     1      16.834   6.989  15.897  0.00  0.00    +0.000 A 
ATOM      2  C   UNL     1      17.011   8.150  15.147  0.00  0.00    +0.000 A 
ATOM      3  C   UNL     1      17.819   8.128  14.003  0.00  0.00    +0.000 A 
ATOM      4  C   UNL     1      18.451   6.949  13.606  0.00  0.00    +0.000 A 
ATOM      5  C   UNL     1      18.279   5.784  14.350  0.00  0.00    +0.000 A 
ATOM      6  C   UNL     1      17.476   5.815  15.484  0.00  0.00    +0.000 A 
ENDROOT
BRANCH   1   8
ATOM      7  C   UNL     1      15.075   7.854  17.240  0.00  0.00    +0.000 C 
ATOM      8  O   UNL     1      16.076   6.865  17.034  0.00  0.00    +0.000 OA
ENDBRANCH   1   8
BRANCH   6   9
ATOM      9  O   UNL     1      17.322   4.658  16.199  0.00  0.00    +0.000 OA
ATOM     10  H   UNL     1      17.482   3.943  15.553  0.00  0.00    +0.000 HD
ENDBRANCH   6   9
TORSDOF 2
ENDMDL
