MODEL 1
REMARK VINA RESULT:    -5.463      0.000      0.000
REMARK INTER + INTRA:          -7.745
REMARK INTER:                  -7.379
REMARK INTRA:                  -0.367
REMARK UNBOUND:                -0.367
REMARK  Name = 
REMARK  10 active torsions:
REMARK  status: ('A' for Active; 'I' for Inactive)
REMARK    1  A    between atoms: C_1  and  C_2
REMARK    2  A    between atoms: C_5  and  N_8
REMARK    3  A    between atoms: N_8  and  C_9
REMARK    4  A    between atoms: N_8  and  C_13
REMARK    5  A    between atoms: C_9  and  C_10
REMARK    6  A    between atoms: C_10  and  C_11
REMARK    7  A    between atoms: C_10  and  O_12
REMARK    8  A    between atoms: C_13  and  C_14
REMARK    9  A    between atoms: C_14  and  C_15
REMARK   10  A    between atoms: C_14  and  O_16
REMARK                            x       y       z     vdW  Elec       q    Type
REMARK                         _______ _______ _______ _____ _____    ______ ____
ROOT
ATOM      1  N   UNL     1      -4.907  12.148  -6.505  0.00  0.00    +0.000 N 
ENDROOT
BRANCH   1   6
ATOM      2  C   UNL     1      -4.037  17.019  -9.480  0.00  0.00    +0.000 C 
ATOM      3  C   UNL     1      -4.282  15.766  -8.696  0.00  0.00    +0.000 A 
ATOM      4  C   UNL     1      -3.613  15.530  -7.499  0.00  0.00    +0.000 A 
ATOM      5  C   UNL     1      -3.824  14.340  -6.784  0.00  0.00    +0.000 A 
ATOM      6  C   UNL     1      -4.687  13.324  -7.234  0.00  0.00    +0.000 A 
ATOM      7  C   UNL     1      -5.348  13.598  -8.445  0.00  0.00    +0.000 A 
ATOM      8  C   UNL     1      -5.148  14.785  -9.169  0.00  0.00    +0.000 A 
ENDBRANCH   1   6
BRANCH   1   9
ATOM      9  C   UNL     1      -5.150  10.869  -7.215  0.00  0.00    +0.000 C 
BRANCH   9  10
ATOM     10  C   UNL     1      -4.311   9.699  -6.644  0.00  0.00    +0.000 C 
ATOM     11  C   UNL     1      -4.536   8.424  -7.449  0.00  0.00    +0.000 C 
BRANCH  10  12
ATOM     12  O   UNL     1      -2.910  10.004  -6.679  0.00  0.00    +0.000 OA
ATOM     13  H   UNL     1      -2.786  10.787  -7.241  0.00  0.00    +0.000 HD
ENDBRANCH  10  12
ENDBRANCH   9  10
ENDBRANCH   1   9
BRANCH   1  14
ATOM     14  C   UNL     1      -5.409  12.192  -5.108  0.00  0.00    +0.000 C 
BRANCH  14  15
ATOM     15  C   UNL     1      -4.259  12.305  -4.078  0.00  0.00    +0.000 C 
ATOM     16  C   UNL     1      -4.721  12.813  -2.717  0.00  0.00    +0.000 C 
BRANCH  15  17
ATOM     17  O   UNL     1      -3.602  11.054  -3.882  0.00  0.00    +0.000 OA
ATOM     18  H   UNL     1      -3.914  10.738  -3.011  0.00  0.00    +0.000 HD
ENDBRANCH  15  17
ENDBRANCH  14  15
ENDBRANCH   1  14
TORSDOF 7
ENDMDL
MODEL 2
REMARK VINA RESULT:    -5.427      1.009      3.367
REMARK INTER + INTRA:          -7.697
REMARK INTER:                  -7.585
REMARK INTRA:                  -0.113
REMARK UNBOUND:                -0.367
REMARK  Name = 
REMARK  10 active torsions:
REMARK  status: ('A' for Active; 'I' for Inactive)
REMARK    1  A    between atoms: C_1  and  C_2
REMARK    2  A    between atoms: C_5  and  N_8
REMARK    3  A    between atoms: N_8  and  C_9
REMARK    4  A    between atoms: N_8  and  C_13
REMARK    5  A    between atoms: C_9  and  C_10
REMARK    6  A    between atoms: C_10  and  C_11
REMARK    7  A    between atoms: C_10  and  O_12
REMARK    8  A    between atoms: C_13  and  C_14
REMARK    9  A    between atoms: C_14  and  C_15
REMARK   10  A    between atoms: C_14  and  O_16
REMARK                            x       y       z     vdW  Elec       q    Type
REMARK                         _______ _______ _______ _____ _____    ______ ____
ROOT
ATOM      1  N   UNL     1      -4.741  11.841  -6.255  0.00  0.00    +0.000 N 
ENDROOT
BRANCH   1   6
ATOM      2  C   UNL     1      -4.379  16.562  -9.559  0.00  0.00    +0.000 C 
ATOM      3  C   UNL     1      -4.453  15.327  -8.713  0.00  0.00    +0.000 A 
ATOM      4  C   UNL     1      -5.245  14.248  -9.092  0.00  0.00    +0.000 A 
ATOM      5  C   UNL     1      -5.334  13.106  -8.280  0.00  0.00    +0.000 A 
ATOM      6  C   UNL     1      -4.663  12.992  -7.050  0.00  0.00    +0.000 A 
ATOM      7  C   UNL     1      -3.870  14.100  -6.700  0.00  0.00    +0.000 A 
ATOM      8  C   UNL     1      -3.770  15.248  -7.503  0.00  0.00    +0.000 A 
ENDBRANCH   1   6
BRANCH   1   9
ATOM      9  C   UNL     1      -5.133  11.948  -4.829  0.00  0.00    +0.000 C 
BRANCH   9  10
ATOM     10  C   UNL     1      -3.915  11.986  -3.873  0.00  0.00    +0.000 C 
ATOM     11  C   UNL     1      -4.251  12.742  -2.593  0.00  0.00    +0.000 C 
BRANCH  10  12
ATOM     12  O   UNL     1      -3.503  10.661  -3.511  0.00  0.00    +0.000 OA
ATOM     13  H   UNL     1      -3.475  10.608  -2.542  0.00  0.00    +0.000 HD
ENDBRANCH  10  12
ENDBRANCH   9  10
ENDBRANCH   1   9
BRANCH   1  14
ATOM     14  C   UNL     1      -3.981  10.613  -6.603  0.00  0.00    +0.000 C 
BRANCH  14  15
ATOM     15  C   UNL     1      -4.863   9.565  -7.324  0.00  0.00    +0.000 C 
ATOM     16  C   UNL     1      -4.439   8.129  -7.043  0.00  0.00    +0.000 C 
BRANCH  15  17
ATOM     17  O   UNL     1      -6.238   9.698  -6.965  0.00  0.00    +0.000 OA
ATOM     18  H   UNL     1      -6.280   9.434  -6.024  0.00  0.00    +0.000 HD
ENDBRANCH  15  17
ENDBRANCH  14  15
ENDBRANCH   1  14
TORSDOF 7
ENDMDL
MODEL 3
REMARK VINA RESULT:    -5.179      1.364      1.903
REMARK INTER + INTRA:          -7.362
REMARK INTER:                  -7.021
REMARK INTRA:                  -0.341
REMARK UNBOUND:                -0.367
REMARK  Name = 
REMARK  10 active torsions:
REMARK  status: ('A' for Active; 'I' for Inactive)
REMARK    1  A    between atoms: C_1  and  C_2
REMARK    2  A    between atoms: C_5  and  N_8
REMARK    3  A    between atoms: N_8  and  C_9
REMARK    4  A    between atoms: N_8  and  C_13
REMARK    5  A    between atoms: C_9  and  C_10
REMARK    6  A    between atoms: C_10  and  C_11
REMARK    7  A    between atoms: C_10  and  O_12
REMARK    8  A    between atoms: C_13  and  C_14
REMARK    9  A    between atoms: C_14  and  C_15
REMARK   10  A    between atoms: C_14  and  O_16
REMARK                            x       y       z     vdW  Elec       q    Type
REMARK                         _______ _______ _______ _____ _____    ______ ____
ROOT
ATOM      1  N   UNL     1      -4.726  12.747  -6.269  0.00  0.00    +0.000 N 
ENDROOT
BRANCH   1   6
ATOM      2  C   UNL     1      -4.773  16.730 -10.448  0.00  0.00    +0.000 C 
ATOM      3  C   UNL     1      -4.741  15.686  -9.374  0.00  0.00    +0.000 A 
ATOM      4  C   UNL     1      -5.487  14.518  -9.492  0.00  0.00    +0.000 A 
ATOM      5  C   UNL     1      -5.476  13.556  -8.469  0.00  0.00    +0.000 A 
ATOM      6  C   UNL     1      -4.747  13.719  -7.277  0.00  0.00    +0.000 A 
ATOM      7  C   UNL     1      -4.003  14.911  -7.194  0.00  0.00    +0.000 A 
ATOM      8  C   UNL     1      -4.003  15.880  -8.210  0.00  0.00    +0.000 A 
ENDBRANCH   1   6
BRANCH   1   9
ATOM      9  C   UNL     1      -5.734  11.660  -6.264  0.00  0.00    +0.000 C 
BRANCH   9  10
ATOM     10  C   UNL     1      -5.307  10.442  -7.120  0.00  0.00    +0.000 C 
ATOM     11  C   UNL     1      -3.879  10.020  -6.794  0.00  0.00    +0.000 C 
BRANCH  10  12
ATOM     12  O   UNL     1      -6.167   9.319  -6.882  0.00  0.00    +0.000 OA
ATOM     13  H   UNL     1      -6.192   9.155  -5.925  0.00  0.00    +0.000 HD
ENDBRANCH  10  12
ENDBRANCH   9  10
ENDBRANCH   1   9
BRANCH   1  14
ATOM     14  C   UNL     1      -4.093  13.018  -4.953  0.00  0.00    +0.000 C 
BRANCH  14  15
ATOM     15  C   UNL     1      -4.595  12.051  -3.854  0.00  0.00    +0.000 C 
ATOM     16  C   UNL     1      -3.469  11.289  -3.165  0.00  0.00    +0.000 C 
BRANCH  15  17
ATOM     17  O   UNL     1      -5.342  12.736  -2.850  0.00  0.00    +0.000 OA
ATOM     18  H   UNL     1      -5.356  12.127  -2.085  0.00  0.00    +0.000 HD
ENDBRANCH  15  17
ENDBRANCH  14  15
ENDBRANCH   1  14
TORSDOF 7
ENDMDL
MODEL 4
REMARK VINA RESULT:    -5.082      1.331      3.178
REMARK INTER + INTRA:          -7.231
REMARK INTER:                  -6.719
REMARK INTRA:                  -0.513
REMARK UNBOUND:                -0.367
REMARK  Name = 
REMARK  10 active torsions:
REMARK  status: ('A' for Active; 'I' for Inactive)
REMARK    1  A    between atoms: C_1  and  C_2
REMARK    2  A    between atoms: C_5  and  N_8
REMARK    3  A    between atoms: N_8  and  C_9
REMARK    4  A    between atoms: N_8  and  C_13
REMARK    5  A    between atoms: C_9  and  C_10
REMARK    6  A    between atoms: C_10  and  C_11
REMARK    7  A    between atoms: C_10  and  O_12
REMARK    8  A    between atoms: C_13  and  C_14
REMARK    9  A    between atoms: C_14  and  C_15
REMARK   10  A    between atoms: C_14  and  O_16
REMARK                            x       y       z     vdW  Elec       q    Type
REMARK                         _______ _______ _______ _____ _____    ______ ____
ROOT
ATOM      1  N   UNL     1      -4.660  12.924  -6.275  0.00  0.00    +0.000 N 
ENDROOT
BRANCH   1   6
ATOM      2  C   UNL     1      -4.764  16.770 -10.579  0.00  0.00    +0.000 C 
ATOM      3  C   UNL     1      -4.756  15.784  -9.451  0.00  0.00    +0.000 A 
ATOM      4  C   UNL     1      -3.961  15.989  -8.329  0.00  0.00    +0.000 A 
ATOM      5  C   UNL     1      -3.935  15.046  -7.288  0.00  0.00    +0.000 A 
ATOM      6  C   UNL     1      -4.676  13.851  -7.325  0.00  0.00    +0.000 A 
ATOM      7  C   UNL     1      -5.469  13.678  -8.474  0.00  0.00    +0.000 A 
ATOM      8  C   UNL     1      -5.506  14.613  -9.521  0.00  0.00    +0.000 A 
ENDBRANCH   1   6
BRANCH   1   9
ATOM      9  C   UNL     1      -4.800  13.387  -4.873  0.00  0.00    +0.000 C 
BRANCH   9  10
ATOM     10  C   UNL     1      -4.851  12.219  -3.858  0.00  0.00    +0.000 C 
ATOM     11  C   UNL     1      -4.365  12.668  -2.485  0.00  0.00    +0.000 C 
BRANCH  10  12
ATOM     12  O   UNL     1      -6.188  11.720  -3.714  0.00  0.00    +0.000 OA
ATOM     13  H   UNL     1      -6.533  11.524  -4.601  0.00  0.00    +0.000 HD
ENDBRANCH  10  12
ENDBRANCH   9  10
ENDBRANCH   1   9
BRANCH   1  14
ATOM     14  C   UNL     1      -4.017  11.595  -6.432  0.00  0.00    +0.000 C 
BRANCH  14  15
ATOM     15  C   UNL     1      -4.949  10.573  -7.126  0.00  0.00    +0.000 C 
ATOM     16  C   UNL     1      -4.317   9.195  -7.284  0.00  0.00    +0.000 C 
BRANCH  15  17
ATOM     17  O   UNL     1      -6.179  10.417  -6.421  0.00  0.00    +0.000 OA
ATOM     18  H   UNL     1      -5.926  10.048  -5.550  0.00  0.00    +0.000 HD
ENDBRANCH  15  17
ENDBRANCH  14  15
ENDBRANCH   1  14
TORSDOF 7
ENDMDL
MODEL 5
REMARK VINA RESULT:    -4.963      3.690      5.835
REMARK INTER + INTRA:          -7.071
REMARK INTER:                  -6.618
REMARK INTRA:                  -0.453
REMARK UNBOUND:                -0.367
REMARK  Name = 
REMARK  10 active torsions:
REMARK  status: ('A' for Active; 'I' for Inactive)
REMARK    1  A    between atoms: C_1  and  C_2
REMARK    2  A    between atoms: C_5  and  N_8
REMARK    3  A    between atoms: N_8  and  C_9
REMARK    4  A    between atoms: N_8  and  C_13
REMARK    5  A    between atoms: C_9  and  C_10
REMARK    6  A    between atoms: C_10  and  C_11
REMARK    7  A    between atoms: C_10  and  O_12
REMARK    8  A    between atoms: C_13  and  C_14
REMARK    9  A    between atoms: C_14  and  C_15
REMARK   10  A    between atoms: C_14  and  O_16
REMARK                            x       y       z     vdW  Elec       q    Type
REMARK                         _______ _______ _______ _____ _____    ______ ____
ROOT
ATOM      1  N   UNL     1      -4.602  13.138  -2.287  0.00  0.00    +0.000 N 
ENDROOT
BRANCH   1   6
ATOM      2  C   UNL     1      -6.305  10.923  -7.339  0.00  0.00    +0.000 C 
ATOM      3  C   UNL     1      -5.866  11.521  -6.038  0.00  0.00    +0.000 A 
ATOM      4  C   UNL     1      -4.519  11.749  -5.775  0.00  0.00    +0.000 A 
ATOM      5  C   UNL     1      -4.111  12.282  -4.541  0.00  0.00    +0.000 A 
ATOM      6  C   UNL     1      -5.014  12.589  -3.508  0.00  0.00    +0.000 A 
ATOM      7  C   UNL     1      -6.367  12.347  -3.809  0.00  0.00    +0.000 A 
ATOM      8  C   UNL     1      -6.789  11.817  -5.040  0.00  0.00    +0.000 A 
ENDBRANCH   1   6
BRANCH   1   9
ATOM      9  C   UNL     1      -5.340  14.281  -1.699  0.00  0.00    +0.000 C 
BRANCH   9  10
ATOM     10  C   UNL     1      -5.625  14.098  -0.188  0.00  0.00    +0.000 C 
ATOM     11  C   UNL     1      -5.568  15.434   0.543  0.00  0.00    +0.000 C 
BRANCH  10  12
ATOM     12  O   UNL     1      -6.924  13.529   0.026  0.00  0.00    +0.000 OA
ATOM     13  H   UNL     1      -7.042  12.802  -0.607  0.00  0.00    +0.000 HD
ENDBRANCH  10  12
ENDBRANCH   9  10
ENDBRANCH   1   9
BRANCH   1  14
ATOM     14  C   UNL     1      -3.204  12.985  -1.809  0.00  0.00    +0.000 C 
BRANCH  14  15
ATOM     15  C   UNL     1      -2.459  14.340  -1.738  0.00  0.00    +0.000 C 
ATOM     16  C   UNL     1      -1.152  14.266  -0.957  0.00  0.00    +0.000 C 
BRANCH  15  17
ATOM     17  O   UNL     1      -2.169  14.851  -3.038  0.00  0.00    +0.000 OA
ATOM     18  H   UNL     1      -1.746  15.719  -2.879  0.00  0.00    +0.000 HD
ENDBRANCH  15  17
ENDBRANCH  14  15
ENDBRANCH   1  14
TORSDOF 7
ENDMDL
MODEL 6
REMARK VINA RESULT:    -4.962      3.478      5.901
REMARK INTER + INTRA:          -7.069
REMARK INTER:                  -6.628
REMARK INTRA:                  -0.441
REMARK UNBOUND:                -0.367
REMARK  Name = 
REMARK  10 active torsions:
REMARK  status: ('A' for Active; 'I' for Inactive)
REMARK    1  A    between atoms: C_1  and  C_2
REMARK    2  A    between atoms: C_5  and  N_8
REMARK    3  A    between atoms: N_8  and  C_9
REMARK    4  A    between atoms: N_8  and  C_13
REMARK    5  A    between atoms: C_9  and  C_10
REMARK    6  A    between atoms: C_10  and  C_11
REMARK    7  A    between atoms: C_10  and  O_12
REMARK    8  A    between atoms: C_13  and  C_14
REMARK    9  A    between atoms: C_14  and  C_15
REMARK   10  A    between atoms: C_14  and  O_16
REMARK                            x       y       z     vdW  Elec       q    Type
REMARK                         _______ _______ _______ _____ _____    ______ ____
ROOT
ATOM      1  N   UNL     1      -3.707  14.425  -2.041  0.00  0.00    +0.000 N 
ENDROOT
BRANCH   1   6
ATOM      2  C   UNL     1      -4.263  11.227  -6.815  0.00  0.00    +0.000 C 
ATOM      3  C   UNL     1      -4.094  12.055  -5.578  0.00  0.00    +0.000 A 
ATOM      4  C   UNL     1      -4.069  11.463  -4.320  0.00  0.00    +0.000 A 
ATOM      5  C   UNL     1      -3.940  12.247  -3.162  0.00  0.00    +0.000 A 
ATOM      6  C   UNL     1      -3.855  13.651  -3.198  0.00  0.00    +0.000 A 
ATOM      7  C   UNL     1      -3.881  14.215  -4.487  0.00  0.00    +0.000 A 
ATOM      8  C   UNL     1      -4.007  13.443  -5.653  0.00  0.00    +0.000 A 
ENDBRANCH   1   6
BRANCH   1   9
ATOM      9  C   UNL     1      -2.595  14.150  -1.099  0.00  0.00    +0.000 C 
BRANCH   9  10
ATOM     10  C   UNL     1      -1.293  14.900  -1.472  0.00  0.00    +0.000 C 
ATOM     11  C   UNL     1      -0.935  15.932  -0.409  0.00  0.00    +0.000 C 
BRANCH  10  12
ATOM     12  O   UNL     1      -0.192  13.989  -1.596  0.00  0.00    +0.000 OA
ATOM     13  H   UNL     1       0.467  14.391  -2.185  0.00  0.00    +0.000 HD
ENDBRANCH  10  12
ENDBRANCH   9  10
ENDBRANCH   1   9
BRANCH   1  14
ATOM     14  C   UNL     1      -4.860  15.153  -1.450  0.00  0.00    +0.000 C 
BRANCH  14  15
ATOM     15  C   UNL     1      -5.401  14.457  -0.179  0.00  0.00    +0.000 C 
ATOM     16  C   UNL     1      -6.402  15.309   0.592  0.00  0.00    +0.000 C 
BRANCH  15  17
ATOM     17  O   UNL     1      -6.026  13.211  -0.485  0.00  0.00    +0.000 OA
ATOM     18  H   UNL     1      -5.348  12.702  -0.973  0.00  0.00    +0.000 HD
ENDBRANCH  15  17
ENDBRANCH  14  15
ENDBRANCH   1  14
TORSDOF 7
ENDMDL
MODEL 7
REMARK VINA RESULT:    -4.644      4.139      7.054
REMARK INTER + INTRA:          -6.640
REMARK INTER:                  -6.075
REMARK INTRA:                  -0.565
REMARK UNBOUND:                -0.367
REMARK  Name = 
REMARK  10 active torsions:
REMARK  status: ('A' for Active; 'I' for Inactive)
REMARK    1  A    between atoms: C_1  and  C_2
REMARK    2  A    between atoms: C_5  and  N_8
REMARK    3  A    between atoms: N_8  and  C_9
REMARK    4  A    between atoms: N_8  and  C_13
REMARK    5  A    between atoms: C_9  and  C_10
REMARK    6  A    between atoms: C_10  and  C_11
REMARK    7  A    between atoms: C_10  and  O_12
REMARK    8  A    between atoms: C_13  and  C_14
REMARK    9  A    between atoms: C_14  and  C_15
REMARK   10  A    between atoms: C_14  and  O_16
REMARK                            x       y       z     vdW  Elec       q    Type
REMARK                         _______ _______ _______ _____ _____    ______ ____
ROOT
ATOM      1  N   UNL     1      -4.249  14.336  -2.202  0.00  0.00    +0.000 N 
ENDROOT
BRANCH   1   6
ATOM      2  C   UNL     1      -0.122  17.611   0.157  0.00  0.00    +0.000 C 
ATOM      3  C   UNL     1      -1.206  16.763  -0.434  0.00  0.00    +0.000 A 
ATOM      4  C   UNL     1      -1.172  15.378  -0.320  0.00  0.00    +0.000 A 
ATOM      5  C   UNL     1      -2.175  14.586  -0.902  0.00  0.00    +0.000 A 
ATOM      6  C   UNL     1      -3.241  15.130  -1.641  0.00  0.00    +0.000 A 
ATOM      7  C   UNL     1      -3.245  16.534  -1.734  0.00  0.00    +0.000 A 
ATOM      8  C   UNL     1      -2.249  17.338  -1.155  0.00  0.00    +0.000 A 
ENDBRANCH   1   6
BRANCH   1   9
ATOM      9  C   UNL     1      -5.660  14.520  -1.784  0.00  0.00    +0.000 C 
BRANCH   9  10
ATOM     10  C   UNL     1      -5.849  14.420  -0.251  0.00  0.00    +0.000 C 
ATOM     11  C   UNL     1      -6.386  15.728   0.319  0.00  0.00    +0.000 C 
BRANCH  10  12
ATOM     12  O   UNL     1      -6.773  13.376   0.087  0.00  0.00    +0.000 OA
ATOM     13  H   UNL     1      -6.523  12.580  -0.411  0.00  0.00    +0.000 HD
ENDBRANCH  10  12
ENDBRANCH   9  10
ENDBRANCH   1   9
BRANCH   1  14
ATOM     14  C   UNL     1      -3.942  13.010  -2.796  0.00  0.00    +0.000 C 
BRANCH  14  15
ATOM     15  C   UNL     1      -4.249  12.963  -4.312  0.00  0.00    +0.000 C 
ATOM     16  C   UNL     1      -3.790  14.212  -5.056  0.00  0.00    +0.000 C 
BRANCH  15  17
ATOM     17  O   UNL     1      -3.647  11.831  -4.938  0.00  0.00    +0.000 OA
ATOM     18  H   UNL     1      -3.226  11.333  -4.208  0.00  0.00    +0.000 HD
ENDBRANCH  15  17
ENDBRANCH  14  15
ENDBRANCH   1  14
TORSDOF 7
ENDMDL
MODEL 8
REMARK VINA RESULT:    -4.428      2.091      5.609
REMARK INTER + INTRA:          -6.347
REMARK INTER:                  -5.902
REMARK INTRA:                  -0.445
REMARK UNBOUND:                -0.367
REMARK  Name = 
REMARK  10 active torsions:
REMARK  status: ('A' for Active; 'I' for Inactive)
REMARK    1  A    between atoms: C_1  and  C_2
REMARK    2  A    between atoms: C_5  and  N_8
REMARK    3  A    between atoms: N_8  and  C_9
REMARK    4  A    between atoms: N_8  and  C_13
REMARK    5  A    between atoms: C_9  and  C_10
REMARK    6  A    between atoms: C_10  and  C_11
REMARK    7  A    between atoms: C_10  and  O_12
REMARK    8  A    between atoms: C_13  and  C_14
REMARK    9  A    between atoms: C_14  and  C_15
REMARK   10  A    between atoms: C_14  and  O_16
REMARK                            x       y       z     vdW  Elec       q    Type
REMARK                         _______ _______ _______ _____ _____    ______ ____
ROOT
ATOM      1  N   UNL     1      -4.285  12.857  -4.948  0.00  0.00    +0.000 N 
ENDROOT
BRANCH   1   6
ATOM      2  C   UNL     1      -6.488  14.431   0.150  0.00  0.00    +0.000 C 
ATOM      3  C   UNL     1      -5.911  14.046  -1.178  0.00  0.00    +0.000 A 
ATOM      4  C   UNL     1      -6.714  13.970  -2.310  0.00  0.00    +0.000 A 
ATOM      5  C   UNL     1      -6.174  13.580  -3.547  0.00  0.00    +0.000 A 
ATOM      6  C   UNL     1      -4.822  13.226  -3.709  0.00  0.00    +0.000 A 
ATOM      7  C   UNL     1      -4.039  13.317  -2.543  0.00  0.00    +0.000 A 
ATOM      8  C   UNL     1      -4.567  13.708  -1.301  0.00  0.00    +0.000 A 
ENDBRANCH   1   6
BRANCH   1   9
ATOM      9  C   UNL     1      -4.449  13.745  -6.124  0.00  0.00    +0.000 C 
BRANCH   9  10
ATOM     10  C   UNL     1      -3.120  14.402  -6.570  0.00  0.00    +0.000 C 
ATOM     11  C   UNL     1      -3.381  15.671  -7.372  0.00  0.00    +0.000 C 
BRANCH  10  12
ATOM     12  O   UNL     1      -2.312  14.750  -5.437  0.00  0.00    +0.000 OA
ATOM     13  H   UNL     1      -1.648  15.397  -5.728  0.00  0.00    +0.000 HD
ENDBRANCH  10  12
ENDBRANCH   9  10
ENDBRANCH   1   9
BRANCH   1  14
ATOM     14  C   UNL     1      -4.012  11.433  -5.275  0.00  0.00    +0.000 C 
BRANCH  14  15
ATOM     15  C   UNL     1      -4.777  10.966  -6.537  0.00  0.00    +0.000 C 
ATOM     16  C   UNL     1      -4.146   9.750  -7.205  0.00  0.00    +0.000 C 
BRANCH  15  17
ATOM     17  O   UNL     1      -6.137  10.652  -6.242  0.00  0.00    +0.000 OA
ATOM     18  H   UNL     1      -6.381  11.249  -5.507  0.00  0.00    +0.000 HD
ENDBRANCH  15  17
ENDBRANCH  14  15
ENDBRANCH   1  14
TORSDOF 7
ENDMDL
