MODEL 1
REMARK VINA RESULT:    -3.828      0.000      0.000
REMARK INTER + INTRA:          -5.712
REMARK INTER:                  -5.171
REMARK INTRA:                  -0.541
REMARK UNBOUND:                -0.541
REMARK  Name = 
REMARK  10 active torsions:
REMARK  status: ('A' for Active; 'I' for Inactive)
REMARK    1  A    between atoms: C_1  and  C_2
REMARK    2  A    between atoms: C_5  and  N_8
REMARK    3  A    between atoms: N_8  and  C_9
REMARK    4  A    between atoms: N_8  and  C_13
REMARK    5  A    between atoms: C_9  and  C_10
REMARK    6  A    between atoms: C_10  and  C_11
REMARK    7  A    between atoms: C_10  and  O_12
REMARK    8  A    between atoms: C_13  and  C_14
REMARK    9  A    between atoms: C_14  and  C_15
REMARK   10  A    between atoms: C_14  and  O_16
REMARK                            x       y       z     vdW  Elec       q    Type
REMARK                         _______ _______ _______ _____ _____    ______ ____
ROOT
ATOM      1  N   UNL     1      15.485 -11.337  19.166  0.00  0.00    +0.000 N 
ENDROOT
BRANCH   1   6
ATOM      2  C   UNL     1      11.081 -10.500  15.530  0.00  0.00    +0.000 C 
ATOM      3  C   UNL     1      12.207 -10.725  16.491  0.00  0.00    +0.000 A 
ATOM      4  C   UNL     1      12.641  -9.708  17.334  0.00  0.00    +0.000 A 
ATOM      5  C   UNL     1      13.718  -9.916  18.212  0.00  0.00    +0.000 A 
ATOM      6  C   UNL     1      14.425 -11.130  18.275  0.00  0.00    +0.000 A 
ATOM      7  C   UNL     1      13.958 -12.137  17.410  0.00  0.00    +0.000 A 
ATOM      8  C   UNL     1      12.881 -11.943  16.529  0.00  0.00    +0.000 A 
ENDBRANCH   1   6
BRANCH   1   9
ATOM      9  C   UNL     1      15.404 -10.816  20.552  0.00  0.00    +0.000 C 
BRANCH   9  10
ATOM     10  C   UNL     1      16.591 -11.271  21.435  0.00  0.00    +0.000 C 
ATOM     11  C   UNL     1      17.217 -10.085  22.160  0.00  0.00    +0.000 C 
BRANCH  10  12
ATOM     12  O   UNL     1      16.165 -12.220  22.422  0.00  0.00    +0.000 OA
ATOM     13  H   UNL     1      16.862 -12.290  23.095  0.00  0.00    +0.000 HD
ENDBRANCH  10  12
ENDBRANCH   9  10
ENDBRANCH   1   9
BRANCH   1  14
ATOM     14  C   UNL     1      16.864 -11.592  18.675  0.00  0.00    +0.000 C 
BRANCH  14  15
ATOM     15  C   UNL     1      17.382 -10.450  17.769  0.00  0.00    +0.000 C 
ATOM     16  C   UNL     1      17.863  -9.234  18.552  0.00  0.00    +0.000 C 
BRANCH  15  17
ATOM     17  O   UNL     1      18.451 -10.887  16.930  0.00  0.00    +0.000 OA
ATOM     18  H   UNL     1      18.355 -10.366  16.107  0.00  0.00    +0.000 HD
ENDBRANCH  15  17
ENDBRANCH  14  15
ENDBRANCH   1  14
TORSDOF 7
ENDMDL
MODEL 2
REMARK VINA RESULT:    -3.700     16.802     18.493
REMARK INTER + INTRA:          -5.540
REMARK INTER:                  -4.977
REMARK INTRA:                  -0.562
REMARK UNBOUND:                -0.541
REMARK  Name = 
REMARK  10 active torsions:
REMARK  status: ('A' for Active; 'I' for Inactive)
REMARK    1  A    between atoms: C_1  and  C_2
REMARK    2  A    between atoms: C_5  and  N_8
REMARK    3  A    between atoms: N_8  and  C_9
REMARK    4  A    between atoms: N_8  and  C_13
REMARK    5  A    between atoms: C_9  and  C_10
REMARK    6  A    between atoms: C_10  and  C_11
REMARK    7  A    between atoms: C_10  and  O_12
REMARK    8  A    between atoms: C_13  and  C_14
REMARK    9  A    between atoms: C_14  and  C_15
REMARK   10  A    between atoms: C_14  and  O_16
REMARK                            x       y       z     vdW  Elec       q    Type
REMARK                         _______ _______ _______ _____ _____    ______ ____
ROOT
ATOM      1  N   UNL     1      17.193   7.272  18.226  0.00  0.00    +0.000 N 
ENDROOT
BRANCH   1   6
ATOM      2  C   UNL     1      15.339   7.261  23.693  0.00  0.00    +0.000 C 
ATOM      3  C   UNL     1      15.799   7.253  22.267  0.00  0.00    +0.000 A 
ATOM      4  C   UNL     1      16.533   6.187  21.759  0.00  0.00    +0.000 A 
ATOM      5  C   UNL     1      16.987   6.199  20.430  0.00  0.00    +0.000 A 
ATOM      6  C   UNL     1      16.754   7.275  19.556  0.00  0.00    +0.000 A 
ATOM      7  C   UNL     1      16.007   8.335  20.102  0.00  0.00    +0.000 A 
ATOM      8  C   UNL     1      15.545   8.335  21.429  0.00  0.00    +0.000 A 
ENDBRANCH   1   6
BRANCH   1   9
ATOM      9  C   UNL     1      18.275   6.352  17.802  0.00  0.00    +0.000 C 
BRANCH   9  10
ATOM     10  C   UNL     1      17.744   5.100  17.061  0.00  0.00    +0.000 C 
ATOM     11  C   UNL     1      18.264   5.053  15.630  0.00  0.00    +0.000 C 
BRANCH  10  12
ATOM     12  O   UNL     1      18.155   3.896  17.724  0.00  0.00    +0.000 OA
ATOM     13  H   UNL     1      17.362   3.363  17.900  0.00  0.00    +0.000 HD
ENDBRANCH  10  12
ENDBRANCH   9  10
ENDBRANCH   1   9
BRANCH   1  14
ATOM     14  C   UNL     1      17.003   8.457  17.350  0.00  0.00    +0.000 C 
BRANCH  14  15
ATOM     15  C   UNL     1      15.809   8.283  16.381  0.00  0.00    +0.000 C 
ATOM     16  C   UNL     1      16.237   8.067  14.935  0.00  0.00    +0.000 C 
BRANCH  15  17
ATOM     17  O   UNL     1      14.976   7.190  16.763  0.00  0.00    +0.000 OA
ATOM     18  H   UNL     1      14.978   7.200  17.742  0.00  0.00    +0.000 HD
ENDBRANCH  15  17
ENDBRANCH  14  15
ENDBRANCH   1  14
TORSDOF 7
ENDMDL
MODEL 3
REMARK VINA RESULT:    -3.610     16.891     18.593
REMARK INTER + INTRA:          -5.418
REMARK INTER:                  -4.855
REMARK INTRA:                  -0.562
REMARK UNBOUND:                -0.541
REMARK  Name = 
REMARK  10 active torsions:
REMARK  status: ('A' for Active; 'I' for Inactive)
REMARK    1  A    between atoms: C_1  and  C_2
REMARK    2  A    between atoms: C_5  and  N_8
REMARK    3  A    between atoms: N_8  and  C_9
REMARK    4  A    between atoms: N_8  and  C_13
REMARK    5  A    between atoms: C_9  and  C_10
REMARK    6  A    between atoms: C_10  and  C_11
REMARK    7  A    between atoms: C_10  and  O_12
REMARK    8  A    between atoms: C_13  and  C_14
REMARK    9  A    between atoms: C_14  and  C_15
REMARK   10  A    between atoms: C_14  and  O_16
REMARK                            x       y       z     vdW  Elec       q    Type
REMARK                         _______ _______ _______ _____ _____    ______ ____
ROOT
ATOM      1  N   UNL     1      16.739   7.115  18.234  0.00  0.00    +0.000 N 
ENDROOT
BRANCH   1   6
ATOM      2  C   UNL     1      15.584   7.243  23.889  0.00  0.00    +0.000 C 
ATOM      3  C   UNL     1      15.862   7.200  22.418  0.00  0.00    +0.000 A 
ATOM      4  C   UNL     1      16.510   6.111  21.845  0.00  0.00    +0.000 A 
ATOM      5  C   UNL     1      16.794   6.089  20.470  0.00  0.00    +0.000 A 
ATOM      6  C   UNL     1      16.470   7.152  19.608  0.00  0.00    +0.000 A 
ATOM      7  C   UNL     1      15.814   8.236  20.221  0.00  0.00    +0.000 A 
ATOM      8  C   UNL     1      15.522   8.269  21.595  0.00  0.00    +0.000 A 
ENDBRANCH   1   6
BRANCH   1   9
ATOM      9  C   UNL     1      15.628   7.214  17.257  0.00  0.00    +0.000 C 
BRANCH   9  10
ATOM     10  C   UNL     1      15.744   8.456  16.340  0.00  0.00    +0.000 C 
ATOM     11  C   UNL     1      15.882   8.044  14.879  0.00  0.00    +0.000 C 
BRANCH  10  12
ATOM     12  O   UNL     1      14.586   9.293  16.458  0.00  0.00    +0.000 OA
ATOM     13  H   UNL     1      14.095   9.018  17.251  0.00  0.00    +0.000 HD
ENDBRANCH  10  12
ENDBRANCH   9  10
ENDBRANCH   1   9
BRANCH   1  14
ATOM     14  C   UNL     1      17.978   6.486  17.710  0.00  0.00    +0.000 C 
BRANCH  14  15
ATOM     15  C   UNL     1      17.690   5.163  16.962  0.00  0.00    +0.000 C 
ATOM     16  C   UNL     1      18.217   5.155  15.532  0.00  0.00    +0.000 C 
BRANCH  15  17
ATOM     17  O   UNL     1      18.248   4.040  17.643  0.00  0.00    +0.000 OA
ATOM     18  H   UNL     1      19.034   4.391  18.109  0.00  0.00    +0.000 HD
ENDBRANCH  15  17
ENDBRANCH  14  15
ENDBRANCH   1  14
TORSDOF 7
ENDMDL
MODEL 4
REMARK VINA RESULT:    -3.574      1.831      5.233
REMARK INTER + INTRA:          -5.369
REMARK INTER:                  -5.090
REMARK INTRA:                  -0.279
REMARK UNBOUND:                -0.541
REMARK  Name = 
REMARK  10 active torsions:
REMARK  status: ('A' for Active; 'I' for Inactive)
REMARK    1  A    between atoms: C_1  and  C_2
REMARK    2  A    between atoms: C_5  and  N_8
REMARK    3  A    between atoms: N_8  and  C_9
REMARK    4  A    between atoms: N_8  and  C_13
REMARK    5  A    between atoms: C_9  and  C_10
REMARK    6  A    between atoms: C_10  and  C_11
REMARK    7  A    between atoms: C_10  and  O_12
REMARK    8  A    between atoms: C_13  and  C_14
REMARK    9  A    between atoms: C_14  and  C_15
REMARK   10  A    between atoms: C_14  and  O_16
REMARK                            x       y       z     vdW  Elec       q    Type
REMARK                         _______ _______ _______ _____ _____    ______ ____
ROOT
ATOM      1  N   UNL     1      15.508 -10.580  18.882  0.00  0.00    +0.000 N 
ENDROOT
BRANCH   1   6
ATOM      2  C   UNL     1      17.970 -11.399  24.040  0.00  0.00    +0.000 C 
ATOM      3  C   UNL     1      17.354 -11.182  22.692  0.00  0.00    +0.000 A 
ATOM      4  C   UNL     1      16.905  -9.923  22.305  0.00  0.00    +0.000 A 
ATOM      5  C   UNL     1      16.301  -9.732  21.052  0.00  0.00    +0.000 A 
ATOM      6  C   UNL     1      16.094 -10.782  20.139  0.00  0.00    +0.000 A 
ATOM      7  C   UNL     1      16.562 -12.039  20.561  0.00  0.00    +0.000 A 
ATOM      8  C   UNL     1      17.170 -12.244  21.811  0.00  0.00    +0.000 A 
ENDBRANCH   1   6
BRANCH   1   9
ATOM      9  C   UNL     1      14.375 -11.430  18.446  0.00  0.00    +0.000 C 
BRANCH   9  10
ATOM     10  C   UNL     1      13.077 -10.621  18.201  0.00  0.00    +0.000 C 
ATOM     11  C   UNL     1      12.641 -10.717  16.744  0.00  0.00    +0.000 C 
BRANCH  10  12
ATOM     12  O   UNL     1      12.005 -11.109  19.019  0.00  0.00    +0.000 OA
ATOM     13  H   UNL     1      11.478 -11.728  18.487  0.00  0.00    +0.000 HD
ENDBRANCH  10  12
ENDBRANCH   9  10
ENDBRANCH   1   9
BRANCH   1  14
ATOM     14  C   UNL     1      16.259  -9.926  17.780  0.00  0.00    +0.000 C 
BRANCH  14  15
ATOM     15  C   UNL     1      17.789  -9.973  18.007  0.00  0.00    +0.000 C 
ATOM     16  C   UNL     1      18.451 -11.195  17.381  0.00  0.00    +0.000 C 
BRANCH  15  17
ATOM     17  O   UNL     1      18.435  -8.809  17.493  0.00  0.00    +0.000 OA
ATOM     18  H   UNL     1      18.152  -8.082  18.083  0.00  0.00    +0.000 HD
ENDBRANCH  15  17
ENDBRANCH  14  15
ENDBRANCH   1  14
TORSDOF 7
ENDMDL
MODEL 5
REMARK VINA RESULT:    -3.506     17.387     18.652
REMARK INTER + INTRA:          -5.277
REMARK INTER:                  -4.735
REMARK INTRA:                  -0.543
REMARK UNBOUND:                -0.541
REMARK  Name = 
REMARK  10 active torsions:
REMARK  status: ('A' for Active; 'I' for Inactive)
REMARK    1  A    between atoms: C_1  and  C_2
REMARK    2  A    between atoms: C_5  and  N_8
REMARK    3  A    between atoms: N_8  and  C_9
REMARK    4  A    between atoms: N_8  and  C_13
REMARK    5  A    between atoms: C_9  and  C_10
REMARK    6  A    between atoms: C_10  and  C_11
REMARK    7  A    between atoms: C_10  and  O_12
REMARK    8  A    between atoms: C_13  and  C_14
REMARK    9  A    between atoms: C_14  and  C_15
REMARK   10  A    between atoms: C_14  and  O_16
REMARK                            x       y       z     vdW  Elec       q    Type
REMARK                         _______ _______ _______ _____ _____    ______ ____
ROOT
ATOM      1  N   UNL     1      17.254   7.438  17.355  0.00  0.00    +0.000 N 
ENDROOT
BRANCH   1   6
ATOM      2  C   UNL     1      15.476   9.083  12.115  0.00  0.00    +0.000 C 
ATOM      3  C   UNL     1      15.943   8.634  13.465  0.00  0.00    +0.000 A 
ATOM      4  C   UNL     1      15.056   8.073  14.378  0.00  0.00    +0.000 A 
ATOM      5  C   UNL     1      15.493   7.681  15.654  0.00  0.00    +0.000 A 
ATOM      6  C   UNL     1      16.820   7.849  16.088  0.00  0.00    +0.000 A 
ATOM      7  C   UNL     1      17.690   8.417  15.139  0.00  0.00    +0.000 A 
ATOM      8  C   UNL     1      17.266   8.811  13.859  0.00  0.00    +0.000 A 
ENDBRANCH   1   6
BRANCH   1   9
ATOM      9  C   UNL     1      17.134   8.353  18.515  0.00  0.00    +0.000 C 
BRANCH   9  10
ATOM     10  C   UNL     1      16.369   7.719  19.703  0.00  0.00    +0.000 C 
ATOM     11  C   UNL     1      16.048   8.764  20.764  0.00  0.00    +0.000 C 
BRANCH  10  12
ATOM     12  O   UNL     1      15.134   7.135  19.267  0.00  0.00    +0.000 OA
ATOM     13  H   UNL     1      14.955   7.446  18.364  0.00  0.00    +0.000 HD
ENDBRANCH  10  12
ENDBRANCH   9  10
ENDBRANCH   1   9
BRANCH   1  14
ATOM     14  C   UNL     1      18.269   6.364  17.509  0.00  0.00    +0.000 C 
BRANCH  14  15
ATOM     15  C   UNL     1      17.820   5.037  16.852  0.00  0.00    +0.000 C 
ATOM     16  C   UNL     1      18.451   4.801  15.485  0.00  0.00    +0.000 C 
BRANCH  15  17
ATOM     17  O   UNL     1      18.121   3.912  17.677  0.00  0.00    +0.000 OA
ATOM     18  H   UNL     1      18.251   4.283  18.573  0.00  0.00    +0.000 HD
ENDBRANCH  15  17
ENDBRANCH  14  15
ENDBRANCH   1  14
TORSDOF 7
ENDMDL
MODEL 6
REMARK VINA RESULT:    -3.506      1.766      5.524
REMARK INTER + INTRA:          -5.277
REMARK INTER:                  -4.799
REMARK INTRA:                  -0.478
REMARK UNBOUND:                -0.541
REMARK  Name = 
REMARK  10 active torsions:
REMARK  status: ('A' for Active; 'I' for Inactive)
REMARK    1  A    between atoms: C_1  and  C_2
REMARK    2  A    between atoms: C_5  and  N_8
REMARK    3  A    between atoms: N_8  and  C_9
REMARK    4  A    between atoms: N_8  and  C_13
REMARK    5  A    between atoms: C_9  and  C_10
REMARK    6  A    between atoms: C_10  and  C_11
REMARK    7  A    between atoms: C_10  and  O_12
REMARK    8  A    between atoms: C_13  and  C_14
REMARK    9  A    between atoms: C_14  and  C_15
REMARK   10  A    between atoms: C_14  and  O_16
REMARK                            x       y       z     vdW  Elec       q    Type
REMARK                         _______ _______ _______ _____ _____    ______ ____
ROOT
ATOM      1  N   UNL     1      15.770 -10.943  18.695  0.00  0.00    +0.000 N 
ENDROOT
BRANCH   1   6
ATOM      2  C   UNL     1      17.938 -11.856  23.967  0.00  0.00    +0.000 C 
ATOM      3  C   UNL     1      17.397 -11.610  22.592  0.00  0.00    +0.000 A 
ATOM      4  C   UNL     1      16.761 -10.413  22.278  0.00  0.00    +0.000 A 
ATOM      5  C   UNL     1      16.230 -10.200  20.995  0.00  0.00    +0.000 A 
ATOM      6  C   UNL     1      16.285 -11.170  19.978  0.00  0.00    +0.000 A 
ATOM      7  C   UNL     1      16.936 -12.366  20.330  0.00  0.00    +0.000 A 
ATOM      8  C   UNL     1      17.474 -12.591  21.608  0.00  0.00    +0.000 A 
ENDBRANCH   1   6
BRANCH   1   9
ATOM      9  C   UNL     1      16.072  -9.676  17.986  0.00  0.00    +0.000 C 
BRANCH   9  10
ATOM     10  C   UNL     1      17.486  -9.664  17.355  0.00  0.00    +0.000 C 
ATOM     11  C   UNL     1      18.451  -8.837  18.196  0.00  0.00    +0.000 C 
BRANCH  10  12
ATOM     12  O   UNL     1      18.015 -10.994  17.251  0.00  0.00    +0.000 OA
ATOM     13  H   UNL     1      17.268 -11.615  17.239  0.00  0.00    +0.000 HD
ENDBRANCH  10  12
ENDBRANCH   9  10
ENDBRANCH   1   9
BRANCH   1  14
ATOM     14  C   UNL     1      14.554 -11.650  18.219  0.00  0.00    +0.000 C 
BRANCH  14  15
ATOM     15  C   UNL     1      13.321 -10.717  18.157  0.00  0.00    +0.000 C 
ATOM     16  C   UNL     1      12.672 -10.671  16.779  0.00  0.00    +0.000 C 
BRANCH  15  17
ATOM     17  O   UNL     1      12.323 -11.098  19.103  0.00  0.00    +0.000 OA
ATOM     18  H   UNL     1      11.968 -11.946  18.768  0.00  0.00    +0.000 HD
ENDBRANCH  15  17
ENDBRANCH  14  15
ENDBRANCH   1  14
TORSDOF 7
ENDMDL
MODEL 7
REMARK VINA RESULT:    -3.466      1.259      3.094
REMARK INTER + INTRA:          -5.223
REMARK INTER:                  -4.690
REMARK INTRA:                  -0.533
REMARK UNBOUND:                -0.541
REMARK  Name = 
REMARK  10 active torsions:
REMARK  status: ('A' for Active; 'I' for Inactive)
REMARK    1  A    between atoms: C_1  and  C_2
REMARK    2  A    between atoms: C_5  and  N_8
REMARK    3  A    between atoms: N_8  and  C_9
REMARK    4  A    between atoms: N_8  and  C_13
REMARK    5  A    between atoms: C_9  and  C_10
REMARK    6  A    between atoms: C_10  and  C_11
REMARK    7  A    between atoms: C_10  and  O_12
REMARK    8  A    between atoms: C_13  and  C_14
REMARK    9  A    between atoms: C_14  and  C_15
REMARK   10  A    between atoms: C_14  and  O_16
REMARK                            x       y       z     vdW  Elec       q    Type
REMARK                         _______ _______ _______ _____ _____    ______ ____
ROOT
ATOM      1  N   UNL     1      16.003 -11.414  18.890  0.00  0.00    +0.000 N 
ENDROOT
BRANCH   1   6
ATOM      2  C   UNL     1      11.135 -10.515  15.920  0.00  0.00    +0.000 C 
ATOM      3  C   UNL     1      12.411 -10.741  16.671  0.00  0.00    +0.000 A 
ATOM      4  C   UNL     1      13.022 -11.991  16.681  0.00  0.00    +0.000 A 
ATOM      5  C   UNL     1      14.202 -12.205  17.411  0.00  0.00    +0.000 A 
ATOM      6  C   UNL     1      14.815 -11.199  18.180  0.00  0.00    +0.000 A 
ATOM      7  C   UNL     1      14.172  -9.948  18.145  0.00  0.00    +0.000 A 
ATOM      8  C   UNL     1      12.992  -9.720  17.417  0.00  0.00    +0.000 A 
ENDBRANCH   1   6
BRANCH   1   9
ATOM      9  C   UNL     1      17.312 -11.162  18.242  0.00  0.00    +0.000 C 
BRANCH   9  10
ATOM     10  C   UNL     1      17.965  -9.836  18.705  0.00  0.00    +0.000 C 
ATOM     11  C   UNL     1      18.449  -9.021  17.511  0.00  0.00    +0.000 C 
BRANCH  10  12
ATOM     12  O   UNL     1      17.033  -9.033  19.442  0.00  0.00    +0.000 OA
ATOM     13  H   UNL     1      17.493  -8.228  19.732  0.00  0.00    +0.000 HD
ENDBRANCH  10  12
ENDBRANCH   9  10
ENDBRANCH   1   9
BRANCH   1  14
ATOM     14  C   UNL     1      16.049 -12.342  20.049  0.00  0.00    +0.000 C 
BRANCH  14  15
ATOM     15  C   UNL     1      16.014 -11.590  21.401  0.00  0.00    +0.000 C 
ATOM     16  C   UNL     1      17.396 -11.386  22.010  0.00  0.00    +0.000 C 
BRANCH  15  17
ATOM     17  O   UNL     1      15.393 -10.311  21.277  0.00  0.00    +0.000 OA
ATOM     18  H   UNL     1      16.063  -9.746  20.843  0.00  0.00    +0.000 HD
ENDBRANCH  15  17
ENDBRANCH  14  15
ENDBRANCH   1  14
TORSDOF 7
ENDMDL
MODEL 8
REMARK VINA RESULT:    -3.427     17.343     19.024
REMARK INTER + INTRA:          -5.170
REMARK INTER:                  -4.436
REMARK INTRA:                  -0.734
REMARK UNBOUND:                -0.541
REMARK  Name = 
REMARK  10 active torsions:
REMARK  status: ('A' for Active; 'I' for Inactive)
REMARK    1  A    between atoms: C_1  and  C_2
REMARK    2  A    between atoms: C_5  and  N_8
REMARK    3  A    between atoms: N_8  and  C_9
REMARK    4  A    between atoms: N_8  and  C_13
REMARK    5  A    between atoms: C_9  and  C_10
REMARK    6  A    between atoms: C_10  and  C_11
REMARK    7  A    between atoms: C_10  and  O_12
REMARK    8  A    between atoms: C_13  and  C_14
REMARK    9  A    between atoms: C_14  and  C_15
REMARK   10  A    between atoms: C_14  and  O_16
REMARK                            x       y       z     vdW  Elec       q    Type
REMARK                         _______ _______ _______ _____ _____    ______ ____
ROOT
ATOM      1  N   UNL     1      17.224   7.905  16.405  0.00  0.00    +0.000 N 
ENDROOT
BRANCH   1   6
ATOM      2  C   UNL     1      15.923   7.912  22.030  0.00  0.00    +0.000 C 
ATOM      3  C   UNL     1      16.272   7.888  20.573  0.00  0.00    +0.000 A 
ATOM      4  C   UNL     1      17.452   8.461  20.112  0.00  0.00    +0.000 A 
ATOM      5  C   UNL     1      17.760   8.462  18.741  0.00  0.00    +0.000 A 
ATOM      6  C   UNL     1      16.902   7.918  17.768  0.00  0.00    +0.000 A 
ATOM      7  C   UNL     1      15.719   7.346  18.271  0.00  0.00    +0.000 A 
ATOM      8  C   UNL     1      15.400   7.336  19.639  0.00  0.00    +0.000 A 
ENDBRANCH   1   6
BRANCH   1   9
ATOM      9  C   UNL     1      18.421   7.170  15.931  0.00  0.00    +0.000 C 
BRANCH   9  10
ATOM     10  C   UNL     1      18.205   5.637  15.888  0.00  0.00    +0.000 C 
ATOM     11  C   UNL     1      18.451   5.013  17.257  0.00  0.00    +0.000 C 
BRANCH  10  12
ATOM     12  O   UNL     1      16.865   5.317  15.488  0.00  0.00    +0.000 OA
ATOM     13  H   UNL     1      16.266   5.577  16.208  0.00  0.00    +0.000 HD
ENDBRANCH  10  12
ENDBRANCH   9  10
ENDBRANCH   1   9
BRANCH   1  14
ATOM     14  C   UNL     1      16.747   8.976  15.492  0.00  0.00    +0.000 C 
BRANCH  14  15
ATOM     15  C   UNL     1      15.659   8.469  14.516  0.00  0.00    +0.000 C 
ATOM     16  C   UNL     1      16.181   8.239  13.103  0.00  0.00    +0.000 C 
BRANCH  15  17
ATOM     17  O   UNL     1      15.067   7.254  14.971  0.00  0.00    +0.000 OA
ATOM     18  H   UNL     1      15.708   6.884  15.610  0.00  0.00    +0.000 HD
ENDBRANCH  15  17
ENDBRANCH  14  15
ENDBRANCH   1  14
TORSDOF 7
ENDMDL
MODEL 9
REMARK VINA RESULT:    -3.377     18.093     19.777
REMARK INTER + INTRA:          -5.103
REMARK INTER:                  -4.692
REMARK INTRA:                  -0.411
REMARK UNBOUND:                -0.541
REMARK  Name = 
REMARK  10 active torsions:
REMARK  status: ('A' for Active; 'I' for Inactive)
REMARK    1  A    between atoms: C_1  and  C_2
REMARK    2  A    between atoms: C_5  and  N_8
REMARK    3  A    between atoms: N_8  and  C_9
REMARK    4  A    between atoms: N_8  and  C_13
REMARK    5  A    between atoms: C_9  and  C_10
REMARK    6  A    between atoms: C_10  and  C_11
REMARK    7  A    between atoms: C_10  and  O_12
REMARK    8  A    between atoms: C_13  and  C_14
REMARK    9  A    between atoms: C_14  and  C_15
REMARK   10  A    between atoms: C_14  and  O_16
REMARK                            x       y       z     vdW  Elec       q    Type
REMARK                         _______ _______ _______ _____ _____    ______ ____
ROOT
ATOM      1  N   UNL     1      16.752   8.542  15.043  0.00  0.00    +0.000 N 
ENDROOT
BRANCH   1   6
ATOM      2  C   UNL     1      15.635   7.984  20.680  0.00  0.00    +0.000 C 
ATOM      3  C   UNL     1      15.936   8.107  19.217  0.00  0.00    +0.000 A 
ATOM      4  C   UNL     1      17.098   8.731  18.777  0.00  0.00    +0.000 A 
ATOM      5  C   UNL     1      17.361   8.870  17.404  0.00  0.00    +0.000 A 
ATOM      6  C   UNL     1      16.474   8.418  16.410  0.00  0.00    +0.000 A 
ATOM      7  C   UNL     1      15.311   7.790  16.892  0.00  0.00    +0.000 A 
ATOM      8  C   UNL     1      15.037   7.643  18.262  0.00  0.00    +0.000 A 
ENDBRANCH   1   6
BRANCH   1   9
ATOM      9  C   UNL     1      18.136   8.356  14.546  0.00  0.00    +0.000 C 
BRANCH   9  10
ATOM     10  C   UNL     1      18.451   6.883  14.185  0.00  0.00    +0.000 C 
ATOM     11  C   UNL     1      17.712   5.925  15.112  0.00  0.00    +0.000 C 
BRANCH  10  12
ATOM     12  O   UNL     1      18.060   6.588  12.837  0.00  0.00    +0.000 OA
ATOM     13  H   UNL     1      17.239   6.069  12.868  0.00  0.00    +0.000 HD
ENDBRANCH  10  12
ENDBRANCH   9  10
ENDBRANCH   1   9
BRANCH   1  14
ATOM     14  C   UNL     1      15.867   9.330  14.148  0.00  0.00    +0.000 C 
BRANCH  14  15
ATOM     15  C   UNL     1      15.034   8.428  13.206  0.00  0.00    +0.000 C 
ATOM     16  C   UNL     1      13.726   9.071  12.761  0.00  0.00    +0.000 C 
BRANCH  15  17
ATOM     17  O   UNL     1      15.768   8.066  12.037  0.00  0.00    +0.000 OA
ATOM     18  H   UNL     1      15.332   7.256  11.705  0.00  0.00    +0.000 HD
ENDBRANCH  15  17
ENDBRANCH  14  15
ENDBRANCH   1  14
TORSDOF 7
ENDMDL
