MODEL 1
REMARK VINA RESULT:    -6.139      0.000      0.000
REMARK INTER + INTRA:          -8.822
REMARK INTER:                  -8.293
REMARK INTRA:                  -0.529
REMARK UNBOUND:                -0.529
REMARK  Name = 
REMARK  10 active torsions:
REMARK  status: ('A' for Active; 'I' for Inactive)
REMARK    1  A    between atoms: C_1  and  C_2
REMARK    2  A    between atoms: C_5  and  N_8
REMARK    3  A    between atoms: N_8  and  C_9
REMARK    4  A    between atoms: N_8  and  C_13
REMARK    5  A    between atoms: C_9  and  C_10
REMARK    6  A    between atoms: C_10  and  C_11
REMARK    7  A    between atoms: C_10  and  O_12
REMARK    8  A    between atoms: C_13  and  C_14
REMARK    9  A    between atoms: C_14  and  C_15
REMARK   10  A    between atoms: C_14  and  O_16
REMARK                            x       y       z     vdW  Elec       q    Type
REMARK                         _______ _______ _______ _____ _____    ______ ____
ROOT
ATOM      1  N   UNL     1      12.479   1.211   7.129  0.00  0.00    +0.000 N 
ENDROOT
BRANCH   1   6
ATOM      2  C   UNL     1      10.225   2.644  12.247  0.00  0.00    +0.000 C 
ATOM      3  C   UNL     1      10.787   2.276  10.908  0.00  0.00    +0.000 A 
ATOM      4  C   UNL     1      10.837   0.949  10.495  0.00  0.00    +0.000 A 
ATOM      5  C   UNL     1      11.392   0.606   9.252  0.00  0.00    +0.000 A 
ATOM      6  C   UNL     1      11.944   1.558   8.376  0.00  0.00    +0.000 A 
ATOM      7  C   UNL     1      11.875   2.890   8.825  0.00  0.00    +0.000 A 
ATOM      8  C   UNL     1      11.320   3.247  10.065  0.00  0.00    +0.000 A 
ENDBRANCH   1   6
BRANCH   1   9
ATOM      9  C   UNL     1      11.712   0.339   6.208  0.00  0.00    +0.000 C 
BRANCH   9  10
ATOM     10  C   UNL     1      10.407   1.001   5.702  0.00  0.00    +0.000 C 
ATOM     11  C   UNL     1      10.168   0.680   4.231  0.00  0.00    +0.000 C 
BRANCH  10  12
ATOM     12  O   UNL     1       9.272   0.538   6.447  0.00  0.00    +0.000 OA
ATOM     13  H   UNL     1       8.820   1.313   6.819  0.00  0.00    +0.000 HD
ENDBRANCH  10  12
ENDBRANCH   9  10
ENDBRANCH   1   9
BRANCH   1  14
ATOM     14  C   UNL     1      13.944   1.241   6.886  0.00  0.00    +0.000 C 
BRANCH  14  15
ATOM     15  C   UNL     1      14.310   2.052   5.620  0.00  0.00    +0.000 C 
ATOM     16  C   UNL     1      13.984   3.536   5.743  0.00  0.00    +0.000 C 
BRANCH  15  17
ATOM     17  O   UNL     1      15.694   1.929   5.296  0.00  0.00    +0.000 OA
ATOM     18  H   UNL     1      15.720   1.846   4.322  0.00  0.00    +0.000 HD
ENDBRANCH  15  17
ENDBRANCH  14  15
ENDBRANCH   1  14
TORSDOF 7
ENDMDL
MODEL 2
REMARK VINA RESULT:    -5.950      1.301      3.622
REMARK INTER + INTRA:          -8.566
REMARK INTER:                  -8.278
REMARK INTRA:                  -0.287
REMARK UNBOUND:                -0.529
REMARK  Name = 
REMARK  10 active torsions:
REMARK  status: ('A' for Active; 'I' for Inactive)
REMARK    1  A    between atoms: C_1  and  C_2
REMARK    2  A    between atoms: C_5  and  N_8
REMARK    3  A    between atoms: N_8  and  C_9
REMARK    4  A    between atoms: N_8  and  C_13
REMARK    5  A    between atoms: C_9  and  C_10
REMARK    6  A    between atoms: C_10  and  C_11
REMARK    7  A    between atoms: C_10  and  O_12
REMARK    8  A    between atoms: C_13  and  C_14
REMARK    9  A    between atoms: C_14  and  C_15
REMARK   10  A    between atoms: C_14  and  O_16
REMARK                            x       y       z     vdW  Elec       q    Type
REMARK                         _______ _______ _______ _____ _____    ______ ____
ROOT
ATOM      1  N   UNL     1      12.594   1.890   6.628  0.00  0.00    +0.000 N 
ENDROOT
BRANCH   1   6
ATOM      2  C   UNL     1      11.982   2.902  12.279  0.00  0.00    +0.000 C 
ATOM      3  C   UNL     1      12.130   2.617  10.816  0.00  0.00    +0.000 A 
ATOM      4  C   UNL     1      13.285   2.024  10.316  0.00  0.00    +0.000 A 
ATOM      5  C   UNL     1      13.431   1.787   8.940  0.00  0.00    +0.000 A 
ATOM      6  C   UNL     1      12.451   2.147   7.997  0.00  0.00    +0.000 A 
ATOM      7  C   UNL     1      11.296   2.743   8.538  0.00  0.00    +0.000 A 
ATOM      8  C   UNL     1      11.137   2.984   9.912  0.00  0.00    +0.000 A 
ENDBRANCH   1   6
BRANCH   1   9
ATOM      9  C   UNL     1      12.922   2.994   5.695  0.00  0.00    +0.000 C 
BRANCH   9  10
ATOM     10  C   UNL     1      14.441   3.120   5.423  0.00  0.00    +0.000 C 
ATOM     11  C   UNL     1      15.123   1.760   5.502  0.00  0.00    +0.000 C 
BRANCH  10  12
ATOM     12  O   UNL     1      14.687   3.665   4.119  0.00  0.00    +0.000 OA
ATOM     13  H   UNL     1      14.642   2.939   3.476  0.00  0.00    +0.000 HD
ENDBRANCH  10  12
ENDBRANCH   9  10
ENDBRANCH   1   9
BRANCH   1  14
ATOM     14  C   UNL     1      11.954   0.708   5.997  0.00  0.00    +0.000 C 
BRANCH  14  15
ATOM     15  C   UNL     1      10.485   0.983   5.595  0.00  0.00    +0.000 C 
ATOM     16  C   UNL     1      10.150   0.511   4.186  0.00  0.00    +0.000 C 
BRANCH  15  17
ATOM     17  O   UNL     1       9.567   0.368   6.498  0.00  0.00    +0.000 OA
ATOM     18  H   UNL     1      10.008  -0.459   6.781  0.00  0.00    +0.000 HD
ENDBRANCH  15  17
ENDBRANCH  14  15
ENDBRANCH   1  14
TORSDOF 7
ENDMDL
MODEL 3
REMARK VINA RESULT:    -5.888      1.770      2.160
REMARK INTER + INTRA:          -8.482
REMARK INTER:                  -7.919
REMARK INTRA:                  -0.564
REMARK UNBOUND:                -0.529
REMARK  Name = 
REMARK  10 active torsions:
REMARK  status: ('A' for Active; 'I' for Inactive)
REMARK    1  A    between atoms: C_1  and  C_2
REMARK    2  A    between atoms: C_5  and  N_8
REMARK    3  A    between atoms: N_8  and  C_9
REMARK    4  A    between atoms: N_8  and  C_13
REMARK    5  A    between atoms: C_9  and  C_10
REMARK    6  A    between atoms: C_10  and  C_11
REMARK    7  A    between atoms: C_10  and  O_12
REMARK    8  A    between atoms: C_13  and  C_14
REMARK    9  A    between atoms: C_14  and  C_15
REMARK   10  A    between atoms: C_14  and  O_16
REMARK                            x       y       z     vdW  Elec       q    Type
REMARK                         _______ _______ _______ _____ _____    ______ ____
ROOT
ATOM      1  N   UNL     1      12.336   1.411   6.927  0.00  0.00    +0.000 N 
ENDROOT
BRANCH   1   6
ATOM      2  C   UNL     1      12.612  -0.743  12.275  0.00  0.00    +0.000 C 
ATOM      3  C   UNL     1      12.544  -0.207  10.878  0.00  0.00    +0.000 A 
ATOM      4  C   UNL     1      13.685   0.264  10.238  0.00  0.00    +0.000 A 
ATOM      5  C   UNL     1      13.610   0.793   8.939  0.00  0.00    +0.000 A 
ATOM      6  C   UNL     1      12.400   0.900   8.229  0.00  0.00    +0.000 A 
ATOM      7  C   UNL     1      11.268   0.413   8.906  0.00  0.00    +0.000 A 
ATOM      8  C   UNL     1      11.329  -0.121  10.204  0.00  0.00    +0.000 A 
ENDBRANCH   1   6
BRANCH   1   9
ATOM      9  C   UNL     1      11.021   1.676   6.296  0.00  0.00    +0.000 C 
BRANCH   9  10
ATOM     10  C   UNL     1      10.730   0.739   5.098  0.00  0.00    +0.000 C 
ATOM     11  C   UNL     1       9.727  -0.342   5.482  0.00  0.00    +0.000 C 
BRANCH  10  12
ATOM     12  O   UNL     1      10.191   1.472   3.990  0.00  0.00    +0.000 OA
ATOM     13  H   UNL     1      10.494   2.393   4.061  0.00  0.00    +0.000 HD
ENDBRANCH  10  12
ENDBRANCH   9  10
ENDBRANCH   1   9
BRANCH   1  14
ATOM     14  C   UNL     1      13.461   1.230   5.973  0.00  0.00    +0.000 C 
BRANCH  14  15
ATOM     15  C   UNL     1      14.033   2.581   5.480  0.00  0.00    +0.000 C 
ATOM     16  C   UNL     1      13.980   3.676   6.538  0.00  0.00    +0.000 C 
BRANCH  15  17
ATOM     17  O   UNL     1      15.385   2.453   5.043  0.00  0.00    +0.000 OA
ATOM     18  H   UNL     1      15.469   3.076   4.294  0.00  0.00    +0.000 HD
ENDBRANCH  15  17
ENDBRANCH  14  15
ENDBRANCH   1  14
TORSDOF 7
ENDMDL
MODEL 4
REMARK VINA RESULT:    -5.803      1.982      3.762
REMARK INTER + INTRA:          -8.368
REMARK INTER:                  -7.728
REMARK INTRA:                  -0.640
REMARK UNBOUND:                -0.529
REMARK  Name = 
REMARK  10 active torsions:
REMARK  status: ('A' for Active; 'I' for Inactive)
REMARK    1  A    between atoms: C_1  and  C_2
REMARK    2  A    between atoms: C_5  and  N_8
REMARK    3  A    between atoms: N_8  and  C_9
REMARK    4  A    between atoms: N_8  and  C_13
REMARK    5  A    between atoms: C_9  and  C_10
REMARK    6  A    between atoms: C_10  and  C_11
REMARK    7  A    between atoms: C_10  and  O_12
REMARK    8  A    between atoms: C_13  and  C_14
REMARK    9  A    between atoms: C_14  and  C_15
REMARK   10  A    between atoms: C_14  and  O_16
REMARK                            x       y       z     vdW  Elec       q    Type
REMARK                         _______ _______ _______ _____ _____    ______ ____
ROOT
ATOM      1  N   UNL     1      12.059   1.949   7.735  0.00  0.00    +0.000 N 
ENDROOT
BRANCH   1   6
ATOM      2  C   UNL     1      13.035  -1.476  12.279  0.00  0.00    +0.000 C 
ATOM      3  C   UNL     1      12.787  -0.607  11.085  0.00  0.00    +0.000 A 
ATOM      4  C   UNL     1      13.811   0.152  10.528  0.00  0.00    +0.000 A 
ATOM      5  C   UNL     1      13.565   0.989   9.427  0.00  0.00    +0.000 A 
ATOM      6  C   UNL     1      12.292   1.127   8.845  0.00  0.00    +0.000 A 
ATOM      7  C   UNL     1      11.281   0.344   9.432  0.00  0.00    +0.000 A 
ATOM      8  C   UNL     1      11.514  -0.498  10.532  0.00  0.00    +0.000 A 
ENDBRANCH   1   6
BRANCH   1   9
ATOM      9  C   UNL     1      12.770   3.243   7.605  0.00  0.00    +0.000 C 
BRANCH   9  10
ATOM     10  C   UNL     1      13.658   3.315   6.339  0.00  0.00    +0.000 C 
ATOM     11  C   UNL     1      14.205   1.939   5.977  0.00  0.00    +0.000 C 
BRANCH  10  12
ATOM     12  O   UNL     1      12.914   3.807   5.215  0.00  0.00    +0.000 OA
ATOM     13  H   UNL     1      12.866   4.774   5.286  0.00  0.00    +0.000 HD
ENDBRANCH  10  12
ENDBRANCH   9  10
ENDBRANCH   1   9
BRANCH   1  14
ATOM     14  C   UNL     1      10.798   1.848   6.956  0.00  0.00    +0.000 C 
BRANCH  14  15
ATOM     15  C   UNL     1      10.930   0.886   5.752  0.00  0.00    +0.000 C 
ATOM     16  C   UNL     1       9.831  -0.169   5.703  0.00  0.00    +0.000 C 
BRANCH  15  17
ATOM     17  O   UNL     1      10.923   1.590   4.511  0.00  0.00    +0.000 OA
ATOM     18  H   UNL     1      10.918   0.892   3.824  0.00  0.00    +0.000 HD
ENDBRANCH  15  17
ENDBRANCH  14  15
ENDBRANCH   1  14
TORSDOF 7
ENDMDL
MODEL 5
REMARK VINA RESULT:    -5.687      2.834      5.594
REMARK INTER + INTRA:          -8.211
REMARK INTER:                  -7.501
REMARK INTRA:                  -0.710
REMARK UNBOUND:                -0.529
REMARK  Name = 
REMARK  10 active torsions:
REMARK  status: ('A' for Active; 'I' for Inactive)
REMARK    1  A    between atoms: C_1  and  C_2
REMARK    2  A    between atoms: C_5  and  N_8
REMARK    3  A    between atoms: N_8  and  C_9
REMARK    4  A    between atoms: N_8  and  C_13
REMARK    5  A    between atoms: C_9  and  C_10
REMARK    6  A    between atoms: C_10  and  C_11
REMARK    7  A    between atoms: C_10  and  O_12
REMARK    8  A    between atoms: C_13  and  C_14
REMARK    9  A    between atoms: C_14  and  C_15
REMARK   10  A    between atoms: C_14  and  O_16
REMARK                            x       y       z     vdW  Elec       q    Type
REMARK                         _______ _______ _______ _____ _____    ______ ____
ROOT
ATOM      1  N   UNL     1      12.399   1.508  10.323  0.00  0.00    +0.000 N 
ENDROOT
BRANCH   1   6
ATOM      2  C   UNL     1      14.299   3.360   5.195  0.00  0.00    +0.000 C 
ATOM      3  C   UNL     1      13.783   2.876   6.516  0.00  0.00    +0.000 A 
ATOM      4  C   UNL     1      13.290   3.770   7.461  0.00  0.00    +0.000 A 
ATOM      5  C   UNL     1      12.835   3.314   8.709  0.00  0.00    +0.000 A 
ATOM      6  C   UNL     1      12.872   1.958   9.084  0.00  0.00    +0.000 A 
ATOM      7  C   UNL     1      13.375   1.084   8.103  0.00  0.00    +0.000 A 
ATOM      8  C   UNL     1      13.831   1.526   6.851  0.00  0.00    +0.000 A 
ENDBRANCH   1   6
BRANCH   1   9
ATOM      9  C   UNL     1      12.051   2.483  11.385  0.00  0.00    +0.000 C 
BRANCH   9  10
ATOM     10  C   UNL     1      10.524   2.614  11.602  0.00  0.00    +0.000 C 
ATOM     11  C   UNL     1      10.138   4.058  11.902  0.00  0.00    +0.000 C 
BRANCH  10  12
ATOM     12  O   UNL     1       9.800   2.194  10.436  0.00  0.00    +0.000 OA
ATOM     13  H   UNL     1      10.311   2.459   9.653  0.00  0.00    +0.000 HD
ENDBRANCH  10  12
ENDBRANCH   9  10
ENDBRANCH   1   9
BRANCH   1  14
ATOM     14  C   UNL     1      12.700   0.137  10.809  0.00  0.00    +0.000 C 
BRANCH  14  15
ATOM     15  C   UNL     1      11.510  -0.830  10.603  0.00  0.00    +0.000 C 
ATOM     16  C   UNL     1      10.649  -0.996  11.850  0.00  0.00    +0.000 C 
BRANCH  15  17
ATOM     17  O   UNL     1      10.663  -0.405   9.536  0.00  0.00    +0.000 OA
ATOM     18  H   UNL     1      10.928  -0.953   8.770  0.00  0.00    +0.000 HD
ENDBRANCH  15  17
ENDBRANCH  14  15
ENDBRANCH   1  14
TORSDOF 7
ENDMDL
MODEL 6
REMARK VINA RESULT:    -5.677      2.858      5.509
REMARK INTER + INTRA:          -8.197
REMARK INTER:                  -7.469
REMARK INTRA:                  -0.728
REMARK UNBOUND:                -0.529
REMARK  Name = 
REMARK  10 active torsions:
REMARK  status: ('A' for Active; 'I' for Inactive)
REMARK    1  A    between atoms: C_1  and  C_2
REMARK    2  A    between atoms: C_5  and  N_8
REMARK    3  A    between atoms: N_8  and  C_9
REMARK    4  A    between atoms: N_8  and  C_13
REMARK    5  A    between atoms: C_9  and  C_10
REMARK    6  A    between atoms: C_10  and  C_11
REMARK    7  A    between atoms: C_10  and  O_12
REMARK    8  A    between atoms: C_13  and  C_14
REMARK    9  A    between atoms: C_14  and  C_15
REMARK   10  A    between atoms: C_14  and  O_16
REMARK                            x       y       z     vdW  Elec       q    Type
REMARK                         _______ _______ _______ _____ _____    ______ ____
ROOT
ATOM      1  N   UNL     1      12.385   1.479  10.363  0.00  0.00    +0.000 N 
ENDROOT
BRANCH   1   6
ATOM      2  C   UNL     1      14.292   3.287   5.223  0.00  0.00    +0.000 C 
ATOM      3  C   UNL     1      13.820   2.820   6.566  0.00  0.00    +0.000 A 
ATOM      4  C   UNL     1      13.798   1.467   6.885  0.00  0.00    +0.000 A 
ATOM      5  C   UNL     1      13.327   1.033   8.135  0.00  0.00    +0.000 A 
ATOM      6  C   UNL     1      12.835   1.917   9.112  0.00  0.00    +0.000 A 
ATOM      7  C   UNL     1      12.874   3.278   8.756  0.00  0.00    +0.000 A 
ATOM      8  C   UNL     1      13.345   3.725   7.511  0.00  0.00    +0.000 A 
ENDBRANCH   1   6
BRANCH   1   9
ATOM      9  C   UNL     1      12.041   2.464  11.417  0.00  0.00    +0.000 C 
BRANCH   9  10
ATOM     10  C   UNL     1      10.513   2.632  11.606  0.00  0.00    +0.000 C 
ATOM     11  C   UNL     1      10.153   4.091  11.861  0.00  0.00    +0.000 C 
BRANCH  10  12
ATOM     12  O   UNL     1       9.799   2.195  10.442  0.00  0.00    +0.000 OA
ATOM     13  H   UNL     1      10.293   2.489   9.658  0.00  0.00    +0.000 HD
ENDBRANCH  10  12
ENDBRANCH   9  10
ENDBRANCH   1   9
BRANCH   1  14
ATOM     14  C   UNL     1      12.707   0.118  10.863  0.00  0.00    +0.000 C 
BRANCH  14  15
ATOM     15  C   UNL     1      11.510  -0.853  10.727  0.00  0.00    +0.000 C 
ATOM     16  C   UNL     1      10.675  -0.958  11.998  0.00  0.00    +0.000 C 
BRANCH  15  17
ATOM     17  O   UNL     1      10.643  -0.475   9.659  0.00  0.00    +0.000 OA
ATOM     18  H   UNL     1      10.600   0.502   9.702  0.00  0.00    +0.000 HD
ENDBRANCH  15  17
ENDBRANCH  14  15
ENDBRANCH   1  14
TORSDOF 7
ENDMDL
MODEL 7
REMARK VINA RESULT:    -5.645      2.706      5.375
REMARK INTER + INTRA:          -8.154
REMARK INTER:                  -7.669
REMARK INTRA:                  -0.485
REMARK UNBOUND:                -0.529
REMARK  Name = 
REMARK  10 active torsions:
REMARK  status: ('A' for Active; 'I' for Inactive)
REMARK    1  A    between atoms: C_1  and  C_2
REMARK    2  A    between atoms: C_5  and  N_8
REMARK    3  A    between atoms: N_8  and  C_9
REMARK    4  A    between atoms: N_8  and  C_13
REMARK    5  A    between atoms: C_9  and  C_10
REMARK    6  A    between atoms: C_10  and  C_11
REMARK    7  A    between atoms: C_10  and  O_12
REMARK    8  A    between atoms: C_13  and  C_14
REMARK    9  A    between atoms: C_14  and  C_15
REMARK   10  A    between atoms: C_14  and  O_16
REMARK                            x       y       z     vdW  Elec       q    Type
REMARK                         _______ _______ _______ _____ _____    ______ ____
ROOT
ATOM      1  N   UNL     1      12.101   2.276   9.738  0.00  0.00    +0.000 N 
ENDROOT
BRANCH   1   6
ATOM      2  C   UNL     1      10.602   0.626   4.413  0.00  0.00    +0.000 C 
ATOM      3  C   UNL     1      10.970   1.068   5.796  0.00  0.00    +0.000 A 
ATOM      4  C   UNL     1      11.762   2.193   5.999  0.00  0.00    +0.000 A 
ATOM      5  C   UNL     1      12.129   2.585   7.297  0.00  0.00    +0.000 A 
ATOM      6  C   UNL     1      11.748   1.868   8.445  0.00  0.00    +0.000 A 
ATOM      7  C   UNL     1      10.946   0.738   8.202  0.00  0.00    +0.000 A 
ATOM      8  C   UNL     1      10.570   0.336   6.910  0.00  0.00    +0.000 A 
ENDBRANCH   1   6
BRANCH   1   9
ATOM      9  C   UNL     1      11.436   3.449  10.355  0.00  0.00    +0.000 C 
BRANCH   9  10
ATOM     10  C   UNL     1      10.534   3.065  11.553  0.00  0.00    +0.000 C 
ATOM     11  C   UNL     1       9.938   4.306  12.207  0.00  0.00    +0.000 C 
BRANCH  10  12
ATOM     12  O   UNL     1       9.452   2.221  11.134  0.00  0.00    +0.000 OA
ATOM     13  H   UNL     1       9.383   1.485  11.764  0.00  0.00    +0.000 HD
ENDBRANCH  10  12
ENDBRANCH   9  10
ENDBRANCH   1   9
BRANCH   1  14
ATOM     14  C   UNL     1      13.425   1.932  10.318  0.00  0.00    +0.000 C 
BRANCH  14  15
ATOM     15  C   UNL     1      13.533   0.430  10.677  0.00  0.00    +0.000 C 
ATOM     16  C   UNL     1      14.911   0.036  11.194  0.00  0.00    +0.000 C 
BRANCH  15  17
ATOM     17  O   UNL     1      12.568   0.052  11.656  0.00  0.00    +0.000 OA
ATOM     18  H   UNL     1      11.837  -0.355  11.148  0.00  0.00    +0.000 HD
ENDBRANCH  15  17
ENDBRANCH  14  15
ENDBRANCH   1  14
TORSDOF 7
ENDMDL
MODEL 8
REMARK VINA RESULT:    -5.622      2.497      5.760
REMARK INTER + INTRA:          -8.123
REMARK INTER:                  -7.703
REMARK INTRA:                  -0.420
REMARK UNBOUND:                -0.529
REMARK  Name = 
REMARK  10 active torsions:
REMARK  status: ('A' for Active; 'I' for Inactive)
REMARK    1  A    between atoms: C_1  and  C_2
REMARK    2  A    between atoms: C_5  and  N_8
REMARK    3  A    between atoms: N_8  and  C_9
REMARK    4  A    between atoms: N_8  and  C_13
REMARK    5  A    between atoms: C_9  and  C_10
REMARK    6  A    between atoms: C_10  and  C_11
REMARK    7  A    between atoms: C_10  and  O_12
REMARK    8  A    between atoms: C_13  and  C_14
REMARK    9  A    between atoms: C_14  and  C_15
REMARK   10  A    between atoms: C_14  and  O_16
REMARK                            x       y       z     vdW  Elec       q    Type
REMARK                         _______ _______ _______ _____ _____    ______ ____
ROOT
ATOM      1  N   UNL     1      12.359   1.734   9.451  0.00  0.00    +0.000 N 
ENDROOT
BRANCH   1   6
ATOM      2  C   UNL     1      10.661   0.337   4.114  0.00  0.00    +0.000 C 
ATOM      3  C   UNL     1      11.108   0.676   5.503  0.00  0.00    +0.000 A 
ATOM      4  C   UNL     1      10.209   0.665   6.565  0.00  0.00    +0.000 A 
ATOM      5  C   UNL     1      10.627   1.013   7.860  0.00  0.00    +0.000 A 
ATOM      6  C   UNL     1      11.945   1.408   8.154  0.00  0.00    +0.000 A 
ATOM      7  C   UNL     1      12.826   1.405   7.057  0.00  0.00    +0.000 A 
ATOM      8  C   UNL     1      12.422   1.057   5.758  0.00  0.00    +0.000 A 
ENDBRANCH   1   6
BRANCH   1   9
ATOM      9  C   UNL     1      12.826   0.671  10.373  0.00  0.00    +0.000 C 
BRANCH   9  10
ATOM     10  C   UNL     1      14.335   0.782  10.702  0.00  0.00    +0.000 C 
ATOM     11  C   UNL     1      14.549   1.100  12.177  0.00  0.00    +0.000 C 
BRANCH  10  12
ATOM     12  O   UNL     1      15.018  -0.445  10.409  0.00  0.00    +0.000 OA
ATOM     13  H   UNL     1      14.737  -0.743   9.528  0.00  0.00    +0.000 HD
ENDBRANCH  10  12
ENDBRANCH   9  10
ENDBRANCH   1   9
BRANCH   1  14
ATOM     14  C   UNL     1      11.892   2.977  10.118  0.00  0.00    +0.000 C 
BRANCH  14  15
ATOM     15  C   UNL     1      10.909   2.683  11.277  0.00  0.00    +0.000 C 
ATOM     16  C   UNL     1      10.634   3.900  12.153  0.00  0.00    +0.000 C 
BRANCH  15  17
ATOM     17  O   UNL     1       9.658   2.194  10.796  0.00  0.00    +0.000 OA
ATOM     18  H   UNL     1       9.846   1.288  10.477  0.00  0.00    +0.000 HD
ENDBRANCH  15  17
ENDBRANCH  14  15
ENDBRANCH   1  14
TORSDOF 7
ENDMDL
MODEL 9
REMARK VINA RESULT:    -5.608      1.609      2.147
REMARK INTER + INTRA:          -8.104
REMARK INTER:                  -8.532
REMARK INTRA:                   0.428
REMARK UNBOUND:                -0.529
REMARK  Name = 
REMARK  10 active torsions:
REMARK  status: ('A' for Active; 'I' for Inactive)
REMARK    1  A    between atoms: C_1  and  C_2
REMARK    2  A    between atoms: C_5  and  N_8
REMARK    3  A    between atoms: N_8  and  C_9
REMARK    4  A    between atoms: N_8  and  C_13
REMARK    5  A    between atoms: C_9  and  C_10
REMARK    6  A    between atoms: C_10  and  C_11
REMARK    7  A    between atoms: C_10  and  O_12
REMARK    8  A    between atoms: C_13  and  C_14
REMARK    9  A    between atoms: C_14  and  C_15
REMARK   10  A    between atoms: C_14  and  O_16
REMARK                            x       y       z     vdW  Elec       q    Type
REMARK                         _______ _______ _______ _____ _____    ______ ____
ROOT
ATOM      1  N   UNL     1      12.312   2.258   6.697  0.00  0.00    +0.000 N 
ENDROOT
BRANCH   1   6
ATOM      2  C   UNL     1      13.704   1.753  12.277  0.00  0.00    +0.000 C 
ATOM      3  C   UNL     1      13.364   1.898  10.826  0.00  0.00    +0.000 A 
ATOM      4  C   UNL     1      12.563   2.944  10.380  0.00  0.00    +0.000 A 
ATOM      5  C   UNL     1      12.222   3.058   9.023  0.00  0.00    +0.000 A 
ATOM      6  C   UNL     1      12.640   2.128   8.053  0.00  0.00    +0.000 A 
ATOM      7  C   UNL     1      13.449   1.085   8.538  0.00  0.00    +0.000 A 
ATOM      8  C   UNL     1      13.799   0.961   9.893  0.00  0.00    +0.000 A 
ENDBRANCH   1   6
BRANCH   1   9
ATOM      9  C   UNL     1      11.845   1.079   5.929  0.00  0.00    +0.000 C 
BRANCH   9  10
ATOM     10  C   UNL     1      10.309   0.895   5.987  0.00  0.00    +0.000 C 
ATOM     11  C   UNL     1       9.870  -0.293   5.140  0.00  0.00    +0.000 C 
BRANCH  10  12
ATOM     12  O   UNL     1       9.869   0.668   7.333  0.00  0.00    +0.000 OA
ATOM     13  H   UNL     1       9.678  -0.280   7.432  0.00  0.00    +0.000 HD
ENDBRANCH  10  12
ENDBRANCH   9  10
ENDBRANCH   1   9
BRANCH   1  14
ATOM     14  C   UNL     1      12.875   3.358   5.873  0.00  0.00    +0.000 C 
BRANCH  14  15
ATOM     15  C   UNL     1      14.381   3.156   5.578  0.00  0.00    +0.000 C 
ATOM     16  C   UNL     1      14.788   1.689   5.516  0.00  0.00    +0.000 C 
BRANCH  15  17
ATOM     17  O   UNL     1      14.766   3.774   4.351  0.00  0.00    +0.000 OA
ATOM     18  H   UNL     1      15.105   3.043   3.796  0.00  0.00    +0.000 HD
ENDBRANCH  15  17
ENDBRANCH  14  15
ENDBRANCH   1  14
TORSDOF 7
ENDMDL
