MODEL 1
REMARK VINA RESULT:    -5.453      0.000      0.000
REMARK INTER + INTRA:          -7.748
REMARK INTER:                  -7.366
REMARK INTRA:                  -0.382
REMARK UNBOUND:                -0.382
REMARK  Name = 
REMARK  10 active torsions:
REMARK  status: ('A' for Active; 'I' for Inactive)
REMARK    1  A    between atoms: C_1  and  C_2
REMARK    2  A    between atoms: C_5  and  N_8
REMARK    3  A    between atoms: N_8  and  C_9
REMARK    4  A    between atoms: N_8  and  C_13
REMARK    5  A    between atoms: C_9  and  C_10
REMARK    6  A    between atoms: C_10  and  C_11
REMARK    7  A    between atoms: C_10  and  O_12
REMARK    8  A    between atoms: C_13  and  C_14
REMARK    9  A    between atoms: C_14  and  C_15
REMARK   10  A    between atoms: C_14  and  O_16
REMARK                            x       y       z     vdW  Elec       q    Type
REMARK                         _______ _______ _______ _____ _____    ______ ____
ROOT
ATOM      1  N   UNL     1      -4.919  12.161  -6.512  0.00  0.00    +0.000 N 
ENDROOT
BRANCH   1   6
ATOM      2  C   UNL     1      -4.040  17.012  -9.515  0.00  0.00    +0.000 C 
ATOM      3  C   UNL     1      -4.249  15.742  -8.748  0.00  0.00    +0.000 A 
ATOM      4  C   UNL     1      -5.138  14.773  -9.200  0.00  0.00    +0.000 A 
ATOM      5  C   UNL     1      -5.353  13.598  -8.461  0.00  0.00    +0.000 A 
ATOM      6  C   UNL     1      -4.715  13.344  -7.234  0.00  0.00    +0.000 A 
ATOM      7  C   UNL     1      -3.821  14.344  -6.809  0.00  0.00    +0.000 A 
ATOM      8  C   UNL     1      -3.596  15.522  -7.539  0.00  0.00    +0.000 A 
ENDBRANCH   1   6
BRANCH   1   9
ATOM      9  C   UNL     1      -5.144  10.882  -7.228  0.00  0.00    +0.000 C 
BRANCH   9  10
ATOM     10  C   UNL     1      -4.313   9.713  -6.645  0.00  0.00    +0.000 C 
ATOM     11  C   UNL     1      -4.541   8.432  -7.438  0.00  0.00    +0.000 C 
BRANCH  10  12
ATOM     12  O   UNL     1      -2.910  10.012  -6.677  0.00  0.00    +0.000 OA
ATOM     13  H   UNL     1      -2.430   9.185  -6.848  0.00  0.00    +0.000 HD
ENDBRANCH  10  12
ENDBRANCH   9  10
ENDBRANCH   1   9
BRANCH   1  14
ATOM     14  C   UNL     1      -5.421  12.190  -5.114  0.00  0.00    +0.000 C 
BRANCH  14  15
ATOM     15  C   UNL     1      -4.276  12.353  -4.085  0.00  0.00    +0.000 C 
ATOM     16  C   UNL     1      -4.756  12.848  -2.727  0.00  0.00    +0.000 C 
BRANCH  15  17
ATOM     17  O   UNL     1      -3.569  11.129  -3.885  0.00  0.00    +0.000 OA
ATOM     18  H   UNL     1      -3.891  10.789  -3.026  0.00  0.00    +0.000 HD
ENDBRANCH  15  17
ENDBRANCH  14  15
ENDBRANCH   1  14
TORSDOF 7
ENDMDL
MODEL 2
REMARK VINA RESULT:    -5.423      1.299      1.481
REMARK INTER + INTRA:          -7.708
REMARK INTER:                  -7.180
REMARK INTRA:                  -0.528
REMARK UNBOUND:                -0.382
REMARK  Name = 
REMARK  10 active torsions:
REMARK  status: ('A' for Active; 'I' for Inactive)
REMARK    1  A    between atoms: C_1  and  C_2
REMARK    2  A    between atoms: C_5  and  N_8
REMARK    3  A    between atoms: N_8  and  C_9
REMARK    4  A    between atoms: N_8  and  C_13
REMARK    5  A    between atoms: C_9  and  C_10
REMARK    6  A    between atoms: C_10  and  C_11
REMARK    7  A    between atoms: C_10  and  O_12
REMARK    8  A    between atoms: C_13  and  C_14
REMARK    9  A    between atoms: C_14  and  C_15
REMARK   10  A    between atoms: C_14  and  O_16
REMARK                            x       y       z     vdW  Elec       q    Type
REMARK                         _______ _______ _______ _____ _____    ______ ____
ROOT
ATOM      1  N   UNL     1      -4.370  12.485  -6.247  0.00  0.00    +0.000 N 
ENDROOT
BRANCH   1   6
ATOM      2  C   UNL     1      -3.288  17.576  -8.746  0.00  0.00    +0.000 C 
ATOM      3  C   UNL     1      -3.551  16.244  -8.112  0.00  0.00    +0.000 A 
ATOM      4  C   UNL     1      -4.534  15.397  -8.612  0.00  0.00    +0.000 A 
ATOM      5  C   UNL     1      -4.797  14.163  -7.996  0.00  0.00    +0.000 A 
ATOM      6  C   UNL     1      -4.116  13.726  -6.846  0.00  0.00    +0.000 A 
ATOM      7  C   UNL     1      -3.128  14.607  -6.369  0.00  0.00    +0.000 A 
ATOM      8  C   UNL     1      -2.853  15.843  -6.977  0.00  0.00    +0.000 A 
ENDBRANCH   1   6
BRANCH   1   9
ATOM      9  C   UNL     1      -4.559  11.279  -7.089  0.00  0.00    +0.000 C 
BRANCH   9  10
ATOM     10  C   UNL     1      -5.949  10.624  -6.895  0.00  0.00    +0.000 C 
ATOM     11  C   UNL     1      -6.924  11.085  -7.973  0.00  0.00    +0.000 C 
BRANCH  10  12
ATOM     12  O   UNL     1      -5.858   9.195  -6.960  0.00  0.00    +0.000 OA
ATOM     13  H   UNL     1      -5.329   8.891  -6.204  0.00  0.00    +0.000 HD
ENDBRANCH  10  12
ENDBRANCH   9  10
ENDBRANCH   1   9
BRANCH   1  14
ATOM     14  C   UNL     1      -4.954  12.394  -4.885  0.00  0.00    +0.000 C 
BRANCH  14  15
ATOM     15  C   UNL     1      -3.879  12.124  -3.805  0.00  0.00    +0.000 C 
ATOM     16  C   UNL     1      -4.278  12.626  -2.422  0.00  0.00    +0.000 C 
BRANCH  15  17
ATOM     17  O   UNL     1      -3.575  10.734  -3.699  0.00  0.00    +0.000 OA
ATOM     18  H   UNL     1      -3.470  10.570  -2.740  0.00  0.00    +0.000 HD
ENDBRANCH  15  17
ENDBRANCH  14  15
ENDBRANCH   1  14
TORSDOF 7
ENDMDL
MODEL 3
REMARK VINA RESULT:    -5.389      1.016      3.151
REMARK INTER + INTRA:          -7.662
REMARK INTER:                  -7.538
REMARK INTRA:                  -0.125
REMARK UNBOUND:                -0.382
REMARK  Name = 
REMARK  10 active torsions:
REMARK  status: ('A' for Active; 'I' for Inactive)
REMARK    1  A    between atoms: C_1  and  C_2
REMARK    2  A    between atoms: C_5  and  N_8
REMARK    3  A    between atoms: N_8  and  C_9
REMARK    4  A    between atoms: N_8  and  C_13
REMARK    5  A    between atoms: C_9  and  C_10
REMARK    6  A    between atoms: C_10  and  C_11
REMARK    7  A    between atoms: C_10  and  O_12
REMARK    8  A    between atoms: C_13  and  C_14
REMARK    9  A    between atoms: C_14  and  C_15
REMARK   10  A    between atoms: C_14  and  O_16
REMARK                            x       y       z     vdW  Elec       q    Type
REMARK                         _______ _______ _______ _____ _____    ______ ____
ROOT
ATOM      1  N   UNL     1      -4.770  11.824  -6.314  0.00  0.00    +0.000 N 
ENDROOT
BRANCH   1   6
ATOM      2  C   UNL     1      -4.512  16.521  -9.661  0.00  0.00    +0.000 C 
ATOM      3  C   UNL     1      -4.559  15.293  -8.805  0.00  0.00    +0.000 A 
ATOM      4  C   UNL     1      -5.341  14.200  -9.164  0.00  0.00    +0.000 A 
ATOM      5  C   UNL     1      -5.405  13.063  -8.342  0.00  0.00    +0.000 A 
ATOM      6  C   UNL     1      -4.717  12.969  -7.119  0.00  0.00    +0.000 A 
ATOM      7  C   UNL     1      -3.935  14.090  -6.788  0.00  0.00    +0.000 A 
ATOM      8  C   UNL     1      -3.860  15.233  -7.602  0.00  0.00    +0.000 A 
ENDBRANCH   1   6
BRANCH   1   9
ATOM      9  C   UNL     1      -5.149  11.937  -4.885  0.00  0.00    +0.000 C 
BRANCH   9  10
ATOM     10  C   UNL     1      -3.922  11.988  -3.941  0.00  0.00    +0.000 C 
ATOM     11  C   UNL     1      -4.240  12.775  -2.675  0.00  0.00    +0.000 C 
BRANCH  10  12
ATOM     12  O   UNL     1      -3.516  10.668  -3.554  0.00  0.00    +0.000 OA
ATOM     13  H   UNL     1      -3.747  10.544  -2.618  0.00  0.00    +0.000 HD
ENDBRANCH  10  12
ENDBRANCH   9  10
ENDBRANCH   1   9
BRANCH   1  14
ATOM     14  C   UNL     1      -3.997  10.604  -6.660  0.00  0.00    +0.000 C 
BRANCH  14  15
ATOM     15  C   UNL     1      -4.880   9.521  -7.325  0.00  0.00    +0.000 C 
ATOM     16  C   UNL     1      -4.446   8.101  -6.985  0.00  0.00    +0.000 C 
BRANCH  15  17
ATOM     17  O   UNL     1      -6.252   9.664  -6.961  0.00  0.00    +0.000 OA
ATOM     18  H   UNL     1      -6.751   9.237  -7.687  0.00  0.00    +0.000 HD
ENDBRANCH  15  17
ENDBRANCH  14  15
ENDBRANCH   1  14
TORSDOF 7
ENDMDL
MODEL 4
REMARK VINA RESULT:    -4.956      1.703      3.598
REMARK INTER + INTRA:          -7.077
REMARK INTER:                  -6.619
REMARK INTRA:                  -0.458
REMARK UNBOUND:                -0.382
REMARK  Name = 
REMARK  10 active torsions:
REMARK  status: ('A' for Active; 'I' for Inactive)
REMARK    1  A    between atoms: C_1  and  C_2
REMARK    2  A    between atoms: C_5  and  N_8
REMARK    3  A    between atoms: N_8  and  C_9
REMARK    4  A    between atoms: N_8  and  C_13
REMARK    5  A    between atoms: C_9  and  C_10
REMARK    6  A    between atoms: C_10  and  C_11
REMARK    7  A    between atoms: C_10  and  O_12
REMARK    8  A    between atoms: C_13  and  C_14
REMARK    9  A    between atoms: C_14  and  C_15
REMARK   10  A    between atoms: C_14  and  O_16
REMARK                            x       y       z     vdW  Elec       q    Type
REMARK                         _______ _______ _______ _____ _____    ______ ____
ROOT
ATOM      1  N   UNL     1      -4.494  12.592  -6.141  0.00  0.00    +0.000 N 
ENDROOT
BRANCH   1   6
ATOM      2  C   UNL     1      -2.994  17.625  -8.540  0.00  0.00    +0.000 C 
ATOM      3  C   UNL     1      -3.401  16.330  -7.904  0.00  0.00    +0.000 A 
ATOM      4  C   UNL     1      -2.790  15.884  -6.737  0.00  0.00    +0.000 A 
ATOM      5  C   UNL     1      -3.154  14.656  -6.163  0.00  0.00    +0.000 A 
ATOM      6  C   UNL     1      -4.122  13.807  -6.730  0.00  0.00    +0.000 A 
ATOM      7  C   UNL     1      -4.720  14.291  -7.908  0.00  0.00    +0.000 A 
ATOM      8  C   UNL     1      -4.366  15.518  -8.492  0.00  0.00    +0.000 A 
ENDBRANCH   1   6
BRANCH   1   9
ATOM      9  C   UNL     1      -4.259  12.365  -4.695  0.00  0.00    +0.000 C 
BRANCH   9  10
ATOM     10  C   UNL     1      -5.560  12.432  -3.858  0.00  0.00    +0.000 C 
ATOM     11  C   UNL     1      -5.281  12.968  -2.459  0.00  0.00    +0.000 C 
BRANCH  10  12
ATOM     12  O   UNL     1      -6.528  13.290  -4.478  0.00  0.00    +0.000 OA
ATOM     13  H   UNL     1      -6.463  14.166  -4.063  0.00  0.00    +0.000 HD
ENDBRANCH  10  12
ENDBRANCH   9  10
ENDBRANCH   1   9
BRANCH   1  14
ATOM     14  C   UNL     1      -4.638  11.356  -6.952  0.00  0.00    +0.000 C 
BRANCH  14  15
ATOM     15  C   UNL     1      -6.086  10.809  -6.933  0.00  0.00    +0.000 C 
ATOM     16  C   UNL     1      -6.924  11.290  -8.112  0.00  0.00    +0.000 C 
BRANCH  15  17
ATOM     17  O   UNL     1      -6.110   9.383  -6.926  0.00  0.00    +0.000 OA
ATOM     18  H   UNL     1      -5.190   9.115  -6.730  0.00  0.00    +0.000 HD
ENDBRANCH  15  17
ENDBRANCH  14  15
ENDBRANCH   1  14
TORSDOF 7
ENDMDL
MODEL 5
REMARK VINA RESULT:    -4.881      1.479      3.522
REMARK INTER + INTRA:          -6.976
REMARK INTER:                  -6.602
REMARK INTRA:                  -0.375
REMARK UNBOUND:                -0.382
REMARK  Name = 
REMARK  10 active torsions:
REMARK  status: ('A' for Active; 'I' for Inactive)
REMARK    1  A    between atoms: C_1  and  C_2
REMARK    2  A    between atoms: C_5  and  N_8
REMARK    3  A    between atoms: N_8  and  C_9
REMARK    4  A    between atoms: N_8  and  C_13
REMARK    5  A    between atoms: C_9  and  C_10
REMARK    6  A    between atoms: C_10  and  C_11
REMARK    7  A    between atoms: C_10  and  O_12
REMARK    8  A    between atoms: C_13  and  C_14
REMARK    9  A    between atoms: C_14  and  C_15
REMARK   10  A    between atoms: C_14  and  O_16
REMARK                            x       y       z     vdW  Elec       q    Type
REMARK                         _______ _______ _______ _____ _____    ______ ____
ROOT
ATOM      1  N   UNL     1      -5.520  12.593  -6.648  0.00  0.00    +0.000 N 
ENDROOT
BRANCH   1   6
ATOM      2  C   UNL     1      -3.943  17.116  -9.870  0.00  0.00    +0.000 C 
ATOM      3  C   UNL     1      -4.371  15.956  -9.024  0.00  0.00    +0.000 A 
ATOM      4  C   UNL     1      -3.823  15.752  -7.762  0.00  0.00    +0.000 A 
ATOM      5  C   UNL     1      -4.206  14.645  -6.986  0.00  0.00    +0.000 A 
ATOM      6  C   UNL     1      -5.128  13.683  -7.435  0.00  0.00    +0.000 A 
ATOM      7  C   UNL     1      -5.663  13.922  -8.714  0.00  0.00    +0.000 A 
ATOM      8  C   UNL     1      -5.290  15.026  -9.500  0.00  0.00    +0.000 A 
ENDBRANCH   1   6
BRANCH   1   9
ATOM      9  C   UNL     1      -6.493  12.784  -5.545  0.00  0.00    +0.000 C 
BRANCH   9  10
ATOM     10  C   UNL     1      -5.891  12.471  -4.153  0.00  0.00    +0.000 C 
ATOM     11  C   UNL     1      -5.059  13.642  -3.643  0.00  0.00    +0.000 C 
BRANCH  10  12
ATOM     12  O   UNL     1      -6.924  12.208  -3.193  0.00  0.00    +0.000 OA
ATOM     13  H   UNL     1      -7.057  13.014  -2.666  0.00  0.00    +0.000 HD
ENDBRANCH  10  12
ENDBRANCH   9  10
ENDBRANCH   1   9
BRANCH   1  14
ATOM     14  C   UNL     1      -4.661  11.388  -6.521  0.00  0.00    +0.000 C 
BRANCH  14  15
ATOM     15  C   UNL     1      -5.222  10.183  -7.314  0.00  0.00    +0.000 C 
ATOM     16  C   UNL     1      -4.298   8.971  -7.297  0.00  0.00    +0.000 C 
BRANCH  15  17
ATOM     17  O   UNL     1      -6.496   9.774  -6.819  0.00  0.00    +0.000 OA
ATOM     18  H   UNL     1      -6.475   9.982  -5.863  0.00  0.00    +0.000 HD
ENDBRANCH  15  17
ENDBRANCH  14  15
ENDBRANCH   1  14
TORSDOF 7
ENDMDL
MODEL 6
REMARK VINA RESULT:    -4.800      1.754      2.114
REMARK INTER + INTRA:          -6.866
REMARK INTER:                  -6.368
REMARK INTRA:                  -0.498
REMARK UNBOUND:                -0.382
REMARK  Name = 
REMARK  10 active torsions:
REMARK  status: ('A' for Active; 'I' for Inactive)
REMARK    1  A    between atoms: C_1  and  C_2
REMARK    2  A    between atoms: C_5  and  N_8
REMARK    3  A    between atoms: N_8  and  C_9
REMARK    4  A    between atoms: N_8  and  C_13
REMARK    5  A    between atoms: C_9  and  C_10
REMARK    6  A    between atoms: C_10  and  C_11
REMARK    7  A    between atoms: C_10  and  O_12
REMARK    8  A    between atoms: C_13  and  C_14
REMARK    9  A    between atoms: C_14  and  C_15
REMARK   10  A    between atoms: C_14  and  O_16
REMARK                            x       y       z     vdW  Elec       q    Type
REMARK                         _______ _______ _______ _____ _____    ______ ____
ROOT
ATOM      1  N   UNL     1      -3.796  13.226  -6.213  0.00  0.00    +0.000 N 
ENDROOT
BRANCH   1   6
ATOM      2  C   UNL     1      -2.111  18.394  -8.157  0.00  0.00    +0.000 C 
ATOM      3  C   UNL     1      -2.534  17.042  -7.669  0.00  0.00    +0.000 A 
ATOM      4  C   UNL     1      -3.661  16.416  -8.189  0.00  0.00    +0.000 A 
ATOM      5  C   UNL     1      -4.070  15.161  -7.707  0.00  0.00    +0.000 A 
ATOM      6  C   UNL     1      -3.394  14.485  -6.675  0.00  0.00    +0.000 A 
ATOM      7  C   UNL     1      -2.258  15.147  -6.175  0.00  0.00    +0.000 A 
ATOM      8  C   UNL     1      -1.837  16.401  -6.649  0.00  0.00    +0.000 A 
ENDBRANCH   1   6
BRANCH   1   9
ATOM      9  C   UNL     1      -4.347  12.227  -7.160  0.00  0.00    +0.000 C 
BRANCH   9  10
ATOM     10  C   UNL     1      -4.341  10.789  -6.587  0.00  0.00    +0.000 C 
ATOM     11  C   UNL     1      -5.506   9.977  -7.140  0.00  0.00    +0.000 C 
BRANCH  10  12
ATOM     12  O   UNL     1      -3.125  10.106  -6.921  0.00  0.00    +0.000 OA
ATOM     13  H   UNL     1      -2.947   9.450  -6.227  0.00  0.00    +0.000 HD
ENDBRANCH  10  12
ENDBRANCH   9  10
ENDBRANCH   1   9
BRANCH   1  14
ATOM     14  C   UNL     1      -4.173  13.013  -4.792  0.00  0.00    +0.000 C 
BRANCH  14  15
ATOM     15  C   UNL     1      -5.612  13.496  -4.490  0.00  0.00    +0.000 C 
ATOM     16  C   UNL     1      -6.482  12.424  -3.844  0.00  0.00    +0.000 C 
BRANCH  15  17
ATOM     17  O   UNL     1      -5.616  14.641  -3.639  0.00  0.00    +0.000 OA
ATOM     18  H   UNL     1      -5.049  15.296  -4.093  0.00  0.00    +0.000 HD
ENDBRANCH  15  17
ENDBRANCH  14  15
ENDBRANCH   1  14
TORSDOF 7
ENDMDL
MODEL 7
REMARK VINA RESULT:    -4.786      3.751      5.913
REMARK INTER + INTRA:          -6.848
REMARK INTER:                  -6.320
REMARK INTRA:                  -0.528
REMARK UNBOUND:                -0.382
REMARK  Name = 
REMARK  10 active torsions:
REMARK  status: ('A' for Active; 'I' for Inactive)
REMARK    1  A    between atoms: C_1  and  C_2
REMARK    2  A    between atoms: C_5  and  N_8
REMARK    3  A    between atoms: N_8  and  C_9
REMARK    4  A    between atoms: N_8  and  C_13
REMARK    5  A    between atoms: C_9  and  C_10
REMARK    6  A    between atoms: C_10  and  C_11
REMARK    7  A    between atoms: C_10  and  O_12
REMARK    8  A    between atoms: C_13  and  C_14
REMARK    9  A    between atoms: C_14  and  C_15
REMARK   10  A    between atoms: C_14  and  O_16
REMARK                            x       y       z     vdW  Elec       q    Type
REMARK                         _______ _______ _______ _____ _____    ______ ____
ROOT
ATOM      1  N   UNL     1      -4.656  13.462  -2.213  0.00  0.00    +0.000 N 
ENDROOT
BRANCH   1   6
ATOM      2  C   UNL     1      -6.470  10.982  -7.100  0.00  0.00    +0.000 C 
ATOM      3  C   UNL     1      -5.996  11.603  -5.822  0.00  0.00    +0.000 A 
ATOM      4  C   UNL     1      -6.897  11.960  -4.825  0.00  0.00    +0.000 A 
ATOM      5  C   UNL     1      -6.450  12.570  -3.641  0.00  0.00    +0.000 A 
ATOM      6  C   UNL     1      -5.097  12.872  -3.404  0.00  0.00    +0.000 A 
ATOM      7  C   UNL     1      -4.214  12.495  -4.433  0.00  0.00    +0.000 A 
ATOM      8  C   UNL     1      -4.648  11.883  -5.621  0.00  0.00    +0.000 A 
ENDBRANCH   1   6
BRANCH   1   9
ATOM      9  C   UNL     1      -5.355  14.652  -1.670  0.00  0.00    +0.000 C 
BRANCH   9  10
ATOM     10  C   UNL     1      -5.821  14.457  -0.206  0.00  0.00    +0.000 C 
ATOM     11  C   UNL     1      -6.600  15.672   0.284  0.00  0.00    +0.000 C 
BRANCH  10  12
ATOM     12  O   UNL     1      -6.668  13.307  -0.084  0.00  0.00    +0.000 OA
ATOM     13  H   UNL     1      -6.449  12.858   0.749  0.00  0.00    +0.000 HD
ENDBRANCH  10  12
ENDBRANCH   9  10
ENDBRANCH   1   9
BRANCH   1  14
ATOM     14  C   UNL     1      -3.258  13.290  -1.741  0.00  0.00    +0.000 C 
BRANCH  14  15
ATOM     15  C   UNL     1      -2.485  14.630  -1.702  0.00  0.00    +0.000 C 
ATOM     16  C   UNL     1      -1.523  14.733  -0.524  0.00  0.00    +0.000 C 
BRANCH  15  17
ATOM     17  O   UNL     1      -1.740  14.844  -2.900  0.00  0.00    +0.000 OA
ATOM     18  H   UNL     1      -2.111  14.209  -3.545  0.00  0.00    +0.000 HD
ENDBRANCH  15  17
ENDBRANCH  14  15
ENDBRANCH   1  14
TORSDOF 7
ENDMDL
MODEL 8
REMARK VINA RESULT:    -4.728      3.363      5.723
REMARK INTER + INTRA:          -6.768
REMARK INTER:                  -6.265
REMARK INTRA:                  -0.504
REMARK UNBOUND:                -0.382
REMARK  Name = 
REMARK  10 active torsions:
REMARK  status: ('A' for Active; 'I' for Inactive)
REMARK    1  A    between atoms: C_1  and  C_2
REMARK    2  A    between atoms: C_5  and  N_8
REMARK    3  A    between atoms: N_8  and  C_9
REMARK    4  A    between atoms: N_8  and  C_13
REMARK    5  A    between atoms: C_9  and  C_10
REMARK    6  A    between atoms: C_10  and  C_11
REMARK    7  A    between atoms: C_10  and  O_12
REMARK    8  A    between atoms: C_13  and  C_14
REMARK    9  A    between atoms: C_14  and  C_15
REMARK   10  A    between atoms: C_14  and  O_16
REMARK                            x       y       z     vdW  Elec       q    Type
REMARK                         _______ _______ _______ _____ _____    ______ ____
ROOT
ATOM      1  N   UNL     1      -4.282  13.854  -2.324  0.00  0.00    +0.000 N 
ENDROOT
BRANCH   1   6
ATOM      2  C   UNL     1      -4.383  10.851  -7.254  0.00  0.00    +0.000 C 
ATOM      3  C   UNL     1      -4.334  11.638  -5.980  0.00  0.00    +0.000 A 
ATOM      4  C   UNL     1      -3.912  11.049  -4.792  0.00  0.00    +0.000 A 
ATOM      5  C   UNL     1      -3.896  11.783  -3.595  0.00  0.00    +0.000 A 
ATOM      6  C   UNL     1      -4.319  13.122  -3.518  0.00  0.00    +0.000 A 
ATOM      7  C   UNL     1      -4.737  13.685  -4.737  0.00  0.00    +0.000 A 
ATOM      8  C   UNL     1      -4.756  12.963  -5.942  0.00  0.00    +0.000 A 
ENDBRANCH   1   6
BRANCH   1   9
ATOM      9  C   UNL     1      -3.248  13.560  -1.303  0.00  0.00    +0.000 C 
BRANCH   9  10
ATOM     10  C   UNL     1      -2.019  14.497  -1.406  0.00  0.00    +0.000 C 
ATOM     11  C   UNL     1      -1.953  15.442  -0.213  0.00  0.00    +0.000 C 
BRANCH  10  12
ATOM     12  O   UNL     1      -0.799  13.744  -1.445  0.00  0.00    +0.000 OA
ATOM     13  H   UNL     1      -1.020  12.806  -1.321  0.00  0.00    +0.000 HD
ENDBRANCH  10  12
ENDBRANCH   9  10
ENDBRANCH   1   9
BRANCH   1  14
ATOM     14  C   UNL     1      -5.493  14.541  -1.806  0.00  0.00    +0.000 C 
BRANCH  14  15
ATOM     15  C   UNL     1      -5.686  14.318  -0.286  0.00  0.00    +0.000 C 
ATOM     16  C   UNL     1      -5.969  15.606   0.477  0.00  0.00    +0.000 C 
BRANCH  15  17
ATOM     17  O   UNL     1      -6.747  13.403  -0.018  0.00  0.00    +0.000 OA
ATOM     18  H   UNL     1      -7.351  13.485  -0.784  0.00  0.00    +0.000 HD
ENDBRANCH  15  17
ENDBRANCH  14  15
ENDBRANCH   1  14
TORSDOF 7
ENDMDL
MODEL 9
REMARK VINA RESULT:    -4.618      2.454      4.032
REMARK INTER + INTRA:          -6.621
REMARK INTER:                  -5.906
REMARK INTRA:                  -0.715
REMARK UNBOUND:                -0.382
REMARK  Name = 
REMARK  10 active torsions:
REMARK  status: ('A' for Active; 'I' for Inactive)
REMARK    1  A    between atoms: C_1  and  C_2
REMARK    2  A    between atoms: C_5  and  N_8
REMARK    3  A    between atoms: N_8  and  C_9
REMARK    4  A    between atoms: N_8  and  C_13
REMARK    5  A    between atoms: C_9  and  C_10
REMARK    6  A    between atoms: C_10  and  C_11
REMARK    7  A    between atoms: C_10  and  O_12
REMARK    8  A    between atoms: C_13  and  C_14
REMARK    9  A    between atoms: C_14  and  C_15
REMARK   10  A    between atoms: C_14  and  O_16
REMARK                            x       y       z     vdW  Elec       q    Type
REMARK                         _______ _______ _______ _____ _____    ______ ____
ROOT
ATOM      1  N   UNL     1      -4.103  14.697  -6.589  0.00  0.00    +0.000 N 
ENDROOT
BRANCH   1   6
ATOM      2  C   UNL     1      -6.112  15.032 -11.991  0.00  0.00    +0.000 C 
ATOM      3  C   UNL     1      -5.612  14.953 -10.581  0.00  0.00    +0.000 A 
ATOM      4  C   UNL     1      -4.935  16.021 -10.003  0.00  0.00    +0.000 A 
ATOM      5  C   UNL     1      -4.443  15.931  -8.690  0.00  0.00    +0.000 A 
ATOM      6  C   UNL     1      -4.580  14.773  -7.904  0.00  0.00    +0.000 A 
ATOM      7  C   UNL     1      -5.271  13.714  -8.520  0.00  0.00    +0.000 A 
ATOM      8  C   UNL     1      -5.770  13.792  -9.831  0.00  0.00    +0.000 A 
ENDBRANCH   1   6
BRANCH   1   9
ATOM      9  C   UNL     1      -3.342  15.829  -6.007  0.00  0.00    +0.000 C 
BRANCH   9  10
ATOM     10  C   UNL     1      -1.809  15.636  -6.110  0.00  0.00    +0.000 C 
ATOM     11  C   UNL     1      -1.151  16.846  -6.763  0.00  0.00    +0.000 C 
BRANCH  10  12
ATOM     12  O   UNL     1      -1.225  15.459  -4.812  0.00  0.00    +0.000 OA
ATOM     13  H   UNL     1      -0.687  14.650  -4.832  0.00  0.00    +0.000 HD
ENDBRANCH  10  12
ENDBRANCH   9  10
ENDBRANCH   1   9
BRANCH   1  14
ATOM     14  C   UNL     1      -3.876  13.386  -5.928  0.00  0.00    +0.000 C 
BRANCH  14  15
ATOM     15  C   UNL     1      -4.350  13.384  -4.455  0.00  0.00    +0.000 C 
ATOM     16  C   UNL     1      -5.192  12.165  -4.098  0.00  0.00    +0.000 C 
BRANCH  15  17
ATOM     17  O   UNL     1      -3.251  13.443  -3.547  0.00  0.00    +0.000 OA
ATOM     18  H   UNL     1      -2.454  13.445  -4.115  0.00  0.00    +0.000 HD
ENDBRANCH  15  17
ENDBRANCH  14  15
ENDBRANCH   1  14
TORSDOF 7
ENDMDL
