MODEL 1
REMARK VINA RESULT:    -4.053      0.000      0.000
REMARK INTER + INTRA:          -4.446
REMARK INTER:                  -4.408
REMARK INTRA:                  -0.038
REMARK UNBOUND:                -0.038
REMARK  Name = 
REMARK  3 active torsions:
REMARK  status: ('A' for Active; 'I' for Inactive)
REMARK    1  A    between atoms: C_1  and  O_2
REMARK    2  A    between atoms: O_2  and  C_3
REMARK    3  A    between atoms: C_8  and  O_9
REMARK                            x       y       z     vdW  Elec       q    Type
REMARK                         _______ _______ _______ _____ _____    ______ ____
ROOT
ATOM      1  C   UNL     1      -6.240   8.166 -17.873  0.00  0.00    +0.000 A 
ATOM      2  C   UNL     1      -7.038   7.208 -18.497  0.00  0.00    +0.000 A 
ATOM      3  C   UNL     1      -7.456   6.075 -17.787  0.00  0.00    +0.000 A 
ATOM      4  C   UNL     1      -7.077   5.895 -16.455  0.00  0.00    +0.000 A 
ATOM      5  C   UNL     1      -6.280   6.848 -15.825  0.00  0.00    +0.000 A 
ATOM      6  C   UNL     1      -5.871   7.968 -16.536  0.00  0.00    +0.000 A 
ENDROOT
BRANCH   1   8
ATOM      7  C   UNL     1      -6.279   9.656 -19.723  0.00  0.00    +0.000 C 
ATOM      8  O   UNL     1      -5.760   9.317 -18.443  0.00  0.00    +0.000 OA
ENDBRANCH   1   8
BRANCH   6   9
ATOM      9  O   UNL     1      -5.088   8.891 -15.895  0.00  0.00    +0.000 OA
ATOM     10  H   UNL     1      -5.581   9.113 -15.083  0.00  0.00    +0.000 HD
ENDBRANCH   6   9
TORSDOF 2
ENDMDL
MODEL 2
REMARK VINA RESULT:    -3.858      2.375      3.086
REMARK INTER + INTRA:          -4.234
REMARK INTER:                  -4.184
REMARK INTRA:                  -0.051
REMARK UNBOUND:                -0.038
REMARK  Name = 
REMARK  3 active torsions:
REMARK  status: ('A' for Active; 'I' for Inactive)
REMARK    1  A    between atoms: C_1  and  O_2
REMARK    2  A    between atoms: O_2  and  C_3
REMARK    3  A    between atoms: C_8  and  O_9
REMARK                            x       y       z     vdW  Elec       q    Type
REMARK                         _______ _______ _______ _____ _____    ______ ____
ROOT
ATOM      1  C   UNL     1      -6.551   6.366 -18.332  0.00  0.00    +0.000 A 
ATOM      2  C   UNL     1      -6.106   7.648 -18.652  0.00  0.00    +0.000 A 
ATOM      3  C   UNL     1      -5.774   8.548 -17.632  0.00  0.00    +0.000 A 
ATOM      4  C   UNL     1      -5.886   8.172 -16.292  0.00  0.00    +0.000 A 
ATOM      5  C   UNL     1      -6.330   6.893 -15.964  0.00  0.00    +0.000 A 
ATOM      6  C   UNL     1      -6.657   6.007 -16.983  0.00  0.00    +0.000 A 
ENDROOT
BRANCH   1   8
ATOM      7  C   UNL     1      -5.939   5.030 -20.200  0.00  0.00    +0.000 C 
ATOM      8  O   UNL     1      -6.910   5.386 -19.223  0.00  0.00    +0.000 OA
ENDBRANCH   1   8
BRANCH   6   9
ATOM      9  O   UNL     1      -7.091   4.755 -16.636  0.00  0.00    +0.000 OA
ATOM     10  H   UNL     1      -7.608   4.449 -17.405  0.00  0.00    +0.000 HD
ENDBRANCH   6   9
TORSDOF 2
ENDMDL
MODEL 3
REMARK VINA RESULT:    -3.604      2.096      2.747
REMARK INTER + INTRA:          -3.958
REMARK INTER:                  -3.910
REMARK INTRA:                  -0.048
REMARK UNBOUND:                -0.038
REMARK  Name = 
REMARK  3 active torsions:
REMARK  status: ('A' for Active; 'I' for Inactive)
REMARK    1  A    between atoms: C_1  and  O_2
REMARK    2  A    between atoms: O_2  and  C_3
REMARK    3  A    between atoms: C_8  and  O_9
REMARK                            x       y       z     vdW  Elec       q    Type
REMARK                         _______ _______ _______ _____ _____    ______ ____
ROOT
ATOM      1  C   UNL     1      -5.365   6.871 -18.322  0.00  0.00    +0.000 A 
ATOM      2  C   UNL     1      -5.359   7.716 -17.213  0.00  0.00    +0.000 A 
ATOM      3  C   UNL     1      -6.166   7.422 -16.106  0.00  0.00    +0.000 A 
ATOM      4  C   UNL     1      -6.979   6.288 -16.103  0.00  0.00    +0.000 A 
ATOM      5  C   UNL     1      -6.990   5.439 -17.208  0.00  0.00    +0.000 A 
ATOM      6  C   UNL     1      -6.188   5.738 -18.301  0.00  0.00    +0.000 A 
ENDROOT
BRANCH   1   8
ATOM      7  C   UNL     1      -5.043   8.078 -20.343  0.00  0.00    +0.000 C 
ATOM      8  O   UNL     1      -4.631   7.034 -19.469  0.00  0.00    +0.000 OA
ENDBRANCH   1   8
BRANCH   6   9
ATOM      9  O   UNL     1      -6.216   4.889 -19.375  0.00  0.00    +0.000 OA
ATOM     10  H   UNL     1      -7.159   4.666 -19.491  0.00  0.00    +0.000 HD
ENDBRANCH   6   9
TORSDOF 2
ENDMDL
MODEL 4
REMARK VINA RESULT:    -3.450     23.583     23.940
REMARK INTER + INTRA:          -3.790
REMARK INTER:                  -3.751
REMARK INTRA:                  -0.039
REMARK UNBOUND:                -0.038
REMARK  Name = 
REMARK  3 active torsions:
REMARK  status: ('A' for Active; 'I' for Inactive)
REMARK    1  A    between atoms: C_1  and  O_2
REMARK    2  A    between atoms: O_2  and  C_3
REMARK    3  A    between atoms: C_8  and  O_9
REMARK                            x       y       z     vdW  Elec       q    Type
REMARK                         _______ _______ _______ _____ _____    ______ ____
ROOT
ATOM      1  C   UNL     1       7.821  20.262  -2.793  0.00  0.00    +0.000 A 
ATOM      2  C   UNL     1       9.130  19.840  -3.020  0.00  0.00    +0.000 A 
ATOM      3  C   UNL     1       9.640  18.736  -2.325  0.00  0.00    +0.000 A 
ATOM      4  C   UNL     1       8.845  18.051  -1.404  0.00  0.00    +0.000 A 
ATOM      5  C   UNL     1       7.536  18.465  -1.173  0.00  0.00    +0.000 A 
ATOM      6  C   UNL     1       7.039  19.562  -1.866  0.00  0.00    +0.000 A 
ENDROOT
BRANCH   1   8
ATOM      7  C   UNL     1       7.706  21.725  -4.662  0.00  0.00    +0.000 C 
ATOM      8  O   UNL     1       7.194  21.321  -3.398  0.00  0.00    +0.000 OA
ENDBRANCH   1   8
BRANCH   6   9
ATOM      9  O   UNL     1       5.749  19.951  -1.622  0.00  0.00    +0.000 OA
ATOM     10  H   UNL     1       5.534  20.568  -2.346  0.00  0.00    +0.000 HD
ENDBRANCH   6   9
TORSDOF 2
ENDMDL
MODEL 5
REMARK VINA RESULT:    -3.408     23.451     24.464
REMARK INTER + INTRA:          -3.744
REMARK INTER:                  -3.693
REMARK INTRA:                  -0.052
REMARK UNBOUND:                -0.038
REMARK  Name = 
REMARK  3 active torsions:
REMARK  status: ('A' for Active; 'I' for Inactive)
REMARK    1  A    between atoms: C_1  and  O_2
REMARK    2  A    between atoms: O_2  and  C_3
REMARK    3  A    between atoms: C_8  and  O_9
REMARK                            x       y       z     vdW  Elec       q    Type
REMARK                         _______ _______ _______ _____ _____    ______ ____
ROOT
ATOM      1  C   UNL     1       8.765  18.465  -1.831  0.00  0.00    +0.000 A 
ATOM      2  C   UNL     1       9.976  19.045  -2.206  0.00  0.00    +0.000 A 
ATOM      3  C   UNL     1       9.984  20.223  -2.962  0.00  0.00    +0.000 A 
ATOM      4  C   UNL     1       8.784  20.824  -3.348  0.00  0.00    +0.000 A 
ATOM      5  C   UNL     1       7.570  20.251  -2.977  0.00  0.00    +0.000 A 
ATOM      6  C   UNL     1       7.572  19.082  -2.226  0.00  0.00    +0.000 A 
ENDROOT
BRANCH   1   8
ATOM      7  C   UNL     1       9.155  17.327   0.218  0.00  0.00    +0.000 C 
ATOM      8  O   UNL     1       8.608  17.318  -1.095  0.00  0.00    +0.000 OA
ENDBRANCH   1   8
BRANCH   6   9
ATOM      9  O   UNL     1       6.366  18.538  -1.874  0.00  0.00    +0.000 OA
ATOM     10  H   UNL     1       5.847  18.527  -2.701  0.00  0.00    +0.000 HD
ENDBRANCH   6   9
TORSDOF 2
ENDMDL
MODEL 6
REMARK VINA RESULT:    -3.390      2.146      3.011
REMARK INTER + INTRA:          -3.725
REMARK INTER:                  -3.673
REMARK INTRA:                  -0.052
REMARK UNBOUND:                -0.038
REMARK  Name = 
REMARK  3 active torsions:
REMARK  status: ('A' for Active; 'I' for Inactive)
REMARK    1  A    between atoms: C_1  and  O_2
REMARK    2  A    between atoms: O_2  and  C_3
REMARK    3  A    between atoms: C_8  and  O_9
REMARK                            x       y       z     vdW  Elec       q    Type
REMARK                         _______ _______ _______ _____ _____    ______ ____
ROOT
ATOM      1  C   UNL     1      -6.165   5.755 -18.390  0.00  0.00    +0.000 A 
ATOM      2  C   UNL     1      -6.990   5.451 -17.308  0.00  0.00    +0.000 A 
ATOM      3  C   UNL     1      -6.986   6.270 -16.173  0.00  0.00    +0.000 A 
ATOM      4  C   UNL     1      -6.159   7.393 -16.113  0.00  0.00    +0.000 A 
ATOM      5  C   UNL     1      -5.331   7.704 -17.189  0.00  0.00    +0.000 A 
ATOM      6  C   UNL     1      -5.341   6.885 -18.312  0.00  0.00    +0.000 A 
ENDROOT
BRANCH   1   8
ATOM      7  C   UNL     1      -7.190   5.094 -20.429  0.00  0.00    +0.000 C 
ATOM      8  O   UNL     1      -6.065   5.045 -19.559  0.00  0.00    +0.000 OA
ENDBRANCH   1   8
BRANCH   6   9
ATOM      9  O   UNL     1      -4.519   7.211 -19.357  0.00  0.00    +0.000 OA
ATOM     10  H   UNL     1      -4.221   8.120 -19.164  0.00  0.00    +0.000 HD
ENDBRANCH   6   9
TORSDOF 2
ENDMDL
MODEL 7
REMARK VINA RESULT:    -3.351      1.286      3.106
REMARK INTER + INTRA:          -3.682
REMARK INTER:                  -3.636
REMARK INTRA:                  -0.046
REMARK UNBOUND:                -0.038
REMARK  Name = 
REMARK  3 active torsions:
REMARK  status: ('A' for Active; 'I' for Inactive)
REMARK    1  A    between atoms: C_1  and  O_2
REMARK    2  A    between atoms: O_2  and  C_3
REMARK    3  A    between atoms: C_8  and  O_9
REMARK                            x       y       z     vdW  Elec       q    Type
REMARK                         _______ _______ _______ _____ _____    ______ ____
ROOT
ATOM      1  C   UNL     1      -6.267   7.122 -17.374  0.00  0.00    +0.000 A 
ATOM      2  C   UNL     1      -6.677   6.638 -18.616  0.00  0.00    +0.000 A 
ATOM      3  C   UNL     1      -6.622   7.467 -19.743  0.00  0.00    +0.000 A 
ATOM      4  C   UNL     1      -6.161   8.780 -19.634  0.00  0.00    +0.000 A 
ATOM      5  C   UNL     1      -5.749   9.272 -18.397  0.00  0.00    +0.000 A 
ATOM      6  C   UNL     1      -5.807   8.442 -17.285  0.00  0.00    +0.000 A 
ENDROOT
BRANCH   1   8
ATOM      7  C   UNL     1      -7.415   5.630 -15.924  0.00  0.00    +0.000 C 
ATOM      8  O   UNL     1      -6.267   6.427 -16.192  0.00  0.00    +0.000 OA
ENDBRANCH   1   8
BRANCH   6   9
ATOM      9  O   UNL     1      -5.398   8.947 -16.080  0.00  0.00    +0.000 OA
ATOM     10  H   UNL     1      -5.720   8.306 -15.418  0.00  0.00    +0.000 HD
ENDBRANCH   6   9
TORSDOF 2
ENDMDL
MODEL 8
REMARK VINA RESULT:    -3.295     23.651     24.605
REMARK INTER + INTRA:          -3.621
REMARK INTER:                  -3.569
REMARK INTRA:                  -0.052
REMARK UNBOUND:                -0.038
REMARK  Name = 
REMARK  3 active torsions:
REMARK  status: ('A' for Active; 'I' for Inactive)
REMARK    1  A    between atoms: C_1  and  O_2
REMARK    2  A    between atoms: O_2  and  C_3
REMARK    3  A    between atoms: C_8  and  O_9
REMARK                            x       y       z     vdW  Elec       q    Type
REMARK                         _______ _______ _______ _____ _____    ______ ____
ROOT
ATOM      1  C   UNL     1       8.577  18.738  -1.968  0.00  0.00    +0.000 A 
ATOM      2  C   UNL     1       9.912  19.140  -1.971  0.00  0.00    +0.000 A 
ATOM      3  C   UNL     1      10.791  18.657  -0.994  0.00  0.00    +0.000 A 
ATOM      4  C   UNL     1      10.340  17.773  -0.011  0.00  0.00    +0.000 A 
ATOM      5  C   UNL     1       9.007  17.367  -0.002  0.00  0.00    +0.000 A 
ATOM      6  C   UNL     1       8.143  17.852  -0.975  0.00  0.00    +0.000 A 
ENDROOT
BRANCH   1   8
ATOM      7  C   UNL     1       7.272  20.512  -2.862  0.00  0.00    +0.000 C 
ATOM      8  O   UNL     1       7.610  19.130  -2.859  0.00  0.00    +0.000 OA
ENDBRANCH   1   8
BRANCH   6   9
ATOM      9  O   UNL     1       6.838  17.438  -0.945  0.00  0.00    +0.000 OA
ATOM     10  H   UNL     1       6.885  16.465  -1.006  0.00  0.00    +0.000 HD
ENDBRANCH   6   9
TORSDOF 2
ENDMDL
