MODEL 1
REMARK VINA RESULT:    -6.136      0.000      0.000
REMARK INTER + INTRA:          -8.807
REMARK INTER:                  -8.288
REMARK INTRA:                  -0.519
REMARK UNBOUND:                -0.519
REMARK  Name = 
REMARK  10 active torsions:
REMARK  status: ('A' for Active; 'I' for Inactive)
REMARK    1  A    between atoms: C_1  and  C_2
REMARK    2  A    between atoms: C_5  and  N_8
REMARK    3  A    between atoms: N_8  and  C_9
REMARK    4  A    between atoms: N_8  and  C_13
REMARK    5  A    between atoms: C_9  and  C_10
REMARK    6  A    between atoms: C_10  and  C_11
REMARK    7  A    between atoms: C_10  and  O_12
REMARK    8  A    between atoms: C_13  and  C_14
REMARK    9  A    between atoms: C_14  and  C_15
REMARK   10  A    between atoms: C_14  and  O_16
REMARK                            x       y       z     vdW  Elec       q    Type
REMARK                         _______ _______ _______ _____ _____    ______ ____
ROOT
ATOM      1  N   UNL     1      12.482   1.273   7.152  0.00  0.00    +0.000 N 
ENDROOT
BRANCH   1   6
ATOM      2  C   UNL     1      10.148   2.998  12.143  0.00  0.00    +0.000 C 
ATOM      3  C   UNL     1      10.732   2.554  10.836  0.00  0.00    +0.000 A 
ATOM      4  C   UNL     1      10.723   1.213  10.469  0.00  0.00    +0.000 A 
ATOM      5  C   UNL     1      11.298   0.798   9.257  0.00  0.00    +0.000 A 
ATOM      6  C   UNL     1      11.927   1.690   8.369  0.00  0.00    +0.000 A 
ATOM      7  C   UNL     1      11.916   3.038   8.772  0.00  0.00    +0.000 A 
ATOM      8  C   UNL     1      11.342   3.466   9.980  0.00  0.00    +0.000 A 
ENDBRANCH   1   6
BRANCH   1   9
ATOM      9  C   UNL     1      11.715   0.378   6.253  0.00  0.00    +0.000 C 
BRANCH   9  10
ATOM     10  C   UNL     1      10.419   1.034   5.717  0.00  0.00    +0.000 C 
ATOM     11  C   UNL     1      10.218   0.718   4.240  0.00  0.00    +0.000 C 
BRANCH  10  12
ATOM     12  O   UNL     1       9.269   0.561   6.433  0.00  0.00    +0.000 OA
ATOM     13  H   UNL     1       9.493  -0.296   6.831  0.00  0.00    +0.000 HD
ENDBRANCH  10  12
ENDBRANCH   9  10
ENDBRANCH   1   9
BRANCH   1  14
ATOM     14  C   UNL     1      13.953   1.255   6.944  0.00  0.00    +0.000 C 
BRANCH  14  15
ATOM     15  C   UNL     1      14.368   1.987   5.645  0.00  0.00    +0.000 C 
ATOM     16  C   UNL     1      14.074   3.482   5.679  0.00  0.00    +0.000 C 
BRANCH  15  17
ATOM     17  O   UNL     1      15.756   1.815   5.364  0.00  0.00    +0.000 OA
ATOM     18  H   UNL     1      16.205   1.932   6.226  0.00  0.00    +0.000 HD
ENDBRANCH  15  17
ENDBRANCH  14  15
ENDBRANCH   1  14
TORSDOF 7
ENDMDL
MODEL 2
REMARK VINA RESULT:    -5.929      1.001      3.291
REMARK INTER + INTRA:          -8.528
REMARK INTER:                  -8.273
REMARK INTRA:                  -0.254
REMARK UNBOUND:                -0.519
REMARK  Name = 
REMARK  10 active torsions:
REMARK  status: ('A' for Active; 'I' for Inactive)
REMARK    1  A    between atoms: C_1  and  C_2
REMARK    2  A    between atoms: C_5  and  N_8
REMARK    3  A    between atoms: N_8  and  C_9
REMARK    4  A    between atoms: N_8  and  C_13
REMARK    5  A    between atoms: C_9  and  C_10
REMARK    6  A    between atoms: C_10  and  C_11
REMARK    7  A    between atoms: C_10  and  O_12
REMARK    8  A    between atoms: C_13  and  C_14
REMARK    9  A    between atoms: C_14  and  C_15
REMARK   10  A    between atoms: C_14  and  O_16
REMARK                            x       y       z     vdW  Elec       q    Type
REMARK                         _______ _______ _______ _____ _____    ______ ____
ROOT
ATOM      1  N   UNL     1      12.482   1.382   7.007  0.00  0.00    +0.000 N 
ENDROOT
BRANCH   1   6
ATOM      2  C   UNL     1      10.211   2.641  12.163  0.00  0.00    +0.000 C 
ATOM      3  C   UNL     1      10.778   2.319  10.815  0.00  0.00    +0.000 A 
ATOM      4  C   UNL     1      10.774   1.015  10.331  0.00  0.00    +0.000 A 
ATOM      5  C   UNL     1      11.335   0.714   9.079  0.00  0.00    +0.000 A 
ATOM      6  C   UNL     1      11.943   1.686   8.264  0.00  0.00    +0.000 A 
ATOM      7  C   UNL     1      11.927   2.993   8.783  0.00  0.00    +0.000 A 
ATOM      8  C   UNL     1      11.368   3.308  10.033  0.00  0.00    +0.000 A 
ENDBRANCH   1   6
BRANCH   1   9
ATOM      9  C   UNL     1      13.953   1.329   6.823  0.00  0.00    +0.000 C 
BRANCH   9  10
ATOM     10  C   UNL     1      14.426   2.075   5.551  0.00  0.00    +0.000 C 
ATOM     11  C   UNL     1      14.223   3.579   5.695  0.00  0.00    +0.000 C 
BRANCH  10  12
ATOM     12  O   UNL     1      15.818   1.836   5.302  0.00  0.00    +0.000 OA
ATOM     13  H   UNL     1      16.265   1.740   6.159  0.00  0.00    +0.000 HD
ENDBRANCH  10  12
ENDBRANCH   9  10
ENDBRANCH   1   9
BRANCH   1  14
ATOM     14  C   UNL     1      11.705   1.607   5.762  0.00  0.00    +0.000 C 
BRANCH  14  15
ATOM     15  C   UNL     1      11.157   0.287   5.169  0.00  0.00    +0.000 C 
ATOM     16  C   UNL     1       9.754  -0.053   5.658  0.00  0.00    +0.000 C 
BRANCH  15  17
ATOM     17  O   UNL     1      11.131   0.320   3.743  0.00  0.00    +0.000 OA
ATOM     18  H   UNL     1      11.959  -0.122   3.465  0.00  0.00    +0.000 HD
ENDBRANCH  15  17
ENDBRANCH  14  15
ENDBRANCH   1  14
TORSDOF 7
ENDMDL
MODEL 3
REMARK VINA RESULT:    -5.695      2.803      5.555
REMARK INTER + INTRA:          -8.211
REMARK INTER:                  -7.507
REMARK INTRA:                  -0.704
REMARK UNBOUND:                -0.519
REMARK  Name = 
REMARK  10 active torsions:
REMARK  status: ('A' for Active; 'I' for Inactive)
REMARK    1  A    between atoms: C_1  and  C_2
REMARK    2  A    between atoms: C_5  and  N_8
REMARK    3  A    between atoms: N_8  and  C_9
REMARK    4  A    between atoms: N_8  and  C_13
REMARK    5  A    between atoms: C_9  and  C_10
REMARK    6  A    between atoms: C_10  and  C_11
REMARK    7  A    between atoms: C_10  and  O_12
REMARK    8  A    between atoms: C_13  and  C_14
REMARK    9  A    between atoms: C_14  and  C_15
REMARK   10  A    between atoms: C_14  and  O_16
REMARK                            x       y       z     vdW  Elec       q    Type
REMARK                         _______ _______ _______ _____ _____    ______ ____
ROOT
ATOM      1  N   UNL     1      12.394   1.500  10.284  0.00  0.00    +0.000 N 
ENDROOT
BRANCH   1   6
ATOM      2  C   UNL     1      14.304   3.372   5.168  0.00  0.00    +0.000 C 
ATOM      3  C   UNL     1      13.786   2.883   6.486  0.00  0.00    +0.000 A 
ATOM      4  C   UNL     1      13.293   3.773   7.434  0.00  0.00    +0.000 A 
ATOM      5  C   UNL     1      12.837   3.312   8.680  0.00  0.00    +0.000 A 
ATOM      6  C   UNL     1      12.869   1.955   9.048  0.00  0.00    +0.000 A 
ATOM      7  C   UNL     1      13.371   1.084   8.064  0.00  0.00    +0.000 A 
ATOM      8  C   UNL     1      13.829   1.531   6.814  0.00  0.00    +0.000 A 
ENDBRANCH   1   6
BRANCH   1   9
ATOM      9  C   UNL     1      12.049   2.471  11.351  0.00  0.00    +0.000 C 
BRANCH   9  10
ATOM     10  C   UNL     1      10.522   2.601  11.573  0.00  0.00    +0.000 C 
ATOM     11  C   UNL     1      10.137   4.044  11.876  0.00  0.00    +0.000 C 
BRANCH  10  12
ATOM     12  O   UNL     1       9.796   2.183  10.409  0.00  0.00    +0.000 OA
ATOM     13  H   UNL     1       9.093   2.833  10.243  0.00  0.00    +0.000 HD
ENDBRANCH  10  12
ENDBRANCH   9  10
ENDBRANCH   1   9
BRANCH   1  14
ATOM     14  C   UNL     1      12.690   0.126  10.763  0.00  0.00    +0.000 C 
BRANCH  14  15
ATOM     15  C   UNL     1      11.498  -0.838  10.546  0.00  0.00    +0.000 C 
ATOM     16  C   UNL     1      10.635  -1.014  11.789  0.00  0.00    +0.000 C 
BRANCH  15  17
ATOM     17  O   UNL     1      10.655  -0.401   9.481  0.00  0.00    +0.000 OA
ATOM     18  H   UNL     1      11.267  -0.154   8.759  0.00  0.00    +0.000 HD
ENDBRANCH  15  17
ENDBRANCH  14  15
ENDBRANCH   1  14
TORSDOF 7
ENDMDL
MODEL 4
REMARK VINA RESULT:    -5.628      2.121      2.277
REMARK INTER + INTRA:          -8.121
REMARK INTER:                  -7.711
REMARK INTRA:                  -0.410
REMARK UNBOUND:                -0.519
REMARK  Name = 
REMARK  10 active torsions:
REMARK  status: ('A' for Active; 'I' for Inactive)
REMARK    1  A    between atoms: C_1  and  C_2
REMARK    2  A    between atoms: C_5  and  N_8
REMARK    3  A    between atoms: N_8  and  C_9
REMARK    4  A    between atoms: N_8  and  C_13
REMARK    5  A    between atoms: C_9  and  C_10
REMARK    6  A    between atoms: C_10  and  C_11
REMARK    7  A    between atoms: C_10  and  O_12
REMARK    8  A    between atoms: C_13  and  C_14
REMARK    9  A    between atoms: C_14  and  C_15
REMARK   10  A    between atoms: C_14  and  O_16
REMARK                            x       y       z     vdW  Elec       q    Type
REMARK                         _______ _______ _______ _____ _____    ______ ____
ROOT
ATOM      1  N   UNL     1      11.963   1.585   6.938  0.00  0.00    +0.000 N 
ENDROOT
BRANCH   1   6
ATOM      2  C   UNL     1      12.715  -0.475  12.278  0.00  0.00    +0.000 C 
ATOM      3  C   UNL     1      12.510   0.081  10.902  0.00  0.00    +0.000 A 
ATOM      4  C   UNL     1      11.341  -0.177  10.194  0.00  0.00    +0.000 A 
ATOM      5  C   UNL     1      11.167   0.321   8.893  0.00  0.00    +0.000 A 
ATOM      6  C   UNL     1      12.151   1.075   8.228  0.00  0.00    +0.000 A 
ATOM      7  C   UNL     1      13.319   1.318   8.974  0.00  0.00    +0.000 A 
ATOM      8  C   UNL     1      13.505   0.828  10.277  0.00  0.00    +0.000 A 
ENDBRANCH   1   6
BRANCH   1   9
ATOM      9  C   UNL     1      10.631   1.500   6.292  0.00  0.00    +0.000 C 
BRANCH   9  10
ATOM     10  C   UNL     1      10.607   0.522   5.092  0.00  0.00    +0.000 C 
ATOM     11  C   UNL     1       9.647  -0.633   5.350  0.00  0.00    +0.000 C 
BRANCH  10  12
ATOM     12  O   UNL     1      10.188   1.188   3.893  0.00  0.00    +0.000 OA
ATOM     13  H   UNL     1      10.180   2.144   4.066  0.00  0.00    +0.000 HD
ENDBRANCH  10  12
ENDBRANCH   9  10
ENDBRANCH   1   9
BRANCH   1  14
ATOM     14  C   UNL     1      13.103   1.742   5.999  0.00  0.00    +0.000 C 
BRANCH  14  15
ATOM     15  C   UNL     1      13.618   3.200   5.942  0.00  0.00    +0.000 C 
ATOM     16  C   UNL     1      14.741   3.401   4.932  0.00  0.00    +0.000 C 
BRANCH  15  17
ATOM     17  O   UNL     1      12.571   4.116   5.626  0.00  0.00    +0.000 OA
ATOM     18  H   UNL     1      12.816   4.947   6.081  0.00  0.00    +0.000 HD
ENDBRANCH  15  17
ENDBRANCH  14  15
ENDBRANCH   1  14
TORSDOF 7
ENDMDL
MODEL 5
REMARK VINA RESULT:    -5.627      2.480      5.751
REMARK INTER + INTRA:          -8.119
REMARK INTER:                  -7.671
REMARK INTRA:                  -0.448
REMARK UNBOUND:                -0.519
REMARK  Name = 
REMARK  10 active torsions:
REMARK  status: ('A' for Active; 'I' for Inactive)
REMARK    1  A    between atoms: C_1  and  C_2
REMARK    2  A    between atoms: C_5  and  N_8
REMARK    3  A    between atoms: N_8  and  C_9
REMARK    4  A    between atoms: N_8  and  C_13
REMARK    5  A    between atoms: C_9  and  C_10
REMARK    6  A    between atoms: C_10  and  C_11
REMARK    7  A    between atoms: C_10  and  O_12
REMARK    8  A    between atoms: C_13  and  C_14
REMARK    9  A    between atoms: C_14  and  C_15
REMARK   10  A    between atoms: C_14  and  O_16
REMARK                            x       y       z     vdW  Elec       q    Type
REMARK                         _______ _______ _______ _____ _____    ______ ____
ROOT
ATOM      1  N   UNL     1      12.316   1.790   9.392  0.00  0.00    +0.000 N 
ENDROOT
BRANCH   1   6
ATOM      2  C   UNL     1      10.642   0.360   4.055  0.00  0.00    +0.000 C 
ATOM      3  C   UNL     1      11.082   0.707   5.444  0.00  0.00    +0.000 A 
ATOM      4  C   UNL     1      10.177   0.712   6.500  0.00  0.00    +0.000 A 
ATOM      5  C   UNL     1      10.589   1.068   7.795  0.00  0.00    +0.000 A 
ATOM      6  C   UNL     1      11.908   1.455   8.094  0.00  0.00    +0.000 A 
ATOM      7  C   UNL     1      12.796   1.437   7.003  0.00  0.00    +0.000 A 
ATOM      8  C   UNL     1      12.398   1.081   5.704  0.00  0.00    +0.000 A 
ENDBRANCH   1   6
BRANCH   1   9
ATOM      9  C   UNL     1      12.784   0.732  10.320  0.00  0.00    +0.000 C 
BRANCH   9  10
ATOM     10  C   UNL     1      14.300   0.824  10.620  0.00  0.00    +0.000 C 
ATOM     11  C   UNL     1      14.545   1.209  12.074  0.00  0.00    +0.000 C 
BRANCH  10  12
ATOM     12  O   UNL     1      14.950  -0.432  10.378  0.00  0.00    +0.000 OA
ATOM     13  H   UNL     1      14.958  -0.586   9.418  0.00  0.00    +0.000 HD
ENDBRANCH  10  12
ENDBRANCH   9  10
ENDBRANCH   1   9
BRANCH   1  14
ATOM     14  C   UNL     1      11.842   3.033  10.051  0.00  0.00    +0.000 C 
BRANCH  14  15
ATOM     15  C   UNL     1      10.899   2.740  11.243  0.00  0.00    +0.000 C 
ATOM     16  C   UNL     1      10.634   3.963  12.113  0.00  0.00    +0.000 C 
BRANCH  15  17
ATOM     17  O   UNL     1       9.642   2.227  10.806  0.00  0.00    +0.000 OA
ATOM     18  H   UNL     1       9.841   1.734   9.985  0.00  0.00    +0.000 HD
ENDBRANCH  15  17
ENDBRANCH  14  15
ENDBRANCH   1  14
TORSDOF 7
ENDMDL
MODEL 6
REMARK VINA RESULT:    -5.247      1.633      3.605
REMARK INTER + INTRA:          -7.606
REMARK INTER:                  -7.537
REMARK INTRA:                  -0.069
REMARK UNBOUND:                -0.519
REMARK  Name = 
REMARK  10 active torsions:
REMARK  status: ('A' for Active; 'I' for Inactive)
REMARK    1  A    between atoms: C_1  and  C_2
REMARK    2  A    between atoms: C_5  and  N_8
REMARK    3  A    between atoms: N_8  and  C_9
REMARK    4  A    between atoms: N_8  and  C_13
REMARK    5  A    between atoms: C_9  and  C_10
REMARK    6  A    between atoms: C_10  and  C_11
REMARK    7  A    between atoms: C_10  and  O_12
REMARK    8  A    between atoms: C_13  and  C_14
REMARK    9  A    between atoms: C_14  and  C_15
REMARK   10  A    between atoms: C_14  and  O_16
REMARK                            x       y       z     vdW  Elec       q    Type
REMARK                         _______ _______ _______ _____ _____    ______ ____
ROOT
ATOM      1  N   UNL     1      12.126   2.368   6.611  0.00  0.00    +0.000 N 
ENDROOT
BRANCH   1   6
ATOM      2  C   UNL     1      12.518   1.347  12.279  0.00  0.00    +0.000 C 
ATOM      3  C   UNL     1      12.430   1.632  10.811  0.00  0.00    +0.000 A 
ATOM      4  C   UNL     1      11.392   2.398  10.293  0.00  0.00    +0.000 A 
ATOM      5  C   UNL     1      11.298   2.637   8.912  0.00  0.00    +0.000 A 
ATOM      6  C   UNL     1      12.215   2.109   7.984  0.00  0.00    +0.000 A 
ATOM      7  C   UNL     1      13.252   1.341   8.544  0.00  0.00    +0.000 A 
ATOM      8  C   UNL     1      13.359   1.096   9.923  0.00  0.00    +0.000 A 
ENDBRANCH   1   6
BRANCH   1   9
ATOM      9  C   UNL     1      12.875   3.502   6.018  0.00  0.00    +0.000 C 
BRANCH   9  10
ATOM     10  C   UNL     1      14.328   3.127   5.635  0.00  0.00    +0.000 C 
ATOM     11  C   UNL     1      14.491   1.615   5.530  0.00  0.00    +0.000 C 
BRANCH  10  12
ATOM     12  O   UNL     1      14.693   3.702   4.373  0.00  0.00    +0.000 OA
ATOM     13  H   UNL     1      15.206   3.042   3.878  0.00  0.00    +0.000 HD
ENDBRANCH  10  12
ENDBRANCH   9  10
ENDBRANCH   1   9
BRANCH   1  14
ATOM     14  C   UNL     1      10.961   1.905   5.814  0.00  0.00    +0.000 C 
BRANCH  14  15
ATOM     15  C   UNL     1      11.105   0.430   5.370  0.00  0.00    +0.000 C 
ATOM     16  C   UNL     1       9.824  -0.377   5.547  0.00  0.00    +0.000 C 
BRANCH  15  17
ATOM     17  O   UNL     1      11.506   0.328   4.005  0.00  0.00    +0.000 OA
ATOM     18  H   UNL     1      10.672   0.353   3.493  0.00  0.00    +0.000 HD
ENDBRANCH  15  17
ENDBRANCH  14  15
ENDBRANCH   1  14
TORSDOF 7
ENDMDL
MODEL 7
REMARK VINA RESULT:    -5.243      2.890      4.704
REMARK INTER + INTRA:          -7.601
REMARK INTER:                  -7.061
REMARK INTRA:                  -0.540
REMARK UNBOUND:                -0.519
REMARK  Name = 
REMARK  10 active torsions:
REMARK  status: ('A' for Active; 'I' for Inactive)
REMARK    1  A    between atoms: C_1  and  C_2
REMARK    2  A    between atoms: C_5  and  N_8
REMARK    3  A    between atoms: N_8  and  C_9
REMARK    4  A    between atoms: N_8  and  C_13
REMARK    5  A    between atoms: C_9  and  C_10
REMARK    6  A    between atoms: C_10  and  C_11
REMARK    7  A    between atoms: C_10  and  O_12
REMARK    8  A    between atoms: C_13  and  C_14
REMARK    9  A    between atoms: C_14  and  C_15
REMARK   10  A    between atoms: C_14  and  O_16
REMARK                            x       y       z     vdW  Elec       q    Type
REMARK                         _______ _______ _______ _____ _____    ______ ____
ROOT
ATOM      1  N   UNL     1      11.602   1.519   9.282  0.00  0.00    +0.000 N 
ENDROOT
BRANCH   1   6
ATOM      2  C   UNL     1      15.025  -2.095  12.206  0.00  0.00    +0.000 C 
ATOM      3  C   UNL     1      14.135  -1.142  11.468  0.00  0.00    +0.000 A 
ATOM      4  C   UNL     1      12.757  -1.330  11.437  0.00  0.00    +0.000 A 
ATOM      5  C   UNL     1      11.930  -0.451  10.718  0.00  0.00    +0.000 A 
ATOM      6  C   UNL     1      12.434   0.636   9.981  0.00  0.00    +0.000 A 
ATOM      7  C   UNL     1      13.830   0.796  10.036  0.00  0.00    +0.000 A 
ATOM      8  C   UNL     1      14.668  -0.074  10.753  0.00  0.00    +0.000 A 
ENDBRANCH   1   6
BRANCH   1   9
ATOM      9  C   UNL     1      11.329   1.301   7.841  0.00  0.00    +0.000 C 
BRANCH   9  10
ATOM     10  C   UNL     1      12.294   2.089   6.922  0.00  0.00    +0.000 C 
ATOM     11  C   UNL     1      13.400   1.184   6.390  0.00  0.00    +0.000 C 
BRANCH  10  12
ATOM     12  O   UNL     1      11.596   2.645   5.798  0.00  0.00    +0.000 OA
ATOM     13  H   UNL     1      11.292   1.911   5.239  0.00  0.00    +0.000 HD
ENDBRANCH  10  12
ENDBRANCH   9  10
ENDBRANCH   1   9
BRANCH   1  14
ATOM     14  C   UNL     1      11.391   2.912   9.754  0.00  0.00    +0.000 C 
BRANCH  14  15
ATOM     15  C   UNL     1      10.699   2.962  11.137  0.00  0.00    +0.000 C 
ATOM     16  C   UNL     1      10.528   4.379  11.671  0.00  0.00    +0.000 C 
BRANCH  15  17
ATOM     17  O   UNL     1       9.413   2.344  11.106  0.00  0.00    +0.000 OA
ATOM     18  H   UNL     1       9.369   1.813  11.927  0.00  0.00    +0.000 HD
ENDBRANCH  15  17
ENDBRANCH  14  15
ENDBRANCH   1  14
TORSDOF 7
ENDMDL
