MODEL 1
REMARK VINA RESULT:    -3.763      0.000      0.000
REMARK INTER + INTRA:          -4.928
REMARK INTER:                  -5.083
REMARK INTRA:                   0.155
REMARK UNBOUND:                 0.155
REMARK  Name = 
REMARK  10 active torsions:
REMARK  status: ('A' for Active; 'I' for Inactive)
REMARK    1  A    between atoms: C_1  and  C_2
REMARK    2  A    between atoms: C_5  and  N_8
REMARK    3  A    between atoms: N_8  and  C_9
REMARK    4  A    between atoms: N_8  and  C_13
REMARK    5  A    between atoms: C_9  and  C_10
REMARK    6  A    between atoms: C_10  and  C_11
REMARK    7  A    between atoms: C_10  and  O_12
REMARK    8  A    between atoms: C_13  and  C_14
REMARK    9  A    between atoms: C_14  and  C_15
REMARK   10  A    between atoms: C_14  and  O_16
REMARK                            x       y       z     vdW  Elec       q    Type
REMARK                         _______ _______ _______ _____ _____    ______ ____
ROOT
ATOM      1  N   UNL     1       0.853   3.604  11.554  0.00  0.00    +0.000 N 
ENDROOT
BRANCH   1   6
ATOM      2  C   UNL     1       0.809   8.422  14.733  0.00  0.00    +0.000 C 
ATOM      3  C   UNL     1       0.835   7.183  13.892  0.00  0.00    +0.000 A 
ATOM      4  C   UNL     1      -0.142   6.953  12.929  0.00  0.00    +0.000 A 
ATOM      5  C   UNL     1      -0.130   5.776  12.163  0.00  0.00    +0.000 A 
ATOM      6  C   UNL     1       0.835   4.767  12.334  0.00  0.00    +0.000 A 
ATOM      7  C   UNL     1       1.808   5.034  13.315  0.00  0.00    +0.000 A 
ATOM      8  C   UNL     1       1.809   6.208  14.086  0.00  0.00    +0.000 A 
ENDBRANCH   1   6
BRANCH   1   9
ATOM      9  C   UNL     1       0.471   2.302  12.152  0.00  0.00    +0.000 C 
BRANCH   9  10
ATOM     10  C   UNL     1       1.612   1.665  12.982  0.00  0.00    +0.000 C 
ATOM     11  C   UNL     1       1.517   2.078  14.446  0.00  0.00    +0.000 C 
BRANCH  10  12
ATOM     12  O   UNL     1       1.557   0.233  12.920  0.00  0.00    +0.000 OA
ATOM     13  H   UNL     1       2.405  -0.116  13.242  0.00  0.00    +0.000 HD
ENDBRANCH  10  12
ENDBRANCH   9  10
ENDBRANCH   1   9
BRANCH   1  14
ATOM     14  C   UNL     1       1.697   3.508  10.336  0.00  0.00    +0.000 C 
BRANCH  14  15
ATOM     15  C   UNL     1       0.852   3.331   9.051  0.00  0.00    +0.000 C 
ATOM     16  C   UNL     1       1.563   3.819   7.794  0.00  0.00    +0.000 C 
BRANCH  15  17
ATOM     17  O   UNL     1       0.482   1.968   8.848  0.00  0.00    +0.000 OA
ATOM     18  H   UNL     1      -0.496   1.972   8.828  0.00  0.00    +0.000 HD
ENDBRANCH  15  17
ENDBRANCH  14  15
ENDBRANCH   1  14
TORSDOF 7
ENDMDL
MODEL 2
REMARK VINA RESULT:    -3.309      0.753      3.342
REMARK INTER + INTRA:          -4.314
REMARK INTER:                  -4.596
REMARK INTRA:                   0.282
REMARK UNBOUND:                 0.155
REMARK  Name = 
REMARK  10 active torsions:
REMARK  status: ('A' for Active; 'I' for Inactive)
REMARK    1  A    between atoms: C_1  and  C_2
REMARK    2  A    between atoms: C_5  and  N_8
REMARK    3  A    between atoms: N_8  and  C_9
REMARK    4  A    between atoms: N_8  and  C_13
REMARK    5  A    between atoms: C_9  and  C_10
REMARK    6  A    between atoms: C_10  and  C_11
REMARK    7  A    between atoms: C_10  and  O_12
REMARK    8  A    between atoms: C_13  and  C_14
REMARK    9  A    between atoms: C_14  and  C_15
REMARK   10  A    between atoms: C_14  and  O_16
REMARK                            x       y       z     vdW  Elec       q    Type
REMARK                         _______ _______ _______ _____ _____    ______ ____
ROOT
ATOM      1  N   UNL     1       1.032   3.502  11.669  0.00  0.00    +0.000 N 
ENDROOT
BRANCH   1   6
ATOM      2  C   UNL     1       0.749   8.349  14.792  0.00  0.00    +0.000 C 
ATOM      3  C   UNL     1       0.836   7.103  13.965  0.00  0.00    +0.000 A 
ATOM      4  C   UNL     1      -0.122   6.818  12.998  0.00  0.00    +0.000 A 
ATOM      5  C   UNL     1      -0.051   5.634  12.246  0.00  0.00    +0.000 A 
ATOM      6  C   UNL     1       0.956   4.671  12.436  0.00  0.00    +0.000 A 
ATOM      7  C   UNL     1       1.909   4.993  13.420  0.00  0.00    +0.000 A 
ATOM      8  C   UNL     1       1.851   6.174  14.177  0.00  0.00    +0.000 A 
ENDBRANCH   1   6
BRANCH   1   9
ATOM      9  C   UNL     1       0.992   3.579  10.189  0.00  0.00    +0.000 C 
BRANCH   9  10
ATOM     10  C   UNL     1       0.382   2.314   9.538  0.00  0.00    +0.000 C 
ATOM     11  C   UNL     1      -1.134   2.432   9.432  0.00  0.00    +0.000 C 
BRANCH  10  12
ATOM     12  O   UNL     1       0.905   2.111   8.218  0.00  0.00    +0.000 OA
ATOM     13  H   UNL     1       1.697   2.666   8.119  0.00  0.00    +0.000 HD
ENDBRANCH  10  12
ENDBRANCH   9  10
ENDBRANCH   1   9
BRANCH   1  14
ATOM     14  C   UNL     1       0.644   2.184  12.236  0.00  0.00    +0.000 C 
BRANCH  14  15
ATOM     15  C   UNL     1       1.722   1.620  13.192  0.00  0.00    +0.000 C 
ATOM     16  C   UNL     1       1.552   2.090  14.632  0.00  0.00    +0.000 C 
BRANCH  15  17
ATOM     17  O   UNL     1       1.733   0.193  13.192  0.00  0.00    +0.000 OA
ATOM     18  H   UNL     1       2.670  -0.053  13.328  0.00  0.00    +0.000 HD
ENDBRANCH  15  17
ENDBRANCH  14  15
ENDBRANCH   1  14
TORSDOF 7
ENDMDL
MODEL 3
REMARK VINA RESULT:    -3.201     20.407     21.654
REMARK INTER + INTRA:          -4.169
REMARK INTER:                  -4.683
REMARK INTRA:                   0.514
REMARK UNBOUND:                 0.155
REMARK  Name = 
REMARK  10 active torsions:
REMARK  status: ('A' for Active; 'I' for Inactive)
REMARK    1  A    between atoms: C_1  and  C_2
REMARK    2  A    between atoms: C_5  and  N_8
REMARK    3  A    between atoms: N_8  and  C_9
REMARK    4  A    between atoms: N_8  and  C_13
REMARK    5  A    between atoms: C_9  and  C_10
REMARK    6  A    between atoms: C_10  and  C_11
REMARK    7  A    between atoms: C_10  and  O_12
REMARK    8  A    between atoms: C_13  and  C_14
REMARK    9  A    between atoms: C_14  and  C_15
REMARK   10  A    between atoms: C_14  and  O_16
REMARK                            x       y       z     vdW  Elec       q    Type
REMARK                         _______ _______ _______ _____ _____    ______ ____
ROOT
ATOM      1  N   UNL     1      11.205  20.579   3.485  0.00  0.00    +0.000 N 
ENDROOT
BRANCH   1   6
ATOM      2  C   UNL     1      16.667  19.690   5.127  0.00  0.00    +0.000 C 
ATOM      3  C   UNL     1      15.255  19.945   4.697  0.00  0.00    +0.000 A 
ATOM      4  C   UNL     1      14.269  20.248   5.630  0.00  0.00    +0.000 A 
ATOM      5  C   UNL     1      12.940  20.457   5.225  0.00  0.00    +0.000 A 
ATOM      6  C   UNL     1      12.527  20.351   3.884  0.00  0.00    +0.000 A 
ATOM      7  C   UNL     1      13.551  20.044   2.969  0.00  0.00    +0.000 A 
ATOM      8  C   UNL     1      14.884  19.836   3.360  0.00  0.00    +0.000 A 
ENDBRANCH   1   6
BRANCH   1   9
ATOM      9  C   UNL     1      10.450  19.520   2.773  0.00  0.00    +0.000 C 
BRANCH   9  10
ATOM     10  C   UNL     1       9.351  18.872   3.650  0.00  0.00    +0.000 C 
ATOM     11  C   UNL     1       9.965  17.978   4.721  0.00  0.00    +0.000 C 
BRANCH  10  12
ATOM     12  O   UNL     1       8.560  19.873   4.307  0.00  0.00    +0.000 OA
ATOM     13  H   UNL     1       8.452  20.620   3.695  0.00  0.00    +0.000 HD
ENDBRANCH  10  12
ENDBRANCH   9  10
ENDBRANCH   1   9
BRANCH   1  14
ATOM     14  C   UNL     1      10.690  21.957   3.281  0.00  0.00    +0.000 C 
BRANCH  14  15
ATOM     15  C   UNL     1      10.563  22.317   1.781  0.00  0.00    +0.000 C 
ATOM     16  C   UNL     1      11.898  22.305   1.046  0.00  0.00    +0.000 C 
BRANCH  15  17
ATOM     17  O   UNL     1       9.676  21.431   1.100  0.00  0.00    +0.000 OA
ATOM     18  H   UNL     1      10.259  20.803   0.627  0.00  0.00    +0.000 HD
ENDBRANCH  15  17
ENDBRANCH  14  15
ENDBRANCH   1  14
TORSDOF 7
ENDMDL
MODEL 4
REMARK VINA RESULT:    -2.882     21.426     22.563
REMARK INTER + INTRA:          -3.737
REMARK INTER:                  -3.301
REMARK INTRA:                  -0.437
REMARK UNBOUND:                 0.155
REMARK  Name = 
REMARK  10 active torsions:
REMARK  status: ('A' for Active; 'I' for Inactive)
REMARK    1  A    between atoms: C_1  and  C_2
REMARK    2  A    between atoms: C_5  and  N_8
REMARK    3  A    between atoms: N_8  and  C_9
REMARK    4  A    between atoms: N_8  and  C_13
REMARK    5  A    between atoms: C_9  and  C_10
REMARK    6  A    between atoms: C_10  and  C_11
REMARK    7  A    between atoms: C_10  and  O_12
REMARK    8  A    between atoms: C_13  and  C_14
REMARK    9  A    between atoms: C_14  and  C_15
REMARK   10  A    between atoms: C_14  and  O_16
REMARK                            x       y       z     vdW  Elec       q    Type
REMARK                         _______ _______ _______ _____ _____    ______ ____
ROOT
ATOM      1  N   UNL     1      13.749  20.812   4.710  0.00  0.00    +0.000 N 
ENDROOT
BRANCH   1   6
ATOM      2  C   UNL     1       9.570  21.693   0.826  0.00  0.00    +0.000 C 
ATOM      3  C   UNL     1      10.642  21.479   1.850  0.00  0.00    +0.000 A 
ATOM      4  C   UNL     1      11.751  22.317   1.910  0.00  0.00    +0.000 A 
ATOM      5  C   UNL     1      12.767  22.093   2.853  0.00  0.00    +0.000 A 
ATOM      6  C   UNL     1      12.741  21.018   3.760  0.00  0.00    +0.000 A 
ATOM      7  C   UNL     1      11.605  20.193   3.672  0.00  0.00    +0.000 A 
ATOM      8  C   UNL     1      10.580  20.407   2.736  0.00  0.00    +0.000 A 
ENDBRANCH   1   6
BRANCH   1   9
ATOM      9  C   UNL     1      13.411  20.759   6.153  0.00  0.00    +0.000 C 
BRANCH   9  10
ATOM     10  C   UNL     1      13.047  22.146   6.736  0.00  0.00    +0.000 C 
ATOM     11  C   UNL     1      11.536  22.317   6.834  0.00  0.00    +0.000 C 
BRANCH  10  12
ATOM     12  O   UNL     1      13.599  22.314   8.049  0.00  0.00    +0.000 OA
ATOM     13  H   UNL     1      13.365  21.533   8.576  0.00  0.00    +0.000 HD
ENDBRANCH  10  12
ENDBRANCH   9  10
ENDBRANCH   1   9
BRANCH   1  14
ATOM     14  C   UNL     1      15.166  21.146   4.413  0.00  0.00    +0.000 C 
BRANCH  14  15
ATOM     15  C   UNL     1      15.956  19.924   3.884  0.00  0.00    +0.000 C 
ATOM     16  C   UNL     1      16.420  18.986   4.992  0.00  0.00    +0.000 C 
BRANCH  15  17
ATOM     17  O   UNL     1      15.188  19.163   2.953  0.00  0.00    +0.000 OA
ATOM     18  H   UNL     1      14.959  19.793   2.240  0.00  0.00    +0.000 HD
ENDBRANCH  15  17
ENDBRANCH  14  15
ENDBRANCH   1  14
TORSDOF 7
ENDMDL
MODEL 5
REMARK VINA RESULT:    -2.679      2.224      4.512
REMARK INTER + INTRA:          -3.463
REMARK INTER:                  -3.644
REMARK INTRA:                   0.180
REMARK UNBOUND:                 0.155
REMARK  Name = 
REMARK  10 active torsions:
REMARK  status: ('A' for Active; 'I' for Inactive)
REMARK    1  A    between atoms: C_1  and  C_2
REMARK    2  A    between atoms: C_5  and  N_8
REMARK    3  A    between atoms: N_8  and  C_9
REMARK    4  A    between atoms: N_8  and  C_13
REMARK    5  A    between atoms: C_9  and  C_10
REMARK    6  A    between atoms: C_10  and  C_11
REMARK    7  A    between atoms: C_10  and  O_12
REMARK    8  A    between atoms: C_13  and  C_14
REMARK    9  A    between atoms: C_14  and  C_15
REMARK   10  A    between atoms: C_14  and  O_16
REMARK                            x       y       z     vdW  Elec       q    Type
REMARK                         _______ _______ _______ _____ _____    ______ ____
ROOT
ATOM      1  N   UNL     1       0.979   3.999  13.398  0.00  0.00    +0.000 N 
ENDROOT
BRANCH   1   6
ATOM      2  C   UNL     1       1.449   3.323   7.684  0.00  0.00    +0.000 C 
ATOM      3  C   UNL     1       1.338   3.476   9.170  0.00  0.00    +0.000 A 
ATOM      4  C   UNL     1       0.196   3.063   9.847  0.00  0.00    +0.000 A 
ATOM      5  C   UNL     1       0.085   3.237  11.236  0.00  0.00    +0.000 A 
ATOM      6  C   UNL     1       1.089   3.847  12.010  0.00  0.00    +0.000 A 
ATOM      7  C   UNL     1       2.230   4.250  11.292  0.00  0.00    +0.000 A 
ATOM      8  C   UNL     1       2.355   4.080   9.904  0.00  0.00    +0.000 A 
ENDBRANCH   1   6
BRANCH   1   9
ATOM      9  C   UNL     1       0.697   2.823  14.255  0.00  0.00    +0.000 C 
BRANCH   9  10
ATOM     10  C   UNL     1       1.802   1.742  14.174  0.00  0.00    +0.000 C 
ATOM     11  C   UNL     1       1.510   0.746  13.057  0.00  0.00    +0.000 C 
BRANCH  10  12
ATOM     12  O   UNL     1       3.083   2.334  13.917  0.00  0.00    +0.000 OA
ATOM     13  H   UNL     1       3.766   1.737  14.264  0.00  0.00    +0.000 HD
ENDBRANCH  10  12
ENDBRANCH   9  10
ENDBRANCH   1   9
BRANCH   1  14
ATOM     14  C   UNL     1       0.630   5.310  14.002  0.00  0.00    +0.000 C 
BRANCH  14  15
ATOM     15  C   UNL     1       0.583   6.445  12.950  0.00  0.00    +0.000 C 
ATOM     16  C   UNL     1      -0.804   6.651  12.352  0.00  0.00    +0.000 C 
BRANCH  15  17
ATOM     17  O   UNL     1       1.017   7.689  13.497  0.00  0.00    +0.000 OA
ATOM     18  H   UNL     1       1.866   7.879  13.050  0.00  0.00    +0.000 HD
ENDBRANCH  15  17
ENDBRANCH  14  15
ENDBRANCH   1  14
TORSDOF 7
ENDMDL
MODEL 6
REMARK VINA RESULT:    -2.573     20.282     21.731
REMARK INTER + INTRA:          -3.320
REMARK INTER:                  -3.687
REMARK INTRA:                   0.367
REMARK UNBOUND:                 0.155
REMARK  Name = 
REMARK  10 active torsions:
REMARK  status: ('A' for Active; 'I' for Inactive)
REMARK    1  A    between atoms: C_1  and  C_2
REMARK    2  A    between atoms: C_5  and  N_8
REMARK    3  A    between atoms: N_8  and  C_9
REMARK    4  A    between atoms: N_8  and  C_13
REMARK    5  A    between atoms: C_9  and  C_10
REMARK    6  A    between atoms: C_10  and  C_11
REMARK    7  A    between atoms: C_10  and  O_12
REMARK    8  A    between atoms: C_13  and  C_14
REMARK    9  A    between atoms: C_14  and  C_15
REMARK   10  A    between atoms: C_14  and  O_16
REMARK                            x       y       z     vdW  Elec       q    Type
REMARK                         _______ _______ _______ _____ _____    ______ ____
ROOT
ATOM      1  N   UNL     1      10.823  20.907   3.703  0.00  0.00    +0.000 N 
ENDROOT
BRANCH   1   6
ATOM      2  C   UNL     1      16.309  19.706   5.044  0.00  0.00    +0.000 C 
ATOM      3  C   UNL     1      14.892  20.041   4.690  0.00  0.00    +0.000 A 
ATOM      4  C   UNL     1      14.003  20.497   5.658  0.00  0.00    +0.000 A 
ATOM      5  C   UNL     1      12.668  20.781   5.326  0.00  0.00    +0.000 A 
ATOM      6  C   UNL     1      12.151  20.604   4.030  0.00  0.00    +0.000 A 
ATOM      7  C   UNL     1      13.078  20.143   3.078  0.00  0.00    +0.000 A 
ATOM      8  C   UNL     1      14.416  19.858   3.395  0.00  0.00    +0.000 A 
ENDBRANCH   1   6
BRANCH   1   9
ATOM      9  C   UNL     1      10.475  22.252   3.185  0.00  0.00    +0.000 C 
BRANCH   9  10
ATOM     10  C   UNL     1      10.390  22.297   1.640  0.00  0.00    +0.000 C 
ATOM     11  C   UNL     1      11.781  22.297   1.017  0.00  0.00    +0.000 C 
BRANCH  10  12
ATOM     12  O   UNL     1       9.675  21.162   1.130  0.00  0.00    +0.000 OA
ATOM     13  H   UNL     1      10.111  20.359   1.460  0.00  0.00    +0.000 HD
ENDBRANCH  10  12
ENDBRANCH   9  10
ENDBRANCH   1   9
BRANCH   1  14
ATOM     14  C   UNL     1       9.692  20.157   4.306  0.00  0.00    +0.000 C 
BRANCH  14  15
ATOM     15  C   UNL     1       9.728  18.653   3.943  0.00  0.00    +0.000 C 
ATOM     16  C   UNL     1      10.487  18.366   2.653  0.00  0.00    +0.000 C 
BRANCH  15  17
ATOM     17  O   UNL     1      10.316  17.874   4.984  0.00  0.00    +0.000 OA
ATOM     18  H   UNL     1      11.268  17.836   4.764  0.00  0.00    +0.000 HD
ENDBRANCH  15  17
ENDBRANCH  14  15
ENDBRANCH   1  14
TORSDOF 7
ENDMDL
MODEL 7
REMARK VINA RESULT:    -2.263     19.866     21.361
REMARK INTER + INTRA:          -2.902
REMARK INTER:                  -2.622
REMARK INTRA:                  -0.280
REMARK UNBOUND:                 0.155
REMARK  Name = 
REMARK  10 active torsions:
REMARK  status: ('A' for Active; 'I' for Inactive)
REMARK    1  A    between atoms: C_1  and  C_2
REMARK    2  A    between atoms: C_5  and  N_8
REMARK    3  A    between atoms: N_8  and  C_9
REMARK    4  A    between atoms: N_8  and  C_13
REMARK    5  A    between atoms: C_9  and  C_10
REMARK    6  A    between atoms: C_10  and  C_11
REMARK    7  A    between atoms: C_10  and  O_12
REMARK    8  A    between atoms: C_13  and  C_14
REMARK    9  A    between atoms: C_14  and  C_15
REMARK   10  A    between atoms: C_14  and  O_16
REMARK                            x       y       z     vdW  Elec       q    Type
REMARK                         _______ _______ _______ _____ _____    ______ ____
ROOT
ATOM      1  N   UNL     1      10.125  21.411   3.578  0.00  0.00    +0.000 N 
ENDROOT
BRANCH   1   6
ATOM      2  C   UNL     1      15.655  21.603   5.223  0.00  0.00    +0.000 C 
ATOM      3  C   UNL     1      14.217  21.577   4.804  0.00  0.00    +0.000 A 
ATOM      4  C   UNL     1      13.229  21.117   5.669  0.00  0.00    +0.000 A 
ATOM      5  C   UNL     1      11.887  21.066   5.260  0.00  0.00    +0.000 A 
ATOM      6  C   UNL     1      11.468  21.446   3.972  0.00  0.00    +0.000 A 
ATOM      7  C   UNL     1      12.493  21.907   3.126  0.00  0.00    +0.000 A 
ATOM      8  C   UNL     1      13.839  21.965   3.522  0.00  0.00    +0.000 A 
ENDBRANCH   1   6
BRANCH   1   9
ATOM      9  C   UNL     1       9.139  22.316   4.216  0.00  0.00    +0.000 C 
BRANCH   9  10
ATOM     10  C   UNL     1       8.093  21.558   5.070  0.00  0.00    +0.000 C 
ATOM     11  C   UNL     1       7.786  22.317   6.356  0.00  0.00    +0.000 C 
BRANCH  10  12
ATOM     12  O   UNL     1       6.864  21.390   4.350  0.00  0.00    +0.000 OA
ATOM     13  H   UNL     1       6.906  20.542   3.877  0.00  0.00    +0.000 HD
ENDBRANCH  10  12
ENDBRANCH   9  10
ENDBRANCH   1   9
BRANCH   1  14
ATOM     14  C   UNL     1       9.541  20.202   2.941  0.00  0.00    +0.000 C 
BRANCH  14  15
ATOM     15  C   UNL     1      10.360  18.926   3.251  0.00  0.00    +0.000 C 
ATOM     16  C   UNL     1       9.729  18.057   4.332  0.00  0.00    +0.000 C 
BRANCH  15  17
ATOM     17  O   UNL     1      10.541  18.120   2.087  0.00  0.00    +0.000 OA
ATOM     18  H   UNL     1       9.647  17.790   1.867  0.00  0.00    +0.000 HD
ENDBRANCH  15  17
ENDBRANCH  14  15
ENDBRANCH   1  14
TORSDOF 7
ENDMDL
MODEL 8
REMARK VINA RESULT:    -2.159     20.721     22.233
REMARK INTER + INTRA:          -2.761
REMARK INTER:                  -2.522
REMARK INTRA:                  -0.239
REMARK UNBOUND:                 0.155
REMARK  Name = 
REMARK  10 active torsions:
REMARK  status: ('A' for Active; 'I' for Inactive)
REMARK    1  A    between atoms: C_1  and  C_2
REMARK    2  A    between atoms: C_5  and  N_8
REMARK    3  A    between atoms: N_8  and  C_9
REMARK    4  A    between atoms: N_8  and  C_13
REMARK    5  A    between atoms: C_9  and  C_10
REMARK    6  A    between atoms: C_10  and  C_11
REMARK    7  A    between atoms: C_10  and  O_12
REMARK    8  A    between atoms: C_13  and  C_14
REMARK    9  A    between atoms: C_14  and  C_15
REMARK   10  A    between atoms: C_14  and  O_16
REMARK                            x       y       z     vdW  Elec       q    Type
REMARK                         _______ _______ _______ _____ _____    ______ ____
ROOT
ATOM      1  N   UNL     1      12.771  21.106   4.017  0.00  0.00    +0.000 N 
ENDROOT
BRANCH   1   6
ATOM      2  C   UNL     1       7.015  21.256   4.440  0.00  0.00    +0.000 C 
ATOM      3  C   UNL     1       8.507  21.226   4.307  0.00  0.00    +0.000 A 
ATOM      4  C   UNL     1       9.161  20.091   3.840  0.00  0.00    +0.000 A 
ATOM      5  C   UNL     1      10.562  20.058   3.746  0.00  0.00    +0.000 A 
ATOM      6  C   UNL     1      11.376  21.139   4.132  0.00  0.00    +0.000 A 
ATOM      7  C   UNL     1      10.681  22.270   4.597  0.00  0.00    +0.000 A 
ATOM      8  C   UNL     1       9.281  22.317   4.694  0.00  0.00    +0.000 A 
ENDBRANCH   1   6
BRANCH   1   9
ATOM      9  C   UNL     1      13.429  21.637   2.799  0.00  0.00    +0.000 C 
BRANCH   9  10
ATOM     10  C   UNL     1      12.762  21.142   1.492  0.00  0.00    +0.000 C 
ATOM     11  C   UNL     1      12.284  22.317   0.646  0.00  0.00    +0.000 C 
BRANCH  10  12
ATOM     12  O   UNL     1      13.680  20.372   0.705  0.00  0.00    +0.000 OA
ATOM     13  H   UNL     1      14.037  20.947   0.009  0.00  0.00    +0.000 HD
ENDBRANCH  10  12
ENDBRANCH   9  10
ENDBRANCH   1   9
BRANCH   1  14
ATOM     14  C   UNL     1      13.584  20.136   4.794  0.00  0.00    +0.000 C 
BRANCH  14  15
ATOM     15  C   UNL     1      15.100  20.431   4.693  0.00  0.00    +0.000 C 
ATOM     16  C   UNL     1      15.541  21.608   5.555  0.00  0.00    +0.000 C 
BRANCH  15  17
ATOM     17  O   UNL     1      15.884  19.296   5.060  0.00  0.00    +0.000 OA
ATOM     18  H   UNL     1      15.419  18.530   4.667  0.00  0.00    +0.000 HD
ENDBRANCH  15  17
ENDBRANCH  14  15
ENDBRANCH   1  14
TORSDOF 7
ENDMDL
MODEL 9
REMARK VINA RESULT:    -1.810     20.023     21.389
REMARK INTER + INTRA:          -2.290
REMARK INTER:                  -2.184
REMARK INTRA:                  -0.106
REMARK UNBOUND:                 0.155
REMARK  Name = 
REMARK  10 active torsions:
REMARK  status: ('A' for Active; 'I' for Inactive)
REMARK    1  A    between atoms: C_1  and  C_2
REMARK    2  A    between atoms: C_5  and  N_8
REMARK    3  A    between atoms: N_8  and  C_9
REMARK    4  A    between atoms: N_8  and  C_13
REMARK    5  A    between atoms: C_9  and  C_10
REMARK    6  A    between atoms: C_10  and  C_11
REMARK    7  A    between atoms: C_10  and  O_12
REMARK    8  A    between atoms: C_13  and  C_14
REMARK    9  A    between atoms: C_14  and  C_15
REMARK   10  A    between atoms: C_14  and  O_16
REMARK                            x       y       z     vdW  Elec       q    Type
REMARK                         _______ _______ _______ _____ _____    ______ ____
ROOT
ATOM      1  N   UNL     1      11.133  20.577   3.184  0.00  0.00    +0.000 N 
ENDROOT
BRANCH   1   6
ATOM      2  C   UNL     1      16.539  19.906   5.095  0.00  0.00    +0.000 C 
ATOM      3  C   UNL     1      15.132  20.056   4.603  0.00  0.00    +0.000 A 
ATOM      4  C   UNL     1      14.827  19.909   3.254  0.00  0.00    +0.000 A 
ATOM      5  C   UNL     1      13.511  20.081   2.794  0.00  0.00    +0.000 A 
ATOM      6  C   UNL     1      12.446  20.427   3.646  0.00  0.00    +0.000 A 
ATOM      7  C   UNL     1      12.791  20.565   5.003  0.00  0.00    +0.000 A 
ATOM      8  C   UNL     1      14.102  20.394   5.476  0.00  0.00    +0.000 A 
ENDBRANCH   1   6
BRANCH   1   9
ATOM      9  C   UNL     1      10.487  19.487   2.413  0.00  0.00    +0.000 C 
BRANCH   9  10
ATOM     10  C   UNL     1      10.431  18.152   3.193  0.00  0.00    +0.000 C 
ATOM     11  C   UNL     1       9.457  18.243   4.362  0.00  0.00    +0.000 C 
BRANCH  10  12
ATOM     12  O   UNL     1      10.006  17.076   2.344  0.00  0.00    +0.000 OA
ATOM     13  H   UNL     1       9.199  17.358   1.883  0.00  0.00    +0.000 HD
ENDBRANCH  10  12
ENDBRANCH   9  10
ENDBRANCH   1   9
BRANCH   1  14
ATOM     14  C   UNL     1      10.539  21.923   2.980  0.00  0.00    +0.000 C 
BRANCH  14  15
ATOM     15  C   UNL     1       9.577  22.317   4.127  0.00  0.00    +0.000 C 
ATOM     16  C   UNL     1       8.360  21.405   4.229  0.00  0.00    +0.000 C 
BRANCH  15  17
ATOM     17  O   UNL     1      10.237  22.316   5.392  0.00  0.00    +0.000 OA
ATOM     18  H   UNL     1      10.416  21.373   5.583  0.00  0.00    +0.000 HD
ENDBRANCH  15  17
ENDBRANCH  14  15
ENDBRANCH   1  14
TORSDOF 7
ENDMDL
