MODEL 1
REMARK VINA RESULT:    -5.034      0.000      0.000
REMARK INTER + INTRA:          -5.514
REMARK INTER:                  -5.476
REMARK INTRA:                  -0.038
REMARK UNBOUND:                -0.038
REMARK  Name = 
REMARK  3 active torsions:
REMARK  status: ('A' for Active; 'I' for Inactive)
REMARK    1  A    between atoms: C_1  and  O_2
REMARK    2  A    between atoms: O_2  and  C_3
REMARK    3  A    between atoms: C_8  and  O_9
REMARK                            x       y       z     vdW  Elec       q    Type
REMARK                         _______ _______ _______ _____ _____    ______ ____
ROOT
ATOM      1  C   UNL     1       1.310  -0.525  18.238  0.00  0.00    +0.000 A 
ATOM      2  C   UNL     1       0.194  -1.349  18.371  0.00  0.00    +0.000 A 
ATOM      3  C   UNL     1      -1.049  -0.928  17.880  0.00  0.00    +0.000 A 
ATOM      4  C   UNL     1      -1.180   0.314  17.258  0.00  0.00    +0.000 A 
ATOM      5  C   UNL     1      -0.069   1.143  17.121  0.00  0.00    +0.000 A 
ATOM      6  C   UNL     1       1.160   0.717  17.610  0.00  0.00    +0.000 A 
ENDROOT
BRANCH   1   8
ATOM      7  C   UNL     1       2.846  -2.158  19.027  0.00  0.00    +0.000 C 
ATOM      8  O   UNL     1       2.582  -0.807  18.669  0.00  0.00    +0.000 OA
ENDBRANCH   1   8
BRANCH   6   9
ATOM      9  O   UNL     1       2.237   1.549  17.464  0.00  0.00    +0.000 OA
ATOM     10  H   UNL     1       2.703   1.216  16.673  0.00  0.00    +0.000 HD
ENDBRANCH   6   9
TORSDOF 2
ENDMDL
MODEL 2
REMARK VINA RESULT:    -4.838      1.313      3.110
REMARK INTER + INTRA:          -5.300
REMARK INTER:                  -5.257
REMARK INTRA:                  -0.044
REMARK UNBOUND:                -0.038
REMARK  Name = 
REMARK  3 active torsions:
REMARK  status: ('A' for Active; 'I' for Inactive)
REMARK    1  A    between atoms: C_1  and  O_2
REMARK    2  A    between atoms: O_2  and  C_3
REMARK    3  A    between atoms: C_8  and  O_9
REMARK                            x       y       z     vdW  Elec       q    Type
REMARK                         _______ _______ _______ _____ _____    ______ ____
ROOT
ATOM      1  C   UNL     1       0.057   0.131  17.576  0.00  0.00    +0.000 A 
ATOM      2  C   UNL     1      -0.459  -1.056  18.094  0.00  0.00    +0.000 A 
ATOM      3  C   UNL     1       0.397  -1.989  18.693  0.00  0.00    +0.000 A 
ATOM      4  C   UNL     1       1.768  -1.740  18.776  0.00  0.00    +0.000 A 
ATOM      5  C   UNL     1       2.291  -0.556  18.260  0.00  0.00    +0.000 A 
ATOM      6  C   UNL     1       1.435   0.363  17.668  0.00  0.00    +0.000 A 
ENDROOT
BRANCH   1   8
ATOM      7  C   UNL     1      -1.728   0.716  16.120  0.00  0.00    +0.000 C 
ATOM      8  O   UNL     1      -0.660   1.128  16.965  0.00  0.00    +0.000 OA
ENDBRANCH   1   8
BRANCH   6   9
ATOM      9  O   UNL     1       1.973   1.519  17.168  0.00  0.00    +0.000 OA
ATOM     10  H   UNL     1       2.677   1.223  16.560  0.00  0.00    +0.000 HD
ENDBRANCH   6   9
TORSDOF 2
ENDMDL
MODEL 3
REMARK VINA RESULT:    -4.044     17.377     18.751
REMARK INTER + INTRA:          -4.437
REMARK INTER:                  -4.394
REMARK INTRA:                  -0.042
REMARK UNBOUND:                -0.038
REMARK  Name = 
REMARK  3 active torsions:
REMARK  status: ('A' for Active; 'I' for Inactive)
REMARK    1  A    between atoms: C_1  and  O_2
REMARK    2  A    between atoms: O_2  and  C_3
REMARK    3  A    between atoms: C_8  and  O_9
REMARK                            x       y       z     vdW  Elec       q    Type
REMARK                         _______ _______ _______ _____ _____    ______ ____
ROOT
ATOM      1  C   UNL     1      10.518  15.685  17.064  0.00  0.00    +0.000 A 
ATOM      2  C   UNL     1      10.941  16.902  17.596  0.00  0.00    +0.000 A 
ATOM      3  C   UNL     1      10.733  17.183  18.953  0.00  0.00    +0.000 A 
ATOM      4  C   UNL     1      10.102  16.251  19.779  0.00  0.00    +0.000 A 
ATOM      5  C   UNL     1       9.677  15.033  19.255  0.00  0.00    +0.000 A 
ATOM      6  C   UNL     1       9.887  14.763  17.908  0.00  0.00    +0.000 A 
ENDROOT
BRANCH   1   8
ATOM      7  C   UNL     1      11.826  15.715  15.080  0.00  0.00    +0.000 C 
ATOM      8  O   UNL     1      10.656  15.279  15.761  0.00  0.00    +0.000 OA
ENDBRANCH   1   8
BRANCH   6   9
ATOM      9  O   UNL     1       9.461  13.559  17.416  0.00  0.00    +0.000 OA
ATOM     10  H   UNL     1       8.575  13.431  17.806  0.00  0.00    +0.000 HD
ENDBRANCH   6   9
TORSDOF 2
ENDMDL
MODEL 4
REMARK VINA RESULT:    -3.959     17.799     18.688
REMARK INTER + INTRA:          -4.345
REMARK INTER:                  -4.298
REMARK INTRA:                  -0.046
REMARK UNBOUND:                -0.038
REMARK  Name = 
REMARK  3 active torsions:
REMARK  status: ('A' for Active; 'I' for Inactive)
REMARK    1  A    between atoms: C_1  and  O_2
REMARK    2  A    between atoms: O_2  and  C_3
REMARK    3  A    between atoms: C_8  and  O_9
REMARK                            x       y       z     vdW  Elec       q    Type
REMARK                         _______ _______ _______ _____ _____    ______ ____
ROOT
ATOM      1  C   UNL     1      14.734   3.903   6.866  0.00  0.00    +0.000 A 
ATOM      2  C   UNL     1      15.954   3.408   6.408  0.00  0.00    +0.000 A 
ATOM      3  C   UNL     1      16.269   3.478   5.045  0.00  0.00    +0.000 A 
ATOM      4  C   UNL     1      15.369   4.040   4.138  0.00  0.00    +0.000 A 
ATOM      5  C   UNL     1      14.149   4.538   4.588  0.00  0.00    +0.000 A 
ATOM      6  C   UNL     1      13.844   4.464   5.942  0.00  0.00    +0.000 A 
ENDROOT
BRANCH   1   8
ATOM      7  C   UNL     1      14.478   2.693   8.895  0.00  0.00    +0.000 C 
ATOM      8  O   UNL     1      14.294   3.901   8.166  0.00  0.00    +0.000 OA
ENDBRANCH   1   8
BRANCH   6   9
ATOM      9  O   UNL     1      12.638   4.959   6.361  0.00  0.00    +0.000 OA
ATOM     10  H   UNL     1      12.853   5.516   7.133  0.00  0.00    +0.000 HD
ENDBRANCH   6   9
TORSDOF 2
ENDMDL
MODEL 5
REMARK VINA RESULT:    -3.603     17.467     18.661
REMARK INTER + INTRA:          -3.958
REMARK INTER:                  -3.912
REMARK INTRA:                  -0.045
REMARK UNBOUND:                -0.038
REMARK  Name = 
REMARK  3 active torsions:
REMARK  status: ('A' for Active; 'I' for Inactive)
REMARK    1  A    between atoms: C_1  and  O_2
REMARK    2  A    between atoms: O_2  and  C_3
REMARK    3  A    between atoms: C_8  and  O_9
REMARK                            x       y       z     vdW  Elec       q    Type
REMARK                         _______ _______ _______ _____ _____    ______ ____
ROOT
ATOM      1  C   UNL     1      10.550  15.670  17.966  0.00  0.00    +0.000 A 
ATOM      2  C   UNL     1      10.993  16.945  17.617  0.00  0.00    +0.000 A 
ATOM      3  C   UNL     1      10.769  17.435  16.324  0.00  0.00    +0.000 A 
ATOM      4  C   UNL     1      10.104  16.654  15.377  0.00  0.00    +0.000 A 
ATOM      5  C   UNL     1       9.658  15.379  15.718  0.00  0.00    +0.000 A 
ATOM      6  C   UNL     1       9.885  14.902  17.003  0.00  0.00    +0.000 A 
ENDROOT
BRANCH   1   8
ATOM      7  C   UNL     1       9.870  15.544  20.239  0.00  0.00    +0.000 C 
ATOM      8  O   UNL     1      10.701  15.065  19.188  0.00  0.00    +0.000 OA
ENDBRANCH   1   8
BRANCH   6   9
ATOM      9  O   UNL     1       9.437  13.645  17.314  0.00  0.00    +0.000 OA
ATOM     10  H   UNL     1       9.976  13.046  16.763  0.00  0.00    +0.000 HD
ENDBRANCH   6   9
TORSDOF 2
ENDMDL
MODEL 6
REMARK VINA RESULT:    -3.560     17.771     18.612
REMARK INTER + INTRA:          -3.910
REMARK INTER:                  -3.859
REMARK INTRA:                  -0.052
REMARK UNBOUND:                -0.038
REMARK  Name = 
REMARK  3 active torsions:
REMARK  status: ('A' for Active; 'I' for Inactive)
REMARK    1  A    between atoms: C_1  and  O_2
REMARK    2  A    between atoms: O_2  and  C_3
REMARK    3  A    between atoms: C_8  and  O_9
REMARK                            x       y       z     vdW  Elec       q    Type
REMARK                         _______ _______ _______ _____ _____    ______ ____
ROOT
ATOM      1  C   UNL     1      15.651   3.456   6.948  0.00  0.00    +0.000 A 
ATOM      2  C   UNL     1      16.069   3.601   5.626  0.00  0.00    +0.000 A 
ATOM      3  C   UNL     1      15.226   4.211   4.689  0.00  0.00    +0.000 A 
ATOM      4  C   UNL     1      13.966   4.678   5.068  0.00  0.00    +0.000 A 
ATOM      5  C   UNL     1      13.542   4.538   6.388  0.00  0.00    +0.000 A 
ATOM      6  C   UNL     1      14.384   3.931   7.310  0.00  0.00    +0.000 A 
ENDROOT
BRANCH   1   8
ATOM      7  C   UNL     1      16.561   1.474   7.890  0.00  0.00    +0.000 C 
ATOM      8  O   UNL     1      16.368   2.881   7.967  0.00  0.00    +0.000 OA
ENDBRANCH   1   8
BRANCH   6   9
ATOM      9  O   UNL     1      13.945   3.804   8.601  0.00  0.00    +0.000 OA
ATOM     10  H   UNL     1      13.254   3.116   8.562  0.00  0.00    +0.000 HD
ENDBRANCH   6   9
TORSDOF 2
ENDMDL
MODEL 7
REMARK VINA RESULT:    -3.494     20.886     21.821
REMARK INTER + INTRA:          -3.839
REMARK INTER:                  -3.787
REMARK INTRA:                  -0.052
REMARK UNBOUND:                -0.038
REMARK  Name = 
REMARK  3 active torsions:
REMARK  status: ('A' for Active; 'I' for Inactive)
REMARK    1  A    between atoms: C_1  and  O_2
REMARK    2  A    between atoms: O_2  and  C_3
REMARK    3  A    between atoms: C_8  and  O_9
REMARK                            x       y       z     vdW  Elec       q    Type
REMARK                         _______ _______ _______ _____ _____    ______ ____
ROOT
ATOM      1  C   UNL     1      16.950   5.646   4.137  0.00  0.00    +0.000 A 
ATOM      2  C   UNL     1      16.112   5.944   5.211  0.00  0.00    +0.000 A 
ATOM      3  C   UNL     1      14.887   5.279   5.348  0.00  0.00    +0.000 A 
ATOM      4  C   UNL     1      14.496   4.316   4.415  0.00  0.00    +0.000 A 
ATOM      5  C   UNL     1      15.329   4.013   3.340  0.00  0.00    +0.000 A 
ATOM      6  C   UNL     1      16.541   4.678   3.212  0.00  0.00    +0.000 A 
ENDROOT
BRANCH   1   8
ATOM      7  C   UNL     1      18.161   7.581   3.477  0.00  0.00    +0.000 C 
ATOM      8  O   UNL     1      18.171   6.217   3.879  0.00  0.00    +0.000 OA
ENDBRANCH   1   8
BRANCH   6   9
ATOM      9  O   UNL     1      17.342   4.363   2.147  0.00  0.00    +0.000 OA
ATOM     10  H   UNL     1      17.450   5.203   1.660  0.00  0.00    +0.000 HD
ENDBRANCH   6   9
TORSDOF 2
ENDMDL
MODEL 8
REMARK VINA RESULT:    -3.464     23.856     24.584
REMARK INTER + INTRA:          -3.806
REMARK INTER:                  -3.766
REMARK INTRA:                  -0.039
REMARK UNBOUND:                -0.038
REMARK  Name = 
REMARK  3 active torsions:
REMARK  status: ('A' for Active; 'I' for Inactive)
REMARK    1  A    between atoms: C_1  and  O_2
REMARK    2  A    between atoms: O_2  and  C_3
REMARK    3  A    between atoms: C_8  and  O_9
REMARK                            x       y       z     vdW  Elec       q    Type
REMARK                         _______ _______ _______ _____ _____    ______ ____
ROOT
ATOM      1  C   UNL     1      17.783  -2.198  -0.212  0.00  0.00    +0.000 A 
ATOM      2  C   UNL     1      18.621  -2.569   0.839  0.00  0.00    +0.000 A 
ATOM      3  C   UNL     1      18.638  -1.815   2.019  0.00  0.00    +0.000 A 
ATOM      4  C   UNL     1      17.822  -0.690   2.153  0.00  0.00    +0.000 A 
ATOM      5  C   UNL     1      16.981  -0.314   1.107  0.00  0.00    +0.000 A 
ATOM      6  C   UNL     1      16.971  -1.067  -0.059  0.00  0.00    +0.000 A 
ENDROOT
BRANCH   1   8
ATOM      7  C   UNL     1      18.052  -4.208  -1.452  0.00  0.00    +0.000 C 
ATOM      8  O   UNL     1      17.663  -2.839  -1.419  0.00  0.00    +0.000 OA
ENDBRANCH   1   8
BRANCH   6   9
ATOM      9  O   UNL     1      16.136  -0.678  -1.073  0.00  0.00    +0.000 OA
ATOM     10  H   UNL     1      16.289   0.282  -1.166  0.00  0.00    +0.000 HD
ENDBRANCH   6   9
TORSDOF 2
ENDMDL
