MODEL 1
REMARK VINA RESULT:    -4.948      0.000      0.000
REMARK INTER + INTRA:          -5.431
REMARK INTER:                  -5.382
REMARK INTRA:                  -0.049
REMARK UNBOUND:                -0.049
REMARK  Name = 
REMARK  3 active torsions:
REMARK  status: ('A' for Active; 'I' for Inactive)
REMARK    1  A    between atoms: C_1  and  O_2
REMARK    2  A    between atoms: O_2  and  C_3
REMARK    3  A    between atoms: C_8  and  O_9
REMARK                            x       y       z     vdW  Elec       q    Type
REMARK                         _______ _______ _______ _____ _____    ______ ____
ROOT
ATOM      1  C   UNL     1      13.186   1.549   6.379  0.00  0.00    +0.000 A 
ATOM      2  C   UNL     1      13.144   1.735   7.760  0.00  0.00    +0.000 A 
ATOM      3  C   UNL     1      12.008   1.350   8.484  0.00  0.00    +0.000 A 
ATOM      4  C   UNL     1      10.913   0.782   7.832  0.00  0.00    +0.000 A 
ATOM      5  C   UNL     1      10.947   0.593   6.452  0.00  0.00    +0.000 A 
ATOM      6  C   UNL     1      12.077   0.977   5.743  0.00  0.00    +0.000 A 
ENDROOT
BRANCH   1   8
ATOM      7  C   UNL     1      14.435   3.264   5.308  0.00  0.00    +0.000 C 
ATOM      8  O   UNL     1      14.227   1.877   5.548  0.00  0.00    +0.000 OA
ENDBRANCH   1   8
BRANCH   6   9
ATOM      9  O   UNL     1      12.087   0.781   4.387  0.00  0.00    +0.000 OA
ATOM     10  H   UNL     1      11.488   1.465   4.033  0.00  0.00    +0.000 HD
ENDBRANCH   6   9
TORSDOF 2
ENDMDL
MODEL 2
REMARK VINA RESULT:    -4.811     11.009     12.311
REMARK INTER + INTRA:          -5.281
REMARK INTER:                  -5.232
REMARK INTRA:                  -0.049
REMARK UNBOUND:                -0.049
REMARK  Name = 
REMARK  3 active torsions:
REMARK  status: ('A' for Active; 'I' for Inactive)
REMARK    1  A    between atoms: C_1  and  O_2
REMARK    2  A    between atoms: O_2  and  C_3
REMARK    3  A    between atoms: C_8  and  O_9
REMARK                            x       y       z     vdW  Elec       q    Type
REMARK                         _______ _______ _______ _____ _____    ______ ____
ROOT
ATOM      1  C   UNL     1       5.842  -7.968   9.630  0.00  0.00    +0.000 A 
ATOM      2  C   UNL     1       6.210  -9.296   9.418  0.00  0.00    +0.000 A 
ATOM      3  C   UNL     1       5.682 -10.004   8.332  0.00  0.00    +0.000 A 
ATOM      4  C   UNL     1       4.785  -9.390   7.455  0.00  0.00    +0.000 A 
ATOM      5  C   UNL     1       4.413  -8.063   7.659  0.00  0.00    +0.000 A 
ATOM      6  C   UNL     1       4.941  -7.369   8.740  0.00  0.00    +0.000 A 
ENDROOT
BRANCH   1   8
ATOM      7  C   UNL     1       7.685  -7.072  10.832  0.00  0.00    +0.000 C 
ATOM      8  O   UNL     1       6.277  -7.157  10.647  0.00  0.00    +0.000 OA
ENDBRANCH   1   8
BRANCH   6   9
ATOM      9  O   UNL     1       4.560  -6.066   8.920  0.00  0.00    +0.000 OA
ATOM     10  H   UNL     1       4.090  -5.829   8.098  0.00  0.00    +0.000 HD
ENDBRANCH   6   9
TORSDOF 2
ENDMDL
MODEL 3
REMARK VINA RESULT:    -4.791      2.269      3.319
REMARK INTER + INTRA:          -5.260
REMARK INTER:                  -5.215
REMARK INTRA:                  -0.045
REMARK UNBOUND:                -0.049
REMARK  Name = 
REMARK  3 active torsions:
REMARK  status: ('A' for Active; 'I' for Inactive)
REMARK    1  A    between atoms: C_1  and  O_2
REMARK    2  A    between atoms: O_2  and  C_3
REMARK    3  A    between atoms: C_8  and  O_9
REMARK                            x       y       z     vdW  Elec       q    Type
REMARK                         _______ _______ _______ _____ _____    ______ ____
ROOT
ATOM      1  C   UNL     1      11.542   0.911   7.917  0.00  0.00    +0.000 A 
ATOM      2  C   UNL     1      12.921   1.112   7.909  0.00  0.00    +0.000 A 
ATOM      3  C   UNL     1      13.611   1.181   6.692  0.00  0.00    +0.000 A 
ATOM      4  C   UNL     1      12.927   1.049   5.482  0.00  0.00    +0.000 A 
ATOM      5  C   UNL     1      11.549   0.849   5.482  0.00  0.00    +0.000 A 
ATOM      6  C   UNL     1      10.873   0.781   6.693  0.00  0.00    +0.000 A 
ENDROOT
BRANCH   1   8
ATOM      7  C   UNL     1      11.002   1.752  10.073  0.00  0.00    +0.000 C 
ATOM      8  O   UNL     1      10.742   0.823   9.027  0.00  0.00    +0.000 OA
ENDBRANCH   1   8
BRANCH   6   9
ATOM      9  O   UNL     1       9.518   0.584   6.668  0.00  0.00    +0.000 OA
ATOM     10  H   UNL     1       9.342  -0.028   7.408  0.00  0.00    +0.000 HD
ENDBRANCH   6   9
TORSDOF 2
ENDMDL
MODEL 4
REMARK VINA RESULT:    -4.705      1.683      2.983
REMARK INTER + INTRA:          -5.166
REMARK INTER:                  -5.127
REMARK INTRA:                  -0.039
REMARK UNBOUND:                -0.049
REMARK  Name = 
REMARK  3 active torsions:
REMARK  status: ('A' for Active; 'I' for Inactive)
REMARK    1  A    between atoms: C_1  and  O_2
REMARK    2  A    between atoms: O_2  and  C_3
REMARK    3  A    between atoms: C_8  and  O_9
REMARK                            x       y       z     vdW  Elec       q    Type
REMARK                         _______ _______ _______ _____ _____    ______ ____
ROOT
ATOM      1  C   UNL     1      11.956   1.806   6.456  0.00  0.00    +0.000 A 
ATOM      2  C   UNL     1      12.299   0.980   7.526  0.00  0.00    +0.000 A 
ATOM      3  C   UNL     1      12.977   1.512   8.631  0.00  0.00    +0.000 A 
ATOM      4  C   UNL     1      13.314   2.866   8.670  0.00  0.00    +0.000 A 
ATOM      5  C   UNL     1      12.975   3.697   7.605  0.00  0.00    +0.000 A 
ATOM      6  C   UNL     1      12.303   3.161   6.513  0.00  0.00    +0.000 A 
ENDROOT
BRANCH   1   8
ATOM      7  C   UNL     1      10.528   0.229   5.398  0.00  0.00    +0.000 C 
ATOM      8  O   UNL     1      11.296   1.423   5.316  0.00  0.00    +0.000 OA
ENDBRANCH   1   8
BRANCH   6   9
ATOM      9  O   UNL     1      11.980   3.998   5.478  0.00  0.00    +0.000 OA
ATOM     10  H   UNL     1      12.019   4.895   5.863  0.00  0.00    +0.000 HD
ENDBRANCH   6   9
TORSDOF 2
ENDMDL
MODEL 5
REMARK VINA RESULT:    -4.630      1.383      2.133
REMARK INTER + INTRA:          -5.085
REMARK INTER:                  -5.033
REMARK INTRA:                  -0.052
REMARK UNBOUND:                -0.049
REMARK  Name = 
REMARK  3 active torsions:
REMARK  status: ('A' for Active; 'I' for Inactive)
REMARK    1  A    between atoms: C_1  and  O_2
REMARK    2  A    between atoms: O_2  and  C_3
REMARK    3  A    between atoms: C_8  and  O_9
REMARK                            x       y       z     vdW  Elec       q    Type
REMARK                         _______ _______ _______ _____ _____    ______ ____
ROOT
ATOM      1  C   UNL     1      12.367   1.469   6.933  0.00  0.00    +0.000 A 
ATOM      2  C   UNL     1      11.217   0.979   7.549  0.00  0.00    +0.000 A 
ATOM      3  C   UNL     1      10.230   0.343   6.785  0.00  0.00    +0.000 A 
ATOM      4  C   UNL     1      10.388   0.197   5.406  0.00  0.00    +0.000 A 
ATOM      5  C   UNL     1      11.535   0.683   4.783  0.00  0.00    +0.000 A 
ATOM      6  C   UNL     1      12.508   1.312   5.548  0.00  0.00    +0.000 A 
ENDROOT
BRANCH   1   8
ATOM      7  C   UNL     1      13.101   3.333   8.211  0.00  0.00    +0.000 C 
ATOM      8  O   UNL     1      13.410   2.110   7.553  0.00  0.00    +0.000 OA
ENDBRANCH   1   8
BRANCH   6   9
ATOM      9  O   UNL     1      13.626   1.783   4.913  0.00  0.00    +0.000 OA
ATOM     10  H   UNL     1      14.036   0.992   4.514  0.00  0.00    +0.000 HD
ENDBRANCH   6   9
TORSDOF 2
ENDMDL
MODEL 6
REMARK VINA RESULT:    -4.597      2.420      3.688
REMARK INTER + INTRA:          -5.049
REMARK INTER:                  -5.010
REMARK INTRA:                  -0.039
REMARK UNBOUND:                -0.049
REMARK  Name = 
REMARK  3 active torsions:
REMARK  status: ('A' for Active; 'I' for Inactive)
REMARK    1  A    between atoms: C_1  and  O_2
REMARK    2  A    between atoms: O_2  and  C_3
REMARK    3  A    between atoms: C_8  and  O_9
REMARK                            x       y       z     vdW  Elec       q    Type
REMARK                         _______ _______ _______ _____ _____    ______ ____
ROOT
ATOM      1  C   UNL     1      11.209   1.896   6.988  0.00  0.00    +0.000 A 
ATOM      2  C   UNL     1      12.122   2.521   6.140  0.00  0.00    +0.000 A 
ATOM      3  C   UNL     1      13.074   3.404   6.666  0.00  0.00    +0.000 A 
ATOM      4  C   UNL     1      13.117   3.664   8.037  0.00  0.00    +0.000 A 
ATOM      5  C   UNL     1      12.209   3.042   8.891  0.00  0.00    +0.000 A 
ATOM      6  C   UNL     1      11.268   2.169   8.360  0.00  0.00    +0.000 A 
ENDROOT
BRANCH   1   8
ATOM      7  C   UNL     1      10.400   0.366   5.359  0.00  0.00    +0.000 C 
ATOM      8  O   UNL     1      10.227   1.014   6.614  0.00  0.00    +0.000 OA
ENDBRANCH   1   8
BRANCH   6   9
ATOM      9  O   UNL     1      10.385   1.570   9.219  0.00  0.00    +0.000 OA
ATOM     10  H   UNL     1       9.625   2.181   9.261  0.00  0.00    +0.000 HD
ENDBRANCH   6   9
TORSDOF 2
ENDMDL
MODEL 7
REMARK VINA RESULT:    -4.594      1.277      2.307
REMARK INTER + INTRA:          -5.046
REMARK INTER:                  -4.994
REMARK INTRA:                  -0.052
REMARK UNBOUND:                -0.049
REMARK  Name = 
REMARK  3 active torsions:
REMARK  status: ('A' for Active; 'I' for Inactive)
REMARK    1  A    between atoms: C_1  and  O_2
REMARK    2  A    between atoms: O_2  and  C_3
REMARK    3  A    between atoms: C_8  and  O_9
REMARK                            x       y       z     vdW  Elec       q    Type
REMARK                         _______ _______ _______ _____ _____    ______ ____
ROOT
ATOM      1  C   UNL     1      12.857   1.215   6.073  0.00  0.00    +0.000 A 
ATOM      2  C   UNL     1      12.039   0.899   4.989  0.00  0.00    +0.000 A 
ATOM      3  C   UNL     1      10.713   0.503   5.205  0.00  0.00    +0.000 A 
ATOM      4  C   UNL     1      10.201   0.422   6.501  0.00  0.00    +0.000 A 
ATOM      5  C   UNL     1      11.012   0.737   7.589  0.00  0.00    +0.000 A 
ATOM      6  C   UNL     1      12.326   1.128   7.365  0.00  0.00    +0.000 A 
ENDROOT
BRANCH   1   8
ATOM      7  C   UNL     1      14.414   2.900   5.452  0.00  0.00    +0.000 C 
ATOM      8  O   UNL     1      14.168   1.615   6.010  0.00  0.00    +0.000 OA
ENDBRANCH   1   8
BRANCH   6   9
ATOM      9  O   UNL     1      13.103   1.432   8.451  0.00  0.00    +0.000 OA
ATOM     10  H   UNL     1      12.810   2.322   8.725  0.00  0.00    +0.000 HD
ENDBRANCH   6   9
TORSDOF 2
ENDMDL
MODEL 8
REMARK VINA RESULT:    -4.578     11.464     12.160
REMARK INTER + INTRA:          -5.028
REMARK INTER:                  -4.977
REMARK INTRA:                  -0.051
REMARK UNBOUND:                -0.049
REMARK  Name = 
REMARK  3 active torsions:
REMARK  status: ('A' for Active; 'I' for Inactive)
REMARK    1  A    between atoms: C_1  and  O_2
REMARK    2  A    between atoms: O_2  and  C_3
REMARK    3  A    between atoms: C_8  and  O_9
REMARK                            x       y       z     vdW  Elec       q    Type
REMARK                         _______ _______ _______ _____ _____    ______ ____
ROOT
ATOM      1  C   UNL     1       6.478  -7.784   9.585  0.00  0.00    +0.000 A 
ATOM      2  C   UNL     1       5.193  -7.256   9.468  0.00  0.00    +0.000 A 
ATOM      3  C   UNL     1       4.277  -7.833   8.579  0.00  0.00    +0.000 A 
ATOM      4  C   UNL     1       4.642  -8.936   7.805  0.00  0.00    +0.000 A 
ATOM      5  C   UNL     1       5.923  -9.470   7.917  0.00  0.00    +0.000 A 
ATOM      6  C   UNL     1       6.825  -8.891   8.801  0.00  0.00    +0.000 A 
ENDROOT
BRANCH   1   8
ATOM      7  C   UNL     1       7.176  -7.283  11.801  0.00  0.00    +0.000 C 
ATOM      8  O   UNL     1       7.472  -7.323  10.410  0.00  0.00    +0.000 OA
ENDBRANCH   1   8
BRANCH   6   9
ATOM      9  O   UNL     1       8.079  -9.434   8.893  0.00  0.00    +0.000 OA
ATOM     10  H   UNL     1       8.134 -10.060   8.147  0.00  0.00    +0.000 HD
ENDBRANCH   6   9
TORSDOF 2
ENDMDL
MODEL 9
REMARK VINA RESULT:    -4.492     13.047     13.711
REMARK INTER + INTRA:          -4.935
REMARK INTER:                  -4.897
REMARK INTRA:                  -0.037
REMARK UNBOUND:                -0.049
REMARK  Name = 
REMARK  3 active torsions:
REMARK  status: ('A' for Active; 'I' for Inactive)
REMARK    1  A    between atoms: C_1  and  O_2
REMARK    2  A    between atoms: O_2  and  C_3
REMARK    3  A    between atoms: C_8  and  O_9
REMARK                            x       y       z     vdW  Elec       q    Type
REMARK                         _______ _______ _______ _____ _____    ______ ____
ROOT
ATOM      1  C   UNL     1       5.296  -9.393   9.669  0.00  0.00    +0.000 A 
ATOM      2  C   UNL     1       4.708  -8.205   9.235  0.00  0.00    +0.000 A 
ATOM      3  C   UNL     1       4.459  -8.005   7.872  0.00  0.00    +0.000 A 
ATOM      4  C   UNL     1       4.796  -8.987   6.939  0.00  0.00    +0.000 A 
ATOM      5  C   UNL     1       5.383 -10.177   7.364  0.00  0.00    +0.000 A 
ATOM      6  C   UNL     1       5.627 -10.366   8.719  0.00  0.00    +0.000 A 
ENDROOT
BRANCH   1   8
ATOM      7  C   UNL     1       5.220  -8.781  11.964  0.00  0.00    +0.000 C 
ATOM      8  O   UNL     1       5.597  -9.722  10.966  0.00  0.00    +0.000 OA
ENDBRANCH   1   8
BRANCH   6   9
ATOM      9  O   UNL     1       6.205 -11.544   9.113  0.00  0.00    +0.000 OA
ATOM     10  H   UNL     1       7.042 -11.589   8.613  0.00  0.00    +0.000 HD
ENDBRANCH   6   9
TORSDOF 2
ENDMDL
