MODEL 1
REMARK VINA RESULT:    -4.159      0.000      0.000
REMARK INTER + INTRA:          -6.170
REMARK INTER:                  -5.618
REMARK INTRA:                  -0.553
REMARK UNBOUND:                -0.553
REMARK  Name = 
REMARK  10 active torsions:
REMARK  status: ('A' for Active; 'I' for Inactive)
REMARK    1  A    between atoms: C_1  and  C_2
REMARK    2  A    between atoms: C_5  and  N_8
REMARK    3  A    between atoms: N_8  and  C_9
REMARK    4  A    between atoms: N_8  and  C_13
REMARK    5  A    between atoms: C_9  and  C_10
REMARK    6  A    between atoms: C_10  and  C_11
REMARK    7  A    between atoms: C_10  and  O_12
REMARK    8  A    between atoms: C_13  and  C_14
REMARK    9  A    between atoms: C_14  and  C_15
REMARK   10  A    between atoms: C_14  and  O_16
REMARK                            x       y       z     vdW  Elec       q    Type
REMARK                         _______ _______ _______ _____ _____    ______ ____
ROOT
ATOM      1  N   UNL     1       9.232  20.691  -1.984  0.00  0.00    +0.000 N 
ENDROOT
BRANCH   1   6
ATOM      2  C   UNL     1       8.584  22.369  -7.470  0.00  0.00    +0.000 C 
ATOM      3  C   UNL     1       8.750  21.910  -6.053  0.00  0.00    +0.000 A 
ATOM      4  C   UNL     1       7.651  21.776  -5.212  0.00  0.00    +0.000 A 
ATOM      5  C   UNL     1       7.816  21.374  -3.877  0.00  0.00    +0.000 A 
ATOM      6  C   UNL     1       9.076  21.110  -3.311  0.00  0.00    +0.000 A 
ATOM      7  C   UNL     1      10.165  21.254  -4.191  0.00  0.00    +0.000 A 
ATOM      8  C   UNL     1      10.014  21.653  -5.529  0.00  0.00    +0.000 A 
ENDBRANCH   1   6
BRANCH   1   9
ATOM      9  C   UNL     1       8.063  20.192  -1.220  0.00  0.00    +0.000 C 
BRANCH   9  10
ATOM     10  C   UNL     1       7.773  18.693  -1.476  0.00  0.00    +0.000 C 
ATOM     11  C   UNL     1       7.955  17.878  -0.201  0.00  0.00    +0.000 C 
BRANCH  10  12
ATOM     12  O   UNL     1       6.430  18.500  -1.939  0.00  0.00    +0.000 OA
ATOM     13  H   UNL     1       5.825  18.728  -1.214  0.00  0.00    +0.000 HD
ENDBRANCH  10  12
ENDBRANCH   9  10
ENDBRANCH   1   9
BRANCH   1  14
ATOM     14  C   UNL     1      10.360  21.179  -1.150  0.00  0.00    +0.000 C 
BRANCH  14  15
ATOM     15  C   UNL     1      11.273  20.026  -0.670  0.00  0.00    +0.000 C 
ATOM     16  C   UNL     1      11.445  18.925  -1.709  0.00  0.00    +0.000 C 
BRANCH  15  17
ATOM     17  O   UNL     1      12.570  20.497  -0.307  0.00  0.00    +0.000 OA
ATOM     18  H   UNL     1      12.573  21.444  -0.552  0.00  0.00    +0.000 HD
ENDBRANCH  15  17
ENDBRANCH  14  15
ENDBRANCH   1  14
TORSDOF 7
ENDMDL
MODEL 2
REMARK VINA RESULT:    -4.040     16.376     18.201
REMARK INTER + INTRA:          -6.010
REMARK INTER:                  -5.665
REMARK INTRA:                  -0.346
REMARK UNBOUND:                -0.553
REMARK  Name = 
REMARK  10 active torsions:
REMARK  status: ('A' for Active; 'I' for Inactive)
REMARK    1  A    between atoms: C_1  and  C_2
REMARK    2  A    between atoms: C_5  and  N_8
REMARK    3  A    between atoms: N_8  and  C_9
REMARK    4  A    between atoms: N_8  and  C_13
REMARK    5  A    between atoms: C_9  and  C_10
REMARK    6  A    between atoms: C_10  and  C_11
REMARK    7  A    between atoms: C_10  and  O_12
REMARK    8  A    between atoms: C_13  and  C_14
REMARK    9  A    between atoms: C_14  and  C_15
REMARK   10  A    between atoms: C_14  and  O_16
REMARK                            x       y       z     vdW  Elec       q    Type
REMARK                         _______ _______ _______ _____ _____    ______ ____
ROOT
ATOM      1  N   UNL     1      10.925  14.852 -20.173  0.00  0.00    +0.000 N 
ENDROOT
BRANCH   1   6
ATOM      2  C   UNL     1       9.996  20.492 -19.358  0.00  0.00    +0.000 C 
ATOM      3  C   UNL     1      10.261  19.032 -19.568  0.00  0.00    +0.000 A 
ATOM      4  C   UNL     1      10.395  18.508 -20.849  0.00  0.00    +0.000 A 
ATOM      5  C   UNL     1      10.615  17.134 -21.041  0.00  0.00    +0.000 A 
ATOM      6  C   UNL     1      10.687  16.218 -19.975  0.00  0.00    +0.000 A 
ATOM      7  C   UNL     1      10.549  16.784 -18.694  0.00  0.00    +0.000 A 
ATOM      8  C   UNL     1      10.331  18.157 -18.489  0.00  0.00    +0.000 A 
ENDBRANCH   1   6
BRANCH   1   9
ATOM      9  C   UNL     1      12.283  14.379 -20.532  0.00  0.00    +0.000 C 
BRANCH   9  10
ATOM     10  C   UNL     1      13.002  13.670 -19.358  0.00  0.00    +0.000 C 
ATOM     11  C   UNL     1      14.269  12.972 -19.837  0.00  0.00    +0.000 C 
BRANCH  10  12
ATOM     12  O   UNL     1      13.370  14.608 -18.338  0.00  0.00    +0.000 OA
ATOM     13  H   UNL     1      12.592  15.154 -18.135  0.00  0.00    +0.000 HD
ENDBRANCH  10  12
ENDBRANCH   9  10
ENDBRANCH   1   9
BRANCH   1  14
ATOM     14  C   UNL     1       9.823  13.925 -20.537  0.00  0.00    +0.000 C 
BRANCH  14  15
ATOM     15  C   UNL     1       8.429  14.564 -20.331  0.00  0.00    +0.000 C 
ATOM     16  C   UNL     1       7.633  14.697 -21.624  0.00  0.00    +0.000 C 
BRANCH  15  17
ATOM     17  O   UNL     1       7.641  13.821 -19.402  0.00  0.00    +0.000 OA
ATOM     18  H   UNL     1       8.197  13.748 -18.600  0.00  0.00    +0.000 HD
ENDBRANCH  15  17
ENDBRANCH  14  15
ENDBRANCH   1  14
TORSDOF 7
ENDMDL
MODEL 3
REMARK VINA RESULT:    -4.023     15.915     17.670
REMARK INTER + INTRA:          -5.986
REMARK INTER:                  -5.587
REMARK INTRA:                  -0.399
REMARK UNBOUND:                -0.553
REMARK  Name = 
REMARK  10 active torsions:
REMARK  status: ('A' for Active; 'I' for Inactive)
REMARK    1  A    between atoms: C_1  and  C_2
REMARK    2  A    between atoms: C_5  and  N_8
REMARK    3  A    between atoms: N_8  and  C_9
REMARK    4  A    between atoms: N_8  and  C_13
REMARK    5  A    between atoms: C_9  and  C_10
REMARK    6  A    between atoms: C_10  and  C_11
REMARK    7  A    between atoms: C_10  and  O_12
REMARK    8  A    between atoms: C_13  and  C_14
REMARK    9  A    between atoms: C_14  and  C_15
REMARK   10  A    between atoms: C_14  and  O_16
REMARK                            x       y       z     vdW  Elec       q    Type
REMARK                         _______ _______ _______ _____ _____    ______ ____
ROOT
ATOM      1  N   UNL     1      10.982  15.264 -20.342  0.00  0.00    +0.000 N 
ENDROOT
BRANCH   1   6
ATOM      2  C   UNL     1       9.796  20.519 -18.268  0.00  0.00    +0.000 C 
ATOM      3  C   UNL     1      10.128  19.162 -18.808  0.00  0.00    +0.000 A 
ATOM      4  C   UNL     1      10.080  18.904 -20.174  0.00  0.00    +0.000 A 
ATOM      5  C   UNL     1      10.363  17.622 -20.671  0.00  0.00    +0.000 A 
ATOM      6  C   UNL     1      10.682  16.535 -19.837  0.00  0.00    +0.000 A 
ATOM      7  C   UNL     1      10.724  16.832 -18.463  0.00  0.00    +0.000 A 
ATOM      8  C   UNL     1      10.445  18.111 -17.952  0.00  0.00    +0.000 A 
ENDBRANCH   1   6
BRANCH   1   9
ATOM      9  C   UNL     1      10.015  14.152 -20.178  0.00  0.00    +0.000 C 
BRANCH   9  10
ATOM     10  C   UNL     1       8.542  14.629 -20.200  0.00  0.00    +0.000 C 
ATOM     11  C   UNL     1       7.952  14.511 -21.600  0.00  0.00    +0.000 C 
BRANCH  10  12
ATOM     12  O   UNL     1       7.734  13.848 -19.310  0.00  0.00    +0.000 OA
ATOM     13  H   UNL     1       7.764  12.923 -19.609  0.00  0.00    +0.000 HD
ENDBRANCH  10  12
ENDBRANCH   9  10
ENDBRANCH   1   9
BRANCH   1  14
ATOM     14  C   UNL     1      12.387  14.840 -20.573  0.00  0.00    +0.000 C 
BRANCH  14  15
ATOM     15  C   UNL     1      12.919  13.935 -19.436  0.00  0.00    +0.000 C 
ATOM     16  C   UNL     1      14.078  13.046 -19.870  0.00  0.00    +0.000 C 
BRANCH  15  17
ATOM     17  O   UNL     1      13.347  14.699 -18.310  0.00  0.00    +0.000 OA
ATOM     18  H   UNL     1      14.295  14.878 -18.471  0.00  0.00    +0.000 HD
ENDBRANCH  15  17
ENDBRANCH  14  15
ENDBRANCH   1  14
TORSDOF 7
ENDMDL
MODEL 4
REMARK VINA RESULT:    -3.856     14.357     17.005
REMARK INTER + INTRA:          -5.762
REMARK INTER:                  -5.328
REMARK INTRA:                  -0.433
REMARK UNBOUND:                -0.553
REMARK  Name = 
REMARK  10 active torsions:
REMARK  status: ('A' for Active; 'I' for Inactive)
REMARK    1  A    between atoms: C_1  and  C_2
REMARK    2  A    between atoms: C_5  and  N_8
REMARK    3  A    between atoms: N_8  and  C_9
REMARK    4  A    between atoms: N_8  and  C_13
REMARK    5  A    between atoms: C_9  and  C_10
REMARK    6  A    between atoms: C_10  and  C_11
REMARK    7  A    between atoms: C_10  and  O_12
REMARK    8  A    between atoms: C_13  and  C_14
REMARK    9  A    between atoms: C_14  and  C_15
REMARK   10  A    between atoms: C_14  and  O_16
REMARK                            x       y       z     vdW  Elec       q    Type
REMARK                         _______ _______ _______ _____ _____    ______ ____
ROOT
ATOM      1  N   UNL     1      10.918  16.558 -19.481  0.00  0.00    +0.000 N 
ENDROOT
BRANCH   1   6
ATOM      2  C   UNL     1       9.428  21.153 -16.320  0.00  0.00    +0.000 C 
ATOM      3  C   UNL     1       9.836  19.972 -17.146  0.00  0.00    +0.000 A 
ATOM      4  C   UNL     1       9.492  19.887 -18.490  0.00  0.00    +0.000 A 
ATOM      5  C   UNL     1       9.851  18.763 -19.252  0.00  0.00    +0.000 A 
ATOM      6  C   UNL     1      10.545  17.667 -18.711  0.00  0.00    +0.000 A 
ATOM      7  C   UNL     1      10.879  17.787 -17.349  0.00  0.00    +0.000 A 
ATOM      8  C   UNL     1      10.528  18.906 -16.576  0.00  0.00    +0.000 A 
ENDBRANCH   1   6
BRANCH   1   9
ATOM      9  C   UNL     1      12.351  16.216 -19.648  0.00  0.00    +0.000 C 
BRANCH   9  10
ATOM     10  C   UNL     1      12.798  15.045 -18.739  0.00  0.00    +0.000 C 
ATOM     11  C   UNL     1      13.656  14.051 -19.512  0.00  0.00    +0.000 C 
BRANCH  10  12
ATOM     12  O   UNL     1      13.566  15.523 -17.625  0.00  0.00    +0.000 OA
ATOM     13  H   UNL     1      14.421  15.838 -17.962  0.00  0.00    +0.000 HD
ENDBRANCH  10  12
ENDBRANCH   9  10
ENDBRANCH   1   9
BRANCH   1  14
ATOM     14  C   UNL     1      10.020  16.017 -20.534  0.00  0.00    +0.000 C 
BRANCH  14  15
ATOM     15  C   UNL     1       9.284  14.736 -20.072  0.00  0.00    +0.000 C 
ATOM     16  C   UNL     1       7.973  14.498 -20.812  0.00  0.00    +0.000 C 
BRANCH  15  17
ATOM     17  O   UNL     1      10.097  13.574 -20.229  0.00  0.00    +0.000 OA
ATOM     18  H   UNL     1      10.632  13.528 -19.411  0.00  0.00    +0.000 HD
ENDBRANCH  15  17
ENDBRANCH  14  15
ENDBRANCH   1  14
TORSDOF 7
ENDMDL
MODEL 5
REMARK VINA RESULT:    -3.762      0.730      3.102
REMARK INTER + INTRA:          -5.635
REMARK INTER:                  -5.182
REMARK INTRA:                  -0.453
REMARK UNBOUND:                -0.553
REMARK  Name = 
REMARK  10 active torsions:
REMARK  status: ('A' for Active; 'I' for Inactive)
REMARK    1  A    between atoms: C_1  and  C_2
REMARK    2  A    between atoms: C_5  and  N_8
REMARK    3  A    between atoms: N_8  and  C_9
REMARK    4  A    between atoms: N_8  and  C_13
REMARK    5  A    between atoms: C_9  and  C_10
REMARK    6  A    between atoms: C_10  and  C_11
REMARK    7  A    between atoms: C_10  and  O_12
REMARK    8  A    between atoms: C_13  and  C_14
REMARK    9  A    between atoms: C_14  and  C_15
REMARK   10  A    between atoms: C_14  and  O_16
REMARK                            x       y       z     vdW  Elec       q    Type
REMARK                         _______ _______ _______ _____ _____    ______ ____
ROOT
ATOM      1  N   UNL     1       8.904  21.397  -2.018  0.00  0.00    +0.000 N 
ENDROOT
BRANCH   1   6
ATOM      2  C   UNL     1       8.586  22.337  -7.705  0.00  0.00    +0.000 C 
ATOM      3  C   UNL     1       8.666  22.068  -6.233  0.00  0.00    +0.000 A 
ATOM      4  C   UNL     1       7.526  22.110  -5.437  0.00  0.00    +0.000 A 
ATOM      5  C   UNL     1       7.611  21.887  -4.053  0.00  0.00    +0.000 A 
ATOM      6  C   UNL     1       8.829  21.637  -3.396  0.00  0.00    +0.000 A 
ATOM      7  C   UNL     1       9.960  21.601  -4.232  0.00  0.00    +0.000 A 
ATOM      8  C   UNL     1       9.889  21.819  -5.618  0.00  0.00    +0.000 A 
ENDBRANCH   1   6
BRANCH   1   9
ATOM      9  C   UNL     1      10.124  21.773  -1.263  0.00  0.00    +0.000 C 
BRANCH   9  10
ATOM     10  C   UNL     1      10.865  20.549  -0.671  0.00  0.00    +0.000 C 
ATOM     11  C   UNL     1      11.746  19.885  -1.723  0.00  0.00    +0.000 C 
BRANCH  10  12
ATOM     12  O   UNL     1      11.700  20.935   0.429  0.00  0.00    +0.000 OA
ATOM     13  H   UNL     1      12.155  21.759   0.188  0.00  0.00    +0.000 HD
ENDBRANCH  10  12
ENDBRANCH   9  10
ENDBRANCH   1   9
BRANCH   1  14
ATOM     14  C   UNL     1       8.068  20.352  -1.373  0.00  0.00    +0.000 C 
BRANCH  14  15
ATOM     15  C   UNL     1       8.025  19.045  -2.201  0.00  0.00    +0.000 C 
ATOM     16  C   UNL     1       8.652  17.857  -1.480  0.00  0.00    +0.000 C 
BRANCH  15  17
ATOM     17  O   UNL     1       6.690  18.690  -2.558  0.00  0.00    +0.000 OA
ATOM     18  H   UNL     1       6.786  18.063  -3.303  0.00  0.00    +0.000 HD
ENDBRANCH  15  17
ENDBRANCH  14  15
ENDBRANCH   1  14
TORSDOF 7
ENDMDL
MODEL 6
REMARK VINA RESULT:    -3.638     14.394     16.665
REMARK INTER + INTRA:          -5.466
REMARK INTER:                  -5.007
REMARK INTRA:                  -0.459
REMARK UNBOUND:                -0.553
REMARK  Name = 
REMARK  10 active torsions:
REMARK  status: ('A' for Active; 'I' for Inactive)
REMARK    1  A    between atoms: C_1  and  C_2
REMARK    2  A    between atoms: C_5  and  N_8
REMARK    3  A    between atoms: N_8  and  C_9
REMARK    4  A    between atoms: N_8  and  C_13
REMARK    5  A    between atoms: C_9  and  C_10
REMARK    6  A    between atoms: C_10  and  C_11
REMARK    7  A    between atoms: C_10  and  O_12
REMARK    8  A    between atoms: C_13  and  C_14
REMARK    9  A    between atoms: C_14  and  C_15
REMARK   10  A    between atoms: C_14  and  O_16
REMARK                            x       y       z     vdW  Elec       q    Type
REMARK                         _______ _______ _______ _____ _____    ______ ____
ROOT
ATOM      1  N   UNL     1      10.722  16.626 -19.237  0.00  0.00    +0.000 N 
ENDROOT
BRANCH   1   6
ATOM      2  C   UNL     1       9.435  21.506 -16.433  0.00  0.00    +0.000 C 
ATOM      3  C   UNL     1       9.747  20.230 -17.153  0.00  0.00    +0.000 A 
ATOM      4  C   UNL     1      10.446  19.206 -16.523  0.00  0.00    +0.000 A 
ATOM      5  C   UNL     1      10.762  18.024 -17.212  0.00  0.00    +0.000 A 
ATOM      6  C   UNL     1      10.421  17.815 -18.561  0.00  0.00    +0.000 A 
ATOM      7  C   UNL     1       9.713  18.870 -19.166  0.00  0.00    +0.000 A 
ATOM      8  C   UNL     1       9.389  20.056 -18.487  0.00  0.00    +0.000 A 
ENDBRANCH   1   6
BRANCH   1   9
ATOM      9  C   UNL     1       9.803  15.466 -19.146  0.00  0.00    +0.000 C 
BRANCH   9  10
ATOM     10  C   UNL     1       9.150  15.111 -20.504  0.00  0.00    +0.000 C 
ATOM     11  C   UNL     1       9.972  14.065 -21.248  0.00  0.00    +0.000 C 
BRANCH  10  12
ATOM     12  O   UNL     1       7.827  14.588 -20.318  0.00  0.00    +0.000 OA
ATOM     13  H   UNL     1       7.210  15.337 -20.273  0.00  0.00    +0.000 HD
ENDBRANCH  10  12
ENDBRANCH   9  10
ENDBRANCH   1   9
BRANCH   1  14
ATOM     14  C   UNL     1      12.119  16.288 -19.612  0.00  0.00    +0.000 C 
BRANCH  14  15
ATOM     15  C   UNL     1      12.676  15.104 -18.786  0.00  0.00    +0.000 C 
ATOM     16  C   UNL     1      13.654  14.234 -19.567  0.00  0.00    +0.000 C 
BRANCH  15  17
ATOM     17  O   UNL     1      13.332  15.550 -17.600  0.00  0.00    +0.000 OA
ATOM     18  H   UNL     1      14.213  15.855 -17.898  0.00  0.00    +0.000 HD
ENDBRANCH  15  17
ENDBRANCH  14  15
ENDBRANCH   1  14
TORSDOF 7
ENDMDL
MODEL 7
REMARK VINA RESULT:    -3.600      1.346      2.128
REMARK INTER + INTRA:          -5.415
REMARK INTER:                  -5.105
REMARK INTRA:                  -0.310
REMARK UNBOUND:                -0.553
REMARK  Name = 
REMARK  10 active torsions:
REMARK  status: ('A' for Active; 'I' for Inactive)
REMARK    1  A    between atoms: C_1  and  C_2
REMARK    2  A    between atoms: C_5  and  N_8
REMARK    3  A    between atoms: N_8  and  C_9
REMARK    4  A    between atoms: N_8  and  C_13
REMARK    5  A    between atoms: C_9  and  C_10
REMARK    6  A    between atoms: C_10  and  C_11
REMARK    7  A    between atoms: C_10  and  O_12
REMARK    8  A    between atoms: C_13  and  C_14
REMARK    9  A    between atoms: C_14  and  C_15
REMARK   10  A    between atoms: C_14  and  O_16
REMARK                            x       y       z     vdW  Elec       q    Type
REMARK                         _______ _______ _______ _____ _____    ______ ____
ROOT
ATOM      1  N   UNL     1       9.962  19.669  -0.682  0.00  0.00    +0.000 N 
ENDROOT
BRANCH   1   6
ATOM      2  C   UNL     1       9.849  22.296  -5.821  0.00  0.00    +0.000 C 
ATOM      3  C   UNL     1       9.875  21.637  -4.476  0.00  0.00    +0.000 A 
ATOM      4  C   UNL     1      11.076  21.430  -3.805  0.00  0.00    +0.000 A 
ATOM      5  C   UNL     1      11.098  20.784  -2.558  0.00  0.00    +0.000 A 
ATOM      6  C   UNL     1       9.936  20.295  -1.935  0.00  0.00    +0.000 A 
ATOM      7  C   UNL     1       8.740  20.523  -2.641  0.00  0.00    +0.000 A 
ATOM      8  C   UNL     1       8.704  21.169  -3.887  0.00  0.00    +0.000 A 
ENDBRANCH   1   6
BRANCH   1   9
ATOM      9  C   UNL     1       8.723  19.081  -0.118  0.00  0.00    +0.000 C 
BRANCH   9  10
ATOM     10  C   UNL     1       8.416  17.672  -0.684  0.00  0.00    +0.000 C 
ATOM     11  C   UNL     1       8.680  16.595   0.361  0.00  0.00    +0.000 C 
BRANCH  10  12
ATOM     12  O   UNL     1       7.045  17.569  -1.092  0.00  0.00    +0.000 OA
ATOM     13  H   UNL     1       6.497  18.008  -0.420  0.00  0.00    +0.000 HD
ENDBRANCH  10  12
ENDBRANCH   9  10
ENDBRANCH   1   9
BRANCH   1  14
ATOM     14  C   UNL     1      11.009  19.996   0.319  0.00  0.00    +0.000 C 
BRANCH  14  15
ATOM     15  C   UNL     1      12.082  18.886   0.427  0.00  0.00    +0.000 C 
ATOM     16  C   UNL     1      11.995  17.857  -0.693  0.00  0.00    +0.000 C 
BRANCH  15  17
ATOM     17  O   UNL     1      13.403  19.427   0.429  0.00  0.00    +0.000 OA
ATOM     18  H   UNL     1      13.520  19.810  -0.464  0.00  0.00    +0.000 HD
ENDBRANCH  15  17
ENDBRANCH  14  15
ENDBRANCH   1  14
TORSDOF 7
ENDMDL
MODEL 8
REMARK VINA RESULT:    -3.520     14.541     16.269
REMARK INTER + INTRA:          -5.307
REMARK INTER:                  -4.564
REMARK INTRA:                  -0.743
REMARK UNBOUND:                -0.553
REMARK  Name = 
REMARK  10 active torsions:
REMARK  status: ('A' for Active; 'I' for Inactive)
REMARK    1  A    between atoms: C_1  and  C_2
REMARK    2  A    between atoms: C_5  and  N_8
REMARK    3  A    between atoms: N_8  and  C_9
REMARK    4  A    between atoms: N_8  and  C_13
REMARK    5  A    between atoms: C_9  and  C_10
REMARK    6  A    between atoms: C_10  and  C_11
REMARK    7  A    between atoms: C_10  and  O_12
REMARK    8  A    between atoms: C_13  and  C_14
REMARK    9  A    between atoms: C_14  and  C_15
REMARK   10  A    between atoms: C_14  and  O_16
REMARK                            x       y       z     vdW  Elec       q    Type
REMARK                         _______ _______ _______ _____ _____    ______ ____
ROOT
ATOM      1  N   UNL     1      10.984  19.331 -18.550  0.00  0.00    +0.000 N 
ENDROOT
BRANCH   1   6
ATOM      2  C   UNL     1       8.842  14.856 -21.501  0.00  0.00    +0.000 C 
ATOM      3  C   UNL     1       9.374  16.023 -20.729  0.00  0.00    +0.000 A 
ATOM      4  C   UNL     1       9.589  17.251 -21.347  0.00  0.00    +0.000 A 
ATOM      5  C   UNL     1      10.117  18.334 -20.625  0.00  0.00    +0.000 A 
ATOM      6  C   UNL     1      10.476  18.241 -19.268  0.00  0.00    +0.000 A 
ATOM      7  C   UNL     1      10.244  16.987 -18.675  0.00  0.00    +0.000 A 
ATOM      8  C   UNL     1       9.715  15.896 -19.385  0.00  0.00    +0.000 A 
ENDBRANCH   1   6
BRANCH   1   9
ATOM      9  C   UNL     1      10.306  20.647 -18.618  0.00  0.00    +0.000 C 
BRANCH   9  10
ATOM     10  C   UNL     1       9.153  20.782 -17.592  0.00  0.00    +0.000 C 
ATOM     11  C   UNL     1       7.798  20.741 -18.288  0.00  0.00    +0.000 C 
BRANCH  10  12
ATOM     12  O   UNL     1       9.192  19.718 -16.632  0.00  0.00    +0.000 OA
ATOM     13  H   UNL     1       8.307  19.635 -16.239  0.00  0.00    +0.000 HD
ENDBRANCH  10  12
ENDBRANCH   9  10
ENDBRANCH   1   9
BRANCH   1  14
ATOM     14  C   UNL     1      12.411  19.384 -18.140  0.00  0.00    +0.000 C 
BRANCH  14  15
ATOM     15  C   UNL     1      12.651  18.711 -16.767  0.00  0.00    +0.000 C 
ATOM     16  C   UNL     1      14.110  18.748 -16.328  0.00  0.00    +0.000 C 
BRANCH  15  17
ATOM     17  O   UNL     1      11.865  19.315 -15.740  0.00  0.00    +0.000 OA
ATOM     18  H   UNL     1      12.452  19.345 -14.958  0.00  0.00    +0.000 HD
ENDBRANCH  15  17
ENDBRANCH  14  15
ENDBRANCH   1  14
TORSDOF 7
ENDMDL
MODEL 9
REMARK VINA RESULT:    -3.500      1.965      5.277
REMARK INTER + INTRA:          -5.281
REMARK INTER:                  -4.515
REMARK INTRA:                  -0.766
REMARK UNBOUND:                -0.553
REMARK  Name = 
REMARK  10 active torsions:
REMARK  status: ('A' for Active; 'I' for Inactive)
REMARK    1  A    between atoms: C_1  and  C_2
REMARK    2  A    between atoms: C_5  and  N_8
REMARK    3  A    between atoms: N_8  and  C_9
REMARK    4  A    between atoms: N_8  and  C_13
REMARK    5  A    between atoms: C_9  and  C_10
REMARK    6  A    between atoms: C_10  and  C_11
REMARK    7  A    between atoms: C_10  and  O_12
REMARK    8  A    between atoms: C_13  and  C_14
REMARK    9  A    between atoms: C_14  and  C_15
REMARK   10  A    between atoms: C_14  and  O_16
REMARK                            x       y       z     vdW  Elec       q    Type
REMARK                         _______ _______ _______ _____ _____    ______ ____
ROOT
ATOM      1  N   UNL     1       9.673  21.437  -2.263  0.00  0.00    +0.000 N 
ENDROOT
BRANCH   1   6
ATOM      2  C   UNL     1       7.441  16.763   0.287  0.00  0.00    +0.000 C 
ATOM      3  C   UNL     1       8.000  17.978  -0.389  0.00  0.00    +0.000 A 
ATOM      4  C   UNL     1       8.799  17.862  -1.521  0.00  0.00    +0.000 A 
ATOM      5  C   UNL     1       9.344  19.002  -2.133  0.00  0.00    +0.000 A 
ATOM      6  C   UNL     1       9.141  20.303  -1.637  0.00  0.00    +0.000 A 
ATOM      7  C   UNL     1       8.327  20.383  -0.493  0.00  0.00    +0.000 A 
ATOM      8  C   UNL     1       7.773  19.251   0.128  0.00  0.00    +0.000 A 
ENDBRANCH   1   6
BRANCH   1   9
ATOM      9  C   UNL     1      10.646  22.296  -1.546  0.00  0.00    +0.000 C 
BRANCH   9  10
ATOM     10  C   UNL     1      12.066  21.680  -1.495  0.00  0.00    +0.000 C 
ATOM     11  C   UNL     1      12.226  20.781  -0.275  0.00  0.00    +0.000 C 
BRANCH  10  12
ATOM     12  O   UNL     1      12.327  20.892  -2.665  0.00  0.00    +0.000 OA
ATOM     13  H   UNL     1      13.108  20.341  -2.488  0.00  0.00    +0.000 HD
ENDBRANCH  10  12
ENDBRANCH   9  10
ENDBRANCH   1   9
BRANCH   1  14
ATOM     14  C   UNL     1       8.957  22.105  -3.381  0.00  0.00    +0.000 C 
BRANCH  14  15
ATOM     15  C   UNL     1       9.295  21.472  -4.752  0.00  0.00    +0.000 C 
ATOM     16  C   UNL     1       8.764  22.278  -5.932  0.00  0.00    +0.000 C 
BRANCH  15  17
ATOM     17  O   UNL     1      10.703  21.312  -4.925  0.00  0.00    +0.000 OA
ATOM     18  H   UNL     1      10.907  20.438  -4.534  0.00  0.00    +0.000 HD
ENDBRANCH  15  17
ENDBRANCH  14  15
ENDBRANCH   1  14
TORSDOF 7
ENDMDL
