MODEL 1
REMARK VINA RESULT:    -5.026      0.000      0.000
REMARK INTER + INTRA:          -5.505
REMARK INTER:                  -5.466
REMARK INTRA:                  -0.038
REMARK UNBOUND:                -0.038
REMARK  Name = 
REMARK  3 active torsions:
REMARK  status: ('A' for Active; 'I' for Inactive)
REMARK    1  A    between atoms: C_1  and  O_2
REMARK    2  A    between atoms: O_2  and  C_3
REMARK    3  A    between atoms: C_8  and  O_9
REMARK                            x       y       z     vdW  Elec       q    Type
REMARK                         _______ _______ _______ _____ _____    ______ ____
ROOT
ATOM      1  C   UNL     1       1.320  -0.521  18.255  0.00  0.00    +0.000 A 
ATOM      2  C   UNL     1       0.210  -1.361  18.342  0.00  0.00    +0.000 A 
ATOM      3  C   UNL     1      -1.022  -0.948  17.819  0.00  0.00    +0.000 A 
ATOM      4  C   UNL     1      -1.150   0.302  17.211  0.00  0.00    +0.000 A 
ATOM      5  C   UNL     1      -0.046   1.147  17.120  0.00  0.00    +0.000 A 
ATOM      6  C   UNL     1       1.172   0.729  17.642  0.00  0.00    +0.000 A 
ENDROOT
BRANCH   1   8
ATOM      7  C   UNL     1       2.851  -2.146  19.070  0.00  0.00    +0.000 C 
ATOM      8  O   UNL     1       2.581  -0.793  18.722  0.00  0.00    +0.000 OA
ENDBRANCH   1   8
BRANCH   6   9
ATOM      9  O   UNL     1       2.243   1.577  17.541  0.00  0.00    +0.000 OA
ATOM     10  H   UNL     1       1.930   2.305  16.971  0.00  0.00    +0.000 HD
ENDBRANCH   6   9
TORSDOF 2
ENDMDL
MODEL 2
REMARK VINA RESULT:    -4.871      1.355      3.097
REMARK INTER + INTRA:          -5.336
REMARK INTER:                  -5.284
REMARK INTRA:                  -0.052
REMARK UNBOUND:                -0.038
REMARK  Name = 
REMARK  3 active torsions:
REMARK  status: ('A' for Active; 'I' for Inactive)
REMARK    1  A    between atoms: C_1  and  O_2
REMARK    2  A    between atoms: O_2  and  C_3
REMARK    3  A    between atoms: C_8  and  O_9
REMARK                            x       y       z     vdW  Elec       q    Type
REMARK                         _______ _______ _______ _____ _____    ______ ____
ROOT
ATOM      1  C   UNL     1       0.111  -0.023  17.694  0.00  0.00    +0.000 A 
ATOM      2  C   UNL     1      -0.301  -1.237  18.241  0.00  0.00    +0.000 A 
ATOM      3  C   UNL     1       0.643  -2.115  18.789  0.00  0.00    +0.000 A 
ATOM      4  C   UNL     1       1.999  -1.783  18.790  0.00  0.00    +0.000 A 
ATOM      5  C   UNL     1       2.419  -0.572  18.246  0.00  0.00    +0.000 A 
ATOM      6  C   UNL     1       1.476   0.292  17.705  0.00  0.00    +0.000 A 
ENDROOT
BRANCH   1   8
ATOM      7  C   UNL     1      -1.442   0.526  15.981  0.00  0.00    +0.000 C 
ATOM      8  O   UNL     1      -0.699   0.928  17.126  0.00  0.00    +0.000 OA
ENDBRANCH   1   8
BRANCH   6   9
ATOM      9  O   UNL     1       1.913   1.477  17.175  0.00  0.00    +0.000 OA
ATOM     10  H   UNL     1       1.943   1.322  16.212  0.00  0.00    +0.000 HD
ENDBRANCH   6   9
TORSDOF 2
ENDMDL
MODEL 3
REMARK VINA RESULT:    -4.185      1.464      2.812
REMARK INTER + INTRA:          -4.590
REMARK INTER:                  -4.543
REMARK INTRA:                  -0.047
REMARK UNBOUND:                -0.038
REMARK  Name = 
REMARK  3 active torsions:
REMARK  status: ('A' for Active; 'I' for Inactive)
REMARK    1  A    between atoms: C_1  and  O_2
REMARK    2  A    between atoms: O_2  and  C_3
REMARK    3  A    between atoms: C_8  and  O_9
REMARK                            x       y       z     vdW  Elec       q    Type
REMARK                         _______ _______ _______ _____ _____    ______ ____
ROOT
ATOM      1  C   UNL     1       1.247   0.441  17.797  0.00  0.00    +0.000 A 
ATOM      2  C   UNL     1       1.973  -0.531  18.484  0.00  0.00    +0.000 A 
ATOM      3  C   UNL     1       1.374  -1.757  18.800  0.00  0.00    +0.000 A 
ATOM      4  C   UNL     1       0.052  -2.015  18.432  0.00  0.00    +0.000 A 
ATOM      5  C   UNL     1      -0.679  -1.049  17.746  0.00  0.00    +0.000 A 
ATOM      6  C   UNL     1      -0.078   0.164  17.437  0.00  0.00    +0.000 A 
ENDROOT
BRANCH   1   8
ATOM      7  C   UNL     1       1.862   2.637  18.465  0.00  0.00    +0.000 C 
ATOM      8  O   UNL     1       1.702   1.681  17.424  0.00  0.00    +0.000 OA
ENDBRANCH   1   8
BRANCH   6   9
ATOM      9  O   UNL     1      -0.817   1.099  16.761  0.00  0.00    +0.000 OA
ATOM     10  H   UNL     1      -0.156   1.663  16.315  0.00  0.00    +0.000 HD
ENDBRANCH   6   9
TORSDOF 2
ENDMDL
MODEL 4
REMARK VINA RESULT:    -4.180      0.847      2.643
REMARK INTER + INTRA:          -4.585
REMARK INTER:                  -4.542
REMARK INTRA:                  -0.043
REMARK UNBOUND:                -0.038
REMARK  Name = 
REMARK  3 active torsions:
REMARK  status: ('A' for Active; 'I' for Inactive)
REMARK    1  A    between atoms: C_1  and  O_2
REMARK    2  A    between atoms: O_2  and  C_3
REMARK    3  A    between atoms: C_8  and  O_9
REMARK                            x       y       z     vdW  Elec       q    Type
REMARK                         _______ _______ _______ _____ _____    ______ ____
ROOT
ATOM      1  C   UNL     1       1.005   0.713  17.679  0.00  0.00    +0.000 A 
ATOM      2  C   UNL     1      -0.320   0.876  17.276  0.00  0.00    +0.000 A 
ATOM      3  C   UNL     1      -1.232  -0.175  17.431  0.00  0.00    +0.000 A 
ATOM      4  C   UNL     1      -0.825  -1.390  17.987  0.00  0.00    +0.000 A 
ATOM      5  C   UNL     1       0.497  -1.560  18.392  0.00  0.00    +0.000 A 
ATOM      6  C   UNL     1       1.395  -0.512  18.234  0.00  0.00    +0.000 A 
ENDROOT
BRANCH   1   8
ATOM      7  C   UNL     1       1.956   2.720  18.525  0.00  0.00    +0.000 C 
ATOM      8  O   UNL     1       2.002   1.651  17.587  0.00  0.00    +0.000 OA
ENDBRANCH   1   8
BRANCH   6   9
ATOM      9  O   UNL     1       2.689  -0.703  18.639  0.00  0.00    +0.000 OA
ATOM     10  H   UNL     1       3.062   0.196  18.711  0.00  0.00    +0.000 HD
ENDBRANCH   6   9
TORSDOF 2
ENDMDL
MODEL 5
REMARK VINA RESULT:    -4.049     17.343     18.725
REMARK INTER + INTRA:          -4.442
REMARK INTER:                  -4.399
REMARK INTRA:                  -0.043
REMARK UNBOUND:                -0.038
REMARK  Name = 
REMARK  3 active torsions:
REMARK  status: ('A' for Active; 'I' for Inactive)
REMARK    1  A    between atoms: C_1  and  O_2
REMARK    2  A    between atoms: O_2  and  C_3
REMARK    3  A    between atoms: C_8  and  O_9
REMARK                            x       y       z     vdW  Elec       q    Type
REMARK                         _______ _______ _______ _____ _____    ______ ____
ROOT
ATOM      1  C   UNL     1      10.532  15.670  17.082  0.00  0.00    +0.000 A 
ATOM      2  C   UNL     1      10.957  16.881  17.626  0.00  0.00    +0.000 A 
ATOM      3  C   UNL     1      10.730  17.157  18.981  0.00  0.00    +0.000 A 
ATOM      4  C   UNL     1      10.079  16.227  19.793  0.00  0.00    +0.000 A 
ATOM      5  C   UNL     1       9.652  15.014  19.256  0.00  0.00    +0.000 A 
ATOM      6  C   UNL     1       9.881  14.749  17.912  0.00  0.00    +0.000 A 
ENDROOT
BRANCH   1   8
ATOM      7  C   UNL     1      11.895  15.650  15.135  0.00  0.00    +0.000 C 
ATOM      8  O   UNL     1      10.685  15.268  15.779  0.00  0.00    +0.000 OA
ENDBRANCH   1   8
BRANCH   6   9
ATOM      9  O   UNL     1       9.451  13.551  17.407  0.00  0.00    +0.000 OA
ATOM     10  H   UNL     1      10.024  13.388  16.633  0.00  0.00    +0.000 HD
ENDBRANCH   6   9
TORSDOF 2
ENDMDL
MODEL 6
REMARK VINA RESULT:    -3.946     17.841     18.706
REMARK INTER + INTRA:          -4.331
REMARK INTER:                  -4.286
REMARK INTRA:                  -0.044
REMARK UNBOUND:                -0.038
REMARK  Name = 
REMARK  3 active torsions:
REMARK  status: ('A' for Active; 'I' for Inactive)
REMARK    1  A    between atoms: C_1  and  O_2
REMARK    2  A    between atoms: O_2  and  C_3
REMARK    3  A    between atoms: C_8  and  O_9
REMARK                            x       y       z     vdW  Elec       q    Type
REMARK                         _______ _______ _______ _____ _____    ______ ____
ROOT
ATOM      1  C   UNL     1      14.732   3.879   6.848  0.00  0.00    +0.000 A 
ATOM      2  C   UNL     1      15.956   3.372   6.415  0.00  0.00    +0.000 A 
ATOM      3  C   UNL     1      16.307   3.453   5.061  0.00  0.00    +0.000 A 
ATOM      4  C   UNL     1      15.438   4.038   4.138  0.00  0.00    +0.000 A 
ATOM      5  C   UNL     1      14.213   4.548   4.564  0.00  0.00    +0.000 A 
ATOM      6  C   UNL     1      13.874   4.463   5.909  0.00  0.00    +0.000 A 
ENDROOT
BRANCH   1   8
ATOM      7  C   UNL     1      14.508   2.689   8.893  0.00  0.00    +0.000 C 
ATOM      8  O   UNL     1      14.260   3.868   8.137  0.00  0.00    +0.000 OA
ENDBRANCH   1   8
BRANCH   6   9
ATOM      9  O   UNL     1      12.665   4.970   6.303  0.00  0.00    +0.000 OA
ATOM     10  H   UNL     1      12.075   4.831   5.538  0.00  0.00    +0.000 HD
ENDBRANCH   6   9
TORSDOF 2
ENDMDL
MODEL 7
REMARK VINA RESULT:    -3.649     17.450     18.618
REMARK INTER + INTRA:          -4.008
REMARK INTER:                  -3.991
REMARK INTRA:                  -0.016
REMARK UNBOUND:                -0.038
REMARK  Name = 
REMARK  3 active torsions:
REMARK  status: ('A' for Active; 'I' for Inactive)
REMARK    1  A    between atoms: C_1  and  O_2
REMARK    2  A    between atoms: O_2  and  C_3
REMARK    3  A    between atoms: C_8  and  O_9
REMARK                            x       y       z     vdW  Elec       q    Type
REMARK                         _______ _______ _______ _____ _____    ______ ____
ROOT
ATOM      1  C   UNL     1      10.483  15.656  18.076  0.00  0.00    +0.000 A 
ATOM      2  C   UNL     1      10.958  16.931  17.770  0.00  0.00    +0.000 A 
ATOM      3  C   UNL     1      10.835  17.428  16.466  0.00  0.00    +0.000 A 
ATOM      4  C   UNL     1      10.240  16.655  15.467  0.00  0.00    +0.000 A 
ATOM      5  C   UNL     1       9.764  15.381  15.766  0.00  0.00    +0.000 A 
ATOM      6  C   UNL     1       9.890  14.896  17.061  0.00  0.00    +0.000 A 
ENDROOT
BRANCH   1   8
ATOM      7  C   UNL     1       9.532  15.411  20.240  0.00  0.00    +0.000 C 
ATOM      8  O   UNL     1      10.537  15.044  19.303  0.00  0.00    +0.000 OA
ENDBRANCH   1   8
BRANCH   6   9
ATOM      9  O   UNL     1       9.414  13.640  17.330  0.00  0.00    +0.000 OA
ATOM     10  H   UNL     1       8.480  13.662  17.046  0.00  0.00    +0.000 HD
ENDBRANCH   6   9
TORSDOF 2
ENDMDL
MODEL 8
REMARK VINA RESULT:    -3.583     23.971     24.579
REMARK INTER + INTRA:          -3.936
REMARK INTER:                  -3.886
REMARK INTRA:                  -0.050
REMARK UNBOUND:                -0.038
REMARK  Name = 
REMARK  3 active torsions:
REMARK  status: ('A' for Active; 'I' for Inactive)
REMARK    1  A    between atoms: C_1  and  O_2
REMARK    2  A    between atoms: O_2  and  C_3
REMARK    3  A    between atoms: C_8  and  O_9
REMARK                            x       y       z     vdW  Elec       q    Type
REMARK                         _______ _______ _______ _____ _____    ______ ____
ROOT
ATOM      1  C   UNL     1      17.451  -3.287   0.667  0.00  0.00    +0.000 A 
ATOM      2  C   UNL     1      16.752  -2.198   1.188  0.00  0.00    +0.000 A 
ATOM      3  C   UNL     1      16.542  -1.060   0.399  0.00  0.00    +0.000 A 
ATOM      4  C   UNL     1      17.029  -1.005  -0.908  0.00  0.00    +0.000 A 
ATOM      5  C   UNL     1      17.728  -2.089  -1.435  0.00  0.00    +0.000 A 
ATOM      6  C   UNL     1      17.932  -3.213  -0.646  0.00  0.00    +0.000 A 
ENDROOT
BRANCH   1   8
ATOM      7  C   UNL     1      18.399  -4.344   2.573  0.00  0.00    +0.000 C 
ATOM      8  O   UNL     1      17.730  -4.459   1.322  0.00  0.00    +0.000 OA
ENDBRANCH   1   8
BRANCH   6   9
ATOM      9  O   UNL     1      18.622  -4.266  -1.186  0.00  0.00    +0.000 OA
ATOM     10  H   UNL     1      18.570  -4.128  -2.151  0.00  0.00    +0.000 HD
ENDBRANCH   6   9
TORSDOF 2
ENDMDL
MODEL 9
REMARK VINA RESULT:    -3.558     17.800     18.617
REMARK INTER + INTRA:          -3.908
REMARK INTER:                  -3.856
REMARK INTRA:                  -0.052
REMARK UNBOUND:                -0.038
REMARK  Name = 
REMARK  3 active torsions:
REMARK  status: ('A' for Active; 'I' for Inactive)
REMARK    1  A    between atoms: C_1  and  O_2
REMARK    2  A    between atoms: O_2  and  C_3
REMARK    3  A    between atoms: C_8  and  O_9
REMARK                            x       y       z     vdW  Elec       q    Type
REMARK                         _______ _______ _______ _____ _____    ______ ____
ROOT
ATOM      1  C   UNL     1      15.661   3.430   6.947  0.00  0.00    +0.000 A 
ATOM      2  C   UNL     1      16.089   3.571   5.628  0.00  0.00    +0.000 A 
ATOM      3  C   UNL     1      15.264   4.202   4.688  0.00  0.00    +0.000 A 
ATOM      4  C   UNL     1      14.012   4.691   5.062  0.00  0.00    +0.000 A 
ATOM      5  C   UNL     1      13.577   4.554   6.378  0.00  0.00    +0.000 A 
ATOM      6  C   UNL     1      14.402   3.927   7.303  0.00  0.00    +0.000 A 
ENDROOT
BRANCH   1   8
ATOM      7  C   UNL     1      16.541   1.428   7.878  0.00  0.00    +0.000 C 
ATOM      8  O   UNL     1      16.360   2.836   7.967  0.00  0.00    +0.000 OA
ENDBRANCH   1   8
BRANCH   6   9
ATOM      9  O   UNL     1      13.953   3.804   8.591  0.00  0.00    +0.000 OA
ATOM     10  H   UNL     1      14.643   4.227   9.137  0.00  0.00    +0.000 HD
ENDBRANCH   6   9
TORSDOF 2
ENDMDL
