MODEL 1
REMARK VINA RESULT:    -3.855      0.000      0.000
REMARK INTER + INTRA:          -5.761
REMARK INTER:                  -5.207
REMARK INTRA:                  -0.554
REMARK UNBOUND:                -0.554
REMARK  Name = 
REMARK  10 active torsions:
REMARK  status: ('A' for Active; 'I' for Inactive)
REMARK    1  A    between atoms: C_1  and  C_2
REMARK    2  A    between atoms: C_5  and  N_8
REMARK    3  A    between atoms: N_8  and  C_9
REMARK    4  A    between atoms: N_8  and  C_13
REMARK    5  A    between atoms: C_9  and  C_10
REMARK    6  A    between atoms: C_10  and  C_11
REMARK    7  A    between atoms: C_10  and  O_12
REMARK    8  A    between atoms: C_13  and  C_14
REMARK    9  A    between atoms: C_14  and  C_15
REMARK   10  A    between atoms: C_14  and  O_16
REMARK                            x       y       z     vdW  Elec       q    Type
REMARK                         _______ _______ _______ _____ _____    ______ ____
ROOT
ATOM      1  N   UNL     1      15.568 -11.446  19.235  0.00  0.00    +0.000 N 
ENDROOT
BRANCH   1   6
ATOM      2  C   UNL     1      11.168 -10.562  15.604  0.00  0.00    +0.000 C 
ATOM      3  C   UNL     1      12.294 -10.800  16.563  0.00  0.00    +0.000 A 
ATOM      4  C   UNL     1      12.724  -9.795  17.423  0.00  0.00    +0.000 A 
ATOM      5  C   UNL     1      13.800 -10.014  18.299  0.00  0.00    +0.000 A 
ATOM      6  C   UNL     1      14.509 -11.228  18.345  0.00  0.00    +0.000 A 
ATOM      7  C   UNL     1      14.046 -12.222  17.463  0.00  0.00    +0.000 A 
ATOM      8  C   UNL     1      12.970 -12.017  16.584  0.00  0.00    +0.000 A 
ENDBRANCH   1   6
BRANCH   1   9
ATOM      9  C   UNL     1      15.449 -11.023  20.651  0.00  0.00    +0.000 C 
BRANCH   9  10
ATOM     10  C   UNL     1      16.603 -11.554  21.535  0.00  0.00    +0.000 C 
ATOM     11  C   UNL     1      17.331 -10.408  22.227  0.00  0.00    +0.000 C 
BRANCH  10  12
ATOM     12  O   UNL     1      16.110 -12.442  22.548  0.00  0.00    +0.000 OA
ATOM     13  H   UNL     1      16.083 -13.339  22.175  0.00  0.00    +0.000 HD
ENDBRANCH  10  12
ENDBRANCH   9  10
ENDBRANCH   1   9
BRANCH   1  14
ATOM     14  C   UNL     1      16.962 -11.605  18.747  0.00  0.00    +0.000 C 
BRANCH  14  15
ATOM     15  C   UNL     1      17.411 -10.417  17.863  0.00  0.00    +0.000 C 
ATOM     16  C   UNL     1      18.012  -9.267  18.663  0.00  0.00    +0.000 C 
BRANCH  15  17
ATOM     17  O   UNL     1      18.367 -10.820  16.883  0.00  0.00    +0.000 OA
ATOM     18  H   UNL     1      18.988 -10.067  16.811  0.00  0.00    +0.000 HD
ENDBRANCH  15  17
ENDBRANCH  14  15
ENDBRANCH   1  14
TORSDOF 7
ENDMDL
MODEL 2
REMARK VINA RESULT:    -3.708      0.531      3.291
REMARK INTER + INTRA:          -5.563
REMARK INTER:                  -4.956
REMARK INTRA:                  -0.607
REMARK UNBOUND:                -0.554
REMARK  Name = 
REMARK  10 active torsions:
REMARK  status: ('A' for Active; 'I' for Inactive)
REMARK    1  A    between atoms: C_1  and  C_2
REMARK    2  A    between atoms: C_5  and  N_8
REMARK    3  A    between atoms: N_8  and  C_9
REMARK    4  A    between atoms: N_8  and  C_13
REMARK    5  A    between atoms: C_9  and  C_10
REMARK    6  A    between atoms: C_10  and  C_11
REMARK    7  A    between atoms: C_10  and  O_12
REMARK    8  A    between atoms: C_13  and  C_14
REMARK    9  A    between atoms: C_14  and  C_15
REMARK   10  A    between atoms: C_14  and  O_16
REMARK                            x       y       z     vdW  Elec       q    Type
REMARK                         _______ _______ _______ _____ _____    ______ ____
ROOT
ATOM      1  N   UNL     1      15.498 -11.146  19.146  0.00  0.00    +0.000 N 
ENDROOT
BRANCH   1   6
ATOM      2  C   UNL     1      11.025 -10.484  15.556  0.00  0.00    +0.000 C 
ATOM      3  C   UNL     1      12.201 -10.648  16.469  0.00  0.00    +0.000 A 
ATOM      4  C   UNL     1      12.879 -11.860  16.550  0.00  0.00    +0.000 A 
ATOM      5  C   UNL     1      13.962 -12.016  17.431  0.00  0.00    +0.000 A 
ATOM      6  C   UNL     1      14.405 -10.989  18.284  0.00  0.00    +0.000 A 
ATOM      7  C   UNL     1      13.697  -9.778  18.174  0.00  0.00    +0.000 A 
ATOM      8  C   UNL     1      12.614  -9.607  17.296  0.00  0.00    +0.000 A 
ENDBRANCH   1   6
BRANCH   1   9
ATOM      9  C   UNL     1      16.835 -11.478  18.597  0.00  0.00    +0.000 C 
BRANCH   9  10
ATOM     10  C   UNL     1      17.420 -10.346  17.717  0.00  0.00    +0.000 C 
ATOM     11  C   UNL     1      18.020  -9.241  18.579  0.00  0.00    +0.000 C 
BRANCH  10  12
ATOM     12  O   UNL     1      18.451 -10.846  16.854  0.00  0.00    +0.000 OA
ATOM     13  H   UNL     1      18.856 -10.089  16.399  0.00  0.00    +0.000 HD
ENDBRANCH  10  12
ENDBRANCH   9  10
ENDBRANCH   1   9
BRANCH   1  14
ATOM     14  C   UNL     1      15.305 -11.497  20.576  0.00  0.00    +0.000 C 
BRANCH  14  15
ATOM     15  C   UNL     1      16.418 -10.910  21.477  0.00  0.00    +0.000 C 
ATOM     16  C   UNL     1      16.187  -9.448  21.840  0.00  0.00    +0.000 C 
BRANCH  15  17
ATOM     17  O   UNL     1      16.560 -11.649  22.689  0.00  0.00    +0.000 OA
ATOM     18  H   UNL     1      17.346 -11.266  23.128  0.00  0.00    +0.000 HD
ENDBRANCH  15  17
ENDBRANCH  14  15
ENDBRANCH   1  14
TORSDOF 7
ENDMDL
MODEL 3
REMARK VINA RESULT:    -3.662     16.688     18.468
REMARK INTER + INTRA:          -5.500
REMARK INTER:                  -4.921
REMARK INTRA:                  -0.579
REMARK UNBOUND:                -0.554
REMARK  Name = 
REMARK  10 active torsions:
REMARK  status: ('A' for Active; 'I' for Inactive)
REMARK    1  A    between atoms: C_1  and  C_2
REMARK    2  A    between atoms: C_5  and  N_8
REMARK    3  A    between atoms: N_8  and  C_9
REMARK    4  A    between atoms: N_8  and  C_13
REMARK    5  A    between atoms: C_9  and  C_10
REMARK    6  A    between atoms: C_10  and  C_11
REMARK    7  A    between atoms: C_10  and  O_12
REMARK    8  A    between atoms: C_13  and  C_14
REMARK    9  A    between atoms: C_14  and  C_15
REMARK   10  A    between atoms: C_14  and  O_16
REMARK                            x       y       z     vdW  Elec       q    Type
REMARK                         _______ _______ _______ _____ _____    ______ ____
ROOT
ATOM      1  N   UNL     1      17.326   7.211  18.032  0.00  0.00    +0.000 N 
ENDROOT
BRANCH   1   6
ATOM      2  C   UNL     1      15.829   6.711  23.585  0.00  0.00    +0.000 C 
ATOM      3  C   UNL     1      16.236   6.856  22.150  0.00  0.00    +0.000 A 
ATOM      4  C   UNL     1      15.650   7.820  21.336  0.00  0.00    +0.000 A 
ATOM      5  C   UNL     1      16.014   7.932  19.984  0.00  0.00    +0.000 A 
ATOM      6  C   UNL     1      16.954   7.081  19.376  0.00  0.00    +0.000 A 
ATOM      7  C   UNL     1      17.528   6.121  20.229  0.00  0.00    +0.000 A 
ATOM      8  C   UNL     1      17.175   5.999  21.583  0.00  0.00    +0.000 A 
ENDBRANCH   1   6
BRANCH   1   9
ATOM      9  C   UNL     1      18.407   6.363  17.474  0.00  0.00    +0.000 C 
BRANCH   9  10
ATOM     10  C   UNL     1      17.870   5.090  16.774  0.00  0.00    +0.000 C 
ATOM     11  C   UNL     1      18.194   5.109  15.285  0.00  0.00    +0.000 C 
BRANCH  10  12
ATOM     12  O   UNL     1      18.451   3.908  17.340  0.00  0.00    +0.000 OA
ATOM     13  H   UNL     1      19.276   3.719  16.863  0.00  0.00    +0.000 HD
ENDBRANCH  10  12
ENDBRANCH   9  10
ENDBRANCH   1   9
BRANCH   1  14
ATOM     14  C   UNL     1      17.067   8.466  17.280  0.00  0.00    +0.000 C 
BRANCH  14  15
ATOM     15  C   UNL     1      15.870   8.328  16.309  0.00  0.00    +0.000 C 
ATOM     16  C   UNL     1      16.291   8.244  14.846  0.00  0.00    +0.000 C 
BRANCH  15  17
ATOM     17  O   UNL     1      15.078   7.179  16.607  0.00  0.00    +0.000 OA
ATOM     18  H   UNL     1      15.721   6.492  16.875  0.00  0.00    +0.000 HD
ENDBRANCH  15  17
ENDBRANCH  14  15
ENDBRANCH   1  14
TORSDOF 7
ENDMDL
MODEL 4
REMARK VINA RESULT:    -3.572     17.096     18.824
REMARK INTER + INTRA:          -5.379
REMARK INTER:                  -4.978
REMARK INTRA:                  -0.402
REMARK UNBOUND:                -0.554
REMARK  Name = 
REMARK  10 active torsions:
REMARK  status: ('A' for Active; 'I' for Inactive)
REMARK    1  A    between atoms: C_1  and  C_2
REMARK    2  A    between atoms: C_5  and  N_8
REMARK    3  A    between atoms: N_8  and  C_9
REMARK    4  A    between atoms: N_8  and  C_13
REMARK    5  A    between atoms: C_9  and  C_10
REMARK    6  A    between atoms: C_10  and  C_11
REMARK    7  A    between atoms: C_10  and  O_12
REMARK    8  A    between atoms: C_13  and  C_14
REMARK    9  A    between atoms: C_14  and  C_15
REMARK   10  A    between atoms: C_14  and  O_16
REMARK                            x       y       z     vdW  Elec       q    Type
REMARK                         _______ _______ _______ _____ _____    ______ ____
ROOT
ATOM      1  N   UNL     1      17.479   7.599  18.048  0.00  0.00    +0.000 N 
ENDROOT
BRANCH   1   6
ATOM      2  C   UNL     1      15.131   7.827  23.318  0.00  0.00    +0.000 C 
ATOM      3  C   UNL     1      15.763   7.770  21.961  0.00  0.00    +0.000 A 
ATOM      4  C   UNL     1      15.968   8.928  21.218  0.00  0.00    +0.000 A 
ATOM      5  C   UNL     1      16.533   8.865  19.934  0.00  0.00    +0.000 A 
ATOM      6  C   UNL     1      16.898   7.653  19.322  0.00  0.00    +0.000 A 
ATOM      7  C   UNL     1      16.679   6.503  20.102  0.00  0.00    +0.000 A 
ATOM      8  C   UNL     1      16.116   6.551  21.388  0.00  0.00    +0.000 A 
ENDBRANCH   1   6
BRANCH   1   9
ATOM      9  C   UNL     1      16.803   8.241  16.895  0.00  0.00    +0.000 C 
BRANCH   9  10
ATOM     10  C   UNL     1      15.336   7.776  16.725  0.00  0.00    +0.000 C 
ATOM     11  C   UNL     1      14.369   8.938  16.921  0.00  0.00    +0.000 C 
BRANCH  10  12
ATOM     12  O   UNL     1      15.117   7.232  15.416  0.00  0.00    +0.000 OA
ATOM     13  H   UNL     1      14.579   6.428  15.510  0.00  0.00    +0.000 HD
ENDBRANCH  10  12
ENDBRANCH   9  10
ENDBRANCH   1   9
BRANCH   1  14
ATOM     14  C   UNL     1      18.447   6.532  17.690  0.00  0.00    +0.000 C 
BRANCH  14  15
ATOM     15  C   UNL     1      17.753   5.302  17.057  0.00  0.00    +0.000 C 
ATOM     16  C   UNL     1      18.103   5.107  15.586  0.00  0.00    +0.000 C 
BRANCH  15  17
ATOM     17  O   UNL     1      18.078   4.098  17.751  0.00  0.00    +0.000 OA
ATOM     18  H   UNL     1      18.984   3.874  17.459  0.00  0.00    +0.000 HD
ENDBRANCH  15  17
ENDBRANCH  14  15
ENDBRANCH   1  14
TORSDOF 7
ENDMDL
MODEL 5
REMARK VINA RESULT:    -3.541      1.823      5.198
REMARK INTER + INTRA:          -5.338
REMARK INTER:                  -5.076
REMARK INTRA:                  -0.262
REMARK UNBOUND:                -0.554
REMARK  Name = 
REMARK  10 active torsions:
REMARK  status: ('A' for Active; 'I' for Inactive)
REMARK    1  A    between atoms: C_1  and  C_2
REMARK    2  A    between atoms: C_5  and  N_8
REMARK    3  A    between atoms: N_8  and  C_9
REMARK    4  A    between atoms: N_8  and  C_13
REMARK    5  A    between atoms: C_9  and  C_10
REMARK    6  A    between atoms: C_10  and  C_11
REMARK    7  A    between atoms: C_10  and  O_12
REMARK    8  A    between atoms: C_13  and  C_14
REMARK    9  A    between atoms: C_14  and  C_15
REMARK   10  A    between atoms: C_14  and  O_16
REMARK                            x       y       z     vdW  Elec       q    Type
REMARK                         _______ _______ _______ _____ _____    ______ ____
ROOT
ATOM      1  N   UNL     1      15.522 -10.594  18.831  0.00  0.00    +0.000 N 
ENDROOT
BRANCH   1   6
ATOM      2  C   UNL     1      18.023 -11.471  23.959  0.00  0.00    +0.000 C 
ATOM      3  C   UNL     1      17.397 -11.239  22.618  0.00  0.00    +0.000 A 
ATOM      4  C   UNL     1      16.948  -9.976  22.248  0.00  0.00    +0.000 A 
ATOM      5  C   UNL     1      16.334  -9.770  21.002  0.00  0.00    +0.000 A 
ATOM      6  C   UNL     1      16.117 -10.810  20.080  0.00  0.00    +0.000 A 
ATOM      7  C   UNL     1      16.585 -12.073  20.486  0.00  0.00    +0.000 A 
ATOM      8  C   UNL     1      17.202 -12.292  21.729  0.00  0.00    +0.000 A 
ENDBRANCH   1   6
BRANCH   1   9
ATOM      9  C   UNL     1      14.382 -11.436  18.395  0.00  0.00    +0.000 C 
BRANCH   9  10
ATOM     10  C   UNL     1      13.095 -10.616  18.132  0.00  0.00    +0.000 C 
ATOM     11  C   UNL     1      12.672 -10.718  16.672  0.00  0.00    +0.000 C 
BRANCH  10  12
ATOM     12  O   UNL     1      12.010 -11.087  18.943  0.00  0.00    +0.000 OA
ATOM     13  H   UNL     1      12.384 -11.474  19.752  0.00  0.00    +0.000 HD
ENDBRANCH  10  12
ENDBRANCH   9  10
ENDBRANCH   1   9
BRANCH   1  14
ATOM     14  C   UNL     1      16.265  -9.931  17.729  0.00  0.00    +0.000 C 
BRANCH  14  15
ATOM     15  C   UNL     1      17.797  -9.975  17.948  0.00  0.00    +0.000 C 
ATOM     16  C   UNL     1      18.451 -11.220  17.360  0.00  0.00    +0.000 C 
BRANCH  15  17
ATOM     17  O   UNL     1      18.442  -8.832  17.390  0.00  0.00    +0.000 OA
ATOM     18  H   UNL     1      17.839  -8.519  16.687  0.00  0.00    +0.000 HD
ENDBRANCH  15  17
ENDBRANCH  14  15
ENDBRANCH   1  14
TORSDOF 7
ENDMDL
MODEL 6
REMARK VINA RESULT:    -3.499     17.433     19.157
REMARK INTER + INTRA:          -5.281
REMARK INTER:                  -4.522
REMARK INTRA:                  -0.759
REMARK UNBOUND:                -0.554
REMARK  Name = 
REMARK  10 active torsions:
REMARK  status: ('A' for Active; 'I' for Inactive)
REMARK    1  A    between atoms: C_1  and  C_2
REMARK    2  A    between atoms: C_5  and  N_8
REMARK    3  A    between atoms: N_8  and  C_9
REMARK    4  A    between atoms: N_8  and  C_13
REMARK    5  A    between atoms: C_9  and  C_10
REMARK    6  A    between atoms: C_10  and  C_11
REMARK    7  A    between atoms: C_10  and  O_12
REMARK    8  A    between atoms: C_13  and  C_14
REMARK    9  A    between atoms: C_14  and  C_15
REMARK   10  A    between atoms: C_14  and  O_16
REMARK                            x       y       z     vdW  Elec       q    Type
REMARK                         _______ _______ _______ _____ _____    ______ ____
ROOT
ATOM      1  N   UNL     1      17.239   7.740  16.568  0.00  0.00    +0.000 N 
ENDROOT
BRANCH   1   6
ATOM      2  C   UNL     1      15.892   8.383  22.145  0.00  0.00    +0.000 C 
ATOM      3  C   UNL     1      16.259   8.200  20.704  0.00  0.00    +0.000 A 
ATOM      4  C   UNL     1      17.201   9.024  20.096  0.00  0.00    +0.000 A 
ATOM      5  C   UNL     1      17.519   8.866  18.738  0.00  0.00    +0.000 A 
ATOM      6  C   UNL     1      16.903   7.904  17.918  0.00  0.00    +0.000 A 
ATOM      7  C   UNL     1      15.958   7.087  18.566  0.00  0.00    +0.000 A 
ATOM      8  C   UNL     1      15.632   7.232  19.925  0.00  0.00    +0.000 A 
ENDBRANCH   1   6
BRANCH   1   9
ATOM      9  C   UNL     1      18.451   6.973  16.192  0.00  0.00    +0.000 C 
BRANCH   9  10
ATOM     10  C   UNL     1      18.205   5.445  16.150  0.00  0.00    +0.000 C 
ATOM     11  C   UNL     1      18.451   4.815  17.516  0.00  0.00    +0.000 C 
BRANCH  10  12
ATOM     12  O   UNL     1      16.856   5.151  15.762  0.00  0.00    +0.000 OA
ATOM     13  H   UNL     1      16.720   5.493  14.862  0.00  0.00    +0.000 HD
ENDBRANCH  10  12
ENDBRANCH   9  10
ENDBRANCH   1   9
BRANCH   1  14
ATOM     14  C   UNL     1      16.756   8.691  15.534  0.00  0.00    +0.000 C 
BRANCH  14  15
ATOM     15  C   UNL     1      15.273   8.447  15.163  0.00  0.00    +0.000 C 
ATOM     16  C   UNL     1      14.812   9.269  13.966  0.00  0.00    +0.000 C 
BRANCH  15  17
ATOM     17  O   UNL     1      15.020   7.072  14.880  0.00  0.00    +0.000 OA
ATOM     18  H   UNL     1      14.346   6.799  15.534  0.00  0.00    +0.000 HD
ENDBRANCH  15  17
ENDBRANCH  14  15
ENDBRANCH   1  14
TORSDOF 7
ENDMDL
MODEL 7
REMARK VINA RESULT:    -3.388      1.704      5.591
REMARK INTER + INTRA:          -5.131
REMARK INTER:                  -4.624
REMARK INTRA:                  -0.506
REMARK UNBOUND:                -0.554
REMARK  Name = 
REMARK  10 active torsions:
REMARK  status: ('A' for Active; 'I' for Inactive)
REMARK    1  A    between atoms: C_1  and  C_2
REMARK    2  A    between atoms: C_5  and  N_8
REMARK    3  A    between atoms: N_8  and  C_9
REMARK    4  A    between atoms: N_8  and  C_13
REMARK    5  A    between atoms: C_9  and  C_10
REMARK    6  A    between atoms: C_10  and  C_11
REMARK    7  A    between atoms: C_10  and  O_12
REMARK    8  A    between atoms: C_13  and  C_14
REMARK    9  A    between atoms: C_14  and  C_15
REMARK   10  A    between atoms: C_14  and  O_16
REMARK                            x       y       z     vdW  Elec       q    Type
REMARK                         _______ _______ _______ _____ _____    ______ ____
ROOT
ATOM      1  N   UNL     1      15.796 -10.843  18.932  0.00  0.00    +0.000 N 
ENDROOT
BRANCH   1   6
ATOM      2  C   UNL     1      17.919 -11.458  24.266  0.00  0.00    +0.000 C 
ATOM      3  C   UNL     1      17.391 -11.297  22.873  0.00  0.00    +0.000 A 
ATOM      4  C   UNL     1      17.080 -10.039  22.368  0.00  0.00    +0.000 A 
ATOM      5  C   UNL     1      16.558  -9.896  21.072  0.00  0.00    +0.000 A 
ATOM      6  C   UNL     1      16.299 -10.993  20.231  0.00  0.00    +0.000 A 
ATOM      7  C   UNL     1      16.627 -12.250  20.773  0.00  0.00    +0.000 A 
ATOM      8  C   UNL     1      17.152 -12.406  22.067  0.00  0.00    +0.000 A 
ENDBRANCH   1   6
BRANCH   1   9
ATOM      9  C   UNL     1      16.052  -9.593  18.177  0.00  0.00    +0.000 C 
BRANCH   9  10
ATOM     10  C   UNL     1      17.374  -9.637  17.373  0.00  0.00    +0.000 C 
ATOM     11  C   UNL     1      18.451  -8.797  18.048  0.00  0.00    +0.000 C 
BRANCH  10  12
ATOM     12  O   UNL     1      17.863 -10.981  17.260  0.00  0.00    +0.000 OA
ATOM     13  H   UNL     1      17.687 -11.437  18.100  0.00  0.00    +0.000 HD
ENDBRANCH  10  12
ENDBRANCH   9  10
ENDBRANCH   1   9
BRANCH   1  14
ATOM     14  C   UNL     1      14.622 -11.625  18.467  0.00  0.00    +0.000 C 
BRANCH  14  15
ATOM     15  C   UNL     1      13.368 -10.739  18.275  0.00  0.00    +0.000 C 
ATOM     16  C   UNL     1      12.812 -10.786  16.857  0.00  0.00    +0.000 C 
BRANCH  15  17
ATOM     17  O   UNL     1      12.322 -11.105  19.173  0.00  0.00    +0.000 OA
ATOM     18  H   UNL     1      11.568 -11.347  18.598  0.00  0.00    +0.000 HD
ENDBRANCH  15  17
ENDBRANCH  14  15
ENDBRANCH   1  14
TORSDOF 7
ENDMDL
MODEL 8
REMARK VINA RESULT:    -2.942     16.489     18.273
REMARK INTER + INTRA:          -4.528
REMARK INTER:                  -4.033
REMARK INTRA:                  -0.496
REMARK UNBOUND:                -0.554
REMARK  Name = 
REMARK  10 active torsions:
REMARK  status: ('A' for Active; 'I' for Inactive)
REMARK    1  A    between atoms: C_1  and  C_2
REMARK    2  A    between atoms: C_5  and  N_8
REMARK    3  A    between atoms: N_8  and  C_9
REMARK    4  A    between atoms: N_8  and  C_13
REMARK    5  A    between atoms: C_9  and  C_10
REMARK    6  A    between atoms: C_10  and  C_11
REMARK    7  A    between atoms: C_10  and  O_12
REMARK    8  A    between atoms: C_13  and  C_14
REMARK    9  A    between atoms: C_14  and  C_15
REMARK   10  A    between atoms: C_14  and  O_16
REMARK                            x       y       z     vdW  Elec       q    Type
REMARK                         _______ _______ _______ _____ _____    ______ ____
ROOT
ATOM      1  N   UNL     1      17.646   6.927  19.459  0.00  0.00    +0.000 N 
ENDROOT
BRANCH   1   6
ATOM      2  C   UNL     1      17.384   4.875  24.849  0.00  0.00    +0.000 C 
ATOM      3  C   UNL     1      17.468   5.389  23.445  0.00  0.00    +0.000 A 
ATOM      4  C   UNL     1      18.393   6.368  23.096  0.00  0.00    +0.000 A 
ATOM      5  C   UNL     1      18.447   6.868  21.785  0.00  0.00    +0.000 A 
ATOM      6  C   UNL     1      17.574   6.438  20.770  0.00  0.00    +0.000 A 
ATOM      7  C   UNL     1      16.654   5.446  21.157  0.00  0.00    +0.000 A 
ATOM      8  C   UNL     1      16.591   4.936  22.464  0.00  0.00    +0.000 A 
ENDBRANCH   1   6
BRANCH   1   9
ATOM      9  C   UNL     1      18.451   6.209  18.441  0.00  0.00    +0.000 C 
BRANCH   9  10
ATOM     10  C   UNL     1      17.614   5.199  17.618  0.00  0.00    +0.000 C 
ATOM     11  C   UNL     1      17.544   5.617  16.153  0.00  0.00    +0.000 C 
BRANCH  10  12
ATOM     12  O   UNL     1      18.187   3.886  17.678  0.00  0.00    +0.000 OA
ATOM     13  H   UNL     1      18.008   3.440  16.833  0.00  0.00    +0.000 HD
ENDBRANCH  10  12
ENDBRANCH   9  10
ENDBRANCH   1   9
BRANCH   1  14
ATOM     14  C   UNL     1      17.392   8.359  19.158  0.00  0.00    +0.000 C 
BRANCH  14  15
ATOM     15  C   UNL     1      15.880   8.685  19.107  0.00  0.00    +0.000 C 
ATOM     16  C   UNL     1      15.095   7.752  18.193  0.00  0.00    +0.000 C 
BRANCH  15  17
ATOM     17  O   UNL     1      15.286   8.637  20.403  0.00  0.00    +0.000 OA
ATOM     18  H   UNL     1      14.664   7.882  20.368  0.00  0.00    +0.000 HD
ENDBRANCH  15  17
ENDBRANCH  14  15
ENDBRANCH   1  14
TORSDOF 7
ENDMDL
