MODEL 1
REMARK VINA RESULT:    -5.600      0.000      0.000
REMARK INTER + INTRA:          -7.878
REMARK INTER:                  -7.564
REMARK INTRA:                  -0.314
REMARK UNBOUND:                -0.314
REMARK  Name = 
REMARK  10 active torsions:
REMARK  status: ('A' for Active; 'I' for Inactive)
REMARK    1  A    between atoms: C_1  and  C_2
REMARK    2  A    between atoms: C_5  and  N_8
REMARK    3  A    between atoms: N_8  and  C_9
REMARK    4  A    between atoms: N_8  and  C_13
REMARK    5  A    between atoms: C_9  and  C_10
REMARK    6  A    between atoms: C_10  and  C_11
REMARK    7  A    between atoms: C_10  and  O_12
REMARK    8  A    between atoms: C_13  and  C_14
REMARK    9  A    between atoms: C_14  and  C_15
REMARK   10  A    between atoms: C_14  and  O_16
REMARK                            x       y       z     vdW  Elec       q    Type
REMARK                         _______ _______ _______ _____ _____    ______ ____
ROOT
ATOM      1  N   UNL     1     -10.691   6.556 -15.334  0.00  0.00    +0.000 N 
ENDROOT
BRANCH   1   6
ATOM      2  C   UNL     1      -8.173   2.013 -17.855  0.00  0.00    +0.000 C 
ATOM      3  C   UNL     1      -8.813   3.188 -17.180  0.00  0.00    +0.000 A 
ATOM      4  C   UNL     1      -9.998   3.044 -16.466  0.00  0.00    +0.000 A 
ATOM      5  C   UNL     1     -10.609   4.154 -15.861  0.00  0.00    +0.000 A 
ATOM      6  C   UNL     1     -10.087   5.456 -15.956  0.00  0.00    +0.000 A 
ATOM      7  C   UNL     1      -8.887   5.564 -16.683  0.00  0.00    +0.000 A 
ATOM      8  C   UNL     1      -8.264   4.462 -17.291  0.00  0.00    +0.000 A 
ENDBRANCH   1   6
BRANCH   1   9
ATOM      9  C   UNL     1      -9.970   7.848 -15.243  0.00  0.00    +0.000 C 
BRANCH   9  10
ATOM     10  C   UNL     1     -10.459   8.882 -16.287  0.00  0.00    +0.000 C 
ATOM     11  C   UNL     1      -9.564   8.876 -17.521  0.00  0.00    +0.000 C 
BRANCH  10  12
ATOM     12  O   UNL     1     -11.799   8.594 -16.709  0.00  0.00    +0.000 OA
ATOM     13  H   UNL     1     -11.976   7.656 -16.528  0.00  0.00    +0.000 HD
ENDBRANCH  10  12
ENDBRANCH   9  10
ENDBRANCH   1   9
BRANCH   1  14
ATOM     14  C   UNL     1     -11.773   6.373 -14.333  0.00  0.00    +0.000 C 
BRANCH  14  15
ATOM     15  C   UNL     1     -11.380   6.923 -12.940  0.00  0.00    +0.000 C 
ATOM     16  C   UNL     1     -12.205   8.134 -12.519  0.00  0.00    +0.000 C 
BRANCH  15  17
ATOM     17  O   UNL     1     -11.506   5.928 -11.926  0.00  0.00    +0.000 OA
ATOM     18  H   UNL     1     -12.379   5.515 -12.084  0.00  0.00    +0.000 HD
ENDBRANCH  15  17
ENDBRANCH  14  15
ENDBRANCH   1  14
TORSDOF 7
ENDMDL
MODEL 2
REMARK VINA RESULT:    -5.321      0.732      3.413
REMARK INTER + INTRA:          -7.502
REMARK INTER:                  -7.101
REMARK INTRA:                  -0.401
REMARK UNBOUND:                -0.314
REMARK  Name = 
REMARK  10 active torsions:
REMARK  status: ('A' for Active; 'I' for Inactive)
REMARK    1  A    between atoms: C_1  and  C_2
REMARK    2  A    between atoms: C_5  and  N_8
REMARK    3  A    between atoms: N_8  and  C_9
REMARK    4  A    between atoms: N_8  and  C_13
REMARK    5  A    between atoms: C_9  and  C_10
REMARK    6  A    between atoms: C_10  and  C_11
REMARK    7  A    between atoms: C_10  and  O_12
REMARK    8  A    between atoms: C_13  and  C_14
REMARK    9  A    between atoms: C_14  and  C_15
REMARK   10  A    between atoms: C_14  and  O_16
REMARK                            x       y       z     vdW  Elec       q    Type
REMARK                         _______ _______ _______ _____ _____    ______ ____
ROOT
ATOM      1  N   UNL     1     -10.973   6.022 -15.588  0.00  0.00    +0.000 N 
ENDROOT
BRANCH   1   6
ATOM      2  C   UNL     1      -7.705   1.786 -17.758  0.00  0.00    +0.000 C 
ATOM      3  C   UNL     1      -8.565   2.887 -17.217  0.00  0.00    +0.000 A 
ATOM      4  C   UNL     1      -8.173   4.217 -17.320  0.00  0.00    +0.000 A 
ATOM      5  C   UNL     1      -8.969   5.242 -16.784  0.00  0.00    +0.000 A 
ATOM      6  C   UNL     1     -10.174   4.993 -16.103  0.00  0.00    +0.000 A 
ATOM      7  C   UNL     1     -10.541   3.637 -16.019  0.00  0.00    +0.000 A 
ATOM      8  C   UNL     1      -9.755   2.602 -16.553  0.00  0.00    +0.000 A 
ENDBRANCH   1   6
BRANCH   1   9
ATOM      9  C   UNL     1     -11.798   5.788 -14.379  0.00  0.00    +0.000 C 
BRANCH   9  10
ATOM     10  C   UNL     1     -11.290   6.573 -13.144  0.00  0.00    +0.000 C 
ATOM     11  C   UNL     1     -12.062   7.876 -12.972  0.00  0.00    +0.000 C 
BRANCH  10  12
ATOM     12  O   UNL     1     -11.446   5.802 -11.945  0.00  0.00    +0.000 OA
ATOM     13  H   UNL     1     -10.598   5.368 -11.753  0.00  0.00    +0.000 HD
ENDBRANCH  10  12
ENDBRANCH   9  10
ENDBRANCH   1   9
BRANCH   1  14
ATOM     14  C   UNL     1     -11.429   7.145 -16.447  0.00  0.00    +0.000 C 
BRANCH  14  15
ATOM     15  C   UNL     1     -10.584   8.424 -16.233  0.00  0.00    +0.000 C 
ATOM     16  C   UNL     1      -9.685   8.755 -17.418  0.00  0.00    +0.000 C 
BRANCH  15  17
ATOM     17  O   UNL     1     -11.407   9.561 -15.971  0.00  0.00    +0.000 OA
ATOM     18  H   UNL     1     -12.323   9.217 -15.982  0.00  0.00    +0.000 HD
ENDBRANCH  15  17
ENDBRANCH  14  15
ENDBRANCH   1  14
TORSDOF 7
ENDMDL
MODEL 3
REMARK VINA RESULT:    -5.175      2.374      5.070
REMARK INTER + INTRA:          -7.304
REMARK INTER:                  -6.960
REMARK INTRA:                  -0.344
REMARK UNBOUND:                -0.314
REMARK  Name = 
REMARK  10 active torsions:
REMARK  status: ('A' for Active; 'I' for Inactive)
REMARK    1  A    between atoms: C_1  and  C_2
REMARK    2  A    between atoms: C_5  and  N_8
REMARK    3  A    between atoms: N_8  and  C_9
REMARK    4  A    between atoms: N_8  and  C_13
REMARK    5  A    between atoms: C_9  and  C_10
REMARK    6  A    between atoms: C_10  and  C_11
REMARK    7  A    between atoms: C_10  and  O_12
REMARK    8  A    between atoms: C_13  and  C_14
REMARK    9  A    between atoms: C_14  and  C_15
REMARK   10  A    between atoms: C_14  and  O_16
REMARK                            x       y       z     vdW  Elec       q    Type
REMARK                         _______ _______ _______ _____ _____    ______ ____
ROOT
ATOM      1  N   UNL     1      -8.768   6.311 -17.232  0.00  0.00    +0.000 N 
ENDROOT
BRANCH   1   6
ATOM      2  C   UNL     1     -11.704   8.428 -12.735  0.00  0.00    +0.000 C 
ATOM      3  C   UNL     1     -10.947   7.855 -13.894  0.00  0.00    +0.000 A 
ATOM      4  C   UNL     1      -9.583   7.600 -13.801  0.00  0.00    +0.000 A 
ATOM      5  C   UNL     1      -8.873   7.092 -14.901  0.00  0.00    +0.000 A 
ATOM      6  C   UNL     1      -9.478   6.836 -16.145  0.00  0.00    +0.000 A 
ATOM      7  C   UNL     1     -10.858   7.104 -16.202  0.00  0.00    +0.000 A 
ATOM      8  C   UNL     1     -11.580   7.610 -15.109  0.00  0.00    +0.000 A 
ENDBRANCH   1   6
BRANCH   1   9
ATOM      9  C   UNL     1      -9.089   6.749 -18.612  0.00  0.00    +0.000 C 
BRANCH   9  10
ATOM     10  C   UNL     1      -8.051   7.745 -19.182  0.00  0.00    +0.000 C 
ATOM     11  C   UNL     1      -8.453   9.184 -18.881  0.00  0.00    +0.000 C 
BRANCH  10  12
ATOM     12  O   UNL     1      -6.753   7.518 -18.615  0.00  0.00    +0.000 OA
ATOM     13  H   UNL     1      -6.633   8.141 -17.879  0.00  0.00    +0.000 HD
ENDBRANCH  10  12
ENDBRANCH   9  10
ENDBRANCH   1   9
BRANCH   1  14
ATOM     14  C   UNL     1      -8.079   4.998 -17.138  0.00  0.00    +0.000 C 
BRANCH  14  15
ATOM     15  C   UNL     1      -9.078   3.819 -17.053  0.00  0.00    +0.000 C 
ATOM     16  C   UNL     1      -8.494   2.502 -17.548  0.00  0.00    +0.000 C 
BRANCH  15  17
ATOM     17  O   UNL     1      -9.546   3.621 -15.720  0.00  0.00    +0.000 OA
ATOM     18  H   UNL     1      -9.535   4.511 -15.313  0.00  0.00    +0.000 HD
ENDBRANCH  15  17
ENDBRANCH  14  15
ENDBRANCH   1  14
TORSDOF 7
ENDMDL
MODEL 4
REMARK VINA RESULT:    -5.050      1.054      1.627
REMARK INTER + INTRA:          -7.135
REMARK INTER:                  -6.999
REMARK INTRA:                  -0.136
REMARK UNBOUND:                -0.314
REMARK  Name = 
REMARK  10 active torsions:
REMARK  status: ('A' for Active; 'I' for Inactive)
REMARK    1  A    between atoms: C_1  and  C_2
REMARK    2  A    between atoms: C_5  and  N_8
REMARK    3  A    between atoms: N_8  and  C_9
REMARK    4  A    between atoms: N_8  and  C_13
REMARK    5  A    between atoms: C_9  and  C_10
REMARK    6  A    between atoms: C_10  and  C_11
REMARK    7  A    between atoms: C_10  and  O_12
REMARK    8  A    between atoms: C_13  and  C_14
REMARK    9  A    between atoms: C_14  and  C_15
REMARK   10  A    between atoms: C_14  and  O_16
REMARK                            x       y       z     vdW  Elec       q    Type
REMARK                         _______ _______ _______ _____ _____    ______ ____
ROOT
ATOM      1  N   UNL     1     -10.567   6.410 -15.940  0.00  0.00    +0.000 N 
ENDROOT
BRANCH   1   6
ATOM      2  C   UNL     1      -7.741   1.695 -17.704  0.00  0.00    +0.000 C 
ATOM      3  C   UNL     1      -8.486   2.919 -17.269  0.00  0.00    +0.000 A 
ATOM      4  C   UNL     1      -7.941   4.187 -17.444  0.00  0.00    +0.000 A 
ATOM      5  C   UNL     1      -8.630   5.329 -17.006  0.00  0.00    +0.000 A 
ATOM      6  C   UNL     1      -9.876   5.265 -16.356  0.00  0.00    +0.000 A 
ATOM      7  C   UNL     1     -10.398   3.968 -16.198  0.00  0.00    +0.000 A 
ATOM      8  C   UNL     1      -9.720   2.817 -16.633  0.00  0.00    +0.000 A 
ENDBRANCH   1   6
BRANCH   1   9
ATOM      9  C   UNL     1      -9.976   7.753 -16.151  0.00  0.00    +0.000 C 
BRANCH   9  10
ATOM     10  C   UNL     1      -9.956   8.172 -17.642  0.00  0.00    +0.000 C 
ATOM     11  C   UNL     1     -11.372   8.354 -18.175  0.00  0.00    +0.000 C 
BRANCH  10  12
ATOM     12  O   UNL     1      -9.251   9.409 -17.819  0.00  0.00    +0.000 OA
ATOM     13  H   UNL     1      -8.466   9.392 -17.248  0.00  0.00    +0.000 HD
ENDBRANCH  10  12
ENDBRANCH   9  10
ENDBRANCH   1   9
BRANCH   1  14
ATOM     14  C   UNL     1     -11.593   6.341 -14.868  0.00  0.00    +0.000 C 
BRANCH  14  15
ATOM     15  C   UNL     1     -11.165   7.116 -13.598  0.00  0.00    +0.000 C 
ATOM     16  C   UNL     1     -12.085   8.286 -13.271  0.00  0.00    +0.000 C 
BRANCH  15  17
ATOM     17  O   UNL     1     -11.110   6.264 -12.455  0.00  0.00    +0.000 OA
ATOM     18  H   UNL     1     -11.965   6.398 -11.998  0.00  0.00    +0.000 HD
ENDBRANCH  15  17
ENDBRANCH  14  15
ENDBRANCH   1  14
TORSDOF 7
ENDMDL
MODEL 5
REMARK VINA RESULT:    -4.107     19.845     21.355
REMARK INTER + INTRA:          -5.862
REMARK INTER:                  -5.294
REMARK INTRA:                  -0.568
REMARK UNBOUND:                -0.314
REMARK  Name = 
REMARK  10 active torsions:
REMARK  status: ('A' for Active; 'I' for Inactive)
REMARK    1  A    between atoms: C_1  and  C_2
REMARK    2  A    between atoms: C_5  and  N_8
REMARK    3  A    between atoms: N_8  and  C_9
REMARK    4  A    between atoms: N_8  and  C_13
REMARK    5  A    between atoms: C_9  and  C_10
REMARK    6  A    between atoms: C_10  and  C_11
REMARK    7  A    between atoms: C_10  and  O_12
REMARK    8  A    between atoms: C_13  and  C_14
REMARK    9  A    between atoms: C_14  and  C_15
REMARK   10  A    between atoms: C_14  and  O_16
REMARK                            x       y       z     vdW  Elec       q    Type
REMARK                         _______ _______ _______ _____ _____    ______ ____
ROOT
ATOM      1  N   UNL     1       3.894  21.681 -14.907  0.00  0.00    +0.000 N 
ENDROOT
BRANCH   1   6
ATOM      2  C   UNL     1      -1.205  23.026 -12.559  0.00  0.00    +0.000 C 
ATOM      3  C   UNL     1       0.106  22.661 -13.183  0.00  0.00    +0.000 A 
ATOM      4  C   UNL     1       0.905  21.662 -12.635  0.00  0.00    +0.000 A 
ATOM      5  C   UNL     1       2.147  21.344 -13.207  0.00  0.00    +0.000 A 
ATOM      6  C   UNL     1       2.663  22.016 -14.330  0.00  0.00    +0.000 A 
ATOM      7  C   UNL     1       1.828  23.018 -14.859  0.00  0.00    +0.000 A 
ATOM      8  C   UNL     1       0.582  23.345 -14.298  0.00  0.00    +0.000 A 
ENDBRANCH   1   6
BRANCH   1   9
ATOM      9  C   UNL     1       5.138  21.766 -14.106  0.00  0.00    +0.000 C 
BRANCH   9  10
ATOM     10  C   UNL     1       6.402  21.391 -14.918  0.00  0.00    +0.000 C 
ATOM     11  C   UNL     1       7.665  21.871 -14.213  0.00  0.00    +0.000 C 
BRANCH  10  12
ATOM     12  O   UNL     1       6.501  19.970 -15.088  0.00  0.00    +0.000 OA
ATOM     13  H   UNL     1       6.768  19.582 -14.238  0.00  0.00    +0.000 HD
ENDBRANCH  10  12
ENDBRANCH   9  10
ENDBRANCH   1   9
BRANCH   1  14
ATOM     14  C   UNL     1       4.094  21.735 -16.378  0.00  0.00    +0.000 C 
BRANCH  14  15
ATOM     15  C   UNL     1       3.422  20.544 -17.103  0.00  0.00    +0.000 C 
ATOM     16  C   UNL     1       3.017  20.866 -18.537  0.00  0.00    +0.000 C 
BRANCH  15  17
ATOM     17  O   UNL     1       4.271  19.397 -17.131  0.00  0.00    +0.000 OA
ATOM     18  H   UNL     1       4.622  19.320 -16.221  0.00  0.00    +0.000 HD
ENDBRANCH  15  17
ENDBRANCH  14  15
ENDBRANCH   1  14
TORSDOF 7
ENDMDL
MODEL 6
REMARK VINA RESULT:    -4.045     19.620     21.288
REMARK INTER + INTRA:          -5.778
REMARK INTER:                  -5.171
REMARK INTRA:                  -0.606
REMARK UNBOUND:                -0.314
REMARK  Name = 
REMARK  10 active torsions:
REMARK  status: ('A' for Active; 'I' for Inactive)
REMARK    1  A    between atoms: C_1  and  C_2
REMARK    2  A    between atoms: C_5  and  N_8
REMARK    3  A    between atoms: N_8  and  C_9
REMARK    4  A    between atoms: N_8  and  C_13
REMARK    5  A    between atoms: C_9  and  C_10
REMARK    6  A    between atoms: C_10  and  C_11
REMARK    7  A    between atoms: C_10  and  O_12
REMARK    8  A    between atoms: C_13  and  C_14
REMARK    9  A    between atoms: C_14  and  C_15
REMARK   10  A    between atoms: C_14  and  O_16
REMARK                            x       y       z     vdW  Elec       q    Type
REMARK                         _______ _______ _______ _____ _____    ______ ____
ROOT
ATOM      1  N   UNL     1       4.015  22.080 -15.095  0.00  0.00    +0.000 N 
ENDROOT
BRANCH   1   6
ATOM      2  C   UNL     1      -1.382  22.673 -13.133  0.00  0.00    +0.000 C 
ATOM      3  C   UNL     1       0.026  22.536 -13.625  0.00  0.00    +0.000 A 
ATOM      4  C   UNL     1       0.499  23.325 -14.668  0.00  0.00    +0.000 A 
ATOM      5  C   UNL     1       1.810  23.171 -15.146  0.00  0.00    +0.000 A 
ATOM      6  C   UNL     1       2.702  22.215 -14.627  0.00  0.00    +0.000 A 
ATOM      7  C   UNL     1       2.192  21.436 -13.572  0.00  0.00    +0.000 A 
ATOM      8  C   UNL     1       0.882  21.581 -13.084  0.00  0.00    +0.000 A 
ENDBRANCH   1   6
BRANCH   1   9
ATOM      9  C   UNL     1       4.267  21.753 -16.519  0.00  0.00    +0.000 C 
BRANCH   9  10
ATOM     10  C   UNL     1       3.437  20.543 -17.013  0.00  0.00    +0.000 C 
ATOM     11  C   UNL     1       2.820  20.825 -18.377  0.00  0.00    +0.000 C 
BRANCH  10  12
ATOM     12  O   UNL     1       4.256  19.371 -17.130  0.00  0.00    +0.000 OA
ATOM     13  H   UNL     1       4.908  19.385 -16.409  0.00  0.00    +0.000 HD
ENDBRANCH  10  12
ENDBRANCH   9  10
ENDBRANCH   1   9
BRANCH   1  14
ATOM     14  C   UNL     1       5.130  21.747 -14.171  0.00  0.00    +0.000 C 
BRANCH  14  15
ATOM     15  C   UNL     1       6.419  21.352 -14.931  0.00  0.00    +0.000 C 
ATOM     16  C   UNL     1       7.691  21.836 -14.245  0.00  0.00    +0.000 C 
BRANCH  15  17
ATOM     17  O   UNL     1       6.519  19.939 -15.100  0.00  0.00    +0.000 OA
ATOM     18  H   UNL     1       5.931  19.732 -15.854  0.00  0.00    +0.000 HD
ENDBRANCH  15  17
ENDBRANCH  14  15
ENDBRANCH   1  14
TORSDOF 7
ENDMDL
MODEL 7
REMARK VINA RESULT:    -3.517     17.099     18.156
REMARK INTER + INTRA:          -5.065
REMARK INTER:                  -4.869
REMARK INTRA:                  -0.196
REMARK UNBOUND:                -0.314
REMARK  Name = 
REMARK  10 active torsions:
REMARK  status: ('A' for Active; 'I' for Inactive)
REMARK    1  A    between atoms: C_1  and  C_2
REMARK    2  A    between atoms: C_5  and  N_8
REMARK    3  A    between atoms: N_8  and  C_9
REMARK    4  A    between atoms: N_8  and  C_13
REMARK    5  A    between atoms: C_9  and  C_10
REMARK    6  A    between atoms: C_10  and  C_11
REMARK    7  A    between atoms: C_10  and  O_12
REMARK    8  A    between atoms: C_13  and  C_14
REMARK    9  A    between atoms: C_14  and  C_15
REMARK   10  A    between atoms: C_14  and  O_16
REMARK                            x       y       z     vdW  Elec       q    Type
REMARK                         _______ _______ _______ _____ _____    ______ ____
ROOT
ATOM      1  N   UNL     1      -4.866  22.893 -13.593  0.00  0.00    +0.000 N 
ENDROOT
BRANCH   1   6
ATOM      2  C   UNL     1       0.871  22.308 -13.856  0.00  0.00    +0.000 C 
ATOM      3  C   UNL     1      -0.619  22.439 -13.774  0.00  0.00    +0.000 A 
ATOM      4  C   UNL     1      -1.440  21.882 -14.749  0.00  0.00    +0.000 A 
ATOM      5  C   UNL     1      -2.834  22.034 -14.683  0.00  0.00    +0.000 A 
ATOM      6  C   UNL     1      -3.473  22.762 -13.663  0.00  0.00    +0.000 A 
ATOM      7  C   UNL     1      -2.612  23.309 -12.694  0.00  0.00    +0.000 A 
ATOM      8  C   UNL     1      -1.216  23.163 -12.747  0.00  0.00    +0.000 A 
ENDBRANCH   1   6
BRANCH   1   9
ATOM      9  C   UNL     1      -5.523  23.155 -12.290  0.00  0.00    +0.000 C 
BRANCH   9  10
ATOM     10  C   UNL     1      -5.246  22.046 -11.245  0.00  0.00    +0.000 C 
ATOM     11  C   UNL     1      -5.754  22.456  -9.868  0.00  0.00    +0.000 C 
BRANCH  10  12
ATOM     12  O   UNL     1      -5.893  20.820 -11.611  0.00  0.00    +0.000 OA
ATOM     13  H   UNL     1      -5.210  20.138 -11.718  0.00  0.00    +0.000 HD
ENDBRANCH  10  12
ENDBRANCH   9  10
ENDBRANCH   1   9
BRANCH   1  14
ATOM     14  C   UNL     1      -5.748  22.296 -14.628  0.00  0.00    +0.000 C 
BRANCH  14  15
ATOM     15  C   UNL     1      -7.175  22.894 -14.596  0.00  0.00    +0.000 C 
ATOM     16  C   UNL     1      -7.648  23.389 -15.957  0.00  0.00    +0.000 C 
BRANCH  15  17
ATOM     17  O   UNL     1      -8.130  21.951 -14.113  0.00  0.00    +0.000 OA
ATOM     18  H   UNL     1      -8.330  22.239 -13.199  0.00  0.00    +0.000 HD
ENDBRANCH  15  17
ENDBRANCH  14  15
ENDBRANCH   1  14
TORSDOF 7
ENDMDL
MODEL 8
REMARK VINA RESULT:    -3.497     15.938     18.309
REMARK INTER + INTRA:          -5.037
REMARK INTER:                  -4.299
REMARK INTRA:                  -0.738
REMARK UNBOUND:                -0.314
REMARK  Name = 
REMARK  10 active torsions:
REMARK  status: ('A' for Active; 'I' for Inactive)
REMARK    1  A    between atoms: C_1  and  C_2
REMARK    2  A    between atoms: C_5  and  N_8
REMARK    3  A    between atoms: N_8  and  C_9
REMARK    4  A    between atoms: N_8  and  C_13
REMARK    5  A    between atoms: C_9  and  C_10
REMARK    6  A    between atoms: C_10  and  C_11
REMARK    7  A    between atoms: C_10  and  O_12
REMARK    8  A    between atoms: C_13  and  C_14
REMARK    9  A    between atoms: C_14  and  C_15
REMARK   10  A    between atoms: C_14  and  O_16
REMARK                            x       y       z     vdW  Elec       q    Type
REMARK                         _______ _______ _______ _____ _____    ______ ____
ROOT
ATOM      1  N   UNL     1      -3.685  22.719 -14.133  0.00  0.00    +0.000 N 
ENDROOT
BRANCH   1   6
ATOM      2  C   UNL     1       1.951  22.887 -12.895  0.00  0.00    +0.000 C 
ATOM      3  C   UNL     1       0.490  22.867 -13.224  0.00  0.00    +0.000 A 
ATOM      4  C   UNL     1      -0.462  23.211 -12.271  0.00  0.00    +0.000 A 
ATOM      5  C   UNL     1      -1.832  23.161 -12.576  0.00  0.00    +0.000 A 
ATOM      6  C   UNL     1      -2.318  22.747 -13.829  0.00  0.00    +0.000 A 
ATOM      7  C   UNL     1      -1.327  22.409 -14.770  0.00  0.00    +0.000 A 
ATOM      8  C   UNL     1       0.046  22.456 -14.478  0.00  0.00    +0.000 A 
ENDBRANCH   1   6
BRANCH   1   9
ATOM      9  C   UNL     1      -4.133  22.740 -15.547  0.00  0.00    +0.000 C 
BRANCH   9  10
ATOM     10  C   UNL     1      -4.829  21.425 -15.976  0.00  0.00    +0.000 C 
ATOM     11  C   UNL     1      -4.195  20.223 -15.286  0.00  0.00    +0.000 C 
BRANCH  10  12
ATOM     12  O   UNL     1      -6.223  21.447 -15.639  0.00  0.00    +0.000 OA
ATOM     13  H   UNL     1      -6.399  20.704 -15.039  0.00  0.00    +0.000 HD
ENDBRANCH  10  12
ENDBRANCH   9  10
ENDBRANCH   1   9
BRANCH   1  14
ATOM     14  C   UNL     1      -4.701  23.173 -13.150  0.00  0.00    +0.000 C 
BRANCH  14  15
ATOM     15  C   UNL     1      -5.236  22.008 -12.282  0.00  0.00    +0.000 C 
ATOM     16  C   UNL     1      -5.395  22.378 -10.812  0.00  0.00    +0.000 C 
BRANCH  15  17
ATOM     17  O   UNL     1      -6.495  21.532 -12.757  0.00  0.00    +0.000 OA
ATOM     18  H   UNL     1      -6.831  20.953 -12.043  0.00  0.00    +0.000 HD
ENDBRANCH  15  17
ENDBRANCH  14  15
ENDBRANCH   1  14
TORSDOF 7
ENDMDL
MODEL 9
REMARK VINA RESULT:    -2.640     18.048     20.158
REMARK INTER + INTRA:          -3.880
REMARK INTER:                  -3.173
REMARK INTRA:                  -0.707
REMARK UNBOUND:                -0.314
REMARK  Name = 
REMARK  10 active torsions:
REMARK  status: ('A' for Active; 'I' for Inactive)
REMARK    1  A    between atoms: C_1  and  C_2
REMARK    2  A    between atoms: C_5  and  N_8
REMARK    3  A    between atoms: N_8  and  C_9
REMARK    4  A    between atoms: N_8  and  C_13
REMARK    5  A    between atoms: C_9  and  C_10
REMARK    6  A    between atoms: C_10  and  C_11
REMARK    7  A    between atoms: C_10  and  O_12
REMARK    8  A    between atoms: C_13  and  C_14
REMARK    9  A    between atoms: C_14  and  C_15
REMARK   10  A    between atoms: C_14  and  O_16
REMARK                            x       y       z     vdW  Elec       q    Type
REMARK                         _______ _______ _______ _____ _____    ______ ____
ROOT
ATOM      1  N   UNL     1      -5.503  22.479  -4.399  0.00  0.00    +0.000 N 
ENDROOT
BRANCH   1   6
ATOM      2  C   UNL     1      -5.547  21.867 -10.139  0.00  0.00    +0.000 C 
ATOM      3  C   UNL     1      -5.510  22.027  -8.650  0.00  0.00    +0.000 A 
ATOM      4  C   UNL     1      -5.481  20.917  -7.813  0.00  0.00    +0.000 A 
ATOM      5  C   UNL     1      -5.477  21.072  -6.417  0.00  0.00    +0.000 A 
ATOM      6  C   UNL     1      -5.527  22.331  -5.791  0.00  0.00    +0.000 A 
ATOM      7  C   UNL     1      -5.554  23.431  -6.668  0.00  0.00    +0.000 A 
ATOM      8  C   UNL     1      -5.556  23.289  -8.066  0.00  0.00    +0.000 A 
ENDBRANCH   1   6
BRANCH   1   9
ATOM      9  C   UNL     1      -6.754  22.340  -3.615  0.00  0.00    +0.000 C 
BRANCH   9  10
ATOM     10  C   UNL     1      -6.689  21.189  -2.581  0.00  0.00    +0.000 C 
ATOM     11  C   UNL     1      -8.089  20.738  -2.179  0.00  0.00    +0.000 C 
BRANCH  10  12
ATOM     12  O   UNL     1      -5.994  20.054  -3.117  0.00  0.00    +0.000 OA
ATOM     13  H   UNL     1      -6.046  19.335  -2.466  0.00  0.00    +0.000 HD
ENDBRANCH  10  12
ENDBRANCH   9  10
ENDBRANCH   1   9
BRANCH   1  14
ATOM     14  C   UNL     1      -4.428  23.252  -3.726  0.00  0.00    +0.000 C 
BRANCH  14  15
ATOM     15  C   UNL     1      -3.068  22.513  -3.761  0.00  0.00    +0.000 C 
ATOM     16  C   UNL     1      -1.893  23.401  -3.368  0.00  0.00    +0.000 C 
BRANCH  15  17
ATOM     17  O   UNL     1      -3.065  21.373  -2.904  0.00  0.00    +0.000 OA
ATOM     18  H   UNL     1      -2.146  21.305  -2.576  0.00  0.00    +0.000 HD
ENDBRANCH  15  17
ENDBRANCH  14  15
ENDBRANCH   1  14
TORSDOF 7
ENDMDL
