MODEL 1
REMARK VINA RESULT:    -4.693      0.000      0.000
REMARK INTER + INTRA:          -7.057
REMARK INTER:                  -6.339
REMARK INTRA:                  -0.718
REMARK UNBOUND:                -0.718
REMARK  Name = 
REMARK  10 active torsions:
REMARK  status: ('A' for Active; 'I' for Inactive)
REMARK    1  A    between atoms: C_1  and  C_2
REMARK    2  A    between atoms: C_5  and  N_8
REMARK    3  A    between atoms: N_8  and  C_9
REMARK    4  A    between atoms: N_8  and  C_13
REMARK    5  A    between atoms: C_9  and  C_10
REMARK    6  A    between atoms: C_10  and  C_11
REMARK    7  A    between atoms: C_10  and  O_12
REMARK    8  A    between atoms: C_13  and  C_14
REMARK    9  A    between atoms: C_14  and  C_15
REMARK   10  A    between atoms: C_14  and  O_16
REMARK                            x       y       z     vdW  Elec       q    Type
REMARK                         _______ _______ _______ _____ _____    ______ ____
ROOT
ATOM      1  N   UNL     1      15.331   1.363   8.987  0.00  0.00    +0.000 N 
ENDROOT
BRANCH   1   6
ATOM      2  C   UNL     1      12.533  -3.566   7.889  0.00  0.00    +0.000 C 
ATOM      3  C   UNL     1      13.255  -2.280   8.150  0.00  0.00    +0.000 A 
ATOM      4  C   UNL     1      14.636  -2.195   8.008  0.00  0.00    +0.000 A 
ATOM      5  C   UNL     1      15.312  -0.995   8.283  0.00  0.00    +0.000 A 
ATOM      6  C   UNL     1      14.653   0.164   8.733  0.00  0.00    +0.000 A 
ATOM      7  C   UNL     1      13.258   0.042   8.864  0.00  0.00    +0.000 A 
ATOM      8  C   UNL     1      12.569  -1.151   8.590  0.00  0.00    +0.000 A 
ENDBRANCH   1   6
BRANCH   1   9
ATOM      9  C   UNL     1      15.828   2.189   7.861  0.00  0.00    +0.000 C 
BRANCH   9  10
ATOM     10  C   UNL     1      15.135   3.572   7.780  0.00  0.00    +0.000 C 
ATOM     11  C   UNL     1      15.165   4.114   6.356  0.00  0.00    +0.000 C 
BRANCH  10  12
ATOM     12  O   UNL     1      13.764   3.486   8.194  0.00  0.00    +0.000 OA
ATOM     13  H   UNL     1      13.428   2.609   7.942  0.00  0.00    +0.000 HD
ENDBRANCH  10  12
ENDBRANCH   9  10
ENDBRANCH   1   9
BRANCH   1  14
ATOM     14  C   UNL     1      16.016   1.599  10.284  0.00  0.00    +0.000 C 
BRANCH  14  15
ATOM     15  C   UNL     1      15.023   1.979  11.409  0.00  0.00    +0.000 C 
ATOM     16  C   UNL     1      15.712   2.339  12.720  0.00  0.00    +0.000 C 
BRANCH  15  17
ATOM     17  O   UNL     1      14.193   3.076  11.030  0.00  0.00    +0.000 OA
ATOM     18  H   UNL     1      14.496   3.825  11.581  0.00  0.00    +0.000 HD
ENDBRANCH  15  17
ENDBRANCH  14  15
ENDBRANCH   1  14
TORSDOF 7
ENDMDL
MODEL 2
REMARK VINA RESULT:    -4.470      1.290      5.190
REMARK INTER + INTRA:          -6.756
REMARK INTER:                  -5.991
REMARK INTRA:                  -0.765
REMARK UNBOUND:                -0.718
REMARK  Name = 
REMARK  10 active torsions:
REMARK  status: ('A' for Active; 'I' for Inactive)
REMARK    1  A    between atoms: C_1  and  C_2
REMARK    2  A    between atoms: C_5  and  N_8
REMARK    3  A    between atoms: N_8  and  C_9
REMARK    4  A    between atoms: N_8  and  C_13
REMARK    5  A    between atoms: C_9  and  C_10
REMARK    6  A    between atoms: C_10  and  C_11
REMARK    7  A    between atoms: C_10  and  O_12
REMARK    8  A    between atoms: C_13  and  C_14
REMARK    9  A    between atoms: C_14  and  C_15
REMARK   10  A    between atoms: C_14  and  O_16
REMARK                            x       y       z     vdW  Elec       q    Type
REMARK                         _______ _______ _______ _____ _____    ______ ____
ROOT
ATOM      1  N   UNL     1      15.199   1.514   9.191  0.00  0.00    +0.000 N 
ENDROOT
BRANCH   1   6
ATOM      2  C   UNL     1      15.465   5.406   4.936  0.00  0.00    +0.000 C 
ATOM      3  C   UNL     1      15.381   4.382   6.026  0.00  0.00    +0.000 A 
ATOM      4  C   UNL     1      14.391   4.454   7.000  0.00  0.00    +0.000 A 
ATOM      5  C   UNL     1      14.336   3.508   8.036  0.00  0.00    +0.000 A 
ATOM      6  C   UNL     1      15.271   2.465   8.166  0.00  0.00    +0.000 A 
ATOM      7  C   UNL     1      16.257   2.422   7.163  0.00  0.00    +0.000 A 
ATOM      8  C   UNL     1      16.323   3.361   6.120  0.00  0.00    +0.000 A 
ENDBRANCH   1   6
BRANCH   1   9
ATOM      9  C   UNL     1      16.000   1.690  10.427  0.00  0.00    +0.000 C 
BRANCH   9  10
ATOM     10  C   UNL     1      15.123   1.849  11.693  0.00  0.00    +0.000 C 
ATOM     11  C   UNL     1      15.875   2.598  12.786  0.00  0.00    +0.000 C 
BRANCH  10  12
ATOM     12  O   UNL     1      13.923   2.578  11.400  0.00  0.00    +0.000 OA
ATOM     13  H   UNL     1      14.115   3.526  11.494  0.00  0.00    +0.000 HD
ENDBRANCH  10  12
ENDBRANCH   9  10
ENDBRANCH   1   9
BRANCH   1  14
ATOM     14  C   UNL     1      14.775   0.117   8.916  0.00  0.00    +0.000 C 
BRANCH  14  15
ATOM     15  C   UNL     1      13.251   0.007   8.668  0.00  0.00    +0.000 C 
ATOM     16  C   UNL     1      12.725  -1.418   8.791  0.00  0.00    +0.000 C 
BRANCH  15  17
ATOM     17  O   UNL     1      12.510   0.831   9.566  0.00  0.00    +0.000 OA
ATOM     18  H   UNL     1      11.822   0.243   9.939  0.00  0.00    +0.000 HD
ENDBRANCH  15  17
ENDBRANCH  14  15
ENDBRANCH   1  14
TORSDOF 7
ENDMDL
MODEL 3
REMARK VINA RESULT:    -4.366      0.736      3.056
REMARK INTER + INTRA:          -6.616
REMARK INTER:                  -5.976
REMARK INTRA:                  -0.640
REMARK UNBOUND:                -0.718
REMARK  Name = 
REMARK  10 active torsions:
REMARK  status: ('A' for Active; 'I' for Inactive)
REMARK    1  A    between atoms: C_1  and  C_2
REMARK    2  A    between atoms: C_5  and  N_8
REMARK    3  A    between atoms: N_8  and  C_9
REMARK    4  A    between atoms: N_8  and  C_13
REMARK    5  A    between atoms: C_9  and  C_10
REMARK    6  A    between atoms: C_10  and  C_11
REMARK    7  A    between atoms: C_10  and  O_12
REMARK    8  A    between atoms: C_13  and  C_14
REMARK    9  A    between atoms: C_14  and  C_15
REMARK   10  A    between atoms: C_14  and  O_16
REMARK                            x       y       z     vdW  Elec       q    Type
REMARK                         _______ _______ _______ _____ _____    ______ ____
ROOT
ATOM      1  N   UNL     1      15.652   1.118   8.983  0.00  0.00    +0.000 N 
ENDROOT
BRANCH   1   6
ATOM      2  C   UNL     1      12.178  -3.481   9.306  0.00  0.00    +0.000 C 
ATOM      3  C   UNL     1      13.085  -2.294   9.199  0.00  0.00    +0.000 A 
ATOM      4  C   UNL     1      14.420  -2.378   9.582  0.00  0.00    +0.000 A 
ATOM      5  C   UNL     1      15.258  -1.253   9.507  0.00  0.00    +0.000 A 
ATOM      6  C   UNL     1      14.806   0.006   9.073  0.00  0.00    +0.000 A 
ATOM      7  C   UNL     1      13.452   0.053   8.692  0.00  0.00    +0.000 A 
ATOM      8  C   UNL     1      12.604  -1.064   8.760  0.00  0.00    +0.000 A 
ENDBRANCH   1   6
BRANCH   1   9
ATOM      9  C   UNL     1      16.079   1.829  10.212  0.00  0.00    +0.000 C 
BRANCH   9  10
ATOM     10  C   UNL     1      14.950   1.935  11.267  0.00  0.00    +0.000 C 
ATOM     11  C   UNL     1      15.527   2.065  12.672  0.00  0.00    +0.000 C 
BRANCH  10  12
ATOM     12  O   UNL     1      14.121   3.079  11.020  0.00  0.00    +0.000 OA
ATOM     13  H   UNL     1      14.151   3.648  11.806  0.00  0.00    +0.000 HD
ENDBRANCH  10  12
ENDBRANCH   9  10
ENDBRANCH   1   9
BRANCH   1  14
ATOM     14  C   UNL     1      15.737   1.921   7.736  0.00  0.00    +0.000 C 
BRANCH  14  15
ATOM     15  C   UNL     1      15.241   3.373   7.941  0.00  0.00    +0.000 C 
ATOM     16  C   UNL     1      15.630   4.306   6.801  0.00  0.00    +0.000 C 
BRANCH  15  17
ATOM     17  O   UNL     1      13.824   3.429   8.094  0.00  0.00    +0.000 OA
ATOM     18  H   UNL     1      13.465   3.130   7.234  0.00  0.00    +0.000 HD
ENDBRANCH  15  17
ENDBRANCH  14  15
ENDBRANCH   1  14
TORSDOF 7
ENDMDL
MODEL 4
REMARK VINA RESULT:    -4.205      1.733      4.876
REMARK INTER + INTRA:          -6.398
REMARK INTER:                  -5.906
REMARK INTRA:                  -0.493
REMARK UNBOUND:                -0.718
REMARK  Name = 
REMARK  10 active torsions:
REMARK  status: ('A' for Active; 'I' for Inactive)
REMARK    1  A    between atoms: C_1  and  C_2
REMARK    2  A    between atoms: C_5  and  N_8
REMARK    3  A    between atoms: N_8  and  C_9
REMARK    4  A    between atoms: N_8  and  C_13
REMARK    5  A    between atoms: C_9  and  C_10
REMARK    6  A    between atoms: C_10  and  C_11
REMARK    7  A    between atoms: C_10  and  O_12
REMARK    8  A    between atoms: C_13  and  C_14
REMARK    9  A    between atoms: C_14  and  C_15
REMARK   10  A    between atoms: C_14  and  O_16
REMARK                            x       y       z     vdW  Elec       q    Type
REMARK                         _______ _______ _______ _____ _____    ______ ____
ROOT
ATOM      1  N   UNL     1      15.121   1.864   9.327  0.00  0.00    +0.000 N 
ENDROOT
BRANCH   1   6
ATOM      2  C   UNL     1      15.604   5.433   4.815  0.00  0.00    +0.000 C 
ATOM      3  C   UNL     1      15.467   4.491   5.971  0.00  0.00    +0.000 A 
ATOM      4  C   UNL     1      14.379   4.572   6.834  0.00  0.00    +0.000 A 
ATOM      5  C   UNL     1      14.270   3.705   7.933  0.00  0.00    +0.000 A 
ATOM      6  C   UNL     1      15.245   2.738   8.239  0.00  0.00    +0.000 A 
ATOM      7  C   UNL     1      16.330   2.683   7.345  0.00  0.00    +0.000 A 
ATOM      8  C   UNL     1      16.449   3.542   6.240  0.00  0.00    +0.000 A 
ENDBRANCH   1   6
BRANCH   1   9
ATOM      9  C   UNL     1      13.810   1.245   9.636  0.00  0.00    +0.000 C 
BRANCH   9  10
ATOM     10  C   UNL     1      13.523  -0.013   8.779  0.00  0.00    +0.000 C 
ATOM     11  C   UNL     1      14.363  -1.195   9.247  0.00  0.00    +0.000 C 
BRANCH  10  12
ATOM     12  O   UNL     1      12.141  -0.389   8.864  0.00  0.00    +0.000 OA
ATOM     13  H   UNL     1      11.929  -0.547   9.799  0.00  0.00    +0.000 HD
ENDBRANCH  10  12
ENDBRANCH   9  10
ENDBRANCH   1   9
BRANCH   1  14
ATOM     14  C   UNL     1      16.072   1.914  10.466  0.00  0.00    +0.000 C 
BRANCH  14  15
ATOM     15  C   UNL     1      15.348   2.059  11.826  0.00  0.00    +0.000 C 
ATOM     16  C   UNL     1      15.813   1.044  12.864  0.00  0.00    +0.000 C 
BRANCH  15  17
ATOM     17  O   UNL     1      15.519   3.364  12.377  0.00  0.00    +0.000 OA
ATOM     18  H   UNL     1      16.460   3.582  12.224  0.00  0.00    +0.000 HD
ENDBRANCH  15  17
ENDBRANCH  14  15
ENDBRANCH   1  14
TORSDOF 7
ENDMDL
MODEL 5
REMARK VINA RESULT:    -4.111      4.687      8.486
REMARK INTER + INTRA:          -6.272
REMARK INTER:                  -5.974
REMARK INTRA:                  -0.298
REMARK UNBOUND:                -0.718
REMARK  Name = 
REMARK  10 active torsions:
REMARK  status: ('A' for Active; 'I' for Inactive)
REMARK    1  A    between atoms: C_1  and  C_2
REMARK    2  A    between atoms: C_5  and  N_8
REMARK    3  A    between atoms: N_8  and  C_9
REMARK    4  A    between atoms: N_8  and  C_13
REMARK    5  A    between atoms: C_9  and  C_10
REMARK    6  A    between atoms: C_10  and  C_11
REMARK    7  A    between atoms: C_10  and  O_12
REMARK    8  A    between atoms: C_13  and  C_14
REMARK    9  A    between atoms: C_14  and  C_15
REMARK   10  A    between atoms: C_14  and  O_16
REMARK                            x       y       z     vdW  Elec       q    Type
REMARK                         _______ _______ _______ _____ _____    ______ ____
ROOT
ATOM      1  N   UNL     1      16.330   5.106   4.808  0.00  0.00    +0.000 N 
ENDROOT
BRANCH   1   6
ATOM      2  C   UNL     1      19.111   9.461   2.234  0.00  0.00    +0.000 C 
ATOM      3  C   UNL     1      18.409   8.327   2.917  0.00  0.00    +0.000 A 
ATOM      4  C   UNL     1      18.477   7.035   2.407  0.00  0.00    +0.000 A 
ATOM      5  C   UNL     1      17.792   5.981   3.034  0.00  0.00    +0.000 A 
ATOM      6  C   UNL     1      16.994   6.165   4.177  0.00  0.00    +0.000 A 
ATOM      7  C   UNL     1      16.951   7.484   4.666  0.00  0.00    +0.000 A 
ATOM      8  C   UNL     1      17.632   8.546   4.050  0.00  0.00    +0.000 A 
ENDBRANCH   1   6
BRANCH   1   9
ATOM      9  C   UNL     1      15.706   4.032   3.999  0.00  0.00    +0.000 C 
BRANCH   9  10
ATOM     10  C   UNL     1      16.684   2.873   3.683  0.00  0.00    +0.000 C 
ATOM     11  C   UNL     1      17.047   2.106   4.949  0.00  0.00    +0.000 C 
BRANCH  10  12
ATOM     12  O   UNL     1      16.104   1.948   2.754  0.00  0.00    +0.000 OA
ATOM     13  H   UNL     1      16.786   1.702   2.108  0.00  0.00    +0.000 HD
ENDBRANCH  10  12
ENDBRANCH   9  10
ENDBRANCH   1   9
BRANCH   1  14
ATOM     14  C   UNL     1      15.782   5.251   6.181  0.00  0.00    +0.000 C 
BRANCH  14  15
ATOM     15  C   UNL     1      14.463   4.464   6.371  0.00  0.00    +0.000 C 
ATOM     16  C   UNL     1      14.324   3.853   7.760  0.00  0.00    +0.000 C 
BRANCH  15  17
ATOM     17  O   UNL     1      13.320   5.283   6.132  0.00  0.00    +0.000 OA
ATOM     18  H   UNL     1      12.816   4.817   5.435  0.00  0.00    +0.000 HD
ENDBRANCH  15  17
ENDBRANCH  14  15
ENDBRANCH   1  14
TORSDOF 7
ENDMDL
MODEL 6
REMARK VINA RESULT:    -4.100      3.808      6.994
REMARK INTER + INTRA:          -6.256
REMARK INTER:                  -5.828
REMARK INTRA:                  -0.428
REMARK UNBOUND:                -0.718
REMARK  Name = 
REMARK  10 active torsions:
REMARK  status: ('A' for Active; 'I' for Inactive)
REMARK    1  A    between atoms: C_1  and  C_2
REMARK    2  A    between atoms: C_5  and  N_8
REMARK    3  A    between atoms: N_8  and  C_9
REMARK    4  A    between atoms: N_8  and  C_13
REMARK    5  A    between atoms: C_9  and  C_10
REMARK    6  A    between atoms: C_10  and  C_11
REMARK    7  A    between atoms: C_10  and  O_12
REMARK    8  A    between atoms: C_13  and  C_14
REMARK    9  A    between atoms: C_14  and  C_15
REMARK   10  A    between atoms: C_14  and  O_16
REMARK                            x       y       z     vdW  Elec       q    Type
REMARK                         _______ _______ _______ _____ _____    ______ ____
ROOT
ATOM      1  N   UNL     1      15.363   2.424  13.992  0.00  0.00    +0.000 N 
ENDROOT
BRANCH   1   6
ATOM      2  C   UNL     1      14.251   0.733  19.399  0.00  0.00    +0.000 C 
ATOM      3  C   UNL     1      14.539   1.148  17.988  0.00  0.00    +0.000 A 
ATOM      4  C   UNL     1      15.847   1.298  17.541  0.00  0.00    +0.000 A 
ATOM      5  C   UNL     1      16.111   1.717  16.227  0.00  0.00    +0.000 A 
ATOM      6  C   UNL     1      15.093   2.026  15.307  0.00  0.00    +0.000 A 
ATOM      7  C   UNL     1      13.783   1.861  15.793  0.00  0.00    +0.000 A 
ATOM      8  C   UNL     1      13.505   1.441  17.104  0.00  0.00    +0.000 A 
ENDBRANCH   1   6
BRANCH   1   9
ATOM      9  C   UNL     1      14.760   1.690  12.854  0.00  0.00    +0.000 C 
BRANCH   9  10
ATOM     10  C   UNL     1      15.209   2.241  11.479  0.00  0.00    +0.000 C 
ATOM     11  C   UNL     1      15.482   1.105  10.499  0.00  0.00    +0.000 C 
BRANCH  10  12
ATOM     12  O   UNL     1      14.200   3.086  10.909  0.00  0.00    +0.000 OA
ATOM     13  H   UNL     1      14.613   3.935  10.678  0.00  0.00    +0.000 HD
ENDBRANCH  10  12
ENDBRANCH   9  10
ENDBRANCH   1   9
BRANCH   1  14
ATOM     14  C   UNL     1      16.588   3.196  13.659  0.00  0.00    +0.000 C 
BRANCH  14  15
ATOM     15  C   UNL     1      16.558   4.625  14.250  0.00  0.00    +0.000 C 
ATOM     16  C   UNL     1      17.946   5.219  14.455  0.00  0.00    +0.000 C 
BRANCH  15  17
ATOM     17  O   UNL     1      15.812   5.521  13.426  0.00  0.00    +0.000 OA
ATOM     18  H   UNL     1      14.923   5.558  13.834  0.00  0.00    +0.000 HD
ENDBRANCH  15  17
ENDBRANCH  14  15
ENDBRANCH   1  14
TORSDOF 7
ENDMDL
MODEL 7
REMARK VINA RESULT:    -4.082      4.834      5.904
REMARK INTER + INTRA:          -6.232
REMARK INTER:                  -5.826
REMARK INTRA:                  -0.406
REMARK UNBOUND:                -0.718
REMARK  Name = 
REMARK  10 active torsions:
REMARK  status: ('A' for Active; 'I' for Inactive)
REMARK    1  A    between atoms: C_1  and  C_2
REMARK    2  A    between atoms: C_5  and  N_8
REMARK    3  A    between atoms: N_8  and  C_9
REMARK    4  A    between atoms: N_8  and  C_13
REMARK    5  A    between atoms: C_9  and  C_10
REMARK    6  A    between atoms: C_10  and  C_11
REMARK    7  A    between atoms: C_10  and  O_12
REMARK    8  A    between atoms: C_13  and  C_14
REMARK    9  A    between atoms: C_14  and  C_15
REMARK   10  A    between atoms: C_14  and  O_16
REMARK                            x       y       z     vdW  Elec       q    Type
REMARK                         _______ _______ _______ _____ _____    ______ ____
ROOT
ATOM      1  N   UNL     1      15.765   4.706   5.622  0.00  0.00    +0.000 N 
ENDROOT
BRANCH   1   6
ATOM      2  C   UNL     1      17.471   0.415   2.157  0.00  0.00    +0.000 C 
ATOM      3  C   UNL     1      17.044   1.544   3.044  0.00  0.00    +0.000 A 
ATOM      4  C   UNL     1      17.688   1.786   4.253  0.00  0.00    +0.000 A 
ATOM      5  C   UNL     1      17.264   2.827   5.094  0.00  0.00    +0.000 A 
ATOM      6  C   UNL     1      16.170   3.657   4.787  0.00  0.00    +0.000 A 
ATOM      7  C   UNL     1      15.544   3.385   3.557  0.00  0.00    +0.000 A 
ATOM      8  C   UNL     1      15.960   2.349   2.705  0.00  0.00    +0.000 A 
ENDBRANCH   1   6
BRANCH   1   9
ATOM      9  C   UNL     1      16.057   6.110   5.247  0.00  0.00    +0.000 C 
BRANCH   9  10
ATOM     10  C   UNL     1      17.566   6.449   5.315  0.00  0.00    +0.000 C 
ATOM     11  C   UNL     1      18.111   6.791   3.933  0.00  0.00    +0.000 C 
BRANCH  10  12
ATOM     12  O   UNL     1      17.804   7.570   6.176  0.00  0.00    +0.000 OA
ATOM     13  H   UNL     1      17.327   7.418   7.008  0.00  0.00    +0.000 HD
ENDBRANCH  10  12
ENDBRANCH   9  10
ENDBRANCH   1   9
BRANCH   1  14
ATOM     14  C   UNL     1      15.520   4.485   7.070  0.00  0.00    +0.000 C 
BRANCH  14  15
ATOM     15  C   UNL     1      14.010   4.422   7.405  0.00  0.00    +0.000 C 
ATOM     16  C   UNL     1      13.120   4.466   6.168  0.00  0.00    +0.000 C 
BRANCH  15  17
ATOM     17  O   UNL     1      13.682   3.247   8.144  0.00  0.00    +0.000 OA
ATOM     18  H   UNL     1      12.707   3.180   8.094  0.00  0.00    +0.000 HD
ENDBRANCH  15  17
ENDBRANCH  14  15
ENDBRANCH   1  14
TORSDOF 7
ENDMDL
MODEL 8
REMARK VINA RESULT:    -4.079      7.289      9.832
REMARK INTER + INTRA:          -6.228
REMARK INTER:                  -5.531
REMARK INTRA:                  -0.697
REMARK UNBOUND:                -0.718
REMARK  Name = 
REMARK  10 active torsions:
REMARK  status: ('A' for Active; 'I' for Inactive)
REMARK    1  A    between atoms: C_1  and  C_2
REMARK    2  A    between atoms: C_5  and  N_8
REMARK    3  A    between atoms: N_8  and  C_9
REMARK    4  A    between atoms: N_8  and  C_13
REMARK    5  A    between atoms: C_9  and  C_10
REMARK    6  A    between atoms: C_10  and  C_11
REMARK    7  A    between atoms: C_10  and  O_12
REMARK    8  A    between atoms: C_13  and  C_14
REMARK    9  A    between atoms: C_14  and  C_15
REMARK   10  A    between atoms: C_14  and  O_16
REMARK                            x       y       z     vdW  Elec       q    Type
REMARK                         _______ _______ _______ _____ _____    ______ ____
ROOT
ATOM      1  N   UNL     1      18.069  -0.853   1.472  0.00  0.00    +0.000 N 
ENDROOT
BRANCH   1   6
ATOM      2  C   UNL     1      17.896   4.576   3.428  0.00  0.00    +0.000 C 
ATOM      3  C   UNL     1      17.952   3.160   2.942  0.00  0.00    +0.000 A 
ATOM      4  C   UNL     1      19.039   2.699   2.208  0.00  0.00    +0.000 A 
ATOM      5  C   UNL     1      19.073   1.379   1.730  0.00  0.00    +0.000 A 
ATOM      6  C   UNL     1      18.021   0.467   1.936  0.00  0.00    +0.000 A 
ATOM      7  C   UNL     1      16.939   0.967   2.683  0.00  0.00    +0.000 A 
ATOM      8  C   UNL     1      16.894   2.284   3.170  0.00  0.00    +0.000 A 
ENDBRANCH   1   6
BRANCH   1   9
ATOM      9  C   UNL     1      17.846  -1.979   2.411  0.00  0.00    +0.000 C 
BRANCH   9  10
ATOM     10  C   UNL     1      16.801  -2.996   1.890  0.00  0.00    +0.000 C 
ATOM     11  C   UNL     1      16.441  -4.010   2.970  0.00  0.00    +0.000 C 
BRANCH  10  12
ATOM     12  O   UNL     1      15.595  -2.333   1.484  0.00  0.00    +0.000 OA
ATOM     13  H   UNL     1      15.188  -1.939   2.274  0.00  0.00    +0.000 HD
ENDBRANCH  10  12
ENDBRANCH   9  10
ENDBRANCH   1   9
BRANCH   1  14
ATOM     14  C   UNL     1      18.816  -1.208   0.238  0.00  0.00    +0.000 C 
BRANCH  14  15
ATOM     15  C   UNL     1      17.908  -1.205  -1.015  0.00  0.00    +0.000 C 
ATOM     16  C   UNL     1      17.699  -2.594  -1.607  0.00  0.00    +0.000 C 
BRANCH  15  17
ATOM     17  O   UNL     1      16.625  -0.646  -0.736  0.00  0.00    +0.000 OA
ATOM     18  H   UNL     1      15.986  -1.260  -1.151  0.00  0.00    +0.000 HD
ENDBRANCH  15  17
ENDBRANCH  14  15
ENDBRANCH   1  14
TORSDOF 7
ENDMDL
MODEL 9
REMARK VINA RESULT:    -4.022      3.944      6.164
REMARK INTER + INTRA:          -6.151
REMARK INTER:                  -5.730
REMARK INTRA:                  -0.421
REMARK UNBOUND:                -0.718
REMARK  Name = 
REMARK  10 active torsions:
REMARK  status: ('A' for Active; 'I' for Inactive)
REMARK    1  A    between atoms: C_1  and  C_2
REMARK    2  A    between atoms: C_5  and  N_8
REMARK    3  A    between atoms: N_8  and  C_9
REMARK    4  A    between atoms: N_8  and  C_13
REMARK    5  A    between atoms: C_9  and  C_10
REMARK    6  A    between atoms: C_10  and  C_11
REMARK    7  A    between atoms: C_10  and  O_12
REMARK    8  A    between atoms: C_13  and  C_14
REMARK    9  A    between atoms: C_14  and  C_15
REMARK   10  A    between atoms: C_14  and  O_16
REMARK                            x       y       z     vdW  Elec       q    Type
REMARK                         _______ _______ _______ _____ _____    ______ ____
ROOT
ATOM      1  N   UNL     1      16.370   4.895   5.159  0.00  0.00    +0.000 N 
ENDROOT
BRANCH   1   6
ATOM      2  C   UNL     1      14.350   1.832   9.616  0.00  0.00    +0.000 C 
ATOM      3  C   UNL     1      14.861   2.612   8.443  0.00  0.00    +0.000 A 
ATOM      4  C   UNL     1      16.052   2.263   7.817  0.00  0.00    +0.000 A 
ATOM      5  C   UNL     1      16.542   3.016   6.738  0.00  0.00    +0.000 A 
ATOM      6  C   UNL     1      15.886   4.160   6.248  0.00  0.00    +0.000 A 
ATOM      7  C   UNL     1      14.683   4.482   6.903  0.00  0.00    +0.000 A 
ATOM      8  C   UNL     1      14.181   3.736   7.982  0.00  0.00    +0.000 A 
ENDBRANCH   1   6
BRANCH   1   9
ATOM      9  C   UNL     1      17.477   4.357   4.332  0.00  0.00    +0.000 C 
BRANCH   9  10
ATOM     10  C   UNL     1      16.993   3.792   2.974  0.00  0.00    +0.000 C 
ATOM     11  C   UNL     1      15.648   3.091   3.125  0.00  0.00    +0.000 C 
BRANCH  10  12
ATOM     12  O   UNL     1      16.843   4.838   2.005  0.00  0.00    +0.000 OA
ATOM     13  H   UNL     1      17.599   4.796   1.396  0.00  0.00    +0.000 HD
ENDBRANCH  10  12
ENDBRANCH   9  10
ENDBRANCH   1   9
BRANCH   1  14
ATOM     14  C   UNL     1      16.196   6.368   5.087  0.00  0.00    +0.000 C 
BRANCH  14  15
ATOM     15  C   UNL     1      17.551   7.116   5.061  0.00  0.00    +0.000 C 
ATOM     16  C   UNL     1      17.557   8.314   4.119  0.00  0.00    +0.000 C 
BRANCH  15  17
ATOM     17  O   UNL     1      17.926   7.573   6.360  0.00  0.00    +0.000 OA
ATOM     18  H   UNL     1      18.031   8.541   6.266  0.00  0.00    +0.000 HD
ENDBRANCH  15  17
ENDBRANCH  14  15
ENDBRANCH   1  14
TORSDOF 7
ENDMDL
