MODEL 1
REMARK VINA RESULT:    -4.111      0.000      0.000
REMARK INTER + INTRA:          -4.510
REMARK INTER:                  -4.472
REMARK INTRA:                  -0.038
REMARK UNBOUND:                -0.038
REMARK  Name = 
REMARK  3 active torsions:
REMARK  status: ('A' for Active; 'I' for Inactive)
REMARK    1  A    between atoms: C_1  and  O_2
REMARK    2  A    between atoms: O_2  and  C_3
REMARK    3  A    between atoms: C_8  and  O_9
REMARK                            x       y       z     vdW  Elec       q    Type
REMARK                         _______ _______ _______ _____ _____    ______ ____
ROOT
ATOM      1  C   UNL     1       2.660  11.814 -16.488  0.00  0.00    +0.000 A 
ATOM      2  C   UNL     1       1.705  11.385 -17.408  0.00  0.00    +0.000 A 
ATOM      3  C   UNL     1       0.647  10.569 -16.990  0.00  0.00    +0.000 A 
ATOM      4  C   UNL     1       0.539  10.179 -15.653  0.00  0.00    +0.000 A 
ATOM      5  C   UNL     1       1.489  10.604 -14.727  0.00  0.00    +0.000 A 
ATOM      6  C   UNL     1       2.536  11.413 -15.152  0.00  0.00    +0.000 A 
ENDROOT
BRANCH   1   8
ATOM      7  C   UNL     1       3.733  13.301 -17.999  0.00  0.00    +0.000 C 
ATOM      8  O   UNL     1       3.744  12.611 -16.755  0.00  0.00    +0.000 OA
ENDBRANCH   1   8
BRANCH   6   9
ATOM      9  O   UNL     1       3.457  11.818 -14.223  0.00  0.00    +0.000 OA
ATOM     10  H   UNL     1       3.346  12.786 -14.168  0.00  0.00    +0.000 HD
ENDBRANCH   6   9
TORSDOF 2
ENDMDL
MODEL 2
REMARK VINA RESULT:    -3.941      2.253      3.041
REMARK INTER + INTRA:          -4.324
REMARK INTER:                  -4.276
REMARK INTRA:                  -0.048
REMARK UNBOUND:                -0.038
REMARK  Name = 
REMARK  3 active torsions:
REMARK  status: ('A' for Active; 'I' for Inactive)
REMARK    1  A    between atoms: C_1  and  O_2
REMARK    2  A    between atoms: O_2  and  C_3
REMARK    3  A    between atoms: C_8  and  O_9
REMARK                            x       y       z     vdW  Elec       q    Type
REMARK                         _______ _______ _______ _____ _____    ______ ____
ROOT
ATOM      1  C   UNL     1       0.976  10.986 -16.544  0.00  0.00    +0.000 A 
ATOM      2  C   UNL     1       2.147  11.623 -16.949  0.00  0.00    +0.000 A 
ATOM      3  C   UNL     1       3.197  11.804 -16.039  0.00  0.00    +0.000 A 
ATOM      4  C   UNL     1       3.078  11.351 -14.724  0.00  0.00    +0.000 A 
ATOM      5  C   UNL     1       1.911  10.714 -14.311  0.00  0.00    +0.000 A 
ATOM      6  C   UNL     1       0.875  10.539 -15.220  0.00  0.00    +0.000 A 
ENDROOT
BRANCH   1   8
ATOM      7  C   UNL     1      -0.624  11.840 -18.080  0.00  0.00    +0.000 C 
ATOM      8  O   UNL     1      -0.127  10.743 -17.323  0.00  0.00    +0.000 OA
ENDBRANCH   1   8
BRANCH   6   9
ATOM      9  O   UNL     1      -0.263   9.909 -14.791  0.00  0.00    +0.000 OA
ATOM     10  H   UNL     1      -0.439  10.289 -13.909  0.00  0.00    +0.000 HD
ENDBRANCH   6   9
TORSDOF 2
ENDMDL
MODEL 3
REMARK VINA RESULT:    -3.908     13.474     14.739
REMARK INTER + INTRA:          -4.289
REMARK INTER:                  -4.242
REMARK INTRA:                  -0.047
REMARK UNBOUND:                -0.038
REMARK  Name = 
REMARK  3 active torsions:
REMARK  status: ('A' for Active; 'I' for Inactive)
REMARK    1  A    between atoms: C_1  and  O_2
REMARK    2  A    between atoms: O_2  and  C_3
REMARK    3  A    between atoms: C_8  and  O_9
REMARK                            x       y       z     vdW  Elec       q    Type
REMARK                         _______ _______ _______ _____ _____    ______ ____
ROOT
ATOM      1  C   UNL     1       0.891  19.023  -3.479  0.00  0.00    +0.000 A 
ATOM      2  C   UNL     1       2.110  19.197  -2.826  0.00  0.00    +0.000 A 
ATOM      3  C   UNL     1       3.301  18.811  -3.454  0.00  0.00    +0.000 A 
ATOM      4  C   UNL     1       3.278  18.250  -4.733  0.00  0.00    +0.000 A 
ATOM      5  C   UNL     1       2.063  18.074  -5.391  0.00  0.00    +0.000 A 
ATOM      6  C   UNL     1       0.887  18.459  -4.760  0.00  0.00    +0.000 A 
ENDROOT
BRANCH   1   8
ATOM      7  C   UNL     1      -0.622  18.962  -1.647  0.00  0.00    +0.000 C 
ATOM      8  O   UNL     1      -0.347  19.353  -2.987  0.00  0.00    +0.000 OA
ENDBRANCH   1   8
BRANCH   6   9
ATOM      9  O   UNL     1      -0.295  18.276  -5.428  0.00  0.00    +0.000 OA
ATOM     10  H   UNL     1      -0.977  18.271  -4.729  0.00  0.00    +0.000 HD
ENDBRANCH   6   9
TORSDOF 2
ENDMDL
MODEL 4
REMARK VINA RESULT:    -3.746     13.713     14.844
REMARK INTER + INTRA:          -4.112
REMARK INTER:                  -4.064
REMARK INTRA:                  -0.048
REMARK UNBOUND:                -0.038
REMARK  Name = 
REMARK  3 active torsions:
REMARK  status: ('A' for Active; 'I' for Inactive)
REMARK    1  A    between atoms: C_1  and  O_2
REMARK    2  A    between atoms: O_2  and  C_3
REMARK    3  A    between atoms: C_8  and  O_9
REMARK                            x       y       z     vdW  Elec       q    Type
REMARK                         _______ _______ _______ _____ _____    ______ ____
ROOT
ATOM      1  C   UNL     1       2.375  18.459  -2.759  0.00  0.00    +0.000 A 
ATOM      2  C   UNL     1       1.222  19.115  -2.332  0.00  0.00    +0.000 A 
ATOM      3  C   UNL     1       0.173  19.344  -3.231  0.00  0.00    +0.000 A 
ATOM      4  C   UNL     1       0.273  18.920  -4.558  0.00  0.00    +0.000 A 
ATOM      5  C   UNL     1       1.422  18.262  -4.992  0.00  0.00    +0.000 A 
ATOM      6  C   UNL     1       2.457  18.040  -4.093  0.00  0.00    +0.000 A 
ENDROOT
BRANCH   1   8
ATOM      7  C   UNL     1       4.309  19.266  -1.639  0.00  0.00    +0.000 C 
ATOM      8  O   UNL     1       3.475  18.169  -1.992  0.00  0.00    +0.000 OA
ENDBRANCH   1   8
BRANCH   6   9
ATOM      9  O   UNL     1       3.576  17.392  -4.543  0.00  0.00    +0.000 OA
ATOM     10  H   UNL     1       3.354  17.115  -5.452  0.00  0.00    +0.000 HD
ENDBRANCH   6   9
TORSDOF 2
ENDMDL
MODEL 5
REMARK VINA RESULT:    -3.677     22.626     23.651
REMARK INTER + INTRA:          -4.037
REMARK INTER:                  -3.997
REMARK INTRA:                  -0.040
REMARK UNBOUND:                -0.038
REMARK  Name = 
REMARK  3 active torsions:
REMARK  status: ('A' for Active; 'I' for Inactive)
REMARK    1  A    between atoms: C_1  and  O_2
REMARK    2  A    between atoms: O_2  and  C_3
REMARK    3  A    between atoms: C_8  and  O_9
REMARK                            x       y       z     vdW  Elec       q    Type
REMARK                         _______ _______ _______ _____ _____    ______ ____
ROOT
ATOM      1  C   UNL     1      15.741  18.003   1.925  0.00  0.00    +0.000 A 
ATOM      2  C   UNL     1      16.256  17.484   3.112  0.00  0.00    +0.000 A 
ATOM      3  C   UNL     1      17.314  16.567   3.074  0.00  0.00    +0.000 A 
ATOM      4  C   UNL     1      17.859  16.165   1.853  0.00  0.00    +0.000 A 
ATOM      5  C   UNL     1      17.350  16.678   0.663  0.00  0.00    +0.000 A 
ATOM      6  C   UNL     1      16.301  17.587   0.710  0.00  0.00    +0.000 A 
ENDROOT
BRANCH   1   8
ATOM      7  C   UNL     1      13.755  18.907   2.863  0.00  0.00    +0.000 C 
ATOM      8  O   UNL     1      14.713  18.903   1.812  0.00  0.00    +0.000 OA
ENDBRANCH   1   8
BRANCH   6   9
ATOM      9  O   UNL     1      15.817  18.078  -0.474  0.00  0.00    +0.000 OA
ATOM     10  H   UNL     1      14.847  18.029  -0.385  0.00  0.00    +0.000 HD
ENDBRANCH   6   9
TORSDOF 2
ENDMDL
MODEL 6
REMARK VINA RESULT:    -3.664     13.897     14.956
REMARK INTER + INTRA:          -4.023
REMARK INTER:                  -3.971
REMARK INTRA:                  -0.052
REMARK UNBOUND:                -0.038
REMARK  Name = 
REMARK  3 active torsions:
REMARK  status: ('A' for Active; 'I' for Inactive)
REMARK    1  A    between atoms: C_1  and  O_2
REMARK    2  A    between atoms: O_2  and  C_3
REMARK    3  A    between atoms: C_8  and  O_9
REMARK                            x       y       z     vdW  Elec       q    Type
REMARK                         _______ _______ _______ _____ _____    ______ ____
ROOT
ATOM      1  C   UNL     1       2.552  18.503  -2.962  0.00  0.00    +0.000 A 
ATOM      2  C   UNL     1       2.800  18.005  -4.240  0.00  0.00    +0.000 A 
ATOM      3  C   UNL     1       1.802  18.067  -5.221  0.00  0.00    +0.000 A 
ATOM      4  C   UNL     1       0.556  18.625  -4.929  0.00  0.00    +0.000 A 
ATOM      5  C   UNL     1       0.301  19.126  -3.654  0.00  0.00    +0.000 A 
ATOM      6  C   UNL     1       1.297  19.060  -2.688  0.00  0.00    +0.000 A 
ENDROOT
BRANCH   1   8
ATOM      7  C   UNL     1       4.658  19.199  -2.109  0.00  0.00    +0.000 C 
ATOM      8  O   UNL     1       3.431  18.508  -1.909  0.00  0.00    +0.000 OA
ENDBRANCH   1   8
BRANCH   6   9
ATOM      9  O   UNL     1       1.023  19.558  -1.442  0.00  0.00    +0.000 OA
ATOM     10  H   UNL     1       0.757  20.485  -1.598  0.00  0.00    +0.000 HD
ENDBRANCH   6   9
TORSDOF 2
ENDMDL
MODEL 7
REMARK VINA RESULT:    -3.626     13.249     14.281
REMARK INTER + INTRA:          -3.982
REMARK INTER:                  -3.930
REMARK INTRA:                  -0.052
REMARK UNBOUND:                -0.038
REMARK  Name = 
REMARK  3 active torsions:
REMARK  status: ('A' for Active; 'I' for Inactive)
REMARK    1  A    between atoms: C_1  and  O_2
REMARK    2  A    between atoms: O_2  and  C_3
REMARK    3  A    between atoms: C_8  and  O_9
REMARK                            x       y       z     vdW  Elec       q    Type
REMARK                         _______ _______ _______ _____ _____    ______ ____
ROOT
ATOM      1  C   UNL     1       2.761  18.720  -4.826  0.00  0.00    +0.000 A 
ATOM      2  C   UNL     1       3.273  19.696  -5.680  0.00  0.00    +0.000 A 
ATOM      3  C   UNL     1       4.410  20.424  -5.309  0.00  0.00    +0.000 A 
ATOM      4  C   UNL     1       5.038  20.182  -4.086  0.00  0.00    +0.000 A 
ATOM      5  C   UNL     1       4.533  19.208  -3.227  0.00  0.00    +0.000 A 
ATOM      6  C   UNL     1       3.405  18.491  -3.603  0.00  0.00    +0.000 A 
ENDROOT
BRANCH   1   8
ATOM      7  C   UNL     1       0.399  18.593  -5.050  0.00  0.00    +0.000 C 
ATOM      8  O   UNL     1       1.660  17.936  -5.058  0.00  0.00    +0.000 OA
ENDBRANCH   1   8
BRANCH   6   9
ATOM      9  O   UNL     1       2.927  17.539  -2.743  0.00  0.00    +0.000 OA
ATOM     10  H   UNL     1       3.715  17.218  -2.265  0.00  0.00    +0.000 HD
ENDBRANCH   6   9
TORSDOF 2
ENDMDL
MODEL 8
REMARK VINA RESULT:    -3.593     13.279     14.358
REMARK INTER + INTRA:          -3.947
REMARK INTER:                  -3.907
REMARK INTRA:                  -0.039
REMARK UNBOUND:                -0.038
REMARK  Name = 
REMARK  3 active torsions:
REMARK  status: ('A' for Active; 'I' for Inactive)
REMARK    1  A    between atoms: C_1  and  O_2
REMARK    2  A    between atoms: O_2  and  C_3
REMARK    3  A    between atoms: C_8  and  O_9
REMARK                            x       y       z     vdW  Elec       q    Type
REMARK                         _______ _______ _______ _____ _____    ______ ____
ROOT
ATOM      1  C   UNL     1       4.151  19.533  -4.122  0.00  0.00    +0.000 A 
ATOM      2  C   UNL     1       3.629  18.945  -2.970  0.00  0.00    +0.000 A 
ATOM      3  C   UNL     1       2.524  18.089  -3.061  0.00  0.00    +0.000 A 
ATOM      4  C   UNL     1       1.938  17.820  -4.299  0.00  0.00    +0.000 A 
ATOM      5  C   UNL     1       2.454  18.403  -5.454  0.00  0.00    +0.000 A 
ATOM      6  C   UNL     1       3.550  19.251  -5.354  0.00  0.00    +0.000 A 
ENDROOT
BRANCH   1   8
ATOM      7  C   UNL     1       6.142  20.329  -3.097  0.00  0.00    +0.000 C 
ATOM      8  O   UNL     1       5.223  20.388  -4.182  0.00  0.00    +0.000 OA
ENDBRANCH   1   8
BRANCH   6   9
ATOM      9  O   UNL     1       4.039  19.813  -6.503  0.00  0.00    +0.000 OA
ATOM     10  H   UNL     1       4.523  19.090  -6.947  0.00  0.00    +0.000 HD
ENDBRANCH   6   9
TORSDOF 2
ENDMDL
