MODEL 1
REMARK VINA RESULT:    -5.096      0.000      0.000
REMARK INTER + INTRA:          -5.581
REMARK INTER:                  -5.543
REMARK INTRA:                  -0.038
REMARK UNBOUND:                -0.038
REMARK  Name = 
REMARK  3 active torsions:
REMARK  status: ('A' for Active; 'I' for Inactive)
REMARK    1  A    between atoms: C_1  and  O_2
REMARK    2  A    between atoms: O_2  and  C_3
REMARK    3  A    between atoms: C_8  and  O_9
REMARK                            x       y       z     vdW  Elec       q    Type
REMARK                         _______ _______ _______ _____ _____    ______ ____
ROOT
ATOM      1  C   UNL     1       1.260  -0.484  18.176  0.00  0.00    +0.000 A 
ATOM      2  C   UNL     1       0.153  -1.298  18.410  0.00  0.00    +0.000 A 
ATOM      3  C   UNL     1      -1.103  -0.931  17.910  0.00  0.00    +0.000 A 
ATOM      4  C   UNL     1      -1.256   0.247  17.177  0.00  0.00    +0.000 A 
ATOM      5  C   UNL     1      -0.154   1.065  16.939  0.00  0.00    +0.000 A 
ATOM      6  C   UNL     1       1.087   0.694  17.439  0.00  0.00    +0.000 A 
ENDROOT
BRANCH   1   8
ATOM      7  C   UNL     1       2.830  -2.034  19.060  0.00  0.00    +0.000 C 
ATOM      8  O   UNL     1       2.543  -0.718  18.604  0.00  0.00    +0.000 OA
ENDBRANCH   1   8
BRANCH   6   9
ATOM      9  O   UNL     1       2.156   1.514  17.192  0.00  0.00    +0.000 OA
ATOM     10  H   UNL     1       2.399   1.332  16.264  0.00  0.00    +0.000 HD
ENDBRANCH   6   9
TORSDOF 2
ENDMDL
MODEL 2
REMARK VINA RESULT:    -4.824      1.273      3.100
REMARK INTER + INTRA:          -5.286
REMARK INTER:                  -5.243
REMARK INTRA:                  -0.042
REMARK UNBOUND:                -0.038
REMARK  Name = 
REMARK  3 active torsions:
REMARK  status: ('A' for Active; 'I' for Inactive)
REMARK    1  A    between atoms: C_1  and  O_2
REMARK    2  A    between atoms: O_2  and  C_3
REMARK    3  A    between atoms: C_8  and  O_9
REMARK                            x       y       z     vdW  Elec       q    Type
REMARK                         _______ _______ _______ _____ _____    ______ ____
ROOT
ATOM      1  C   UNL     1       0.053   0.151  17.554  0.00  0.00    +0.000 A 
ATOM      2  C   UNL     1      -0.479  -1.031  18.065  0.00  0.00    +0.000 A 
ATOM      3  C   UNL     1       0.361  -1.972  18.674  0.00  0.00    +0.000 A 
ATOM      4  C   UNL     1       1.733  -1.735  18.774  0.00  0.00    +0.000 A 
ATOM      5  C   UNL     1       2.273  -0.555  18.266  0.00  0.00    +0.000 A 
ATOM      6  C   UNL     1       1.432   0.372  17.664  0.00  0.00    +0.000 A 
ENDROOT
BRANCH   1   8
ATOM      7  C   UNL     1      -1.759   0.758  16.142  0.00  0.00    +0.000 C 
ATOM      8  O   UNL     1      -0.647   1.156  16.935  0.00  0.00    +0.000 OA
ENDBRANCH   1   8
BRANCH   6   9
ATOM      9  O   UNL     1       1.986   1.524  17.172  0.00  0.00    +0.000 OA
ATOM     10  H   UNL     1       2.755   1.695  17.749  0.00  0.00    +0.000 HD
ENDBRANCH   6   9
TORSDOF 2
ENDMDL
MODEL 3
REMARK VINA RESULT:    -4.185      0.884      2.627
REMARK INTER + INTRA:          -4.590
REMARK INTER:                  -4.541
REMARK INTRA:                  -0.049
REMARK UNBOUND:                -0.038
REMARK  Name = 
REMARK  3 active torsions:
REMARK  status: ('A' for Active; 'I' for Inactive)
REMARK    1  A    between atoms: C_1  and  O_2
REMARK    2  A    between atoms: O_2  and  C_3
REMARK    3  A    between atoms: C_8  and  O_9
REMARK                            x       y       z     vdW  Elec       q    Type
REMARK                         _______ _______ _______ _____ _____    ______ ____
ROOT
ATOM      1  C   UNL     1       0.983   0.731  17.663  0.00  0.00    +0.000 A 
ATOM      2  C   UNL     1      -0.341   0.912  17.266  0.00  0.00    +0.000 A 
ATOM      3  C   UNL     1      -1.267  -0.127  17.422  0.00  0.00    +0.000 A 
ATOM      4  C   UNL     1      -0.874  -1.348  17.973  0.00  0.00    +0.000 A 
ATOM      5  C   UNL     1       0.447  -1.537  18.373  0.00  0.00    +0.000 A 
ATOM      6  C   UNL     1       1.358  -0.501  18.214  0.00  0.00    +0.000 A 
ENDROOT
BRANCH   1   8
ATOM      7  C   UNL     1       1.930   2.755  18.470  0.00  0.00    +0.000 C 
ATOM      8  O   UNL     1       1.991   1.656  17.570  0.00  0.00    +0.000 OA
ENDBRANCH   1   8
BRANCH   6   9
ATOM      9  O   UNL     1       2.651  -0.710  18.614  0.00  0.00    +0.000 OA
ATOM     10  H   UNL     1       2.576  -1.255  19.421  0.00  0.00    +0.000 HD
ENDBRANCH   6   9
TORSDOF 2
ENDMDL
MODEL 4
REMARK VINA RESULT:    -4.048     17.448     18.781
REMARK INTER + INTRA:          -4.441
REMARK INTER:                  -4.399
REMARK INTRA:                  -0.042
REMARK UNBOUND:                -0.038
REMARK  Name = 
REMARK  3 active torsions:
REMARK  status: ('A' for Active; 'I' for Inactive)
REMARK    1  A    between atoms: C_1  and  O_2
REMARK    2  A    between atoms: O_2  and  C_3
REMARK    3  A    between atoms: C_8  and  O_9
REMARK                            x       y       z     vdW  Elec       q    Type
REMARK                         _______ _______ _______ _____ _____    ______ ____
ROOT
ATOM      1  C   UNL     1      10.515  15.694  17.045  0.00  0.00    +0.000 A 
ATOM      2  C   UNL     1      10.942  16.912  17.572  0.00  0.00    +0.000 A 
ATOM      3  C   UNL     1      10.749  17.193  18.931  0.00  0.00    +0.000 A 
ATOM      4  C   UNL     1      10.130  16.260  19.765  0.00  0.00    +0.000 A 
ATOM      5  C   UNL     1       9.701  15.041  19.246  0.00  0.00    +0.000 A 
ATOM      6  C   UNL     1       9.897  14.771  17.898  0.00  0.00    +0.000 A 
ENDROOT
BRANCH   1   8
ATOM      7  C   UNL     1      11.794  15.734  15.043  0.00  0.00    +0.000 C 
ATOM      8  O   UNL     1      10.638  15.287  15.741  0.00  0.00    +0.000 OA
ENDBRANCH   1   8
BRANCH   6   9
ATOM      9  O   UNL     1       9.467  13.565  17.411  0.00  0.00    +0.000 OA
ATOM     10  H   UNL     1       8.723  13.314  17.991  0.00  0.00    +0.000 HD
ENDBRANCH   6   9
TORSDOF 2
ENDMDL
MODEL 5
REMARK VINA RESULT:    -3.948     17.718     18.655
REMARK INTER + INTRA:          -4.332
REMARK INTER:                  -4.285
REMARK INTRA:                  -0.047
REMARK UNBOUND:                -0.038
REMARK  Name = 
REMARK  3 active torsions:
REMARK  status: ('A' for Active; 'I' for Inactive)
REMARK    1  A    between atoms: C_1  and  O_2
REMARK    2  A    between atoms: O_2  and  C_3
REMARK    3  A    between atoms: C_8  and  O_9
REMARK                            x       y       z     vdW  Elec       q    Type
REMARK                         _______ _______ _______ _____ _____    ______ ____
ROOT
ATOM      1  C   UNL     1      14.733   3.903   6.889  0.00  0.00    +0.000 A 
ATOM      2  C   UNL     1      15.946   3.400   6.419  0.00  0.00    +0.000 A 
ATOM      3  C   UNL     1      16.251   3.472   5.054  0.00  0.00    +0.000 A 
ATOM      4  C   UNL     1      15.348   4.044   4.156  0.00  0.00    +0.000 A 
ATOM      5  C   UNL     1      14.135   4.549   4.617  0.00  0.00    +0.000 A 
ATOM      6  C   UNL     1      13.840   4.473   5.973  0.00  0.00    +0.000 A 
ENDROOT
BRANCH   1   8
ATOM      7  C   UNL     1      14.448   2.676   8.904  0.00  0.00    +0.000 C 
ATOM      8  O   UNL     1      14.304   3.899   8.191  0.00  0.00    +0.000 OA
ENDBRANCH   1   8
BRANCH   6   9
ATOM      9  O   UNL     1      12.641   4.976   6.403  0.00  0.00    +0.000 OA
ATOM     10  H   UNL     1      12.059   4.933   5.620  0.00  0.00    +0.000 HD
ENDBRANCH   6   9
TORSDOF 2
ENDMDL
MODEL 6
REMARK VINA RESULT:    -3.655     17.487     18.651
REMARK INTER + INTRA:          -4.014
REMARK INTER:                  -3.989
REMARK INTRA:                  -0.024
REMARK UNBOUND:                -0.038
REMARK  Name = 
REMARK  3 active torsions:
REMARK  status: ('A' for Active; 'I' for Inactive)
REMARK    1  A    between atoms: C_1  and  O_2
REMARK    2  A    between atoms: O_2  and  C_3
REMARK    3  A    between atoms: C_8  and  O_9
REMARK                            x       y       z     vdW  Elec       q    Type
REMARK                         _______ _______ _______ _____ _____    ______ ____
ROOT
ATOM      1  C   UNL     1      10.479  15.666  18.065  0.00  0.00    +0.000 A 
ATOM      2  C   UNL     1      10.933  16.950  17.767  0.00  0.00    +0.000 A 
ATOM      3  C   UNL     1      10.801  17.455  16.467  0.00  0.00    +0.000 A 
ATOM      4  C   UNL     1      10.216  16.680  15.463  0.00  0.00    +0.000 A 
ATOM      5  C   UNL     1       9.760  15.396  15.754  0.00  0.00    +0.000 A 
ATOM      6  C   UNL     1       9.896  14.904  17.046  0.00  0.00    +0.000 A 
ENDROOT
BRANCH   1   8
ATOM      7  C   UNL     1       9.554  15.415  20.240  0.00  0.00    +0.000 C 
ATOM      8  O   UNL     1      10.544  15.046  19.287  0.00  0.00    +0.000 OA
ENDBRANCH   1   8
BRANCH   6   9
ATOM      9  O   UNL     1       9.440  13.639  17.307  0.00  0.00    +0.000 OA
ATOM     10  H   UNL     1       9.612  13.505  18.258  0.00  0.00    +0.000 HD
ENDBRANCH   6   9
TORSDOF 2
ENDMDL
MODEL 7
REMARK VINA RESULT:    -3.589     23.872     24.528
REMARK INTER + INTRA:          -3.942
REMARK INTER:                  -3.891
REMARK INTRA:                  -0.051
REMARK UNBOUND:                -0.038
REMARK  Name = 
REMARK  3 active torsions:
REMARK  status: ('A' for Active; 'I' for Inactive)
REMARK    1  A    between atoms: C_1  and  O_2
REMARK    2  A    between atoms: O_2  and  C_3
REMARK    3  A    between atoms: C_8  and  O_9
REMARK                            x       y       z     vdW  Elec       q    Type
REMARK                         _______ _______ _______ _____ _____    ______ ____
ROOT
ATOM      1  C   UNL     1      17.348  -3.294   0.672  0.00  0.00    +0.000 A 
ATOM      2  C   UNL     1      16.716  -2.149   1.156  0.00  0.00    +0.000 A 
ATOM      3  C   UNL     1      16.576  -1.026   0.331  0.00  0.00    +0.000 A 
ATOM      4  C   UNL     1      17.067  -1.042  -0.976  0.00  0.00    +0.000 A 
ATOM      5  C   UNL     1      17.700  -2.182  -1.466  0.00  0.00    +0.000 A 
ATOM      6  C   UNL     1      17.834  -3.291  -0.641  0.00  0.00    +0.000 A 
ENDROOT
BRANCH   1   8
ATOM      7  C   UNL     1      18.276  -4.354   2.586  0.00  0.00    +0.000 C 
ATOM      8  O   UNL     1      17.554  -4.460   1.365  0.00  0.00    +0.000 OA
ENDBRANCH   1   8
BRANCH   6   9
ATOM      9  O   UNL     1      18.459  -4.400  -1.145  0.00  0.00    +0.000 OA
ATOM     10  H   UNL     1      18.432  -5.053  -0.420  0.00  0.00    +0.000 HD
ENDBRANCH   6   9
TORSDOF 2
ENDMDL
MODEL 8
REMARK VINA RESULT:    -3.553     17.861     18.744
REMARK INTER + INTRA:          -3.903
REMARK INTER:                  -3.853
REMARK INTRA:                  -0.049
REMARK UNBOUND:                -0.038
REMARK  Name = 
REMARK  3 active torsions:
REMARK  status: ('A' for Active; 'I' for Inactive)
REMARK    1  A    between atoms: C_1  and  O_2
REMARK    2  A    between atoms: O_2  and  C_3
REMARK    3  A    between atoms: C_8  and  O_9
REMARK                            x       y       z     vdW  Elec       q    Type
REMARK                         _______ _______ _______ _____ _____    ______ ____
ROOT
ATOM      1  C   UNL     1      15.666   3.467   6.964  0.00  0.00    +0.000 A 
ATOM      2  C   UNL     1      16.092   3.602   5.643  0.00  0.00    +0.000 A 
ATOM      3  C   UNL     1      15.249   4.194   4.694  0.00  0.00    +0.000 A 
ATOM      4  C   UNL     1      13.982   4.651   5.059  0.00  0.00    +0.000 A 
ATOM      5  C   UNL     1      13.549   4.519   6.377  0.00  0.00    +0.000 A 
ATOM      6  C   UNL     1      14.391   3.931   7.312  0.00  0.00    +0.000 A 
ENDROOT
BRANCH   1   8
ATOM      7  C   UNL     1      17.697   3.411   8.197  0.00  0.00    +0.000 C 
ATOM      8  O   UNL     1      16.381   2.910   7.994  0.00  0.00    +0.000 OA
ENDBRANCH   1   8
BRANCH   6   9
ATOM      9  O   UNL     1      13.944   3.813   8.601  0.00  0.00    +0.000 OA
ATOM     10  H   UNL     1      13.400   4.610   8.749  0.00  0.00    +0.000 HD
ENDBRANCH   6   9
TORSDOF 2
ENDMDL
MODEL 9
REMARK VINA RESULT:    -3.491     23.817     24.564
REMARK INTER + INTRA:          -3.835
REMARK INTER:                  -3.794
REMARK INTRA:                  -0.042
REMARK UNBOUND:                -0.038
REMARK  Name = 
REMARK  3 active torsions:
REMARK  status: ('A' for Active; 'I' for Inactive)
REMARK    1  A    between atoms: C_1  and  O_2
REMARK    2  A    between atoms: O_2  and  C_3
REMARK    3  A    between atoms: C_8  and  O_9
REMARK                            x       y       z     vdW  Elec       q    Type
REMARK                         _______ _______ _______ _____ _____    ______ ____
ROOT
ATOM      1  C   UNL     1      17.886  -2.087  -0.172  0.00  0.00    +0.000 A 
ATOM      2  C   UNL     1      18.739  -2.435   0.874  0.00  0.00    +0.000 A 
ATOM      3  C   UNL     1      18.707  -1.711   2.073  0.00  0.00    +0.000 A 
ATOM      4  C   UNL     1      17.827  -0.639   2.229  0.00  0.00    +0.000 A 
ATOM      5  C   UNL     1      16.971  -0.285   1.189  0.00  0.00    +0.000 A 
ATOM      6  C   UNL     1      17.009  -1.009   0.003  0.00  0.00    +0.000 A 
ENDROOT
BRANCH   1   8
ATOM      7  C   UNL     1      18.072  -4.101  -1.419  0.00  0.00    +0.000 C 
ATOM      8  O   UNL     1      17.809  -2.703  -1.395  0.00  0.00    +0.000 OA
ENDBRANCH   1   8
BRANCH   6   9
ATOM      9  O   UNL     1      16.159  -0.642  -1.005  0.00  0.00    +0.000 OA
ATOM     10  H   UNL     1      16.247   0.329  -1.064  0.00  0.00    +0.000 HD
ENDBRANCH   6   9
TORSDOF 2
ENDMDL
