MODEL 1
REMARK VINA RESULT:    -3.790      0.000      0.000
REMARK INTER + INTRA:          -4.913
REMARK INTER:                  -5.119
REMARK INTRA:                   0.206
REMARK UNBOUND:                 0.206
REMARK  Name = 
REMARK  10 active torsions:
REMARK  status: ('A' for Active; 'I' for Inactive)
REMARK    1  A    between atoms: C_1  and  C_2
REMARK    2  A    between atoms: C_5  and  N_8
REMARK    3  A    between atoms: N_8  and  C_9
REMARK    4  A    between atoms: N_8  and  C_13
REMARK    5  A    between atoms: C_9  and  C_10
REMARK    6  A    between atoms: C_10  and  C_11
REMARK    7  A    between atoms: C_10  and  O_12
REMARK    8  A    between atoms: C_13  and  C_14
REMARK    9  A    between atoms: C_14  and  C_15
REMARK   10  A    between atoms: C_14  and  O_16
REMARK                            x       y       z     vdW  Elec       q    Type
REMARK                         _______ _______ _______ _____ _____    ______ ____
ROOT
ATOM      1  N   UNL     1       0.842   3.618  11.551  0.00  0.00    +0.000 N 
ENDROOT
BRANCH   1   6
ATOM      2  C   UNL     1       0.815   8.392  14.796  0.00  0.00    +0.000 C 
ATOM      3  C   UNL     1       0.836   7.165  13.937  0.00  0.00    +0.000 A 
ATOM      4  C   UNL     1      -0.167   6.931  13.002  0.00  0.00    +0.000 A 
ATOM      5  C   UNL     1      -0.158   5.764  12.220  0.00  0.00    +0.000 A 
ATOM      6  C   UNL     1       0.829   4.770  12.347  0.00  0.00    +0.000 A 
ATOM      7  C   UNL     1       1.827   5.041  13.301  0.00  0.00    +0.000 A 
ATOM      8  C   UNL     1       1.832   6.205  14.087  0.00  0.00    +0.000 A 
ENDBRANCH   1   6
BRANCH   1   9
ATOM      9  C   UNL     1       0.467   2.307  12.134  0.00  0.00    +0.000 C 
BRANCH   9  10
ATOM     10  C   UNL     1       1.603   1.677  12.976  0.00  0.00    +0.000 C 
ATOM     11  C   UNL     1       1.500   2.104  14.436  0.00  0.00    +0.000 C 
BRANCH  10  12
ATOM     12  O   UNL     1       1.547   0.245  12.928  0.00  0.00    +0.000 OA
ATOM     13  H   UNL     1       0.637  -0.028  13.132  0.00  0.00    +0.000 HD
ENDBRANCH  10  12
ENDBRANCH   9  10
ENDBRANCH   1   9
BRANCH   1  14
ATOM     14  C   UNL     1       1.678   3.540  10.325  0.00  0.00    +0.000 C 
BRANCH  14  15
ATOM     15  C   UNL     1       0.826   3.334   9.050  0.00  0.00    +0.000 C 
ATOM     16  C   UNL     1       1.520   3.814   7.781  0.00  0.00    +0.000 C 
BRANCH  15  17
ATOM     17  O   UNL     1       0.472   1.964   8.868  0.00  0.00    +0.000 OA
ATOM     18  H   UNL     1       0.545   1.563   9.757  0.00  0.00    +0.000 HD
ENDBRANCH  15  17
ENDBRANCH  14  15
ENDBRANCH   1  14
TORSDOF 7
ENDMDL
MODEL 2
REMARK VINA RESULT:    -3.343      0.782      3.334
REMARK INTER + INTRA:          -4.309
REMARK INTER:                  -4.530
REMARK INTRA:                   0.221
REMARK UNBOUND:                 0.206
REMARK  Name = 
REMARK  10 active torsions:
REMARK  status: ('A' for Active; 'I' for Inactive)
REMARK    1  A    between atoms: C_1  and  C_2
REMARK    2  A    between atoms: C_5  and  N_8
REMARK    3  A    between atoms: N_8  and  C_9
REMARK    4  A    between atoms: N_8  and  C_13
REMARK    5  A    between atoms: C_9  and  C_10
REMARK    6  A    between atoms: C_10  and  C_11
REMARK    7  A    between atoms: C_10  and  O_12
REMARK    8  A    between atoms: C_13  and  C_14
REMARK    9  A    between atoms: C_14  and  C_15
REMARK   10  A    between atoms: C_14  and  O_16
REMARK                            x       y       z     vdW  Elec       q    Type
REMARK                         _______ _______ _______ _____ _____    ______ ____
ROOT
ATOM      1  N   UNL     1       1.067   3.558  11.776  0.00  0.00    +0.000 N 
ENDROOT
BRANCH   1   6
ATOM      2  C   UNL     1       0.810   8.452  14.827  0.00  0.00    +0.000 C 
ATOM      3  C   UNL     1       0.892   7.193  14.019  0.00  0.00    +0.000 A 
ATOM      4  C   UNL     1      -0.023   6.934  13.005  0.00  0.00    +0.000 A 
ATOM      5  C   UNL     1       0.040   5.739  12.271  0.00  0.00    +0.000 A 
ATOM      6  C   UNL     1       0.997   4.739  12.525  0.00  0.00    +0.000 A 
ATOM      7  C   UNL     1       1.908   5.036  13.556  0.00  0.00    +0.000 A 
ATOM      8  C   UNL     1       1.857   6.228  14.296  0.00  0.00    +0.000 A 
ENDBRANCH   1   6
BRANCH   1   9
ATOM      9  C   UNL     1       1.057   3.615  10.295  0.00  0.00    +0.000 C 
BRANCH   9  10
ATOM     10  C   UNL     1       0.446   2.347   9.649  0.00  0.00    +0.000 C 
ATOM     11  C   UNL     1      -1.065   2.482   9.507  0.00  0.00    +0.000 C 
BRANCH  10  12
ATOM     12  O   UNL     1       0.996   2.118   8.345  0.00  0.00    +0.000 OA
ATOM     13  H   UNL     1       0.273   1.840   7.757  0.00  0.00    +0.000 HD
ENDBRANCH  10  12
ENDBRANCH   9  10
ENDBRANCH   1   9
BRANCH   1  14
ATOM     14  C   UNL     1       0.645   2.255  12.354  0.00  0.00    +0.000 C 
BRANCH  14  15
ATOM     15  C   UNL     1       1.729   1.648  13.277  0.00  0.00    +0.000 C 
ATOM     16  C   UNL     1       1.598   2.093  14.729  0.00  0.00    +0.000 C 
BRANCH  15  17
ATOM     17  O   UNL     1       1.706   0.221  13.248  0.00  0.00    +0.000 OA
ATOM     18  H   UNL     1       1.411  -0.009  12.344  0.00  0.00    +0.000 HD
ENDBRANCH  15  17
ENDBRANCH  14  15
ENDBRANCH   1  14
TORSDOF 7
ENDMDL
MODEL 3
REMARK VINA RESULT:    -2.735     21.732     22.699
REMARK INTER + INTRA:          -3.488
REMARK INTER:                  -3.254
REMARK INTRA:                  -0.234
REMARK UNBOUND:                 0.206
REMARK  Name = 
REMARK  10 active torsions:
REMARK  status: ('A' for Active; 'I' for Inactive)
REMARK    1  A    between atoms: C_1  and  C_2
REMARK    2  A    between atoms: C_5  and  N_8
REMARK    3  A    between atoms: N_8  and  C_9
REMARK    4  A    between atoms: N_8  and  C_13
REMARK    5  A    between atoms: C_9  and  C_10
REMARK    6  A    between atoms: C_10  and  C_11
REMARK    7  A    between atoms: C_10  and  O_12
REMARK    8  A    between atoms: C_13  and  C_14
REMARK    9  A    between atoms: C_14  and  C_15
REMARK   10  A    between atoms: C_14  and  O_16
REMARK                            x       y       z     vdW  Elec       q    Type
REMARK                         _______ _______ _______ _____ _____    ______ ____
ROOT
ATOM      1  N   UNL     1      13.170  21.158   4.624  0.00  0.00    +0.000 N 
ENDROOT
BRANCH   1   6
ATOM      2  C   UNL     1       9.525  22.316   0.299  0.00  0.00    +0.000 C 
ATOM      3  C   UNL     1      10.472  21.992   1.413  0.00  0.00    +0.000 A 
ATOM      4  C   UNL     1      10.000  21.586   2.657  0.00  0.00    +0.000 A 
ATOM      5  C   UNL     1      10.891  21.312   3.707  0.00  0.00    +0.000 A 
ATOM      6  C   UNL     1      12.285  21.451   3.578  0.00  0.00    +0.000 A 
ATOM      7  C   UNL     1      12.727  21.861   2.307  0.00  0.00    +0.000 A 
ATOM      8  C   UNL     1      11.846  22.136   1.248  0.00  0.00    +0.000 A 
ENDBRANCH   1   6
BRANCH   1   9
ATOM      9  C   UNL     1      13.783  22.256   5.409  0.00  0.00    +0.000 C 
BRANCH   9  10
ATOM     10  C   UNL     1      13.260  22.317   6.865  0.00  0.00    +0.000 C 
ATOM     11  C   UNL     1      11.736  22.306   6.898  0.00  0.00    +0.000 C 
BRANCH  10  12
ATOM     12  O   UNL     1      13.729  21.196   7.628  0.00  0.00    +0.000 OA
ATOM     13  H   UNL     1      13.830  21.481   8.551  0.00  0.00    +0.000 HD
ENDBRANCH  10  12
ENDBRANCH   9  10
ENDBRANCH   1   9
BRANCH   1  14
ATOM     14  C   UNL     1      13.910  19.871   4.666  0.00  0.00    +0.000 C 
BRANCH  14  15
ATOM     15  C   UNL     1      15.296  19.972   3.984  0.00  0.00    +0.000 C 
ATOM     16  C   UNL     1      16.404  19.284   4.773  0.00  0.00    +0.000 C 
BRANCH  15  17
ATOM     17  O   UNL     1      15.279  19.416   2.670  0.00  0.00    +0.000 OA
ATOM     18  H   UNL     1      14.455  19.754   2.264  0.00  0.00    +0.000 HD
ENDBRANCH  15  17
ENDBRANCH  14  15
ENDBRANCH   1  14
TORSDOF 7
ENDMDL
MODEL 4
REMARK VINA RESULT:    -2.714      2.240      4.513
REMARK INTER + INTRA:          -3.460
REMARK INTER:                  -3.519
REMARK INTRA:                   0.059
REMARK UNBOUND:                 0.206
REMARK  Name = 
REMARK  10 active torsions:
REMARK  status: ('A' for Active; 'I' for Inactive)
REMARK    1  A    between atoms: C_1  and  C_2
REMARK    2  A    between atoms: C_5  and  N_8
REMARK    3  A    between atoms: N_8  and  C_9
REMARK    4  A    between atoms: N_8  and  C_13
REMARK    5  A    between atoms: C_9  and  C_10
REMARK    6  A    between atoms: C_10  and  C_11
REMARK    7  A    between atoms: C_10  and  O_12
REMARK    8  A    between atoms: C_13  and  C_14
REMARK    9  A    between atoms: C_14  and  C_15
REMARK   10  A    between atoms: C_14  and  O_16
REMARK                            x       y       z     vdW  Elec       q    Type
REMARK                         _______ _______ _______ _____ _____    ______ ____
ROOT
ATOM      1  N   UNL     1       0.957   3.976  13.412  0.00  0.00    +0.000 N 
ENDROOT
BRANCH   1   6
ATOM      2  C   UNL     1       1.481   3.433   7.689  0.00  0.00    +0.000 C 
ATOM      3  C   UNL     1       1.355   3.551   9.177  0.00  0.00    +0.000 A 
ATOM      4  C   UNL     1       0.192   3.155   9.829  0.00  0.00    +0.000 A 
ATOM      5  C   UNL     1       0.068   3.296  11.221  0.00  0.00    +0.000 A 
ATOM      6  C   UNL     1       1.080   3.856  12.022  0.00  0.00    +0.000 A 
ATOM      7  C   UNL     1       2.242   4.243  11.330  0.00  0.00    +0.000 A 
ATOM      8  C   UNL     1       2.380   4.105   9.939  0.00  0.00    +0.000 A 
ENDBRANCH   1   6
BRANCH   1   9
ATOM      9  C   UNL     1       0.668   2.779  14.239  0.00  0.00    +0.000 C 
BRANCH   9  10
ATOM     10  C   UNL     1       1.802   1.726  14.188  0.00  0.00    +0.000 C 
ATOM     11  C   UNL     1       1.586   0.749  13.039  0.00  0.00    +0.000 C 
BRANCH  10  12
ATOM     12  O   UNL     1       3.079   2.354  14.003  0.00  0.00    +0.000 OA
ATOM     13  H   UNL     1       3.180   2.560  13.059  0.00  0.00    +0.000 HD
ENDBRANCH  10  12
ENDBRANCH   9  10
ENDBRANCH   1   9
BRANCH   1  14
ATOM     14  C   UNL     1       0.600   5.272  14.044  0.00  0.00    +0.000 C 
BRANCH  14  15
ATOM     15  C   UNL     1       0.604   6.438  13.027  0.00  0.00    +0.000 C 
ATOM     16  C   UNL     1      -0.761   6.690  12.396  0.00  0.00    +0.000 C 
BRANCH  15  17
ATOM     17  O   UNL     1       1.046   7.657  13.623  0.00  0.00    +0.000 OA
ATOM     18  H   UNL     1       0.291   8.272  13.532  0.00  0.00    +0.000 HD
ENDBRANCH  15  17
ENDBRANCH  14  15
ENDBRANCH   1  14
TORSDOF 7
ENDMDL
MODEL 5
REMARK VINA RESULT:    -2.564      2.052      4.902
REMARK INTER + INTRA:          -3.257
REMARK INTER:                  -4.626
REMARK INTRA:                   1.369
REMARK UNBOUND:                 0.206
REMARK  Name = 
REMARK  10 active torsions:
REMARK  status: ('A' for Active; 'I' for Inactive)
REMARK    1  A    between atoms: C_1  and  C_2
REMARK    2  A    between atoms: C_5  and  N_8
REMARK    3  A    between atoms: N_8  and  C_9
REMARK    4  A    between atoms: N_8  and  C_13
REMARK    5  A    between atoms: C_9  and  C_10
REMARK    6  A    between atoms: C_10  and  C_11
REMARK    7  A    between atoms: C_10  and  O_12
REMARK    8  A    between atoms: C_13  and  C_14
REMARK    9  A    between atoms: C_14  and  C_15
REMARK   10  A    between atoms: C_14  and  O_16
REMARK                            x       y       z     vdW  Elec       q    Type
REMARK                         _______ _______ _______ _____ _____    ______ ____
ROOT
ATOM      1  N   UNL     1       1.032   3.587  13.227  0.00  0.00    +0.000 N 
ENDROOT
BRANCH   1   6
ATOM      2  C   UNL     1       1.525   3.830   7.480  0.00  0.00    +0.000 C 
ATOM      3  C   UNL     1       1.405   3.743   8.971  0.00  0.00    +0.000 A 
ATOM      4  C   UNL     1       0.206   3.371   9.570  0.00  0.00    +0.000 A 
ATOM      5  C   UNL     1       0.091   3.321  10.969  0.00  0.00    +0.000 A 
ATOM      6  C   UNL     1       1.149   3.658  11.833  0.00  0.00    +0.000 A 
ATOM      7  C   UNL     1       2.346   4.027  11.192  0.00  0.00    +0.000 A 
ATOM      8  C   UNL     1       2.475   4.080   9.794  0.00  0.00    +0.000 A 
ENDBRANCH   1   6
BRANCH   1   9
ATOM      9  C   UNL     1       0.579   4.770  13.997  0.00  0.00    +0.000 C 
BRANCH   9  10
ATOM     10  C   UNL     1       0.912   6.108  13.292  0.00  0.00    +0.000 C 
ATOM     11  C   UNL     1      -0.338   6.725  12.675  0.00  0.00    +0.000 C 
BRANCH  10  12
ATOM     12  O   UNL     1       1.464   7.054  14.218  0.00  0.00    +0.000 OA
ATOM     13  H   UNL     1       1.985   7.700  13.713  0.00  0.00    +0.000 HD
ENDBRANCH  10  12
ENDBRANCH   9  10
ENDBRANCH   1   9
BRANCH   1  14
ATOM     14  C   UNL     1       1.802   2.588  14.012  0.00  0.00    +0.000 C 
BRANCH  14  15
ATOM     15  C   UNL     1       1.412   1.135  13.652  0.00  0.00    +0.000 C 
ATOM     16  C   UNL     1       1.056   0.956  12.181  0.00  0.00    +0.000 C 
BRANCH  15  17
ATOM     17  O   UNL     1       2.456   0.215  13.968  0.00  0.00    +0.000 OA
ATOM     18  H   UNL     1       3.285   0.718  13.834  0.00  0.00    +0.000 HD
ENDBRANCH  15  17
ENDBRANCH  14  15
ENDBRANCH   1  14
TORSDOF 7
ENDMDL
MODEL 6
REMARK VINA RESULT:    -2.347     19.973     21.317
REMARK INTER + INTRA:          -2.963
REMARK INTER:                  -2.758
REMARK INTRA:                  -0.205
REMARK UNBOUND:                 0.206
REMARK  Name = 
REMARK  10 active torsions:
REMARK  status: ('A' for Active; 'I' for Inactive)
REMARK    1  A    between atoms: C_1  and  C_2
REMARK    2  A    between atoms: C_5  and  N_8
REMARK    3  A    between atoms: N_8  and  C_9
REMARK    4  A    between atoms: N_8  and  C_13
REMARK    5  A    between atoms: C_9  and  C_10
REMARK    6  A    between atoms: C_10  and  C_11
REMARK    7  A    between atoms: C_10  and  O_12
REMARK    8  A    between atoms: C_13  and  C_14
REMARK    9  A    between atoms: C_14  and  C_15
REMARK   10  A    between atoms: C_14  and  O_16
REMARK                            x       y       z     vdW  Elec       q    Type
REMARK                         _______ _______ _______ _____ _____    ______ ____
ROOT
ATOM      1  N   UNL     1      10.988  20.549   3.198  0.00  0.00    +0.000 N 
ENDROOT
BRANCH   1   6
ATOM      2  C   UNL     1      16.411  19.925   5.077  0.00  0.00    +0.000 C 
ATOM      3  C   UNL     1      15.000  20.063   4.591  0.00  0.00    +0.000 A 
ATOM      4  C   UNL     1      14.704  20.012   3.234  0.00  0.00    +0.000 A 
ATOM      5  C   UNL     1      13.383  20.171   2.782  0.00  0.00    +0.000 A 
ATOM      6  C   UNL     1      12.305  20.410   3.653  0.00  0.00    +0.000 A 
ATOM      7  C   UNL     1      12.641  20.453   5.019  0.00  0.00    +0.000 A 
ATOM      8  C   UNL     1      13.957  20.293   5.484  0.00  0.00    +0.000 A 
ENDBRANCH   1   6
BRANCH   1   9
ATOM      9  C   UNL     1      10.345  19.450   2.437  0.00  0.00    +0.000 C 
BRANCH   9  10
ATOM     10  C   UNL     1      10.380  18.098   3.191  0.00  0.00    +0.000 C 
ATOM     11  C   UNL     1       9.627  18.191   4.513  0.00  0.00    +0.000 C 
BRANCH  10  12
ATOM     12  O   UNL     1       9.778  17.057   2.409  0.00  0.00    +0.000 OA
ATOM     13  H   UNL     1      10.489  16.494   2.059  0.00  0.00    +0.000 HD
ENDBRANCH  10  12
ENDBRANCH   9  10
ENDBRANCH   1   9
BRANCH   1  14
ATOM     14  C   UNL     1      10.383  21.890   2.990  0.00  0.00    +0.000 C 
BRANCH  14  15
ATOM     15  C   UNL     1       9.486  22.317   4.177  0.00  0.00    +0.000 C 
ATOM     16  C   UNL     1       8.205  21.499   4.285  0.00  0.00    +0.000 C 
BRANCH  15  17
ATOM     17  O   UNL     1      10.178  22.220   5.421  0.00  0.00    +0.000 OA
ATOM     18  H   UNL     1       9.479  22.277   6.104  0.00  0.00    +0.000 HD
ENDBRANCH  15  17
ENDBRANCH  14  15
ENDBRANCH   1  14
TORSDOF 7
ENDMDL
MODEL 7
REMARK VINA RESULT:    -1.849     20.815     22.264
REMARK INTER + INTRA:          -2.291
REMARK INTER:                  -2.015
REMARK INTRA:                  -0.276
REMARK UNBOUND:                 0.206
REMARK  Name = 
REMARK  10 active torsions:
REMARK  status: ('A' for Active; 'I' for Inactive)
REMARK    1  A    between atoms: C_1  and  C_2
REMARK    2  A    between atoms: C_5  and  N_8
REMARK    3  A    between atoms: N_8  and  C_9
REMARK    4  A    between atoms: N_8  and  C_13
REMARK    5  A    between atoms: C_9  and  C_10
REMARK    6  A    between atoms: C_10  and  C_11
REMARK    7  A    between atoms: C_10  and  O_12
REMARK    8  A    between atoms: C_13  and  C_14
REMARK    9  A    between atoms: C_14  and  C_15
REMARK   10  A    between atoms: C_14  and  O_16
REMARK                            x       y       z     vdW  Elec       q    Type
REMARK                         _______ _______ _______ _____ _____    ______ ____
ROOT
ATOM      1  N   UNL     1      13.039  21.066   3.419  0.00  0.00    +0.000 N 
ENDROOT
BRANCH   1   6
ATOM      2  C   UNL     1       7.368  21.203   4.493  0.00  0.00    +0.000 C 
ATOM      3  C   UNL     1       8.844  21.162   4.238  0.00  0.00    +0.000 A 
ATOM      4  C   UNL     1       9.616  22.317   4.321  0.00  0.00    +0.000 A 
ATOM      5  C   UNL     1      10.994  22.278   4.052  0.00  0.00    +0.000 A 
ATOM      6  C   UNL     1      11.661  21.101   3.667  0.00  0.00    +0.000 A 
ATOM      7  C   UNL     1      10.851  19.954   3.595  0.00  0.00    +0.000 A 
ATOM      8  C   UNL     1       9.472  19.978   3.864  0.00  0.00    +0.000 A 
ENDBRANCH   1   6
BRANCH   1   9
ATOM      9  C   UNL     1      13.568  20.296   2.268  0.00  0.00    +0.000 C 
BRANCH   9  10
ATOM     10  C   UNL     1      13.018  20.795   0.909  0.00  0.00    +0.000 C 
ATOM     11  C   UNL     1      12.939  22.317   0.878  0.00  0.00    +0.000 C 
BRANCH  10  12
ATOM     12  O   UNL     1      13.858  20.372  -0.173  0.00  0.00    +0.000 OA
ATOM     13  H   UNL     1      13.936  19.404  -0.134  0.00  0.00    +0.000 HD
ENDBRANCH  10  12
ENDBRANCH   9  10
ENDBRANCH   1   9
BRANCH   1  14
ATOM     14  C   UNL     1      14.022  21.322   4.503  0.00  0.00    +0.000 C 
BRANCH  14  15
ATOM     15  C   UNL     1      14.546  20.012   5.138  0.00  0.00    +0.000 C 
ATOM     16  C   UNL     1      16.054  19.838   4.997  0.00  0.00    +0.000 C 
BRANCH  15  17
ATOM     17  O   UNL     1      14.220  19.931   6.525  0.00  0.00    +0.000 OA
ATOM     18  H   UNL     1      14.478  19.026   6.793  0.00  0.00    +0.000 HD
ENDBRANCH  15  17
ENDBRANCH  14  15
ENDBRANCH   1  14
TORSDOF 7
ENDMDL
MODEL 8
REMARK VINA RESULT:    -1.231     20.689     22.088
REMARK INTER + INTRA:          -1.456
REMARK INTER:                  -1.924
REMARK INTRA:                   0.468
REMARK UNBOUND:                 0.206
REMARK  Name = 
REMARK  10 active torsions:
REMARK  status: ('A' for Active; 'I' for Inactive)
REMARK    1  A    between atoms: C_1  and  C_2
REMARK    2  A    between atoms: C_5  and  N_8
REMARK    3  A    between atoms: N_8  and  C_9
REMARK    4  A    between atoms: N_8  and  C_13
REMARK    5  A    between atoms: C_9  and  C_10
REMARK    6  A    between atoms: C_10  and  C_11
REMARK    7  A    between atoms: C_10  and  O_12
REMARK    8  A    between atoms: C_13  and  C_14
REMARK    9  A    between atoms: C_14  and  C_15
REMARK   10  A    between atoms: C_14  and  O_16
REMARK                            x       y       z     vdW  Elec       q    Type
REMARK                         _______ _______ _______ _____ _____    ______ ____
ROOT
ATOM      1  N   UNL     1      12.889  21.062   3.955  0.00  0.00    +0.000 N 
ENDROOT
BRANCH   1   6
ATOM      2  C   UNL     1       7.129  21.214   4.318  0.00  0.00    +0.000 C 
ATOM      3  C   UNL     1       8.622  21.181   4.200  0.00  0.00    +0.000 A 
ATOM      4  C   UNL     1       9.287  20.003   3.879  0.00  0.00    +0.000 A 
ATOM      5  C   UNL     1      10.689  19.970   3.799  0.00  0.00    +0.000 A 
ATOM      6  C   UNL     1      11.492  21.096   4.056  0.00  0.00    +0.000 A 
ATOM      7  C   UNL     1      10.786  22.270   4.376  0.00  0.00    +0.000 A 
ATOM      8  C   UNL     1       9.384  22.317   4.457  0.00  0.00    +0.000 A 
ENDBRANCH   1   6
BRANCH   1   9
ATOM      9  C   UNL     1      13.612  19.774   4.089  0.00  0.00    +0.000 C 
BRANCH   9  10
ATOM     10  C   UNL     1      15.042  19.825   3.499  0.00  0.00    +0.000 C 
ATOM     11  C   UNL     1      16.012  19.014   4.349  0.00  0.00    +0.000 C 
BRANCH  10  12
ATOM     12  O   UNL     1      15.069  19.295   2.166  0.00  0.00    +0.000 OA
ATOM     13  H   UNL     1      14.815  20.006   1.554  0.00  0.00    +0.000 HD
ENDBRANCH  10  12
ENDBRANCH   9  10
ENDBRANCH   1   9
BRANCH   1  14
ATOM     14  C   UNL     1      13.709  22.270   4.227  0.00  0.00    +0.000 C 
BRANCH  14  15
ATOM     15  C   UNL     1      14.214  22.317   5.689  0.00  0.00    +0.000 C 
ATOM     16  C   UNL     1      13.573  21.259   6.579  0.00  0.00    +0.000 C 
BRANCH  15  17
ATOM     17  O   UNL     1      15.630  22.157   5.763  0.00  0.00    +0.000 OA
ATOM     18  H   UNL     1      15.776  21.189   5.751  0.00  0.00    +0.000 HD
ENDBRANCH  15  17
ENDBRANCH  14  15
ENDBRANCH   1  14
TORSDOF 7
ENDMDL
