MODEL 1
REMARK VINA RESULT:    -6.140      0.000      0.000
REMARK INTER + INTRA:          -8.823
REMARK INTER:                  -8.294
REMARK INTRA:                  -0.529
REMARK UNBOUND:                -0.529
REMARK  Name = 
REMARK  10 active torsions:
REMARK  status: ('A' for Active; 'I' for Inactive)
REMARK    1  A    between atoms: C_1  and  C_2
REMARK    2  A    between atoms: C_5  and  N_8
REMARK    3  A    between atoms: N_8  and  C_9
REMARK    4  A    between atoms: N_8  and  C_13
REMARK    5  A    between atoms: C_9  and  C_10
REMARK    6  A    between atoms: C_10  and  C_11
REMARK    7  A    between atoms: C_10  and  O_12
REMARK    8  A    between atoms: C_13  and  C_14
REMARK    9  A    between atoms: C_14  and  C_15
REMARK   10  A    between atoms: C_14  and  O_16
REMARK                            x       y       z     vdW  Elec       q    Type
REMARK                         _______ _______ _______ _____ _____    ______ ____
ROOT
ATOM      1  N   UNL     1      12.500   1.216   7.113  0.00  0.00    +0.000 N 
ENDROOT
BRANCH   1   6
ATOM      2  C   UNL     1      10.230   2.734  12.199  0.00  0.00    +0.000 C 
ATOM      3  C   UNL     1      10.797   2.343  10.868  0.00  0.00    +0.000 A 
ATOM      4  C   UNL     1      10.855   1.008  10.481  0.00  0.00    +0.000 A 
ATOM      5  C   UNL     1      11.415   0.645   9.245  0.00  0.00    +0.000 A 
ATOM      6  C   UNL     1      11.961   1.584   8.352  0.00  0.00    +0.000 A 
ATOM      7  C   UNL     1      11.883   2.923   8.775  0.00  0.00    +0.000 A 
ATOM      8  C   UNL     1      11.324   3.300  10.007  0.00  0.00    +0.000 A 
ENDBRANCH   1   6
BRANCH   1   9
ATOM      9  C   UNL     1      11.729   0.343   6.196  0.00  0.00    +0.000 C 
BRANCH   9  10
ATOM     10  C   UNL     1      10.424   1.006   5.691  0.00  0.00    +0.000 C 
ATOM     11  C   UNL     1      10.183   0.685   4.221  0.00  0.00    +0.000 C 
BRANCH  10  12
ATOM     12  O   UNL     1       9.290   0.544   6.438  0.00  0.00    +0.000 OA
ATOM     13  H   UNL     1       9.429  -0.394   6.648  0.00  0.00    +0.000 HD
ENDBRANCH  10  12
ENDBRANCH   9  10
ENDBRANCH   1   9
BRANCH   1  14
ATOM     14  C   UNL     1      13.967   1.225   6.879  0.00  0.00    +0.000 C 
BRANCH  14  15
ATOM     15  C   UNL     1      14.352   2.028   5.613  0.00  0.00    +0.000 C 
ATOM     16  C   UNL     1      14.037   3.515   5.727  0.00  0.00    +0.000 C 
BRANCH  15  17
ATOM     17  O   UNL     1      15.739   1.893   5.304  0.00  0.00    +0.000 OA
ATOM     18  H   UNL     1      15.819   2.178   4.372  0.00  0.00    +0.000 HD
ENDBRANCH  15  17
ENDBRANCH  14  15
ENDBRANCH   1  14
TORSDOF 7
ENDMDL
MODEL 2
REMARK VINA RESULT:    -5.950      1.743      2.019
REMARK INTER + INTRA:          -8.566
REMARK INTER:                  -8.128
REMARK INTRA:                  -0.438
REMARK UNBOUND:                -0.529
REMARK  Name = 
REMARK  10 active torsions:
REMARK  status: ('A' for Active; 'I' for Inactive)
REMARK    1  A    between atoms: C_1  and  C_2
REMARK    2  A    between atoms: C_5  and  N_8
REMARK    3  A    between atoms: N_8  and  C_9
REMARK    4  A    between atoms: N_8  and  C_13
REMARK    5  A    between atoms: C_9  and  C_10
REMARK    6  A    between atoms: C_10  and  C_11
REMARK    7  A    between atoms: C_10  and  O_12
REMARK    8  A    between atoms: C_13  and  C_14
REMARK    9  A    between atoms: C_14  and  C_15
REMARK   10  A    between atoms: C_14  and  O_16
REMARK                            x       y       z     vdW  Elec       q    Type
REMARK                         _______ _______ _______ _____ _____    ______ ____
ROOT
ATOM      1  N   UNL     1      12.381   1.456   6.719  0.00  0.00    +0.000 N 
ENDROOT
BRANCH   1   6
ATOM      2  C   UNL     1      12.429  -0.096  12.279  0.00  0.00    +0.000 C 
ATOM      3  C   UNL     1      12.425   0.284  10.830  0.00  0.00    +0.000 A 
ATOM      4  C   UNL     1      13.538   0.877  10.244  0.00  0.00    +0.000 A 
ATOM      5  C   UNL     1      13.518   1.258   8.892  0.00  0.00    +0.000 A 
ATOM      6  C   UNL     1      12.388   1.091   8.071  0.00  0.00    +0.000 A 
ATOM      7  C   UNL     1      11.282   0.487   8.696  0.00  0.00    +0.000 A 
ATOM      8  C   UNL     1      11.290   0.099  10.046  0.00  0.00    +0.000 A 
ENDBRANCH   1   6
BRANCH   1   9
ATOM      9  C   UNL     1      11.098   1.732   6.030  0.00  0.00    +0.000 C 
BRANCH   9  10
ATOM     10  C   UNL     1      10.759   0.678   4.947  0.00  0.00    +0.000 C 
ATOM     11  C   UNL     1       9.813  -0.383   5.496  0.00  0.00    +0.000 C 
BRANCH  10  12
ATOM     12  O   UNL     1      10.130   1.290   3.812  0.00  0.00    +0.000 OA
ATOM     13  H   UNL     1      10.829   1.619   3.222  0.00  0.00    +0.000 HD
ENDBRANCH  10  12
ENDBRANCH   9  10
ENDBRANCH   1   9
BRANCH   1  14
ATOM     14  C   UNL     1      13.508   1.097   5.820  0.00  0.00    +0.000 C 
BRANCH  14  15
ATOM     15  C   UNL     1      14.244   2.345   5.278  0.00  0.00    +0.000 C 
ATOM     16  C   UNL     1      13.996   3.597   6.112  0.00  0.00    +0.000 C 
BRANCH  15  17
ATOM     17  O   UNL     1      15.654   2.136   5.205  0.00  0.00    +0.000 OA
ATOM     18  H   UNL     1      15.779   1.522   4.454  0.00  0.00    +0.000 HD
ENDBRANCH  15  17
ENDBRANCH  14  15
ENDBRANCH   1  14
TORSDOF 7
ENDMDL
MODEL 3
REMARK VINA RESULT:    -5.918      0.996      3.278
REMARK INTER + INTRA:          -8.523
REMARK INTER:                  -8.275
REMARK INTRA:                  -0.247
REMARK UNBOUND:                -0.529
REMARK  Name = 
REMARK  10 active torsions:
REMARK  status: ('A' for Active; 'I' for Inactive)
REMARK    1  A    between atoms: C_1  and  C_2
REMARK    2  A    between atoms: C_5  and  N_8
REMARK    3  A    between atoms: N_8  and  C_9
REMARK    4  A    between atoms: N_8  and  C_13
REMARK    5  A    between atoms: C_9  and  C_10
REMARK    6  A    between atoms: C_10  and  C_11
REMARK    7  A    between atoms: C_10  and  O_12
REMARK    8  A    between atoms: C_13  and  C_14
REMARK    9  A    between atoms: C_14  and  C_15
REMARK   10  A    between atoms: C_14  and  O_16
REMARK                            x       y       z     vdW  Elec       q    Type
REMARK                         _______ _______ _______ _____ _____    ______ ____
ROOT
ATOM      1  N   UNL     1      12.459   1.420   7.032  0.00  0.00    +0.000 N 
ENDROOT
BRANCH   1   6
ATOM      2  C   UNL     1      10.126   2.689  12.158  0.00  0.00    +0.000 C 
ATOM      3  C   UNL     1      10.709   2.365  10.817  0.00  0.00    +0.000 A 
ATOM      4  C   UNL     1      10.691   1.064  10.326  0.00  0.00    +0.000 A 
ATOM      5  C   UNL     1      11.267   0.761   9.081  0.00  0.00    +0.000 A 
ATOM      6  C   UNL     1      11.904   1.726   8.281  0.00  0.00    +0.000 A 
ATOM      7  C   UNL     1      11.902   3.031   8.809  0.00  0.00    +0.000 A 
ATOM      8  C   UNL     1      11.328   3.348  10.051  0.00  0.00    +0.000 A 
ENDBRANCH   1   6
BRANCH   1   9
ATOM      9  C   UNL     1      13.931   1.378   6.863  0.00  0.00    +0.000 C 
BRANCH   9  10
ATOM     10  C   UNL     1      14.405   2.063   5.558  0.00  0.00    +0.000 C 
ATOM     11  C   UNL     1      14.237   3.576   5.644  0.00  0.00    +0.000 C 
BRANCH  10  12
ATOM     12  O   UNL     1      15.789   1.784   5.303  0.00  0.00    +0.000 OA
ATOM     13  H   UNL     1      15.899   1.655   4.346  0.00  0.00    +0.000 HD
ENDBRANCH  10  12
ENDBRANCH   9  10
ENDBRANCH   1   9
BRANCH   1  14
ATOM     14  C   UNL     1      11.692   1.632   5.778  0.00  0.00    +0.000 C 
BRANCH  14  15
ATOM     15  C   UNL     1      11.164   0.304   5.185  0.00  0.00    +0.000 C 
ATOM     16  C   UNL     1       9.742  -0.026   5.625  0.00  0.00    +0.000 C 
BRANCH  15  17
ATOM     17  O   UNL     1      11.193   0.315   3.758  0.00  0.00    +0.000 OA
ATOM     18  H   UNL     1      11.888  -0.329   3.515  0.00  0.00    +0.000 HD
ENDBRANCH  15  17
ENDBRANCH  14  15
ENDBRANCH   1  14
TORSDOF 7
ENDMDL
MODEL 4
REMARK VINA RESULT:    -5.709      2.834      5.593
REMARK INTER + INTRA:          -8.240
REMARK INTER:                  -7.536
REMARK INTRA:                  -0.704
REMARK UNBOUND:                -0.529
REMARK  Name = 
REMARK  10 active torsions:
REMARK  status: ('A' for Active; 'I' for Inactive)
REMARK    1  A    between atoms: C_1  and  C_2
REMARK    2  A    between atoms: C_5  and  N_8
REMARK    3  A    between atoms: N_8  and  C_9
REMARK    4  A    between atoms: N_8  and  C_13
REMARK    5  A    between atoms: C_9  and  C_10
REMARK    6  A    between atoms: C_10  and  C_11
REMARK    7  A    between atoms: C_10  and  O_12
REMARK    8  A    between atoms: C_13  and  C_14
REMARK    9  A    between atoms: C_14  and  C_15
REMARK   10  A    between atoms: C_14  and  O_16
REMARK                            x       y       z     vdW  Elec       q    Type
REMARK                         _______ _______ _______ _____ _____    ______ ____
ROOT
ATOM      1  N   UNL     1      12.382   1.487  10.324  0.00  0.00    +0.000 N 
ENDROOT
BRANCH   1   6
ATOM      2  C   UNL     1      14.301   3.349   5.207  0.00  0.00    +0.000 C 
ATOM      3  C   UNL     1      13.780   2.863   6.525  0.00  0.00    +0.000 A 
ATOM      4  C   UNL     1      13.312   3.758   7.481  0.00  0.00    +0.000 A 
ATOM      5  C   UNL     1      12.853   3.299   8.727  0.00  0.00    +0.000 A 
ATOM      6  C   UNL     1      12.859   1.940   9.087  0.00  0.00    +0.000 A 
ATOM      7  C   UNL     1      13.337   1.064   8.095  0.00  0.00    +0.000 A 
ATOM      8  C   UNL     1      13.797   1.509   6.845  0.00  0.00    +0.000 A 
ENDBRANCH   1   6
BRANCH   1   9
ATOM      9  C   UNL     1      12.049   2.460  11.392  0.00  0.00    +0.000 C 
BRANCH   9  10
ATOM     10  C   UNL     1      10.524   2.624  11.600  0.00  0.00    +0.000 C 
ATOM     11  C   UNL     1      10.167   4.077  11.892  0.00  0.00    +0.000 C 
BRANCH  10  12
ATOM     12  O   UNL     1       9.798   2.215  10.432  0.00  0.00    +0.000 OA
ATOM     13  H   UNL     1       9.252   1.447  10.670  0.00  0.00    +0.000 HD
ENDBRANCH  10  12
ENDBRANCH   9  10
ENDBRANCH   1   9
BRANCH   1  14
ATOM     14  C   UNL     1      12.664   0.109  10.799  0.00  0.00    +0.000 C 
BRANCH  14  15
ATOM     15  C   UNL     1      11.452  -0.834  10.610  0.00  0.00    +0.000 C 
ATOM     16  C   UNL     1      10.589  -0.959  11.860  0.00  0.00    +0.000 C 
BRANCH  15  17
ATOM     17  O   UNL     1      10.615  -0.408   9.536  0.00  0.00    +0.000 OA
ATOM     18  H   UNL     1       9.835  -0.006   9.968  0.00  0.00    +0.000 HD
ENDBRANCH  15  17
ENDBRANCH  14  15
ENDBRANCH   1  14
TORSDOF 7
ENDMDL
MODEL 5
REMARK VINA RESULT:    -5.641      2.684      5.219
REMARK INTER + INTRA:          -8.148
REMARK INTER:                  -7.437
REMARK INTRA:                  -0.711
REMARK UNBOUND:                -0.529
REMARK  Name = 
REMARK  10 active torsions:
REMARK  status: ('A' for Active; 'I' for Inactive)
REMARK    1  A    between atoms: C_1  and  C_2
REMARK    2  A    between atoms: C_5  and  N_8
REMARK    3  A    between atoms: N_8  and  C_9
REMARK    4  A    between atoms: N_8  and  C_13
REMARK    5  A    between atoms: C_9  and  C_10
REMARK    6  A    between atoms: C_10  and  C_11
REMARK    7  A    between atoms: C_10  and  O_12
REMARK    8  A    between atoms: C_13  and  C_14
REMARK    9  A    between atoms: C_14  and  C_15
REMARK   10  A    between atoms: C_14  and  O_16
REMARK                            x       y       z     vdW  Elec       q    Type
REMARK                         _______ _______ _______ _____ _____    ______ ____
ROOT
ATOM      1  N   UNL     1      11.996   2.312   9.649  0.00  0.00    +0.000 N 
ENDROOT
BRANCH   1   6
ATOM      2  C   UNL     1      10.475   0.513   4.379  0.00  0.00    +0.000 C 
ATOM      3  C   UNL     1      10.890   0.966   5.745  0.00  0.00    +0.000 A 
ATOM      4  C   UNL     1      10.477   0.279   6.882  0.00  0.00    +0.000 A 
ATOM      5  C   UNL     1      10.845   0.726   8.161  0.00  0.00    +0.000 A 
ATOM      6  C   UNL     1      11.617   1.883   8.371  0.00  0.00    +0.000 A 
ATOM      7  C   UNL     1      12.019   2.550   7.200  0.00  0.00    +0.000 A 
ATOM      8  C   UNL     1      11.660   2.113   5.914  0.00  0.00    +0.000 A 
ENDBRANCH   1   6
BRANCH   1   9
ATOM      9  C   UNL     1      11.241   3.394  10.325  0.00  0.00    +0.000 C 
BRANCH   9  10
ATOM     10  C   UNL     1      10.565   2.925  11.637  0.00  0.00    +0.000 C 
ATOM     11  C   UNL     1       9.577   3.969  12.144  0.00  0.00    +0.000 C 
BRANCH  10  12
ATOM     12  O   UNL     1       9.852   1.697  11.439  0.00  0.00    +0.000 OA
ATOM     13  H   UNL     1       9.495   1.414  12.297  0.00  0.00    +0.000 HD
ENDBRANCH  10  12
ENDBRANCH   9  10
ENDBRANCH   1   9
BRANCH   1  14
ATOM     14  C   UNL     1      13.381   2.112  10.148  0.00  0.00    +0.000 C 
BRANCH  14  15
ATOM     15  C   UNL     1      13.639   0.650  10.586  0.00  0.00    +0.000 C 
ATOM     16  C   UNL     1      14.863   0.500  11.482  0.00  0.00    +0.000 C 
BRANCH  15  17
ATOM     17  O   UNL     1      12.517   0.100  11.275  0.00  0.00    +0.000 OA
ATOM     18  H   UNL     1      12.125  -0.540  10.647  0.00  0.00    +0.000 HD
ENDBRANCH  15  17
ENDBRANCH  14  15
ENDBRANCH   1  14
TORSDOF 7
ENDMDL
MODEL 6
REMARK VINA RESULT:    -5.581      2.573      5.743
REMARK INTER + INTRA:          -8.067
REMARK INTER:                  -7.646
REMARK INTRA:                  -0.421
REMARK UNBOUND:                -0.529
REMARK  Name = 
REMARK  10 active torsions:
REMARK  status: ('A' for Active; 'I' for Inactive)
REMARK    1  A    between atoms: C_1  and  C_2
REMARK    2  A    between atoms: C_5  and  N_8
REMARK    3  A    between atoms: N_8  and  C_9
REMARK    4  A    between atoms: N_8  and  C_13
REMARK    5  A    between atoms: C_9  and  C_10
REMARK    6  A    between atoms: C_10  and  C_11
REMARK    7  A    between atoms: C_10  and  O_12
REMARK    8  A    between atoms: C_13  and  C_14
REMARK    9  A    between atoms: C_14  and  C_15
REMARK   10  A    between atoms: C_14  and  O_16
REMARK                            x       y       z     vdW  Elec       q    Type
REMARK                         _______ _______ _______ _____ _____    ______ ____
ROOT
ATOM      1  N   UNL     1      12.089   2.301   9.842  0.00  0.00    +0.000 N 
ENDROOT
BRANCH   1   6
ATOM      2  C   UNL     1      10.588   0.632   4.522  0.00  0.00    +0.000 C 
ATOM      3  C   UNL     1      10.999   1.052   5.901  0.00  0.00    +0.000 A 
ATOM      4  C   UNL     1      10.591   0.330   7.018  0.00  0.00    +0.000 A 
ATOM      5  C   UNL     1      10.954   0.745   8.310  0.00  0.00    +0.000 A 
ATOM      6  C   UNL     1      11.714   1.904   8.552  0.00  0.00    +0.000 A 
ATOM      7  C   UNL     1      12.110   2.607   7.399  0.00  0.00    +0.000 A 
ATOM      8  C   UNL     1      11.756   2.202   6.102  0.00  0.00    +0.000 A 
ENDBRANCH   1   6
BRANCH   1   9
ATOM      9  C   UNL     1      12.621   1.304  10.802  0.00  0.00    +0.000 C 
BRANCH   9  10
ATOM     10  C   UNL     1      14.160   1.156  10.723  0.00  0.00    +0.000 C 
ATOM     11  C   UNL     1      14.774   1.095  12.117  0.00  0.00    +0.000 C 
BRANCH  10  12
ATOM     12  O   UNL     1      14.527  -0.041  10.023  0.00  0.00    +0.000 OA
ATOM     13  H   UNL     1      13.756  -0.631  10.010  0.00  0.00    +0.000 HD
ENDBRANCH  10  12
ENDBRANCH   9  10
ENDBRANCH   1   9
BRANCH   1  14
ATOM     14  C   UNL     1      11.525   3.526  10.463  0.00  0.00    +0.000 C 
BRANCH  14  15
ATOM     15  C   UNL     1      10.502   3.199  11.577  0.00  0.00    +0.000 C 
ATOM     16  C   UNL     1       9.961   4.439  12.278  0.00  0.00    +0.000 C 
BRANCH  15  17
ATOM     17  O   UNL     1       9.392   2.457  11.073  0.00  0.00    +0.000 OA
ATOM     18  H   UNL     1       8.659   3.103  11.022  0.00  0.00    +0.000 HD
ENDBRANCH  15  17
ENDBRANCH  14  15
ENDBRANCH   1  14
TORSDOF 7
ENDMDL
MODEL 7
REMARK VINA RESULT:    -5.563      2.688      5.385
REMARK INTER + INTRA:          -8.044
REMARK INTER:                  -7.571
REMARK INTRA:                  -0.473
REMARK UNBOUND:                -0.529
REMARK  Name = 
REMARK  10 active torsions:
REMARK  status: ('A' for Active; 'I' for Inactive)
REMARK    1  A    between atoms: C_1  and  C_2
REMARK    2  A    between atoms: C_5  and  N_8
REMARK    3  A    between atoms: N_8  and  C_9
REMARK    4  A    between atoms: N_8  and  C_13
REMARK    5  A    between atoms: C_9  and  C_10
REMARK    6  A    between atoms: C_10  and  C_11
REMARK    7  A    between atoms: C_10  and  O_12
REMARK    8  A    between atoms: C_13  and  C_14
REMARK    9  A    between atoms: C_14  and  C_15
REMARK   10  A    between atoms: C_14  and  O_16
REMARK                            x       y       z     vdW  Elec       q    Type
REMARK                         _______ _______ _______ _____ _____    ______ ____
ROOT
ATOM      1  N   UNL     1      12.259   1.385  10.158  0.00  0.00    +0.000 N 
ENDROOT
BRANCH   1   6
ATOM      2  C   UNL     1      14.357   3.439   5.187  0.00  0.00    +0.000 C 
ATOM      3  C   UNL     1      13.836   2.906   6.487  0.00  0.00    +0.000 A 
ATOM      4  C   UNL     1      13.694   1.538   6.692  0.00  0.00    +0.000 A 
ATOM      5  C   UNL     1      13.177   1.045   7.901  0.00  0.00    +0.000 A 
ATOM      6  C   UNL     1      12.756   1.885   8.948  0.00  0.00    +0.000 A 
ATOM      7  C   UNL     1      12.915   3.262   8.706  0.00  0.00    +0.000 A 
ATOM      8  C   UNL     1      13.433   3.768   7.503  0.00  0.00    +0.000 A 
ENDBRANCH   1   6
BRANCH   1   9
ATOM      9  C   UNL     1      12.106   2.286  11.327  0.00  0.00    +0.000 C 
BRANCH   9  10
ATOM     10  C   UNL     1      10.624   2.547  11.692  0.00  0.00    +0.000 C 
ATOM     11  C   UNL     1      10.378   4.031  11.942  0.00  0.00    +0.000 C 
BRANCH  10  12
ATOM     12  O   UNL     1       9.751   2.124  10.635  0.00  0.00    +0.000 OA
ATOM     13  H   UNL     1       9.092   1.519  11.013  0.00  0.00    +0.000 HD
ENDBRANCH  10  12
ENDBRANCH   9  10
ENDBRANCH   1   9
BRANCH   1  14
ATOM     14  C   UNL     1      12.355  -0.059  10.491  0.00  0.00    +0.000 C 
BRANCH  14  15
ATOM     15  C   UNL     1      13.608  -0.381  11.340  0.00  0.00    +0.000 C 
ATOM     16  C   UNL     1      13.494  -1.695  12.104  0.00  0.00    +0.000 C 
BRANCH  15  17
ATOM     17  O   UNL     1      14.787  -0.438  10.538  0.00  0.00    +0.000 OA
ATOM     18  H   UNL     1      14.749  -1.310  10.094  0.00  0.00    +0.000 HD
ENDBRANCH  15  17
ENDBRANCH  14  15
ENDBRANCH   1  14
TORSDOF 7
ENDMDL
MODEL 8
REMARK VINA RESULT:    -5.389      1.626      2.163
REMARK INTER + INTRA:          -7.808
REMARK INTER:                  -8.349
REMARK INTRA:                   0.541
REMARK UNBOUND:                -0.529
REMARK  Name = 
REMARK  10 active torsions:
REMARK  status: ('A' for Active; 'I' for Inactive)
REMARK    1  A    between atoms: C_1  and  C_2
REMARK    2  A    between atoms: C_5  and  N_8
REMARK    3  A    between atoms: N_8  and  C_9
REMARK    4  A    between atoms: N_8  and  C_13
REMARK    5  A    between atoms: C_9  and  C_10
REMARK    6  A    between atoms: C_10  and  C_11
REMARK    7  A    between atoms: C_10  and  O_12
REMARK    8  A    between atoms: C_13  and  C_14
REMARK    9  A    between atoms: C_14  and  C_15
REMARK   10  A    between atoms: C_14  and  O_16
REMARK                            x       y       z     vdW  Elec       q    Type
REMARK                         _______ _______ _______ _____ _____    ______ ____
ROOT
ATOM      1  N   UNL     1      12.307   2.283   6.702  0.00  0.00    +0.000 N 
ENDROOT
BRANCH   1   6
ATOM      2  C   UNL     1      13.685   1.717  12.279  0.00  0.00    +0.000 C 
ATOM      3  C   UNL     1      13.349   1.877  10.828  0.00  0.00    +0.000 A 
ATOM      4  C   UNL     1      12.570   2.942  10.388  0.00  0.00    +0.000 A 
ATOM      5  C   UNL     1      12.232   3.070   9.031  0.00  0.00    +0.000 A 
ATOM      6  C   UNL     1      12.631   2.138   8.056  0.00  0.00    +0.000 A 
ATOM      7  C   UNL     1      13.418   1.075   8.536  0.00  0.00    +0.000 A 
ATOM      8  C   UNL     1      13.765   0.937   9.890  0.00  0.00    +0.000 A 
ENDBRANCH   1   6
BRANCH   1   9
ATOM      9  C   UNL     1      11.842   1.112   5.919  0.00  0.00    +0.000 C 
BRANCH   9  10
ATOM     10  C   UNL     1      10.353   0.772   6.176  0.00  0.00    +0.000 C 
ATOM     11  C   UNL     1       9.837  -0.226   5.146  0.00  0.00    +0.000 C 
BRANCH  10  12
ATOM     12  O   UNL     1      10.174   0.198   7.479  0.00  0.00    +0.000 OA
ATOM     13  H   UNL     1      10.383  -0.749   7.422  0.00  0.00    +0.000 HD
ENDBRANCH  10  12
ENDBRANCH   9  10
ENDBRANCH   1   9
BRANCH   1  14
ATOM     14  C   UNL     1      12.872   3.391   5.890  0.00  0.00    +0.000 C 
BRANCH  14  15
ATOM     15  C   UNL     1      14.359   3.156   5.534  0.00  0.00    +0.000 C 
ATOM     16  C   UNL     1      14.750   1.683   5.537  0.00  0.00    +0.000 C 
BRANCH  15  17
ATOM     17  O   UNL     1      14.687   3.697   4.255  0.00  0.00    +0.000 OA
ATOM     18  H   UNL     1      15.665   3.721   4.234  0.00  0.00    +0.000 HD
ENDBRANCH  15  17
ENDBRANCH  14  15
ENDBRANCH   1  14
TORSDOF 7
ENDMDL
