MODEL 1
REMARK VINA RESULT:    -4.701      0.000      0.000
REMARK INTER + INTRA:          -7.072
REMARK INTER:                  -6.350
REMARK INTRA:                  -0.721
REMARK UNBOUND:                -0.721
REMARK  Name = 
REMARK  10 active torsions:
REMARK  status: ('A' for Active; 'I' for Inactive)
REMARK    1  A    between atoms: C_1  and  C_2
REMARK    2  A    between atoms: C_5  and  N_8
REMARK    3  A    between atoms: N_8  and  C_9
REMARK    4  A    between atoms: N_8  and  C_13
REMARK    5  A    between atoms: C_9  and  C_10
REMARK    6  A    between atoms: C_10  and  C_11
REMARK    7  A    between atoms: C_10  and  O_12
REMARK    8  A    between atoms: C_13  and  C_14
REMARK    9  A    between atoms: C_14  and  C_15
REMARK   10  A    between atoms: C_14  and  O_16
REMARK                            x       y       z     vdW  Elec       q    Type
REMARK                         _______ _______ _______ _____ _____    ______ ____
ROOT
ATOM      1  N   UNL     1      15.297   1.362   8.974  0.00  0.00    +0.000 N 
ENDROOT
BRANCH   1   6
ATOM      2  C   UNL     1      12.496  -3.584   7.964  0.00  0.00    +0.000 C 
ATOM      3  C   UNL     1      13.219  -2.294   8.202  0.00  0.00    +0.000 A 
ATOM      4  C   UNL     1      14.600  -2.210   8.051  0.00  0.00    +0.000 A 
ATOM      5  C   UNL     1      15.276  -1.006   8.305  0.00  0.00    +0.000 A 
ATOM      6  C   UNL     1      14.619   0.159   8.741  0.00  0.00    +0.000 A 
ATOM      7  C   UNL     1      13.224   0.039   8.881  0.00  0.00    +0.000 A 
ATOM      8  C   UNL     1      12.535  -1.159   8.628  0.00  0.00    +0.000 A 
ENDBRANCH   1   6
BRANCH   1   9
ATOM      9  C   UNL     1      15.785   2.173   7.832  0.00  0.00    +0.000 C 
BRANCH   9  10
ATOM     10  C   UNL     1      15.117   3.568   7.758  0.00  0.00    +0.000 C 
ATOM     11  C   UNL     1      15.176   4.126   6.341  0.00  0.00    +0.000 C 
BRANCH  10  12
ATOM     12  O   UNL     1      13.740   3.501   8.153  0.00  0.00    +0.000 OA
ATOM     13  H   UNL     1      13.618   4.081   8.922  0.00  0.00    +0.000 HD
ENDBRANCH  10  12
ENDBRANCH   9  10
ENDBRANCH   1   9
BRANCH   1  14
ATOM     14  C   UNL     1      15.991   1.617  10.262  0.00  0.00    +0.000 C 
BRANCH  14  15
ATOM     15  C   UNL     1      15.005   2.011  11.388  0.00  0.00    +0.000 C 
ATOM     16  C   UNL     1      15.700   2.369  12.696  0.00  0.00    +0.000 C 
BRANCH  15  17
ATOM     17  O   UNL     1      14.184   3.114  11.008  0.00  0.00    +0.000 OA
ATOM     18  H   UNL     1      14.404   3.824  11.644  0.00  0.00    +0.000 HD
ENDBRANCH  15  17
ENDBRANCH  14  15
ENDBRANCH   1  14
TORSDOF 7
ENDMDL
MODEL 2
REMARK VINA RESULT:    -4.467      1.283      5.225
REMARK INTER + INTRA:          -6.756
REMARK INTER:                  -5.993
REMARK INTRA:                  -0.763
REMARK UNBOUND:                -0.721
REMARK  Name = 
REMARK  10 active torsions:
REMARK  status: ('A' for Active; 'I' for Inactive)
REMARK    1  A    between atoms: C_1  and  C_2
REMARK    2  A    between atoms: C_5  and  N_8
REMARK    3  A    between atoms: N_8  and  C_9
REMARK    4  A    between atoms: N_8  and  C_13
REMARK    5  A    between atoms: C_9  and  C_10
REMARK    6  A    between atoms: C_10  and  C_11
REMARK    7  A    between atoms: C_10  and  O_12
REMARK    8  A    between atoms: C_13  and  C_14
REMARK    9  A    between atoms: C_14  and  C_15
REMARK   10  A    between atoms: C_14  and  O_16
REMARK                            x       y       z     vdW  Elec       q    Type
REMARK                         _______ _______ _______ _____ _____    ______ ____
ROOT
ATOM      1  N   UNL     1      15.202   1.539   9.155  0.00  0.00    +0.000 N 
ENDROOT
BRANCH   1   6
ATOM      2  C   UNL     1      15.444   5.454   4.920  0.00  0.00    +0.000 C 
ATOM      3  C   UNL     1      15.367   4.423   6.004  0.00  0.00    +0.000 A 
ATOM      4  C   UNL     1      14.378   4.486   6.981  0.00  0.00    +0.000 A 
ATOM      5  C   UNL     1      14.329   3.535   8.013  0.00  0.00    +0.000 A 
ATOM      6  C   UNL     1      15.269   2.495   8.135  0.00  0.00    +0.000 A 
ATOM      7  C   UNL     1      16.253   2.461   7.130  0.00  0.00    +0.000 A 
ATOM      8  C   UNL     1      16.312   3.405   6.091  0.00  0.00    +0.000 A 
ENDBRANCH   1   6
BRANCH   1   9
ATOM      9  C   UNL     1      16.003   1.712  10.391  0.00  0.00    +0.000 C 
BRANCH   9  10
ATOM     10  C   UNL     1      15.127   1.853  11.660  0.00  0.00    +0.000 C 
ATOM     11  C   UNL     1      15.884   2.575  12.768  0.00  0.00    +0.000 C 
BRANCH  10  12
ATOM     12  O   UNL     1      13.933   2.597  11.380  0.00  0.00    +0.000 OA
ATOM     13  H   UNL     1      13.729   2.496  10.436  0.00  0.00    +0.000 HD
ENDBRANCH  10  12
ENDBRANCH   9  10
ENDBRANCH   1   9
BRANCH   1  14
ATOM     14  C   UNL     1      14.786   0.141   8.873  0.00  0.00    +0.000 C 
BRANCH  14  15
ATOM     15  C   UNL     1      13.257   0.018   8.665  0.00  0.00    +0.000 C 
ATOM     16  C   UNL     1      12.752  -1.417   8.764  0.00  0.00    +0.000 C 
BRANCH  15  17
ATOM     17  O   UNL     1      12.531   0.807   9.606  0.00  0.00    +0.000 OA
ATOM     18  H   UNL     1      12.325   1.638   9.133  0.00  0.00    +0.000 HD
ENDBRANCH  15  17
ENDBRANCH  14  15
ENDBRANCH   1  14
TORSDOF 7
ENDMDL
MODEL 3
REMARK VINA RESULT:    -4.351      0.656      3.235
REMARK INTER + INTRA:          -6.599
REMARK INTER:                  -6.004
REMARK INTRA:                  -0.595
REMARK UNBOUND:                -0.721
REMARK  Name = 
REMARK  10 active torsions:
REMARK  status: ('A' for Active; 'I' for Inactive)
REMARK    1  A    between atoms: C_1  and  C_2
REMARK    2  A    between atoms: C_5  and  N_8
REMARK    3  A    between atoms: N_8  and  C_9
REMARK    4  A    between atoms: N_8  and  C_13
REMARK    5  A    between atoms: C_9  and  C_10
REMARK    6  A    between atoms: C_10  and  C_11
REMARK    7  A    between atoms: C_10  and  O_12
REMARK    8  A    between atoms: C_13  and  C_14
REMARK    9  A    between atoms: C_14  and  C_15
REMARK   10  A    between atoms: C_14  and  O_16
REMARK                            x       y       z     vdW  Elec       q    Type
REMARK                         _______ _______ _______ _____ _____    ______ ____
ROOT
ATOM      1  N   UNL     1      15.614   1.160   8.892  0.00  0.00    +0.000 N 
ENDROOT
BRANCH   1   6
ATOM      2  C   UNL     1      12.197  -3.482   9.216  0.00  0.00    +0.000 C 
ATOM      3  C   UNL     1      13.079  -2.273   9.156  0.00  0.00    +0.000 A 
ATOM      4  C   UNL     1      12.570  -1.035   8.779  0.00  0.00    +0.000 A 
ATOM      5  C   UNL     1      13.407   0.089   8.696  0.00  0.00    +0.000 A 
ATOM      6  C   UNL     1      14.788   0.031   8.958  0.00  0.00    +0.000 A 
ATOM      7  C   UNL     1      15.268  -1.236   9.339  0.00  0.00    +0.000 A 
ATOM      8  C   UNL     1      14.441  -2.368   9.428  0.00  0.00    +0.000 A 
ENDBRANCH   1   6
BRANCH   1   9
ATOM      9  C   UNL     1      16.009   1.866  10.134  0.00  0.00    +0.000 C 
BRANCH   9  10
ATOM     10  C   UNL     1      14.865   1.934  11.175  0.00  0.00    +0.000 C 
ATOM     11  C   UNL     1      15.421   1.985  12.594  0.00  0.00    +0.000 C 
BRANCH  10  12
ATOM     12  O   UNL     1      14.054   3.100  10.974  0.00  0.00    +0.000 OA
ATOM     13  H   UNL     1      13.135   2.810  10.852  0.00  0.00    +0.000 HD
ENDBRANCH  10  12
ENDBRANCH   9  10
ENDBRANCH   1   9
BRANCH   1  14
ATOM     14  C   UNL     1      15.701   1.977   7.654  0.00  0.00    +0.000 C 
BRANCH  14  15
ATOM     15  C   UNL     1      15.184   3.420   7.869  0.00  0.00    +0.000 C 
ATOM     16  C   UNL     1      15.537   4.360   6.723  0.00  0.00    +0.000 C 
BRANCH  15  17
ATOM     17  O   UNL     1      13.768   3.452   8.047  0.00  0.00    +0.000 OA
ATOM     18  H   UNL     1      13.552   4.396   8.184  0.00  0.00    +0.000 HD
ENDBRANCH  15  17
ENDBRANCH  14  15
ENDBRANCH   1  14
TORSDOF 7
ENDMDL
MODEL 4
REMARK VINA RESULT:    -4.200      1.732      4.855
REMARK INTER + INTRA:          -6.394
REMARK INTER:                  -5.916
REMARK INTRA:                  -0.478
REMARK UNBOUND:                -0.721
REMARK  Name = 
REMARK  10 active torsions:
REMARK  status: ('A' for Active; 'I' for Inactive)
REMARK    1  A    between atoms: C_1  and  C_2
REMARK    2  A    between atoms: C_5  and  N_8
REMARK    3  A    between atoms: N_8  and  C_9
REMARK    4  A    between atoms: N_8  and  C_13
REMARK    5  A    between atoms: C_9  and  C_10
REMARK    6  A    between atoms: C_10  and  C_11
REMARK    7  A    between atoms: C_10  and  O_12
REMARK    8  A    between atoms: C_13  and  C_14
REMARK    9  A    between atoms: C_14  and  C_15
REMARK   10  A    between atoms: C_14  and  O_16
REMARK                            x       y       z     vdW  Elec       q    Type
REMARK                         _______ _______ _______ _____ _____    ______ ____
ROOT
ATOM      1  N   UNL     1      15.106   1.828   9.339  0.00  0.00    +0.000 N 
ENDROOT
BRANCH   1   6
ATOM      2  C   UNL     1      15.528   5.276   4.729  0.00  0.00    +0.000 C 
ATOM      3  C   UNL     1      15.405   4.365   5.911  0.00  0.00    +0.000 A 
ATOM      4  C   UNL     1      14.370   4.520   6.828  0.00  0.00    +0.000 A 
ATOM      5  C   UNL     1      14.277   3.682   7.951  0.00  0.00    +0.000 A 
ATOM      6  C   UNL     1      15.216   2.672   8.227  0.00  0.00    +0.000 A 
ATOM      7  C   UNL     1      16.247   2.543   7.279  0.00  0.00    +0.000 A 
ATOM      8  C   UNL     1      16.351   3.373   6.150  0.00  0.00    +0.000 A 
ENDBRANCH   1   6
BRANCH   1   9
ATOM      9  C   UNL     1      13.807   1.190   9.662  0.00  0.00    +0.000 C 
BRANCH   9  10
ATOM     10  C   UNL     1      13.521  -0.060   8.795  0.00  0.00    +0.000 C 
ATOM     11  C   UNL     1      14.340  -1.254   9.271  0.00  0.00    +0.000 C 
BRANCH  10  12
ATOM     12  O   UNL     1      12.134  -0.422   8.855  0.00  0.00    +0.000 OA
ATOM     13  H   UNL     1      12.062  -1.373   8.673  0.00  0.00    +0.000 HD
ENDBRANCH  10  12
ENDBRANCH   9  10
ENDBRANCH   1   9
BRANCH   1  14
ATOM     14  C   UNL     1      16.052   1.931  10.480  0.00  0.00    +0.000 C 
BRANCH  14  15
ATOM     15  C   UNL     1      15.320   2.118  11.831  0.00  0.00    +0.000 C 
ATOM     16  C   UNL     1      15.658   1.037  12.850  0.00  0.00    +0.000 C 
BRANCH  15  17
ATOM     17  O   UNL     1      15.612   3.385  12.418  0.00  0.00    +0.000 OA
ATOM     18  H   UNL     1      14.744   3.740  12.698  0.00  0.00    +0.000 HD
ENDBRANCH  15  17
ENDBRANCH  14  15
ENDBRANCH   1  14
TORSDOF 7
ENDMDL
MODEL 5
REMARK VINA RESULT:    -4.159      8.080     10.508
REMARK INTER + INTRA:          -6.339
REMARK INTER:                  -5.808
REMARK INTRA:                  -0.530
REMARK UNBOUND:                -0.721
REMARK  Name = 
REMARK  10 active torsions:
REMARK  status: ('A' for Active; 'I' for Inactive)
REMARK    1  A    between atoms: C_1  and  C_2
REMARK    2  A    between atoms: C_5  and  N_8
REMARK    3  A    between atoms: N_8  and  C_9
REMARK    4  A    between atoms: N_8  and  C_13
REMARK    5  A    between atoms: C_9  and  C_10
REMARK    6  A    between atoms: C_10  and  C_11
REMARK    7  A    between atoms: C_10  and  O_12
REMARK    8  A    between atoms: C_13  and  C_14
REMARK    9  A    between atoms: C_14  and  C_15
REMARK   10  A    between atoms: C_14  and  O_16
REMARK                            x       y       z     vdW  Elec       q    Type
REMARK                         _______ _______ _______ _____ _____    ______ ____
ROOT
ATOM      1  N   UNL     1      18.259  -2.193   1.379  0.00  0.00    +0.000 N 
ENDROOT
BRANCH   1   6
ATOM      2  C   UNL     1      19.445   3.409   2.111  0.00  0.00    +0.000 C 
ATOM      3  C   UNL     1      19.124   1.961   1.901  0.00  0.00    +0.000 A 
ATOM      4  C   UNL     1      18.027   1.375   2.525  0.00  0.00    +0.000 A 
ATOM      5  C   UNL     1      17.748   0.010   2.348  0.00  0.00    +0.000 A 
ATOM      6  C   UNL     1      18.554  -0.837   1.566  0.00  0.00    +0.000 A 
ATOM      7  C   UNL     1      19.653  -0.210   0.949  0.00  0.00    +0.000 A 
ATOM      8  C   UNL     1      19.942   1.154   1.116  0.00  0.00    +0.000 A 
ENDBRANCH   1   6
BRANCH   1   9
ATOM      9  C   UNL     1      17.981  -3.062   2.548  0.00  0.00    +0.000 C 
BRANCH   9  10
ATOM     10  C   UNL     1      16.603  -3.763   2.460  0.00  0.00    +0.000 C 
ATOM     11  C   UNL     1      16.094  -4.140   3.846  0.00  0.00    +0.000 C 
BRANCH  10  12
ATOM     12  O   UNL     1      15.628  -2.907   1.847  0.00  0.00    +0.000 OA
ATOM     13  H   UNL     1      15.042  -3.459   1.304  0.00  0.00    +0.000 HD
ENDBRANCH  10  12
ENDBRANCH   9  10
ENDBRANCH   1   9
BRANCH   1  14
ATOM     14  C   UNL     1      18.697  -2.913   0.156  0.00  0.00    +0.000 C 
BRANCH  14  15
ATOM     15  C   UNL     1      17.667  -2.794  -0.993  0.00  0.00    +0.000 C 
ATOM     16  C   UNL     1      17.884  -1.566  -1.869  0.00  0.00    +0.000 C 
BRANCH  15  17
ATOM     17  O   UNL     1      17.681  -3.946  -1.835  0.00  0.00    +0.000 OA
ATOM     18  H   UNL     1      16.800  -3.958  -2.262  0.00  0.00    +0.000 HD
ENDBRANCH  15  17
ENDBRANCH  14  15
ENDBRANCH   1  14
TORSDOF 7
ENDMDL
MODEL 6
REMARK VINA RESULT:    -4.132      3.530      6.699
REMARK INTER + INTRA:          -6.303
REMARK INTER:                  -5.975
REMARK INTRA:                  -0.328
REMARK UNBOUND:                -0.721
REMARK  Name = 
REMARK  10 active torsions:
REMARK  status: ('A' for Active; 'I' for Inactive)
REMARK    1  A    between atoms: C_1  and  C_2
REMARK    2  A    between atoms: C_5  and  N_8
REMARK    3  A    between atoms: N_8  and  C_9
REMARK    4  A    between atoms: N_8  and  C_13
REMARK    5  A    between atoms: C_9  and  C_10
REMARK    6  A    between atoms: C_10  and  C_11
REMARK    7  A    between atoms: C_10  and  O_12
REMARK    8  A    between atoms: C_13  and  C_14
REMARK    9  A    between atoms: C_14  and  C_15
REMARK   10  A    between atoms: C_14  and  O_16
REMARK                            x       y       z     vdW  Elec       q    Type
REMARK                         _______ _______ _______ _____ _____    ______ ____
ROOT
ATOM      1  N   UNL     1      15.502   2.385  13.504  0.00  0.00    +0.000 N 
ENDROOT
BRANCH   1   6
ATOM      2  C   UNL     1      13.913   0.941  18.863  0.00  0.00    +0.000 C 
ATOM      3  C   UNL     1      14.328   1.339  17.480  0.00  0.00    +0.000 A 
ATOM      4  C   UNL     1      13.380   1.672  16.519  0.00  0.00    +0.000 A 
ATOM      5  C   UNL     1      13.772   2.016  15.215  0.00  0.00    +0.000 A 
ATOM      6  C   UNL     1      15.117   2.022  14.801  0.00  0.00    +0.000 A 
ATOM      7  C   UNL     1      16.048   1.682  15.799  0.00  0.00    +0.000 A 
ATOM      8  C   UNL     1      15.669   1.338  17.108  0.00  0.00    +0.000 A 
ENDBRANCH   1   6
BRANCH   1   9
ATOM      9  C   UNL     1      15.158   1.514  12.355  0.00  0.00    +0.000 C 
BRANCH   9  10
ATOM     10  C   UNL     1      15.228   2.255  10.998  0.00  0.00    +0.000 C 
ATOM     11  C   UNL     1      15.225   1.268   9.837  0.00  0.00    +0.000 C 
BRANCH  10  12
ATOM     12  O   UNL     1      14.109   3.137  10.834  0.00  0.00    +0.000 OA
ATOM     13  H   UNL     1      13.397   2.642  10.397  0.00  0.00    +0.000 HD
ENDBRANCH  10  12
ENDBRANCH   9  10
ENDBRANCH   1   9
BRANCH   1  14
ATOM     14  C   UNL     1      16.647   3.302  13.271  0.00  0.00    +0.000 C 
BRANCH  14  15
ATOM     15  C   UNL     1      16.534   4.601  14.106  0.00  0.00    +0.000 C 
ATOM     16  C   UNL     1      17.881   5.269  14.360  0.00  0.00    +0.000 C 
BRANCH  15  17
ATOM     17  O   UNL     1      15.678   5.556  13.482  0.00  0.00    +0.000 OA
ATOM     18  H   UNL     1      14.886   5.598  14.055  0.00  0.00    +0.000 HD
ENDBRANCH  15  17
ENDBRANCH  14  15
ENDBRANCH   1  14
TORSDOF 7
ENDMDL
MODEL 7
REMARK VINA RESULT:    -4.053      7.341      9.883
REMARK INTER + INTRA:          -6.197
REMARK INTER:                  -5.487
REMARK INTRA:                  -0.710
REMARK UNBOUND:                -0.721
REMARK  Name = 
REMARK  10 active torsions:
REMARK  status: ('A' for Active; 'I' for Inactive)
REMARK    1  A    between atoms: C_1  and  C_2
REMARK    2  A    between atoms: C_5  and  N_8
REMARK    3  A    between atoms: N_8  and  C_9
REMARK    4  A    between atoms: N_8  and  C_13
REMARK    5  A    between atoms: C_9  and  C_10
REMARK    6  A    between atoms: C_10  and  C_11
REMARK    7  A    between atoms: C_10  and  O_12
REMARK    8  A    between atoms: C_13  and  C_14
REMARK    9  A    between atoms: C_14  and  C_15
REMARK   10  A    between atoms: C_14  and  O_16
REMARK                            x       y       z     vdW  Elec       q    Type
REMARK                         _______ _______ _______ _____ _____    ______ ____
ROOT
ATOM      1  N   UNL     1      18.106  -0.877   1.388  0.00  0.00    +0.000 N 
ENDROOT
BRANCH   1   6
ATOM      2  C   UNL     1      17.849   4.520   3.422  0.00  0.00    +0.000 C 
ATOM      3  C   UNL     1      17.926   3.112   2.916  0.00  0.00    +0.000 A 
ATOM      4  C   UNL     1      19.039   2.665   2.212  0.00  0.00    +0.000 A 
ATOM      5  C   UNL     1      19.093   1.353   1.714  0.00  0.00    +0.000 A 
ATOM      6  C   UNL     1      18.038   0.436   1.871  0.00  0.00    +0.000 A 
ATOM      7  C   UNL     1      16.930   0.921   2.589  0.00  0.00    +0.000 A 
ATOM      8  C   UNL     1      16.864   2.229   3.095  0.00  0.00    +0.000 A 
ENDBRANCH   1   6
BRANCH   1   9
ATOM      9  C   UNL     1      17.925  -2.020   2.315  0.00  0.00    +0.000 C 
BRANCH   9  10
ATOM     10  C   UNL     1      16.832  -3.010   1.841  0.00  0.00    +0.000 C 
ATOM     11  C   UNL     1      16.468  -3.991   2.949  0.00  0.00    +0.000 C 
BRANCH  10  12
ATOM     12  O   UNL     1      15.640  -2.313   1.455  0.00  0.00    +0.000 OA
ATOM     13  H   UNL     1      15.839  -1.363   1.434  0.00  0.00    +0.000 HD
ENDBRANCH  10  12
ENDBRANCH   9  10
ENDBRANCH   1   9
BRANCH   1  14
ATOM     14  C   UNL     1      18.837  -1.199   0.136  0.00  0.00    +0.000 C 
BRANCH  14  15
ATOM     15  C   UNL     1      17.901  -1.223  -1.097  0.00  0.00    +0.000 C 
ATOM     16  C   UNL     1      17.683  -2.623  -1.657  0.00  0.00    +0.000 C 
BRANCH  15  17
ATOM     17  O   UNL     1      16.623  -0.662  -0.800  0.00  0.00    +0.000 OA
ATOM     18  H   UNL     1      16.241  -1.250  -0.118  0.00  0.00    +0.000 HD
ENDBRANCH  15  17
ENDBRANCH  14  15
ENDBRANCH   1  14
TORSDOF 7
ENDMDL
MODEL 8
REMARK VINA RESULT:    -4.002      3.964      6.191
REMARK INTER + INTRA:          -6.127
REMARK INTER:                  -5.695
REMARK INTRA:                  -0.432
REMARK UNBOUND:                -0.721
REMARK  Name = 
REMARK  10 active torsions:
REMARK  status: ('A' for Active; 'I' for Inactive)
REMARK    1  A    between atoms: C_1  and  C_2
REMARK    2  A    between atoms: C_5  and  N_8
REMARK    3  A    between atoms: N_8  and  C_9
REMARK    4  A    between atoms: N_8  and  C_13
REMARK    5  A    between atoms: C_9  and  C_10
REMARK    6  A    between atoms: C_10  and  C_11
REMARK    7  A    between atoms: C_10  and  O_12
REMARK    8  A    between atoms: C_13  and  C_14
REMARK    9  A    between atoms: C_14  and  C_15
REMARK   10  A    between atoms: C_14  and  O_16
REMARK                            x       y       z     vdW  Elec       q    Type
REMARK                         _______ _______ _______ _____ _____    ______ ____
ROOT
ATOM      1  N   UNL     1      16.386   4.912   5.131  0.00  0.00    +0.000 N 
ENDROOT
BRANCH   1   6
ATOM      2  C   UNL     1      14.309   1.875   9.579  0.00  0.00    +0.000 C 
ATOM      3  C   UNL     1      14.835   2.648   8.409  0.00  0.00    +0.000 A 
ATOM      4  C   UNL     1      16.036   2.297   7.802  0.00  0.00    +0.000 A 
ATOM      5  C   UNL     1      16.539   3.044   6.724  0.00  0.00    +0.000 A 
ATOM      6  C   UNL     1      15.888   4.183   6.218  0.00  0.00    +0.000 A 
ATOM      7  C   UNL     1      14.676   4.508   6.854  0.00  0.00    +0.000 A 
ATOM      8  C   UNL     1      14.160   3.768   7.931  0.00  0.00    +0.000 A 
ENDBRANCH   1   6
BRANCH   1   9
ATOM      9  C   UNL     1      17.487   4.358   4.306  0.00  0.00    +0.000 C 
BRANCH   9  10
ATOM     10  C   UNL     1      16.998   3.812   2.942  0.00  0.00    +0.000 C 
ATOM     11  C   UNL     1      15.620   3.174   3.072  0.00  0.00    +0.000 C 
BRANCH  10  12
ATOM     12  O   UNL     1      16.911   4.862   1.968  0.00  0.00    +0.000 OA
ATOM     13  H   UNL     1      15.989   4.917   1.666  0.00  0.00    +0.000 HD
ENDBRANCH  10  12
ENDBRANCH   9  10
ENDBRANCH   1   9
BRANCH   1  14
ATOM     14  C   UNL     1      16.236   6.388   5.061  0.00  0.00    +0.000 C 
BRANCH  14  15
ATOM     15  C   UNL     1      17.602   7.114   5.032  0.00  0.00    +0.000 C 
ATOM     16  C   UNL     1      17.628   8.307   4.084  0.00  0.00    +0.000 C 
BRANCH  15  17
ATOM     17  O   UNL     1      17.984   7.571   6.328  0.00  0.00    +0.000 OA
ATOM     18  H   UNL     1      18.114   8.536   6.228  0.00  0.00    +0.000 HD
ENDBRANCH  15  17
ENDBRANCH  14  15
ENDBRANCH   1  14
TORSDOF 7
ENDMDL
MODEL 9
REMARK VINA RESULT:    -3.948      6.717      8.345
REMARK INTER + INTRA:          -6.054
REMARK INTER:                  -5.295
REMARK INTRA:                  -0.760
REMARK UNBOUND:                -0.721
REMARK  Name = 
REMARK  10 active torsions:
REMARK  status: ('A' for Active; 'I' for Inactive)
REMARK    1  A    between atoms: C_1  and  C_2
REMARK    2  A    between atoms: C_5  and  N_8
REMARK    3  A    between atoms: N_8  and  C_9
REMARK    4  A    between atoms: N_8  and  C_13
REMARK    5  A    between atoms: C_9  and  C_10
REMARK    6  A    between atoms: C_10  and  C_11
REMARK    7  A    between atoms: C_10  and  O_12
REMARK    8  A    between atoms: C_13  and  C_14
REMARK    9  A    between atoms: C_14  and  C_15
REMARK   10  A    between atoms: C_14  and  O_16
REMARK                            x       y       z     vdW  Elec       q    Type
REMARK                         _______ _______ _______ _____ _____    ______ ____
ROOT
ATOM      1  N   UNL     1      18.335   5.580   3.955  0.00  0.00    +0.000 N 
ENDROOT
BRANCH   1   6
ATOM      2  C   UNL     1      12.872   4.248   5.262  0.00  0.00    +0.000 C 
ATOM      3  C   UNL     1      14.297   4.573   4.933  0.00  0.00    +0.000 A 
ATOM      4  C   UNL     1      15.075   5.334   5.800  0.00  0.00    +0.000 A 
ATOM      5  C   UNL     1      16.401   5.660   5.473  0.00  0.00    +0.000 A 
ATOM      6  C   UNL     1      17.006   5.268   4.266  0.00  0.00    +0.000 A 
ATOM      7  C   UNL     1      16.192   4.498   3.415  0.00  0.00    +0.000 A 
ATOM      8  C   UNL     1      14.865   4.163   3.730  0.00  0.00    +0.000 A 
ENDBRANCH   1   6
BRANCH   1   9
ATOM      9  C   UNL     1      19.350   4.503   3.863  0.00  0.00    +0.000 C 
BRANCH   9  10
ATOM     10  C   UNL     1      19.757   4.186   2.403  0.00  0.00    +0.000 C 
ATOM     11  C   UNL     1      19.419   2.744   2.044  0.00  0.00    +0.000 C 
BRANCH  10  12
ATOM     12  O   UNL     1      19.073   5.045   1.479  0.00  0.00    +0.000 OA
ATOM     13  H   UNL     1      18.117   4.929   1.611  0.00  0.00    +0.000 HD
ENDBRANCH  10  12
ENDBRANCH   9  10
ENDBRANCH   1   9
BRANCH   1  14
ATOM     14  C   UNL     1      18.886   6.937   4.209  0.00  0.00    +0.000 C 
BRANCH  14  15
ATOM     15  C   UNL     1      18.317   7.991   3.229  0.00  0.00    +0.000 C 
ATOM     16  C   UNL     1      18.452   9.420   3.740  0.00  0.00    +0.000 C 
BRANCH  15  17
ATOM     17  O   UNL     1      18.948   7.917   1.951  0.00  0.00    +0.000 OA
ATOM     18  H   UNL     1      19.714   7.323   2.081  0.00  0.00    +0.000 HD
ENDBRANCH  15  17
ENDBRANCH  14  15
ENDBRANCH   1  14
TORSDOF 7
ENDMDL
