MODEL 1
REMARK VINA RESULT:    -4.128      0.000      0.000
REMARK INTER + INTRA:          -4.542
REMARK INTER:                  -4.490
REMARK INTRA:                  -0.052
REMARK UNBOUND:                -0.052
REMARK  Name = 
REMARK  3 active torsions:
REMARK  status: ('A' for Active; 'I' for Inactive)
REMARK    1  A    between atoms: C_1  and  O_2
REMARK    2  A    between atoms: O_2  and  C_3
REMARK    3  A    between atoms: C_8  and  O_9
REMARK                            x       y       z     vdW  Elec       q    Type
REMARK                         _______ _______ _______ _____ _____    ______ ____
ROOT
ATOM      1  C   UNL     1      -8.503   6.236 -17.133  0.00  0.00    +0.000 A 
ATOM      2  C   UNL     1      -9.123   6.730 -15.986  0.00  0.00    +0.000 A 
ATOM      3  C   UNL     1      -9.681   8.014 -15.991  0.00  0.00    +0.000 A 
ATOM      4  C   UNL     1      -9.622   8.808 -17.138  0.00  0.00    +0.000 A 
ATOM      5  C   UNL     1      -9.005   8.320 -18.288  0.00  0.00    +0.000 A 
ATOM      6  C   UNL     1      -8.453   7.046 -18.274  0.00  0.00    +0.000 A 
ENDROOT
BRANCH   1   8
ATOM      7  C   UNL     1      -8.771   3.874 -17.132  0.00  0.00    +0.000 C 
ATOM      8  O   UNL     1      -7.916   5.003 -17.270  0.00  0.00    +0.000 OA
ENDBRANCH   1   8
BRANCH   6   9
ATOM      9  O   UNL     1      -7.852   6.589 -19.416  0.00  0.00    +0.000 OA
ATOM     10  H   UNL     1      -8.489   5.953 -19.795  0.00  0.00    +0.000 HD
ENDBRANCH   6   9
TORSDOF 2
ENDMDL
MODEL 2
REMARK VINA RESULT:    -4.103      1.422      2.372
REMARK INTER + INTRA:          -4.515
REMARK INTER:                  -4.464
REMARK INTRA:                  -0.052
REMARK UNBOUND:                -0.052
REMARK  Name = 
REMARK  3 active torsions:
REMARK  status: ('A' for Active; 'I' for Inactive)
REMARK    1  A    between atoms: C_1  and  O_2
REMARK    2  A    between atoms: O_2  and  C_3
REMARK    3  A    between atoms: C_8  and  O_9
REMARK                            x       y       z     vdW  Elec       q    Type
REMARK                         _______ _______ _______ _____ _____    ______ ____
ROOT
ATOM      1  C   UNL     1      -8.979   7.165 -16.885  0.00  0.00    +0.000 A 
ATOM      2  C   UNL     1      -9.492   8.431 -17.166  0.00  0.00    +0.000 A 
ATOM      3  C   UNL     1      -9.138   9.082 -18.354  0.00  0.00    +0.000 A 
ATOM      4  C   UNL     1      -8.273   8.472 -19.264  0.00  0.00    +0.000 A 
ATOM      5  C   UNL     1      -7.757   7.207 -18.991  0.00  0.00    +0.000 A 
ATOM      6  C   UNL     1      -8.113   6.570 -17.810  0.00  0.00    +0.000 A 
ENDROOT
BRANCH   1   8
ATOM      7  C   UNL     1      -8.892   7.000 -14.516  0.00  0.00    +0.000 C 
ATOM      8  O   UNL     1      -9.238   6.415 -15.766  0.00  0.00    +0.000 OA
ENDBRANCH   1   8
BRANCH   6   9
ATOM      9  O   UNL     1      -7.592   5.327 -17.564  0.00  0.00    +0.000 OA
ATOM     10  H   UNL     1      -6.675   5.372 -17.894  0.00  0.00    +0.000 HD
ENDBRANCH   6   9
TORSDOF 2
ENDMDL
MODEL 3
REMARK VINA RESULT:    -3.909      2.074      3.543
REMARK INTER + INTRA:          -4.304
REMARK INTER:                  -4.255
REMARK INTRA:                  -0.048
REMARK UNBOUND:                -0.052
REMARK  Name = 
REMARK  3 active torsions:
REMARK  status: ('A' for Active; 'I' for Inactive)
REMARK    1  A    between atoms: C_1  and  O_2
REMARK    2  A    between atoms: O_2  and  C_3
REMARK    3  A    between atoms: C_8  and  O_9
REMARK                            x       y       z     vdW  Elec       q    Type
REMARK                         _______ _______ _______ _____ _____    ______ ____
ROOT
ATOM      1  C   UNL     1      -9.908   7.634 -15.600  0.00  0.00    +0.000 A 
ATOM      2  C   UNL     1      -9.896   8.629 -16.576  0.00  0.00    +0.000 A 
ATOM      3  C   UNL     1      -9.202   8.425 -17.775  0.00  0.00    +0.000 A 
ATOM      4  C   UNL     1      -8.519   7.229 -18.003  0.00  0.00    +0.000 A 
ATOM      5  C   UNL     1      -8.526   6.229 -17.032  0.00  0.00    +0.000 A 
ATOM      6  C   UNL     1      -9.216   6.441 -15.846  0.00  0.00    +0.000 A 
ENDROOT
BRANCH   1   8
ATOM      7  C   UNL     1     -11.907   8.096 -14.401  0.00  0.00    +0.000 C 
ATOM      8  O   UNL     1     -10.541   7.697 -14.385  0.00  0.00    +0.000 OA
ENDBRANCH   1   8
BRANCH   6   9
ATOM      9  O   UNL     1      -9.209   5.444 -14.907  0.00  0.00    +0.000 OA
ATOM     10  H   UNL     1      -8.825   5.857 -14.109  0.00  0.00    +0.000 HD
ENDBRANCH   6   9
TORSDOF 2
ENDMDL
MODEL 4
REMARK VINA RESULT:    -3.880      1.498      3.425
REMARK INTER + INTRA:          -4.273
REMARK INTER:                  -4.221
REMARK INTRA:                  -0.052
REMARK UNBOUND:                -0.052
REMARK  Name = 
REMARK  3 active torsions:
REMARK  status: ('A' for Active; 'I' for Inactive)
REMARK    1  A    between atoms: C_1  and  O_2
REMARK    2  A    between atoms: O_2  and  C_3
REMARK    3  A    between atoms: C_8  and  O_9
REMARK                            x       y       z     vdW  Elec       q    Type
REMARK                         _______ _______ _______ _____ _____    ______ ____
ROOT
ATOM      1  C   UNL     1      -9.233   6.137 -16.475  0.00  0.00    +0.000 A 
ATOM      2  C   UNL     1     -10.341   5.660 -15.775  0.00  0.00    +0.000 A 
ATOM      3  C   UNL     1     -10.649   4.294 -15.800  0.00  0.00    +0.000 A 
ATOM      4  C   UNL     1      -9.856   3.403 -16.524  0.00  0.00    +0.000 A 
ATOM      5  C   UNL     1      -8.747   3.872 -17.226  0.00  0.00    +0.000 A 
ATOM      6  C   UNL     1      -8.449   5.228 -17.195  0.00  0.00    +0.000 A 
ENDROOT
BRANCH   1   8
ATOM      7  C   UNL     1      -9.747   8.382 -17.060  0.00  0.00    +0.000 C 
ATOM      8  O   UNL     1      -8.815   7.442 -16.539  0.00  0.00    +0.000 OA
ENDBRANCH   1   8
BRANCH   6   9
ATOM      9  O   UNL     1      -7.355   5.665 -17.893  0.00  0.00    +0.000 OA
ATOM     10  H   UNL     1      -6.865   6.225 -17.262  0.00  0.00    +0.000 HD
ENDBRANCH   6   9
TORSDOF 2
ENDMDL
MODEL 5
REMARK VINA RESULT:    -3.865      1.618      3.002
REMARK INTER + INTRA:          -4.256
REMARK INTER:                  -4.206
REMARK INTRA:                  -0.050
REMARK UNBOUND:                -0.052
REMARK  Name = 
REMARK  3 active torsions:
REMARK  status: ('A' for Active; 'I' for Inactive)
REMARK    1  A    between atoms: C_1  and  O_2
REMARK    2  A    between atoms: O_2  and  C_3
REMARK    3  A    between atoms: C_8  and  O_9
REMARK                            x       y       z     vdW  Elec       q    Type
REMARK                         _______ _______ _______ _____ _____    ______ ____
ROOT
ATOM      1  C   UNL     1      -9.238   7.002 -16.371  0.00  0.00    +0.000 A 
ATOM      2  C   UNL     1      -9.804   8.272 -16.470  0.00  0.00    +0.000 A 
ATOM      3  C   UNL     1     -10.979   8.571 -15.769  0.00  0.00    +0.000 A 
ATOM      4  C   UNL     1     -11.592   7.604 -14.970  0.00  0.00    +0.000 A 
ATOM      5  C   UNL     1     -11.032   6.333 -14.865  0.00  0.00    +0.000 A 
ATOM      6  C   UNL     1      -9.866   6.045 -15.564  0.00  0.00    +0.000 A 
ENDROOT
BRANCH   1   8
ATOM      7  C   UNL     1      -8.045   6.742 -18.410  0.00  0.00    +0.000 C 
ATOM      8  O   UNL     1      -8.096   6.572 -16.998  0.00  0.00    +0.000 OA
ENDBRANCH   1   8
BRANCH   6   9
ATOM      9  O   UNL     1      -9.335   4.789 -15.446  0.00  0.00    +0.000 OA
ATOM     10  H   UNL     1      -9.685   4.298 -16.214  0.00  0.00    +0.000 HD
ENDBRANCH   6   9
TORSDOF 2
ENDMDL
MODEL 6
REMARK VINA RESULT:    -3.781      2.576      3.658
REMARK INTER + INTRA:          -4.165
REMARK INTER:                  -4.126
REMARK INTRA:                  -0.039
REMARK UNBOUND:                -0.052
REMARK  Name = 
REMARK  3 active torsions:
REMARK  status: ('A' for Active; 'I' for Inactive)
REMARK    1  A    between atoms: C_1  and  O_2
REMARK    2  A    between atoms: O_2  and  C_3
REMARK    3  A    between atoms: C_8  and  O_9
REMARK                            x       y       z     vdW  Elec       q    Type
REMARK                         _______ _______ _______ _____ _____    ______ ____
ROOT
ATOM      1  C   UNL     1      -9.600   6.161 -15.489  0.00  0.00    +0.000 A 
ATOM      2  C   UNL     1     -10.795   5.458 -15.638  0.00  0.00    +0.000 A 
ATOM      3  C   UNL     1     -11.793   5.559 -14.661  0.00  0.00    +0.000 A 
ATOM      4  C   UNL     1     -11.602   6.360 -13.534  0.00  0.00    +0.000 A 
ATOM      5  C   UNL     1     -10.411   7.066 -13.377  0.00  0.00    +0.000 A 
ATOM      6  C   UNL     1      -9.427   6.960 -14.351  0.00  0.00    +0.000 A 
ENDROOT
BRANCH   1   8
ATOM      7  C   UNL     1      -8.429   5.026 -17.217  0.00  0.00    +0.000 C 
ATOM      8  O   UNL     1      -8.541   6.156 -16.361  0.00  0.00    +0.000 OA
ENDBRANCH   1   8
BRANCH   6   9
ATOM      9  O   UNL     1      -8.265   7.663 -14.175  0.00  0.00    +0.000 OA
ATOM     10  H   UNL     1      -7.556   6.997 -14.257  0.00  0.00    +0.000 HD
ENDBRANCH   6   9
TORSDOF 2
ENDMDL
MODEL 7
REMARK VINA RESULT:    -3.778      2.611      3.664
REMARK INTER + INTRA:          -4.162
REMARK INTER:                  -4.111
REMARK INTRA:                  -0.051
REMARK UNBOUND:                -0.052
REMARK  Name = 
REMARK  3 active torsions:
REMARK  status: ('A' for Active; 'I' for Inactive)
REMARK    1  A    between atoms: C_1  and  O_2
REMARK    2  A    between atoms: O_2  and  C_3
REMARK    3  A    between atoms: C_8  and  O_9
REMARK                            x       y       z     vdW  Elec       q    Type
REMARK                         _______ _______ _______ _____ _____    ______ ____
ROOT
ATOM      1  C   UNL     1      -9.728   8.053 -16.045  0.00  0.00    +0.000 A 
ATOM      2  C   UNL     1      -8.885   7.544 -15.058  0.00  0.00    +0.000 A 
ATOM      3  C   UNL     1      -9.392   7.260 -13.783  0.00  0.00    +0.000 A 
ATOM      4  C   UNL     1     -10.739   7.484 -13.491  0.00  0.00    +0.000 A 
ATOM      5  C   UNL     1     -11.587   7.993 -14.473  0.00  0.00    +0.000 A 
ATOM      6  C   UNL     1     -11.075   8.271 -15.734  0.00  0.00    +0.000 A 
ENDROOT
BRANCH   1   8
ATOM      7  C   UNL     1      -8.782   7.337 -18.104  0.00  0.00    +0.000 C 
ATOM      8  O   UNL     1      -9.369   8.376 -17.329  0.00  0.00    +0.000 OA
ENDBRANCH   1   8
BRANCH   6   9
ATOM      9  O   UNL     1     -11.928   8.770 -16.682  0.00  0.00    +0.000 OA
ATOM     10  H   UNL     1     -11.349   9.040 -17.420  0.00  0.00    +0.000 HD
ENDBRANCH   6   9
TORSDOF 2
ENDMDL
MODEL 8
REMARK VINA RESULT:    -3.649      2.252      3.042
REMARK INTER + INTRA:          -4.021
REMARK INTER:                  -3.971
REMARK INTRA:                  -0.050
REMARK UNBOUND:                -0.052
REMARK  Name = 
REMARK  3 active torsions:
REMARK  status: ('A' for Active; 'I' for Inactive)
REMARK    1  A    between atoms: C_1  and  O_2
REMARK    2  A    between atoms: O_2  and  C_3
REMARK    3  A    between atoms: C_8  and  O_9
REMARK                            x       y       z     vdW  Elec       q    Type
REMARK                         _______ _______ _______ _____ _____    ______ ____
ROOT
ATOM      1  C   UNL     1      -9.309   7.214 -16.212  0.00  0.00    +0.000 A 
ATOM      2  C   UNL     1      -8.345   6.499 -16.923  0.00  0.00    +0.000 A 
ATOM      3  C   UNL     1      -7.951   6.932 -18.195  0.00  0.00    +0.000 A 
ATOM      4  C   UNL     1      -8.518   8.075 -18.761  0.00  0.00    +0.000 A 
ATOM      5  C   UNL     1      -9.481   8.794 -18.057  0.00  0.00    +0.000 A 
ATOM      6  C   UNL     1      -9.866   8.358 -16.796  0.00  0.00    +0.000 A 
ENDROOT
BRANCH   1   8
ATOM      7  C   UNL     1      -8.901   7.122 -13.873  0.00  0.00    +0.000 C 
ATOM      8  O   UNL     1      -9.789   6.908 -14.964  0.00  0.00    +0.000 OA
ENDBRANCH   1   8
BRANCH   6   9
ATOM      9  O   UNL     1     -10.815   9.081 -16.123  0.00  0.00    +0.000 OA
ATOM     10  H   UNL     1     -10.484  10.000 -16.139  0.00  0.00    +0.000 HD
ENDBRANCH   6   9
TORSDOF 2
ENDMDL
MODEL 9
REMARK VINA RESULT:    -3.158      1.039      2.746
REMARK INTER + INTRA:          -3.488
REMARK INTER:                  -3.441
REMARK INTRA:                  -0.047
REMARK UNBOUND:                -0.052
REMARK  Name = 
REMARK  3 active torsions:
REMARK  status: ('A' for Active; 'I' for Inactive)
REMARK    1  A    between atoms: C_1  and  O_2
REMARK    2  A    between atoms: O_2  and  C_3
REMARK    3  A    between atoms: C_8  and  O_9
REMARK                            x       y       z     vdW  Elec       q    Type
REMARK                         _______ _______ _______ _____ _____    ______ ____
ROOT
ATOM      1  C   UNL     1      -8.785   7.484 -17.882  0.00  0.00    +0.000 A 
ATOM      2  C   UNL     1      -9.577   8.509 -17.365  0.00  0.00    +0.000 A 
ATOM      3  C   UNL     1     -10.051   8.430 -16.050  0.00  0.00    +0.000 A 
ATOM      4  C   UNL     1      -9.738   7.331 -15.248  0.00  0.00    +0.000 A 
ATOM      5  C   UNL     1      -8.947   6.304 -15.758  0.00  0.00    +0.000 A 
ATOM      6  C   UNL     1      -8.481   6.389 -17.063  0.00  0.00    +0.000 A 
ENDROOT
BRANCH   1   8
ATOM      7  C   UNL     1      -7.164   8.300 -19.416  0.00  0.00    +0.000 C 
ATOM      8  O   UNL     1      -8.255   7.428 -19.146  0.00  0.00    +0.000 OA
ENDBRANCH   1   8
BRANCH   6   9
ATOM      9  O   UNL     1      -7.705   5.367 -17.542  0.00  0.00    +0.000 OA
ATOM     10  H   UNL     1      -8.342   4.692 -17.844  0.00  0.00    +0.000 HD
ENDBRANCH   6   9
TORSDOF 2
ENDMDL
