MODEL 1
REMARK VINA RESULT:    -4.111      0.000      0.000
REMARK INTER + INTRA:          -4.509
REMARK INTER:                  -4.471
REMARK INTRA:                  -0.038
REMARK UNBOUND:                -0.038
REMARK  Name = 
REMARK  3 active torsions:
REMARK  status: ('A' for Active; 'I' for Inactive)
REMARK    1  A    between atoms: C_1  and  O_2
REMARK    2  A    between atoms: O_2  and  C_3
REMARK    3  A    between atoms: C_8  and  O_9
REMARK                            x       y       z     vdW  Elec       q    Type
REMARK                         _______ _______ _______ _____ _____    ______ ____
ROOT
ATOM      1  C   UNL     1       2.652  11.794 -16.497  0.00  0.00    +0.000 A 
ATOM      2  C   UNL     1       1.692  11.355 -17.408  0.00  0.00    +0.000 A 
ATOM      3  C   UNL     1       0.637  10.542 -16.976  0.00  0.00    +0.000 A 
ATOM      4  C   UNL     1       0.537  10.165 -15.635  0.00  0.00    +0.000 A 
ATOM      5  C   UNL     1       1.492  10.600 -14.719  0.00  0.00    +0.000 A 
ATOM      6  C   UNL     1       2.535  11.406 -15.157  0.00  0.00    +0.000 A 
ENDROOT
BRANCH   1   8
ATOM      7  C   UNL     1       3.705  13.282 -18.021  0.00  0.00    +0.000 C 
ATOM      8  O   UNL     1       3.733  12.590 -16.779  0.00  0.00    +0.000 OA
ENDBRANCH   1   8
BRANCH   6   9
ATOM      9  O   UNL     1       3.462  11.821 -14.238  0.00  0.00    +0.000 OA
ATOM     10  H   UNL     1       2.934  12.167 -13.492  0.00  0.00    +0.000 HD
ENDBRANCH   6   9
TORSDOF 2
ENDMDL
MODEL 2
REMARK VINA RESULT:    -3.992      2.243      3.019
REMARK INTER + INTRA:          -4.381
REMARK INTER:                  -4.338
REMARK INTRA:                  -0.042
REMARK UNBOUND:                -0.038
REMARK  Name = 
REMARK  3 active torsions:
REMARK  status: ('A' for Active; 'I' for Inactive)
REMARK    1  A    between atoms: C_1  and  O_2
REMARK    2  A    between atoms: O_2  and  C_3
REMARK    3  A    between atoms: C_8  and  O_9
REMARK                            x       y       z     vdW  Elec       q    Type
REMARK                         _______ _______ _______ _____ _____    ______ ____
ROOT
ATOM      1  C   UNL     1       0.897  11.144 -16.490  0.00  0.00    +0.000 A 
ATOM      2  C   UNL     1       2.050  11.798 -16.920  0.00  0.00    +0.000 A 
ATOM      3  C   UNL     1       3.165  11.877 -16.076  0.00  0.00    +0.000 A 
ATOM      4  C   UNL     1       3.132  11.306 -14.803  0.00  0.00    +0.000 A 
ATOM      5  C   UNL     1       1.983  10.651 -14.366  0.00  0.00    +0.000 A 
ATOM      6  C   UNL     1       0.881  10.577 -15.209  0.00  0.00    +0.000 A 
ENDROOT
BRANCH   1   8
ATOM      7  C   UNL     1      -0.624  12.064 -18.067  0.00  0.00    +0.000 C 
ATOM      8  O   UNL     1      -0.264  10.991 -17.205  0.00  0.00    +0.000 OA
ENDBRANCH   1   8
BRANCH   6   9
ATOM      9  O   UNL     1      -0.236   9.928 -14.757  0.00  0.00    +0.000 OA
ATOM     10  H   UNL     1      -0.807  10.635 -14.400  0.00  0.00    +0.000 HD
ENDBRANCH   6   9
TORSDOF 2
ENDMDL
MODEL 3
REMARK VINA RESULT:    -3.931     13.446     14.718
REMARK INTER + INTRA:          -4.314
REMARK INTER:                  -4.268
REMARK INTRA:                  -0.045
REMARK UNBOUND:                -0.038
REMARK  Name = 
REMARK  3 active torsions:
REMARK  status: ('A' for Active; 'I' for Inactive)
REMARK    1  A    between atoms: C_1  and  O_2
REMARK    2  A    between atoms: O_2  and  C_3
REMARK    3  A    between atoms: C_8  and  O_9
REMARK                            x       y       z     vdW  Elec       q    Type
REMARK                         _______ _______ _______ _____ _____    ______ ____
ROOT
ATOM      1  C   UNL     1       0.853  18.956  -3.488  0.00  0.00    +0.000 A 
ATOM      2  C   UNL     1       2.075  19.129  -2.839  0.00  0.00    +0.000 A 
ATOM      3  C   UNL     1       3.265  18.760  -3.478  0.00  0.00    +0.000 A 
ATOM      4  C   UNL     1       3.239  18.219  -4.765  0.00  0.00    +0.000 A 
ATOM      5  C   UNL     1       2.023  18.044  -5.420  0.00  0.00    +0.000 A 
ATOM      6  C   UNL     1       0.847  18.412  -4.778  0.00  0.00    +0.000 A 
ENDROOT
BRANCH   1   8
ATOM      7  C   UNL     1      -0.623  18.925  -1.626  0.00  0.00    +0.000 C 
ATOM      8  O   UNL     1      -0.384  19.270  -2.985  0.00  0.00    +0.000 OA
ENDBRANCH   1   8
BRANCH   6   9
ATOM      9  O   UNL     1      -0.337  18.231  -5.443  0.00  0.00    +0.000 OA
ATOM     10  H   UNL     1      -0.210  18.678  -6.302  0.00  0.00    +0.000 HD
ENDBRANCH   6   9
TORSDOF 2
ENDMDL
MODEL 4
REMARK VINA RESULT:    -3.739     13.766     14.902
REMARK INTER + INTRA:          -4.105
REMARK INTER:                  -4.054
REMARK INTRA:                  -0.052
REMARK UNBOUND:                -0.038
REMARK  Name = 
REMARK  3 active torsions:
REMARK  status: ('A' for Active; 'I' for Inactive)
REMARK    1  A    between atoms: C_1  and  O_2
REMARK    2  A    between atoms: O_2  and  C_3
REMARK    3  A    between atoms: C_8  and  O_9
REMARK                            x       y       z     vdW  Elec       q    Type
REMARK                         _______ _______ _______ _____ _____    ______ ____
ROOT
ATOM      1  C   UNL     1       2.371  18.466  -2.741  0.00  0.00    +0.000 A 
ATOM      2  C   UNL     1       1.245  19.123  -2.247  0.00  0.00    +0.000 A 
ATOM      3  C   UNL     1       0.160  19.384  -3.093  0.00  0.00    +0.000 A 
ATOM      4  C   UNL     1       0.197  18.991  -4.432  0.00  0.00    +0.000 A 
ATOM      5  C   UNL     1       1.318  18.334  -4.933  0.00  0.00    +0.000 A 
ATOM      6  C   UNL     1       2.390  18.079  -4.087  0.00  0.00    +0.000 A 
ENDROOT
BRANCH   1   8
ATOM      7  C   UNL     1       4.332  19.233  -1.639  0.00  0.00    +0.000 C 
ATOM      8  O   UNL     1       3.501  18.147  -2.031  0.00  0.00    +0.000 OA
ENDBRANCH   1   8
BRANCH   6   9
ATOM      9  O   UNL     1       3.481  17.432  -4.602  0.00  0.00    +0.000 OA
ATOM     10  H   UNL     1       3.348  17.451  -5.569  0.00  0.00    +0.000 HD
ENDBRANCH   6   9
TORSDOF 2
ENDMDL
MODEL 5
REMARK VINA RESULT:    -3.698     13.481     14.734
REMARK INTER + INTRA:          -4.061
REMARK INTER:                  -4.023
REMARK INTRA:                  -0.038
REMARK UNBOUND:                -0.038
REMARK  Name = 
REMARK  3 active torsions:
REMARK  status: ('A' for Active; 'I' for Inactive)
REMARK    1  A    between atoms: C_1  and  O_2
REMARK    2  A    between atoms: O_2  and  C_3
REMARK    3  A    between atoms: C_8  and  O_9
REMARK                            x       y       z     vdW  Elec       q    Type
REMARK                         _______ _______ _______ _____ _____    ______ ____
ROOT
ATOM      1  C   UNL     1       3.895  18.927  -3.371  0.00  0.00    +0.000 A 
ATOM      2  C   UNL     1       4.561  20.060  -3.837  0.00  0.00    +0.000 A 
ATOM      3  C   UNL     1       4.440  20.440  -5.180  0.00  0.00    +0.000 A 
ATOM      4  C   UNL     1       3.655  19.692  -6.059  0.00  0.00    +0.000 A 
ATOM      5  C   UNL     1       2.986  18.559  -5.601  0.00  0.00    +0.000 A 
ATOM      6  C   UNL     1       3.112  18.189  -4.268  0.00  0.00    +0.000 A 
ENDROOT
BRANCH   1   8
ATOM      7  C   UNL     1       4.889  19.010  -1.214  0.00  0.00    +0.000 C 
ATOM      8  O   UNL     1       3.923  18.439  -2.089  0.00  0.00    +0.000 OA
ENDBRANCH   1   8
BRANCH   6   9
ATOM      9  O   UNL     1       2.445  17.072  -3.841  0.00  0.00    +0.000 OA
ATOM     10  H   UNL     1       2.756  16.932  -2.926  0.00  0.00    +0.000 HD
ENDBRANCH   6   9
TORSDOF 2
ENDMDL
MODEL 6
REMARK VINA RESULT:    -3.684     13.829     14.898
REMARK INTER + INTRA:          -4.045
REMARK INTER:                  -3.993
REMARK INTRA:                  -0.052
REMARK UNBOUND:                -0.038
REMARK  Name = 
REMARK  3 active torsions:
REMARK  status: ('A' for Active; 'I' for Inactive)
REMARK    1  A    between atoms: C_1  and  O_2
REMARK    2  A    between atoms: O_2  and  C_3
REMARK    3  A    between atoms: C_8  and  O_9
REMARK                            x       y       z     vdW  Elec       q    Type
REMARK                         _______ _______ _______ _____ _____    ______ ____
ROOT
ATOM      1  C   UNL     1       2.496  18.380  -3.010  0.00  0.00    +0.000 A 
ATOM      2  C   UNL     1       2.749  17.888  -4.290  0.00  0.00    +0.000 A 
ATOM      3  C   UNL     1       1.773  18.001  -5.288  0.00  0.00    +0.000 A 
ATOM      4  C   UNL     1       0.544  18.603  -5.011  0.00  0.00    +0.000 A 
ATOM      5  C   UNL     1       0.284  19.097  -3.735  0.00  0.00    +0.000 A 
ATOM      6  C   UNL     1       1.258  18.981  -2.751  0.00  0.00    +0.000 A 
ENDROOT
BRANCH   1   8
ATOM      7  C   UNL     1       4.507  19.168  -2.018  0.00  0.00    +0.000 C 
ATOM      8  O   UNL     1       3.354  18.337  -1.940  0.00  0.00    +0.000 OA
ENDBRANCH   1   8
BRANCH   6   9
ATOM      9  O   UNL     1       0.979  19.473  -1.504  0.00  0.00    +0.000 OA
ATOM     10  H   UNL     1       1.843  19.759  -1.151  0.00  0.00    +0.000 HD
ENDBRANCH   6   9
TORSDOF 2
ENDMDL
MODEL 7
REMARK VINA RESULT:    -3.674     22.624     23.654
REMARK INTER + INTRA:          -4.035
REMARK INTER:                  -3.994
REMARK INTRA:                  -0.040
REMARK UNBOUND:                -0.038
REMARK  Name = 
REMARK  3 active torsions:
REMARK  status: ('A' for Active; 'I' for Inactive)
REMARK    1  A    between atoms: C_1  and  O_2
REMARK    2  A    between atoms: O_2  and  C_3
REMARK    3  A    between atoms: C_8  and  O_9
REMARK                            x       y       z     vdW  Elec       q    Type
REMARK                         _______ _______ _______ _____ _____    ______ ____
ROOT
ATOM      1  C   UNL     1      15.741  18.017   1.905  0.00  0.00    +0.000 A 
ATOM      2  C   UNL     1      16.265  17.504   3.091  0.00  0.00    +0.000 A 
ATOM      3  C   UNL     1      17.329  16.595   3.051  0.00  0.00    +0.000 A 
ATOM      4  C   UNL     1      17.872  16.195   1.829  0.00  0.00    +0.000 A 
ATOM      5  C   UNL     1      17.355  16.703   0.639  0.00  0.00    +0.000 A 
ATOM      6  C   UNL     1      16.299  17.604   0.689  0.00  0.00    +0.000 A 
ENDROOT
BRANCH   1   8
ATOM      7  C   UNL     1      13.760  18.919   2.858  0.00  0.00    +0.000 C 
ATOM      8  O   UNL     1      14.705  18.909   1.795  0.00  0.00    +0.000 OA
ENDBRANCH   1   8
BRANCH   6   9
ATOM      9  O   UNL     1      15.807  18.089  -0.493  0.00  0.00    +0.000 OA
ATOM     10  H   UNL     1      15.225  17.381  -0.830  0.00  0.00    +0.000 HD
ENDBRANCH   6   9
TORSDOF 2
ENDMDL
MODEL 8
REMARK VINA RESULT:    -3.571     13.358     14.444
REMARK INTER + INTRA:          -3.923
REMARK INTER:                  -3.884
REMARK INTRA:                  -0.039
REMARK UNBOUND:                -0.038
REMARK  Name = 
REMARK  3 active torsions:
REMARK  status: ('A' for Active; 'I' for Inactive)
REMARK    1  A    between atoms: C_1  and  O_2
REMARK    2  A    between atoms: O_2  and  C_3
REMARK    3  A    between atoms: C_8  and  O_9
REMARK                            x       y       z     vdW  Elec       q    Type
REMARK                         _______ _______ _______ _____ _____    ______ ____
ROOT
ATOM      1  C   UNL     1       4.151  19.553  -4.039  0.00  0.00    +0.000 A 
ATOM      2  C   UNL     1       3.647  18.908  -2.910  0.00  0.00    +0.000 A 
ATOM      3  C   UNL     1       2.545  18.051  -3.027  0.00  0.00    +0.000 A 
ATOM      4  C   UNL     1       1.945  17.835  -4.269  0.00  0.00    +0.000 A 
ATOM      5  C   UNL     1       2.443  18.476  -5.402  0.00  0.00    +0.000 A 
ATOM      6  C   UNL     1       3.535  19.325  -5.276  0.00  0.00    +0.000 A 
ENDROOT
BRANCH   1   8
ATOM      7  C   UNL     1       6.153  20.309  -3.006  0.00  0.00    +0.000 C 
ATOM      8  O   UNL     1       5.217  20.415  -4.072  0.00  0.00    +0.000 OA
ENDBRANCH   1   8
BRANCH   6   9
ATOM      9  O   UNL     1       4.007  19.943  -6.403  0.00  0.00    +0.000 OA
ATOM     10  H   UNL     1       4.673  19.327  -6.765  0.00  0.00    +0.000 HD
ENDBRANCH   6   9
TORSDOF 2
ENDMDL
MODEL 9
REMARK VINA RESULT:    -3.493     15.206     16.214
REMARK INTER + INTRA:          -3.838
REMARK INTER:                  -3.800
REMARK INTRA:                  -0.037
REMARK UNBOUND:                -0.038
REMARK  Name = 
REMARK  3 active torsions:
REMARK  status: ('A' for Active; 'I' for Inactive)
REMARK    1  A    between atoms: C_1  and  O_2
REMARK    2  A    between atoms: O_2  and  C_3
REMARK    3  A    between atoms: C_8  and  O_9
REMARK                            x       y       z     vdW  Elec       q    Type
REMARK                         _______ _______ _______ _____ _____    ______ ____
ROOT
ATOM      1  C   UNL     1       4.220  18.954  -2.454  0.00  0.00    +0.000 A 
ATOM      2  C   UNL     1       4.232  19.668  -3.651  0.00  0.00    +0.000 A 
ATOM      3  C   UNL     1       5.364  20.409  -4.013  0.00  0.00    +0.000 A 
ATOM      4  C   UNL     1       6.485  20.440  -3.181  0.00  0.00    +0.000 A 
ATOM      5  C   UNL     1       6.481  19.729  -1.983  0.00  0.00    +0.000 A 
ATOM      6  C   UNL     1       5.354  18.997  -1.632  0.00  0.00    +0.000 A 
ENDROOT
BRANCH   1   8
ATOM      7  C   UNL     1       1.981  18.208  -2.731  0.00  0.00    +0.000 C 
ATOM      8  O   UNL     1       3.186  18.190  -1.975  0.00  0.00    +0.000 OA
ENDBRANCH   1   8
BRANCH   6   9
ATOM      9  O   UNL     1       5.373  18.306  -0.450  0.00  0.00    +0.000 OA
ATOM     10  H   UNL     1       5.512  17.375  -0.709  0.00  0.00    +0.000 HD
ENDBRANCH   6   9
TORSDOF 2
ENDMDL
