MODEL 1
REMARK VINA RESULT:    -4.091      0.000      0.000
REMARK INTER + INTRA:          -4.489
REMARK INTER:                  -4.450
REMARK INTRA:                  -0.038
REMARK UNBOUND:                -0.038
REMARK  Name = 
REMARK  3 active torsions:
REMARK  status: ('A' for Active; 'I' for Inactive)
REMARK    1  A    between atoms: C_1  and  O_2
REMARK    2  A    between atoms: O_2  and  C_3
REMARK    3  A    between atoms: C_8  and  O_9
REMARK                            x       y       z     vdW  Elec       q    Type
REMARK                         _______ _______ _______ _____ _____    ______ ____
ROOT
ATOM      1  C   UNL     1       2.624  11.780 -16.499  0.00  0.00    +0.000 A 
ATOM      2  C   UNL     1       1.646  11.354 -17.395  0.00  0.00    +0.000 A 
ATOM      3  C   UNL     1       0.586  10.556 -16.947  0.00  0.00    +0.000 A 
ATOM      4  C   UNL     1       0.500  10.182 -15.604  0.00  0.00    +0.000 A 
ATOM      5  C   UNL     1       1.474  10.604 -14.702  0.00  0.00    +0.000 A 
ATOM      6  C   UNL     1       2.522  11.395 -15.156  0.00  0.00    +0.000 A 
ENDROOT
BRANCH   1   8
ATOM      7  C   UNL     1       3.658  13.286 -18.019  0.00  0.00    +0.000 C 
ATOM      8  O   UNL     1       3.713  12.560 -16.797  0.00  0.00    +0.000 OA
ENDBRANCH   1   8
BRANCH   6   9
ATOM      9  O   UNL     1       3.467  11.798 -14.251  0.00  0.00    +0.000 OA
ATOM     10  H   UNL     1       3.724  10.983 -13.780  0.00  0.00    +0.000 HD
ENDBRANCH   6   9
TORSDOF 2
ENDMDL
MODEL 2
REMARK VINA RESULT:    -3.963      2.222      2.997
REMARK INTER + INTRA:          -4.349
REMARK INTER:                  -4.306
REMARK INTRA:                  -0.043
REMARK UNBOUND:                -0.038
REMARK  Name = 
REMARK  3 active torsions:
REMARK  status: ('A' for Active; 'I' for Inactive)
REMARK    1  A    between atoms: C_1  and  O_2
REMARK    2  A    between atoms: O_2  and  C_3
REMARK    3  A    between atoms: C_8  and  O_9
REMARK                            x       y       z     vdW  Elec       q    Type
REMARK                         _______ _______ _______ _____ _____    ______ ____
ROOT
ATOM      1  C   UNL     1       0.908  11.216 -16.529  0.00  0.00    +0.000 A 
ATOM      2  C   UNL     1       2.071  11.872 -16.931  0.00  0.00    +0.000 A 
ATOM      3  C   UNL     1       3.177  11.921 -16.074  0.00  0.00    +0.000 A 
ATOM      4  C   UNL     1       3.126  11.317 -14.816  0.00  0.00    +0.000 A 
ATOM      5  C   UNL     1       1.968  10.659 -14.408  0.00  0.00    +0.000 A 
ATOM      6  C   UNL     1       0.875  10.616 -15.265  0.00  0.00    +0.000 A 
ENDROOT
BRANCH   1   8
ATOM      7  C   UNL     1      -0.624  12.213 -18.048  0.00  0.00    +0.000 C 
ATOM      8  O   UNL     1      -0.246  11.090 -17.261  0.00  0.00    +0.000 OA
ENDBRANCH   1   8
BRANCH   6   9
ATOM      9  O   UNL     1      -0.252   9.963 -14.842  0.00  0.00    +0.000 OA
ATOM     10  H   UNL     1       0.073   9.122 -14.469  0.00  0.00    +0.000 HD
ENDBRANCH   6   9
TORSDOF 2
ENDMDL
MODEL 3
REMARK VINA RESULT:    -3.898     13.482     14.747
REMARK INTER + INTRA:          -4.278
REMARK INTER:                  -4.231
REMARK INTRA:                  -0.047
REMARK UNBOUND:                -0.038
REMARK  Name = 
REMARK  3 active torsions:
REMARK  status: ('A' for Active; 'I' for Inactive)
REMARK    1  A    between atoms: C_1  and  O_2
REMARK    2  A    between atoms: O_2  and  C_3
REMARK    3  A    between atoms: C_8  and  O_9
REMARK                            x       y       z     vdW  Elec       q    Type
REMARK                         _______ _______ _______ _____ _____    ______ ____
ROOT
ATOM      1  C   UNL     1       0.898  18.971  -3.450  0.00  0.00    +0.000 A 
ATOM      2  C   UNL     1       2.114  19.164  -2.794  0.00  0.00    +0.000 A 
ATOM      3  C   UNL     1       3.312  18.803  -3.422  0.00  0.00    +0.000 A 
ATOM      4  C   UNL     1       3.301  18.249  -4.704  0.00  0.00    +0.000 A 
ATOM      5  C   UNL     1       2.091  18.053  -5.365  0.00  0.00    +0.000 A 
ATOM      6  C   UNL     1       0.907  18.414  -4.735  0.00  0.00    +0.000 A 
ENDROOT
BRANCH   1   8
ATOM      7  C   UNL     1      -0.624  18.852  -1.629  0.00  0.00    +0.000 C 
ATOM      8  O   UNL     1      -0.346  19.275  -2.958  0.00  0.00    +0.000 OA
ENDBRANCH   1   8
BRANCH   6   9
ATOM      9  O   UNL     1      -0.270  18.212  -5.405  0.00  0.00    +0.000 OA
ATOM     10  H   UNL     1      -0.731  19.071  -5.361  0.00  0.00    +0.000 HD
ENDBRANCH   6   9
TORSDOF 2
ENDMDL
MODEL 4
REMARK VINA RESULT:    -3.747     13.659     14.786
REMARK INTER + INTRA:          -4.114
REMARK INTER:                  -4.064
REMARK INTRA:                  -0.050
REMARK UNBOUND:                -0.038
REMARK  Name = 
REMARK  3 active torsions:
REMARK  status: ('A' for Active; 'I' for Inactive)
REMARK    1  A    between atoms: C_1  and  O_2
REMARK    2  A    between atoms: O_2  and  C_3
REMARK    3  A    between atoms: C_8  and  O_9
REMARK                            x       y       z     vdW  Elec       q    Type
REMARK                         _______ _______ _______ _____ _____    ______ ____
ROOT
ATOM      1  C   UNL     1       2.364  18.450  -2.816  0.00  0.00    +0.000 A 
ATOM      2  C   UNL     1       1.193  19.097  -2.421  0.00  0.00    +0.000 A 
ATOM      3  C   UNL     1       0.156  19.290  -3.342  0.00  0.00    +0.000 A 
ATOM      4  C   UNL     1       0.284  18.841  -4.657  0.00  0.00    +0.000 A 
ATOM      5  C   UNL     1       1.450  18.193  -5.059  0.00  0.00    +0.000 A 
ATOM      6  C   UNL     1       2.474  18.006  -4.140  0.00  0.00    +0.000 A 
ENDROOT
BRANCH   1   8
ATOM      7  C   UNL     1       4.249  19.316  -1.657  0.00  0.00    +0.000 C 
ATOM      8  O   UNL     1       3.455  18.194  -2.026  0.00  0.00    +0.000 OA
ENDBRANCH   1   8
BRANCH   6   9
ATOM      9  O   UNL     1       3.610  17.367  -4.559  0.00  0.00    +0.000 OA
ATOM     10  H   UNL     1       4.251  17.499  -3.834  0.00  0.00    +0.000 HD
ENDBRANCH   6   9
TORSDOF 2
ENDMDL
MODEL 5
REMARK VINA RESULT:    -3.731     16.132     16.858
REMARK INTER + INTRA:          -4.097
REMARK INTER:                  -4.056
REMARK INTRA:                  -0.041
REMARK UNBOUND:                -0.038
REMARK  Name = 
REMARK  3 active torsions:
REMARK  status: ('A' for Active; 'I' for Inactive)
REMARK    1  A    between atoms: C_1  and  O_2
REMARK    2  A    between atoms: O_2  and  C_3
REMARK    3  A    between atoms: C_8  and  O_9
REMARK                            x       y       z     vdW  Elec       q    Type
REMARK                         _______ _______ _______ _____ _____    ______ ____
ROOT
ATOM      1  C   UNL     1       6.487  19.381  -1.774  0.00  0.00    +0.000 A 
ATOM      2  C   UNL     1       6.194  20.155  -2.897  0.00  0.00    +0.000 A 
ATOM      3  C   UNL     1       4.887  20.195  -3.397  0.00  0.00    +0.000 A 
ATOM      4  C   UNL     1       3.870  19.463  -2.780  0.00  0.00    +0.000 A 
ATOM      5  C   UNL     1       4.154  18.689  -1.658  0.00  0.00    +0.000 A 
ATOM      6  C   UNL     1       5.454  18.655  -1.169  0.00  0.00    +0.000 A 
ENDROOT
BRANCH   1   8
ATOM      7  C   UNL     1       8.586  20.370  -1.262  0.00  0.00    +0.000 C 
ATOM      8  O   UNL     1       7.716  19.248  -1.179  0.00  0.00    +0.000 OA
ENDBRANCH   1   8
BRANCH   6   9
ATOM      9  O   UNL     1       5.709  17.886  -0.065  0.00  0.00    +0.000 OA
ATOM     10  H   UNL     1       5.886  18.527   0.649  0.00  0.00    +0.000 HD
ENDBRANCH   6   9
TORSDOF 2
ENDMDL
MODEL 6
REMARK VINA RESULT:    -3.674     22.641     23.672
REMARK INTER + INTRA:          -4.035
REMARK INTER:                  -3.995
REMARK INTRA:                  -0.040
REMARK UNBOUND:                -0.038
REMARK  Name = 
REMARK  3 active torsions:
REMARK  status: ('A' for Active; 'I' for Inactive)
REMARK    1  A    between atoms: C_1  and  O_2
REMARK    2  A    between atoms: O_2  and  C_3
REMARK    3  A    between atoms: C_8  and  O_9
REMARK                            x       y       z     vdW  Elec       q    Type
REMARK                         _______ _______ _______ _____ _____    ______ ____
ROOT
ATOM      1  C   UNL     1      15.746  18.023   1.911  0.00  0.00    +0.000 A 
ATOM      2  C   UNL     1      16.273  17.510   3.095  0.00  0.00    +0.000 A 
ATOM      3  C   UNL     1      17.336  16.599   3.050  0.00  0.00    +0.000 A 
ATOM      4  C   UNL     1      17.874  16.199   1.826  0.00  0.00    +0.000 A 
ATOM      5  C   UNL     1      17.353  16.707   0.638  0.00  0.00    +0.000 A 
ATOM      6  C   UNL     1      16.298  17.610   0.692  0.00  0.00    +0.000 A 
ENDROOT
BRANCH   1   8
ATOM      7  C   UNL     1      13.761  18.917   2.863  0.00  0.00    +0.000 C 
ATOM      8  O   UNL     1      14.710  18.917   1.804  0.00  0.00    +0.000 OA
ENDBRANCH   1   8
BRANCH   6   9
ATOM      9  O   UNL     1      15.802  18.096  -0.488  0.00  0.00    +0.000 OA
ATOM     10  H   UNL     1      14.834  18.109  -0.364  0.00  0.00    +0.000 HD
ENDBRANCH   6   9
TORSDOF 2
ENDMDL
MODEL 7
REMARK VINA RESULT:    -3.571     13.361     14.437
REMARK INTER + INTRA:          -3.923
REMARK INTER:                  -3.884
REMARK INTRA:                  -0.039
REMARK UNBOUND:                -0.038
REMARK  Name = 
REMARK  3 active torsions:
REMARK  status: ('A' for Active; 'I' for Inactive)
REMARK    1  A    between atoms: C_1  and  O_2
REMARK    2  A    between atoms: O_2  and  C_3
REMARK    3  A    between atoms: C_8  and  O_9
REMARK                            x       y       z     vdW  Elec       q    Type
REMARK                         _______ _______ _______ _____ _____    ______ ____
ROOT
ATOM      1  C   UNL     1       4.147  19.530  -4.039  0.00  0.00    +0.000 A 
ATOM      2  C   UNL     1       3.637  18.889  -2.911  0.00  0.00    +0.000 A 
ATOM      3  C   UNL     1       2.524  18.046  -3.029  0.00  0.00    +0.000 A 
ATOM      4  C   UNL     1       1.918  17.842  -4.270  0.00  0.00    +0.000 A 
ATOM      5  C   UNL     1       2.422  18.479  -5.402  0.00  0.00    +0.000 A 
ATOM      6  C   UNL     1       3.526  19.313  -5.276  0.00  0.00    +0.000 A 
ENDROOT
BRANCH   1   8
ATOM      7  C   UNL     1       6.139  20.285  -2.987  0.00  0.00    +0.000 C 
ATOM      8  O   UNL     1       5.224  20.378  -4.072  0.00  0.00    +0.000 OA
ENDBRANCH   1   8
BRANCH   6   9
ATOM      9  O   UNL     1       4.003  19.928  -6.402  0.00  0.00    +0.000 OA
ATOM     10  H   UNL     1       3.435  19.599  -7.125  0.00  0.00    +0.000 HD
ENDBRANCH   6   9
TORSDOF 2
ENDMDL
MODEL 8
REMARK VINA RESULT:    -3.536     13.806     14.870
REMARK INTER + INTRA:          -3.885
REMARK INTER:                  -3.836
REMARK INTRA:                  -0.049
REMARK UNBOUND:                -0.038
REMARK  Name = 
REMARK  3 active torsions:
REMARK  status: ('A' for Active; 'I' for Inactive)
REMARK    1  A    between atoms: C_1  and  O_2
REMARK    2  A    between atoms: O_2  and  C_3
REMARK    3  A    between atoms: C_8  and  O_9
REMARK                            x       y       z     vdW  Elec       q    Type
REMARK                         _______ _______ _______ _____ _____    ______ ____
ROOT
ATOM      1  C   UNL     1       2.690  18.567  -3.059  0.00  0.00    +0.000 A 
ATOM      2  C   UNL     1       3.071  18.190  -4.346  0.00  0.00    +0.000 A 
ATOM      3  C   UNL     1       2.130  18.190  -5.383  0.00  0.00    +0.000 A 
ATOM      4  C   UNL     1       0.807  18.564  -5.138  0.00  0.00    +0.000 A 
ATOM      5  C   UNL     1       0.419  18.943  -3.855  0.00  0.00    +0.000 A 
ATOM      6  C   UNL     1       1.359  18.940  -2.833  0.00  0.00    +0.000 A 
ENDROOT
BRANCH   1   8
ATOM      7  C   UNL     1       4.727  19.322  -2.095  0.00  0.00    +0.000 C 
ATOM      8  O   UNL     1       3.501  18.613  -1.954  0.00  0.00    +0.000 OA
ENDBRANCH   1   8
BRANCH   6   9
ATOM      9  O   UNL     1       0.954  19.315  -1.580  0.00  0.00    +0.000 OA
ATOM     10  H   UNL     1       1.377  18.673  -0.979  0.00  0.00    +0.000 HD
ENDBRANCH   6   9
TORSDOF 2
ENDMDL
MODEL 9
REMARK VINA RESULT:    -3.468     13.491     14.736
REMARK INTER + INTRA:          -3.811
REMARK INTER:                  -3.771
REMARK INTRA:                  -0.040
REMARK UNBOUND:                -0.038
REMARK  Name = 
REMARK  3 active torsions:
REMARK  status: ('A' for Active; 'I' for Inactive)
REMARK    1  A    between atoms: C_1  and  O_2
REMARK    2  A    between atoms: O_2  and  C_3
REMARK    3  A    between atoms: C_8  and  O_9
REMARK                            x       y       z     vdW  Elec       q    Type
REMARK                         _______ _______ _______ _____ _____    ______ ____
ROOT
ATOM      1  C   UNL     1       3.864  18.967  -3.355  0.00  0.00    +0.000 A 
ATOM      2  C   UNL     1       4.528  20.099  -3.824  0.00  0.00    +0.000 A 
ATOM      3  C   UNL     1       4.457  20.440  -5.181  0.00  0.00    +0.000 A 
ATOM      4  C   UNL     1       3.726  19.652  -6.071  0.00  0.00    +0.000 A 
ATOM      5  C   UNL     1       3.059  18.519  -5.610  0.00  0.00    +0.000 A 
ATOM      6  C   UNL     1       3.135  18.189  -4.263  0.00  0.00    +0.000 A 
ENDROOT
BRANCH   1   8
ATOM      7  C   UNL     1       4.948  18.891  -1.242  0.00  0.00    +0.000 C 
ATOM      8  O   UNL     1       3.847  18.515  -2.060  0.00  0.00    +0.000 OA
ENDBRANCH   1   8
BRANCH   6   9
ATOM      9  O   UNL     1       2.472  17.070  -3.834  0.00  0.00    +0.000 OA
ATOM     10  H   UNL     1       1.726  16.969  -4.455  0.00  0.00    +0.000 HD
ENDBRANCH   6   9
TORSDOF 2
ENDMDL
