MODEL 1
REMARK VINA RESULT:    -3.826      0.000      0.000
REMARK INTER + INTRA:          -4.199
REMARK INTER:                  -4.162
REMARK INTRA:                  -0.037
REMARK UNBOUND:                -0.037
REMARK  Name = 
REMARK  3 active torsions:
REMARK  status: ('A' for Active; 'I' for Inactive)
REMARK    1  A    between atoms: C_1  and  O_2
REMARK    2  A    between atoms: O_2  and  C_3
REMARK    3  A    between atoms: C_8  and  O_9
REMARK                            x       y       z     vdW  Elec       q    Type
REMARK                         _______ _______ _______ _____ _____    ______ ____
ROOT
ATOM      1  C   UNL     1      17.702  -6.174   6.667  0.00  0.00    +0.000 A 
ATOM      2  C   UNL     1      18.451  -5.530   5.683  0.00  0.00    +0.000 A 
ATOM      3  C   UNL     1      18.386  -4.137   5.552  0.00  0.00    +0.000 A 
ATOM      4  C   UNL     1      17.572  -3.384   6.401  0.00  0.00    +0.000 A 
ATOM      5  C   UNL     1      16.821  -4.020   7.387  0.00  0.00    +0.000 A 
ATOM      6  C   UNL     1      16.892  -5.402   7.509  0.00  0.00    +0.000 A 
ENDROOT
BRANCH   1   8
ATOM      7  C   UNL     1      18.371  -8.350   5.987  0.00  0.00    +0.000 C 
ATOM      8  O   UNL     1      17.668  -7.524   6.908  0.00  0.00    +0.000 OA
ENDBRANCH   1   8
BRANCH   6   9
ATOM      9  O   UNL     1      16.144  -6.004   8.486  0.00  0.00    +0.000 OA
ATOM     10  H   UNL     1      16.343  -5.498   9.297  0.00  0.00    +0.000 HD
ENDBRANCH   6   9
TORSDOF 2
ENDMDL
MODEL 2
REMARK VINA RESULT:    -3.487      1.900      3.602
REMARK INTER + INTRA:          -3.830
REMARK INTER:                  -3.792
REMARK INTRA:                  -0.038
REMARK UNBOUND:                -0.037
REMARK  Name = 
REMARK  3 active torsions:
REMARK  status: ('A' for Active; 'I' for Inactive)
REMARK    1  A    between atoms: C_1  and  O_2
REMARK    2  A    between atoms: O_2  and  C_3
REMARK    3  A    between atoms: C_8  and  O_9
REMARK                            x       y       z     vdW  Elec       q    Type
REMARK                         _______ _______ _______ _____ _____    ______ ____
ROOT
ATOM      1  C   UNL     1      17.772  -4.378   6.281  0.00  0.00    +0.000 A 
ATOM      2  C   UNL     1      17.203  -3.855   7.441  0.00  0.00    +0.000 A 
ATOM      3  C   UNL     1      16.769  -4.716   8.457  0.00  0.00    +0.000 A 
ATOM      4  C   UNL     1      16.901  -6.099   8.317  0.00  0.00    +0.000 A 
ATOM      5  C   UNL     1      17.469  -6.629   7.161  0.00  0.00    +0.000 A 
ATOM      6  C   UNL     1      17.896  -5.767   6.159  0.00  0.00    +0.000 A 
ENDROOT
BRANCH   1   8
ATOM      7  C   UNL     1      18.450  -2.268   5.424  0.00  0.00    +0.000 C 
ATOM      8  O   UNL     1      18.238  -3.658   5.210  0.00  0.00    +0.000 OA
ENDBRANCH   1   8
BRANCH   6   9
ATOM      9  O   UNL     1      18.451  -6.312   5.031  0.00  0.00    +0.000 OA
ATOM     10  H   UNL     1      18.943  -5.578   4.617  0.00  0.00    +0.000 HD
ENDBRANCH   6   9
TORSDOF 2
ENDMDL
MODEL 3
REMARK VINA RESULT:    -3.457      1.543      2.373
REMARK INTER + INTRA:          -3.798
REMARK INTER:                  -3.759
REMARK INTRA:                  -0.038
REMARK UNBOUND:                -0.037
REMARK  Name = 
REMARK  3 active torsions:
REMARK  status: ('A' for Active; 'I' for Inactive)
REMARK    1  A    between atoms: C_1  and  O_2
REMARK    2  A    between atoms: O_2  and  C_3
REMARK    3  A    between atoms: C_8  and  O_9
REMARK                            x       y       z     vdW  Elec       q    Type
REMARK                         _______ _______ _______ _____ _____    ______ ____
ROOT
ATOM      1  C   UNL     1      17.941  -6.469   6.498  0.00  0.00    +0.000 A 
ATOM      2  C   UNL     1      17.435  -6.626   7.788  0.00  0.00    +0.000 A 
ATOM      3  C   UNL     1      16.944  -5.515   8.486  0.00  0.00    +0.000 A 
ATOM      4  C   UNL     1      16.959  -4.248   7.901  0.00  0.00    +0.000 A 
ATOM      5  C   UNL     1      17.462  -4.084   6.612  0.00  0.00    +0.000 A 
ATOM      6  C   UNL     1      17.946  -5.190   5.927  0.00  0.00    +0.000 A 
ENDROOT
BRANCH   1   8
ATOM      7  C   UNL     1      18.178  -8.800   6.100  0.00  0.00    +0.000 C 
ATOM      8  O   UNL     1      18.451  -7.462   5.701  0.00  0.00    +0.000 OA
ENDBRANCH   1   8
BRANCH   6   9
ATOM      9  O   UNL     1      18.436  -5.004   4.662  0.00  0.00    +0.000 OA
ATOM     10  H   UNL     1      17.696  -4.607   4.165  0.00  0.00    +0.000 HD
ENDBRANCH   6   9
TORSDOF 2
ENDMDL
MODEL 4
REMARK VINA RESULT:    -3.142     13.149     14.248
REMARK INTER + INTRA:          -3.454
REMARK INTER:                  -3.430
REMARK INTRA:                  -0.024
REMARK UNBOUND:                -0.037
REMARK  Name = 
REMARK  3 active torsions:
REMARK  status: ('A' for Active; 'I' for Inactive)
REMARK    1  A    between atoms: C_1  and  O_2
REMARK    2  A    between atoms: O_2  and  C_3
REMARK    3  A    between atoms: C_8  and  O_9
REMARK                            x       y       z     vdW  Elec       q    Type
REMARK                         _______ _______ _______ _____ _____    ______ ____
ROOT
ATOM      1  C   UNL     1      16.882  -9.722  20.180  0.00  0.00    +0.000 A 
ATOM      2  C   UNL     1      17.224  -9.581  18.836  0.00  0.00    +0.000 A 
ATOM      3  C   UNL     1      16.430 -10.173  17.846  0.00  0.00    +0.000 A 
ATOM      4  C   UNL     1      15.295 -10.908  18.194  0.00  0.00    +0.000 A 
ATOM      5  C   UNL     1      14.947 -11.053  19.535  0.00  0.00    +0.000 A 
ATOM      6  C   UNL     1      15.740 -10.463  20.510  0.00  0.00    +0.000 A 
ENDROOT
BRANCH   1   8
ATOM      7  C   UNL     1      17.341  -7.824  21.534  0.00  0.00    +0.000 C 
ATOM      8  O   UNL     1      17.564  -9.200  21.250  0.00  0.00    +0.000 OA
ENDBRANCH   1   8
BRANCH   6   9
ATOM      9  O   UNL     1      15.378 -10.620  21.822  0.00  0.00    +0.000 OA
ATOM     10  H   UNL     1      15.358  -9.713  22.184  0.00  0.00    +0.000 HD
ENDBRANCH   6   9
TORSDOF 2
ENDMDL
MODEL 5
REMARK VINA RESULT:    -3.119     14.780     16.237
REMARK INTER + INTRA:          -3.430
REMARK INTER:                  -3.391
REMARK INTRA:                  -0.039
REMARK UNBOUND:                -0.037
REMARK  Name = 
REMARK  3 active torsions:
REMARK  status: ('A' for Active; 'I' for Inactive)
REMARK    1  A    between atoms: C_1  and  O_2
REMARK    2  A    between atoms: O_2  and  C_3
REMARK    3  A    between atoms: C_8  and  O_9
REMARK                            x       y       z     vdW  Elec       q    Type
REMARK                         _______ _______ _______ _____ _____    ______ ____
ROOT
ATOM      1  C   UNL     1      16.817   6.783  16.736  0.00  0.00    +0.000 A 
ATOM      2  C   UNL     1      16.932   7.533  17.905  0.00  0.00    +0.000 A 
ATOM      3  C   UNL     1      17.629   7.013  19.004  0.00  0.00    +0.000 A 
ATOM      4  C   UNL     1      18.210   5.745  18.938  0.00  0.00    +0.000 A 
ATOM      5  C   UNL     1      18.099   4.990  17.772  0.00  0.00    +0.000 A 
ATOM      6  C   UNL     1      17.406   5.513  16.688  0.00  0.00    +0.000 A 
ENDROOT
BRANCH   1   8
ATOM      7  C   UNL     1      15.218   8.216  15.717  0.00  0.00    +0.000 C 
ATOM      8  O   UNL     1      16.167   7.163  15.589  0.00  0.00    +0.000 OA
ENDBRANCH   1   8
BRANCH   6   9
ATOM      9  O   UNL     1      17.311   4.752  15.554  0.00  0.00    +0.000 OA
ATOM     10  H   UNL     1      17.765   3.917  15.776  0.00  0.00    +0.000 HD
ENDBRANCH   6   9
TORSDOF 2
ENDMDL
MODEL 6
REMARK VINA RESULT:    -3.108     13.851     15.408
REMARK INTER + INTRA:          -3.418
REMARK INTER:                  -3.375
REMARK INTRA:                  -0.043
REMARK UNBOUND:                -0.037
REMARK  Name = 
REMARK  3 active torsions:
REMARK  status: ('A' for Active; 'I' for Inactive)
REMARK    1  A    between atoms: C_1  and  O_2
REMARK    2  A    between atoms: O_2  and  C_3
REMARK    3  A    between atoms: C_8  and  O_9
REMARK                            x       y       z     vdW  Elec       q    Type
REMARK                         _______ _______ _______ _____ _____    ______ ____
ROOT
ATOM      1  C   UNL     1      16.855   6.999  15.910  0.00  0.00    +0.000 A 
ATOM      2  C   UNL     1      17.047   8.162  15.165  0.00  0.00    +0.000 A 
ATOM      3  C   UNL     1      17.844   8.132  14.014  0.00  0.00    +0.000 A 
ATOM      4  C   UNL     1      18.451   6.943  13.604  0.00  0.00    +0.000 A 
ATOM      5  C   UNL     1      18.264   5.777  14.343  0.00  0.00    +0.000 A 
ATOM      6  C   UNL     1      17.472   5.816  15.484  0.00  0.00    +0.000 A 
ENDROOT
BRANCH   1   8
ATOM      7  C   UNL     1      14.919   7.665  17.116  0.00  0.00    +0.000 C 
ATOM      8  O   UNL     1      16.105   6.882  17.053  0.00  0.00    +0.000 OA
ENDBRANCH   1   8
BRANCH   6   9
ATOM      9  O   UNL     1      17.303   4.658  16.194  0.00  0.00    +0.000 OA
ATOM     10  H   UNL     1      16.408   4.348  15.955  0.00  0.00    +0.000 HD
ENDBRANCH   6   9
TORSDOF 2
ENDMDL
