MODEL 1
REMARK VINA RESULT:    -4.122      0.000      0.000
REMARK INTER + INTRA:          -4.536
REMARK INTER:                  -4.483
REMARK INTRA:                  -0.052
REMARK UNBOUND:                -0.052
REMARK  Name = 
REMARK  3 active torsions:
REMARK  status: ('A' for Active; 'I' for Inactive)
REMARK    1  A    between atoms: C_1  and  O_2
REMARK    2  A    between atoms: O_2  and  C_3
REMARK    3  A    between atoms: C_8  and  O_9
REMARK                            x       y       z     vdW  Elec       q    Type
REMARK                         _______ _______ _______ _____ _____    ______ ____
ROOT
ATOM      1  C   UNL     1      -8.527   6.227 -17.136  0.00  0.00    +0.000 A 
ATOM      2  C   UNL     1      -9.180   6.717 -16.006  0.00  0.00    +0.000 A 
ATOM      3  C   UNL     1      -9.732   8.004 -16.019  0.00  0.00    +0.000 A 
ATOM      4  C   UNL     1      -9.633   8.804 -17.159  0.00  0.00    +0.000 A 
ATOM      5  C   UNL     1      -8.983   8.322 -18.292  0.00  0.00    +0.000 A 
ATOM      6  C   UNL     1      -8.438   7.044 -18.270  0.00  0.00    +0.000 A 
ENDROOT
BRANCH   1   8
ATOM      7  C   UNL     1      -8.807   3.868 -17.173  0.00  0.00    +0.000 C 
ATOM      8  O   UNL     1      -7.942   4.993 -17.264  0.00  0.00    +0.000 OA
ENDBRANCH   1   8
BRANCH   6   9
ATOM      9  O   UNL     1      -7.804   6.592 -19.396  0.00  0.00    +0.000 OA
ATOM     10  H   UNL     1      -6.878   6.883 -19.293  0.00  0.00    +0.000 HD
ENDBRANCH   6   9
TORSDOF 2
ENDMDL
MODEL 2
REMARK VINA RESULT:    -4.114      1.421      2.383
REMARK INTER + INTRA:          -4.527
REMARK INTER:                  -4.477
REMARK INTRA:                  -0.051
REMARK UNBOUND:                -0.052
REMARK  Name = 
REMARK  3 active torsions:
REMARK  status: ('A' for Active; 'I' for Inactive)
REMARK    1  A    between atoms: C_1  and  O_2
REMARK    2  A    between atoms: O_2  and  C_3
REMARK    3  A    between atoms: C_8  and  O_9
REMARK                            x       y       z     vdW  Elec       q    Type
REMARK                         _______ _______ _______ _____ _____    ______ ____
ROOT
ATOM      1  C   UNL     1      -8.951   7.159 -16.825  0.00  0.00    +0.000 A 
ATOM      2  C   UNL     1      -9.468   8.421 -17.115  0.00  0.00    +0.000 A 
ATOM      3  C   UNL     1      -9.112   9.067 -18.305  0.00  0.00    +0.000 A 
ATOM      4  C   UNL     1      -8.238   8.456 -19.208  0.00  0.00    +0.000 A 
ATOM      5  C   UNL     1      -7.718   7.195 -18.925  0.00  0.00    +0.000 A 
ATOM      6  C   UNL     1      -8.077   6.562 -17.742  0.00  0.00    +0.000 A 
ENDROOT
BRANCH   1   8
ATOM      7  C   UNL     1      -8.944   7.036 -14.452  0.00  0.00    +0.000 C 
ATOM      8  O   UNL     1      -9.212   6.414 -15.703  0.00  0.00    +0.000 OA
ENDBRANCH   1   8
BRANCH   6   9
ATOM      9  O   UNL     1      -7.552   5.324 -17.486  0.00  0.00    +0.000 OA
ATOM     10  H   UNL     1      -7.252   5.368 -16.558  0.00  0.00    +0.000 HD
ENDBRANCH   6   9
TORSDOF 2
ENDMDL
MODEL 3
REMARK VINA RESULT:    -3.884      1.539      3.335
REMARK INTER + INTRA:          -4.277
REMARK INTER:                  -4.226
REMARK INTRA:                  -0.052
REMARK UNBOUND:                -0.052
REMARK  Name = 
REMARK  3 active torsions:
REMARK  status: ('A' for Active; 'I' for Inactive)
REMARK    1  A    between atoms: C_1  and  O_2
REMARK    2  A    between atoms: O_2  and  C_3
REMARK    3  A    between atoms: C_8  and  O_9
REMARK                            x       y       z     vdW  Elec       q    Type
REMARK                         _______ _______ _______ _____ _____    ______ ____
ROOT
ATOM      1  C   UNL     1      -9.312   6.366 -16.626  0.00  0.00    +0.000 A 
ATOM      2  C   UNL     1     -10.433   5.946 -15.912  0.00  0.00    +0.000 A 
ATOM      3  C   UNL     1     -10.728   4.580 -15.812  0.00  0.00    +0.000 A 
ATOM      4  C   UNL     1      -9.906   3.633 -16.425  0.00  0.00    +0.000 A 
ATOM      5  C   UNL     1      -8.784   4.045 -17.140  0.00  0.00    +0.000 A 
ATOM      6  C   UNL     1      -8.500   5.401 -17.234  0.00  0.00    +0.000 A 
ENDROOT
BRANCH   1   8
ATOM      7  C   UNL     1      -9.717   8.473 -17.650  0.00  0.00    +0.000 C 
ATOM      8  O   UNL     1      -8.905   7.664 -16.807  0.00  0.00    +0.000 OA
ENDBRANCH   1   8
BRANCH   6   9
ATOM      9  O   UNL     1      -7.392   5.782 -17.943  0.00  0.00    +0.000 OA
ATOM     10  H   UNL     1      -7.419   6.758 -17.942  0.00  0.00    +0.000 HD
ENDBRANCH   6   9
TORSDOF 2
ENDMDL
MODEL 4
REMARK VINA RESULT:    -3.879      2.060      3.509
REMARK INTER + INTRA:          -4.271
REMARK INTER:                  -4.219
REMARK INTRA:                  -0.052
REMARK UNBOUND:                -0.052
REMARK  Name = 
REMARK  3 active torsions:
REMARK  status: ('A' for Active; 'I' for Inactive)
REMARK    1  A    between atoms: C_1  and  O_2
REMARK    2  A    between atoms: O_2  and  C_3
REMARK    3  A    between atoms: C_8  and  O_9
REMARK                            x       y       z     vdW  Elec       q    Type
REMARK                         _______ _______ _______ _____ _____    ______ ____
ROOT
ATOM      1  C   UNL     1      -9.939   7.613 -15.660  0.00  0.00    +0.000 A 
ATOM      2  C   UNL     1      -9.841   8.628 -16.611  0.00  0.00    +0.000 A 
ATOM      3  C   UNL     1      -9.123   8.410 -17.794  0.00  0.00    +0.000 A 
ATOM      4  C   UNL     1      -8.502   7.182 -18.030  0.00  0.00    +0.000 A 
ATOM      5  C   UNL     1      -8.596   6.164 -17.084  0.00  0.00    +0.000 A 
ATOM      6  C   UNL     1      -9.309   6.388 -15.914  0.00  0.00    +0.000 A 
ENDROOT
BRANCH   1   8
ATOM      7  C   UNL     1     -12.012   7.887 -14.530  0.00  0.00    +0.000 C 
ATOM      8  O   UNL     1     -10.605   7.686 -14.462  0.00  0.00    +0.000 OA
ENDBRANCH   1   8
BRANCH   6   9
ATOM      9  O   UNL     1      -9.388   5.372 -14.999  0.00  0.00    +0.000 OA
ATOM     10  H   UNL     1     -10.252   5.497 -14.562  0.00  0.00    +0.000 HD
ENDBRANCH   6   9
TORSDOF 2
ENDMDL
MODEL 5
REMARK VINA RESULT:    -3.852      1.530      2.967
REMARK INTER + INTRA:          -4.242
REMARK INTER:                  -4.194
REMARK INTRA:                  -0.048
REMARK UNBOUND:                -0.052
REMARK  Name = 
REMARK  3 active torsions:
REMARK  status: ('A' for Active; 'I' for Inactive)
REMARK    1  A    between atoms: C_1  and  O_2
REMARK    2  A    between atoms: O_2  and  C_3
REMARK    3  A    between atoms: C_8  and  O_9
REMARK                            x       y       z     vdW  Elec       q    Type
REMARK                         _______ _______ _______ _____ _____    ______ ____
ROOT
ATOM      1  C   UNL     1      -9.183   6.923 -16.448  0.00  0.00    +0.000 A 
ATOM      2  C   UNL     1      -9.743   8.200 -16.455  0.00  0.00    +0.000 A 
ATOM      3  C   UNL     1     -10.873   8.473 -15.675  0.00  0.00    +0.000 A 
ATOM      4  C   UNL     1     -11.448   7.474 -14.888  0.00  0.00    +0.000 A 
ATOM      5  C   UNL     1     -10.895   6.195 -14.875  0.00  0.00    +0.000 A 
ATOM      6  C   UNL     1      -9.774   5.933 -15.652  0.00  0.00    +0.000 A 
ENDROOT
BRANCH   1   8
ATOM      7  C   UNL     1      -8.074   6.826 -18.547  0.00  0.00    +0.000 C 
ATOM      8  O   UNL     1      -8.083   6.515 -17.159  0.00  0.00    +0.000 OA
ENDBRANCH   1   8
BRANCH   6   9
ATOM      9  O   UNL     1      -9.248   4.669 -15.622  0.00  0.00    +0.000 OA
ATOM     10  H   UNL     1      -9.774   4.197 -14.949  0.00  0.00    +0.000 HD
ENDBRANCH   6   9
TORSDOF 2
ENDMDL
MODEL 6
REMARK VINA RESULT:    -3.819      2.534      3.695
REMARK INTER + INTRA:          -4.207
REMARK INTER:                  -4.169
REMARK INTRA:                  -0.037
REMARK UNBOUND:                -0.052
REMARK  Name = 
REMARK  3 active torsions:
REMARK  status: ('A' for Active; 'I' for Inactive)
REMARK    1  A    between atoms: C_1  and  O_2
REMARK    2  A    between atoms: O_2  and  C_3
REMARK    3  A    between atoms: C_8  and  O_9
REMARK                            x       y       z     vdW  Elec       q    Type
REMARK                         _______ _______ _______ _____ _____    ______ ____
ROOT
ATOM      1  C   UNL     1      -9.423   6.357 -15.538  0.00  0.00    +0.000 A 
ATOM      2  C   UNL     1     -10.475   5.491 -15.837  0.00  0.00    +0.000 A 
ATOM      3  C   UNL     1     -11.563   5.384 -14.962  0.00  0.00    +0.000 A 
ATOM      4  C   UNL     1     -11.605   6.140 -13.789  0.00  0.00    +0.000 A 
ATOM      5  C   UNL     1     -10.558   7.007 -13.484  0.00  0.00    +0.000 A 
ATOM      6  C   UNL     1      -9.483   7.106 -14.357  0.00  0.00    +0.000 A 
ENDROOT
BRANCH   1   8
ATOM      7  C   UNL     1      -8.213   5.825 -17.513  0.00  0.00    +0.000 C 
ATOM      8  O   UNL     1      -8.300   6.561 -16.299  0.00  0.00    +0.000 OA
ENDBRANCH   1   8
BRANCH   6   9
ATOM      9  O   UNL     1      -8.466   7.965 -14.035  0.00  0.00    +0.000 OA
ATOM     10  H   UNL     1      -8.757   8.397 -13.209  0.00  0.00    +0.000 HD
ENDBRANCH   6   9
TORSDOF 2
ENDMDL
MODEL 7
REMARK VINA RESULT:    -3.780      2.613      3.671
REMARK INTER + INTRA:          -4.164
REMARK INTER:                  -4.114
REMARK INTRA:                  -0.051
REMARK UNBOUND:                -0.052
REMARK  Name = 
REMARK  3 active torsions:
REMARK  status: ('A' for Active; 'I' for Inactive)
REMARK    1  A    between atoms: C_1  and  O_2
REMARK    2  A    between atoms: O_2  and  C_3
REMARK    3  A    between atoms: C_8  and  O_9
REMARK                            x       y       z     vdW  Elec       q    Type
REMARK                         _______ _______ _______ _____ _____    ______ ____
ROOT
ATOM      1  C   UNL     1      -9.722   8.051 -16.046  0.00  0.00    +0.000 A 
ATOM      2  C   UNL     1      -8.880   7.545 -15.057  0.00  0.00    +0.000 A 
ATOM      3  C   UNL     1      -9.389   7.261 -13.783  0.00  0.00    +0.000 A 
ATOM      4  C   UNL     1     -10.737   7.483 -13.494  0.00  0.00    +0.000 A 
ATOM      5  C   UNL     1     -11.584   7.988 -14.478  0.00  0.00    +0.000 A 
ATOM      6  C   UNL     1     -11.070   8.267 -15.738  0.00  0.00    +0.000 A 
ENDROOT
BRANCH   1   8
ATOM      7  C   UNL     1      -8.758   7.339 -18.098  0.00  0.00    +0.000 C 
ATOM      8  O   UNL     1      -9.361   8.373 -17.330  0.00  0.00    +0.000 OA
ENDBRANCH   1   8
BRANCH   6   9
ATOM      9  O   UNL     1     -11.922   8.763 -16.688  0.00  0.00    +0.000 OA
ATOM     10  H   UNL     1     -11.986   9.717 -16.491  0.00  0.00    +0.000 HD
ENDBRANCH   6   9
TORSDOF 2
ENDMDL
MODEL 8
REMARK VINA RESULT:    -3.633      2.331      3.131
REMARK INTER + INTRA:          -4.004
REMARK INTER:                  -3.952
REMARK INTRA:                  -0.052
REMARK UNBOUND:                -0.052
REMARK  Name = 
REMARK  3 active torsions:
REMARK  status: ('A' for Active; 'I' for Inactive)
REMARK    1  A    between atoms: C_1  and  O_2
REMARK    2  A    between atoms: O_2  and  C_3
REMARK    3  A    between atoms: C_8  and  O_9
REMARK                            x       y       z     vdW  Elec       q    Type
REMARK                         _______ _______ _______ _____ _____    ______ ____
ROOT
ATOM      1  C   UNL     1      -9.408   7.312 -16.138  0.00  0.00    +0.000 A 
ATOM      2  C   UNL     1      -8.401   6.611 -16.801  0.00  0.00    +0.000 A 
ATOM      3  C   UNL     1      -8.042   6.971 -18.106  0.00  0.00    +0.000 A 
ATOM      4  C   UNL     1      -8.686   8.028 -18.752  0.00  0.00    +0.000 A 
ATOM      5  C   UNL     1      -9.692   8.733 -18.095  0.00  0.00    +0.000 A 
ATOM      6  C   UNL     1     -10.042   8.370 -16.801  0.00  0.00    +0.000 A 
ENDROOT
BRANCH   1   8
ATOM      7  C   UNL     1      -8.970   7.392 -13.803  0.00  0.00    +0.000 C 
ATOM      8  O   UNL     1      -9.860   7.071 -14.865  0.00  0.00    +0.000 OA
ENDBRANCH   1   8
BRANCH   6   9
ATOM      9  O   UNL     1     -11.033   9.078 -16.176  0.00  0.00    +0.000 OA
ATOM     10  H   UNL     1     -10.584   9.862 -15.807  0.00  0.00    +0.000 HD
ENDBRANCH   6   9
TORSDOF 2
ENDMDL
MODEL 9
REMARK VINA RESULT:    -3.183      1.207      3.105
REMARK INTER + INTRA:          -3.515
REMARK INTER:                  -3.497
REMARK INTRA:                  -0.018
REMARK UNBOUND:                -0.052
REMARK  Name = 
REMARK  3 active torsions:
REMARK  status: ('A' for Active; 'I' for Inactive)
REMARK    1  A    between atoms: C_1  and  O_2
REMARK    2  A    between atoms: O_2  and  C_3
REMARK    3  A    between atoms: C_8  and  O_9
REMARK                            x       y       z     vdW  Elec       q    Type
REMARK                         _______ _______ _______ _____ _____    ______ ____
ROOT
ATOM      1  C   UNL     1      -9.259   8.150 -18.052  0.00  0.00    +0.000 A 
ATOM      2  C   UNL     1      -9.776   8.525 -16.812  0.00  0.00    +0.000 A 
ATOM      3  C   UNL     1      -9.572   7.708 -15.693  0.00  0.00    +0.000 A 
ATOM      4  C   UNL     1      -8.855   6.516 -15.808  0.00  0.00    +0.000 A 
ATOM      5  C   UNL     1      -8.336   6.134 -17.043  0.00  0.00    +0.000 A 
ATOM      6  C   UNL     1      -8.542   6.951 -18.148  0.00  0.00    +0.000 A 
ENDROOT
BRANCH   1   8
ATOM      7  C   UNL     1      -8.481   9.933 -19.416  0.00  0.00    +0.000 C 
ATOM      8  O   UNL     1      -9.381   8.848 -19.226  0.00  0.00    +0.000 OA
ENDBRANCH   1   8
BRANCH   6   9
ATOM      9  O   UNL     1      -8.022   6.555 -19.351  0.00  0.00    +0.000 OA
ATOM     10  H   UNL     1      -8.446   7.138 -20.009  0.00  0.00    +0.000 HD
ENDBRANCH   6   9
TORSDOF 2
ENDMDL
