MODEL 1
REMARK VINA RESULT:    -4.095      0.000      0.000
REMARK INTER + INTRA:          -4.493
REMARK INTER:                  -4.454
REMARK INTRA:                  -0.038
REMARK UNBOUND:                -0.038
REMARK  Name = 
REMARK  3 active torsions:
REMARK  status: ('A' for Active; 'I' for Inactive)
REMARK    1  A    between atoms: C_1  and  O_2
REMARK    2  A    between atoms: O_2  and  C_3
REMARK    3  A    between atoms: C_8  and  O_9
REMARK                            x       y       z     vdW  Elec       q    Type
REMARK                         _______ _______ _______ _____ _____    ______ ____
ROOT
ATOM      1  C   UNL     1       2.624  11.782 -16.507  0.00  0.00    +0.000 A 
ATOM      2  C   UNL     1       1.653  11.342 -17.405  0.00  0.00    +0.000 A 
ATOM      3  C   UNL     1       0.598  10.537 -16.957  0.00  0.00    +0.000 A 
ATOM      4  C   UNL     1       0.511  10.168 -15.613  0.00  0.00    +0.000 A 
ATOM      5  C   UNL     1       1.478  10.604 -14.709  0.00  0.00    +0.000 A 
ATOM      6  C   UNL     1       2.520  11.402 -15.163  0.00  0.00    +0.000 A 
ENDROOT
BRANCH   1   8
ATOM      7  C   UNL     1       3.647  13.295 -18.026  0.00  0.00    +0.000 C 
ATOM      8  O   UNL     1       3.707  12.570 -16.804  0.00  0.00    +0.000 OA
ENDBRANCH   1   8
BRANCH   6   9
ATOM      9  O   UNL     1       3.458  11.817 -14.256  0.00  0.00    +0.000 OA
ATOM     10  H   UNL     1       4.029  12.434 -14.753  0.00  0.00    +0.000 HD
ENDBRANCH   6   9
TORSDOF 2
ENDMDL
MODEL 2
REMARK VINA RESULT:    -3.955      2.204      2.994
REMARK INTER + INTRA:          -4.341
REMARK INTER:                  -4.291
REMARK INTRA:                  -0.050
REMARK UNBOUND:                -0.038
REMARK  Name = 
REMARK  3 active torsions:
REMARK  status: ('A' for Active; 'I' for Inactive)
REMARK    1  A    between atoms: C_1  and  O_2
REMARK    2  A    between atoms: O_2  and  C_3
REMARK    3  A    between atoms: C_8  and  O_9
REMARK                            x       y       z     vdW  Elec       q    Type
REMARK                         _______ _______ _______ _____ _____    ______ ____
ROOT
ATOM      1  C   UNL     1       1.019  11.085 -16.587  0.00  0.00    +0.000 A 
ATOM      2  C   UNL     1       2.202  11.717 -16.966  0.00  0.00    +0.000 A 
ATOM      3  C   UNL     1       3.253  11.842 -16.049  0.00  0.00    +0.000 A 
ATOM      4  C   UNL     1       3.126  11.339 -14.753  0.00  0.00    +0.000 A 
ATOM      5  C   UNL     1       1.947  10.705 -14.367  0.00  0.00    +0.000 A 
ATOM      6  C   UNL     1       0.910  10.585 -15.284  0.00  0.00    +0.000 A 
ENDROOT
BRANCH   1   8
ATOM      7  C   UNL     1      -0.624  12.048 -18.008  0.00  0.00    +0.000 C 
ATOM      8  O   UNL     1      -0.087  10.892 -17.377  0.00  0.00    +0.000 OA
ENDBRANCH   1   8
BRANCH   6   9
ATOM      9  O   UNL     1      -0.240   9.959 -14.881  0.00  0.00    +0.000 OA
ATOM     10  H   UNL     1      -0.771  10.661 -14.459  0.00  0.00    +0.000 HD
ENDBRANCH   6   9
TORSDOF 2
ENDMDL
MODEL 3
REMARK VINA RESULT:    -3.937     13.413     14.679
REMARK INTER + INTRA:          -4.320
REMARK INTER:                  -4.274
REMARK INTRA:                  -0.046
REMARK UNBOUND:                -0.038
REMARK  Name = 
REMARK  3 active torsions:
REMARK  status: ('A' for Active; 'I' for Inactive)
REMARK    1  A    between atoms: C_1  and  O_2
REMARK    2  A    between atoms: O_2  and  C_3
REMARK    3  A    between atoms: C_8  and  O_9
REMARK                            x       y       z     vdW  Elec       q    Type
REMARK                         _______ _______ _______ _____ _____    ______ ____
ROOT
ATOM      1  C   UNL     1       0.854  18.965  -3.537  0.00  0.00    +0.000 A 
ATOM      2  C   UNL     1       2.080  19.160  -2.902  0.00  0.00    +0.000 A 
ATOM      3  C   UNL     1       3.268  18.795  -3.547  0.00  0.00    +0.000 A 
ATOM      4  C   UNL     1       3.236  18.235  -4.826  0.00  0.00    +0.000 A 
ATOM      5  C   UNL     1       2.015  18.038  -5.467  0.00  0.00    +0.000 A 
ATOM      6  C   UNL     1       0.841  18.402  -4.819  0.00  0.00    +0.000 A 
ENDROOT
BRANCH   1   8
ATOM      7  C   UNL     1      -0.619  18.904  -1.673  0.00  0.00    +0.000 C 
ATOM      8  O   UNL     1      -0.382  19.273  -3.027  0.00  0.00    +0.000 OA
ENDBRANCH   1   8
BRANCH   6   9
ATOM      9  O   UNL     1      -0.346  18.199  -5.469  0.00  0.00    +0.000 OA
ATOM     10  H   UNL     1      -0.302  17.276  -5.784  0.00  0.00    +0.000 HD
ENDBRANCH   6   9
TORSDOF 2
ENDMDL
MODEL 4
REMARK VINA RESULT:    -3.755     16.114     16.844
REMARK INTER + INTRA:          -4.122
REMARK INTER:                  -4.081
REMARK INTRA:                  -0.042
REMARK UNBOUND:                -0.038
REMARK  Name = 
REMARK  3 active torsions:
REMARK  status: ('A' for Active; 'I' for Inactive)
REMARK    1  A    between atoms: C_1  and  O_2
REMARK    2  A    between atoms: O_2  and  C_3
REMARK    3  A    between atoms: C_8  and  O_9
REMARK                            x       y       z     vdW  Elec       q    Type
REMARK                         _______ _______ _______ _____ _____    ______ ____
ROOT
ATOM      1  C   UNL     1       6.441  19.420  -1.812  0.00  0.00    +0.000 A 
ATOM      2  C   UNL     1       6.194  20.213  -2.932  0.00  0.00    +0.000 A 
ATOM      3  C   UNL     1       4.900  20.291  -3.463  0.00  0.00    +0.000 A 
ATOM      4  C   UNL     1       3.852  19.578  -2.879  0.00  0.00    +0.000 A 
ATOM      5  C   UNL     1       4.090  18.783  -1.760  0.00  0.00    +0.000 A 
ATOM      6  C   UNL     1       5.377  18.712  -1.240  0.00  0.00    +0.000 A 
ENDROOT
BRANCH   1   8
ATOM      7  C   UNL     1       8.543  20.358  -1.222  0.00  0.00    +0.000 C 
ATOM      8  O   UNL     1       7.652  19.250  -1.190  0.00  0.00    +0.000 OA
ENDBRANCH   1   8
BRANCH   6   9
ATOM      9  O   UNL     1       5.587  17.924  -0.140  0.00  0.00    +0.000 OA
ATOM     10  H   UNL     1       5.793  17.042  -0.502  0.00  0.00    +0.000 HD
ENDBRANCH   6   9
TORSDOF 2
ENDMDL
MODEL 5
REMARK VINA RESULT:    -3.741     13.746     14.879
REMARK INTER + INTRA:          -4.107
REMARK INTER:                  -4.057
REMARK INTRA:                  -0.050
REMARK UNBOUND:                -0.038
REMARK  Name = 
REMARK  3 active torsions:
REMARK  status: ('A' for Active; 'I' for Inactive)
REMARK    1  A    between atoms: C_1  and  O_2
REMARK    2  A    between atoms: O_2  and  C_3
REMARK    3  A    between atoms: C_8  and  O_9
REMARK                            x       y       z     vdW  Elec       q    Type
REMARK                         _______ _______ _______ _____ _____    ______ ____
ROOT
ATOM      1  C   UNL     1       2.347  18.477  -2.752  0.00  0.00    +0.000 A 
ATOM      2  C   UNL     1       1.205  19.148  -2.316  0.00  0.00    +0.000 A 
ATOM      3  C   UNL     1       0.149  19.383  -3.206  0.00  0.00    +0.000 A 
ATOM      4  C   UNL     1       0.231  18.950  -4.531  0.00  0.00    +0.000 A 
ATOM      5  C   UNL     1       1.368  18.278  -4.973  0.00  0.00    +0.000 A 
ATOM      6  C   UNL     1       2.410  18.050  -4.084  0.00  0.00    +0.000 A 
ENDROOT
BRANCH   1   8
ATOM      7  C   UNL     1       4.285  19.274  -1.632  0.00  0.00    +0.000 C 
ATOM      8  O   UNL     1       3.451  18.180  -1.994  0.00  0.00    +0.000 OA
ENDBRANCH   1   8
BRANCH   6   9
ATOM      9  O   UNL     1       3.518  17.388  -4.542  0.00  0.00    +0.000 OA
ATOM     10  H   UNL     1       4.246  18.032  -4.456  0.00  0.00    +0.000 HD
ENDBRANCH   6   9
TORSDOF 2
ENDMDL
MODEL 6
REMARK VINA RESULT:    -3.722     13.518     14.778
REMARK INTER + INTRA:          -4.087
REMARK INTER:                  -4.045
REMARK INTRA:                  -0.042
REMARK UNBOUND:                -0.038
REMARK  Name = 
REMARK  3 active torsions:
REMARK  status: ('A' for Active; 'I' for Inactive)
REMARK    1  A    between atoms: C_1  and  O_2
REMARK    2  A    between atoms: O_2  and  C_3
REMARK    3  A    between atoms: C_8  and  O_9
REMARK                            x       y       z     vdW  Elec       q    Type
REMARK                         _______ _______ _______ _____ _____    ______ ____
ROOT
ATOM      1  C   UNL     1       3.834  18.944  -3.292  0.00  0.00    +0.000 A 
ATOM      2  C   UNL     1       4.518  20.078  -3.728  0.00  0.00    +0.000 A 
ATOM      3  C   UNL     1       4.481  20.440  -5.081  0.00  0.00    +0.000 A 
ATOM      4  C   UNL     1       3.764  19.672  -6.000  0.00  0.00    +0.000 A 
ATOM      5  C   UNL     1       3.078  18.538  -5.571  0.00  0.00    +0.000 A 
ATOM      6  C   UNL     1       3.120  18.186  -4.228  0.00  0.00    +0.000 A 
ENDROOT
BRANCH   1   8
ATOM      7  C   UNL     1       4.956  18.649  -1.218  0.00  0.00    +0.000 C 
ATOM      8  O   UNL     1       3.784  18.473  -2.004  0.00  0.00    +0.000 OA
ENDBRANCH   1   8
BRANCH   6   9
ATOM      9  O   UNL     1       2.438  17.067  -3.831  0.00  0.00    +0.000 OA
ATOM     10  H   UNL     1       1.650  17.040  -4.406  0.00  0.00    +0.000 HD
ENDBRANCH   6   9
TORSDOF 2
ENDMDL
MODEL 7
REMARK VINA RESULT:    -3.699     13.844     14.916
REMARK INTER + INTRA:          -4.062
REMARK INTER:                  -4.015
REMARK INTRA:                  -0.047
REMARK UNBOUND:                -0.038
REMARK  Name = 
REMARK  3 active torsions:
REMARK  status: ('A' for Active; 'I' for Inactive)
REMARK    1  A    between atoms: C_1  and  O_2
REMARK    2  A    between atoms: O_2  and  C_3
REMARK    3  A    between atoms: C_8  and  O_9
REMARK                            x       y       z     vdW  Elec       q    Type
REMARK                         _______ _______ _______ _____ _____    ______ ____
ROOT
ATOM      1  C   UNL     1       2.462  18.335  -2.990  0.00  0.00    +0.000 A 
ATOM      2  C   UNL     1       2.736  17.890  -4.283  0.00  0.00    +0.000 A 
ATOM      3  C   UNL     1       1.775  18.035  -5.291  0.00  0.00    +0.000 A 
ATOM      4  C   UNL     1       0.539  18.622  -5.012  0.00  0.00    +0.000 A 
ATOM      5  C   UNL     1       0.258  19.069  -3.723  0.00  0.00    +0.000 A 
ATOM      6  C   UNL     1       1.217  18.921  -2.729  0.00  0.00    +0.000 A 
ENDROOT
BRANCH   1   8
ATOM      7  C   UNL     1       4.410  19.151  -1.903  0.00  0.00    +0.000 C 
ATOM      8  O   UNL     1       3.304  18.257  -1.910  0.00  0.00    +0.000 OA
ENDBRANCH   1   8
BRANCH   6   9
ATOM      9  O   UNL     1       0.917  19.368  -1.470  0.00  0.00    +0.000 OA
ATOM     10  H   UNL     1       1.160  20.314  -1.478  0.00  0.00    +0.000 HD
ENDBRANCH   6   9
TORSDOF 2
ENDMDL
MODEL 8
REMARK VINA RESULT:    -3.674     22.644     23.674
REMARK INTER + INTRA:          -4.035
REMARK INTER:                  -3.994
REMARK INTRA:                  -0.040
REMARK UNBOUND:                -0.038
REMARK  Name = 
REMARK  3 active torsions:
REMARK  status: ('A' for Active; 'I' for Inactive)
REMARK    1  A    between atoms: C_1  and  O_2
REMARK    2  A    between atoms: O_2  and  C_3
REMARK    3  A    between atoms: C_8  and  O_9
REMARK                            x       y       z     vdW  Elec       q    Type
REMARK                         _______ _______ _______ _____ _____    ______ ____
ROOT
ATOM      1  C   UNL     1      15.744  18.021   1.907  0.00  0.00    +0.000 A 
ATOM      2  C   UNL     1      16.270  17.510   3.093  0.00  0.00    +0.000 A 
ATOM      3  C   UNL     1      17.333  16.599   3.051  0.00  0.00    +0.000 A 
ATOM      4  C   UNL     1      17.873  16.197   1.828  0.00  0.00    +0.000 A 
ATOM      5  C   UNL     1      17.353  16.704   0.639  0.00  0.00    +0.000 A 
ATOM      6  C   UNL     1      16.299  17.606   0.690  0.00  0.00    +0.000 A 
ENDROOT
BRANCH   1   8
ATOM      7  C   UNL     1      13.761  18.921   2.859  0.00  0.00    +0.000 C 
ATOM      8  O   UNL     1      14.709  18.915   1.798  0.00  0.00    +0.000 OA
ENDBRANCH   1   8
BRANCH   6   9
ATOM      9  O   UNL     1      15.805  18.091  -0.492  0.00  0.00    +0.000 OA
ATOM     10  H   UNL     1      16.106  19.019  -0.525  0.00  0.00    +0.000 HD
ENDBRANCH   6   9
TORSDOF 2
ENDMDL
MODEL 9
REMARK VINA RESULT:    -3.597     13.272     14.328
REMARK INTER + INTRA:          -3.950
REMARK INTER:                  -3.906
REMARK INTRA:                  -0.045
REMARK UNBOUND:                -0.038
REMARK  Name = 
REMARK  3 active torsions:
REMARK  status: ('A' for Active; 'I' for Inactive)
REMARK    1  A    between atoms: C_1  and  O_2
REMARK    2  A    between atoms: O_2  and  C_3
REMARK    3  A    between atoms: C_8  and  O_9
REMARK                            x       y       z     vdW  Elec       q    Type
REMARK                         _______ _______ _______ _____ _____    ______ ____
ROOT
ATOM      1  C   UNL     1       2.868  18.731  -4.823  0.00  0.00    +0.000 A 
ATOM      2  C   UNL     1       3.383  19.687  -5.698  0.00  0.00    +0.000 A 
ATOM      3  C   UNL     1       4.505  20.440  -5.329  0.00  0.00    +0.000 A 
ATOM      4  C   UNL     1       5.115  20.241  -4.089  0.00  0.00    +0.000 A 
ATOM      5  C   UNL     1       4.606  19.287  -3.210  0.00  0.00    +0.000 A 
ATOM      6  C   UNL     1       3.492  18.546  -3.584  0.00  0.00    +0.000 A 
ENDROOT
BRANCH   1   8
ATOM      7  C   UNL     1       0.503  18.550  -4.974  0.00  0.00    +0.000 C 
ATOM      8  O   UNL     1       1.780  17.927  -5.051  0.00  0.00    +0.000 OA
ENDBRANCH   1   8
BRANCH   6   9
ATOM      9  O   UNL     1       3.010  17.614  -2.703  0.00  0.00    +0.000 OA
ATOM     10  H   UNL     1       2.153  17.974  -2.406  0.00  0.00    +0.000 HD
ENDBRANCH   6   9
TORSDOF 2
ENDMDL
