MODEL 1
REMARK VINA RESULT:    -4.694      0.000      0.000
REMARK INTER + INTRA:          -7.060
REMARK INTER:                  -6.341
REMARK INTRA:                  -0.720
REMARK UNBOUND:                -0.720
REMARK  Name = 
REMARK  10 active torsions:
REMARK  status: ('A' for Active; 'I' for Inactive)
REMARK    1  A    between atoms: C_1  and  C_2
REMARK    2  A    between atoms: C_5  and  N_8
REMARK    3  A    between atoms: N_8  and  C_9
REMARK    4  A    between atoms: N_8  and  C_13
REMARK    5  A    between atoms: C_9  and  C_10
REMARK    6  A    between atoms: C_10  and  C_11
REMARK    7  A    between atoms: C_10  and  O_12
REMARK    8  A    between atoms: C_13  and  C_14
REMARK    9  A    between atoms: C_14  and  C_15
REMARK   10  A    between atoms: C_14  and  O_16
REMARK                            x       y       z     vdW  Elec       q    Type
REMARK                         _______ _______ _______ _____ _____    ______ ____
ROOT
ATOM      1  N   UNL     1      15.331   1.367   8.984  0.00  0.00    +0.000 N 
ENDROOT
BRANCH   1   6
ATOM      2  C   UNL     1      12.533  -3.563   7.889  0.00  0.00    +0.000 C 
ATOM      3  C   UNL     1      13.256  -2.276   8.149  0.00  0.00    +0.000 A 
ATOM      4  C   UNL     1      14.636  -2.190   8.004  0.00  0.00    +0.000 A 
ATOM      5  C   UNL     1      15.312  -0.990   8.279  0.00  0.00    +0.000 A 
ATOM      6  C   UNL     1      14.653   0.168   8.731  0.00  0.00    +0.000 A 
ATOM      7  C   UNL     1      13.258   0.045   8.864  0.00  0.00    +0.000 A 
ATOM      8  C   UNL     1      12.570  -1.149   8.591  0.00  0.00    +0.000 A 
ENDBRANCH   1   6
BRANCH   1   9
ATOM      9  C   UNL     1      15.827   2.193   7.857  0.00  0.00    +0.000 C 
BRANCH   9  10
ATOM     10  C   UNL     1      15.132   3.575   7.775  0.00  0.00    +0.000 C 
ATOM     11  C   UNL     1      15.162   4.116   6.351  0.00  0.00    +0.000 C 
BRANCH  10  12
ATOM     12  O   UNL     1      13.762   3.487   8.188  0.00  0.00    +0.000 OA
ATOM     13  H   UNL     1      13.227   3.251   7.412  0.00  0.00    +0.000 HD
ENDBRANCH  10  12
ENDBRANCH   9  10
ENDBRANCH   1   9
BRANCH   1  14
ATOM     14  C   UNL     1      16.016   1.604  10.281  0.00  0.00    +0.000 C 
BRANCH  14  15
ATOM     15  C   UNL     1      15.023   1.982  11.406  0.00  0.00    +0.000 C 
ATOM     16  C   UNL     1      15.711   2.332  12.720  0.00  0.00    +0.000 C 
BRANCH  15  17
ATOM     17  O   UNL     1      14.197   3.083  11.032  0.00  0.00    +0.000 OA
ATOM     18  H   UNL     1      13.607   2.732  10.335  0.00  0.00    +0.000 HD
ENDBRANCH  15  17
ENDBRANCH  14  15
ENDBRANCH   1  14
TORSDOF 7
ENDMDL
MODEL 2
REMARK VINA RESULT:    -4.480      1.279      5.067
REMARK INTER + INTRA:          -6.771
REMARK INTER:                  -5.999
REMARK INTRA:                  -0.773
REMARK UNBOUND:                -0.720
REMARK  Name = 
REMARK  10 active torsions:
REMARK  status: ('A' for Active; 'I' for Inactive)
REMARK    1  A    between atoms: C_1  and  C_2
REMARK    2  A    between atoms: C_5  and  N_8
REMARK    3  A    between atoms: N_8  and  C_9
REMARK    4  A    between atoms: N_8  and  C_13
REMARK    5  A    between atoms: C_9  and  C_10
REMARK    6  A    between atoms: C_10  and  C_11
REMARK    7  A    between atoms: C_10  and  O_12
REMARK    8  A    between atoms: C_13  and  C_14
REMARK    9  A    between atoms: C_14  and  C_15
REMARK   10  A    between atoms: C_14  and  O_16
REMARK                            x       y       z     vdW  Elec       q    Type
REMARK                         _______ _______ _______ _____ _____    ______ ____
ROOT
ATOM      1  N   UNL     1      15.197   1.487   9.212  0.00  0.00    +0.000 N 
ENDROOT
BRANCH   1   6
ATOM      2  C   UNL     1      15.521   5.397   4.977  0.00  0.00    +0.000 C 
ATOM      3  C   UNL     1      15.451   4.397   6.091  0.00  0.00    +0.000 A 
ATOM      4  C   UNL     1      16.373   3.359   6.177  0.00  0.00    +0.000 A 
ATOM      5  C   UNL     1      16.284   2.407   7.206  0.00  0.00    +0.000 A 
ATOM      6  C   UNL     1      15.268   2.428   8.178  0.00  0.00    +0.000 A 
ATOM      7  C   UNL     1      14.355   3.493   8.060  0.00  0.00    +0.000 A 
ATOM      8  C   UNL     1      14.433   4.453   7.038  0.00  0.00    +0.000 A 
ENDBRANCH   1   6
BRANCH   1   9
ATOM      9  C   UNL     1      15.972   1.693  10.459  0.00  0.00    +0.000 C 
BRANCH   9  10
ATOM     10  C   UNL     1      15.073   1.792  11.715  0.00  0.00    +0.000 C 
ATOM     11  C   UNL     1      15.806   2.485  12.858  0.00  0.00    +0.000 C 
BRANCH  10  12
ATOM     12  O   UNL     1      13.879   2.537  11.436  0.00  0.00    +0.000 OA
ATOM     13  H   UNL     1      13.468   2.776  12.284  0.00  0.00    +0.000 HD
ENDBRANCH  10  12
ENDBRANCH   9  10
ENDBRANCH   1   9
BRANCH   1  14
ATOM     14  C   UNL     1      14.808   0.078   8.945  0.00  0.00    +0.000 C 
BRANCH  14  15
ATOM     15  C   UNL     1      13.292  -0.066   8.665  0.00  0.00    +0.000 C 
ATOM     16  C   UNL     1      12.791  -1.499   8.802  0.00  0.00    +0.000 C 
BRANCH  15  17
ATOM     17  O   UNL     1      12.516   0.759   9.532  0.00  0.00    +0.000 OA
ATOM     18  H   UNL     1      12.749   1.676   9.284  0.00  0.00    +0.000 HD
ENDBRANCH  15  17
ENDBRANCH  14  15
ENDBRANCH   1  14
TORSDOF 7
ENDMDL
MODEL 3
REMARK VINA RESULT:    -4.382      0.714      3.060
REMARK INTER + INTRA:          -6.639
REMARK INTER:                  -6.000
REMARK INTRA:                  -0.639
REMARK UNBOUND:                -0.720
REMARK  Name = 
REMARK  10 active torsions:
REMARK  status: ('A' for Active; 'I' for Inactive)
REMARK    1  A    between atoms: C_1  and  C_2
REMARK    2  A    between atoms: C_5  and  N_8
REMARK    3  A    between atoms: N_8  and  C_9
REMARK    4  A    between atoms: N_8  and  C_13
REMARK    5  A    between atoms: C_9  and  C_10
REMARK    6  A    between atoms: C_10  and  C_11
REMARK    7  A    between atoms: C_10  and  O_12
REMARK    8  A    between atoms: C_13  and  C_14
REMARK    9  A    between atoms: C_14  and  C_15
REMARK   10  A    between atoms: C_14  and  O_16
REMARK                            x       y       z     vdW  Elec       q    Type
REMARK                         _______ _______ _______ _____ _____    ______ ____
ROOT
ATOM      1  N   UNL     1      15.626   1.134   8.951  0.00  0.00    +0.000 N 
ENDROOT
BRANCH   1   6
ATOM      2  C   UNL     1      12.191  -3.494   9.283  0.00  0.00    +0.000 C 
ATOM      3  C   UNL     1      13.088  -2.299   9.173  0.00  0.00    +0.000 A 
ATOM      4  C   UNL     1      14.428  -2.376   9.539  0.00  0.00    +0.000 A 
ATOM      5  C   UNL     1      15.256  -1.244   9.463  0.00  0.00    +0.000 A 
ATOM      6  C   UNL     1      14.789   0.014   9.044  0.00  0.00    +0.000 A 
ATOM      7  C   UNL     1      13.431   0.054   8.680  0.00  0.00    +0.000 A 
ATOM      8  C   UNL     1      12.592  -1.070   8.750  0.00  0.00    +0.000 A 
ENDBRANCH   1   6
BRANCH   1   9
ATOM      9  C   UNL     1      16.051   1.848  10.179  0.00  0.00    +0.000 C 
BRANCH   9  10
ATOM     10  C   UNL     1      14.932   1.923  11.247  0.00  0.00    +0.000 C 
ATOM     11  C   UNL     1      15.521   2.045  12.647  0.00  0.00    +0.000 C 
BRANCH  10  12
ATOM     12  O   UNL     1      14.082   3.057  11.023  0.00  0.00    +0.000 OA
ATOM     13  H   UNL     1      13.472   2.838  10.298  0.00  0.00    +0.000 HD
ENDBRANCH  10  12
ENDBRANCH   9  10
ENDBRANCH   1   9
BRANCH   1  14
ATOM     14  C   UNL     1      15.700   1.938   7.704  0.00  0.00    +0.000 C 
BRANCH  14  15
ATOM     15  C   UNL     1      15.173   3.379   7.906  0.00  0.00    +0.000 C 
ATOM     16  C   UNL     1      15.510   4.308   6.746  0.00  0.00    +0.000 C 
BRANCH  15  17
ATOM     17  O   UNL     1      13.759   3.402   8.095  0.00  0.00    +0.000 OA
ATOM     18  H   UNL     1      13.398   2.858   7.366  0.00  0.00    +0.000 HD
ENDBRANCH  15  17
ENDBRANCH  14  15
ENDBRANCH   1  14
TORSDOF 7
ENDMDL
MODEL 4
REMARK VINA RESULT:    -4.194      1.733      4.866
REMARK INTER + INTRA:          -6.384
REMARK INTER:                  -5.888
REMARK INTRA:                  -0.496
REMARK UNBOUND:                -0.720
REMARK  Name = 
REMARK  10 active torsions:
REMARK  status: ('A' for Active; 'I' for Inactive)
REMARK    1  A    between atoms: C_1  and  C_2
REMARK    2  A    between atoms: C_5  and  N_8
REMARK    3  A    between atoms: N_8  and  C_9
REMARK    4  A    between atoms: N_8  and  C_13
REMARK    5  A    between atoms: C_9  and  C_10
REMARK    6  A    between atoms: C_10  and  C_11
REMARK    7  A    between atoms: C_10  and  O_12
REMARK    8  A    between atoms: C_13  and  C_14
REMARK    9  A    between atoms: C_14  and  C_15
REMARK   10  A    between atoms: C_14  and  O_16
REMARK                            x       y       z     vdW  Elec       q    Type
REMARK                         _______ _______ _______ _____ _____    ______ ____
ROOT
ATOM      1  N   UNL     1      15.132   1.855   9.285  0.00  0.00    +0.000 N 
ENDROOT
BRANCH   1   6
ATOM      2  C   UNL     1      15.515   5.390   4.738  0.00  0.00    +0.000 C 
ATOM      3  C   UNL     1      15.403   4.457   5.904  0.00  0.00    +0.000 A 
ATOM      4  C   UNL     1      14.353   4.568   6.810  0.00  0.00    +0.000 A 
ATOM      5  C   UNL     1      14.269   3.709   7.918  0.00  0.00    +0.000 A 
ATOM      6  C   UNL     1      15.232   2.720   8.189  0.00  0.00    +0.000 A 
ATOM      7  C   UNL     1      16.278   2.635   7.252  0.00  0.00    +0.000 A 
ATOM      8  C   UNL     1      16.373   3.486   6.138  0.00  0.00    +0.000 A 
ENDBRANCH   1   6
BRANCH   1   9
ATOM      9  C   UNL     1      13.831   1.226   9.619  0.00  0.00    +0.000 C 
BRANCH   9  10
ATOM     10  C   UNL     1      13.549  -0.048   8.785  0.00  0.00    +0.000 C 
ATOM     11  C   UNL     1      14.343  -1.235   9.317  0.00  0.00    +0.000 C 
BRANCH  10  12
ATOM     12  O   UNL     1      12.157  -0.391   8.825  0.00  0.00    +0.000 OA
ATOM     13  H   UNL     1      12.052  -1.159   9.412  0.00  0.00    +0.000 HD
ENDBRANCH  10  12
ENDBRANCH   9  10
ENDBRANCH   1   9
BRANCH   1  14
ATOM     14  C   UNL     1      16.099   1.923  10.411  0.00  0.00    +0.000 C 
BRANCH  14  15
ATOM     15  C   UNL     1      15.392   2.026  11.784  0.00  0.00    +0.000 C 
ATOM     16  C   UNL     1      15.906   1.013  12.800  0.00  0.00    +0.000 C 
BRANCH  15  17
ATOM     17  O   UNL     1      15.527   3.328  12.350  0.00  0.00    +0.000 OA
ATOM     18  H   UNL     1      14.807   3.855  11.949  0.00  0.00    +0.000 HD
ENDBRANCH  15  17
ENDBRANCH  14  15
ENDBRANCH   1  14
TORSDOF 7
ENDMDL
MODEL 5
REMARK VINA RESULT:    -4.188      1.320      1.807
REMARK INTER + INTRA:          -6.377
REMARK INTER:                  -5.717
REMARK INTRA:                  -0.660
REMARK UNBOUND:                -0.720
REMARK  Name = 
REMARK  10 active torsions:
REMARK  status: ('A' for Active; 'I' for Inactive)
REMARK    1  A    between atoms: C_1  and  C_2
REMARK    2  A    between atoms: C_5  and  N_8
REMARK    3  A    between atoms: N_8  and  C_9
REMARK    4  A    between atoms: N_8  and  C_13
REMARK    5  A    between atoms: C_9  and  C_10
REMARK    6  A    between atoms: C_10  and  C_11
REMARK    7  A    between atoms: C_10  and  O_12
REMARK    8  A    between atoms: C_13  and  C_14
REMARK    9  A    between atoms: C_14  and  C_15
REMARK   10  A    between atoms: C_14  and  O_16
REMARK                            x       y       z     vdW  Elec       q    Type
REMARK                         _______ _______ _______ _____ _____    ______ ____
ROOT
ATOM      1  N   UNL     1      14.522   1.105  10.058  0.00  0.00    +0.000 N 
ENDROOT
BRANCH   1   6
ATOM      2  C   UNL     1      13.121  -3.487   6.852  0.00  0.00    +0.000 C 
ATOM      3  C   UNL     1      13.481  -2.310   7.705  0.00  0.00    +0.000 A 
ATOM      4  C   UNL     1      12.511  -1.403   8.117  0.00  0.00    +0.000 A 
ATOM      5  C   UNL     1      12.859  -0.284   8.891  0.00  0.00    +0.000 A 
ATOM      6  C   UNL     1      14.184  -0.003   9.270  0.00  0.00    +0.000 A 
ATOM      7  C   UNL     1      15.139  -0.941   8.837  0.00  0.00    +0.000 A 
ATOM      8  C   UNL     1      14.804  -2.066   8.064  0.00  0.00    +0.000 A 
ENDBRANCH   1   6
BRANCH   1   9
ATOM      9  C   UNL     1      14.249   2.477   9.568  0.00  0.00    +0.000 C 
BRANCH   9  10
ATOM     10  C   UNL     1      15.061   2.834   8.299  0.00  0.00    +0.000 C 
ATOM     11  C   UNL     1      14.346   3.898   7.475  0.00  0.00    +0.000 C 
BRANCH  10  12
ATOM     12  O   UNL     1      16.360   3.337   8.643  0.00  0.00    +0.000 OA
ATOM     13  H   UNL     1      16.333   4.306   8.582  0.00  0.00    +0.000 HD
ENDBRANCH  10  12
ENDBRANCH   9  10
ENDBRANCH   1   9
BRANCH   1  14
ATOM     14  C   UNL     1      15.573   1.013  11.103  0.00  0.00    +0.000 C 
BRANCH  14  15
ATOM     15  C   UNL     1      15.659   2.298  11.960  0.00  0.00    +0.000 C 
ATOM     16  C   UNL     1      15.584   2.027  13.458  0.00  0.00    +0.000 C 
BRANCH  15  17
ATOM     17  O   UNL     1      16.860   3.025  11.703  0.00  0.00    +0.000 OA
ATOM     18  H   UNL     1      17.489   2.359  11.359  0.00  0.00    +0.000 HD
ENDBRANCH  15  17
ENDBRANCH  14  15
ENDBRANCH   1  14
TORSDOF 7
ENDMDL
MODEL 6
REMARK VINA RESULT:    -4.176      4.656      8.555
REMARK INTER + INTRA:          -6.361
REMARK INTER:                  -6.086
REMARK INTRA:                  -0.275
REMARK UNBOUND:                -0.720
REMARK  Name = 
REMARK  10 active torsions:
REMARK  status: ('A' for Active; 'I' for Inactive)
REMARK    1  A    between atoms: C_1  and  C_2
REMARK    2  A    between atoms: C_5  and  N_8
REMARK    3  A    between atoms: N_8  and  C_9
REMARK    4  A    between atoms: N_8  and  C_13
REMARK    5  A    between atoms: C_9  and  C_10
REMARK    6  A    between atoms: C_10  and  C_11
REMARK    7  A    between atoms: C_10  and  O_12
REMARK    8  A    between atoms: C_13  and  C_14
REMARK    9  A    between atoms: C_14  and  C_15
REMARK   10  A    between atoms: C_14  and  O_16
REMARK                            x       y       z     vdW  Elec       q    Type
REMARK                         _______ _______ _______ _____ _____    ______ ____
ROOT
ATOM      1  N   UNL     1      16.207   5.186   4.779  0.00  0.00    +0.000 N 
ENDROOT
BRANCH   1   6
ATOM      2  C   UNL     1      19.316   9.379   2.313  0.00  0.00    +0.000 C 
ATOM      3  C   UNL     1      18.490   8.296   2.938  0.00  0.00    +0.000 A 
ATOM      4  C   UNL     1      17.710   8.551   4.061  0.00  0.00    +0.000 A 
ATOM      5  C   UNL     1      16.961   7.525   4.660  0.00  0.00    +0.000 A 
ATOM      6  C   UNL     1      16.971   6.200   4.188  0.00  0.00    +0.000 A 
ATOM      7  C   UNL     1      17.769   5.979   3.051  0.00  0.00    +0.000 A 
ATOM      8  C   UNL     1      18.521   6.997   2.440  0.00  0.00    +0.000 A 
ENDBRANCH   1   6
BRANCH   1   9
ATOM      9  C   UNL     1      15.547   4.163   3.933  0.00  0.00    +0.000 C 
BRANCH   9  10
ATOM     10  C   UNL     1      16.494   3.001   3.547  0.00  0.00    +0.000 C 
ATOM     11  C   UNL     1      16.948   2.234   4.783  0.00  0.00    +0.000 C 
BRANCH  10  12
ATOM     12  O   UNL     1      15.843   2.077   2.665  0.00  0.00    +0.000 OA
ATOM     13  H   UNL     1      15.718   2.516   1.807  0.00  0.00    +0.000 HD
ENDBRANCH  10  12
ENDBRANCH   9  10
ENDBRANCH   1   9
BRANCH   1  14
ATOM     14  C   UNL     1      15.609   5.361   6.128  0.00  0.00    +0.000 C 
BRANCH  14  15
ATOM     15  C   UNL     1      14.365   4.464   6.336  0.00  0.00    +0.000 C 
ATOM     16  C   UNL     1      14.366   3.738   7.676  0.00  0.00    +0.000 C 
BRANCH  15  17
ATOM     17  O   UNL     1      13.153   5.212   6.240  0.00  0.00    +0.000 OA
ATOM     18  H   UNL     1      12.471   4.556   5.992  0.00  0.00    +0.000 HD
ENDBRANCH  15  17
ENDBRANCH  14  15
ENDBRANCH   1  14
TORSDOF 7
ENDMDL
MODEL 7
REMARK VINA RESULT:    -4.154      8.067     10.501
REMARK INTER + INTRA:          -6.331
REMARK INTER:                  -5.811
REMARK INTRA:                  -0.520
REMARK UNBOUND:                -0.720
REMARK  Name = 
REMARK  10 active torsions:
REMARK  status: ('A' for Active; 'I' for Inactive)
REMARK    1  A    between atoms: C_1  and  C_2
REMARK    2  A    between atoms: C_5  and  N_8
REMARK    3  A    between atoms: N_8  and  C_9
REMARK    4  A    between atoms: N_8  and  C_13
REMARK    5  A    between atoms: C_9  and  C_10
REMARK    6  A    between atoms: C_10  and  C_11
REMARK    7  A    between atoms: C_10  and  O_12
REMARK    8  A    between atoms: C_13  and  C_14
REMARK    9  A    between atoms: C_14  and  C_15
REMARK   10  A    between atoms: C_14  and  O_16
REMARK                            x       y       z     vdW  Elec       q    Type
REMARK                         _______ _______ _______ _____ _____    ______ ____
ROOT
ATOM      1  N   UNL     1      18.217  -2.109   1.383  0.00  0.00    +0.000 N 
ENDROOT
BRANCH   1   6
ATOM      2  C   UNL     1      19.513   3.481   2.016  0.00  0.00    +0.000 C 
ATOM      3  C   UNL     1      19.165   2.035   1.830  0.00  0.00    +0.000 A 
ATOM      4  C   UNL     1      18.012   1.500   2.395  0.00  0.00    +0.000 A 
ATOM      5  C   UNL     1      17.706   0.138   2.243  0.00  0.00    +0.000 A 
ATOM      6  C   UNL     1      18.539  -0.756   1.547  0.00  0.00    +0.000 A 
ATOM      7  C   UNL     1      19.694  -0.180   0.988  0.00  0.00    +0.000 A 
ATOM      8  C   UNL     1      20.011   1.181   1.130  0.00  0.00    +0.000 A 
ENDBRANCH   1   6
BRANCH   1   9
ATOM      9  C   UNL     1      17.896  -2.946   2.564  0.00  0.00    +0.000 C 
BRANCH   9  10
ATOM     10  C   UNL     1      16.544  -3.687   2.425  0.00  0.00    +0.000 C 
ATOM     11  C   UNL     1      16.000  -4.089   3.791  0.00  0.00    +0.000 C 
BRANCH  10  12
ATOM     12  O   UNL     1      15.566  -2.857   1.784  0.00  0.00    +0.000 OA
ATOM     13  H   UNL     1      15.773  -2.826   0.835  0.00  0.00    +0.000 HD
ENDBRANCH  10  12
ENDBRANCH   9  10
ENDBRANCH   1   9
BRANCH   1  14
ATOM     14  C   UNL     1      18.664  -2.866   0.185  0.00  0.00    +0.000 C 
BRANCH  14  15
ATOM     15  C   UNL     1      17.681  -2.716  -1.001  0.00  0.00    +0.000 C 
ATOM     16  C   UNL     1      17.987  -1.512  -1.884  0.00  0.00    +0.000 C 
BRANCH  15  17
ATOM     17  O   UNL     1      17.671  -3.879  -1.827  0.00  0.00    +0.000 OA
ATOM     18  H   UNL     1      17.142  -4.537  -1.332  0.00  0.00    +0.000 HD
ENDBRANCH  15  17
ENDBRANCH  14  15
ENDBRANCH   1  14
TORSDOF 7
ENDMDL
MODEL 8
REMARK VINA RESULT:    -4.095      3.748      7.000
REMARK INTER + INTRA:          -6.252
REMARK INTER:                  -5.827
REMARK INTRA:                  -0.425
REMARK UNBOUND:                -0.720
REMARK  Name = 
REMARK  10 active torsions:
REMARK  status: ('A' for Active; 'I' for Inactive)
REMARK    1  A    between atoms: C_1  and  C_2
REMARK    2  A    between atoms: C_5  and  N_8
REMARK    3  A    between atoms: N_8  and  C_9
REMARK    4  A    between atoms: N_8  and  C_13
REMARK    5  A    between atoms: C_9  and  C_10
REMARK    6  A    between atoms: C_10  and  C_11
REMARK    7  A    between atoms: C_10  and  O_12
REMARK    8  A    between atoms: C_13  and  C_14
REMARK    9  A    between atoms: C_14  and  C_15
REMARK   10  A    between atoms: C_14  and  O_16
REMARK                            x       y       z     vdW  Elec       q    Type
REMARK                         _______ _______ _______ _____ _____    ______ ____
ROOT
ATOM      1  N   UNL     1      15.429   2.424  13.905  0.00  0.00    +0.000 N 
ENDROOT
BRANCH   1   6
ATOM      2  C   UNL     1      14.155   0.746  19.280  0.00  0.00    +0.000 C 
ATOM      3  C   UNL     1      14.486   1.205  17.893  0.00  0.00    +0.000 A 
ATOM      4  C   UNL     1      13.480   1.485  16.974  0.00  0.00    +0.000 A 
ATOM      5  C   UNL     1      13.797   1.886  15.666  0.00  0.00    +0.000 A 
ATOM      6  C   UNL     1      15.121   2.004  15.205  0.00  0.00    +0.000 A 
ATOM      7  C   UNL     1      16.111   1.715  16.161  0.00  0.00    +0.000 A 
ATOM      8  C   UNL     1      15.809   1.315  17.473  0.00  0.00    +0.000 A 
ENDBRANCH   1   6
BRANCH   1   9
ATOM      9  C   UNL     1      14.874   1.696  12.738  0.00  0.00    +0.000 C 
BRANCH   9  10
ATOM     10  C   UNL     1      15.283   2.331  11.386  0.00  0.00    +0.000 C 
ATOM     11  C   UNL     1      15.658   1.257  10.371  0.00  0.00    +0.000 C 
BRANCH  10  12
ATOM     12  O   UNL     1      14.208   3.106  10.835  0.00  0.00    +0.000 OA
ATOM     13  H   UNL     1      14.553   3.599  10.072  0.00  0.00    +0.000 HD
ENDBRANCH  10  12
ENDBRANCH   9  10
ENDBRANCH   1   9
BRANCH   1  14
ATOM     14  C   UNL     1      16.654   3.215  13.622  0.00  0.00    +0.000 C 
BRANCH  14  15
ATOM     15  C   UNL     1      16.581   4.639  14.224  0.00  0.00    +0.000 C 
ATOM     16  C   UNL     1      17.944   5.311  14.342  0.00  0.00    +0.000 C 
BRANCH  15  17
ATOM     17  O   UNL     1      15.733   5.493  13.458  0.00  0.00    +0.000 OA
ATOM     18  H   UNL     1      15.512   4.976  12.657  0.00  0.00    +0.000 HD
ENDBRANCH  15  17
ENDBRANCH  14  15
ENDBRANCH   1  14
TORSDOF 7
ENDMDL
MODEL 9
REMARK VINA RESULT:    -2.150      8.127     10.009
REMARK INTER + INTRA:          -3.623
REMARK INTER:                  -3.050
REMARK INTRA:                  -0.573
REMARK UNBOUND:                -0.720
REMARK  Name = 
REMARK  10 active torsions:
REMARK  status: ('A' for Active; 'I' for Inactive)
REMARK    1  A    between atoms: C_1  and  C_2
REMARK    2  A    between atoms: C_5  and  N_8
REMARK    3  A    between atoms: N_8  and  C_9
REMARK    4  A    between atoms: N_8  and  C_13
REMARK    5  A    between atoms: C_9  and  C_10
REMARK    6  A    between atoms: C_10  and  C_11
REMARK    7  A    between atoms: C_10  and  O_12
REMARK    8  A    between atoms: C_13  and  C_14
REMARK    9  A    between atoms: C_14  and  C_15
REMARK   10  A    between atoms: C_14  and  O_16
REMARK                            x       y       z     vdW  Elec       q    Type
REMARK                         _______ _______ _______ _____ _____    ______ ____
ROOT
ATOM      1  N   UNL     1      18.035  -2.130   1.329  0.00  0.00    +0.000 N 
ENDROOT
BRANCH   1   6
ATOM      2  C   UNL     1      19.581   3.393   1.995  0.00  0.00    +0.000 C 
ATOM      3  C   UNL     1      19.193   1.954   1.843  0.00  0.00    +0.000 A 
ATOM      4  C   UNL     1      19.935   1.096   1.037  0.00  0.00    +0.000 A 
ATOM      5  C   UNL     1      19.550  -0.245   0.874  0.00  0.00    +0.000 A 
ATOM      6  C   UNL     1      18.402  -0.787   1.481  0.00  0.00    +0.000 A 
ATOM      7  C   UNL     1      17.678   0.109   2.289  0.00  0.00    +0.000 A 
ATOM      8  C   UNL     1      18.053   1.451   2.463  0.00  0.00    +0.000 A 
ENDBRANCH   1   6
BRANCH   1   9
ATOM      9  C   UNL     1      18.562  -2.920   0.191  0.00  0.00    +0.000 C 
BRANCH   9  10
ATOM     10  C   UNL     1      17.575  -2.990  -1.000  0.00  0.00    +0.000 C 
ATOM     11  C   UNL     1      17.700  -1.756  -1.884  0.00  0.00    +0.000 C 
BRANCH  10  12
ATOM     12  O   UNL     1      17.828  -4.146  -1.811  0.00  0.00    +0.000 OA
ATOM     13  H   UNL     1      17.869  -4.921  -1.227  0.00  0.00    +0.000 HD
ENDBRANCH  10  12
ENDBRANCH   9  10
ENDBRANCH   1   9
BRANCH   1  14
ATOM     14  C   UNL     1      16.781  -2.656   1.928  0.00  0.00    +0.000 C 
BRANCH  14  15
ATOM     15  C   UNL     1      17.043  -3.859   2.866  0.00  0.00    +0.000 C 
ATOM     16  C   UNL     1      17.858  -3.491   4.100  0.00  0.00    +0.000 C 
BRANCH  15  17
ATOM     17  O   UNL     1      15.825  -4.460   3.304  0.00  0.00    +0.000 OA
ATOM     18  H   UNL     1      15.219  -3.711   3.473  0.00  0.00    +0.000 HD
ENDBRANCH  15  17
ENDBRANCH  14  15
ENDBRANCH   1  14
TORSDOF 7
ENDMDL
