MODEL 1
REMARK VINA RESULT:    -4.283      0.000      0.000
REMARK INTER + INTRA:          -6.205
REMARK INTER:                  -5.785
REMARK INTRA:                  -0.420
REMARK UNBOUND:                -0.420
REMARK  Name = 
REMARK  10 active torsions:
REMARK  status: ('A' for Active; 'I' for Inactive)
REMARK    1  A    between atoms: C_1  and  C_2
REMARK    2  A    between atoms: C_5  and  N_8
REMARK    3  A    between atoms: N_8  and  C_9
REMARK    4  A    between atoms: N_8  and  C_13
REMARK    5  A    between atoms: C_9  and  C_10
REMARK    6  A    between atoms: C_10  and  C_11
REMARK    7  A    between atoms: C_10  and  O_12
REMARK    8  A    between atoms: C_13  and  C_14
REMARK    9  A    between atoms: C_14  and  C_15
REMARK   10  A    between atoms: C_14  and  O_16
REMARK                            x       y       z     vdW  Elec       q    Type
REMARK                         _______ _______ _______ _____ _____    ______ ____
ROOT
ATOM      1  N   UNL     1       9.207  20.791  -2.004  0.00  0.00    +0.000 N 
ENDROOT
BRANCH   1   6
ATOM      2  C   UNL     1       8.540  22.367  -7.518  0.00  0.00    +0.000 C 
ATOM      3  C   UNL     1       8.715  21.982  -6.081  0.00  0.00    +0.000 A 
ATOM      4  C   UNL     1       9.976  21.702  -5.565  0.00  0.00    +0.000 A 
ATOM      5  C   UNL     1      10.131  21.312  -4.225  0.00  0.00    +0.000 A 
ATOM      6  C   UNL     1       9.043  21.161  -3.345  0.00  0.00    +0.000 A 
ATOM      7  C   UNL     1       7.784  21.455  -3.900  0.00  0.00    +0.000 A 
ATOM      8  C   UNL     1       7.615  21.847  -5.238  0.00  0.00    +0.000 A 
ENDBRANCH   1   6
BRANCH   1   9
ATOM      9  C   UNL     1       8.053  20.275  -1.229  0.00  0.00    +0.000 C 
BRANCH   9  10
ATOM     10  C   UNL     1       7.819  18.759  -1.438  0.00  0.00    +0.000 C 
ATOM     11  C   UNL     1       7.982  17.997  -0.129  0.00  0.00    +0.000 C 
BRANCH  10  12
ATOM     12  O   UNL     1       6.498  18.506  -1.938  0.00  0.00    +0.000 OA
ATOM     13  H   UNL     1       6.462  17.584  -2.240  0.00  0.00    +0.000 HD
ENDBRANCH  10  12
ENDBRANCH   9  10
ENDBRANCH   1   9
BRANCH   1  14
ATOM     14  C   UNL     1      10.312  21.347  -1.183  0.00  0.00    +0.000 C 
BRANCH  14  15
ATOM     15  C   UNL     1      11.349  20.267  -0.791  0.00  0.00    +0.000 C 
ATOM     16  C   UNL     1      11.357  19.072  -1.737  0.00  0.00    +0.000 C 
BRANCH  15  17
ATOM     17  O   UNL     1      12.672  20.799  -0.741  0.00  0.00    +0.000 OA
ATOM     18  H   UNL     1      13.207  20.107  -0.303  0.00  0.00    +0.000 HD
ENDBRANCH  15  17
ENDBRANCH  14  15
ENDBRANCH   1  14
TORSDOF 7
ENDMDL
MODEL 2
REMARK VINA RESULT:    -4.122     15.921     17.659
REMARK INTER + INTRA:          -5.987
REMARK INTER:                  -5.593
REMARK INTRA:                  -0.394
REMARK UNBOUND:                -0.420
REMARK  Name = 
REMARK  10 active torsions:
REMARK  status: ('A' for Active; 'I' for Inactive)
REMARK    1  A    between atoms: C_1  and  C_2
REMARK    2  A    between atoms: C_5  and  N_8
REMARK    3  A    between atoms: N_8  and  C_9
REMARK    4  A    between atoms: N_8  and  C_13
REMARK    5  A    between atoms: C_9  and  C_10
REMARK    6  A    between atoms: C_10  and  C_11
REMARK    7  A    between atoms: C_10  and  O_12
REMARK    8  A    between atoms: C_13  and  C_14
REMARK    9  A    between atoms: C_14  and  C_15
REMARK   10  A    between atoms: C_14  and  O_16
REMARK                            x       y       z     vdW  Elec       q    Type
REMARK                         _______ _______ _______ _____ _____    ______ ____
ROOT
ATOM      1  N   UNL     1      10.987  15.297 -20.347  0.00  0.00    +0.000 N 
ENDROOT
BRANCH   1   6
ATOM      2  C   UNL     1       9.591  20.533 -18.354  0.00  0.00    +0.000 C 
ATOM      3  C   UNL     1       9.977  19.182 -18.874  0.00  0.00    +0.000 A 
ATOM      4  C   UNL     1       9.878  18.883 -20.229  0.00  0.00    +0.000 A 
ATOM      5  C   UNL     1      10.213  17.605 -20.706  0.00  0.00    +0.000 A 
ATOM      6  C   UNL     1      10.636  16.563 -19.861  0.00  0.00    +0.000 A 
ATOM      7  C   UNL     1      10.726  16.902 -18.498  0.00  0.00    +0.000 A 
ATOM      8  C   UNL     1      10.396  18.176 -18.008  0.00  0.00    +0.000 A 
ENDBRANCH   1   6
BRANCH   1   9
ATOM      9  C   UNL     1      10.047  14.160 -20.203  0.00  0.00    +0.000 C 
BRANCH   9  10
ATOM     10  C   UNL     1       8.564  14.604 -20.194  0.00  0.00    +0.000 C 
ATOM     11  C   UNL     1       7.947  14.474 -21.582  0.00  0.00    +0.000 C 
BRANCH  10  12
ATOM     12  O   UNL     1       7.792  13.803 -19.289  0.00  0.00    +0.000 OA
ATOM     13  H   UNL     1       8.407  13.274 -18.755  0.00  0.00    +0.000 HD
ENDBRANCH  10  12
ENDBRANCH   9  10
ENDBRANCH   1   9
BRANCH   1  14
ATOM     14  C   UNL     1      12.409  14.912 -20.533  0.00  0.00    +0.000 C 
BRANCH  14  15
ATOM     15  C   UNL     1      12.913  13.975 -19.408  0.00  0.00    +0.000 C 
ATOM     16  C   UNL     1      14.063  13.077 -19.847  0.00  0.00    +0.000 C 
BRANCH  15  17
ATOM     17  O   UNL     1      13.339  14.710 -18.262  0.00  0.00    +0.000 OA
ATOM     18  H   UNL     1      14.179  14.289 -17.990  0.00  0.00    +0.000 HD
ENDBRANCH  15  17
ENDBRANCH  14  15
ENDBRANCH   1  14
TORSDOF 7
ENDMDL
MODEL 3
REMARK VINA RESULT:    -4.066     16.338     18.172
REMARK INTER + INTRA:          -5.911
REMARK INTER:                  -5.600
REMARK INTRA:                  -0.312
REMARK UNBOUND:                -0.420
REMARK  Name = 
REMARK  10 active torsions:
REMARK  status: ('A' for Active; 'I' for Inactive)
REMARK    1  A    between atoms: C_1  and  C_2
REMARK    2  A    between atoms: C_5  and  N_8
REMARK    3  A    between atoms: N_8  and  C_9
REMARK    4  A    between atoms: N_8  and  C_13
REMARK    5  A    between atoms: C_9  and  C_10
REMARK    6  A    between atoms: C_10  and  C_11
REMARK    7  A    between atoms: C_10  and  O_12
REMARK    8  A    between atoms: C_13  and  C_14
REMARK    9  A    between atoms: C_14  and  C_15
REMARK   10  A    between atoms: C_14  and  O_16
REMARK                            x       y       z     vdW  Elec       q    Type
REMARK                         _______ _______ _______ _____ _____    ______ ____
ROOT
ATOM      1  N   UNL     1      10.900  14.842 -20.194  0.00  0.00    +0.000 N 
ENDROOT
BRANCH   1   6
ATOM      2  C   UNL     1       9.778  20.438 -19.327  0.00  0.00    +0.000 C 
ATOM      3  C   UNL     1      10.044  18.982 -19.554  0.00  0.00    +0.000 A 
ATOM      4  C   UNL     1      10.173  18.104 -18.482  0.00  0.00    +0.000 A 
ATOM      5  C   UNL     1      10.453  16.745 -18.700  0.00  0.00    +0.000 A 
ATOM      6  C   UNL     1      10.640  16.202 -19.984  0.00  0.00    +0.000 A 
ATOM      7  C   UNL     1      10.501  17.118 -21.043  0.00  0.00    +0.000 A 
ATOM      8  C   UNL     1      10.220  18.479 -20.840  0.00  0.00    +0.000 A 
ENDBRANCH   1   6
BRANCH   1   9
ATOM      9  C   UNL     1      12.283  14.383 -20.468  0.00  0.00    +0.000 C 
BRANCH   9  10
ATOM     10  C   UNL     1      12.980  13.798 -19.215  0.00  0.00    +0.000 C 
ATOM     11  C   UNL     1      14.215  12.994 -19.604  0.00  0.00    +0.000 C 
BRANCH  10  12
ATOM     12  O   UNL     1      13.393  14.842 -18.322  0.00  0.00    +0.000 OA
ATOM     13  H   UNL     1      14.345  14.990 -18.451  0.00  0.00    +0.000 HD
ENDBRANCH  10  12
ENDBRANCH   9  10
ENDBRANCH   1   9
BRANCH   1  14
ATOM     14  C   UNL     1       9.832  13.918 -20.656  0.00  0.00    +0.000 C 
BRANCH  14  15
ATOM     15  C   UNL     1       8.417  14.497 -20.420  0.00  0.00    +0.000 C 
ATOM     16  C   UNL     1       7.574  14.557 -21.689  0.00  0.00    +0.000 C 
BRANCH  15  17
ATOM     17  O   UNL     1       7.695  13.744 -19.446  0.00  0.00    +0.000 OA
ATOM     18  H   UNL     1       7.316  12.989 -19.940  0.00  0.00    +0.000 HD
ENDBRANCH  15  17
ENDBRANCH  14  15
ENDBRANCH   1  14
TORSDOF 7
ENDMDL
MODEL 4
REMARK VINA RESULT:    -4.000      1.212      1.969
REMARK INTER + INTRA:          -5.823
REMARK INTER:                  -5.482
REMARK INTRA:                  -0.341
REMARK UNBOUND:                -0.420
REMARK  Name = 
REMARK  10 active torsions:
REMARK  status: ('A' for Active; 'I' for Inactive)
REMARK    1  A    between atoms: C_1  and  C_2
REMARK    2  A    between atoms: C_5  and  N_8
REMARK    3  A    between atoms: N_8  and  C_9
REMARK    4  A    between atoms: N_8  and  C_13
REMARK    5  A    between atoms: C_9  and  C_10
REMARK    6  A    between atoms: C_10  and  C_11
REMARK    7  A    between atoms: C_10  and  O_12
REMARK    8  A    between atoms: C_13  and  C_14
REMARK    9  A    between atoms: C_14  and  C_15
REMARK   10  A    between atoms: C_14  and  O_16
REMARK                            x       y       z     vdW  Elec       q    Type
REMARK                         _______ _______ _______ _____ _____    ______ ____
ROOT
ATOM      1  N   UNL     1       9.382  19.834  -0.717  0.00  0.00    +0.000 N 
ENDROOT
BRANCH   1   6
ATOM      2  C   UNL     1       7.678  22.282  -5.660  0.00  0.00    +0.000 C 
ATOM      3  C   UNL     1       8.115  21.624  -4.387  0.00  0.00    +0.000 A 
ATOM      4  C   UNL     1       7.223  21.442  -3.335  0.00  0.00    +0.000 A 
ATOM      5  C   UNL     1       7.646  20.852  -2.132  0.00  0.00    +0.000 A 
ATOM      6  C   UNL     1       8.972  20.439  -1.912  0.00  0.00    +0.000 A 
ATOM      7  C   UNL     1       9.845  20.637  -2.998  0.00  0.00    +0.000 A 
ATOM      8  C   UNL     1       9.435  21.223  -4.206  0.00  0.00    +0.000 A 
ENDBRANCH   1   6
BRANCH   1   9
ATOM      9  C   UNL     1       8.452  18.950   0.026  0.00  0.00    +0.000 C 
BRANCH   9  10
ATOM     10  C   UNL     1       8.195  17.605  -0.698  0.00  0.00    +0.000 C 
ATOM     11  C   UNL     1       8.519  16.427   0.213  0.00  0.00    +0.000 C 
BRANCH  10  12
ATOM     12  O   UNL     1       6.824  17.492  -1.102  0.00  0.00    +0.000 OA
ATOM     13  H   UNL     1       6.272  17.895  -0.411  0.00  0.00    +0.000 HD
ENDBRANCH  10  12
ENDBRANCH   9  10
ENDBRANCH   1   9
BRANCH   1  14
ATOM     14  C   UNL     1      10.482  20.410   0.099  0.00  0.00    +0.000 C 
BRANCH  14  15
ATOM     15  C   UNL     1      11.842  19.733  -0.193  0.00  0.00    +0.000 C 
ATOM     16  C   UNL     1      11.702  18.339  -0.793  0.00  0.00    +0.000 C 
BRANCH  15  17
ATOM     17  O   UNL     1      12.642  20.516  -1.079  0.00  0.00    +0.000 OA
ATOM     18  H   UNL     1      12.050  21.231  -1.388  0.00  0.00    +0.000 HD
ENDBRANCH  15  17
ENDBRANCH  14  15
ENDBRANCH   1  14
TORSDOF 7
ENDMDL
MODEL 5
REMARK VINA RESULT:    -3.950     14.280     16.977
REMARK INTER + INTRA:          -5.755
REMARK INTER:                  -5.312
REMARK INTRA:                  -0.443
REMARK UNBOUND:                -0.420
REMARK  Name = 
REMARK  10 active torsions:
REMARK  status: ('A' for Active; 'I' for Inactive)
REMARK    1  A    between atoms: C_1  and  C_2
REMARK    2  A    between atoms: C_5  and  N_8
REMARK    3  A    between atoms: N_8  and  C_9
REMARK    4  A    between atoms: N_8  and  C_13
REMARK    5  A    between atoms: C_9  and  C_10
REMARK    6  A    between atoms: C_10  and  C_11
REMARK    7  A    between atoms: C_10  and  O_12
REMARK    8  A    between atoms: C_13  and  C_14
REMARK    9  A    between atoms: C_14  and  C_15
REMARK   10  A    between atoms: C_14  and  O_16
REMARK                            x       y       z     vdW  Elec       q    Type
REMARK                         _______ _______ _______ _____ _____    ______ ____
ROOT
ATOM      1  N   UNL     1      10.912  16.585 -19.468  0.00  0.00    +0.000 N 
ENDROOT
BRANCH   1   6
ATOM      2  C   UNL     1       9.374  21.153 -16.290  0.00  0.00    +0.000 C 
ATOM      3  C   UNL     1       9.795  19.978 -17.120  0.00  0.00    +0.000 A 
ATOM      4  C   UNL     1       9.477  19.908 -18.472  0.00  0.00    +0.000 A 
ATOM      5  C   UNL     1       9.847  18.791 -19.238  0.00  0.00    +0.000 A 
ATOM      6  C   UNL     1      10.528  17.687 -18.694  0.00  0.00    +0.000 A 
ATOM      7  C   UNL     1      10.835  17.793 -17.325  0.00  0.00    +0.000 A 
ATOM      8  C   UNL     1      10.472  18.905 -16.548  0.00  0.00    +0.000 A 
ENDBRANCH   1   6
BRANCH   1   9
ATOM      9  C   UNL     1      12.347  16.246 -19.619  0.00  0.00    +0.000 C 
BRANCH   9  10
ATOM     10  C   UNL     1      12.785  15.071 -18.710  0.00  0.00    +0.000 C 
ATOM     11  C   UNL     1      13.642  14.075 -19.482  0.00  0.00    +0.000 C 
BRANCH  10  12
ATOM     12  O   UNL     1      13.550  15.542 -17.592  0.00  0.00    +0.000 OA
ATOM     13  H   UNL     1      14.296  16.062 -17.935  0.00  0.00    +0.000 HD
ENDBRANCH  10  12
ENDBRANCH   9  10
ENDBRANCH   1   9
BRANCH   1  14
ATOM     14  C   UNL     1      10.029  16.051 -20.537  0.00  0.00    +0.000 C 
BRANCH  14  15
ATOM     15  C   UNL     1       9.276  14.775 -20.090  0.00  0.00    +0.000 C 
ATOM     16  C   UNL     1       7.975  14.549 -20.850  0.00  0.00    +0.000 C 
BRANCH  15  17
ATOM     17  O   UNL     1      10.083  13.608 -20.239  0.00  0.00    +0.000 OA
ATOM     18  H   UNL     1      10.785  13.697 -19.563  0.00  0.00    +0.000 HD
ENDBRANCH  15  17
ENDBRANCH  14  15
ENDBRANCH   1  14
TORSDOF 7
ENDMDL
MODEL 6
REMARK VINA RESULT:    -3.921      0.674      3.306
REMARK INTER + INTRA:          -5.716
REMARK INTER:                  -5.228
REMARK INTRA:                  -0.488
REMARK UNBOUND:                -0.420
REMARK  Name = 
REMARK  10 active torsions:
REMARK  status: ('A' for Active; 'I' for Inactive)
REMARK    1  A    between atoms: C_1  and  C_2
REMARK    2  A    between atoms: C_5  and  N_8
REMARK    3  A    between atoms: N_8  and  C_9
REMARK    4  A    between atoms: N_8  and  C_13
REMARK    5  A    between atoms: C_9  and  C_10
REMARK    6  A    between atoms: C_10  and  C_11
REMARK    7  A    between atoms: C_10  and  O_12
REMARK    8  A    between atoms: C_13  and  C_14
REMARK    9  A    between atoms: C_14  and  C_15
REMARK   10  A    between atoms: C_14  and  O_16
REMARK                            x       y       z     vdW  Elec       q    Type
REMARK                         _______ _______ _______ _____ _____    ______ ____
ROOT
ATOM      1  N   UNL     1       9.042  21.415  -2.005  0.00  0.00    +0.000 N 
ENDROOT
BRANCH   1   6
ATOM      2  C   UNL     1       8.623  22.288  -7.697  0.00  0.00    +0.000 C 
ATOM      3  C   UNL     1       8.728  22.037  -6.223  0.00  0.00    +0.000 A 
ATOM      4  C   UNL     1       7.611  22.140  -5.400  0.00  0.00    +0.000 A 
ATOM      5  C   UNL     1       7.721  21.934  -4.016  0.00  0.00    +0.000 A 
ATOM      6  C   UNL     1       8.943  21.640  -3.384  0.00  0.00    +0.000 A 
ATOM      7  C   UNL     1      10.050  21.541  -4.247  0.00  0.00    +0.000 A 
ATOM      8  C   UNL     1       9.954  21.743  -5.634  0.00  0.00    +0.000 A 
ENDBRANCH   1   6
BRANCH   1   9
ATOM      9  C   UNL     1      10.291  21.758  -1.284  0.00  0.00    +0.000 C 
BRANCH   9  10
ATOM     10  C   UNL     1      10.955  20.528  -0.618  0.00  0.00    +0.000 C 
ATOM     11  C   UNL     1      11.752  19.720  -1.636  0.00  0.00    +0.000 C 
BRANCH  10  12
ATOM     12  O   UNL     1      11.850  20.930   0.429  0.00  0.00    +0.000 OA
ATOM     13  H   UNL     1      12.002  20.163   1.006  0.00  0.00    +0.000 HD
ENDBRANCH  10  12
ENDBRANCH   9  10
ENDBRANCH   1   9
BRANCH   1  14
ATOM     14  C   UNL     1       8.184  20.410  -1.326  0.00  0.00    +0.000 C 
BRANCH  14  15
ATOM     15  C   UNL     1       8.098  19.084  -2.119  0.00  0.00    +0.000 C 
ATOM     16  C   UNL     1       8.542  17.872  -1.310  0.00  0.00    +0.000 C 
BRANCH  15  17
ATOM     17  O   UNL     1       6.775  18.838  -2.594  0.00  0.00    +0.000 OA
ATOM     18  H   UNL     1       6.761  19.200  -3.503  0.00  0.00    +0.000 HD
ENDBRANCH  15  17
ENDBRANCH  14  15
ENDBRANCH   1  14
TORSDOF 7
ENDMDL
MODEL 7
REMARK VINA RESULT:    -3.847     14.834     17.970
REMARK INTER + INTRA:          -5.616
REMARK INTER:                  -5.024
REMARK INTRA:                  -0.592
REMARK UNBOUND:                -0.420
REMARK  Name = 
REMARK  10 active torsions:
REMARK  status: ('A' for Active; 'I' for Inactive)
REMARK    1  A    between atoms: C_1  and  C_2
REMARK    2  A    between atoms: C_5  and  N_8
REMARK    3  A    between atoms: N_8  and  C_9
REMARK    4  A    between atoms: N_8  and  C_13
REMARK    5  A    between atoms: C_9  and  C_10
REMARK    6  A    between atoms: C_10  and  C_11
REMARK    7  A    between atoms: C_10  and  O_12
REMARK    8  A    between atoms: C_13  and  C_14
REMARK    9  A    between atoms: C_14  and  C_15
REMARK   10  A    between atoms: C_14  and  O_16
REMARK                            x       y       z     vdW  Elec       q    Type
REMARK                         _______ _______ _______ _____ _____    ______ ____
ROOT
ATOM      1  N   UNL     1      10.860  15.699 -20.275  0.00  0.00    +0.000 N 
ENDROOT
BRANCH   1   6
ATOM      2  C   UNL     1      10.280  20.023 -16.494  0.00  0.00    +0.000 C 
ATOM      3  C   UNL     1      10.452  18.911 -17.483  0.00  0.00    +0.000 A 
ATOM      4  C   UNL     1       9.925  19.008 -18.766  0.00  0.00    +0.000 A 
ATOM      5  C   UNL     1      10.064  17.950 -19.679  0.00  0.00    +0.000 A 
ATOM      6  C   UNL     1      10.708  16.743 -19.354  0.00  0.00    +0.000 A 
ATOM      7  C   UNL     1      11.230  16.681 -18.048  0.00  0.00    +0.000 A 
ATOM      8  C   UNL     1      11.101  17.732 -17.126  0.00  0.00    +0.000 A 
ENDBRANCH   1   6
BRANCH   1   9
ATOM      9  C   UNL     1      11.388  15.977 -21.633  0.00  0.00    +0.000 C 
BRANCH   9  10
ATOM     10  C   UNL     1      12.934  15.935 -21.696  0.00  0.00    +0.000 C 
ATOM     11  C   UNL     1      13.525  17.331 -21.537  0.00  0.00    +0.000 C 
BRANCH  10  12
ATOM     12  O   UNL     1      13.469  15.105 -20.655  0.00  0.00    +0.000 OA
ATOM     13  H   UNL     1      12.879  14.340 -20.546  0.00  0.00    +0.000 HD
ENDBRANCH  10  12
ENDBRANCH   9  10
ENDBRANCH   1   9
BRANCH   1  14
ATOM     14  C   UNL     1      10.067  14.449 -20.157  0.00  0.00    +0.000 C 
BRANCH  14  15
ATOM     15  C   UNL     1       8.544  14.713 -20.226  0.00  0.00    +0.000 C 
ATOM     16  C   UNL     1       7.955  14.469 -21.611  0.00  0.00    +0.000 C 
BRANCH  15  17
ATOM     17  O   UNL     1       7.826  13.908 -19.293  0.00  0.00    +0.000 OA
ATOM     18  H   UNL     1       8.041  14.285 -18.416  0.00  0.00    +0.000 HD
ENDBRANCH  15  17
ENDBRANCH  14  15
ENDBRANCH   1  14
TORSDOF 7
ENDMDL
MODEL 8
REMARK VINA RESULT:    -3.772     13.827     16.652
REMARK INTER + INTRA:          -5.515
REMARK INTER:                  -4.906
REMARK INTRA:                  -0.609
REMARK UNBOUND:                -0.420
REMARK  Name = 
REMARK  10 active torsions:
REMARK  status: ('A' for Active; 'I' for Inactive)
REMARK    1  A    between atoms: C_1  and  C_2
REMARK    2  A    between atoms: C_5  and  N_8
REMARK    3  A    between atoms: N_8  and  C_9
REMARK    4  A    between atoms: N_8  and  C_13
REMARK    5  A    between atoms: C_9  and  C_10
REMARK    6  A    between atoms: C_10  and  C_11
REMARK    7  A    between atoms: C_10  and  O_12
REMARK    8  A    between atoms: C_13  and  C_14
REMARK    9  A    between atoms: C_14  and  C_15
REMARK   10  A    between atoms: C_14  and  O_16
REMARK                            x       y       z     vdW  Elec       q    Type
REMARK                         _______ _______ _______ _____ _____    ______ ____
ROOT
ATOM      1  N   UNL     1      11.623  17.470 -17.672  0.00  0.00    +0.000 N 
ENDROOT
BRANCH   1   6
ATOM      2  C   UNL     1       9.931  13.627 -21.634  0.00  0.00    +0.000 C 
ATOM      3  C   UNL     1      10.365  14.607 -20.588  0.00  0.00    +0.000 A 
ATOM      4  C   UNL     1       9.458  15.497 -20.022  0.00  0.00    +0.000 A 
ATOM      5  C   UNL     1       9.878  16.434 -19.063  0.00  0.00    +0.000 A 
ATOM      6  C   UNL     1      11.215  16.546 -18.643  0.00  0.00    +0.000 A 
ATOM      7  C   UNL     1      12.104  15.630 -19.235  0.00  0.00    +0.000 A 
ATOM      8  C   UNL     1      11.697  14.687 -20.192  0.00  0.00    +0.000 A 
ENDBRANCH   1   6
BRANCH   1   9
ATOM      9  C   UNL     1      13.062  17.777 -17.496  0.00  0.00    +0.000 C 
BRANCH   9  10
ATOM     10  C   UNL     1      13.534  18.968 -18.367  0.00  0.00    +0.000 C 
ATOM     11  C   UNL     1      14.375  19.941 -17.550  0.00  0.00    +0.000 C 
BRANCH  10  12
ATOM     12  O   UNL     1      14.327  18.515 -19.473  0.00  0.00    +0.000 OA
ATOM     13  H   UNL     1      13.725  18.179 -20.157  0.00  0.00    +0.000 HD
ENDBRANCH  10  12
ENDBRANCH   9  10
ENDBRANCH   1   9
BRANCH   1  14
ATOM     14  C   UNL     1      10.771  17.774 -16.494  0.00  0.00    +0.000 C 
BRANCH  14  15
ATOM     15  C   UNL     1      10.498  19.290 -16.345  0.00  0.00    +0.000 C 
ATOM     16  C   UNL     1       9.868  19.911 -17.586  0.00  0.00    +0.000 C 
BRANCH  15  17
ATOM     17  O   UNL     1       9.648  19.566 -15.232  0.00  0.00    +0.000 OA
ATOM     18  H   UNL     1       9.565  20.541 -15.214  0.00  0.00    +0.000 HD
ENDBRANCH  15  17
ENDBRANCH  14  15
ENDBRANCH   1  14
TORSDOF 7
ENDMDL
MODEL 9
REMARK VINA RESULT:    -3.652     14.215     16.530
REMARK INTER + INTRA:          -5.353
REMARK INTER:                  -4.579
REMARK INTRA:                  -0.774
REMARK UNBOUND:                -0.420
REMARK  Name = 
REMARK  10 active torsions:
REMARK  status: ('A' for Active; 'I' for Inactive)
REMARK    1  A    between atoms: C_1  and  C_2
REMARK    2  A    between atoms: C_5  and  N_8
REMARK    3  A    between atoms: N_8  and  C_9
REMARK    4  A    between atoms: N_8  and  C_13
REMARK    5  A    between atoms: C_9  and  C_10
REMARK    6  A    between atoms: C_10  and  C_11
REMARK    7  A    between atoms: C_10  and  O_12
REMARK    8  A    between atoms: C_13  and  C_14
REMARK    9  A    between atoms: C_14  and  C_15
REMARK   10  A    between atoms: C_14  and  O_16
REMARK                            x       y       z     vdW  Elec       q    Type
REMARK                         _______ _______ _______ _____ _____    ______ ____
ROOT
ATOM      1  N   UNL     1      11.136  18.606 -18.756  0.00  0.00    +0.000 N 
ENDROOT
BRANCH   1   6
ATOM      2  C   UNL     1       8.274  14.545 -21.696  0.00  0.00    +0.000 C 
ATOM      3  C   UNL     1       8.995  15.608 -20.925  0.00  0.00    +0.000 A 
ATOM      4  C   UNL     1       9.338  16.816 -21.523  0.00  0.00    +0.000 A 
ATOM      5  C   UNL     1      10.040  17.797 -20.805  0.00  0.00    +0.000 A 
ATOM      6  C   UNL     1      10.453  17.616 -19.473  0.00  0.00    +0.000 A 
ATOM      7  C   UNL     1      10.088  16.384 -18.899  0.00  0.00    +0.000 A 
ATOM      8  C   UNL     1       9.384  15.395 -19.606  0.00  0.00    +0.000 A 
ENDBRANCH   1   6
BRANCH   1   9
ATOM      9  C   UNL     1      10.731  20.027 -18.882  0.00  0.00    +0.000 C 
BRANCH   9  10
ATOM     10  C   UNL     1       9.532  20.393 -17.972  0.00  0.00    +0.000 C 
ATOM     11  C   UNL     1       8.260  20.570 -18.793  0.00  0.00    +0.000 C 
BRANCH  10  12
ATOM     12  O   UNL     1       9.293  19.367 -16.999  0.00  0.00    +0.000 OA
ATOM     13  H   UNL     1       9.722  19.633 -16.169  0.00  0.00    +0.000 HD
ENDBRANCH  10  12
ENDBRANCH   9  10
ENDBRANCH   1   9
BRANCH   1  14
ATOM     14  C   UNL     1      12.529  18.393 -18.286  0.00  0.00    +0.000 C 
BRANCH  14  15
ATOM     15  C   UNL     1      12.624  18.350 -16.742  0.00  0.00    +0.000 C 
ATOM     16  C   UNL     1      12.986  19.696 -16.125  0.00  0.00    +0.000 C 
BRANCH  15  17
ATOM     17  O   UNL     1      11.404  17.906 -16.150  0.00  0.00    +0.000 OA
ATOM     18  H   UNL     1      10.716  18.094 -16.820  0.00  0.00    +0.000 HD
ENDBRANCH  15  17
ENDBRANCH  14  15
ENDBRANCH   1  14
TORSDOF 7
ENDMDL
