MODEL 1
REMARK VINA RESULT:    -4.122      0.000      0.000
REMARK INTER + INTRA:          -4.536
REMARK INTER:                  -4.483
REMARK INTRA:                  -0.052
REMARK UNBOUND:                -0.052
REMARK  Name = 
REMARK  3 active torsions:
REMARK  status: ('A' for Active; 'I' for Inactive)
REMARK    1  A    between atoms: C_1  and  O_2
REMARK    2  A    between atoms: O_2  and  C_3
REMARK    3  A    between atoms: C_8  and  O_9
REMARK                            x       y       z     vdW  Elec       q    Type
REMARK                         _______ _______ _______ _____ _____    ______ ____
ROOT
ATOM      1  C   UNL     1      -8.483   6.242 -17.163  0.00  0.00    +0.000 A 
ATOM      2  C   UNL     1      -9.145   6.699 -16.024  0.00  0.00    +0.000 A 
ATOM      3  C   UNL     1      -9.722   7.975 -16.015  0.00  0.00    +0.000 A 
ATOM      4  C   UNL     1      -9.640   8.797 -17.141  0.00  0.00    +0.000 A 
ATOM      5  C   UNL     1      -8.981   8.347 -18.282  0.00  0.00    +0.000 A 
ATOM      6  C   UNL     1      -8.411   7.081 -18.282  0.00  0.00    +0.000 A 
ENDROOT
BRANCH   1   8
ATOM      7  C   UNL     1      -8.714   3.878 -17.224  0.00  0.00    +0.000 C 
ATOM      8  O   UNL     1      -7.874   5.022 -17.312  0.00  0.00    +0.000 OA
ENDBRANCH   1   8
BRANCH   6   9
ATOM      9  O   UNL     1      -7.768   6.661 -19.416  0.00  0.00    +0.000 OA
ATOM     10  H   UNL     1      -7.025   7.284 -19.525  0.00  0.00    +0.000 HD
ENDBRANCH   6   9
TORSDOF 2
ENDMDL
MODEL 2
REMARK VINA RESULT:    -4.106      1.410      2.399
REMARK INTER + INTRA:          -4.519
REMARK INTER:                  -4.467
REMARK INTRA:                  -0.051
REMARK UNBOUND:                -0.052
REMARK  Name = 
REMARK  3 active torsions:
REMARK  status: ('A' for Active; 'I' for Inactive)
REMARK    1  A    between atoms: C_1  and  O_2
REMARK    2  A    between atoms: O_2  and  C_3
REMARK    3  A    between atoms: C_8  and  O_9
REMARK                            x       y       z     vdW  Elec       q    Type
REMARK                         _______ _______ _______ _____ _____    ______ ____
ROOT
ATOM      1  C   UNL     1      -8.975   7.162 -16.875  0.00  0.00    +0.000 A 
ATOM      2  C   UNL     1      -9.475   8.432 -17.157  0.00  0.00    +0.000 A 
ATOM      3  C   UNL     1      -9.116   9.077 -18.347  0.00  0.00    +0.000 A 
ATOM      4  C   UNL     1      -8.259   8.457 -19.258  0.00  0.00    +0.000 A 
ATOM      5  C   UNL     1      -7.756   7.187 -18.984  0.00  0.00    +0.000 A 
ATOM      6  C   UNL     1      -8.116   6.555 -17.801  0.00  0.00    +0.000 A 
ENDROOT
BRANCH   1   8
ATOM      7  C   UNL     1      -8.895   7.005 -14.505  0.00  0.00    +0.000 C 
ATOM      8  O   UNL     1      -9.239   6.416 -15.754  0.00  0.00    +0.000 OA
ENDBRANCH   1   8
BRANCH   6   9
ATOM      9  O   UNL     1      -7.609   5.308 -17.553  0.00  0.00    +0.000 OA
ATOM     10  H   UNL     1      -7.113   5.402 -16.718  0.00  0.00    +0.000 HD
ENDBRANCH   6   9
TORSDOF 2
ENDMDL
MODEL 3
REMARK VINA RESULT:    -3.928      2.094      3.578
REMARK INTER + INTRA:          -4.325
REMARK INTER:                  -4.273
REMARK INTRA:                  -0.052
REMARK UNBOUND:                -0.052
REMARK  Name = 
REMARK  3 active torsions:
REMARK  status: ('A' for Active; 'I' for Inactive)
REMARK    1  A    between atoms: C_1  and  O_2
REMARK    2  A    between atoms: O_2  and  C_3
REMARK    3  A    between atoms: C_8  and  O_9
REMARK                            x       y       z     vdW  Elec       q    Type
REMARK                         _______ _______ _______ _____ _____    ______ ____
ROOT
ATOM      1  C   UNL     1      -9.866   7.696 -15.604  0.00  0.00    +0.000 A 
ATOM      2  C   UNL     1      -9.830   8.678 -16.593  0.00  0.00    +0.000 A 
ATOM      3  C   UNL     1      -9.184   8.422 -17.809  0.00  0.00    +0.000 A 
ATOM      4  C   UNL     1      -8.572   7.189 -18.040  0.00  0.00    +0.000 A 
ATOM      5  C   UNL     1      -8.604   6.203 -17.057  0.00  0.00    +0.000 A 
ATOM      6  C   UNL     1      -9.246   6.465 -15.853  0.00  0.00    +0.000 A 
ENDROOT
BRANCH   1   8
ATOM      7  C   UNL     1     -11.860   8.049 -14.361  0.00  0.00    +0.000 C 
ATOM      8  O   UNL     1     -10.458   7.807 -14.371  0.00  0.00    +0.000 OA
ENDBRANCH   1   8
BRANCH   6   9
ATOM      9  O   UNL     1      -9.264   5.480 -14.902  0.00  0.00    +0.000 OA
ATOM     10  H   UNL     1      -8.396   5.041 -14.984  0.00  0.00    +0.000 HD
ENDBRANCH   6   9
TORSDOF 2
ENDMDL
MODEL 4
REMARK VINA RESULT:    -3.870      1.511      3.428
REMARK INTER + INTRA:          -4.262
REMARK INTER:                  -4.211
REMARK INTRA:                  -0.051
REMARK UNBOUND:                -0.052
REMARK  Name = 
REMARK  3 active torsions:
REMARK  status: ('A' for Active; 'I' for Inactive)
REMARK    1  A    between atoms: C_1  and  O_2
REMARK    2  A    between atoms: O_2  and  C_3
REMARK    3  A    between atoms: C_8  and  O_9
REMARK                            x       y       z     vdW  Elec       q    Type
REMARK                         _______ _______ _______ _____ _____    ______ ____
ROOT
ATOM      1  C   UNL     1      -9.237   6.102 -16.476  0.00  0.00    +0.000 A 
ATOM      2  C   UNL     1     -10.345   5.603 -15.793  0.00  0.00    +0.000 A 
ATOM      3  C   UNL     1     -10.638   4.234 -15.840  0.00  0.00    +0.000 A 
ATOM      4  C   UNL     1      -9.828   3.362 -16.570  0.00  0.00    +0.000 A 
ATOM      5  C   UNL     1      -8.719   3.853 -17.255  0.00  0.00    +0.000 A 
ATOM      6  C   UNL     1      -8.436   5.212 -17.202  0.00  0.00    +0.000 A 
ENDROOT
BRANCH   1   8
ATOM      7  C   UNL     1      -9.655   8.307 -17.259  0.00  0.00    +0.000 C 
ATOM      8  O   UNL     1      -8.833   7.412 -16.519  0.00  0.00    +0.000 OA
ENDBRANCH   1   8
BRANCH   6   9
ATOM      9  O   UNL     1      -7.341   5.671 -17.884  0.00  0.00    +0.000 OA
ATOM     10  H   UNL     1      -6.723   5.969 -17.190  0.00  0.00    +0.000 HD
ENDBRANCH   6   9
TORSDOF 2
ENDMDL
MODEL 5
REMARK VINA RESULT:    -3.863      1.588      2.966
REMARK INTER + INTRA:          -4.254
REMARK INTER:                  -4.208
REMARK INTRA:                  -0.046
REMARK UNBOUND:                -0.052
REMARK  Name = 
REMARK  3 active torsions:
REMARK  status: ('A' for Active; 'I' for Inactive)
REMARK    1  A    between atoms: C_1  and  O_2
REMARK    2  A    between atoms: O_2  and  C_3
REMARK    3  A    between atoms: C_8  and  O_9
REMARK                            x       y       z     vdW  Elec       q    Type
REMARK                         _______ _______ _______ _____ _____    ______ ____
ROOT
ATOM      1  C   UNL     1      -9.197   6.982 -16.485  0.00  0.00    +0.000 A 
ATOM      2  C   UNL     1      -9.751   8.255 -16.608  0.00  0.00    +0.000 A 
ATOM      3  C   UNL     1     -10.900   8.591 -15.880  0.00  0.00    +0.000 A 
ATOM      4  C   UNL     1     -11.498   7.658 -15.032  0.00  0.00    +0.000 A 
ATOM      5  C   UNL     1     -10.950   6.384 -14.904  0.00  0.00    +0.000 A 
ATOM      6  C   UNL     1      -9.811   6.059 -15.629  0.00  0.00    +0.000 A 
ENDROOT
BRANCH   1   8
ATOM      7  C   UNL     1      -7.982   6.817 -18.521  0.00  0.00    +0.000 C 
ATOM      8  O   UNL     1      -8.080   6.518 -17.134  0.00  0.00    +0.000 OA
ENDBRANCH   1   8
BRANCH   6   9
ATOM      9  O   UNL     1      -9.290   4.801 -15.487  0.00  0.00    +0.000 OA
ATOM     10  H   UNL     1     -10.069   4.212 -15.453  0.00  0.00    +0.000 HD
ENDBRANCH   6   9
TORSDOF 2
ENDMDL
MODEL 6
REMARK VINA RESULT:    -3.818      2.531      3.682
REMARK INTER + INTRA:          -4.205
REMARK INTER:                  -4.167
REMARK INTRA:                  -0.037
REMARK UNBOUND:                -0.052
REMARK  Name = 
REMARK  3 active torsions:
REMARK  status: ('A' for Active; 'I' for Inactive)
REMARK    1  A    between atoms: C_1  and  O_2
REMARK    2  A    between atoms: O_2  and  C_3
REMARK    3  A    between atoms: C_8  and  O_9
REMARK                            x       y       z     vdW  Elec       q    Type
REMARK                         _______ _______ _______ _____ _____    ______ ____
ROOT
ATOM      1  C   UNL     1      -9.397   6.381 -15.562  0.00  0.00    +0.000 A 
ATOM      2  C   UNL     1     -10.456   5.528 -15.873  0.00  0.00    +0.000 A 
ATOM      3  C   UNL     1     -11.540   5.411 -14.994  0.00  0.00    +0.000 A 
ATOM      4  C   UNL     1     -11.570   6.142 -13.806  0.00  0.00    +0.000 A 
ATOM      5  C   UNL     1     -10.517   6.996 -13.489  0.00  0.00    +0.000 A 
ATOM      6  C   UNL     1      -9.445   7.106 -14.366  0.00  0.00    +0.000 A 
ENDROOT
BRANCH   1   8
ATOM      7  C   UNL     1      -8.209   5.895 -17.563  0.00  0.00    +0.000 C 
ATOM      8  O   UNL     1      -8.276   6.593 -16.325  0.00  0.00    +0.000 OA
ENDBRANCH   1   8
BRANCH   6   9
ATOM      9  O   UNL     1      -8.421   7.952 -14.032  0.00  0.00    +0.000 OA
ATOM     10  H   UNL     1      -8.834   8.629 -13.463  0.00  0.00    +0.000 HD
ENDBRANCH   6   9
TORSDOF 2
ENDMDL
MODEL 7
REMARK VINA RESULT:    -3.785      2.626      3.687
REMARK INTER + INTRA:          -4.169
REMARK INTER:                  -4.120
REMARK INTRA:                  -0.049
REMARK UNBOUND:                -0.052
REMARK  Name = 
REMARK  3 active torsions:
REMARK  status: ('A' for Active; 'I' for Inactive)
REMARK    1  A    between atoms: C_1  and  O_2
REMARK    2  A    between atoms: O_2  and  C_3
REMARK    3  A    between atoms: C_8  and  O_9
REMARK                            x       y       z     vdW  Elec       q    Type
REMARK                         _______ _______ _______ _____ _____    ______ ____
ROOT
ATOM      1  C   UNL     1      -9.718   8.049 -16.040  0.00  0.00    +0.000 A 
ATOM      2  C   UNL     1      -8.862   7.530 -15.069  0.00  0.00    +0.000 A 
ATOM      3  C   UNL     1      -9.351   7.236 -13.790  0.00  0.00    +0.000 A 
ATOM      4  C   UNL     1     -10.693   7.459 -13.477  0.00  0.00    +0.000 A 
ATOM      5  C   UNL     1     -11.555   7.976 -14.442  0.00  0.00    +0.000 A 
ATOM      6  C   UNL     1     -11.061   8.265 -15.707  0.00  0.00    +0.000 A 
ENDROOT
BRANCH   1   8
ATOM      7  C   UNL     1      -8.706   7.384 -18.084  0.00  0.00    +0.000 C 
ATOM      8  O   UNL     1      -9.379   8.382 -17.327  0.00  0.00    +0.000 OA
ENDBRANCH   1   8
BRANCH   6   9
ATOM      9  O   UNL     1     -11.928   8.773 -16.639  0.00  0.00    +0.000 OA
ATOM     10  H   UNL     1     -12.228   9.622 -16.261  0.00  0.00    +0.000 HD
ENDBRANCH   6   9
TORSDOF 2
ENDMDL
MODEL 8
REMARK VINA RESULT:    -3.654      2.246      3.073
REMARK INTER + INTRA:          -4.026
REMARK INTER:                  -3.986
REMARK INTRA:                  -0.040
REMARK UNBOUND:                -0.052
REMARK  Name = 
REMARK  3 active torsions:
REMARK  status: ('A' for Active; 'I' for Inactive)
REMARK    1  A    between atoms: C_1  and  O_2
REMARK    2  A    between atoms: O_2  and  C_3
REMARK    3  A    between atoms: C_8  and  O_9
REMARK                            x       y       z     vdW  Elec       q    Type
REMARK                         _______ _______ _______ _____ _____    ______ ____
ROOT
ATOM      1  C   UNL     1      -9.222   7.244 -16.245  0.00  0.00    +0.000 A 
ATOM      2  C   UNL     1      -8.282   6.519 -16.976  0.00  0.00    +0.000 A 
ATOM      3  C   UNL     1      -7.955   6.914 -18.280  0.00  0.00    +0.000 A 
ATOM      4  C   UNL     1      -8.565   8.030 -18.856  0.00  0.00    +0.000 A 
ATOM      5  C   UNL     1      -9.504   8.759 -18.131  0.00  0.00    +0.000 A 
ATOM      6  C   UNL     1      -9.823   8.361 -16.839  0.00  0.00    +0.000 A 
ENDROOT
BRANCH   1   8
ATOM      7  C   UNL     1      -8.736   7.316 -13.920  0.00  0.00    +0.000 C 
ATOM      8  O   UNL     1      -9.638   6.974 -14.965  0.00  0.00    +0.000 OA
ENDBRANCH   1   8
BRANCH   6   9
ATOM      9  O   UNL     1     -10.750   9.093 -16.146  0.00  0.00    +0.000 OA
ATOM     10  H   UNL     1     -10.478  10.022 -16.274  0.00  0.00    +0.000 HD
ENDBRANCH   6   9
TORSDOF 2
ENDMDL
