MODEL 1
REMARK VINA RESULT:    -4.118      0.000      0.000
REMARK INTER + INTRA:          -4.532
REMARK INTER:                  -4.479
REMARK INTRA:                  -0.052
REMARK UNBOUND:                -0.052
REMARK  Name = 
REMARK  3 active torsions:
REMARK  status: ('A' for Active; 'I' for Inactive)
REMARK    1  A    between atoms: C_1  and  O_2
REMARK    2  A    between atoms: O_2  and  C_3
REMARK    3  A    between atoms: C_8  and  O_9
REMARK                            x       y       z     vdW  Elec       q    Type
REMARK                         _______ _______ _______ _____ _____    ______ ____
ROOT
ATOM      1  C   UNL     1      -8.506   6.217 -17.145  0.00  0.00    +0.000 A 
ATOM      2  C   UNL     1      -9.159   6.689 -16.007  0.00  0.00    +0.000 A 
ATOM      3  C   UNL     1      -9.724   7.970 -16.006  0.00  0.00    +0.000 A 
ATOM      4  C   UNL     1      -9.637   8.783 -17.137  0.00  0.00    +0.000 A 
ATOM      5  C   UNL     1      -8.986   8.319 -18.278  0.00  0.00    +0.000 A 
ATOM      6  C   UNL     1      -8.429   7.046 -18.270  0.00  0.00    +0.000 A 
ENDROOT
BRANCH   1   8
ATOM      7  C   UNL     1      -8.762   3.855 -17.198  0.00  0.00    +0.000 C 
ATOM      8  O   UNL     1      -7.909   4.990 -17.287  0.00  0.00    +0.000 OA
ENDBRANCH   1   8
BRANCH   6   9
ATOM      9  O   UNL     1      -7.794   6.612 -19.403  0.00  0.00    +0.000 OA
ATOM     10  H   UNL     1      -6.990   7.163 -19.464  0.00  0.00    +0.000 HD
ENDBRANCH   6   9
TORSDOF 2
ENDMDL
MODEL 2
REMARK VINA RESULT:    -4.109      1.435      2.419
REMARK INTER + INTRA:          -4.522
REMARK INTER:                  -4.470
REMARK INTRA:                  -0.052
REMARK UNBOUND:                -0.052
REMARK  Name = 
REMARK  3 active torsions:
REMARK  status: ('A' for Active; 'I' for Inactive)
REMARK    1  A    between atoms: C_1  and  O_2
REMARK    2  A    between atoms: O_2  and  C_3
REMARK    3  A    between atoms: C_8  and  O_9
REMARK                            x       y       z     vdW  Elec       q    Type
REMARK                         _______ _______ _______ _____ _____    ______ ____
ROOT
ATOM      1  C   UNL     1      -8.959   7.211 -16.857  0.00  0.00    +0.000 A 
ATOM      2  C   UNL     1      -9.459   8.478 -17.154  0.00  0.00    +0.000 A 
ATOM      3  C   UNL     1      -9.090   9.114 -18.346  0.00  0.00    +0.000 A 
ATOM      4  C   UNL     1      -8.223   8.488 -19.243  0.00  0.00    +0.000 A 
ATOM      5  C   UNL     1      -7.720   7.221 -18.954  0.00  0.00    +0.000 A 
ATOM      6  C   UNL     1      -8.091   6.599 -17.768  0.00  0.00    +0.000 A 
ENDROOT
BRANCH   1   8
ATOM      7  C   UNL     1      -8.871   7.060 -14.487  0.00  0.00    +0.000 C 
ATOM      8  O   UNL     1      -9.233   6.475 -15.732  0.00  0.00    +0.000 OA
ENDBRANCH   1   8
BRANCH   6   9
ATOM      9  O   UNL     1      -7.583   5.354 -17.506  0.00  0.00    +0.000 OA
ATOM     10  H   UNL     1      -6.702   5.351 -17.927  0.00  0.00    +0.000 HD
ENDBRANCH   6   9
TORSDOF 2
ENDMDL
MODEL 3
REMARK VINA RESULT:    -3.977      0.987      2.700
REMARK INTER + INTRA:          -4.379
REMARK INTER:                  -4.336
REMARK INTRA:                  -0.042
REMARK UNBOUND:                -0.052
REMARK  Name = 
REMARK  3 active torsions:
REMARK  status: ('A' for Active; 'I' for Inactive)
REMARK    1  A    between atoms: C_1  and  O_2
REMARK    2  A    between atoms: O_2  and  C_3
REMARK    3  A    between atoms: C_8  and  O_9
REMARK                            x       y       z     vdW  Elec       q    Type
REMARK                         _______ _______ _______ _____ _____    ______ ____
ROOT
ATOM      1  C   UNL     1      -8.546   7.445 -18.122  0.00  0.00    +0.000 A 
ATOM      2  C   UNL     1      -9.316   8.549 -17.759  0.00  0.00    +0.000 A 
ATOM      3  C   UNL     1      -9.976   8.565 -16.523  0.00  0.00    +0.000 A 
ATOM      4  C   UNL     1      -9.869   7.481 -15.650  0.00  0.00    +0.000 A 
ATOM      5  C   UNL     1      -9.101   6.375 -16.006  0.00  0.00    +0.000 A 
ATOM      6  C   UNL     1      -8.451   6.367 -17.233  0.00  0.00    +0.000 A 
ENDROOT
BRANCH   1   8
ATOM      7  C   UNL     1      -6.642   8.036 -19.416  0.00  0.00    +0.000 C 
ATOM      8  O   UNL     1      -7.849   7.293 -19.294  0.00  0.00    +0.000 OA
ENDBRANCH   1   8
BRANCH   6   9
ATOM      9  O   UNL     1      -7.702   5.269 -17.561  0.00  0.00    +0.000 OA
ATOM     10  H   UNL     1      -7.018   5.218 -16.866  0.00  0.00    +0.000 HD
ENDBRANCH   6   9
TORSDOF 2
ENDMDL
MODEL 4
REMARK VINA RESULT:    -3.932      2.008      3.518
REMARK INTER + INTRA:          -4.329
REMARK INTER:                  -4.277
REMARK INTRA:                  -0.052
REMARK UNBOUND:                -0.052
REMARK  Name = 
REMARK  3 active torsions:
REMARK  status: ('A' for Active; 'I' for Inactive)
REMARK    1  A    between atoms: C_1  and  O_2
REMARK    2  A    between atoms: O_2  and  C_3
REMARK    3  A    between atoms: C_8  and  O_9
REMARK                            x       y       z     vdW  Elec       q    Type
REMARK                         _______ _______ _______ _____ _____    ______ ____
ROOT
ATOM      1  C   UNL     1      -9.813   7.645 -15.736  0.00  0.00    +0.000 A 
ATOM      2  C   UNL     1      -9.756   8.608 -16.743  0.00  0.00    +0.000 A 
ATOM      3  C   UNL     1      -9.100   8.323 -17.947  0.00  0.00    +0.000 A 
ATOM      4  C   UNL     1      -8.498   7.079 -18.148  0.00  0.00    +0.000 A 
ATOM      5  C   UNL     1      -8.551   6.112 -17.147  0.00  0.00    +0.000 A 
ATOM      6  C   UNL     1      -9.204   6.403 -15.956  0.00  0.00    +0.000 A 
ENDROOT
BRANCH   1   8
ATOM      7  C   UNL     1     -11.816   8.048 -14.523  0.00  0.00    +0.000 C 
ATOM      8  O   UNL     1     -10.418   7.785 -14.513  0.00  0.00    +0.000 OA
ENDBRANCH   1   8
BRANCH   6   9
ATOM      9  O   UNL     1      -9.243   5.436 -14.987  0.00  0.00    +0.000 OA
ATOM     10  H   UNL     1     -10.016   5.666 -14.438  0.00  0.00    +0.000 HD
ENDBRANCH   6   9
TORSDOF 2
ENDMDL
MODEL 5
REMARK VINA RESULT:    -3.904      2.601      3.637
REMARK INTER + INTRA:          -4.299
REMARK INTER:                  -4.249
REMARK INTRA:                  -0.050
REMARK UNBOUND:                -0.052
REMARK  Name = 
REMARK  3 active torsions:
REMARK  status: ('A' for Active; 'I' for Inactive)
REMARK    1  A    between atoms: C_1  and  O_2
REMARK    2  A    between atoms: O_2  and  C_3
REMARK    3  A    between atoms: C_8  and  O_9
REMARK                            x       y       z     vdW  Elec       q    Type
REMARK                         _______ _______ _______ _____ _____    ______ ____
ROOT
ATOM      1  C   UNL     1     -10.997   6.629 -14.886  0.00  0.00    +0.000 A 
ATOM      2  C   UNL     1     -11.455   7.915 -15.169  0.00  0.00    +0.000 A 
ATOM      3  C   UNL     1     -10.746   8.729 -16.061  0.00  0.00    +0.000 A 
ATOM      4  C   UNL     1      -9.579   8.263 -16.670  0.00  0.00    +0.000 A 
ATOM      5  C   UNL     1      -9.116   6.979 -16.392  0.00  0.00    +0.000 A 
ATOM      6  C   UNL     1      -9.826   6.179 -15.506  0.00  0.00    +0.000 A 
ENDROOT
BRANCH   1   8
ATOM      7  C   UNL     1     -11.864   6.184 -12.718  0.00  0.00    +0.000 C 
ATOM      8  O   UNL     1     -11.587   5.727 -14.037  0.00  0.00    +0.000 OA
ENDBRANCH   1   8
BRANCH   6   9
ATOM      9  O   UNL     1      -9.350   4.920 -15.249  0.00  0.00    +0.000 OA
ATOM     10  H   UNL     1     -10.149   4.379 -15.101  0.00  0.00    +0.000 HD
ENDBRANCH   6   9
TORSDOF 2
ENDMDL
MODEL 6
REMARK VINA RESULT:    -3.881      3.486      4.501
REMARK INTER + INTRA:          -4.274
REMARK INTER:                  -4.236
REMARK INTRA:                  -0.038
REMARK UNBOUND:                -0.052
REMARK  Name = 
REMARK  3 active torsions:
REMARK  status: ('A' for Active; 'I' for Inactive)
REMARK    1  A    between atoms: C_1  and  O_2
REMARK    2  A    between atoms: O_2  and  C_3
REMARK    3  A    between atoms: C_8  and  O_9
REMARK                            x       y       z     vdW  Elec       q    Type
REMARK                         _______ _______ _______ _____ _____    ______ ____
ROOT
ATOM      1  C   UNL     1     -11.053   7.953 -14.352  0.00  0.00    +0.000 A 
ATOM      2  C   UNL     1      -9.942   7.389 -13.726  0.00  0.00    +0.000 A 
ATOM      3  C   UNL     1      -8.830   7.005 -14.487  0.00  0.00    +0.000 A 
ATOM      4  C   UNL     1      -8.825   7.183 -15.872  0.00  0.00    +0.000 A 
ATOM      5  C   UNL     1      -9.930   7.747 -16.504  0.00  0.00    +0.000 A 
ATOM      6  C   UNL     1     -11.029   8.124 -15.741  0.00  0.00    +0.000 A 
ENDROOT
BRANCH   1   8
ATOM      7  C   UNL     1     -12.166   8.471 -12.317  0.00  0.00    +0.000 C 
ATOM      8  O   UNL     1     -12.204   8.373 -13.736  0.00  0.00    +0.000 OA
ENDBRANCH   1   8
BRANCH   6   9
ATOM      9  O   UNL     1     -12.104   8.676 -16.385  0.00  0.00    +0.000 OA
ATOM     10  H   UNL     1     -12.865   8.486 -15.804  0.00  0.00    +0.000 HD
ENDBRANCH   6   9
TORSDOF 2
ENDMDL
MODEL 7
REMARK VINA RESULT:    -3.841      1.600      2.952
REMARK INTER + INTRA:          -4.231
REMARK INTER:                  -4.190
REMARK INTRA:                  -0.041
REMARK UNBOUND:                -0.052
REMARK  Name = 
REMARK  3 active torsions:
REMARK  status: ('A' for Active; 'I' for Inactive)
REMARK    1  A    between atoms: C_1  and  O_2
REMARK    2  A    between atoms: O_2  and  C_3
REMARK    3  A    between atoms: C_8  and  O_9
REMARK                            x       y       z     vdW  Elec       q    Type
REMARK                         _______ _______ _______ _____ _____    ______ ____
ROOT
ATOM      1  C   UNL     1      -9.214   7.100 -16.595  0.00  0.00    +0.000 A 
ATOM      2  C   UNL     1      -9.759   8.361 -16.832  0.00  0.00    +0.000 A 
ATOM      3  C   UNL     1     -10.846   8.808 -16.070  0.00  0.00    +0.000 A 
ATOM      4  C   UNL     1     -11.390   7.998 -15.071  0.00  0.00    +0.000 A 
ATOM      5  C   UNL     1     -10.851   6.738 -14.828  0.00  0.00    +0.000 A 
ATOM      6  C   UNL     1      -9.773   6.302 -15.589  0.00  0.00    +0.000 A 
ENDROOT
BRANCH   1   8
ATOM      7  C   UNL     1      -7.980   6.925 -18.618  0.00  0.00    +0.000 C 
ATOM      8  O   UNL     1      -8.156   6.536 -17.261  0.00  0.00    +0.000 OA
ENDBRANCH   1   8
BRANCH   6   9
ATOM      9  O   UNL     1      -9.260   5.059 -15.332  0.00  0.00    +0.000 OA
ATOM     10  H   UNL     1      -9.026   5.079 -14.384  0.00  0.00    +0.000 HD
ENDBRANCH   6   9
TORSDOF 2
ENDMDL
MODEL 8
REMARK VINA RESULT:    -3.793      2.579      3.677
REMARK INTER + INTRA:          -4.178
REMARK INTER:                  -4.139
REMARK INTRA:                  -0.038
REMARK UNBOUND:                -0.052
REMARK  Name = 
REMARK  3 active torsions:
REMARK  status: ('A' for Active; 'I' for Inactive)
REMARK    1  A    between atoms: C_1  and  O_2
REMARK    2  A    between atoms: O_2  and  C_3
REMARK    3  A    between atoms: C_8  and  O_9
REMARK                            x       y       z     vdW  Elec       q    Type
REMARK                         _______ _______ _______ _____ _____    ______ ____
ROOT
ATOM      1  C   UNL     1      -9.561   6.172 -15.473  0.00  0.00    +0.000 A 
ATOM      2  C   UNL     1     -10.714   5.409 -15.653  0.00  0.00    +0.000 A 
ATOM      3  C   UNL     1     -11.740   5.457 -14.701  0.00  0.00    +0.000 A 
ATOM      4  C   UNL     1     -11.618   6.264 -13.568  0.00  0.00    +0.000 A 
ATOM      5  C   UNL     1     -10.469   7.030 -13.382  0.00  0.00    +0.000 A 
ATOM      6  C   UNL     1      -9.456   6.975 -14.331  0.00  0.00    +0.000 A 
ENDROOT
BRANCH   1   8
ATOM      7  C   UNL     1      -8.380   5.179 -17.280  0.00  0.00    +0.000 C 
ATOM      8  O   UNL     1      -8.482   6.222 -16.319  0.00  0.00    +0.000 OA
ENDBRANCH   1   8
BRANCH   6   9
ATOM      9  O   UNL     1      -8.336   7.736 -14.126  0.00  0.00    +0.000 OA
ATOM     10  H   UNL     1      -8.232   7.769 -13.156  0.00  0.00    +0.000 HD
ENDBRANCH   6   9
TORSDOF 2
ENDMDL
MODEL 9
REMARK VINA RESULT:    -3.776      2.620      3.675
REMARK INTER + INTRA:          -4.160
REMARK INTER:                  -4.109
REMARK INTRA:                  -0.051
REMARK UNBOUND:                -0.052
REMARK  Name = 
REMARK  3 active torsions:
REMARK  status: ('A' for Active; 'I' for Inactive)
REMARK    1  A    between atoms: C_1  and  O_2
REMARK    2  A    between atoms: O_2  and  C_3
REMARK    3  A    between atoms: C_8  and  O_9
REMARK                            x       y       z     vdW  Elec       q    Type
REMARK                         _______ _______ _______ _____ _____    ______ ____
ROOT
ATOM      1  C   UNL     1      -9.727   8.053 -16.044  0.00  0.00    +0.000 A 
ATOM      2  C   UNL     1      -8.885   7.543 -15.056  0.00  0.00    +0.000 A 
ATOM      3  C   UNL     1      -9.393   7.259 -13.782  0.00  0.00    +0.000 A 
ATOM      4  C   UNL     1     -10.740   7.484 -13.491  0.00  0.00    +0.000 A 
ATOM      5  C   UNL     1     -11.587   7.993 -14.472  0.00  0.00    +0.000 A 
ATOM      6  C   UNL     1     -11.075   8.272 -15.733  0.00  0.00    +0.000 A 
ENDROOT
BRANCH   1   8
ATOM      7  C   UNL     1      -8.796   7.334 -18.108  0.00  0.00    +0.000 C 
ATOM      8  O   UNL     1      -9.369   8.376 -17.328  0.00  0.00    +0.000 OA
ENDBRANCH   1   8
BRANCH   6   9
ATOM      9  O   UNL     1     -11.928   8.771 -16.681  0.00  0.00    +0.000 OA
ATOM     10  H   UNL     1     -11.599   8.409 -17.526  0.00  0.00    +0.000 HD
ENDBRANCH   6   9
TORSDOF 2
ENDMDL
