MODEL 1
REMARK VINA RESULT:    -4.367      0.000      0.000
REMARK INTER + INTRA:          -6.254
REMARK INTER:                  -5.898
REMARK INTRA:                  -0.356
REMARK UNBOUND:                -0.356
REMARK  Name = 
REMARK  10 active torsions:
REMARK  status: ('A' for Active; 'I' for Inactive)
REMARK    1  A    between atoms: C_1  and  C_2
REMARK    2  A    between atoms: C_5  and  N_8
REMARK    3  A    between atoms: N_8  and  C_9
REMARK    4  A    between atoms: N_8  and  C_13
REMARK    5  A    between atoms: C_9  and  C_10
REMARK    6  A    between atoms: C_10  and  C_11
REMARK    7  A    between atoms: C_10  and  O_12
REMARK    8  A    between atoms: C_13  and  C_14
REMARK    9  A    between atoms: C_14  and  C_15
REMARK   10  A    between atoms: C_14  and  O_16
REMARK                            x       y       z     vdW  Elec       q    Type
REMARK                         _______ _______ _______ _____ _____    ______ ____
ROOT
ATOM      1  N   UNL     1       9.183  20.605  -1.906  0.00  0.00    +0.000 N 
ENDROOT
BRANCH   1   6
ATOM      2  C   UNL     1       8.552  22.369  -7.367  0.00  0.00    +0.000 C 
ATOM      3  C   UNL     1       8.715  21.887  -5.958  0.00  0.00    +0.000 A 
ATOM      4  C   UNL     1       7.609  21.687  -5.139  0.00  0.00    +0.000 A 
ATOM      5  C   UNL     1       7.769  21.265  -3.809  0.00  0.00    +0.000 A 
ATOM      6  C   UNL     1       9.031  21.045  -3.227  0.00  0.00    +0.000 A 
ATOM      7  C   UNL     1      10.126  21.256  -4.085  0.00  0.00    +0.000 A 
ATOM      8  C   UNL     1       9.980  21.676  -5.417  0.00  0.00    +0.000 A 
ENDBRANCH   1   6
BRANCH   1   9
ATOM      9  C   UNL     1       8.020  20.060  -1.166  0.00  0.00    +0.000 C 
BRANCH   9  10
ATOM     10  C   UNL     1       7.764  18.563  -1.468  0.00  0.00    +0.000 C 
ATOM     11  C   UNL     1       8.071  17.701  -0.250  0.00  0.00    +0.000 C 
BRANCH  10  12
ATOM     12  O   UNL     1       6.397  18.339  -1.838  0.00  0.00    +0.000 OA
ATOM     13  H   UNL     1       5.979  17.806  -1.141  0.00  0.00    +0.000 HD
ENDBRANCH  10  12
ENDBRANCH   9  10
ENDBRANCH   1   9
BRANCH   1  14
ATOM     14  C   UNL     1      10.287  21.109  -1.050  0.00  0.00    +0.000 C 
BRANCH  14  15
ATOM     15  C   UNL     1      11.344  20.017  -0.758  0.00  0.00    +0.000 C 
ATOM     16  C   UNL     1      11.273  18.840  -1.722  0.00  0.00    +0.000 C 
BRANCH  15  17
ATOM     17  O   UNL     1      12.670  20.543  -0.799  0.00  0.00    +0.000 OA
ATOM     18  H   UNL     1      12.690  21.116  -1.591  0.00  0.00    +0.000 HD
ENDBRANCH  15  17
ENDBRANCH  14  15
ENDBRANCH   1  14
TORSDOF 7
ENDMDL
MODEL 2
REMARK VINA RESULT:    -4.172     15.941     17.662
REMARK INTER + INTRA:          -5.991
REMARK INTER:                  -5.582
REMARK INTRA:                  -0.409
REMARK UNBOUND:                -0.356
REMARK  Name = 
REMARK  10 active torsions:
REMARK  status: ('A' for Active; 'I' for Inactive)
REMARK    1  A    between atoms: C_1  and  C_2
REMARK    2  A    between atoms: C_5  and  N_8
REMARK    3  A    between atoms: N_8  and  C_9
REMARK    4  A    between atoms: N_8  and  C_13
REMARK    5  A    between atoms: C_9  and  C_10
REMARK    6  A    between atoms: C_10  and  C_11
REMARK    7  A    between atoms: C_10  and  O_12
REMARK    8  A    between atoms: C_13  and  C_14
REMARK    9  A    between atoms: C_14  and  C_15
REMARK   10  A    between atoms: C_14  and  O_16
REMARK                            x       y       z     vdW  Elec       q    Type
REMARK                         _______ _______ _______ _____ _____    ______ ____
ROOT
ATOM      1  N   UNL     1      10.986  15.292 -20.330  0.00  0.00    +0.000 N 
ENDROOT
BRANCH   1   6
ATOM      2  C   UNL     1       9.682  20.548 -18.329  0.00  0.00    +0.000 C 
ATOM      3  C   UNL     1      10.044  19.191 -18.850  0.00  0.00    +0.000 A 
ATOM      4  C   UNL     1       9.977  18.907 -20.210  0.00  0.00    +0.000 A 
ATOM      5  C   UNL     1      10.289  17.624 -20.690  0.00  0.00    +0.000 A 
ATOM      6  C   UNL     1      10.657  16.563 -19.843  0.00  0.00    +0.000 A 
ATOM      7  C   UNL     1      10.717  16.887 -18.475  0.00  0.00    +0.000 A 
ATOM      8  C   UNL     1      10.409  18.166 -17.982  0.00  0.00    +0.000 A 
ENDBRANCH   1   6
BRANCH   1   9
ATOM      9  C   UNL     1      10.036  14.165 -20.167  0.00  0.00    +0.000 C 
BRANCH   9  10
ATOM     10  C   UNL     1       8.556  14.617 -20.205  0.00  0.00    +0.000 C 
ATOM     11  C   UNL     1       7.977  14.469 -21.607  0.00  0.00    +0.000 C 
BRANCH  10  12
ATOM     12  O   UNL     1       7.755  13.834 -19.309  0.00  0.00    +0.000 OA
ATOM     13  H   UNL     1       8.328  13.163 -18.901  0.00  0.00    +0.000 HD
ENDBRANCH  10  12
ENDBRANCH   9  10
ENDBRANCH   1   9
BRANCH   1  14
ATOM     14  C   UNL     1      12.401  14.891 -20.540  0.00  0.00    +0.000 C 
BRANCH  14  15
ATOM     15  C   UNL     1      12.924  13.980 -19.404  0.00  0.00    +0.000 C 
ATOM     16  C   UNL     1      14.070  13.075 -19.841  0.00  0.00    +0.000 C 
BRANCH  15  17
ATOM     17  O   UNL     1      13.365  14.739 -18.279  0.00  0.00    +0.000 OA
ATOM     18  H   UNL     1      13.764  15.547 -18.661  0.00  0.00    +0.000 HD
ENDBRANCH  15  17
ENDBRANCH  14  15
ENDBRANCH   1  14
TORSDOF 7
ENDMDL
MODEL 3
REMARK VINA RESULT:    -4.146     16.296     18.119
REMARK INTER + INTRA:          -5.957
REMARK INTER:                  -5.649
REMARK INTRA:                  -0.308
REMARK UNBOUND:                -0.356
REMARK  Name = 
REMARK  10 active torsions:
REMARK  status: ('A' for Active; 'I' for Inactive)
REMARK    1  A    between atoms: C_1  and  C_2
REMARK    2  A    between atoms: C_5  and  N_8
REMARK    3  A    between atoms: N_8  and  C_9
REMARK    4  A    between atoms: N_8  and  C_13
REMARK    5  A    between atoms: C_9  and  C_10
REMARK    6  A    between atoms: C_10  and  C_11
REMARK    7  A    between atoms: C_10  and  O_12
REMARK    8  A    between atoms: C_13  and  C_14
REMARK    9  A    between atoms: C_14  and  C_15
REMARK   10  A    between atoms: C_14  and  O_16
REMARK                            x       y       z     vdW  Elec       q    Type
REMARK                         _______ _______ _______ _____ _____    ______ ____
ROOT
ATOM      1  N   UNL     1      10.990  14.936 -20.124  0.00  0.00    +0.000 N 
ENDROOT
BRANCH   1   6
ATOM      2  C   UNL     1       9.867  20.532 -19.252  0.00  0.00    +0.000 C 
ATOM      3  C   UNL     1      10.134  19.075 -19.478  0.00  0.00    +0.000 A 
ATOM      4  C   UNL     1      10.319  18.207 -18.407  0.00  0.00    +0.000 A 
ATOM      5  C   UNL     1      10.598  16.848 -18.626  0.00  0.00    +0.000 A 
ATOM      6  C   UNL     1      10.730  16.296 -19.913  0.00  0.00    +0.000 A 
ATOM      7  C   UNL     1      10.535  17.202 -20.972  0.00  0.00    +0.000 A 
ATOM      8  C   UNL     1      10.253  18.563 -20.767  0.00  0.00    +0.000 A 
ENDBRANCH   1   6
BRANCH   1   9
ATOM      9  C   UNL     1      12.358  14.487 -20.477  0.00  0.00    +0.000 C 
BRANCH   9  10
ATOM     10  C   UNL     1      13.051  13.716 -19.326  0.00  0.00    +0.000 C 
ATOM     11  C   UNL     1      14.307  13.010 -19.823  0.00  0.00    +0.000 C 
BRANCH  10  12
ATOM     12  O   UNL     1      13.431  14.606 -18.267  0.00  0.00    +0.000 OA
ATOM     13  H   UNL     1      12.890  15.409 -18.339  0.00  0.00    +0.000 HD
ENDBRANCH  10  12
ENDBRANCH   9  10
ENDBRANCH   1   9
BRANCH   1  14
ATOM     14  C   UNL     1       9.906  13.997 -20.510  0.00  0.00    +0.000 C 
BRANCH  14  15
ATOM     15  C   UNL     1       8.500  14.600 -20.275  0.00  0.00    +0.000 C 
ATOM     16  C   UNL     1       7.664  14.686 -21.546  0.00  0.00    +0.000 C 
BRANCH  15  17
ATOM     17  O   UNL     1       7.760  13.852 -19.310  0.00  0.00    +0.000 OA
ATOM     18  H   UNL     1       6.987  14.411 -19.096  0.00  0.00    +0.000 HD
ENDBRANCH  15  17
ENDBRANCH  14  15
ENDBRANCH   1  14
TORSDOF 7
ENDMDL
MODEL 4
REMARK VINA RESULT:    -4.011     14.369     17.003
REMARK INTER + INTRA:          -5.774
REMARK INTER:                  -5.331
REMARK INTRA:                  -0.443
REMARK UNBOUND:                -0.356
REMARK  Name = 
REMARK  10 active torsions:
REMARK  status: ('A' for Active; 'I' for Inactive)
REMARK    1  A    between atoms: C_1  and  C_2
REMARK    2  A    between atoms: C_5  and  N_8
REMARK    3  A    between atoms: N_8  and  C_9
REMARK    4  A    between atoms: N_8  and  C_13
REMARK    5  A    between atoms: C_9  and  C_10
REMARK    6  A    between atoms: C_10  and  C_11
REMARK    7  A    between atoms: C_10  and  O_12
REMARK    8  A    between atoms: C_13  and  C_14
REMARK    9  A    between atoms: C_14  and  C_15
REMARK   10  A    between atoms: C_14  and  O_16
REMARK                            x       y       z     vdW  Elec       q    Type
REMARK                         _______ _______ _______ _____ _____    ______ ____
ROOT
ATOM      1  N   UNL     1      10.915  16.521 -19.479  0.00  0.00    +0.000 N 
ENDROOT
BRANCH   1   6
ATOM      2  C   UNL     1       9.420  21.117 -16.320  0.00  0.00    +0.000 C 
ATOM      3  C   UNL     1       9.830  19.936 -17.145  0.00  0.00    +0.000 A 
ATOM      4  C   UNL     1       9.492  19.853 -18.492  0.00  0.00    +0.000 A 
ATOM      5  C   UNL     1       9.852  18.729 -19.253  0.00  0.00    +0.000 A 
ATOM      6  C   UNL     1      10.541  17.630 -18.709  0.00  0.00    +0.000 A 
ATOM      7  C   UNL     1      10.868  17.749 -17.346  0.00  0.00    +0.000 A 
ATOM      8  C   UNL     1      10.516  18.868 -16.574  0.00  0.00    +0.000 A 
ENDBRANCH   1   6
BRANCH   1   9
ATOM      9  C   UNL     1      12.348  16.188 -19.655  0.00  0.00    +0.000 C 
BRANCH   9  10
ATOM     10  C   UNL     1      12.811  15.026 -18.742  0.00  0.00    +0.000 C 
ATOM     11  C   UNL     1      13.678  14.038 -19.514  0.00  0.00    +0.000 C 
BRANCH  10  12
ATOM     12  O   UNL     1      13.577  15.516 -17.633  0.00  0.00    +0.000 OA
ATOM     13  H   UNL     1      12.965  15.690 -16.898  0.00  0.00    +0.000 HD
ENDBRANCH  10  12
ENDBRANCH   9  10
ENDBRANCH   1   9
BRANCH   1  14
ATOM     14  C   UNL     1      10.013  15.971 -20.523  0.00  0.00    +0.000 C 
BRANCH  14  15
ATOM     15  C   UNL     1       9.302  14.677 -20.058  0.00  0.00    +0.000 C 
ATOM     16  C   UNL     1       7.961  14.449 -20.746  0.00  0.00    +0.000 C 
BRANCH  15  17
ATOM     17  O   UNL     1      10.112  13.523 -20.277  0.00  0.00    +0.000 OA
ATOM     18  H   UNL     1       9.641  13.009 -20.963  0.00  0.00    +0.000 HD
ENDBRANCH  15  17
ENDBRANCH  14  15
ENDBRANCH   1  14
TORSDOF 7
ENDMDL
MODEL 5
REMARK VINA RESULT:    -3.812     24.330     26.168
REMARK INTER + INTRA:          -5.505
REMARK INTER:                  -5.020
REMARK INTRA:                  -0.485
REMARK UNBOUND:                -0.356
REMARK  Name = 
REMARK  10 active torsions:
REMARK  status: ('A' for Active; 'I' for Inactive)
REMARK    1  A    between atoms: C_1  and  C_2
REMARK    2  A    between atoms: C_5  and  N_8
REMARK    3  A    between atoms: N_8  and  C_9
REMARK    4  A    between atoms: N_8  and  C_13
REMARK    5  A    between atoms: C_9  and  C_10
REMARK    6  A    between atoms: C_10  and  C_11
REMARK    7  A    between atoms: C_10  and  O_12
REMARK    8  A    between atoms: C_13  and  C_14
REMARK    9  A    between atoms: C_14  and  C_15
REMARK   10  A    between atoms: C_14  and  O_16
REMARK                            x       y       z     vdW  Elec       q    Type
REMARK                         _______ _______ _______ _____ _____    ______ ____
ROOT
ATOM      1  N   UNL     1      -6.787   7.928 -19.056  0.00  0.00    +0.000 N 
ENDROOT
BRANCH   1   6
ATOM      2  C   UNL     1      -3.708   3.820 -21.696  0.00  0.00    +0.000 C 
ATOM      3  C   UNL     1      -4.497   4.878 -20.989  0.00  0.00    +0.000 A 
ATOM      4  C   UNL     1      -5.795   4.631 -20.553  0.00  0.00    +0.000 A 
ATOM      5  C   UNL     1      -6.541   5.636 -19.918  0.00  0.00    +0.000 A 
ATOM      6  C   UNL     1      -6.044   6.935 -19.708  0.00  0.00    +0.000 A 
ATOM      7  C   UNL     1      -4.729   7.150 -20.159  0.00  0.00    +0.000 A 
ATOM      8  C   UNL     1      -3.971   6.152 -20.794  0.00  0.00    +0.000 A 
ENDBRANCH   1   6
BRANCH   1   9
ATOM      9  C   UNL     1      -7.318   7.684 -17.693  0.00  0.00    +0.000 C 
BRANCH   9  10
ATOM     10  C   UNL     1      -6.212   7.311 -16.676  0.00  0.00    +0.000 C 
ATOM     11  C   UNL     1      -5.291   8.496 -16.413  0.00  0.00    +0.000 C 
BRANCH  10  12
ATOM     12  O   UNL     1      -6.781   6.904 -15.423  0.00  0.00    +0.000 OA
ATOM     13  H   UNL     1      -6.070   6.885 -14.762  0.00  0.00    +0.000 HD
ENDBRANCH  10  12
ENDBRANCH   9  10
ENDBRANCH   1   9
BRANCH   1  14
ATOM     14  C   UNL     1      -7.494   8.987 -19.821  0.00  0.00    +0.000 C 
BRANCH  14  15
ATOM     15  C   UNL     1      -6.528  10.085 -20.328  0.00  0.00    +0.000 C 
ATOM     16  C   UNL     1      -7.248  11.284 -20.933  0.00  0.00    +0.000 C 
BRANCH  15  17
ATOM     17  O   UNL     1      -5.677  10.560 -19.285  0.00  0.00    +0.000 OA
ATOM     18  H   UNL     1      -5.137   9.786 -19.027  0.00  0.00    +0.000 HD
ENDBRANCH  15  17
ENDBRANCH  14  15
ENDBRANCH   1  14
TORSDOF 7
ENDMDL
MODEL 6
REMARK VINA RESULT:    -3.762      1.997      5.193
REMARK INTER + INTRA:          -5.438
REMARK INTER:                  -4.756
REMARK INTRA:                  -0.682
REMARK UNBOUND:                -0.356
REMARK  Name = 
REMARK  10 active torsions:
REMARK  status: ('A' for Active; 'I' for Inactive)
REMARK    1  A    between atoms: C_1  and  C_2
REMARK    2  A    between atoms: C_5  and  N_8
REMARK    3  A    between atoms: N_8  and  C_9
REMARK    4  A    between atoms: N_8  and  C_13
REMARK    5  A    between atoms: C_9  and  C_10
REMARK    6  A    between atoms: C_10  and  C_11
REMARK    7  A    between atoms: C_10  and  O_12
REMARK    8  A    between atoms: C_13  and  C_14
REMARK    9  A    between atoms: C_14  and  C_15
REMARK   10  A    between atoms: C_14  and  O_16
REMARK                            x       y       z     vdW  Elec       q    Type
REMARK                         _______ _______ _______ _____ _____    ______ ____
ROOT
ATOM      1  N   UNL     1       9.479  21.369  -2.691  0.00  0.00    +0.000 N 
ENDROOT
BRANCH   1   6
ATOM      2  C   UNL     1       7.427  16.903   0.338  0.00  0.00    +0.000 C 
ATOM      3  C   UNL     1       7.982  18.059  -0.437  0.00  0.00    +0.000 A 
ATOM      4  C   UNL     1       7.870  19.360   0.042  0.00  0.00    +0.000 A 
ATOM      5  C   UNL     1       8.365  20.443  -0.703  0.00  0.00    +0.000 A 
ATOM      6  C   UNL     1       8.970  20.287  -1.962  0.00  0.00    +0.000 A 
ATOM      7  C   UNL     1       9.069  18.958  -2.415  0.00  0.00    +0.000 A 
ATOM      8  C   UNL     1       8.580  17.866  -1.679  0.00  0.00    +0.000 A 
ENDBRANCH   1   6
BRANCH   1   9
ATOM      9  C   UNL     1      10.609  22.163  -2.151  0.00  0.00    +0.000 C 
BRANCH   9  10
ATOM     10  C   UNL     1      11.949  21.388  -2.167  0.00  0.00    +0.000 C 
ATOM     11  C   UNL     1      12.112  20.555  -0.901  0.00  0.00    +0.000 C 
BRANCH  10  12
ATOM     12  O   UNL     1      12.018  20.503  -3.293  0.00  0.00    +0.000 OA
ATOM     13  H   UNL     1      11.117  20.200  -3.494  0.00  0.00    +0.000 HD
ENDBRANCH  10  12
ENDBRANCH   9  10
ENDBRANCH   1   9
BRANCH   1  14
ATOM     14  C   UNL     1       8.651  22.071  -3.705  0.00  0.00    +0.000 C 
BRANCH  14  15
ATOM     15  C   UNL     1       8.840  21.483  -5.123  0.00  0.00    +0.000 C 
ATOM     16  C   UNL     1       8.265  22.369  -6.222  0.00  0.00    +0.000 C 
BRANCH  15  17
ATOM     17  O   UNL     1      10.217  21.250  -5.418  0.00  0.00    +0.000 OA
ATOM     18  H   UNL     1      10.317  21.491  -6.361  0.00  0.00    +0.000 HD
ENDBRANCH  15  17
ENDBRANCH  14  15
ENDBRANCH   1  14
TORSDOF 7
ENDMDL
MODEL 7
REMARK VINA RESULT:    -3.708      1.933      4.769
REMARK INTER + INTRA:          -5.365
REMARK INTER:                  -5.000
REMARK INTRA:                  -0.364
REMARK UNBOUND:                -0.356
REMARK  Name = 
REMARK  10 active torsions:
REMARK  status: ('A' for Active; 'I' for Inactive)
REMARK    1  A    between atoms: C_1  and  C_2
REMARK    2  A    between atoms: C_5  and  N_8
REMARK    3  A    between atoms: N_8  and  C_9
REMARK    4  A    between atoms: N_8  and  C_13
REMARK    5  A    between atoms: C_9  and  C_10
REMARK    6  A    between atoms: C_10  and  C_11
REMARK    7  A    between atoms: C_10  and  O_12
REMARK    8  A    between atoms: C_13  and  C_14
REMARK    9  A    between atoms: C_14  and  C_15
REMARK   10  A    between atoms: C_14  and  O_16
REMARK                            x       y       z     vdW  Elec       q    Type
REMARK                         _______ _______ _______ _____ _____    ______ ____
ROOT
ATOM      1  N   UNL     1       9.028  21.232  -2.855  0.00  0.00    +0.000 N 
ENDROOT
BRANCH   1   6
ATOM      2  C   UNL     1      12.687  17.707  -0.114  0.00  0.00    +0.000 C 
ATOM      3  C   UNL     1      11.727  18.627  -0.803  0.00  0.00    +0.000 A 
ATOM      4  C   UNL     1      10.532  18.148  -1.330  0.00  0.00    +0.000 A 
ATOM      5  C   UNL     1       9.649  19.010  -2.002  0.00  0.00    +0.000 A 
ATOM      6  C   UNL     1       9.922  20.375  -2.201  0.00  0.00    +0.000 A 
ATOM      7  C   UNL     1      11.137  20.825  -1.653  0.00  0.00    +0.000 A 
ATOM      8  C   UNL     1      12.028  19.975  -0.977  0.00  0.00    +0.000 A 
ENDBRANCH   1   6
BRANCH   1   9
ATOM      9  C   UNL     1       7.606  20.844  -3.012  0.00  0.00    +0.000 C 
BRANCH   9  10
ATOM     10  C   UNL     1       6.812  20.919  -1.685  0.00  0.00    +0.000 C 
ATOM     11  C   UNL     1       6.394  22.353  -1.381  0.00  0.00    +0.000 C 
BRANCH  10  12
ATOM     12  O   UNL     1       5.627  20.114  -1.747  0.00  0.00    +0.000 OA
ATOM     13  H   UNL     1       4.864  20.687  -1.560  0.00  0.00    +0.000 HD
ENDBRANCH  10  12
ENDBRANCH   9  10
ENDBRANCH   1   9
BRANCH   1  14
ATOM     14  C   UNL     1       9.508  22.249  -3.825  0.00  0.00    +0.000 C 
BRANCH  14  15
ATOM     15  C   UNL     1       9.727  21.653  -5.236  0.00  0.00    +0.000 C 
ATOM     16  C   UNL     1       8.922  22.363  -6.319  0.00  0.00    +0.000 C 
BRANCH  15  17
ATOM     17  O   UNL     1      11.102  21.686  -5.615  0.00  0.00    +0.000 OA
ATOM     18  H   UNL     1      11.480  20.852  -5.270  0.00  0.00    +0.000 HD
ENDBRANCH  15  17
ENDBRANCH  14  15
ENDBRANCH   1  14
TORSDOF 7
ENDMDL
MODEL 8
REMARK VINA RESULT:    -3.707     13.896     16.667
REMARK INTER + INTRA:          -5.364
REMARK INTER:                  -4.855
REMARK INTRA:                  -0.509
REMARK UNBOUND:                -0.356
REMARK  Name = 
REMARK  10 active torsions:
REMARK  status: ('A' for Active; 'I' for Inactive)
REMARK    1  A    between atoms: C_1  and  C_2
REMARK    2  A    between atoms: C_5  and  N_8
REMARK    3  A    between atoms: N_8  and  C_9
REMARK    4  A    between atoms: N_8  and  C_13
REMARK    5  A    between atoms: C_9  and  C_10
REMARK    6  A    between atoms: C_10  and  C_11
REMARK    7  A    between atoms: C_10  and  O_12
REMARK    8  A    between atoms: C_13  and  C_14
REMARK    9  A    between atoms: C_14  and  C_15
REMARK   10  A    between atoms: C_14  and  O_16
REMARK                            x       y       z     vdW  Elec       q    Type
REMARK                         _______ _______ _______ _____ _____    ______ ____
ROOT
ATOM      1  N   UNL     1      11.553  17.497 -17.615  0.00  0.00    +0.000 N 
ENDROOT
BRANCH   1   6
ATOM      2  C   UNL     1      10.053  13.635 -21.636  0.00  0.00    +0.000 C 
ATOM      3  C   UNL     1      10.436  14.621 -20.574  0.00  0.00    +0.000 A 
ATOM      4  C   UNL     1       9.516  15.545 -20.092  0.00  0.00    +0.000 A 
ATOM      5  C   UNL     1       9.889  16.487 -19.119  0.00  0.00    +0.000 A 
ATOM      6  C   UNL     1      11.193  16.569 -18.600  0.00  0.00    +0.000 A 
ATOM      7  C   UNL     1      12.097  15.618 -19.109  0.00  0.00    +0.000 A 
ATOM      8  C   UNL     1      11.737  14.670 -20.080  0.00  0.00    +0.000 A 
ENDBRANCH   1   6
BRANCH   1   9
ATOM      9  C   UNL     1      12.982  17.826 -17.390  0.00  0.00    +0.000 C 
BRANCH   9  10
ATOM     10  C   UNL     1      13.501  18.928 -18.346  0.00  0.00    +0.000 C 
ATOM     11  C   UNL     1      14.578  18.381 -19.275  0.00  0.00    +0.000 C 
BRANCH  10  12
ATOM     12  O   UNL     1      12.439  19.451 -19.155  0.00  0.00    +0.000 OA
ATOM     13  H   UNL     1      11.702  18.817 -19.131  0.00  0.00    +0.000 HD
ENDBRANCH  10  12
ENDBRANCH   9  10
ENDBRANCH   1   9
BRANCH   1  14
ATOM     14  C   UNL     1      10.658  17.785 -16.466  0.00  0.00    +0.000 C 
BRANCH  14  15
ATOM     15  C   UNL     1      10.366  19.298 -16.317  0.00  0.00    +0.000 C 
ATOM     16  C   UNL     1       9.633  19.888 -17.516  0.00  0.00    +0.000 C 
BRANCH  15  17
ATOM     17  O   UNL     1       9.595  19.574 -15.148  0.00  0.00    +0.000 OA
ATOM     18  H   UNL     1       9.258  20.483 -15.277  0.00  0.00    +0.000 HD
ENDBRANCH  15  17
ENDBRANCH  14  15
ENDBRANCH   1  14
TORSDOF 7
ENDMDL
MODEL 9
REMARK VINA RESULT:    -3.668     14.443     16.816
REMARK INTER + INTRA:          -5.311
REMARK INTER:                  -4.579
REMARK INTRA:                  -0.732
REMARK UNBOUND:                -0.356
REMARK  Name = 
REMARK  10 active torsions:
REMARK  status: ('A' for Active; 'I' for Inactive)
REMARK    1  A    between atoms: C_1  and  C_2
REMARK    2  A    between atoms: C_5  and  N_8
REMARK    3  A    between atoms: N_8  and  C_9
REMARK    4  A    between atoms: N_8  and  C_13
REMARK    5  A    between atoms: C_9  and  C_10
REMARK    6  A    between atoms: C_10  and  C_11
REMARK    7  A    between atoms: C_10  and  O_12
REMARK    8  A    between atoms: C_13  and  C_14
REMARK    9  A    between atoms: C_14  and  C_15
REMARK   10  A    between atoms: C_14  and  O_16
REMARK                            x       y       z     vdW  Elec       q    Type
REMARK                         _______ _______ _______ _____ _____    ______ ____
ROOT
ATOM      1  N   UNL     1      11.185  18.348 -18.949  0.00  0.00    +0.000 N 
ENDROOT
BRANCH   1   6
ATOM      2  C   UNL     1       8.210  14.233 -21.696  0.00  0.00    +0.000 C 
ATOM      3  C   UNL     1       8.960  15.311 -20.976  0.00  0.00    +0.000 A 
ATOM      4  C   UNL     1       9.333  16.481 -21.629  0.00  0.00    +0.000 A 
ATOM      5  C   UNL     1      10.062  17.476 -20.957  0.00  0.00    +0.000 A 
ATOM      6  C   UNL     1      10.474  17.344 -19.619  0.00  0.00    +0.000 A 
ATOM      7  C   UNL     1      10.078  16.150 -18.989  0.00  0.00    +0.000 A 
ATOM      8  C   UNL     1       9.347  15.148 -19.648  0.00  0.00    +0.000 A 
ENDBRANCH   1   6
BRANCH   1   9
ATOM      9  C   UNL     1      10.902  19.776 -19.235  0.00  0.00    +0.000 C 
BRANCH   9  10
ATOM     10  C   UNL     1       9.751  20.345 -18.370  0.00  0.00    +0.000 C 
ATOM     11  C   UNL     1       8.546  20.700 -19.232  0.00  0.00    +0.000 C 
BRANCH  10  12
ATOM     12  O   UNL     1       9.328  19.392 -17.385  0.00  0.00    +0.000 OA
ATOM     13  H   UNL     1       9.427  18.503 -17.764  0.00  0.00    +0.000 HD
ENDBRANCH  10  12
ENDBRANCH   9  10
ENDBRANCH   1   9
BRANCH   1  14
ATOM     14  C   UNL     1      12.523  18.082 -18.362  0.00  0.00    +0.000 C 
BRANCH  14  15
ATOM     15  C   UNL     1      12.524  18.231 -16.821  0.00  0.00    +0.000 C 
ATOM     16  C   UNL     1      12.867  19.641 -16.355  0.00  0.00    +0.000 C 
BRANCH  15  17
ATOM     17  O   UNL     1      11.265  17.872 -16.255  0.00  0.00    +0.000 OA
ATOM     18  H   UNL     1      11.419  17.010 -15.820  0.00  0.00    +0.000 HD
ENDBRANCH  15  17
ENDBRANCH  14  15
ENDBRANCH   1  14
TORSDOF 7
ENDMDL
