MODEL 1
REMARK VINA RESULT:    -4.919      0.000      0.000
REMARK INTER + INTRA:          -5.395
REMARK INTER:                  -5.350
REMARK INTRA:                  -0.045
REMARK UNBOUND:                -0.045
REMARK  Name = 
REMARK  3 active torsions:
REMARK  status: ('A' for Active; 'I' for Inactive)
REMARK    1  A    between atoms: C_1  and  O_2
REMARK    2  A    between atoms: O_2  and  C_3
REMARK    3  A    between atoms: C_8  and  O_9
REMARK                            x       y       z     vdW  Elec       q    Type
REMARK                         _______ _______ _______ _____ _____    ______ ____
ROOT
ATOM      1  C   UNL     1       0.664   2.982  10.259  0.00  0.00    +0.000 A 
ATOM      2  C   UNL     1       1.076   4.177  10.846  0.00  0.00    +0.000 A 
ATOM      3  C   UNL     1       1.286   4.240  12.229  0.00  0.00    +0.000 A 
ATOM      4  C   UNL     1       1.085   3.114  13.029  0.00  0.00    +0.000 A 
ATOM      5  C   UNL     1       0.673   1.916  12.449  0.00  0.00    +0.000 A 
ATOM      6  C   UNL     1       0.466   1.862  11.076  0.00  0.00    +0.000 A 
ENDROOT
BRANCH   1   8
ATOM      7  C   UNL     1       1.346   3.354   8.013  0.00  0.00    +0.000 C 
ATOM      8  O   UNL     1       0.420   2.775   8.924  0.00  0.00    +0.000 OA
ENDBRANCH   1   8
BRANCH   6   9
ATOM      9  O   UNL     1       0.061   0.674  10.530  0.00  0.00    +0.000 OA
ATOM     10  H   UNL     1      -0.130   0.882   9.595  0.00  0.00    +0.000 HD
ENDBRANCH   6   9
TORSDOF 2
ENDMDL
MODEL 2
REMARK VINA RESULT:    -4.469      2.312      3.331
REMARK INTER + INTRA:          -4.906
REMARK INTER:                  -4.854
REMARK INTRA:                  -0.052
REMARK UNBOUND:                -0.045
REMARK  Name = 
REMARK  3 active torsions:
REMARK  status: ('A' for Active; 'I' for Inactive)
REMARK    1  A    between atoms: C_1  and  O_2
REMARK    2  A    between atoms: O_2  and  C_3
REMARK    3  A    between atoms: C_8  and  O_9
REMARK                            x       y       z     vdW  Elec       q    Type
REMARK                         _______ _______ _______ _____ _____    ______ ____
ROOT
ATOM      1  C   UNL     1       0.923   4.042  12.117  0.00  0.00    +0.000 A 
ATOM      2  C   UNL     1       0.486   4.089  10.794  0.00  0.00    +0.000 A 
ATOM      3  C   UNL     1       0.105   2.910  10.141  0.00  0.00    +0.000 A 
ATOM      4  C   UNL     1       0.160   1.683  10.805  0.00  0.00    +0.000 A 
ATOM      5  C   UNL     1       0.595   1.629  12.128  0.00  0.00    +0.000 A 
ATOM      6  C   UNL     1       0.971   2.803  12.767  0.00  0.00    +0.000 A 
ENDROOT
BRANCH   1   8
ATOM      7  C   UNL     1       0.343   6.105  13.145  0.00  0.00    +0.000 C 
ATOM      8  O   UNL     1       1.325   5.112  12.876  0.00  0.00    +0.000 OA
ENDBRANCH   1   8
BRANCH   6   9
ATOM      9  O   UNL     1       1.395   2.724  14.067  0.00  0.00    +0.000 OA
ATOM     10  H   UNL     1       1.334   3.638  14.404  0.00  0.00    +0.000 HD
ENDBRANCH   6   9
TORSDOF 2
ENDMDL
MODEL 3
REMARK VINA RESULT:    -4.454      1.361      3.092
REMARK INTER + INTRA:          -4.890
REMARK INTER:                  -4.841
REMARK INTRA:                  -0.049
REMARK UNBOUND:                -0.045
REMARK  Name = 
REMARK  3 active torsions:
REMARK  status: ('A' for Active; 'I' for Inactive)
REMARK    1  A    between atoms: C_1  and  O_2
REMARK    2  A    between atoms: O_2  and  C_3
REMARK    3  A    between atoms: C_8  and  O_9
REMARK                            x       y       z     vdW  Elec       q    Type
REMARK                         _______ _______ _______ _____ _____    ______ ____
ROOT
ATOM      1  C   UNL     1       0.823   2.559  11.605  0.00  0.00    +0.000 A 
ATOM      2  C   UNL     1       1.587   3.701  11.369  0.00  0.00    +0.000 A 
ATOM      3  C   UNL     1       1.757   4.171  10.061  0.00  0.00    +0.000 A 
ATOM      4  C   UNL     1       1.166   3.504   8.986  0.00  0.00    +0.000 A 
ATOM      5  C   UNL     1       0.400   2.363   9.214  0.00  0.00    +0.000 A 
ATOM      6  C   UNL     1       0.238   1.903  10.515  0.00  0.00    +0.000 A 
ENDROOT
BRANCH   1   8
ATOM      7  C   UNL     1       1.708   1.710  13.641  0.00  0.00    +0.000 C 
ATOM      8  O   UNL     1       0.574   1.988  12.827  0.00  0.00    +0.000 OA
ENDBRANCH   1   8
BRANCH   6   9
ATOM      9  O   UNL     1      -0.519   0.779  10.714  0.00  0.00    +0.000 OA
ATOM     10  H   UNL     1      -1.442   1.096  10.700  0.00  0.00    +0.000 HD
ENDBRANCH   6   9
TORSDOF 2
ENDMDL
MODEL 4
REMARK VINA RESULT:    -4.169      1.682      2.413
REMARK INTER + INTRA:          -4.580
REMARK INTER:                  -4.540
REMARK INTRA:                  -0.040
REMARK UNBOUND:                -0.045
REMARK  Name = 
REMARK  3 active torsions:
REMARK  status: ('A' for Active; 'I' for Inactive)
REMARK    1  A    between atoms: C_1  and  O_2
REMARK    2  A    between atoms: O_2  and  C_3
REMARK    3  A    between atoms: C_8  and  O_9
REMARK                            x       y       z     vdW  Elec       q    Type
REMARK                         _______ _______ _______ _____ _____    ______ ____
ROOT
ATOM      1  C   UNL     1       1.233   3.408  10.005  0.00  0.00    +0.000 A 
ATOM      2  C   UNL     1       0.316   2.363   9.911  0.00  0.00    +0.000 A 
ATOM      3  C   UNL     1      -0.001   1.606  11.046  0.00  0.00    +0.000 A 
ATOM      4  C   UNL     1       0.596   1.891  12.276  0.00  0.00    +0.000 A 
ATOM      5  C   UNL     1       1.513   2.934  12.378  0.00  0.00    +0.000 A 
ATOM      6  C   UNL     1       1.822   3.679  11.246  0.00  0.00    +0.000 A 
ENDROOT
BRANCH   1   8
ATOM      7  C   UNL     1       1.584   3.678   7.670  0.00  0.00    +0.000 C 
ATOM      8  O   UNL     1       1.637   4.228   8.981  0.00  0.00    +0.000 OA
ENDBRANCH   1   8
BRANCH   6   9
ATOM      9  O   UNL     1       2.726   4.700  11.371  0.00  0.00    +0.000 OA
ATOM     10  H   UNL     1       2.210   5.511  11.201  0.00  0.00    +0.000 HD
ENDBRANCH   6   9
TORSDOF 2
ENDMDL
MODEL 5
REMARK VINA RESULT:    -4.076      2.114      3.689
REMARK INTER + INTRA:          -4.478
REMARK INTER:                  -4.428
REMARK INTRA:                  -0.050
REMARK UNBOUND:                -0.045
REMARK  Name = 
REMARK  3 active torsions:
REMARK  status: ('A' for Active; 'I' for Inactive)
REMARK    1  A    between atoms: C_1  and  O_2
REMARK    2  A    between atoms: O_2  and  C_3
REMARK    3  A    between atoms: C_8  and  O_9
REMARK                            x       y       z     vdW  Elec       q    Type
REMARK                         _______ _______ _______ _____ _____    ______ ____
ROOT
ATOM      1  C   UNL     1       0.999   3.997  12.400  0.00  0.00    +0.000 A 
ATOM      2  C   UNL     1       1.271   2.755  12.971  0.00  0.00    +0.000 A 
ATOM      3  C   UNL     1       0.879   1.582  12.314  0.00  0.00    +0.000 A 
ATOM      4  C   UNL     1       0.217   1.646  11.086  0.00  0.00    +0.000 A 
ATOM      5  C   UNL     1      -0.058   2.884  10.509  0.00  0.00    +0.000 A 
ATOM      6  C   UNL     1       0.334   4.042  11.168  0.00  0.00    +0.000 A 
ENDROOT
BRANCH   1   8
ATOM      7  C   UNL     1       0.581   5.634  14.071  0.00  0.00    +0.000 C 
ATOM      8  O   UNL     1       1.322   5.221  12.929  0.00  0.00    +0.000 OA
ENDBRANCH   1   8
BRANCH   6   9
ATOM      9  O   UNL     1       0.053   5.247  10.581  0.00  0.00    +0.000 OA
ATOM     10  H   UNL     1      -0.810   5.115  10.145  0.00  0.00    +0.000 HD
ENDBRANCH   6   9
TORSDOF 2
ENDMDL
MODEL 6
REMARK VINA RESULT:    -4.022      1.983      3.798
REMARK INTER + INTRA:          -4.420
REMARK INTER:                  -4.402
REMARK INTRA:                  -0.018
REMARK UNBOUND:                -0.045
REMARK  Name = 
REMARK  3 active torsions:
REMARK  status: ('A' for Active; 'I' for Inactive)
REMARK    1  A    between atoms: C_1  and  O_2
REMARK    2  A    between atoms: O_2  and  C_3
REMARK    3  A    between atoms: C_8  and  O_9
REMARK                            x       y       z     vdW  Elec       q    Type
REMARK                         _______ _______ _______ _____ _____    ______ ____
ROOT
ATOM      1  C   UNL     1       0.692   2.585  11.791  0.00  0.00    +0.000 A 
ATOM      2  C   UNL     1      -0.071   1.732  10.995  0.00  0.00    +0.000 A 
ATOM      3  C   UNL     1      -0.102   1.913   9.606  0.00  0.00    +0.000 A 
ATOM      4  C   UNL     1       0.627   2.943   9.010  0.00  0.00    +0.000 A 
ATOM      5  C   UNL     1       1.393   3.799   9.799  0.00  0.00    +0.000 A 
ATOM      6  C   UNL     1       1.417   3.613  11.175  0.00  0.00    +0.000 A 
ENDROOT
BRANCH   1   8
ATOM      7  C   UNL     1       1.730   1.569  13.671  0.00  0.00    +0.000 C 
ATOM      8  O   UNL     1       0.814   2.527  13.156  0.00  0.00    +0.000 OA
ENDBRANCH   1   8
BRANCH   6   9
ATOM      9  O   UNL     1       2.176   4.467  11.930  0.00  0.00    +0.000 OA
ATOM     10  H   UNL     1       3.093   4.150  11.817  0.00  0.00    +0.000 HD
ENDBRANCH   6   9
TORSDOF 2
ENDMDL
MODEL 7
REMARK VINA RESULT:    -3.917      1.281      2.278
REMARK INTER + INTRA:          -4.305
REMARK INTER:                  -4.312
REMARK INTRA:                   0.007
REMARK UNBOUND:                -0.045
REMARK  Name = 
REMARK  3 active torsions:
REMARK  status: ('A' for Active; 'I' for Inactive)
REMARK    1  A    between atoms: C_1  and  O_2
REMARK    2  A    between atoms: O_2  and  C_3
REMARK    3  A    between atoms: C_8  and  O_9
REMARK                            x       y       z     vdW  Elec       q    Type
REMARK                         _______ _______ _______ _____ _____    ______ ____
ROOT
ATOM      1  C   UNL     1       0.232   2.628  10.917  0.00  0.00    +0.000 A 
ATOM      2  C   UNL     1       0.614   1.494  11.631  0.00  0.00    +0.000 A 
ATOM      3  C   UNL     1       1.132   1.624  12.926  0.00  0.00    +0.000 A 
ATOM      4  C   UNL     1       1.271   2.885  13.509  0.00  0.00    +0.000 A 
ATOM      5  C   UNL     1       0.892   4.023  12.801  0.00  0.00    +0.000 A 
ATOM      6  C   UNL     1       0.380   3.885  11.518  0.00  0.00    +0.000 A 
ENDROOT
BRANCH   1   8
ATOM      7  C   UNL     1       0.651   2.629   8.577  0.00  0.00    +0.000 C 
ATOM      8  O   UNL     1      -0.287   2.651   9.647  0.00  0.00    +0.000 OA
ENDBRANCH   1   8
BRANCH   6   9
ATOM      9  O   UNL     1       0.014   5.018  10.842  0.00  0.00    +0.000 OA
ATOM     10  H   UNL     1       0.856   5.409  10.539  0.00  0.00    +0.000 HD
ENDBRANCH   6   9
TORSDOF 2
ENDMDL
MODEL 8
REMARK VINA RESULT:    -3.816      1.113      1.275
REMARK INTER + INTRA:          -4.195
REMARK INTER:                  -4.153
REMARK INTRA:                  -0.042
REMARK UNBOUND:                -0.045
REMARK  Name = 
REMARK  3 active torsions:
REMARK  status: ('A' for Active; 'I' for Inactive)
REMARK    1  A    between atoms: C_1  and  O_2
REMARK    2  A    between atoms: O_2  and  C_3
REMARK    3  A    between atoms: C_8  and  O_9
REMARK                            x       y       z     vdW  Elec       q    Type
REMARK                         _______ _______ _______ _____ _____    ______ ____
ROOT
ATOM      1  C   UNL     1       0.663   3.126  11.287  0.00  0.00    +0.000 A 
ATOM      2  C   UNL     1       0.647   4.499  11.529  0.00  0.00    +0.000 A 
ATOM      3  C   UNL     1       0.803   4.981  12.835  0.00  0.00    +0.000 A 
ATOM      4  C   UNL     1       0.974   4.096  13.901  0.00  0.00    +0.000 A 
ATOM      5  C   UNL     1       0.992   2.723  13.667  0.00  0.00    +0.000 A 
ATOM      6  C   UNL     1       0.836   2.253  12.369  0.00  0.00    +0.000 A 
ENDROOT
BRANCH   1   8
ATOM      7  C   UNL     1       1.035   3.219   8.942  0.00  0.00    +0.000 C 
ATOM      8  O   UNL     1       0.521   2.515  10.067  0.00  0.00    +0.000 OA
ENDBRANCH   1   8
BRANCH   6   9
ATOM      9  O   UNL     1       0.856   0.899  12.165  0.00  0.00    +0.000 OA
ATOM     10  H   UNL     1       0.609   0.514  13.027  0.00  0.00    +0.000 HD
ENDBRANCH   6   9
TORSDOF 2
ENDMDL
MODEL 9
REMARK VINA RESULT:    -3.454     21.520     22.670
REMARK INTER + INTRA:          -3.802
REMARK INTER:                  -3.752
REMARK INTRA:                  -0.050
REMARK UNBOUND:                -0.045
REMARK  Name = 
REMARK  3 active torsions:
REMARK  status: ('A' for Active; 'I' for Inactive)
REMARK    1  A    between atoms: C_1  and  O_2
REMARK    2  A    between atoms: O_2  and  C_3
REMARK    3  A    between atoms: C_8  and  O_9
REMARK                            x       y       z     vdW  Elec       q    Type
REMARK                         _______ _______ _______ _____ _____    ______ ____
ROOT
ATOM      1  C   UNL     1      12.456  20.671   3.691  0.00  0.00    +0.000 A 
ATOM      2  C   UNL     1      12.431  20.845   5.074  0.00  0.00    +0.000 A 
ATOM      3  C   UNL     1      13.592  20.633   5.827  0.00  0.00    +0.000 A 
ATOM      4  C   UNL     1      14.780  20.246   5.204  0.00  0.00    +0.000 A 
ATOM      5  C   UNL     1      14.813  20.070   3.822  0.00  0.00    +0.000 A 
ATOM      6  C   UNL     1      13.656  20.283   3.083  0.00  0.00    +0.000 A 
ENDROOT
BRANCH   1   8
ATOM      7  C   UNL     1      10.371  19.861   2.888  0.00  0.00    +0.000 C 
ATOM      8  O   UNL     1      11.400  20.842   2.832  0.00  0.00    +0.000 OA
ENDBRANCH   1   8
BRANCH   6   9
ATOM      9  O   UNL     1      13.714  20.103   1.726  0.00  0.00    +0.000 OA
ATOM     10  H   UNL     1      13.009  19.457   1.531  0.00  0.00    +0.000 HD
ENDBRANCH   6   9
TORSDOF 2
ENDMDL
