MODEL 1
REMARK VINA RESULT:    -4.121      0.000      0.000
REMARK INTER + INTRA:          -4.534
REMARK INTER:                  -4.482
REMARK INTRA:                  -0.052
REMARK UNBOUND:                -0.052
REMARK  Name = 
REMARK  3 active torsions:
REMARK  status: ('A' for Active; 'I' for Inactive)
REMARK    1  A    between atoms: C_1  and  O_2
REMARK    2  A    between atoms: O_2  and  C_3
REMARK    3  A    between atoms: C_8  and  O_9
REMARK                            x       y       z     vdW  Elec       q    Type
REMARK                         _______ _______ _______ _____ _____    ______ ____
ROOT
ATOM      1  C   UNL     1      -8.515   6.205 -17.131  0.00  0.00    +0.000 A 
ATOM      2  C   UNL     1      -9.148   6.669 -15.979  0.00  0.00    +0.000 A 
ATOM      3  C   UNL     1      -9.704   7.954 -15.955  0.00  0.00    +0.000 A 
ATOM      4  C   UNL     1      -9.628   8.779 -17.078  0.00  0.00    +0.000 A 
ATOM      5  C   UNL     1      -8.997   8.323 -18.233  0.00  0.00    +0.000 A 
ATOM      6  C   UNL     1      -8.449   7.047 -18.248  0.00  0.00    +0.000 A 
ENDROOT
BRANCH   1   8
ATOM      7  C   UNL     1      -8.781   3.844 -17.165  0.00  0.00    +0.000 C 
ATOM      8  O   UNL     1      -7.929   4.976 -17.296  0.00  0.00    +0.000 OA
ENDBRANCH   1   8
BRANCH   6   9
ATOM      9  O   UNL     1      -7.833   6.621 -19.395  0.00  0.00    +0.000 OA
ATOM     10  H   UNL     1      -6.991   6.229 -19.094  0.00  0.00    +0.000 HD
ENDBRANCH   6   9
TORSDOF 2
ENDMDL
MODEL 2
REMARK VINA RESULT:    -4.030      1.436      2.401
REMARK INTER + INTRA:          -4.435
REMARK INTER:                  -4.383
REMARK INTRA:                  -0.052
REMARK UNBOUND:                -0.052
REMARK  Name = 
REMARK  3 active torsions:
REMARK  status: ('A' for Active; 'I' for Inactive)
REMARK    1  A    between atoms: C_1  and  O_2
REMARK    2  A    between atoms: O_2  and  C_3
REMARK    3  A    between atoms: C_8  and  O_9
REMARK                            x       y       z     vdW  Elec       q    Type
REMARK                         _______ _______ _______ _____ _____    ______ ____
ROOT
ATOM      1  C   UNL     1      -9.083   7.238 -16.849  0.00  0.00    +0.000 A 
ATOM      2  C   UNL     1      -9.580   8.513 -17.115  0.00  0.00    +0.000 A 
ATOM      3  C   UNL     1      -9.205   9.180 -18.288  0.00  0.00    +0.000 A 
ATOM      4  C   UNL     1      -8.333   8.577 -19.197  0.00  0.00    +0.000 A 
ATOM      5  C   UNL     1      -7.833   7.303 -18.939  0.00  0.00    +0.000 A 
ATOM      6  C   UNL     1      -8.210   6.649 -17.773  0.00  0.00    +0.000 A 
ENDROOT
BRANCH   1   8
ATOM      7  C   UNL     1      -8.958   6.998 -14.489  0.00  0.00    +0.000 C 
ATOM      8  O   UNL     1      -9.362   6.471 -15.746  0.00  0.00    +0.000 OA
ENDBRANCH   1   8
BRANCH   6   9
ATOM      9  O   UNL     1      -7.704   5.398 -17.541  0.00  0.00    +0.000 OA
ATOM     10  H   UNL     1      -8.413   4.929 -17.060  0.00  0.00    +0.000 HD
ENDBRANCH   6   9
TORSDOF 2
ENDMDL
MODEL 3
REMARK VINA RESULT:    -4.008      1.002      2.702
REMARK INTER + INTRA:          -4.412
REMARK INTER:                  -4.382
REMARK INTRA:                  -0.030
REMARK UNBOUND:                -0.052
REMARK  Name = 
REMARK  3 active torsions:
REMARK  status: ('A' for Active; 'I' for Inactive)
REMARK    1  A    between atoms: C_1  and  O_2
REMARK    2  A    between atoms: O_2  and  C_3
REMARK    3  A    between atoms: C_8  and  O_9
REMARK                            x       y       z     vdW  Elec       q    Type
REMARK                         _______ _______ _______ _____ _____    ______ ____
ROOT
ATOM      1  C   UNL     1      -8.541   7.481 -18.087  0.00  0.00    +0.000 A 
ATOM      2  C   UNL     1      -9.291   8.591 -17.702  0.00  0.00    +0.000 A 
ATOM      3  C   UNL     1      -9.912   8.616 -16.447  0.00  0.00    +0.000 A 
ATOM      4  C   UNL     1      -9.785   7.534 -15.574  0.00  0.00    +0.000 A 
ATOM      5  C   UNL     1      -9.037   6.421 -15.950  0.00  0.00    +0.000 A 
ATOM      6  C   UNL     1      -8.425   6.405 -17.197  0.00  0.00    +0.000 A 
ENDROOT
BRANCH   1   8
ATOM      7  C   UNL     1      -6.641   8.001 -19.416  0.00  0.00    +0.000 C 
ATOM      8  O   UNL     1      -7.882   7.320 -19.280  0.00  0.00    +0.000 OA
ENDBRANCH   1   8
BRANCH   6   9
ATOM      9  O   UNL     1      -7.695   5.300 -17.545  0.00  0.00    +0.000 OA
ATOM     10  H   UNL     1      -7.111   5.605 -18.266  0.00  0.00    +0.000 HD
ENDBRANCH   6   9
TORSDOF 2
ENDMDL
MODEL 4
REMARK VINA RESULT:    -3.937      2.101      3.553
REMARK INTER + INTRA:          -4.335
REMARK INTER:                  -4.286
REMARK INTRA:                  -0.049
REMARK UNBOUND:                -0.052
REMARK  Name = 
REMARK  3 active torsions:
REMARK  status: ('A' for Active; 'I' for Inactive)
REMARK    1  A    between atoms: C_1  and  O_2
REMARK    2  A    between atoms: O_2  and  C_3
REMARK    3  A    between atoms: C_8  and  O_9
REMARK                            x       y       z     vdW  Elec       q    Type
REMARK                         _______ _______ _______ _____ _____    ______ ____
ROOT
ATOM      1  C   UNL     1      -9.916   7.671 -15.511  0.00  0.00    +0.000 A 
ATOM      2  C   UNL     1      -9.910   8.724 -16.424  0.00  0.00    +0.000 A 
ATOM      3  C   UNL     1      -9.277   8.571 -17.664  0.00  0.00    +0.000 A 
ATOM      4  C   UNL     1      -8.649   7.368 -17.994  0.00  0.00    +0.000 A 
ATOM      5  C   UNL     1      -8.651   6.312 -17.087  0.00  0.00    +0.000 A 
ATOM      6  C   UNL     1      -9.281   6.473 -15.859  0.00  0.00    +0.000 A 
ENDROOT
BRANCH   1   8
ATOM      7  C   UNL     1     -11.851   8.100 -14.200  0.00  0.00    +0.000 C 
ATOM      8  O   UNL     1     -10.493   7.681 -14.266  0.00  0.00    +0.000 OA
ENDBRANCH   1   8
BRANCH   6   9
ATOM      9  O   UNL     1      -9.270   5.420 -14.984  0.00  0.00    +0.000 OA
ATOM     10  H   UNL     1      -9.297   4.625 -15.551  0.00  0.00    +0.000 HD
ENDBRANCH   6   9
TORSDOF 2
ENDMDL
MODEL 5
REMARK VINA RESULT:    -3.891      1.526      3.361
REMARK INTER + INTRA:          -4.284
REMARK INTER:                  -4.232
REMARK INTRA:                  -0.052
REMARK UNBOUND:                -0.052
REMARK  Name = 
REMARK  3 active torsions:
REMARK  status: ('A' for Active; 'I' for Inactive)
REMARK    1  A    between atoms: C_1  and  O_2
REMARK    2  A    between atoms: O_2  and  C_3
REMARK    3  A    between atoms: C_8  and  O_9
REMARK                            x       y       z     vdW  Elec       q    Type
REMARK                         _______ _______ _______ _____ _____    ______ ____
ROOT
ATOM      1  C   UNL     1      -9.324   6.292 -16.575  0.00  0.00    +0.000 A 
ATOM      2  C   UNL     1     -10.413   5.782 -15.870  0.00  0.00    +0.000 A 
ATOM      3  C   UNL     1     -10.645   4.401 -15.844  0.00  0.00    +0.000 A 
ATOM      4  C   UNL     1      -9.791   3.527 -16.521  0.00  0.00    +0.000 A 
ATOM      5  C   UNL     1      -8.701   4.030 -17.227  0.00  0.00    +0.000 A 
ATOM      6  C   UNL     1      -8.479   5.401 -17.247  0.00  0.00    +0.000 A 
ENDROOT
BRANCH   1   8
ATOM      7  C   UNL     1      -9.848   8.436 -17.457  0.00  0.00    +0.000 C 
ATOM      8  O   UNL     1      -8.978   7.615 -16.687  0.00  0.00    +0.000 OA
ENDBRANCH   1   8
BRANCH   6   9
ATOM      9  O   UNL     1      -7.400   5.870 -17.948  0.00  0.00    +0.000 OA
ATOM     10  H   UNL     1      -7.750   6.071 -18.838  0.00  0.00    +0.000 HD
ENDBRANCH   6   9
TORSDOF 2
ENDMDL
MODEL 6
REMARK VINA RESULT:    -3.862      2.649      3.679
REMARK INTER + INTRA:          -4.253
REMARK INTER:                  -4.202
REMARK INTRA:                  -0.051
REMARK UNBOUND:                -0.052
REMARK  Name = 
REMARK  3 active torsions:
REMARK  status: ('A' for Active; 'I' for Inactive)
REMARK    1  A    between atoms: C_1  and  O_2
REMARK    2  A    between atoms: O_2  and  C_3
REMARK    3  A    between atoms: C_8  and  O_9
REMARK                            x       y       z     vdW  Elec       q    Type
REMARK                         _______ _______ _______ _____ _____    ______ ____
ROOT
ATOM      1  C   UNL     1     -11.088   6.598 -14.882  0.00  0.00    +0.000 A 
ATOM      2  C   UNL     1     -11.473   7.909 -15.162  0.00  0.00    +0.000 A 
ATOM      3  C   UNL     1     -10.719   8.685 -16.051  0.00  0.00    +0.000 A 
ATOM      4  C   UNL     1      -9.579   8.157 -16.661  0.00  0.00    +0.000 A 
ATOM      5  C   UNL     1      -9.189   6.848 -16.386  0.00  0.00    +0.000 A 
ATOM      6  C   UNL     1      -9.943   6.086 -15.504  0.00  0.00    +0.000 A 
ENDROOT
BRANCH   1   8
ATOM      7  C   UNL     1     -11.868   6.145 -12.684  0.00  0.00    +0.000 C 
ATOM      8  O   UNL     1     -11.728   5.728 -14.037  0.00  0.00    +0.000 OA
ENDBRANCH   1   8
BRANCH   6   9
ATOM      9  O   UNL     1      -9.539   4.802 -15.250  0.00  0.00    +0.000 OA
ATOM     10  H   UNL     1      -8.890   4.603 -15.952  0.00  0.00    +0.000 HD
ENDBRANCH   6   9
TORSDOF 2
ENDMDL
MODEL 7
REMARK VINA RESULT:    -3.856      1.553      2.969
REMARK INTER + INTRA:          -4.246
REMARK INTER:                  -4.198
REMARK INTRA:                  -0.048
REMARK UNBOUND:                -0.052
REMARK  Name = 
REMARK  3 active torsions:
REMARK  status: ('A' for Active; 'I' for Inactive)
REMARK    1  A    between atoms: C_1  and  O_2
REMARK    2  A    between atoms: O_2  and  C_3
REMARK    3  A    between atoms: C_8  and  O_9
REMARK                            x       y       z     vdW  Elec       q    Type
REMARK                         _______ _______ _______ _____ _____    ______ ____
ROOT
ATOM      1  C   UNL     1      -9.183   6.902 -16.414  0.00  0.00    +0.000 A 
ATOM      2  C   UNL     1      -9.732   8.183 -16.436  0.00  0.00    +0.000 A 
ATOM      3  C   UNL     1     -10.867   8.470 -15.666  0.00  0.00    +0.000 A 
ATOM      4  C   UNL     1     -11.455   7.482 -14.875  0.00  0.00    +0.000 A 
ATOM      5  C   UNL     1     -10.911   6.199 -14.848  0.00  0.00    +0.000 A 
ATOM      6  C   UNL     1      -9.786   5.923 -15.615  0.00  0.00    +0.000 A 
ENDROOT
BRANCH   1   8
ATOM      7  C   UNL     1      -8.056   6.786 -18.503  0.00  0.00    +0.000 C 
ATOM      8  O   UNL     1      -8.081   6.480 -17.114  0.00  0.00    +0.000 OA
ENDBRANCH   1   8
BRANCH   6   9
ATOM      9  O   UNL     1      -9.270   4.655 -15.572  0.00  0.00    +0.000 OA
ATOM     10  H   UNL     1      -8.304   4.782 -15.517  0.00  0.00    +0.000 HD
ENDBRANCH   6   9
TORSDOF 2
ENDMDL
MODEL 8
REMARK VINA RESULT:    -3.810      3.583      4.650
REMARK INTER + INTRA:          -4.197
REMARK INTER:                  -4.148
REMARK INTRA:                  -0.049
REMARK UNBOUND:                -0.052
REMARK  Name = 
REMARK  3 active torsions:
REMARK  status: ('A' for Active; 'I' for Inactive)
REMARK    1  A    between atoms: C_1  and  O_2
REMARK    2  A    between atoms: O_2  and  C_3
REMARK    3  A    between atoms: C_8  and  O_9
REMARK                            x       y       z     vdW  Elec       q    Type
REMARK                         _______ _______ _______ _____ _____    ______ ____
ROOT
ATOM      1  C   UNL     1     -11.019   7.707 -13.973  0.00  0.00    +0.000 A 
ATOM      2  C   UNL     1      -9.828   7.248 -13.413  0.00  0.00    +0.000 A 
ATOM      3  C   UNL     1      -8.690   7.097 -14.216  0.00  0.00    +0.000 A 
ATOM      4  C   UNL     1      -8.739   7.402 -15.578  0.00  0.00    +0.000 A 
ATOM      5  C   UNL     1      -9.926   7.861 -16.144  0.00  0.00    +0.000 A 
ATOM      6  C   UNL     1     -11.050   8.007 -15.340  0.00  0.00    +0.000 A 
ENDROOT
BRANCH   1   8
ATOM      7  C   UNL     1     -12.147   8.679 -12.121  0.00  0.00    +0.000 C 
ATOM      8  O   UNL     1     -12.205   7.900 -13.310  0.00  0.00    +0.000 OA
ENDBRANCH   1   8
BRANCH   6   9
ATOM      9  O   UNL     1     -12.205   8.460 -15.920  0.00  0.00    +0.000 OA
ATOM     10  H   UNL     1     -12.347   7.869 -16.684  0.00  0.00    +0.000 HD
ENDBRANCH   6   9
TORSDOF 2
ENDMDL
MODEL 9
REMARK VINA RESULT:    -3.799      2.550      3.721
REMARK INTER + INTRA:          -4.184
REMARK INTER:                  -4.145
REMARK INTRA:                  -0.039
REMARK UNBOUND:                -0.052
REMARK  Name = 
REMARK  3 active torsions:
REMARK  status: ('A' for Active; 'I' for Inactive)
REMARK    1  A    between atoms: C_1  and  O_2
REMARK    2  A    between atoms: O_2  and  C_3
REMARK    3  A    between atoms: C_8  and  O_9
REMARK                            x       y       z     vdW  Elec       q    Type
REMARK                         _______ _______ _______ _____ _____    ______ ____
ROOT
ATOM      1  C   UNL     1      -9.402   6.366 -15.501  0.00  0.00    +0.000 A 
ATOM      2  C   UNL     1     -10.440   5.491 -15.817  0.00  0.00    +0.000 A 
ATOM      3  C   UNL     1     -11.535   5.363 -14.953  0.00  0.00    +0.000 A 
ATOM      4  C   UNL     1     -11.596   6.106 -13.773  0.00  0.00    +0.000 A 
ATOM      5  C   UNL     1     -10.563   6.983 -13.450  0.00  0.00    +0.000 A 
ATOM      6  C   UNL     1      -9.481   7.103 -14.313  0.00  0.00    +0.000 A 
ENDROOT
BRANCH   1   8
ATOM      7  C   UNL     1      -8.330   6.198 -17.615  0.00  0.00    +0.000 C 
ATOM      8  O   UNL     1      -8.274   6.591 -16.249  0.00  0.00    +0.000 OA
ENDBRANCH   1   8
BRANCH   6   9
ATOM      9  O   UNL     1      -8.477   7.971 -13.974  0.00  0.00    +0.000 OA
ATOM     10  H   UNL     1      -8.264   7.754 -13.046  0.00  0.00    +0.000 HD
ENDBRANCH   6   9
TORSDOF 2
ENDMDL
