MODEL 1
REMARK VINA RESULT:    -4.223      0.000      0.000
REMARK INTER + INTRA:          -6.132
REMARK INTER:                  -5.705
REMARK INTRA:                  -0.427
REMARK UNBOUND:                -0.427
REMARK  Name = 
REMARK  10 active torsions:
REMARK  status: ('A' for Active; 'I' for Inactive)
REMARK    1  A    between atoms: C_1  and  C_2
REMARK    2  A    between atoms: C_5  and  N_8
REMARK    3  A    between atoms: N_8  and  C_9
REMARK    4  A    between atoms: N_8  and  C_13
REMARK    5  A    between atoms: C_9  and  C_10
REMARK    6  A    between atoms: C_10  and  C_11
REMARK    7  A    between atoms: C_10  and  O_12
REMARK    8  A    between atoms: C_13  and  C_14
REMARK    9  A    between atoms: C_14  and  C_15
REMARK   10  A    between atoms: C_14  and  O_16
REMARK                            x       y       z     vdW  Elec       q    Type
REMARK                         _______ _______ _______ _____ _____    ______ ____
ROOT
ATOM      1  N   UNL     1       3.010  19.273  -3.136  0.00  0.00    +0.000 N 
ENDROOT
BRANCH   1   6
ATOM      2  C   UNL     1       8.291  19.357  -0.806  0.00  0.00    +0.000 C 
ATOM      3  C   UNL     1       6.928  19.316  -1.425  0.00  0.00    +0.000 A 
ATOM      4  C   UNL     1       6.631  20.074  -2.552  0.00  0.00    +0.000 A 
ATOM      5  C   UNL     1       5.343  20.055  -3.110  0.00  0.00    +0.000 A 
ATOM      6  C   UNL     1       4.287  19.303  -2.563  0.00  0.00    +0.000 A 
ATOM      7  C   UNL     1       4.624  18.547  -1.425  0.00  0.00    +0.000 A 
ATOM      8  C   UNL     1       5.909  18.555  -0.858  0.00  0.00    +0.000 A 
ENDBRANCH   1   6
BRANCH   1   9
ATOM      9  C   UNL     1       2.617  20.299  -4.132  0.00  0.00    +0.000 C 
BRANCH   9  10
ATOM     10  C   UNL     1       2.650  19.767  -5.585  0.00  0.00    +0.000 C 
ATOM     11  C   UNL     1       3.882  20.276  -6.324  0.00  0.00    +0.000 C 
BRANCH  10  12
ATOM     12  O   UNL     1       2.678  18.333  -5.609  0.00  0.00    +0.000 OA
ATOM     13  H   UNL     1       3.593  18.048  -5.453  0.00  0.00    +0.000 HD
ENDBRANCH  10  12
ENDBRANCH   9  10
ENDBRANCH   1   9
BRANCH   1  14
ATOM     14  C   UNL     1       1.876  18.601  -2.451  0.00  0.00    +0.000 C 
BRANCH  14  15
ATOM     15  C   UNL     1       0.753  19.596  -2.069  0.00  0.00    +0.000 C 
ATOM     16  C   UNL     1      -0.553  18.908  -1.686  0.00  0.00    +0.000 C 
BRANCH  15  17
ATOM     17  O   UNL     1       1.141  20.440  -0.986  0.00  0.00    +0.000 OA
ATOM     18  H   UNL     1       0.496  21.175  -0.995  0.00  0.00    +0.000 HD
ENDBRANCH  15  17
ENDBRANCH  14  15
ENDBRANCH   1  14
TORSDOF 7
ENDMDL
MODEL 2
REMARK VINA RESULT:    -4.168      1.026      3.191
REMARK INTER + INTRA:          -6.057
REMARK INTER:                  -5.681
REMARK INTRA:                  -0.376
REMARK UNBOUND:                -0.427
REMARK  Name = 
REMARK  10 active torsions:
REMARK  status: ('A' for Active; 'I' for Inactive)
REMARK    1  A    between atoms: C_1  and  C_2
REMARK    2  A    between atoms: C_5  and  N_8
REMARK    3  A    between atoms: N_8  and  C_9
REMARK    4  A    between atoms: N_8  and  C_13
REMARK    5  A    between atoms: C_9  and  C_10
REMARK    6  A    between atoms: C_10  and  C_11
REMARK    7  A    between atoms: C_10  and  O_12
REMARK    8  A    between atoms: C_13  and  C_14
REMARK    9  A    between atoms: C_14  and  C_15
REMARK   10  A    between atoms: C_14  and  O_16
REMARK                            x       y       z     vdW  Elec       q    Type
REMARK                         _______ _______ _______ _____ _____    ______ ____
ROOT
ATOM      1  N   UNL     1       2.918  19.595  -3.249  0.00  0.00    +0.000 N 
ENDROOT
BRANCH   1   6
ATOM      2  C   UNL     1       8.283  19.708  -1.121  0.00  0.00    +0.000 C 
ATOM      3  C   UNL     1       6.898  19.659  -1.688  0.00  0.00    +0.000 A 
ATOM      4  C   UNL     1       6.547  20.440  -2.784  0.00  0.00    +0.000 A 
ATOM      5  C   UNL     1       5.238  20.413  -3.293  0.00  0.00    +0.000 A 
ATOM      6  C   UNL     1       4.216  19.632  -2.725  0.00  0.00    +0.000 A 
ATOM      7  C   UNL     1       4.607  18.854  -1.619  0.00  0.00    +0.000 A 
ATOM      8  C   UNL     1       5.913  18.869  -1.102  0.00  0.00    +0.000 A 
ENDBRANCH   1   6
BRANCH   1   9
ATOM      9  C   UNL     1       1.786  19.149  -2.401  0.00  0.00    +0.000 C 
BRANCH   9  10
ATOM     10  C   UNL     1       0.705  20.243  -2.220  0.00  0.00    +0.000 C 
ATOM     11  C   UNL     1      -0.584  19.860  -2.937  0.00  0.00    +0.000 C 
BRANCH  10  12
ATOM     12  O   UNL     1       0.400  20.440  -0.832  0.00  0.00    +0.000 OA
ATOM     13  H   UNL     1      -0.422  19.961  -0.634  0.00  0.00    +0.000 HD
ENDBRANCH  10  12
ENDBRANCH   9  10
ENDBRANCH   1   9
BRANCH   1  14
ATOM     14  C   UNL     1       2.683  19.488  -4.712  0.00  0.00    +0.000 C 
BRANCH  14  15
ATOM     15  C   UNL     1       2.222  18.070  -5.128  0.00  0.00    +0.000 C 
ATOM     16  C   UNL     1       0.782  18.030  -5.626  0.00  0.00    +0.000 C 
BRANCH  15  17
ATOM     17  O   UNL     1       3.057  17.522  -6.146  0.00  0.00    +0.000 OA
ATOM     18  H   UNL     1       3.167  16.581  -5.903  0.00  0.00    +0.000 HD
ENDBRANCH  15  17
ENDBRANCH  14  15
ENDBRANCH   1  14
TORSDOF 7
ENDMDL
MODEL 3
REMARK VINA RESULT:    -3.860     12.012     13.912
REMARK INTER + INTRA:          -5.642
REMARK INTER:                  -5.250
REMARK INTRA:                  -0.392
REMARK UNBOUND:                -0.427
REMARK  Name = 
REMARK  10 active torsions:
REMARK  status: ('A' for Active; 'I' for Inactive)
REMARK    1  A    between atoms: C_1  and  C_2
REMARK    2  A    between atoms: C_5  and  N_8
REMARK    3  A    between atoms: N_8  and  C_9
REMARK    4  A    between atoms: N_8  and  C_13
REMARK    5  A    between atoms: C_9  and  C_10
REMARK    6  A    between atoms: C_10  and  C_11
REMARK    7  A    between atoms: C_10  and  O_12
REMARK    8  A    between atoms: C_13  and  C_14
REMARK    9  A    between atoms: C_14  and  C_15
REMARK   10  A    between atoms: C_14  and  O_16
REMARK                            x       y       z     vdW  Elec       q    Type
REMARK                         _______ _______ _______ _____ _____    ______ ____
ROOT
ATOM      1  N   UNL     1      16.200  18.151   2.636  0.00  0.00    +0.000 N 
ENDROOT
BRANCH   1   6
ATOM      2  C   UNL     1      17.253  12.652   4.045  0.00  0.00    +0.000 C 
ATOM      3  C   UNL     1      16.982  14.073   3.655  0.00  0.00    +0.000 A 
ATOM      4  C   UNL     1      18.020  14.990   3.527  0.00  0.00    +0.000 A 
ATOM      5  C   UNL     1      17.756  16.328   3.191  0.00  0.00    +0.000 A 
ATOM      6  C   UNL     1      16.454  16.820   2.990  0.00  0.00    +0.000 A 
ATOM      7  C   UNL     1      15.430  15.865   3.125  0.00  0.00    +0.000 A 
ATOM      8  C   UNL     1      15.679  14.523   3.459  0.00  0.00    +0.000 A 
ENDBRANCH   1   6
BRANCH   1   9
ATOM      9  C   UNL     1      17.089  18.847   1.674  0.00  0.00    +0.000 C 
BRANCH   9  10
ATOM     10  C   UNL     1      16.889  18.366   0.216  0.00  0.00    +0.000 C 
ATOM     11  C   UNL     1      17.633  17.059  -0.034  0.00  0.00    +0.000 C 
BRANCH  10  12
ATOM     12  O   UNL     1      15.500  18.147  -0.068  0.00  0.00    +0.000 OA
ATOM     13  H   UNL     1      15.067  17.855   0.752  0.00  0.00    +0.000 HD
ENDBRANCH  10  12
ENDBRANCH   9  10
ENDBRANCH   1   9
BRANCH   1  14
ATOM     14  C   UNL     1      15.419  19.048   3.526  0.00  0.00    +0.000 C 
BRANCH  14  15
ATOM     15  C   UNL     1      13.912  19.050   3.177  0.00  0.00    +0.000 C 
ATOM     16  C   UNL     1      13.119  20.099   3.947  0.00  0.00    +0.000 C 
BRANCH  15  17
ATOM     17  O   UNL     1      13.694  19.265   1.783  0.00  0.00    +0.000 OA
ATOM     18  H   UNL     1      14.435  18.808   1.337  0.00  0.00    +0.000 HD
ENDBRANCH  15  17
ENDBRANCH  14  15
ENDBRANCH   1  14
TORSDOF 7
ENDMDL
MODEL 4
REMARK VINA RESULT:    -3.600     13.265     15.665
REMARK INTER + INTRA:          -5.290
REMARK INTER:                  -4.604
REMARK INTRA:                  -0.686
REMARK UNBOUND:                -0.427
REMARK  Name = 
REMARK  10 active torsions:
REMARK  status: ('A' for Active; 'I' for Inactive)
REMARK    1  A    between atoms: C_1  and  C_2
REMARK    2  A    between atoms: C_5  and  N_8
REMARK    3  A    between atoms: N_8  and  C_9
REMARK    4  A    between atoms: N_8  and  C_13
REMARK    5  A    between atoms: C_9  and  C_10
REMARK    6  A    between atoms: C_10  and  C_11
REMARK    7  A    between atoms: C_10  and  O_12
REMARK    8  A    between atoms: C_13  and  C_14
REMARK    9  A    between atoms: C_14  and  C_15
REMARK   10  A    between atoms: C_14  and  O_16
REMARK                            x       y       z     vdW  Elec       q    Type
REMARK                         _______ _______ _______ _____ _____    ______ ____
ROOT
ATOM      1  N   UNL     1      17.425  17.352   2.811  0.00  0.00    +0.000 N 
ENDROOT
BRANCH   1   6
ATOM      2  C   UNL     1      17.647  11.713   4.030  0.00  0.00    +0.000 C 
ATOM      3  C   UNL     1      17.579  13.171   3.692  0.00  0.00    +0.000 A 
ATOM      4  C   UNL     1      18.642  13.809   3.061  0.00  0.00    +0.000 A 
ATOM      5  C   UNL     1      18.584  15.182   2.774  0.00  0.00    +0.000 A 
ATOM      6  C   UNL     1      17.484  15.987   3.119  0.00  0.00    +0.000 A 
ATOM      7  C   UNL     1      16.426  15.309   3.753  0.00  0.00    +0.000 A 
ATOM      8  C   UNL     1      16.470  13.935   4.045  0.00  0.00    +0.000 A 
ENDBRANCH   1   6
BRANCH   1   9
ATOM      9  C   UNL     1      18.528  18.254   3.221  0.00  0.00    +0.000 C 
BRANCH   9  10
ATOM     10  C   UNL     1      19.362  18.766   2.020  0.00  0.00    +0.000 C 
ATOM     11  C   UNL     1      20.819  18.970   2.417  0.00  0.00    +0.000 C 
BRANCH  10  12
ATOM     12  O   UNL     1      19.324  17.832   0.932  0.00  0.00    +0.000 OA
ATOM     13  H   UNL     1      18.405  17.763   0.626  0.00  0.00    +0.000 HD
ENDBRANCH  10  12
ENDBRANCH   9  10
ENDBRANCH   1   9
BRANCH   1  14
ATOM     14  C   UNL     1      16.127  18.028   2.558  0.00  0.00    +0.000 C 
BRANCH  14  15
ATOM     15  C   UNL     1      15.815  18.147   1.047  0.00  0.00    +0.000 C 
ATOM     16  C   UNL     1      16.027  19.554   0.500  0.00  0.00    +0.000 C 
BRANCH  15  17
ATOM     17  O   UNL     1      16.607  17.248   0.273  0.00  0.00    +0.000 OA
ATOM     18  H   UNL     1      16.297  16.356   0.525  0.00  0.00    +0.000 HD
ENDBRANCH  15  17
ENDBRANCH  14  15
ENDBRANCH   1  14
TORSDOF 7
ENDMDL
MODEL 5
REMARK VINA RESULT:    -3.423     12.590     15.723
REMARK INTER + INTRA:          -5.051
REMARK INTER:                  -4.520
REMARK INTRA:                  -0.531
REMARK UNBOUND:                -0.427
REMARK  Name = 
REMARK  10 active torsions:
REMARK  status: ('A' for Active; 'I' for Inactive)
REMARK    1  A    between atoms: C_1  and  C_2
REMARK    2  A    between atoms: C_5  and  N_8
REMARK    3  A    between atoms: N_8  and  C_9
REMARK    4  A    between atoms: N_8  and  C_13
REMARK    5  A    between atoms: C_9  and  C_10
REMARK    6  A    between atoms: C_10  and  C_11
REMARK    7  A    between atoms: C_10  and  O_12
REMARK    8  A    between atoms: C_13  and  C_14
REMARK    9  A    between atoms: C_14  and  C_15
REMARK   10  A    between atoms: C_14  and  O_16
REMARK                            x       y       z     vdW  Elec       q    Type
REMARK                         _______ _______ _______ _____ _____    ______ ____
ROOT
ATOM      1  N   UNL     1      18.125  16.898   2.543  0.00  0.00    +0.000 N 
ENDROOT
BRANCH   1   6
ATOM      2  C   UNL     1      12.865  19.275   2.557  0.00  0.00    +0.000 C 
ATOM      3  C   UNL     1      14.239  18.678   2.566  0.00  0.00    +0.000 A 
ATOM      4  C   UNL     1      15.121  18.902   1.515  0.00  0.00    +0.000 A 
ATOM      5  C   UNL     1      16.397  18.315   1.514  0.00  0.00    +0.000 A 
ATOM      6  C   UNL     1      16.844  17.464   2.541  0.00  0.00    +0.000 A 
ATOM      7  C   UNL     1      15.927  17.262   3.588  0.00  0.00    +0.000 A 
ATOM      8  C   UNL     1      14.649  17.844   3.602  0.00  0.00    +0.000 A 
ENDBRANCH   1   6
BRANCH   1   9
ATOM      9  C   UNL     1      19.324  17.771   2.535  0.00  0.00    +0.000 C 
BRANCH   9  10
ATOM     10  C   UNL     1      20.329  17.400   1.417  0.00  0.00    +0.000 C 
ATOM     11  C   UNL     1      20.768  18.640   0.646  0.00  0.00    +0.000 C 
BRANCH  10  12
ATOM     12  O   UNL     1      21.501  16.779   1.963  0.00  0.00    +0.000 OA
ATOM     13  H   UNL     1      22.271  17.095   1.462  0.00  0.00    +0.000 HD
ENDBRANCH  10  12
ENDBRANCH   9  10
ENDBRANCH   1   9
BRANCH   1  14
ATOM     14  C   UNL     1      18.356  15.516   2.048  0.00  0.00    +0.000 C 
BRANCH  14  15
ATOM     15  C   UNL     1      18.687  14.532   3.197  0.00  0.00    +0.000 C 
ATOM     16  C   UNL     1      17.493  13.687   3.624  0.00  0.00    +0.000 C 
BRANCH  15  17
ATOM     17  O   UNL     1      19.750  13.649   2.844  0.00  0.00    +0.000 OA
ATOM     18  H   UNL     1      20.526  14.230   2.707  0.00  0.00    +0.000 HD
ENDBRANCH  15  17
ENDBRANCH  14  15
ENDBRANCH   1  14
TORSDOF 7
ENDMDL
MODEL 6
REMARK VINA RESULT:    -3.413     12.635     15.903
REMARK INTER + INTRA:          -5.037
REMARK INTER:                  -4.349
REMARK INTRA:                  -0.687
REMARK UNBOUND:                -0.427
REMARK  Name = 
REMARK  10 active torsions:
REMARK  status: ('A' for Active; 'I' for Inactive)
REMARK    1  A    between atoms: C_1  and  C_2
REMARK    2  A    between atoms: C_5  and  N_8
REMARK    3  A    between atoms: N_8  and  C_9
REMARK    4  A    between atoms: N_8  and  C_13
REMARK    5  A    between atoms: C_9  and  C_10
REMARK    6  A    between atoms: C_10  and  C_11
REMARK    7  A    between atoms: C_10  and  O_12
REMARK    8  A    between atoms: C_13  and  C_14
REMARK    9  A    between atoms: C_14  and  C_15
REMARK   10  A    between atoms: C_14  and  O_16
REMARK                            x       y       z     vdW  Elec       q    Type
REMARK                         _______ _______ _______ _____ _____    ______ ____
ROOT
ATOM      1  N   UNL     1      18.047  16.819   1.962  0.00  0.00    +0.000 N 
ENDROOT
BRANCH   1   6
ATOM      2  C   UNL     1      12.906  19.354   2.650  0.00  0.00    +0.000 C 
ATOM      3  C   UNL     1      14.251  18.715   2.484  0.00  0.00    +0.000 A 
ATOM      4  C   UNL     1      15.032  18.975   1.363  0.00  0.00    +0.000 A 
ATOM      5  C   UNL     1      16.279  18.350   1.198  0.00  0.00    +0.000 A 
ATOM      6  C   UNL     1      16.794  17.424   2.123  0.00  0.00    +0.000 A 
ATOM      7  C   UNL     1      15.979  17.187   3.245  0.00  0.00    +0.000 A 
ATOM      8  C   UNL     1      14.731  17.807   3.423  0.00  0.00    +0.000 A 
ENDBRANCH   1   6
BRANCH   1   9
ATOM      9  C   UNL     1      18.147  15.349   1.795  0.00  0.00    +0.000 C 
BRANCH   9  10
ATOM     10  C   UNL     1      18.774  14.647   3.025  0.00  0.00    +0.000 C 
ATOM     11  C   UNL     1      17.797  13.651   3.640  0.00  0.00    +0.000 C 
BRANCH  10  12
ATOM     12  O   UNL     1      19.964  13.934   2.659  0.00  0.00    +0.000 OA
ATOM     13  H   UNL     1      20.337  13.539   3.464  0.00  0.00    +0.000 HD
ENDBRANCH  10  12
ENDBRANCH   9  10
ENDBRANCH   1   9
BRANCH   1  14
ATOM     14  C   UNL     1      19.287  17.478   2.446  0.00  0.00    +0.000 C 
BRANCH  14  15
ATOM     15  C   UNL     1      20.424  17.427   1.397  0.00  0.00    +0.000 C 
ATOM     16  C   UNL     1      21.023  18.795   1.094  0.00  0.00    +0.000 C 
BRANCH  15  17
ATOM     17  O   UNL     1      21.483  16.563   1.809  0.00  0.00    +0.000 OA
ATOM     18  H   UNL     1      22.264  17.145   1.898  0.00  0.00    +0.000 HD
ENDBRANCH  15  17
ENDBRANCH  14  15
ENDBRANCH   1  14
TORSDOF 7
ENDMDL
MODEL 7
REMARK VINA RESULT:    -3.069     12.828     15.022
REMARK INTER + INTRA:          -4.572
REMARK INTER:                  -4.545
REMARK INTRA:                  -0.027
REMARK UNBOUND:                -0.427
REMARK  Name = 
REMARK  10 active torsions:
REMARK  status: ('A' for Active; 'I' for Inactive)
REMARK    1  A    between atoms: C_1  and  C_2
REMARK    2  A    between atoms: C_5  and  N_8
REMARK    3  A    between atoms: N_8  and  C_9
REMARK    4  A    between atoms: N_8  and  C_13
REMARK    5  A    between atoms: C_9  and  C_10
REMARK    6  A    between atoms: C_10  and  C_11
REMARK    7  A    between atoms: C_10  and  O_12
REMARK    8  A    between atoms: C_13  and  C_14
REMARK    9  A    between atoms: C_14  and  C_15
REMARK   10  A    between atoms: C_14  and  O_16
REMARK                            x       y       z     vdW  Elec       q    Type
REMARK                         _______ _______ _______ _____ _____    ______ ____
ROOT
ATOM      1  N   UNL     1      16.794  17.831   1.838  0.00  0.00    +0.000 N 
ENDROOT
BRANCH   1   6
ATOM      2  C   UNL     1      17.910  12.614   4.045  0.00  0.00    +0.000 C 
ATOM      3  C   UNL     1      17.609  13.957   3.452  0.00  0.00    +0.000 A 
ATOM      4  C   UNL     1      18.530  14.597   2.629  0.00  0.00    +0.000 A 
ATOM      5  C   UNL     1      18.255  15.869   2.101  0.00  0.00    +0.000 A 
ATOM      6  C   UNL     1      17.070  16.571   2.384  0.00  0.00    +0.000 A 
ATOM      7  C   UNL     1      16.162  15.893   3.218  0.00  0.00    +0.000 A 
ATOM      8  C   UNL     1      16.423  14.620   3.751  0.00  0.00    +0.000 A 
ENDBRANCH   1   6
BRANCH   1   9
ATOM      9  C   UNL     1      17.847  18.874   1.806  0.00  0.00    +0.000 C 
BRANCH   9  10
ATOM     10  C   UNL     1      18.641  18.967   3.133  0.00  0.00    +0.000 C 
ATOM     11  C   UNL     1      20.117  19.236   2.867  0.00  0.00    +0.000 C 
BRANCH  10  12
ATOM     12  O   UNL     1      18.138  20.024   3.961  0.00  0.00    +0.000 OA
ATOM     13  H   UNL     1      18.843  20.289   4.574  0.00  0.00    +0.000 HD
ENDBRANCH  10  12
ENDBRANCH   9  10
ENDBRANCH   1   9
BRANCH   1  14
ATOM     14  C   UNL     1      15.403  18.346   1.757  0.00  0.00    +0.000 C 
BRANCH  14  15
ATOM     15  C   UNL     1      14.843  18.740   3.145  0.00  0.00    +0.000 C 
ATOM     16  C   UNL     1      14.785  20.248   3.362  0.00  0.00    +0.000 C 
BRANCH  15  17
ATOM     17  O   UNL     1      13.534  18.213   3.355  0.00  0.00    +0.000 OA
ATOM     18  H   UNL     1      13.631  17.585   4.099  0.00  0.00    +0.000 HD
ENDBRANCH  15  17
ENDBRANCH  14  15
ENDBRANCH   1  14
TORSDOF 7
ENDMDL
MODEL 8
REMARK VINA RESULT:    -2.916     13.203     16.294
REMARK INTER + INTRA:          -4.365
REMARK INTER:                  -3.896
REMARK INTRA:                  -0.470
REMARK UNBOUND:                -0.427
REMARK  Name = 
REMARK  10 active torsions:
REMARK  status: ('A' for Active; 'I' for Inactive)
REMARK    1  A    between atoms: C_1  and  C_2
REMARK    2  A    between atoms: C_5  and  N_8
REMARK    3  A    between atoms: N_8  and  C_9
REMARK    4  A    between atoms: N_8  and  C_13
REMARK    5  A    between atoms: C_9  and  C_10
REMARK    6  A    between atoms: C_10  and  C_11
REMARK    7  A    between atoms: C_10  and  O_12
REMARK    8  A    between atoms: C_13  and  C_14
REMARK    9  A    between atoms: C_14  and  C_15
REMARK   10  A    between atoms: C_14  and  O_16
REMARK                            x       y       z     vdW  Elec       q    Type
REMARK                         _______ _______ _______ _____ _____    ______ ____
ROOT
ATOM      1  N   UNL     1      18.649  17.773   1.731  0.00  0.00    +0.000 N 
ENDROOT
BRANCH   1   6
ATOM      2  C   UNL     1      18.739  12.485   4.045  0.00  0.00    +0.000 C 
ATOM      3  C   UNL     1      18.718  13.867   3.467  0.00  0.00    +0.000 A 
ATOM      4  C   UNL     1      17.517  14.538   3.263  0.00  0.00    +0.000 A 
ATOM      5  C   UNL     1      17.501  15.822   2.693  0.00  0.00    +0.000 A 
ATOM      6  C   UNL     1      18.670  16.485   2.280  0.00  0.00    +0.000 A 
ATOM      7  C   UNL     1      19.866  15.779   2.503  0.00  0.00    +0.000 A 
ATOM      8  C   UNL     1      19.896  14.495   3.074  0.00  0.00    +0.000 A 
ENDBRANCH   1   6
BRANCH   1   9
ATOM      9  C   UNL     1      19.805  18.266   0.944  0.00  0.00    +0.000 C 
BRANCH   9  10
ATOM     10  C   UNL     1      20.386  19.591   1.496  0.00  0.00    +0.000 C 
ATOM     11  C   UNL     1      21.153  19.352   2.791  0.00  0.00    +0.000 C 
BRANCH  10  12
ATOM     12  O   UNL     1      21.283  20.192   0.553  0.00  0.00    +0.000 OA
ATOM     13  H   UNL     1      22.046  19.600   0.443  0.00  0.00    +0.000 HD
ENDBRANCH  10  12
ENDBRANCH   9  10
ENDBRANCH   1   9
BRANCH   1  14
ATOM     14  C   UNL     1      17.782  18.838   2.299  0.00  0.00    +0.000 C 
BRANCH  14  15
ATOM     15  C   UNL     1      16.535  19.106   1.422  0.00  0.00    +0.000 C 
ATOM     16  C   UNL     1      15.222  18.881   2.162  0.00  0.00    +0.000 C 
BRANCH  15  17
ATOM     17  O   UNL     1      16.530  20.437   0.907  0.00  0.00    +0.000 OA
ATOM     18  H   UNL     1      15.699  20.833   1.239  0.00  0.00    +0.000 HD
ENDBRANCH  15  17
ENDBRANCH  14  15
ENDBRANCH   1  14
TORSDOF 7
ENDMDL
