MODEL 1
REMARK VINA RESULT:    -5.262      0.000      0.000
REMARK INTER + INTRA:          -7.779
REMARK INTER:                  -7.108
REMARK INTRA:                  -0.672
REMARK UNBOUND:                -0.672
REMARK  Name = 
REMARK  10 active torsions:
REMARK  status: ('A' for Active; 'I' for Inactive)
REMARK    1  A    between atoms: C_1  and  C_2
REMARK    2  A    between atoms: C_5  and  N_8
REMARK    3  A    between atoms: N_8  and  C_9
REMARK    4  A    between atoms: N_8  and  C_13
REMARK    5  A    between atoms: C_9  and  C_10
REMARK    6  A    between atoms: C_10  and  C_11
REMARK    7  A    between atoms: C_10  and  O_12
REMARK    8  A    between atoms: C_13  and  C_14
REMARK    9  A    between atoms: C_14  and  C_15
REMARK   10  A    between atoms: C_14  and  O_16
REMARK                            x       y       z     vdW  Elec       q    Type
REMARK                         _______ _______ _______ _____ _____    ______ ____
ROOT
ATOM      1  N   UNL     1      -4.428  11.775  -5.873  0.00  0.00    +0.000 N 
ENDROOT
BRANCH   1   6
ATOM      2  C   UNL     1      -4.357  16.337  -9.411  0.00  0.00    +0.000 C 
ATOM      3  C   UNL     1      -4.394  15.164  -8.480  0.00  0.00    +0.000 A 
ATOM      4  C   UNL     1      -3.593  15.127  -7.344  0.00  0.00    +0.000 A 
ATOM      5  C   UNL     1      -3.609  14.012  -6.491  0.00  0.00    +0.000 A 
ATOM      6  C   UNL     1      -4.401  12.876  -6.739  0.00  0.00    +0.000 A 
ATOM      7  C   UNL     1      -5.200  12.948  -7.895  0.00  0.00    +0.000 A 
ATOM      8  C   UNL     1      -5.194  14.059  -8.755  0.00  0.00    +0.000 A 
ENDBRANCH   1   6
BRANCH   1   9
ATOM      9  C   UNL     1      -4.546  11.982  -4.410  0.00  0.00    +0.000 C 
BRANCH   9  10
ATOM     10  C   UNL     1      -6.014  12.136  -3.942  0.00  0.00    +0.000 C 
ATOM     11  C   UNL     1      -6.441  13.599  -3.960  0.00  0.00    +0.000 C 
BRANCH  10  12
ATOM     12  O   UNL     1      -6.905  11.403  -4.793  0.00  0.00    +0.000 OA
ATOM     13  H   UNL     1      -7.337  10.717  -4.257  0.00  0.00    +0.000 HD
ENDBRANCH  10  12
ENDBRANCH   9  10
ENDBRANCH   1   9
BRANCH   1  14
ATOM     14  C   UNL     1      -3.846  10.468  -6.274  0.00  0.00    +0.000 C 
BRANCH  14  15
ATOM     15  C   UNL     1      -4.779   9.681  -7.226  0.00  0.00    +0.000 C 
ATOM     16  C   UNL     1      -4.405   8.209  -7.350  0.00  0.00    +0.000 C 
BRANCH  15  17
ATOM     17  O   UNL     1      -6.142   9.757  -6.811  0.00  0.00    +0.000 OA
ATOM     18  H   UNL     1      -6.217   9.119  -6.072  0.00  0.00    +0.000 HD
ENDBRANCH  15  17
ENDBRANCH  14  15
ENDBRANCH   1  14
TORSDOF 7
ENDMDL
MODEL 2
REMARK VINA RESULT:    -5.186      1.130      1.771
REMARK INTER + INTRA:          -7.677
REMARK INTER:                  -7.554
REMARK INTRA:                  -0.123
REMARK UNBOUND:                -0.672
REMARK  Name = 
REMARK  10 active torsions:
REMARK  status: ('A' for Active; 'I' for Inactive)
REMARK    1  A    between atoms: C_1  and  C_2
REMARK    2  A    between atoms: C_5  and  N_8
REMARK    3  A    between atoms: N_8  and  C_9
REMARK    4  A    between atoms: N_8  and  C_13
REMARK    5  A    between atoms: C_9  and  C_10
REMARK    6  A    between atoms: C_10  and  C_11
REMARK    7  A    between atoms: C_10  and  O_12
REMARK    8  A    between atoms: C_13  and  C_14
REMARK    9  A    between atoms: C_14  and  C_15
REMARK   10  A    between atoms: C_14  and  O_16
REMARK                            x       y       z     vdW  Elec       q    Type
REMARK                         _______ _______ _______ _____ _____    ______ ____
ROOT
ATOM      1  N   UNL     1      -4.747  11.827  -6.288  0.00  0.00    +0.000 N 
ENDROOT
BRANCH   1   6
ATOM      2  C   UNL     1      -4.461  16.550  -9.595  0.00  0.00    +0.000 C 
ATOM      3  C   UNL     1      -4.515  15.315  -8.749  0.00  0.00    +0.000 A 
ATOM      4  C   UNL     1      -5.312  14.234  -9.113  0.00  0.00    +0.000 A 
ATOM      5  C   UNL     1      -5.382  13.091  -8.301  0.00  0.00    +0.000 A 
ATOM      6  C   UNL     1      -4.687  12.978  -7.083  0.00  0.00    +0.000 A 
ATOM      7  C   UNL     1      -3.890  14.088  -6.748  0.00  0.00    +0.000 A 
ATOM      8  C   UNL     1      -3.809  15.237  -7.552  0.00  0.00    +0.000 A 
ENDBRANCH   1   6
BRANCH   1   9
ATOM      9  C   UNL     1      -5.141  11.928  -4.862  0.00  0.00    +0.000 C 
BRANCH   9  10
ATOM     10  C   UNL     1      -3.924  11.977  -3.905  0.00  0.00    +0.000 C 
ATOM     11  C   UNL     1      -4.263  12.741  -2.631  0.00  0.00    +0.000 C 
BRANCH  10  12
ATOM     12  O   UNL     1      -3.508  10.656  -3.534  0.00  0.00    +0.000 OA
ATOM     13  H   UNL     1      -4.198  10.270  -2.969  0.00  0.00    +0.000 HD
ENDBRANCH  10  12
ENDBRANCH   9  10
ENDBRANCH   1   9
BRANCH   1  14
ATOM     14  C   UNL     1      -3.968  10.611  -6.635  0.00  0.00    +0.000 C 
BRANCH  14  15
ATOM     15  C   UNL     1      -4.840   9.537  -7.330  0.00  0.00    +0.000 C 
ATOM     16  C   UNL     1      -4.423   8.112  -6.987  0.00  0.00    +0.000 C 
BRANCH  15  17
ATOM     17  O   UNL     1      -6.221   9.685  -6.999  0.00  0.00    +0.000 OA
ATOM     18  H   UNL     1      -6.289   9.401  -6.066  0.00  0.00    +0.000 HD
ENDBRANCH  15  17
ENDBRANCH  14  15
ENDBRANCH   1  14
TORSDOF 7
ENDMDL
MODEL 3
REMARK VINA RESULT:    -5.179      1.550      3.073
REMARK INTER + INTRA:          -7.668
REMARK INTER:                  -7.143
REMARK INTRA:                  -0.524
REMARK UNBOUND:                -0.672
REMARK  Name = 
REMARK  10 active torsions:
REMARK  status: ('A' for Active; 'I' for Inactive)
REMARK    1  A    between atoms: C_1  and  C_2
REMARK    2  A    between atoms: C_5  and  N_8
REMARK    3  A    between atoms: N_8  and  C_9
REMARK    4  A    between atoms: N_8  and  C_13
REMARK    5  A    between atoms: C_9  and  C_10
REMARK    6  A    between atoms: C_10  and  C_11
REMARK    7  A    between atoms: C_10  and  O_12
REMARK    8  A    between atoms: C_13  and  C_14
REMARK    9  A    between atoms: C_14  and  C_15
REMARK   10  A    between atoms: C_14  and  O_16
REMARK                            x       y       z     vdW  Elec       q    Type
REMARK                         _______ _______ _______ _____ _____    ______ ____
ROOT
ATOM      1  N   UNL     1      -4.361  12.513  -6.255  0.00  0.00    +0.000 N 
ENDROOT
BRANCH   1   6
ATOM      2  C   UNL     1      -3.214  17.570  -8.795  0.00  0.00    +0.000 C 
ATOM      3  C   UNL     1      -3.528  16.269  -8.121  0.00  0.00    +0.000 A 
ATOM      4  C   UNL     1      -2.810  15.850  -7.006  0.00  0.00    +0.000 A 
ATOM      5  C   UNL     1      -3.090  14.615  -6.397  0.00  0.00    +0.000 A 
ATOM      6  C   UNL     1      -4.074  13.734  -6.879  0.00  0.00    +0.000 A 
ATOM      7  C   UNL     1      -4.782  14.191  -8.007  0.00  0.00    +0.000 A 
ATOM      8  C   UNL     1      -4.514  15.424  -8.624  0.00  0.00    +0.000 A 
ENDBRANCH   1   6
BRANCH   1   9
ATOM      9  C   UNL     1      -4.549  11.289  -7.070  0.00  0.00    +0.000 C 
BRANCH   9  10
ATOM     10  C   UNL     1      -5.936  10.633  -6.855  0.00  0.00    +0.000 C 
ATOM     11  C   UNL     1      -6.924  11.086  -7.924  0.00  0.00    +0.000 C 
BRANCH  10  12
ATOM     12  O   UNL     1      -5.844   9.203  -6.913  0.00  0.00    +0.000 OA
ATOM     13  H   UNL     1      -6.667   8.833  -6.554  0.00  0.00    +0.000 HD
ENDBRANCH  10  12
ENDBRANCH   9  10
ENDBRANCH   1   9
BRANCH   1  14
ATOM     14  C   UNL     1      -4.977  12.466  -4.905  0.00  0.00    +0.000 C 
BRANCH  14  15
ATOM     15  C   UNL     1      -3.933  12.197  -3.795  0.00  0.00    +0.000 C 
ATOM     16  C   UNL     1      -4.397  12.644  -2.414  0.00  0.00    +0.000 C 
BRANCH  15  17
ATOM     17  O   UNL     1      -3.588  10.815  -3.720  0.00  0.00    +0.000 OA
ATOM     18  H   UNL     1      -2.613  10.802  -3.637  0.00  0.00    +0.000 HD
ENDBRANCH  15  17
ENDBRANCH  14  15
ENDBRANCH   1  14
TORSDOF 7
ENDMDL
MODEL 4
REMARK VINA RESULT:    -5.121      1.452      3.523
REMARK INTER + INTRA:          -7.589
REMARK INTER:                  -7.205
REMARK INTRA:                  -0.384
REMARK UNBOUND:                -0.672
REMARK  Name = 
REMARK  10 active torsions:
REMARK  status: ('A' for Active; 'I' for Inactive)
REMARK    1  A    between atoms: C_1  and  C_2
REMARK    2  A    between atoms: C_5  and  N_8
REMARK    3  A    between atoms: N_8  and  C_9
REMARK    4  A    between atoms: N_8  and  C_13
REMARK    5  A    between atoms: C_9  and  C_10
REMARK    6  A    between atoms: C_10  and  C_11
REMARK    7  A    between atoms: C_10  and  O_12
REMARK    8  A    between atoms: C_13  and  C_14
REMARK    9  A    between atoms: C_14  and  C_15
REMARK   10  A    between atoms: C_14  and  O_16
REMARK                            x       y       z     vdW  Elec       q    Type
REMARK                         _______ _______ _______ _____ _____    ______ ____
ROOT
ATOM      1  N   UNL     1      -4.932  12.163  -6.428  0.00  0.00    +0.000 N 
ENDROOT
BRANCH   1   6
ATOM      2  C   UNL     1      -4.104  16.964  -9.525  0.00  0.00    +0.000 C 
ATOM      3  C   UNL     1      -4.300  15.707  -8.733  0.00  0.00    +0.000 A 
ATOM      4  C   UNL     1      -5.159  14.709  -9.178  0.00  0.00    +0.000 A 
ATOM      5  C   UNL     1      -5.361  13.546  -8.417  0.00  0.00    +0.000 A 
ATOM      6  C   UNL     1      -4.740  13.333  -7.172  0.00  0.00    +0.000 A 
ATOM      7  C   UNL     1      -3.877  14.363  -6.755  0.00  0.00    +0.000 A 
ATOM      8  C   UNL     1      -3.664  15.530  -7.508  0.00  0.00    +0.000 A 
ENDBRANCH   1   6
BRANCH   1   9
ATOM      9  C   UNL     1      -5.213  10.881  -7.117  0.00  0.00    +0.000 C 
BRANCH   9  10
ATOM     10  C   UNL     1      -4.411   9.694  -6.528  0.00  0.00    +0.000 C 
ATOM     11  C   UNL     1      -4.674   8.415  -7.315  0.00  0.00    +0.000 C 
BRANCH  10  12
ATOM     12  O   UNL     1      -3.002   9.957  -6.565  0.00  0.00    +0.000 OA
ATOM     13  H   UNL     1      -2.541   9.112  -6.700  0.00  0.00    +0.000 HD
ENDBRANCH  10  12
ENDBRANCH   9  10
ENDBRANCH   1   9
BRANCH   1  14
ATOM     14  C   UNL     1      -5.366  12.217  -5.008  0.00  0.00    +0.000 C 
BRANCH  14  15
ATOM     15  C   UNL     1      -4.169  12.344  -4.035  0.00  0.00    +0.000 C 
ATOM     16  C   UNL     1      -4.550  12.958  -2.693  0.00  0.00    +0.000 C 
BRANCH  15  17
ATOM     17  O   UNL     1      -3.557  11.080  -3.785  0.00  0.00    +0.000 OA
ATOM     18  H   UNL     1      -2.887  10.980  -4.491  0.00  0.00    +0.000 HD
ENDBRANCH  15  17
ENDBRANCH  14  15
ENDBRANCH   1  14
TORSDOF 7
ENDMDL
MODEL 5
REMARK VINA RESULT:    -4.941      1.320      2.992
REMARK INTER + INTRA:          -7.345
REMARK INTER:                  -6.988
REMARK INTRA:                  -0.357
REMARK UNBOUND:                -0.672
REMARK  Name = 
REMARK  10 active torsions:
REMARK  status: ('A' for Active; 'I' for Inactive)
REMARK    1  A    between atoms: C_1  and  C_2
REMARK    2  A    between atoms: C_5  and  N_8
REMARK    3  A    between atoms: N_8  and  C_9
REMARK    4  A    between atoms: N_8  and  C_13
REMARK    5  A    between atoms: C_9  and  C_10
REMARK    6  A    between atoms: C_10  and  C_11
REMARK    7  A    between atoms: C_10  and  O_12
REMARK    8  A    between atoms: C_13  and  C_14
REMARK    9  A    between atoms: C_14  and  C_15
REMARK   10  A    between atoms: C_14  and  O_16
REMARK                            x       y       z     vdW  Elec       q    Type
REMARK                         _______ _______ _______ _____ _____    ______ ____
ROOT
ATOM      1  N   UNL     1      -4.715  12.787  -6.378  0.00  0.00    +0.000 N 
ENDROOT
BRANCH   1   6
ATOM      2  C   UNL     1      -4.679  16.857 -10.472  0.00  0.00    +0.000 C 
ATOM      3  C   UNL     1      -4.708  15.812  -9.398  0.00  0.00    +0.000 A 
ATOM      4  C   UNL     1      -3.930  15.943  -8.253  0.00  0.00    +0.000 A 
ATOM      5  C   UNL     1      -3.938  14.946  -7.264  0.00  0.00    +0.000 A 
ATOM      6  C   UNL     1      -4.697  13.768  -7.377  0.00  0.00    +0.000 A 
ATOM      7  C   UNL     1      -5.473  13.670  -8.547  0.00  0.00    +0.000 A 
ATOM      8  C   UNL     1      -5.476  14.661  -9.543  0.00  0.00    +0.000 A 
ENDBRANCH   1   6
BRANCH   1   9
ATOM      9  C   UNL     1      -5.769  11.744  -6.379  0.00  0.00    +0.000 C 
BRANCH   9  10
ATOM     10  C   UNL     1      -5.387  10.505  -7.226  0.00  0.00    +0.000 C 
ATOM     11  C   UNL     1      -3.929  10.120  -7.001  0.00  0.00    +0.000 C 
BRANCH  10  12
ATOM     12  O   UNL     1      -6.202   9.376  -6.883  0.00  0.00    +0.000 OA
ATOM     13  H   UNL     1      -6.261   8.799  -7.663  0.00  0.00    +0.000 HD
ENDBRANCH  10  12
ENDBRANCH   9  10
ENDBRANCH   1   9
BRANCH   1  14
ATOM     14  C   UNL     1      -4.067  13.018  -5.061  0.00  0.00    +0.000 C 
BRANCH  14  15
ATOM     15  C   UNL     1      -4.643  12.098  -3.958  0.00  0.00    +0.000 C 
ATOM     16  C   UNL     1      -3.570  11.314  -3.211  0.00  0.00    +0.000 C 
BRANCH  15  17
ATOM     17  O   UNL     1      -5.399  12.835  -2.998  0.00  0.00    +0.000 OA
ATOM     18  H   UNL     1      -5.530  12.217  -2.251  0.00  0.00    +0.000 HD
ENDBRANCH  15  17
ENDBRANCH  14  15
ENDBRANCH   1  14
TORSDOF 7
ENDMDL
MODEL 6
REMARK VINA RESULT:    -4.639      4.772      6.226
REMARK INTER + INTRA:          -6.938
REMARK INTER:                  -6.408
REMARK INTRA:                  -0.530
REMARK UNBOUND:                -0.672
REMARK  Name = 
REMARK  10 active torsions:
REMARK  status: ('A' for Active; 'I' for Inactive)
REMARK    1  A    between atoms: C_1  and  C_2
REMARK    2  A    between atoms: C_5  and  N_8
REMARK    3  A    between atoms: N_8  and  C_9
REMARK    4  A    between atoms: N_8  and  C_13
REMARK    5  A    between atoms: C_9  and  C_10
REMARK    6  A    between atoms: C_10  and  C_11
REMARK    7  A    between atoms: C_10  and  O_12
REMARK    8  A    between atoms: C_13  and  C_14
REMARK    9  A    between atoms: C_14  and  C_15
REMARK   10  A    between atoms: C_14  and  O_16
REMARK                            x       y       z     vdW  Elec       q    Type
REMARK                         _______ _______ _______ _____ _____    ______ ____
ROOT
ATOM      1  N   UNL     1      -4.237  14.044  -2.020  0.00  0.00    +0.000 N 
ENDROOT
BRANCH   1   6
ATOM      2  C   UNL     1      -0.102  17.563  -0.059  0.00  0.00    +0.000 C 
ATOM      3  C   UNL     1      -1.187  16.652  -0.546  0.00  0.00    +0.000 A 
ATOM      4  C   UNL     1      -1.095  15.275  -0.374  0.00  0.00    +0.000 A 
ATOM      5  C   UNL     1      -2.101  14.424  -0.860  0.00  0.00    +0.000 A 
ATOM      6  C   UNL     1      -3.228  14.897  -1.556  0.00  0.00    +0.000 A 
ATOM      7  C   UNL     1      -3.289  16.294  -1.710  0.00  0.00    +0.000 A 
ATOM      8  C   UNL     1      -2.291  17.157  -1.227  0.00  0.00    +0.000 A 
ENDBRANCH   1   6
BRANCH   1   9
ATOM      9  C   UNL     1      -5.660  14.352  -1.737  0.00  0.00    +0.000 C 
BRANCH   9  10
ATOM     10  C   UNL     1      -5.969  14.418  -0.222  0.00  0.00    +0.000 C 
ATOM     11  C   UNL     1      -6.541  15.778   0.159  0.00  0.00    +0.000 C 
BRANCH  10  12
ATOM     12  O   UNL     1      -6.923  13.415   0.153  0.00  0.00    +0.000 OA
ATOM     13  H   UNL     1      -7.510  13.794   0.828  0.00  0.00    +0.000 HD
ENDBRANCH  10  12
ENDBRANCH   9  10
ENDBRANCH   1   9
BRANCH   1  14
ATOM     14  C   UNL     1      -3.957  12.618  -2.331  0.00  0.00    +0.000 C 
BRANCH  14  15
ATOM     15  C   UNL     1      -4.387  12.238  -3.768  0.00  0.00    +0.000 C 
ATOM     16  C   UNL     1      -4.038  13.303  -4.800  0.00  0.00    +0.000 C 
BRANCH  15  17
ATOM     17  O   UNL     1      -3.798  11.007  -4.186  0.00  0.00    +0.000 OA
ATOM     18  H   UNL     1      -3.101  10.823  -3.524  0.00  0.00    +0.000 HD
ENDBRANCH  15  17
ENDBRANCH  14  15
ENDBRANCH   1  14
TORSDOF 7
ENDMDL
MODEL 7
REMARK VINA RESULT:    -4.630      4.033      6.008
REMARK INTER + INTRA:          -6.926
REMARK INTER:                  -6.495
REMARK INTRA:                  -0.431
REMARK UNBOUND:                -0.672
REMARK  Name = 
REMARK  10 active torsions:
REMARK  status: ('A' for Active; 'I' for Inactive)
REMARK    1  A    between atoms: C_1  and  C_2
REMARK    2  A    between atoms: C_5  and  N_8
REMARK    3  A    between atoms: N_8  and  C_9
REMARK    4  A    between atoms: N_8  and  C_13
REMARK    5  A    between atoms: C_9  and  C_10
REMARK    6  A    between atoms: C_10  and  C_11
REMARK    7  A    between atoms: C_10  and  O_12
REMARK    8  A    between atoms: C_13  and  C_14
REMARK    9  A    between atoms: C_14  and  C_15
REMARK   10  A    between atoms: C_14  and  O_16
REMARK                            x       y       z     vdW  Elec       q    Type
REMARK                         _______ _______ _______ _____ _____    ______ ____
ROOT
ATOM      1  N   UNL     1      -3.553  14.404  -2.260  0.00  0.00    +0.000 N 
ENDROOT
BRANCH   1   6
ATOM      2  C   UNL     1      -4.433  11.405  -7.114  0.00  0.00    +0.000 C 
ATOM      3  C   UNL     1      -4.229  12.186  -5.852  0.00  0.00    +0.000 A 
ATOM      4  C   UNL     1      -4.027  13.562  -5.888  0.00  0.00    +0.000 A 
ATOM      5  C   UNL     1      -3.806  14.285  -4.704  0.00  0.00    +0.000 A 
ATOM      6  C   UNL     1      -3.754  13.674  -3.438  0.00  0.00    +0.000 A 
ATOM      7  C   UNL     1      -3.965  12.283  -3.439  0.00  0.00    +0.000 A 
ATOM      8  C   UNL     1      -4.188  11.548  -4.615  0.00  0.00    +0.000 A 
ENDBRANCH   1   6
BRANCH   1   9
ATOM      9  C   UNL     1      -2.417  14.074  -1.365  0.00  0.00    +0.000 C 
BRANCH   9  10
ATOM     10  C   UNL     1      -1.211  15.028  -1.550  0.00  0.00    +0.000 C 
ATOM     11  C   UNL     1      -1.021  15.909  -0.321  0.00  0.00    +0.000 C 
BRANCH  10  12
ATOM     12  O   UNL     1       0.001  14.290  -1.760  0.00  0.00    +0.000 OA
ATOM     13  H   UNL     1       0.470  14.689  -2.511  0.00  0.00    +0.000 HD
ENDBRANCH  10  12
ENDBRANCH   9  10
ENDBRANCH   1   9
BRANCH   1  14
ATOM     14  C   UNL     1      -4.671  15.132  -1.606  0.00  0.00    +0.000 C 
BRANCH  14  15
ATOM     15  C   UNL     1      -5.214  14.380  -0.368  0.00  0.00    +0.000 C 
ATOM     16  C   UNL     1      -6.108  15.243   0.514  0.00  0.00    +0.000 C 
BRANCH  15  17
ATOM     17  O   UNL     1      -5.951  13.216  -0.739  0.00  0.00    +0.000 OA
ATOM     18  H   UNL     1      -6.523  13.504  -1.478  0.00  0.00    +0.000 HD
ENDBRANCH  15  17
ENDBRANCH  14  15
ENDBRANCH   1  14
TORSDOF 7
ENDMDL
MODEL 8
REMARK VINA RESULT:    -4.569      3.739      5.570
REMARK INTER + INTRA:          -6.843
REMARK INTER:                  -6.389
REMARK INTRA:                  -0.454
REMARK UNBOUND:                -0.672
REMARK  Name = 
REMARK  10 active torsions:
REMARK  status: ('A' for Active; 'I' for Inactive)
REMARK    1  A    between atoms: C_1  and  C_2
REMARK    2  A    between atoms: C_5  and  N_8
REMARK    3  A    between atoms: N_8  and  C_9
REMARK    4  A    between atoms: N_8  and  C_13
REMARK    5  A    between atoms: C_9  and  C_10
REMARK    6  A    between atoms: C_10  and  C_11
REMARK    7  A    between atoms: C_10  and  O_12
REMARK    8  A    between atoms: C_13  and  C_14
REMARK    9  A    between atoms: C_14  and  C_15
REMARK   10  A    between atoms: C_14  and  O_16
REMARK                            x       y       z     vdW  Elec       q    Type
REMARK                         _______ _______ _______ _____ _____    ______ ____
ROOT
ATOM      1  N   UNL     1      -3.796  14.492  -2.559  0.00  0.00    +0.000 N 
ENDROOT
BRANCH   1   6
ATOM      2  C   UNL     1      -4.304  10.989  -7.119  0.00  0.00    +0.000 C 
ATOM      3  C   UNL     1      -4.197  11.901  -5.936  0.00  0.00    +0.000 A 
ATOM      4  C   UNL     1      -3.991  13.266  -6.102  0.00  0.00    +0.000 A 
ATOM      5  C   UNL     1      -3.861  14.112  -4.989  0.00  0.00    +0.000 A 
ATOM      6  C   UNL     1      -3.907  13.640  -3.665  0.00  0.00    +0.000 A 
ATOM      7  C   UNL     1      -4.118  12.255  -3.534  0.00  0.00    +0.000 A 
ATOM      8  C   UNL     1      -4.252  11.398  -4.639  0.00  0.00    +0.000 A 
ENDBRANCH   1   6
BRANCH   1   9
ATOM      9  C   UNL     1      -5.015  14.964  -1.859  0.00  0.00    +0.000 C 
BRANCH   9  10
ATOM     10  C   UNL     1      -5.203  14.306  -0.471  0.00  0.00    +0.000 C 
ATOM     11  C   UNL     1      -5.811  15.291   0.522  0.00  0.00    +0.000 C 
BRANCH  10  12
ATOM     12  O   UNL     1      -6.071  13.167  -0.554  0.00  0.00    +0.000 OA
ATOM     13  H   UNL     1      -6.184  12.942  -1.493  0.00  0.00    +0.000 HD
ENDBRANCH  10  12
ENDBRANCH   9  10
ENDBRANCH   1   9
BRANCH   1  14
ATOM     14  C   UNL     1      -2.593  15.341  -2.359  0.00  0.00    +0.000 C 
BRANCH  14  15
ATOM     15  C   UNL     1      -1.598  14.717  -1.351  0.00  0.00    +0.000 C 
ATOM     16  C   UNL     1      -1.740  15.280   0.058  0.00  0.00    +0.000 C 
BRANCH  15  17
ATOM     17  O   UNL     1      -1.742  13.300  -1.277  0.00  0.00    +0.000 OA
ATOM     18  H   UNL     1      -0.828  12.956  -1.216  0.00  0.00    +0.000 HD
ENDBRANCH  15  17
ENDBRANCH  14  15
ENDBRANCH   1  14
TORSDOF 7
ENDMDL
MODEL 9
REMARK VINA RESULT:    -4.300      2.564      4.552
REMARK INTER + INTRA:          -6.480
REMARK INTER:                  -5.904
REMARK INTRA:                  -0.575
REMARK UNBOUND:                -0.672
REMARK  Name = 
REMARK  10 active torsions:
REMARK  status: ('A' for Active; 'I' for Inactive)
REMARK    1  A    between atoms: C_1  and  C_2
REMARK    2  A    between atoms: C_5  and  N_8
REMARK    3  A    between atoms: N_8  and  C_9
REMARK    4  A    between atoms: N_8  and  C_13
REMARK    5  A    between atoms: C_9  and  C_10
REMARK    6  A    between atoms: C_10  and  C_11
REMARK    7  A    between atoms: C_10  and  O_12
REMARK    8  A    between atoms: C_13  and  C_14
REMARK    9  A    between atoms: C_14  and  C_15
REMARK   10  A    between atoms: C_14  and  O_16
REMARK                            x       y       z     vdW  Elec       q    Type
REMARK                         _______ _______ _______ _____ _____    ______ ____
ROOT
ATOM      1  N   UNL     1      -5.281  12.965  -5.761  0.00  0.00    +0.000 N 
ENDROOT
BRANCH   1   6
ATOM      2  C   UNL     1      -2.449  14.446  -0.953  0.00  0.00    +0.000 C 
ATOM      3  C   UNL     1      -3.205  14.070  -2.190  0.00  0.00    +0.000 A 
ATOM      4  C   UNL     1      -3.723  12.789  -2.349  0.00  0.00    +0.000 A 
ATOM      5  C   UNL     1      -4.405  12.432  -3.524  0.00  0.00    +0.000 A 
ATOM      6  C   UNL     1      -4.583  13.321  -4.600  0.00  0.00    +0.000 A 
ATOM      7  C   UNL     1      -4.048  14.607  -4.404  0.00  0.00    +0.000 A 
ATOM      8  C   UNL     1      -3.366  14.977  -3.233  0.00  0.00    +0.000 A 
ENDBRANCH   1   6
BRANCH   1   9
ATOM      9  C   UNL     1      -5.648  14.002  -6.755  0.00  0.00    +0.000 C 
BRANCH   9  10
ATOM     10  C   UNL     1      -4.685  14.040  -7.966  0.00  0.00    +0.000 C 
ATOM     11  C   UNL     1      -5.427  13.738  -9.263  0.00  0.00    +0.000 C 
BRANCH  10  12
ATOM     12  O   UNL     1      -4.071  15.330  -8.096  0.00  0.00    +0.000 OA
ATOM     13  H   UNL     1      -4.672  15.989  -7.711  0.00  0.00    +0.000 HD
ENDBRANCH  10  12
ENDBRANCH   9  10
ENDBRANCH   1   9
BRANCH   1  14
ATOM     14  C   UNL     1      -6.103  11.729  -5.815  0.00  0.00    +0.000 C 
BRANCH  14  15
ATOM     15  C   UNL     1      -5.647  10.773  -6.943  0.00  0.00    +0.000 C 
ATOM     16  C   UNL     1      -4.148  10.495  -6.925  0.00  0.00    +0.000 C 
BRANCH  15  17
ATOM     17  O   UNL     1      -6.329   9.521  -6.882  0.00  0.00    +0.000 OA
ATOM     18  H   UNL     1      -5.721   8.881  -7.305  0.00  0.00    +0.000 HD
ENDBRANCH  15  17
ENDBRANCH  14  15
ENDBRANCH   1  14
TORSDOF 7
ENDMDL
