MODEL 1
REMARK VINA RESULT:    -3.821      0.000      0.000
REMARK INTER + INTRA:          -4.194
REMARK INTER:                  -4.157
REMARK INTRA:                  -0.038
REMARK UNBOUND:                -0.038
REMARK  Name = 
REMARK  3 active torsions:
REMARK  status: ('A' for Active; 'I' for Inactive)
REMARK    1  A    between atoms: C_1  and  O_2
REMARK    2  A    between atoms: O_2  and  C_3
REMARK    3  A    between atoms: C_8  and  O_9
REMARK                            x       y       z     vdW  Elec       q    Type
REMARK                         _______ _______ _______ _____ _____    ______ ____
ROOT
ATOM      1  C   UNL     1      -4.282  11.781  -4.882  0.00  0.00    +0.000 A 
ATOM      2  C   UNL     1      -5.037  12.915  -5.177  0.00  0.00    +0.000 A 
ATOM      3  C   UNL     1      -5.469  13.146  -6.489  0.00  0.00    +0.000 A 
ATOM      4  C   UNL     1      -5.149  12.247  -7.508  0.00  0.00    +0.000 A 
ATOM      5  C   UNL     1      -4.395  11.111  -7.221  0.00  0.00    +0.000 A 
ATOM      6  C   UNL     1      -3.971  10.891  -5.917  0.00  0.00    +0.000 A 
ENDROOT
BRANCH   1   8
ATOM      7  C   UNL     1      -3.853  12.427  -2.635  0.00  0.00    +0.000 C 
ATOM      8  O   UNL     1      -3.793  11.431  -3.648  0.00  0.00    +0.000 OA
ENDBRANCH   1   8
BRANCH   6   9
ATOM      9  O   UNL     1      -3.231   9.767  -5.659  0.00  0.00    +0.000 OA
ATOM     10  H   UNL     1      -2.629   9.685  -6.423  0.00  0.00    +0.000 HD
ENDBRANCH   6   9
TORSDOF 2
ENDMDL
MODEL 2
REMARK VINA RESULT:    -3.663      2.180      3.241
REMARK INTER + INTRA:          -4.022
REMARK INTER:                  -3.969
REMARK INTRA:                  -0.053
REMARK UNBOUND:                -0.038
REMARK  Name = 
REMARK  3 active torsions:
REMARK  status: ('A' for Active; 'I' for Inactive)
REMARK    1  A    between atoms: C_1  and  O_2
REMARK    2  A    between atoms: O_2  and  C_3
REMARK    3  A    between atoms: C_8  and  O_9
REMARK                            x       y       z     vdW  Elec       q    Type
REMARK                         _______ _______ _______ _____ _____    ______ ____
ROOT
ATOM      1  C   UNL     1      -4.681  12.470  -7.055  0.00  0.00    +0.000 A 
ATOM      2  C   UNL     1      -5.424  12.597  -8.228  0.00  0.00    +0.000 A 
ATOM      3  C   UNL     1      -5.404  13.801  -8.942  0.00  0.00    +0.000 A 
ATOM      4  C   UNL     1      -4.646  14.882  -8.487  0.00  0.00    +0.000 A 
ATOM      5  C   UNL     1      -3.901  14.763  -7.316  0.00  0.00    +0.000 A 
ATOM      6  C   UNL     1      -3.926  13.564  -6.614  0.00  0.00    +0.000 A 
ENDROOT
BRANCH   1   8
ATOM      7  C   UNL     1      -4.001  10.205  -6.831  0.00  0.00    +0.000 C 
ATOM      8  O   UNL     1      -4.608  11.356  -6.258  0.00  0.00    +0.000 OA
ENDBRANCH   1   8
BRANCH   6   9
ATOM      9  O   UNL     1      -3.186  13.472  -5.466  0.00  0.00    +0.000 OA
ATOM     10  H   UNL     1      -3.030  14.397  -5.196  0.00  0.00    +0.000 HD
ENDBRANCH   6   9
TORSDOF 2
ENDMDL
MODEL 3
REMARK VINA RESULT:    -3.623      0.981      2.851
REMARK INTER + INTRA:          -3.978
REMARK INTER:                  -3.932
REMARK INTRA:                  -0.047
REMARK UNBOUND:                -0.038
REMARK  Name = 
REMARK  3 active torsions:
REMARK  status: ('A' for Active; 'I' for Inactive)
REMARK    1  A    between atoms: C_1  and  O_2
REMARK    2  A    between atoms: O_2  and  C_3
REMARK    3  A    between atoms: C_8  and  O_9
REMARK                            x       y       z     vdW  Elec       q    Type
REMARK                         _______ _______ _______ _____ _____    ______ ____
ROOT
ATOM      1  C   UNL     1      -4.192  11.120  -6.348  0.00  0.00    +0.000 A 
ATOM      2  C   UNL     1      -4.819  11.895  -7.322  0.00  0.00    +0.000 A 
ATOM      3  C   UNL     1      -5.344  13.150  -6.987  0.00  0.00    +0.000 A 
ATOM      4  C   UNL     1      -5.245  13.632  -5.681  0.00  0.00    +0.000 A 
ATOM      5  C   UNL     1      -4.619  12.864  -4.702  0.00  0.00    +0.000 A 
ATOM      6  C   UNL     1      -4.102  11.621  -5.043  0.00  0.00    +0.000 A 
ENDROOT
BRANCH   1   8
ATOM      7  C   UNL     1      -4.409   8.941  -7.271  0.00  0.00    +0.000 C 
ATOM      8  O   UNL     1      -3.636   9.879  -6.532  0.00  0.00    +0.000 OA
ENDBRANCH   1   8
BRANCH   6   9
ATOM      9  O   UNL     1      -3.492  10.884  -4.064  0.00  0.00    +0.000 OA
ATOM     10  H   UNL     1      -4.178  10.762  -3.380  0.00  0.00    +0.000 HD
ENDBRANCH   6   9
TORSDOF 2
ENDMDL
MODEL 4
REMARK VINA RESULT:    -3.524      3.957      6.276
REMARK INTER + INTRA:          -3.871
REMARK INTER:                  -3.827
REMARK INTRA:                  -0.044
REMARK UNBOUND:                -0.038
REMARK  Name = 
REMARK  3 active torsions:
REMARK  status: ('A' for Active; 'I' for Inactive)
REMARK    1  A    between atoms: C_1  and  O_2
REMARK    2  A    between atoms: O_2  and  C_3
REMARK    3  A    between atoms: C_8  and  O_9
REMARK                            x       y       z     vdW  Elec       q    Type
REMARK                         _______ _______ _______ _____ _____    ______ ____
ROOT
ATOM      1  C   UNL     1      -4.632  14.080  -1.256  0.00  0.00    +0.000 A 
ATOM      2  C   UNL     1      -3.620  15.035  -1.341  0.00  0.00    +0.000 A 
ATOM      3  C   UNL     1      -3.625  16.139  -0.479  0.00  0.00    +0.000 A 
ATOM      4  C   UNL     1      -4.638  16.292   0.469  0.00  0.00    +0.000 A 
ATOM      5  C   UNL     1      -5.653  15.342   0.561  0.00  0.00    +0.000 A 
ATOM      6  C   UNL     1      -5.640  14.251  -0.299  0.00  0.00    +0.000 A 
ENDROOT
BRANCH   1   8
ATOM      7  C   UNL     1      -3.549  12.269  -2.348  0.00  0.00    +0.000 C 
ATOM      8  O   UNL     1      -4.754  12.956  -2.032  0.00  0.00    +0.000 OA
ENDBRANCH   1   8
BRANCH   6   9
ATOM      9  O   UNL     1      -6.648  13.330  -0.189  0.00  0.00    +0.000 OA
ATOM     10  H   UNL     1      -7.327  13.629  -0.825  0.00  0.00    +0.000 HD
ENDBRANCH   6   9
TORSDOF 2
ENDMDL
MODEL 5
REMARK VINA RESULT:    -3.516      4.323      6.732
REMARK INTER + INTRA:          -3.863
REMARK INTER:                  -3.824
REMARK INTRA:                  -0.038
REMARK UNBOUND:                -0.038
REMARK  Name = 
REMARK  3 active torsions:
REMARK  status: ('A' for Active; 'I' for Inactive)
REMARK    1  A    between atoms: C_1  and  O_2
REMARK    2  A    between atoms: O_2  and  C_3
REMARK    3  A    between atoms: C_8  and  O_9
REMARK                            x       y       z     vdW  Elec       q    Type
REMARK                         _______ _______ _______ _____ _____    ______ ____
ROOT
ATOM      1  C   UNL     1      -2.392  14.434  -0.946  0.00  0.00    +0.000 A 
ATOM      2  C   UNL     1      -3.343  15.140  -0.211  0.00  0.00    +0.000 A 
ATOM      3  C   UNL     1      -2.977  16.314   0.460  0.00  0.00    +0.000 A 
ATOM      4  C   UNL     1      -1.664  16.784   0.399  0.00  0.00    +0.000 A 
ATOM      5  C   UNL     1      -0.709  16.084  -0.334  0.00  0.00    +0.000 A 
ATOM      6  C   UNL     1      -1.080  14.920  -0.996  0.00  0.00    +0.000 A 
ENDROOT
BRANCH   1   8
ATOM      7  C   UNL     1      -3.963  12.944  -1.926  0.00  0.00    +0.000 C 
ATOM      8  O   UNL     1      -2.608  13.275  -1.649  0.00  0.00    +0.000 OA
ENDBRANCH   1   8
BRANCH   6   9
ATOM      9  O   UNL     1      -0.124  14.249  -1.709  0.00  0.00    +0.000 OA
ATOM     10  H   UNL     1       0.590  14.902  -1.844  0.00  0.00    +0.000 HD
ENDBRANCH   6   9
TORSDOF 2
ENDMDL
MODEL 6
REMARK VINA RESULT:    -3.399      1.885      2.433
REMARK INTER + INTRA:          -3.735
REMARK INTER:                  -3.683
REMARK INTRA:                  -0.052
REMARK UNBOUND:                -0.038
REMARK  Name = 
REMARK  3 active torsions:
REMARK  status: ('A' for Active; 'I' for Inactive)
REMARK    1  A    between atoms: C_1  and  O_2
REMARK    2  A    between atoms: O_2  and  C_3
REMARK    3  A    between atoms: C_8  and  O_9
REMARK                            x       y       z     vdW  Elec       q    Type
REMARK                         _______ _______ _______ _____ _____    ______ ____
ROOT
ATOM      1  C   UNL     1      -5.848  12.135  -5.601  0.00  0.00    +0.000 A 
ATOM      2  C   UNL     1      -6.778  11.388  -6.321  0.00  0.00    +0.000 A 
ATOM      3  C   UNL     1      -6.348  10.336  -7.140  0.00  0.00    +0.000 A 
ATOM      4  C   UNL     1      -4.990  10.030  -7.243  0.00  0.00    +0.000 A 
ATOM      5  C   UNL     1      -4.054  10.772  -6.526  0.00  0.00    +0.000 A 
ATOM      6  C   UNL     1      -4.490  11.813  -5.717  0.00  0.00    +0.000 A 
ENDROOT
BRANCH   1   8
ATOM      7  C   UNL     1      -6.789  12.872  -3.547  0.00  0.00    +0.000 C 
ATOM      8  O   UNL     1      -6.125  13.187  -4.765  0.00  0.00    +0.000 OA
ENDBRANCH   1   8
BRANCH   6   9
ATOM      9  O   UNL     1      -3.551  12.529  -5.022  0.00  0.00    +0.000 OA
ATOM     10  H   UNL     1      -2.805  12.628  -5.643  0.00  0.00    +0.000 HD
ENDBRANCH   6   9
TORSDOF 2
ENDMDL
MODEL 7
REMARK VINA RESULT:    -3.376      2.718      3.704
REMARK INTER + INTRA:          -3.710
REMARK INTER:                  -3.671
REMARK INTRA:                  -0.039
REMARK UNBOUND:                -0.038
REMARK  Name = 
REMARK  3 active torsions:
REMARK  status: ('A' for Active; 'I' for Inactive)
REMARK    1  A    between atoms: C_1  and  O_2
REMARK    2  A    between atoms: O_2  and  C_3
REMARK    3  A    between atoms: C_8  and  O_9
REMARK                            x       y       z     vdW  Elec       q    Type
REMARK                         _______ _______ _______ _____ _____    ______ ____
ROOT
ATOM      1  C   UNL     1      -4.846  13.380  -1.882  0.00  0.00    +0.000 A 
ATOM      2  C   UNL     1      -6.045  13.412  -2.594  0.00  0.00    +0.000 A 
ATOM      3  C   UNL     1      -6.182  12.657  -3.766  0.00  0.00    +0.000 A 
ATOM      4  C   UNL     1      -5.126  11.870  -4.229  0.00  0.00    +0.000 A 
ATOM      5  C   UNL     1      -3.926  11.833  -3.523  0.00  0.00    +0.000 A 
ATOM      6  C   UNL     1      -3.798  12.585  -2.362  0.00  0.00    +0.000 A 
ENDROOT
BRANCH   1   8
ATOM      7  C   UNL     1      -5.691  14.468   0.054  0.00  0.00    +0.000 C 
ATOM      8  O   UNL     1      -4.572  14.065  -0.726  0.00  0.00    +0.000 OA
ENDBRANCH   1   8
BRANCH   6   9
ATOM      9  O   UNL     1      -2.609  12.532  -1.685  0.00  0.00    +0.000 OA
ATOM     10  H   UNL     1      -2.211  13.414  -1.813  0.00  0.00    +0.000 HD
ENDBRANCH   6   9
TORSDOF 2
ENDMDL
MODEL 8
REMARK VINA RESULT:    -3.367      1.792      2.426
REMARK INTER + INTRA:          -3.700
REMARK INTER:                  -3.711
REMARK INTRA:                   0.011
REMARK UNBOUND:                -0.038
REMARK  Name = 
REMARK  3 active torsions:
REMARK  status: ('A' for Active; 'I' for Inactive)
REMARK    1  A    between atoms: C_1  and  O_2
REMARK    2  A    between atoms: O_2  and  C_3
REMARK    3  A    between atoms: C_8  and  O_9
REMARK                            x       y       z     vdW  Elec       q    Type
REMARK                         _______ _______ _______ _____ _____    ______ ____
ROOT
ATOM      1  C   UNL     1      -4.377  12.344  -6.134  0.00  0.00    +0.000 A 
ATOM      2  C   UNL     1      -5.402  11.860  -6.946  0.00  0.00    +0.000 A 
ATOM      3  C   UNL     1      -5.815  12.595  -8.064  0.00  0.00    +0.000 A 
ATOM      4  C   UNL     1      -5.208  13.814  -8.374  0.00  0.00    +0.000 A 
ATOM      5  C   UNL     1      -4.183  14.304  -7.568  0.00  0.00    +0.000 A 
ATOM      6  C   UNL     1      -3.780  13.568  -6.461  0.00  0.00    +0.000 A 
ENDROOT
BRANCH   1   8
ATOM      7  C   UNL     1      -4.564  11.978  -3.794  0.00  0.00    +0.000 C 
ATOM      8  O   UNL     1      -3.873  11.734  -5.013  0.00  0.00    +0.000 OA
ENDBRANCH   1   8
BRANCH   6   9
ATOM      9  O   UNL     1      -2.771  14.071  -5.684  0.00  0.00    +0.000 OA
ATOM     10  H   UNL     1      -2.168  14.511  -6.313  0.00  0.00    +0.000 HD
ENDBRANCH   6   9
TORSDOF 2
ENDMDL
MODEL 9
REMARK VINA RESULT:    -2.745      1.764      2.432
REMARK INTER + INTRA:          -3.024
REMARK INTER:                  -2.971
REMARK INTRA:                  -0.053
REMARK UNBOUND:                -0.038
REMARK  Name = 
REMARK  3 active torsions:
REMARK  status: ('A' for Active; 'I' for Inactive)
REMARK    1  A    between atoms: C_1  and  O_2
REMARK    2  A    between atoms: O_2  and  C_3
REMARK    3  A    between atoms: C_8  and  O_9
REMARK                            x       y       z     vdW  Elec       q    Type
REMARK                         _______ _______ _______ _____ _____    ______ ____
ROOT
ATOM      1  C   UNL     1      -4.913  11.593  -6.924  0.00  0.00    +0.000 A 
ATOM      2  C   UNL     1      -4.716  12.873  -7.440  0.00  0.00    +0.000 A 
ATOM      3  C   UNL     1      -5.621  13.398  -8.372  0.00  0.00    +0.000 A 
ATOM      4  C   UNL     1      -6.721  12.647  -8.791  0.00  0.00    +0.000 A 
ATOM      5  C   UNL     1      -6.924  11.368  -8.280  0.00  0.00    +0.000 A 
ATOM      6  C   UNL     1      -6.022  10.855  -7.356  0.00  0.00    +0.000 A 
ENDROOT
BRANCH   1   8
ATOM      7  C   UNL     1      -4.028  11.546  -4.719  0.00  0.00    +0.000 C 
ATOM      8  O   UNL     1      -4.112  10.955  -6.011  0.00  0.00    +0.000 OA
ENDBRANCH   1   8
BRANCH   6   9
ATOM      9  O   UNL     1      -6.242   9.595  -6.868  0.00  0.00    +0.000 OA
ATOM     10  H   UNL     1      -7.135   9.359  -7.185  0.00  0.00    +0.000 HD
ENDBRANCH   6   9
TORSDOF 2
ENDMDL
