MODEL 1
REMARK VINA RESULT:    -3.814      0.000      0.000
REMARK INTER + INTRA:          -4.186
REMARK INTER:                  -4.148
REMARK INTRA:                  -0.038
REMARK UNBOUND:                -0.038
REMARK  Name = 
REMARK  3 active torsions:
REMARK  status: ('A' for Active; 'I' for Inactive)
REMARK    1  A    between atoms: C_1  and  O_2
REMARK    2  A    between atoms: O_2  and  C_3
REMARK    3  A    between atoms: C_8  and  O_9
REMARK                            x       y       z     vdW  Elec       q    Type
REMARK                         _______ _______ _______ _____ _____    ______ ____
ROOT
ATOM      1  C   UNL     1      -4.313  11.787  -4.856  0.00  0.00    +0.000 A 
ATOM      2  C   UNL     1      -5.053  12.914  -5.212  0.00  0.00    +0.000 A 
ATOM      3  C   UNL     1      -5.428  13.112  -6.547  0.00  0.00    +0.000 A 
ATOM      4  C   UNL     1      -5.064  12.188  -7.529  0.00  0.00    +0.000 A 
ATOM      5  C   UNL     1      -4.325  11.059  -7.180  0.00  0.00    +0.000 A 
ATOM      6  C   UNL     1      -3.958  10.871  -5.854  0.00  0.00    +0.000 A 
ENDROOT
BRANCH   1   8
ATOM      7  C   UNL     1      -3.954  12.499  -2.617  0.00  0.00    +0.000 C 
ATOM      8  O   UNL     1      -3.880  11.468  -3.594  0.00  0.00    +0.000 OA
ENDBRANCH   1   8
BRANCH   6   9
ATOM      9  O   UNL     1      -3.232   9.755  -5.536  0.00  0.00    +0.000 OA
ATOM     10  H   UNL     1      -3.652   9.033  -6.041  0.00  0.00    +0.000 HD
ENDBRANCH   6   9
TORSDOF 2
ENDMDL
MODEL 2
REMARK VINA RESULT:    -3.759      1.793      2.434
REMARK INTER + INTRA:          -4.127
REMARK INTER:                  -4.074
REMARK INTRA:                  -0.052
REMARK UNBOUND:                -0.038
REMARK  Name = 
REMARK  3 active torsions:
REMARK  status: ('A' for Active; 'I' for Inactive)
REMARK    1  A    between atoms: C_1  and  O_2
REMARK    2  A    between atoms: O_2  and  C_3
REMARK    3  A    between atoms: C_8  and  O_9
REMARK                            x       y       z     vdW  Elec       q    Type
REMARK                         _______ _______ _______ _____ _____    ______ ____
ROOT
ATOM      1  C   UNL     1      -4.911  11.616  -6.888  0.00  0.00    +0.000 A 
ATOM      2  C   UNL     1      -4.710  12.898  -7.399  0.00  0.00    +0.000 A 
ATOM      3  C   UNL     1      -5.598  13.420  -8.347  0.00  0.00    +0.000 A 
ATOM      4  C   UNL     1      -6.687  12.665  -8.789  0.00  0.00    +0.000 A 
ATOM      5  C   UNL     1      -6.894  11.384  -8.283  0.00  0.00    +0.000 A 
ATOM      6  C   UNL     1      -6.008  10.874  -7.342  0.00  0.00    +0.000 A 
ENDROOT
BRANCH   1   8
ATOM      7  C   UNL     1      -4.052  11.582  -4.673  0.00  0.00    +0.000 C 
ATOM      8  O   UNL     1      -4.125  10.981  -5.960  0.00  0.00    +0.000 OA
ENDBRANCH   1   8
BRANCH   6   9
ATOM      9  O   UNL     1      -6.233   9.612  -6.860  0.00  0.00    +0.000 OA
ATOM     10  H   UNL     1      -6.711   9.154  -7.577  0.00  0.00    +0.000 HD
ENDBRANCH   6   9
TORSDOF 2
ENDMDL
MODEL 3
REMARK VINA RESULT:    -3.670      2.182      3.278
REMARK INTER + INTRA:          -4.030
REMARK INTER:                  -3.977
REMARK INTRA:                  -0.053
REMARK UNBOUND:                -0.038
REMARK  Name = 
REMARK  3 active torsions:
REMARK  status: ('A' for Active; 'I' for Inactive)
REMARK    1  A    between atoms: C_1  and  O_2
REMARK    2  A    between atoms: O_2  and  C_3
REMARK    3  A    between atoms: C_8  and  O_9
REMARK                            x       y       z     vdW  Elec       q    Type
REMARK                         _______ _______ _______ _____ _____    ______ ____
ROOT
ATOM      1  C   UNL     1      -4.669  12.514  -7.056  0.00  0.00    +0.000 A 
ATOM      2  C   UNL     1      -5.383  12.675  -8.243  0.00  0.00    +0.000 A 
ATOM      3  C   UNL     1      -5.333  13.895  -8.930  0.00  0.00    +0.000 A 
ATOM      4  C   UNL     1      -4.572  14.955  -8.434  0.00  0.00    +0.000 A 
ATOM      5  C   UNL     1      -3.855  14.801  -7.250  0.00  0.00    +0.000 A 
ATOM      6  C   UNL     1      -3.911  13.588  -6.575  0.00  0.00    +0.000 A 
ENDROOT
BRANCH   1   8
ATOM      7  C   UNL     1      -4.013  10.238  -6.864  0.00  0.00    +0.000 C 
ATOM      8  O   UNL     1      -4.627  11.382  -6.282  0.00  0.00    +0.000 OA
ENDBRANCH   1   8
BRANCH   6   9
ATOM      9  O   UNL     1      -3.198  13.461  -5.413  0.00  0.00    +0.000 OA
ATOM     10  H   UNL     1      -2.361  13.935  -5.582  0.00  0.00    +0.000 HD
ENDBRANCH   6   9
TORSDOF 2
ENDMDL
MODEL 4
REMARK VINA RESULT:    -3.668      3.569      6.280
REMARK INTER + INTRA:          -4.028
REMARK INTER:                  -3.990
REMARK INTRA:                  -0.038
REMARK UNBOUND:                -0.038
REMARK  Name = 
REMARK  3 active torsions:
REMARK  status: ('A' for Active; 'I' for Inactive)
REMARK    1  A    between atoms: C_1  and  O_2
REMARK    2  A    between atoms: O_2  and  C_3
REMARK    3  A    between atoms: C_8  and  O_9
REMARK                            x       y       z     vdW  Elec       q    Type
REMARK                         _______ _______ _______ _____ _____    ______ ____
ROOT
ATOM      1  C   UNL     1      -4.767  13.906  -1.225  0.00  0.00    +0.000 A 
ATOM      2  C   UNL     1      -3.619  14.692  -1.318  0.00  0.00    +0.000 A 
ATOM      3  C   UNL     1      -3.435  15.768  -0.440  0.00  0.00    +0.000 A 
ATOM      4  C   UNL     1      -4.395  16.061   0.531  0.00  0.00    +0.000 A 
ATOM      5  C   UNL     1      -5.543  15.279   0.630  0.00  0.00    +0.000 A 
ATOM      6  C   UNL     1      -5.718  14.215  -0.245  0.00  0.00    +0.000 A 
ENDROOT
BRANCH   1   8
ATOM      7  C   UNL     1      -4.024  12.303  -2.814  0.00  0.00    +0.000 C 
ATOM      8  O   UNL     1      -5.077  12.828  -2.016  0.00  0.00    +0.000 OA
ENDBRANCH   1   8
BRANCH   6   9
ATOM      9  O   UNL     1      -6.855  13.461  -0.128  0.00  0.00    +0.000 OA
ATOM     10  H   UNL     1      -7.224  13.426  -1.032  0.00  0.00    +0.000 HD
ENDBRANCH   6   9
TORSDOF 2
ENDMDL
MODEL 5
REMARK VINA RESULT:    -3.588      1.033      2.862
REMARK INTER + INTRA:          -3.941
REMARK INTER:                  -3.892
REMARK INTRA:                  -0.049
REMARK UNBOUND:                -0.038
REMARK  Name = 
REMARK  3 active torsions:
REMARK  status: ('A' for Active; 'I' for Inactive)
REMARK    1  A    between atoms: C_1  and  O_2
REMARK    2  A    between atoms: O_2  and  C_3
REMARK    3  A    between atoms: C_8  and  O_9
REMARK                            x       y       z     vdW  Elec       q    Type
REMARK                         _______ _______ _______ _____ _____    ______ ____
ROOT
ATOM      1  C   UNL     1      -4.227  11.152  -6.436  0.00  0.00    +0.000 A 
ATOM      2  C   UNL     1      -4.852  11.890  -7.441  0.00  0.00    +0.000 A 
ATOM      3  C   UNL     1      -5.389  13.151  -7.151  0.00  0.00    +0.000 A 
ATOM      4  C   UNL     1      -5.305  13.677  -5.861  0.00  0.00    +0.000 A 
ATOM      5  C   UNL     1      -4.682  12.946  -4.852  0.00  0.00    +0.000 A 
ATOM      6  C   UNL     1      -4.152  11.697  -5.148  0.00  0.00    +0.000 A 
ENDROOT
BRANCH   1   8
ATOM      7  C   UNL     1      -4.464   8.911  -7.190  0.00  0.00    +0.000 C 
ATOM      8  O   UNL     1      -3.660   9.911  -6.575  0.00  0.00    +0.000 OA
ENDBRANCH   1   8
BRANCH   6   9
ATOM      9  O   UNL     1      -3.545  10.997  -4.140  0.00  0.00    +0.000 OA
ATOM     10  H   UNL     1      -4.255  10.828  -3.492  0.00  0.00    +0.000 HD
ENDBRANCH   6   9
TORSDOF 2
ENDMDL
MODEL 6
REMARK VINA RESULT:    -3.522      4.304      6.771
REMARK INTER + INTRA:          -3.869
REMARK INTER:                  -3.830
REMARK INTRA:                  -0.039
REMARK UNBOUND:                -0.038
REMARK  Name = 
REMARK  3 active torsions:
REMARK  status: ('A' for Active; 'I' for Inactive)
REMARK    1  A    between atoms: C_1  and  O_2
REMARK    2  A    between atoms: O_2  and  C_3
REMARK    3  A    between atoms: C_8  and  O_9
REMARK                            x       y       z     vdW  Elec       q    Type
REMARK                         _______ _______ _______ _____ _____    ______ ____
ROOT
ATOM      1  C   UNL     1      -2.341  14.467  -0.931  0.00  0.00    +0.000 A 
ATOM      2  C   UNL     1      -3.299  15.147  -0.180  0.00  0.00    +0.000 A 
ATOM      3  C   UNL     1      -2.953  16.324   0.495  0.00  0.00    +0.000 A 
ATOM      4  C   UNL     1      -1.652  16.826   0.421  0.00  0.00    +0.000 A 
ATOM      5  C   UNL     1      -0.689  16.153  -0.328  0.00  0.00    +0.000 A 
ATOM      6  C   UNL     1      -1.041  14.986  -0.993  0.00  0.00    +0.000 A 
ENDROOT
BRANCH   1   8
ATOM      7  C   UNL     1      -3.883  12.987  -1.970  0.00  0.00    +0.000 C 
ATOM      8  O   UNL     1      -2.537  13.309  -1.639  0.00  0.00    +0.000 OA
ENDBRANCH   1   8
BRANCH   6   9
ATOM      9  O   UNL     1      -0.078  14.342  -1.723  0.00  0.00    +0.000 OA
ATOM     10  H   UNL     1       0.716  14.357  -1.155  0.00  0.00    +0.000 HD
ENDBRANCH   6   9
TORSDOF 2
ENDMDL
MODEL 7
REMARK VINA RESULT:    -3.404      1.847      2.340
REMARK INTER + INTRA:          -3.741
REMARK INTER:                  -3.699
REMARK INTRA:                  -0.042
REMARK UNBOUND:                -0.038
REMARK  Name = 
REMARK  3 active torsions:
REMARK  status: ('A' for Active; 'I' for Inactive)
REMARK    1  A    between atoms: C_1  and  O_2
REMARK    2  A    between atoms: O_2  and  C_3
REMARK    3  A    between atoms: C_8  and  O_9
REMARK                            x       y       z     vdW  Elec       q    Type
REMARK                         _______ _______ _______ _____ _____    ______ ____
ROOT
ATOM      1  C   UNL     1      -4.564  12.710  -6.593  0.00  0.00    +0.000 A 
ATOM      2  C   UNL     1      -5.504  13.296  -7.440  0.00  0.00    +0.000 A 
ATOM      3  C   UNL     1      -6.452  12.496  -8.091  0.00  0.00    +0.000 A 
ATOM      4  C   UNL     1      -6.463  11.113  -7.900  0.00  0.00    +0.000 A 
ATOM      5  C   UNL     1      -5.527  10.521  -7.056  0.00  0.00    +0.000 A 
ATOM      6  C   UNL     1      -4.590  11.322  -6.414  0.00  0.00    +0.000 A 
ENDROOT
BRANCH   1   8
ATOM      7  C   UNL     1      -3.008  14.505  -6.525  0.00  0.00    +0.000 C 
ATOM      8  O   UNL     1      -3.582  13.366  -5.895  0.00  0.00    +0.000 OA
ENDBRANCH   1   8
BRANCH   6   9
ATOM      9  O   UNL     1      -3.680  10.717  -5.589  0.00  0.00    +0.000 OA
ATOM     10  H   UNL     1      -3.190  10.102  -6.168  0.00  0.00    +0.000 HD
ENDBRANCH   6   9
TORSDOF 2
ENDMDL
MODEL 8
REMARK VINA RESULT:    -3.335      3.016      4.084
REMARK INTER + INTRA:          -3.665
REMARK INTER:                  -3.626
REMARK INTRA:                  -0.039
REMARK UNBOUND:                -0.038
REMARK  Name = 
REMARK  3 active torsions:
REMARK  status: ('A' for Active; 'I' for Inactive)
REMARK    1  A    between atoms: C_1  and  O_2
REMARK    2  A    between atoms: O_2  and  C_3
REMARK    3  A    between atoms: C_8  and  O_9
REMARK                            x       y       z     vdW  Elec       q    Type
REMARK                         _______ _______ _______ _____ _____    ______ ____
ROOT
ATOM      1  C   UNL     1      -5.003  13.684  -1.546  0.00  0.00    +0.000 A 
ATOM      2  C   UNL     1      -6.213  13.684  -2.238  0.00  0.00    +0.000 A 
ATOM      3  C   UNL     1      -6.350  12.928  -3.408  0.00  0.00    +0.000 A 
ATOM      4  C   UNL     1      -5.281  12.172  -3.892  0.00  0.00    +0.000 A 
ATOM      5  C   UNL     1      -4.068  12.166  -3.206  0.00  0.00    +0.000 A 
ATOM      6  C   UNL     1      -3.941  12.920  -2.046  0.00  0.00    +0.000 A 
ENDROOT
BRANCH   1   8
ATOM      7  C   UNL     1      -5.845  14.769   0.393  0.00  0.00    +0.000 C 
ATOM      8  O   UNL     1      -4.727  14.375  -0.393  0.00  0.00    +0.000 OA
ENDBRANCH   1   8
BRANCH   6   9
ATOM      9  O   UNL     1      -2.740  12.898  -1.389  0.00  0.00    +0.000 OA
ATOM     10  H   UNL     1      -2.772  12.094  -0.838  0.00  0.00    +0.000 HD
ENDBRANCH   6   9
TORSDOF 2
ENDMDL
MODEL 9
REMARK VINA RESULT:    -3.318      9.185      9.526
REMARK INTER + INTRA:          -3.647
REMARK INTER:                  -3.609
REMARK INTRA:                  -0.038
REMARK UNBOUND:                -0.038
REMARK  Name = 
REMARK  3 active torsions:
REMARK  status: ('A' for Active; 'I' for Inactive)
REMARK    1  A    between atoms: C_1  and  O_2
REMARK    2  A    between atoms: O_2  and  C_3
REMARK    3  A    between atoms: C_8  and  O_9
REMARK                            x       y       z     vdW  Elec       q    Type
REMARK                         _______ _______ _______ _____ _____    ______ ____
ROOT
ATOM      1  C   UNL     1       2.042  19.122  -5.940  0.00  0.00    +0.000 A 
ATOM      2  C   UNL     1       2.121  19.870  -7.114  0.00  0.00    +0.000 A 
ATOM      3  C   UNL     1       1.138  19.727  -8.101  0.00  0.00    +0.000 A 
ATOM      4  C   UNL     1       0.077  18.838  -7.921  0.00  0.00    +0.000 A 
ATOM      5  C   UNL     1      -0.009  18.088  -6.750  0.00  0.00    +0.000 A 
ATOM      6  C   UNL     1       0.970  18.236  -5.776  0.00  0.00    +0.000 A 
ENDROOT
BRANCH   1   8
ATOM      7  C   UNL     1       3.958  20.138  -4.968  0.00  0.00    +0.000 C 
ATOM      8  O   UNL     1       2.929  19.159  -4.893  0.00  0.00    +0.000 OA
ENDBRANCH   1   8
BRANCH   6   9
ATOM      9  O   UNL     1       0.865  17.487  -4.634  0.00  0.00    +0.000 OA
ATOM     10  H   UNL     1       1.782  17.387  -4.317  0.00  0.00    +0.000 HD
ENDBRANCH   6   9
TORSDOF 2
ENDMDL
