MODEL 1
REMARK VINA RESULT:    -4.943      0.000      0.000
REMARK INTER + INTRA:          -5.425
REMARK INTER:                  -5.376
REMARK INTRA:                  -0.049
REMARK UNBOUND:                -0.049
REMARK  Name = 
REMARK  3 active torsions:
REMARK  status: ('A' for Active; 'I' for Inactive)
REMARK    1  A    between atoms: C_1  and  O_2
REMARK    2  A    between atoms: O_2  and  C_3
REMARK    3  A    between atoms: C_8  and  O_9
REMARK                            x       y       z     vdW  Elec       q    Type
REMARK                         _______ _______ _______ _____ _____    ______ ____
ROOT
ATOM      1  C   UNL     1      13.170   1.518   6.385  0.00  0.00    +0.000 A 
ATOM      2  C   UNL     1      13.137   1.694   7.768  0.00  0.00    +0.000 A 
ATOM      3  C   UNL     1      12.009   1.296   8.498  0.00  0.00    +0.000 A 
ATOM      4  C   UNL     1      10.913   0.723   7.850  0.00  0.00    +0.000 A 
ATOM      5  C   UNL     1      10.939   0.543   6.469  0.00  0.00    +0.000 A 
ATOM      6  C   UNL     1      12.061   0.941   5.753  0.00  0.00    +0.000 A 
ENDROOT
BRANCH   1   8
ATOM      7  C   UNL     1      14.399   3.249   5.320  0.00  0.00    +0.000 C 
ATOM      8  O   UNL     1      14.202   1.859   5.549  0.00  0.00    +0.000 OA
ENDBRANCH   1   8
BRANCH   6   9
ATOM      9  O   UNL     1      12.062   0.755   4.397  0.00  0.00    +0.000 OA
ATOM     10  H   UNL     1      12.408   1.591   4.031  0.00  0.00    +0.000 HD
ENDBRANCH   6   9
TORSDOF 2
ENDMDL
MODEL 2
REMARK VINA RESULT:    -4.853      2.223      3.390
REMARK INTER + INTRA:          -5.328
REMARK INTER:                  -5.283
REMARK INTRA:                  -0.045
REMARK UNBOUND:                -0.049
REMARK  Name = 
REMARK  3 active torsions:
REMARK  status: ('A' for Active; 'I' for Inactive)
REMARK    1  A    between atoms: C_1  and  O_2
REMARK    2  A    between atoms: O_2  and  C_3
REMARK    3  A    between atoms: C_8  and  O_9
REMARK                            x       y       z     vdW  Elec       q    Type
REMARK                         _______ _______ _______ _____ _____    ______ ____
ROOT
ATOM      1  C   UNL     1      11.597   0.911   7.846  0.00  0.00    +0.000 A 
ATOM      2  C   UNL     1      12.983   1.058   7.835  0.00  0.00    +0.000 A 
ATOM      3  C   UNL     1      13.670   1.128   6.617  0.00  0.00    +0.000 A 
ATOM      4  C   UNL     1      12.977   1.050   5.408  0.00  0.00    +0.000 A 
ATOM      5  C   UNL     1      11.592   0.904   5.410  0.00  0.00    +0.000 A 
ATOM      6  C   UNL     1      10.918   0.835   6.623  0.00  0.00    +0.000 A 
ENDROOT
BRANCH   1   8
ATOM      7  C   UNL     1      11.289   0.037  10.034  0.00  0.00    +0.000 C 
ATOM      8  O   UNL     1      10.799   0.828   8.958  0.00  0.00    +0.000 OA
ENDBRANCH   1   8
BRANCH   6   9
ATOM      9  O   UNL     1       9.557   0.691   6.600  0.00  0.00    +0.000 OA
ATOM     10  H   UNL     1       9.289   0.706   7.539  0.00  0.00    +0.000 HD
ENDBRANCH   6   9
TORSDOF 2
ENDMDL
MODEL 3
REMARK VINA RESULT:    -4.792     10.993     12.261
REMARK INTER + INTRA:          -5.261
REMARK INTER:                  -5.217
REMARK INTRA:                  -0.045
REMARK UNBOUND:                -0.049
REMARK  Name = 
REMARK  3 active torsions:
REMARK  status: ('A' for Active; 'I' for Inactive)
REMARK    1  A    between atoms: C_1  and  O_2
REMARK    2  A    between atoms: O_2  and  C_3
REMARK    3  A    between atoms: C_8  and  O_9
REMARK                            x       y       z     vdW  Elec       q    Type
REMARK                         _______ _______ _______ _____ _____    ______ ____
ROOT
ATOM      1  C   UNL     1       5.827  -7.932   9.460  0.00  0.00    +0.000 A 
ATOM      2  C   UNL     1       6.322  -9.198   9.151  0.00  0.00    +0.000 A 
ATOM      3  C   UNL     1       5.798  -9.908   8.063  0.00  0.00    +0.000 A 
ATOM      4  C   UNL     1       4.781  -9.357   7.282  0.00  0.00    +0.000 A 
ATOM      5  C   UNL     1       4.281  -8.092   7.584  0.00  0.00    +0.000 A 
ATOM      6  C   UNL     1       4.806  -7.395   8.665  0.00  0.00    +0.000 A 
ENDROOT
BRANCH   1   8
ATOM      7  C   UNL     1       7.644  -7.077  10.731  0.00  0.00    +0.000 C 
ATOM      8  O   UNL     1       6.243  -7.128  10.491  0.00  0.00    +0.000 OA
ENDBRANCH   1   8
BRANCH   6   9
ATOM      9  O   UNL     1       4.299  -6.154   8.942  0.00  0.00    +0.000 OA
ATOM     10  H   UNL     1       3.569  -6.036   8.304  0.00  0.00    +0.000 HD
ENDBRANCH   6   9
TORSDOF 2
ENDMDL
MODEL 4
REMARK VINA RESULT:    -4.703      1.346      2.858
REMARK INTER + INTRA:          -5.164
REMARK INTER:                  -5.123
REMARK INTRA:                  -0.041
REMARK UNBOUND:                -0.049
REMARK  Name = 
REMARK  3 active torsions:
REMARK  status: ('A' for Active; 'I' for Inactive)
REMARK    1  A    between atoms: C_1  and  O_2
REMARK    2  A    between atoms: O_2  and  C_3
REMARK    3  A    between atoms: C_8  and  O_9
REMARK                            x       y       z     vdW  Elec       q    Type
REMARK                         _______ _______ _______ _____ _____    ______ ____
ROOT
ATOM      1  C   UNL     1      12.052   1.677   6.134  0.00  0.00    +0.000 A 
ATOM      2  C   UNL     1      11.286   1.738   7.298  0.00  0.00    +0.000 A 
ATOM      3  C   UNL     1      11.651   2.609   8.332  0.00  0.00    +0.000 A 
ATOM      4  C   UNL     1      12.780   3.420   8.208  0.00  0.00    +0.000 A 
ATOM      5  C   UNL     1      13.551   3.366   7.048  0.00  0.00    +0.000 A 
ATOM      6  C   UNL     1      13.181   2.499   6.028  0.00  0.00    +0.000 A 
ENDROOT
BRANCH   1   8
ATOM      7  C   UNL     1      10.456   0.532   4.796  0.00  0.00    +0.000 C 
ATOM      8  O   UNL     1      11.814   0.874   5.048  0.00  0.00    +0.000 OA
ENDBRANCH   1   8
BRANCH   6   9
ATOM      9  O   UNL     1      13.954   2.463   4.898  0.00  0.00    +0.000 OA
ATOM     10  H   UNL     1      13.316   2.492   4.160  0.00  0.00    +0.000 HD
ENDBRANCH   6   9
TORSDOF 2
ENDMDL
MODEL 5
REMARK VINA RESULT:    -4.632      1.380      2.124
REMARK INTER + INTRA:          -5.087
REMARK INTER:                  -5.035
REMARK INTRA:                  -0.052
REMARK UNBOUND:                -0.049
REMARK  Name = 
REMARK  3 active torsions:
REMARK  status: ('A' for Active; 'I' for Inactive)
REMARK    1  A    between atoms: C_1  and  O_2
REMARK    2  A    between atoms: O_2  and  C_3
REMARK    3  A    between atoms: C_8  and  O_9
REMARK                            x       y       z     vdW  Elec       q    Type
REMARK                         _______ _______ _______ _____ _____    ______ ____
ROOT
ATOM      1  C   UNL     1      12.356   1.444   6.967  0.00  0.00    +0.000 A 
ATOM      2  C   UNL     1      11.206   0.944   7.575  0.00  0.00    +0.000 A 
ATOM      3  C   UNL     1      10.220   0.320   6.800  0.00  0.00    +0.000 A 
ATOM      4  C   UNL     1      10.379   0.194   5.419  0.00  0.00    +0.000 A 
ATOM      5  C   UNL     1      11.526   0.691   4.804  0.00  0.00    +0.000 A 
ATOM      6  C   UNL     1      12.498   1.309   5.580  0.00  0.00    +0.000 A 
ENDROOT
BRANCH   1   8
ATOM      7  C   UNL     1      13.125   3.362   8.140  0.00  0.00    +0.000 C 
ATOM      8  O   UNL     1      13.398   2.076   7.597  0.00  0.00    +0.000 OA
ENDBRANCH   1   8
BRANCH   6   9
ATOM      9  O   UNL     1      13.617   1.790   4.953  0.00  0.00    +0.000 OA
ATOM     10  H   UNL     1      14.269   1.066   5.019  0.00  0.00    +0.000 HD
ENDBRANCH   6   9
TORSDOF 2
ENDMDL
MODEL 6
REMARK VINA RESULT:    -4.609      2.075      2.782
REMARK INTER + INTRA:          -5.062
REMARK INTER:                  -5.029
REMARK INTRA:                  -0.034
REMARK UNBOUND:                -0.049
REMARK  Name = 
REMARK  3 active torsions:
REMARK  status: ('A' for Active; 'I' for Inactive)
REMARK    1  A    between atoms: C_1  and  O_2
REMARK    2  A    between atoms: O_2  and  C_3
REMARK    3  A    between atoms: C_8  and  O_9
REMARK                            x       y       z     vdW  Elec       q    Type
REMARK                         _______ _______ _______ _____ _____    ______ ____
ROOT
ATOM      1  C   UNL     1      12.297   1.559   7.160  0.00  0.00    +0.000 A 
ATOM      2  C   UNL     1      12.781   1.274   5.885  0.00  0.00    +0.000 A 
ATOM      3  C   UNL     1      11.940   0.687   4.931  0.00  0.00    +0.000 A 
ATOM      4  C   UNL     1      10.614   0.383   5.249  0.00  0.00    +0.000 A 
ATOM      5  C   UNL     1      10.123   0.665   6.521  0.00  0.00    +0.000 A 
ATOM      6  C   UNL     1      10.965   1.247   7.460  0.00  0.00    +0.000 A 
ENDROOT
BRANCH   1   8
ATOM      7  C   UNL     1      13.208   3.535   8.115  0.00  0.00    +0.000 C 
ATOM      8  O   UNL     1      13.004   2.129   8.188  0.00  0.00    +0.000 OA
ENDBRANCH   1   8
BRANCH   6   9
ATOM      9  O   UNL     1      10.459   1.515   8.704  0.00  0.00    +0.000 OA
ATOM     10  H   UNL     1      11.189   1.310   9.319  0.00  0.00    +0.000 HD
ENDBRANCH   6   9
TORSDOF 2
ENDMDL
MODEL 7
REMARK VINA RESULT:    -4.595      2.460      3.703
REMARK INTER + INTRA:          -5.047
REMARK INTER:                  -5.004
REMARK INTRA:                  -0.044
REMARK UNBOUND:                -0.049
REMARK  Name = 
REMARK  3 active torsions:
REMARK  status: ('A' for Active; 'I' for Inactive)
REMARK    1  A    between atoms: C_1  and  O_2
REMARK    2  A    between atoms: O_2  and  C_3
REMARK    3  A    between atoms: C_8  and  O_9
REMARK                            x       y       z     vdW  Elec       q    Type
REMARK                         _______ _______ _______ _____ _____    ______ ____
ROOT
ATOM      1  C   UNL     1      11.208   2.037   7.055  0.00  0.00    +0.000 A 
ATOM      2  C   UNL     1      12.148   2.693   6.261  0.00  0.00    +0.000 A 
ATOM      3  C   UNL     1      13.126   3.499   6.857  0.00  0.00    +0.000 A 
ATOM      4  C   UNL     1      13.168   3.653   8.244  0.00  0.00    +0.000 A 
ATOM      5  C   UNL     1      12.233   3.000   9.044  0.00  0.00    +0.000 A 
ATOM      6  C   UNL     1      11.266   2.203   8.444  0.00  0.00    +0.000 A 
ENDROOT
BRANCH   1   8
ATOM      7  C   UNL     1      10.511   0.362   5.519  0.00  0.00    +0.000 C 
ATOM      8  O   UNL     1      10.199   1.221   6.610  0.00  0.00    +0.000 OA
ENDBRANCH   1   8
BRANCH   6   9
ATOM      9  O   UNL     1      10.357   1.572   9.251  0.00  0.00    +0.000 OA
ATOM     10  H   UNL     1      10.889   0.955   9.789  0.00  0.00    +0.000 HD
ENDBRANCH   6   9
TORSDOF 2
ENDMDL
MODEL 8
REMARK VINA RESULT:    -4.572     11.411     12.107
REMARK INTER + INTRA:          -5.022
REMARK INTER:                  -4.971
REMARK INTRA:                  -0.051
REMARK UNBOUND:                -0.049
REMARK  Name = 
REMARK  3 active torsions:
REMARK  status: ('A' for Active; 'I' for Inactive)
REMARK    1  A    between atoms: C_1  and  O_2
REMARK    2  A    between atoms: O_2  and  C_3
REMARK    3  A    between atoms: C_8  and  O_9
REMARK                            x       y       z     vdW  Elec       q    Type
REMARK                         _______ _______ _______ _____ _____    ______ ____
ROOT
ATOM      1  C   UNL     1       6.495  -7.778   9.589  0.00  0.00    +0.000 A 
ATOM      2  C   UNL     1       5.209  -7.253   9.476  0.00  0.00    +0.000 A 
ATOM      3  C   UNL     1       4.293  -7.830   8.588  0.00  0.00    +0.000 A 
ATOM      4  C   UNL     1       4.659  -8.931   7.811  0.00  0.00    +0.000 A 
ATOM      5  C   UNL     1       5.942  -9.461   7.918  0.00  0.00    +0.000 A 
ATOM      6  C   UNL     1       6.844  -8.882   8.801  0.00  0.00    +0.000 A 
ENDROOT
BRANCH   1   8
ATOM      7  C   UNL     1       7.194  -7.272  11.803  0.00  0.00    +0.000 C 
ATOM      8  O   UNL     1       7.491  -7.316  10.413  0.00  0.00    +0.000 OA
ENDBRANCH   1   8
BRANCH   6   9
ATOM      9  O   UNL     1       8.100  -9.421   8.889  0.00  0.00    +0.000 OA
ATOM     10  H   UNL     1       8.046 -10.056   9.629  0.00  0.00    +0.000 HD
ENDBRANCH   6   9
TORSDOF 2
ENDMDL
MODEL 9
REMARK VINA RESULT:    -4.427      2.842      3.911
REMARK INTER + INTRA:          -4.864
REMARK INTER:                  -4.821
REMARK INTRA:                  -0.043
REMARK UNBOUND:                -0.049
REMARK  Name = 
REMARK  3 active torsions:
REMARK  status: ('A' for Active; 'I' for Inactive)
REMARK    1  A    between atoms: C_1  and  O_2
REMARK    2  A    between atoms: O_2  and  C_3
REMARK    3  A    between atoms: C_8  and  O_9
REMARK                            x       y       z     vdW  Elec       q    Type
REMARK                         _______ _______ _______ _____ _____    ______ ____
ROOT
ATOM      1  C   UNL     1      11.361   2.235   8.932  0.00  0.00    +0.000 A 
ATOM      2  C   UNL     1      12.392   3.151   9.141  0.00  0.00    +0.000 A 
ATOM      3  C   UNL     1      13.104   3.664   8.050  0.00  0.00    +0.000 A 
ATOM      4  C   UNL     1      12.790   3.265   6.749  0.00  0.00    +0.000 A 
ATOM      5  C   UNL     1      11.761   2.351   6.532  0.00  0.00    +0.000 A 
ATOM      6  C   UNL     1      11.061   1.847   7.620  0.00  0.00    +0.000 A 
ENDROOT
BRANCH   1   8
ATOM      7  C   UNL     1      10.240   2.470  11.014  0.00  0.00    +0.000 C 
ATOM      8  O   UNL     1      10.584   1.653   9.901  0.00  0.00    +0.000 OA
ENDBRANCH   1   8
BRANCH   6   9
ATOM      9  O   UNL     1      10.054   0.950   7.382  0.00  0.00    +0.000 OA
ATOM     10  H   UNL     1       9.634   0.811   8.252  0.00  0.00    +0.000 HD
ENDBRANCH   6   9
TORSDOF 2
ENDMDL
