MODEL 1
REMARK VINA RESULT:    -6.178      0.000      0.000
REMARK INTER + INTRA:          -8.843
REMARK INTER:                  -8.346
REMARK INTRA:                  -0.498
REMARK UNBOUND:                -0.498
REMARK  Name = 
REMARK  10 active torsions:
REMARK  status: ('A' for Active; 'I' for Inactive)
REMARK    1  A    between atoms: C_1  and  C_2
REMARK    2  A    between atoms: C_5  and  N_8
REMARK    3  A    between atoms: N_8  and  C_9
REMARK    4  A    between atoms: N_8  and  C_13
REMARK    5  A    between atoms: C_9  and  C_10
REMARK    6  A    between atoms: C_10  and  C_11
REMARK    7  A    between atoms: C_10  and  O_12
REMARK    8  A    between atoms: C_13  and  C_14
REMARK    9  A    between atoms: C_14  and  C_15
REMARK   10  A    between atoms: C_14  and  O_16
REMARK                            x       y       z     vdW  Elec       q    Type
REMARK                         _______ _______ _______ _____ _____    ______ ____
ROOT
ATOM      1  N   UNL     1      12.570   1.206   7.125  0.00  0.00    +0.000 N 
ENDROOT
BRANCH   1   6
ATOM      2  C   UNL     1      10.309   2.841  12.179  0.00  0.00    +0.000 C 
ATOM      3  C   UNL     1      10.873   2.421  10.857  0.00  0.00    +0.000 A 
ATOM      4  C   UNL     1      10.868   1.085  10.470  0.00  0.00    +0.000 A 
ATOM      5  C   UNL     1      11.425   0.693   9.242  0.00  0.00    +0.000 A 
ATOM      6  C   UNL     1      12.033   1.601   8.357  0.00  0.00    +0.000 A 
ATOM      7  C   UNL     1      12.018   2.943   8.780  0.00  0.00    +0.000 A 
ATOM      8  C   UNL     1      11.462   3.349  10.004  0.00  0.00    +0.000 A 
ENDBRANCH   1   6
BRANCH   1   9
ATOM      9  C   UNL     1      11.781   0.342   6.213  0.00  0.00    +0.000 C 
BRANCH   9  10
ATOM     10  C   UNL     1      10.477   1.019   5.724  0.00  0.00    +0.000 C 
ATOM     11  C   UNL     1      10.206   0.685   4.262  0.00  0.00    +0.000 C 
BRANCH  10  12
ATOM     12  O   UNL     1       9.350   0.582   6.496  0.00  0.00    +0.000 OA
ATOM     13  H   UNL     1       9.516  -0.332   6.781  0.00  0.00    +0.000 HD
ENDBRANCH  10  12
ENDBRANCH   9  10
ENDBRANCH   1   9
BRANCH   1  14
ATOM     14  C   UNL     1      14.038   1.175   6.901  0.00  0.00    +0.000 C 
BRANCH  14  15
ATOM     15  C   UNL     1      14.449   1.938   5.619  0.00  0.00    +0.000 C 
ATOM     16  C   UNL     1      14.109   3.423   5.670  0.00  0.00    +0.000 C 
BRANCH  15  17
ATOM     17  O   UNL     1      15.846   1.814   5.357  0.00  0.00    +0.000 OA
ATOM     18  H   UNL     1      16.159   2.730   5.214  0.00  0.00    +0.000 HD
ENDBRANCH  15  17
ENDBRANCH  14  15
ENDBRANCH   1  14
TORSDOF 7
ENDMDL
MODEL 2
REMARK VINA RESULT:    -5.987      1.788      2.116
REMARK INTER + INTRA:          -8.585
REMARK INTER:                  -8.054
REMARK INTRA:                  -0.531
REMARK UNBOUND:                -0.498
REMARK  Name = 
REMARK  10 active torsions:
REMARK  status: ('A' for Active; 'I' for Inactive)
REMARK    1  A    between atoms: C_1  and  C_2
REMARK    2  A    between atoms: C_5  and  N_8
REMARK    3  A    between atoms: N_8  and  C_9
REMARK    4  A    between atoms: N_8  and  C_13
REMARK    5  A    between atoms: C_9  and  C_10
REMARK    6  A    between atoms: C_10  and  C_11
REMARK    7  A    between atoms: C_10  and  O_12
REMARK    8  A    between atoms: C_13  and  C_14
REMARK    9  A    between atoms: C_14  and  C_15
REMARK   10  A    between atoms: C_14  and  O_16
REMARK                            x       y       z     vdW  Elec       q    Type
REMARK                         _______ _______ _______ _____ _____    ______ ____
ROOT
ATOM      1  N   UNL     1      12.310   1.431   6.851  0.00  0.00    +0.000 N 
ENDROOT
BRANCH   1   6
ATOM      2  C   UNL     1      12.370  -0.539  12.277  0.00  0.00    +0.000 C 
ATOM      3  C   UNL     1      12.359  -0.051  10.861  0.00  0.00    +0.000 A 
ATOM      4  C   UNL     1      13.517   0.436  10.264  0.00  0.00    +0.000 A 
ATOM      5  C   UNL     1      13.495   0.921   8.946  0.00  0.00    +0.000 A 
ATOM      6  C   UNL     1      12.322   0.965   8.171  0.00  0.00    +0.000 A 
ATOM      7  C   UNL     1      11.171   0.462   8.806  0.00  0.00    +0.000 A 
ATOM      8  C   UNL     1      11.180  -0.027  10.122  0.00  0.00    +0.000 A 
ENDBRANCH   1   6
BRANCH   1   9
ATOM      9  C   UNL     1      11.022   1.707   6.171  0.00  0.00    +0.000 C 
BRANCH   9  10
ATOM     10  C   UNL     1      10.729   0.717   5.017  0.00  0.00    +0.000 C 
ATOM     11  C   UNL     1       9.804  -0.402   5.480  0.00  0.00    +0.000 C 
BRANCH  10  12
ATOM     12  O   UNL     1      10.100   1.385   3.914  0.00  0.00    +0.000 OA
ATOM     13  H   UNL     1       9.139   1.363   4.057  0.00  0.00    +0.000 HD
ENDBRANCH  10  12
ENDBRANCH   9  10
ENDBRANCH   1   9
BRANCH   1  14
ATOM     14  C   UNL     1      13.458   1.187   5.939  0.00  0.00    +0.000 C 
BRANCH  14  15
ATOM     15  C   UNL     1      14.104   2.504   5.447  0.00  0.00    +0.000 C 
ATOM     16  C   UNL     1      13.973   3.646   6.448  0.00  0.00    +0.000 C 
BRANCH  15  17
ATOM     17  O   UNL     1      15.489   2.333   5.150  0.00  0.00    +0.000 OA
ATOM     18  H   UNL     1      15.950   2.988   5.713  0.00  0.00    +0.000 HD
ENDBRANCH  15  17
ENDBRANCH  14  15
ENDBRANCH   1  14
TORSDOF 7
ENDMDL
MODEL 3
REMARK VINA RESULT:    -5.837      1.992      3.790
REMARK INTER + INTRA:          -8.382
REMARK INTER:                  -7.750
REMARK INTRA:                  -0.632
REMARK UNBOUND:                -0.498
REMARK  Name = 
REMARK  10 active torsions:
REMARK  status: ('A' for Active; 'I' for Inactive)
REMARK    1  A    between atoms: C_1  and  C_2
REMARK    2  A    between atoms: C_5  and  N_8
REMARK    3  A    between atoms: N_8  and  C_9
REMARK    4  A    between atoms: N_8  and  C_13
REMARK    5  A    between atoms: C_9  and  C_10
REMARK    6  A    between atoms: C_10  and  C_11
REMARK    7  A    between atoms: C_10  and  O_12
REMARK    8  A    between atoms: C_13  and  C_14
REMARK    9  A    between atoms: C_14  and  C_15
REMARK   10  A    between atoms: C_14  and  O_16
REMARK                            x       y       z     vdW  Elec       q    Type
REMARK                         _______ _______ _______ _____ _____    ______ ____
ROOT
ATOM      1  N   UNL     1      12.183   1.998   7.721  0.00  0.00    +0.000 N 
ENDROOT
BRANCH   1   6
ATOM      2  C   UNL     1      12.935  -1.464  12.279  0.00  0.00    +0.000 C 
ATOM      3  C   UNL     1      12.744  -0.585  11.081  0.00  0.00    +0.000 A 
ATOM      4  C   UNL     1      13.808   0.134  10.547  0.00  0.00    +0.000 A 
ATOM      5  C   UNL     1      13.617   0.980   9.442  0.00  0.00    +0.000 A 
ATOM      6  C   UNL     1      12.362   1.168   8.835  0.00  0.00    +0.000 A 
ATOM      7  C   UNL     1      11.310   0.423   9.400  0.00  0.00    +0.000 A 
ATOM      8  C   UNL     1      11.488  -0.428  10.503  0.00  0.00    +0.000 A 
ENDBRANCH   1   6
BRANCH   1   9
ATOM      9  C   UNL     1      12.989   3.234   7.578  0.00  0.00    +0.000 C 
BRANCH   9  10
ATOM     10  C   UNL     1      13.828   3.256   6.277  0.00  0.00    +0.000 C 
ATOM     11  C   UNL     1      14.303   1.855   5.911  0.00  0.00    +0.000 C 
BRANCH  10  12
ATOM     12  O   UNL     1      13.060   3.766   5.178  0.00  0.00    +0.000 OA
ATOM     13  H   UNL     1      13.679   4.077   4.496  0.00  0.00    +0.000 HD
ENDBRANCH  10  12
ENDBRANCH   9  10
ENDBRANCH   1   9
BRANCH   1  14
ATOM     14  C   UNL     1      10.912   1.989   6.952  0.00  0.00    +0.000 C 
BRANCH  14  15
ATOM     15  C   UNL     1      10.957   1.001   5.761  0.00  0.00    +0.000 C 
ATOM     16  C   UNL     1       9.848  -0.043   5.806  0.00  0.00    +0.000 C 
BRANCH  15  17
ATOM     17  O   UNL     1      10.873   1.681   4.509  0.00  0.00    +0.000 OA
ATOM     18  H   UNL     1      10.364   2.495   4.697  0.00  0.00    +0.000 HD
ENDBRANCH  15  17
ENDBRANCH  14  15
ENDBRANCH   1  14
TORSDOF 7
ENDMDL
MODEL 4
REMARK VINA RESULT:    -5.707      2.825      5.580
REMARK INTER + INTRA:          -8.207
REMARK INTER:                  -7.483
REMARK INTRA:                  -0.724
REMARK UNBOUND:                -0.498
REMARK  Name = 
REMARK  10 active torsions:
REMARK  status: ('A' for Active; 'I' for Inactive)
REMARK    1  A    between atoms: C_1  and  C_2
REMARK    2  A    between atoms: C_5  and  N_8
REMARK    3  A    between atoms: N_8  and  C_9
REMARK    4  A    between atoms: N_8  and  C_13
REMARK    5  A    between atoms: C_9  and  C_10
REMARK    6  A    between atoms: C_10  and  C_11
REMARK    7  A    between atoms: C_10  and  O_12
REMARK    8  A    between atoms: C_13  and  C_14
REMARK    9  A    between atoms: C_14  and  C_15
REMARK   10  A    between atoms: C_14  and  O_16
REMARK                            x       y       z     vdW  Elec       q    Type
REMARK                         _______ _______ _______ _____ _____    ______ ____
ROOT
ATOM      1  N   UNL     1      12.400   1.494  10.322  0.00  0.00    +0.000 N 
ENDROOT
BRANCH   1   6
ATOM      2  C   UNL     1      14.342   3.321   5.202  0.00  0.00    +0.000 C 
ATOM      3  C   UNL     1      13.815   2.845   6.521  0.00  0.00    +0.000 A 
ATOM      4  C   UNL     1      13.358   3.747   7.476  0.00  0.00    +0.000 A 
ATOM      5  C   UNL     1      12.893   3.296   8.722  0.00  0.00    +0.000 A 
ATOM      6  C   UNL     1      12.883   1.937   9.085  0.00  0.00    +0.000 A 
ATOM      7  C   UNL     1      13.350   1.054   8.094  0.00  0.00    +0.000 A 
ATOM      8  C   UNL     1      13.816   1.491   6.843  0.00  0.00    +0.000 A 
ENDBRANCH   1   6
BRANCH   1   9
ATOM      9  C   UNL     1      12.081   2.472  11.390  0.00  0.00    +0.000 C 
BRANCH   9  10
ATOM     10  C   UNL     1      10.558   2.649  11.606  0.00  0.00    +0.000 C 
ATOM     11  C   UNL     1      10.215   4.104  11.900  0.00  0.00    +0.000 C 
BRANCH  10  12
ATOM     12  O   UNL     1       9.822   2.244  10.443  0.00  0.00    +0.000 OA
ATOM     13  H   UNL     1       8.903   2.541  10.550  0.00  0.00    +0.000 HD
ENDBRANCH  10  12
ENDBRANCH   9  10
ENDBRANCH   1   9
BRANCH   1  14
ATOM     14  C   UNL     1      12.662   0.112  10.799  0.00  0.00    +0.000 C 
BRANCH  14  15
ATOM     15  C   UNL     1      11.437  -0.815  10.609  0.00  0.00    +0.000 C 
ATOM     16  C   UNL     1      10.607  -0.978  11.877  0.00  0.00    +0.000 C 
BRANCH  15  17
ATOM     17  O   UNL     1      10.576  -0.344   9.574  0.00  0.00    +0.000 OA
ATOM     18  H   UNL     1       9.928  -1.065   9.438  0.00  0.00    +0.000 HD
ENDBRANCH  15  17
ENDBRANCH  14  15
ENDBRANCH   1  14
TORSDOF 7
ENDMDL
MODEL 5
REMARK VINA RESULT:    -5.707      2.833      5.479
REMARK INTER + INTRA:          -8.207
REMARK INTER:                  -7.477
REMARK INTRA:                  -0.729
REMARK UNBOUND:                -0.498
REMARK  Name = 
REMARK  10 active torsions:
REMARK  status: ('A' for Active; 'I' for Inactive)
REMARK    1  A    between atoms: C_1  and  C_2
REMARK    2  A    between atoms: C_5  and  N_8
REMARK    3  A    between atoms: N_8  and  C_9
REMARK    4  A    between atoms: N_8  and  C_13
REMARK    5  A    between atoms: C_9  and  C_10
REMARK    6  A    between atoms: C_10  and  C_11
REMARK    7  A    between atoms: C_10  and  O_12
REMARK    8  A    between atoms: C_13  and  C_14
REMARK    9  A    between atoms: C_14  and  C_15
REMARK   10  A    between atoms: C_14  and  O_16
REMARK                            x       y       z     vdW  Elec       q    Type
REMARK                         _______ _______ _______ _____ _____    ______ ____
ROOT
ATOM      1  N   UNL     1      12.362   1.498  10.346  0.00  0.00    +0.000 N 
ENDROOT
BRANCH   1   6
ATOM      2  C   UNL     1      14.284   3.341   5.224  0.00  0.00    +0.000 C 
ATOM      3  C   UNL     1      13.808   2.865   6.563  0.00  0.00    +0.000 A 
ATOM      4  C   UNL     1      13.779   1.509   6.869  0.00  0.00    +0.000 A 
ATOM      5  C   UNL     1      13.304   1.066   8.115  0.00  0.00    +0.000 A 
ATOM      6  C   UNL     1      12.816   1.945   9.099  0.00  0.00    +0.000 A 
ATOM      7  C   UNL     1      12.863   3.308   8.756  0.00  0.00    +0.000 A 
ATOM      8  C   UNL     1      13.337   3.764   7.515  0.00  0.00    +0.000 A 
ENDBRANCH   1   6
BRANCH   1   9
ATOM      9  C   UNL     1      12.033   2.475  11.412  0.00  0.00    +0.000 C 
BRANCH   9  10
ATOM     10  C   UNL     1      10.508   2.649  11.617  0.00  0.00    +0.000 C 
ATOM     11  C   UNL     1      10.157   4.108  11.884  0.00  0.00    +0.000 C 
BRANCH  10  12
ATOM     12  O   UNL     1       9.781   2.222  10.457  0.00  0.00    +0.000 OA
ATOM     13  H   UNL     1       9.730   2.970   9.840  0.00  0.00    +0.000 HD
ENDBRANCH  10  12
ENDBRANCH   9  10
ENDBRANCH   1   9
BRANCH   1  14
ATOM     14  C   UNL     1      12.667   0.127  10.830  0.00  0.00    +0.000 C 
BRANCH  14  15
ATOM     15  C   UNL     1      11.459  -0.829  10.676  0.00  0.00    +0.000 C 
ATOM     16  C   UNL     1      10.631  -0.958  11.949  0.00  0.00    +0.000 C 
BRANCH  15  17
ATOM     17  O   UNL     1      10.590  -0.415   9.624  0.00  0.00    +0.000 OA
ATOM     18  H   UNL     1       9.817  -0.020  10.075  0.00  0.00    +0.000 HD
ENDBRANCH  15  17
ENDBRANCH  14  15
ENDBRANCH   1  14
TORSDOF 7
ENDMDL
MODEL 6
REMARK VINA RESULT:    -5.705      2.617      5.147
REMARK INTER + INTRA:          -8.203
REMARK INTER:                  -7.710
REMARK INTRA:                  -0.494
REMARK UNBOUND:                -0.498
REMARK  Name = 
REMARK  10 active torsions:
REMARK  status: ('A' for Active; 'I' for Inactive)
REMARK    1  A    between atoms: C_1  and  C_2
REMARK    2  A    between atoms: C_5  and  N_8
REMARK    3  A    between atoms: N_8  and  C_9
REMARK    4  A    between atoms: N_8  and  C_13
REMARK    5  A    between atoms: C_9  and  C_10
REMARK    6  A    between atoms: C_10  and  C_11
REMARK    7  A    between atoms: C_10  and  O_12
REMARK    8  A    between atoms: C_13  and  C_14
REMARK    9  A    between atoms: C_14  and  C_15
REMARK   10  A    between atoms: C_14  and  O_16
REMARK                            x       y       z     vdW  Elec       q    Type
REMARK                         _______ _______ _______ _____ _____    ______ ____
ROOT
ATOM      1  N   UNL     1      12.130   2.598   9.579  0.00  0.00    +0.000 N 
ENDROOT
BRANCH   1   6
ATOM      2  C   UNL     1      10.561   0.408   4.473  0.00  0.00    +0.000 C 
ATOM      3  C   UNL     1      10.989   0.963   5.797  0.00  0.00    +0.000 A 
ATOM      4  C   UNL     1      10.584   0.365   6.986  0.00  0.00    +0.000 A 
ATOM      5  C   UNL     1      10.964   0.907   8.225  0.00  0.00    +0.000 A 
ATOM      6  C   UNL     1      11.739   2.075   8.340  0.00  0.00    +0.000 A 
ATOM      7  C   UNL     1      12.131   2.651   7.118  0.00  0.00    +0.000 A 
ATOM      8  C   UNL     1      11.761   2.119   5.872  0.00  0.00    +0.000 A 
ENDBRANCH   1   6
BRANCH   1   9
ATOM      9  C   UNL     1      11.325   3.664  10.223  0.00  0.00    +0.000 C 
BRANCH   9  10
ATOM     10  C   UNL     1      10.561   3.166  11.474  0.00  0.00    +0.000 C 
ATOM     11  C   UNL     1      10.009   4.337  12.278  0.00  0.00    +0.000 C 
BRANCH  10  12
ATOM     12  O   UNL     1       9.461   2.323  11.104  0.00  0.00    +0.000 OA
ATOM     13  H   UNL     1       8.868   2.837  10.531  0.00  0.00    +0.000 HD
ENDBRANCH  10  12
ENDBRANCH   9  10
ENDBRANCH   1   9
BRANCH   1  14
ATOM     14  C   UNL     1      13.541   2.519  10.036  0.00  0.00    +0.000 C 
BRANCH  14  15
ATOM     15  C   UNL     1      13.760   1.378  11.059  0.00  0.00    +0.000 C 
ATOM     16  C   UNL     1      13.918   0.010  10.406  0.00  0.00    +0.000 C 
BRANCH  15  17
ATOM     17  O   UNL     1      14.908   1.614  11.873  0.00  0.00    +0.000 OA
ATOM     18  H   UNL     1      15.610   1.049  11.490  0.00  0.00    +0.000 HD
ENDBRANCH  15  17
ENDBRANCH  14  15
ENDBRANCH   1  14
TORSDOF 7
ENDMDL
MODEL 7
REMARK VINA RESULT:    -5.636      2.456      5.760
REMARK INTER + INTRA:          -8.111
REMARK INTER:                  -7.658
REMARK INTRA:                  -0.452
REMARK UNBOUND:                -0.498
REMARK  Name = 
REMARK  10 active torsions:
REMARK  status: ('A' for Active; 'I' for Inactive)
REMARK    1  A    between atoms: C_1  and  C_2
REMARK    2  A    between atoms: C_5  and  N_8
REMARK    3  A    between atoms: N_8  and  C_9
REMARK    4  A    between atoms: N_8  and  C_13
REMARK    5  A    between atoms: C_9  and  C_10
REMARK    6  A    between atoms: C_10  and  C_11
REMARK    7  A    between atoms: C_10  and  O_12
REMARK    8  A    between atoms: C_13  and  C_14
REMARK    9  A    between atoms: C_14  and  C_15
REMARK   10  A    between atoms: C_14  and  O_16
REMARK                            x       y       z     vdW  Elec       q    Type
REMARK                         _______ _______ _______ _____ _____    ______ ____
ROOT
ATOM      1  N   UNL     1      12.351   1.694   9.405  0.00  0.00    +0.000 N 
ENDROOT
BRANCH   1   6
ATOM      2  C   UNL     1      10.567   0.430   4.062  0.00  0.00    +0.000 C 
ATOM      3  C   UNL     1      11.036   0.734   5.452  0.00  0.00    +0.000 A 
ATOM      4  C   UNL     1      10.154   0.701   6.527  0.00  0.00    +0.000 A 
ATOM      5  C   UNL     1      10.593   1.016   7.823  0.00  0.00    +0.000 A 
ATOM      6  C   UNL     1      11.916   1.400   8.107  0.00  0.00    +0.000 A 
ATOM      7  C   UNL     1      12.780   1.421   6.996  0.00  0.00    +0.000 A 
ATOM      8  C   UNL     1      12.355   1.105   5.695  0.00  0.00    +0.000 A 
ENDBRANCH   1   6
BRANCH   1   9
ATOM      9  C   UNL     1      12.824   0.607  10.295  0.00  0.00    +0.000 C 
BRANCH   9  10
ATOM     10  C   UNL     1      14.319   0.748  10.673  0.00  0.00    +0.000 C 
ATOM     11  C   UNL     1      14.477   1.085  12.151  0.00  0.00    +0.000 C 
BRANCH  10  12
ATOM     12  O   UNL     1      15.032  -0.469  10.416  0.00  0.00    +0.000 OA
ATOM     13  H   UNL     1      14.471  -1.212  10.692  0.00  0.00    +0.000 HD
ENDBRANCH  10  12
ENDBRANCH   9  10
ENDBRANCH   1   9
BRANCH   1  14
ATOM     14  C   UNL     1      11.902   2.924  10.106  0.00  0.00    +0.000 C 
BRANCH  14  15
ATOM     15  C   UNL     1      10.943   2.610  11.280  0.00  0.00    +0.000 C 
ATOM     16  C   UNL     1      10.742   3.791  12.222  0.00  0.00    +0.000 C 
BRANCH  15  17
ATOM     17  O   UNL     1       9.661   2.191  10.816  0.00  0.00    +0.000 OA
ATOM     18  H   UNL     1       9.304   1.629  11.534  0.00  0.00    +0.000 HD
ENDBRANCH  15  17
ENDBRANCH  14  15
ENDBRANCH   1  14
TORSDOF 7
ENDMDL
MODEL 8
REMARK VINA RESULT:    -5.601      2.517      5.831
REMARK INTER + INTRA:          -8.063
REMARK INTER:                  -7.602
REMARK INTRA:                  -0.461
REMARK UNBOUND:                -0.498
REMARK  Name = 
REMARK  10 active torsions:
REMARK  status: ('A' for Active; 'I' for Inactive)
REMARK    1  A    between atoms: C_1  and  C_2
REMARK    2  A    between atoms: C_5  and  N_8
REMARK    3  A    between atoms: N_8  and  C_9
REMARK    4  A    between atoms: N_8  and  C_13
REMARK    5  A    between atoms: C_9  and  C_10
REMARK    6  A    between atoms: C_10  and  C_11
REMARK    7  A    between atoms: C_10  and  O_12
REMARK    8  A    between atoms: C_13  and  C_14
REMARK    9  A    between atoms: C_14  and  C_15
REMARK   10  A    between atoms: C_14  and  O_16
REMARK                            x       y       z     vdW  Elec       q    Type
REMARK                         _______ _______ _______ _____ _____    ______ ____
ROOT
ATOM      1  N   UNL     1      12.186   2.211   9.741  0.00  0.00    +0.000 N 
ENDROOT
BRANCH   1   6
ATOM      2  C   UNL     1      10.713   0.484   4.432  0.00  0.00    +0.000 C 
ATOM      3  C   UNL     1      11.077   0.949   5.809  0.00  0.00    +0.000 A 
ATOM      4  C   UNL     1      12.025   1.949   5.999  0.00  0.00    +0.000 A 
ATOM      5  C   UNL     1      12.384   2.360   7.293  0.00  0.00    +0.000 A 
ATOM      6  C   UNL     1      11.838   1.783   8.453  0.00  0.00    +0.000 A 
ATOM      7  C   UNL     1      10.881   0.777   8.224  0.00  0.00    +0.000 A 
ATOM      8  C   UNL     1      10.511   0.358   6.936  0.00  0.00    +0.000 A 
ENDBRANCH   1   6
BRANCH   1   9
ATOM      9  C   UNL     1      12.705   1.239  10.732  0.00  0.00    +0.000 C 
BRANCH   9  10
ATOM     10  C   UNL     1      14.238   1.040  10.632  0.00  0.00    +0.000 C 
ATOM     11  C   UNL     1      14.854   0.851  12.013  0.00  0.00    +0.000 C 
BRANCH  10  12
ATOM     12  O   UNL     1      14.557  -0.113   9.842  0.00  0.00    +0.000 OA
ATOM     13  H   UNL     1      13.817  -0.740   9.911  0.00  0.00    +0.000 HD
ENDBRANCH  10  12
ENDBRANCH   9  10
ENDBRANCH   1   9
BRANCH   1  14
ATOM     14  C   UNL     1      11.603   3.447  10.324  0.00  0.00    +0.000 C 
BRANCH  14  15
ATOM     15  C   UNL     1      10.640   3.142  11.496  0.00  0.00    +0.000 C 
ATOM     16  C   UNL     1      10.234   4.386  12.278  0.00  0.00    +0.000 C 
BRANCH  15  17
ATOM     17  O   UNL     1       9.451   2.494  11.047  0.00  0.00    +0.000 OA
ATOM     18  H   UNL     1       9.238   2.922  10.193  0.00  0.00    +0.000 HD
ENDBRANCH  15  17
ENDBRANCH  14  15
ENDBRANCH   1  14
TORSDOF 7
ENDMDL
MODEL 9
REMARK VINA RESULT:    -3.730      1.705      3.699
REMARK INTER + INTRA:          -5.536
REMARK INTER:                  -5.356
REMARK INTRA:                  -0.180
REMARK UNBOUND:                -0.498
REMARK  Name = 
REMARK  10 active torsions:
REMARK  status: ('A' for Active; 'I' for Inactive)
REMARK    1  A    between atoms: C_1  and  C_2
REMARK    2  A    between atoms: C_5  and  N_8
REMARK    3  A    between atoms: N_8  and  C_9
REMARK    4  A    between atoms: N_8  and  C_13
REMARK    5  A    between atoms: C_9  and  C_10
REMARK    6  A    between atoms: C_10  and  C_11
REMARK    7  A    between atoms: C_10  and  O_12
REMARK    8  A    between atoms: C_13  and  C_14
REMARK    9  A    between atoms: C_14  and  C_15
REMARK   10  A    between atoms: C_14  and  O_16
REMARK                            x       y       z     vdW  Elec       q    Type
REMARK                         _______ _______ _______ _____ _____    ______ ____
ROOT
ATOM      1  N   UNL     1      12.177   2.323   6.667  0.00  0.00    +0.000 N 
ENDROOT
BRANCH   1   6
ATOM      2  C   UNL     1      13.360   1.668  12.279  0.00  0.00    +0.000 C 
ATOM      3  C   UNL     1      13.074   1.852  10.820  0.00  0.00    +0.000 A 
ATOM      4  C   UNL     1      12.300   2.917  10.372  0.00  0.00    +0.000 A 
ATOM      5  C   UNL     1      12.010   3.067   9.006  0.00  0.00    +0.000 A 
ATOM      6  C   UNL     1      12.454   2.157   8.029  0.00  0.00    +0.000 A 
ATOM      7  C   UNL     1      13.235   1.094   8.518  0.00  0.00    +0.000 A 
ATOM      8  C   UNL     1      13.534   0.933   9.881  0.00  0.00    +0.000 A 
ENDBRANCH   1   6
BRANCH   1   9
ATOM      9  C   UNL     1      12.830   3.414   5.903  0.00  0.00    +0.000 C 
BRANCH   9  10
ATOM     10  C   UNL     1      14.318   3.121   5.592  0.00  0.00    +0.000 C 
ATOM     11  C   UNL     1      14.578   1.621   5.536  0.00  0.00    +0.000 C 
BRANCH  10  12
ATOM     12  O   UNL     1      14.701   3.687   4.331  0.00  0.00    +0.000 OA
ATOM     13  H   UNL     1      14.359   4.595   4.291  0.00  0.00    +0.000 HD
ENDBRANCH  10  12
ENDBRANCH   9  10
ENDBRANCH   1   9
BRANCH   1  14
ATOM     14  C   UNL     1      10.917   1.811   6.069  0.00  0.00    +0.000 C 
BRANCH  14  15
ATOM     15  C   UNL     1      11.081   0.384   5.494  0.00  0.00    +0.000 C 
ATOM     16  C   UNL     1       9.789  -0.424   5.516  0.00  0.00    +0.000 C 
BRANCH  15  17
ATOM     17  O   UNL     1      11.564   0.409   4.151  0.00  0.00    +0.000 OA
ATOM     18  H   UNL     1      11.481  -0.514   3.836  0.00  0.00    +0.000 HD
ENDBRANCH  15  17
ENDBRANCH  14  15
ENDBRANCH   1  14
TORSDOF 7
ENDMDL
