MODEL 1
REMARK VINA RESULT:    -5.454      0.000      0.000
REMARK INTER + INTRA:          -7.746
REMARK INTER:                  -7.368
REMARK INTRA:                  -0.379
REMARK UNBOUND:                -0.379
REMARK  Name = 
REMARK  10 active torsions:
REMARK  status: ('A' for Active; 'I' for Inactive)
REMARK    1  A    between atoms: C_1  and  C_2
REMARK    2  A    between atoms: C_5  and  N_8
REMARK    3  A    between atoms: N_8  and  C_9
REMARK    4  A    between atoms: N_8  and  C_13
REMARK    5  A    between atoms: C_9  and  C_10
REMARK    6  A    between atoms: C_10  and  C_11
REMARK    7  A    between atoms: C_10  and  O_12
REMARK    8  A    between atoms: C_13  and  C_14
REMARK    9  A    between atoms: C_14  and  C_15
REMARK   10  A    between atoms: C_14  and  O_16
REMARK                            x       y       z     vdW  Elec       q    Type
REMARK                         _______ _______ _______ _____ _____    ______ ____
ROOT
ATOM      1  N   UNL     1      -4.887  12.170  -6.467  0.00  0.00    +0.000 N 
ENDROOT
BRANCH   1   6
ATOM      2  C   UNL     1      -3.970  17.049  -9.414  0.00  0.00    +0.000 C 
ATOM      3  C   UNL     1      -4.189  15.772  -8.661  0.00  0.00    +0.000 A 
ATOM      4  C   UNL     1      -5.099  14.823  -9.115  0.00  0.00    +0.000 A 
ATOM      5  C   UNL     1      -5.322  13.641  -8.390  0.00  0.00    +0.000 A 
ATOM      6  C   UNL     1      -4.673  13.360  -7.175  0.00  0.00    +0.000 A 
ATOM      7  C   UNL     1      -3.759  14.340  -6.747  0.00  0.00    +0.000 A 
ATOM      8  C   UNL     1      -3.525  15.525  -7.464  0.00  0.00    +0.000 A 
ENDBRANCH   1   6
BRANCH   1   9
ATOM      9  C   UNL     1      -5.126  10.903  -7.198  0.00  0.00    +0.000 C 
BRANCH   9  10
ATOM     10  C   UNL     1      -4.287   9.724  -6.646  0.00  0.00    +0.000 C 
ATOM     11  C   UNL     1      -4.539   8.453  -7.448  0.00  0.00    +0.000 C 
BRANCH  10  12
ATOM     12  O   UNL     1      -2.885  10.017  -6.707  0.00  0.00    +0.000 OA
ATOM     13  H   UNL     1      -2.553  10.094  -5.797  0.00  0.00    +0.000 HD
ENDBRANCH  10  12
ENDBRANCH   9  10
ENDBRANCH   1   9
BRANCH   1  14
ATOM     14  C   UNL     1      -5.384  12.187  -5.067  0.00  0.00    +0.000 C 
BRANCH  14  15
ATOM     15  C   UNL     1      -4.234  12.313  -4.040  0.00  0.00    +0.000 C 
ATOM     16  C   UNL     1      -4.699  12.813  -2.677  0.00  0.00    +0.000 C 
BRANCH  15  17
ATOM     17  O   UNL     1      -3.560  11.070  -3.848  0.00  0.00    +0.000 OA
ATOM     18  H   UNL     1      -3.639  10.885  -2.890  0.00  0.00    +0.000 HD
ENDBRANCH  15  17
ENDBRANCH  14  15
ENDBRANCH   1  14
TORSDOF 7
ENDMDL
MODEL 2
REMARK VINA RESULT:    -5.439      1.256      1.855
REMARK INTER + INTRA:          -7.725
REMARK INTER:                  -7.211
REMARK INTRA:                  -0.514
REMARK UNBOUND:                -0.379
REMARK  Name = 
REMARK  10 active torsions:
REMARK  status: ('A' for Active; 'I' for Inactive)
REMARK    1  A    between atoms: C_1  and  C_2
REMARK    2  A    between atoms: C_5  and  N_8
REMARK    3  A    between atoms: N_8  and  C_9
REMARK    4  A    between atoms: N_8  and  C_13
REMARK    5  A    between atoms: C_9  and  C_10
REMARK    6  A    between atoms: C_10  and  C_11
REMARK    7  A    between atoms: C_10  and  O_12
REMARK    8  A    between atoms: C_13  and  C_14
REMARK    9  A    between atoms: C_14  and  C_15
REMARK   10  A    between atoms: C_14  and  O_16
REMARK                            x       y       z     vdW  Elec       q    Type
REMARK                         _______ _______ _______ _____ _____    ______ ____
ROOT
ATOM      1  N   UNL     1      -4.351  12.514  -6.278  0.00  0.00    +0.000 N 
ENDROOT
BRANCH   1   6
ATOM      2  C   UNL     1      -3.332  17.580  -8.851  0.00  0.00    +0.000 C 
ATOM      3  C   UNL     1      -3.614  16.277  -8.169  0.00  0.00    +0.000 A 
ATOM      4  C   UNL     1      -2.872  15.874  -7.063  0.00  0.00    +0.000 A 
ATOM      5  C   UNL     1      -3.120  14.638  -6.446  0.00  0.00    +0.000 A 
ATOM      6  C   UNL     1      -4.096  13.737  -6.911  0.00  0.00    +0.000 A 
ATOM      7  C   UNL     1      -4.828  14.178  -8.029  0.00  0.00    +0.000 A 
ATOM      8  C   UNL     1      -4.591  15.413  -8.654  0.00  0.00    +0.000 A 
ENDBRANCH   1   6
BRANCH   1   9
ATOM      9  C   UNL     1      -4.530  11.283  -7.086  0.00  0.00    +0.000 C 
BRANCH   9  10
ATOM     10  C   UNL     1      -5.917  10.627  -6.881  0.00  0.00    +0.000 C 
ATOM     11  C   UNL     1      -6.903  11.092  -7.947  0.00  0.00    +0.000 C 
BRANCH  10  12
ATOM     12  O   UNL     1      -5.827   9.197  -6.953  0.00  0.00    +0.000 OA
ATOM     13  H   UNL     1      -5.159   8.905  -6.310  0.00  0.00    +0.000 HD
ENDBRANCH  10  12
ENDBRANCH   9  10
ENDBRANCH   1   9
BRANCH   1  14
ATOM     14  C   UNL     1      -4.947  12.461  -4.919  0.00  0.00    +0.000 C 
BRANCH  14  15
ATOM     15  C   UNL     1      -3.878  12.241  -3.821  0.00  0.00    +0.000 C 
ATOM     16  C   UNL     1      -4.340  12.684  -2.438  0.00  0.00    +0.000 C 
BRANCH  15  17
ATOM     17  O   UNL     1      -3.482  10.873  -3.737  0.00  0.00    +0.000 OA
ATOM     18  H   UNL     1      -4.158  10.382  -4.245  0.00  0.00    +0.000 HD
ENDBRANCH  15  17
ENDBRANCH  14  15
ENDBRANCH   1  14
TORSDOF 7
ENDMDL
MODEL 3
REMARK VINA RESULT:    -5.411      1.029      3.159
REMARK INTER + INTRA:          -7.688
REMARK INTER:                  -7.556
REMARK INTRA:                  -0.132
REMARK UNBOUND:                -0.379
REMARK  Name = 
REMARK  10 active torsions:
REMARK  status: ('A' for Active; 'I' for Inactive)
REMARK    1  A    between atoms: C_1  and  C_2
REMARK    2  A    between atoms: C_5  and  N_8
REMARK    3  A    between atoms: N_8  and  C_9
REMARK    4  A    between atoms: N_8  and  C_13
REMARK    5  A    between atoms: C_9  and  C_10
REMARK    6  A    between atoms: C_10  and  C_11
REMARK    7  A    between atoms: C_10  and  O_12
REMARK    8  A    between atoms: C_13  and  C_14
REMARK    9  A    between atoms: C_14  and  C_15
REMARK   10  A    between atoms: C_14  and  O_16
REMARK                            x       y       z     vdW  Elec       q    Type
REMARK                         _______ _______ _______ _____ _____    ______ ____
ROOT
ATOM      1  N   UNL     1      -4.751  11.831  -6.287  0.00  0.00    +0.000 N 
ENDROOT
BRANCH   1   6
ATOM      2  C   UNL     1      -4.505  16.535  -9.625  0.00  0.00    +0.000 C 
ATOM      3  C   UNL     1      -4.549  15.305  -8.771  0.00  0.00    +0.000 A 
ATOM      4  C   UNL     1      -5.325  14.210  -9.135  0.00  0.00    +0.000 A 
ATOM      5  C   UNL     1      -5.386  13.071  -8.315  0.00  0.00    +0.000 A 
ATOM      6  C   UNL     1      -4.701  12.977  -7.090  0.00  0.00    +0.000 A 
ATOM      7  C   UNL     1      -3.924  14.101  -6.755  0.00  0.00    +0.000 A 
ATOM      8  C   UNL     1      -3.853  15.246  -7.567  0.00  0.00    +0.000 A 
ENDBRANCH   1   6
BRANCH   1   9
ATOM      9  C   UNL     1      -5.131  11.940  -4.858  0.00  0.00    +0.000 C 
BRANCH   9  10
ATOM     10  C   UNL     1      -3.905  11.969  -3.912  0.00  0.00    +0.000 C 
ATOM     11  C   UNL     1      -4.218  12.748  -2.640  0.00  0.00    +0.000 C 
BRANCH  10  12
ATOM     12  O   UNL     1      -3.514  10.642  -3.535  0.00  0.00    +0.000 OA
ATOM     13  H   UNL     1      -4.319  10.136  -3.333  0.00  0.00    +0.000 HD
ENDBRANCH  10  12
ENDBRANCH   9  10
ENDBRANCH   1   9
BRANCH   1  14
ATOM     14  C   UNL     1      -3.973  10.614  -6.635  0.00  0.00    +0.000 C 
BRANCH  14  15
ATOM     15  C   UNL     1      -4.846   9.541  -7.331  0.00  0.00    +0.000 C 
ATOM     16  C   UNL     1      -4.406   8.116  -7.020  0.00  0.00    +0.000 C 
BRANCH  15  17
ATOM     17  O   UNL     1      -6.221   9.667  -6.972  0.00  0.00    +0.000 OA
ATOM     18  H   UNL     1      -6.484   8.778  -6.661  0.00  0.00    +0.000 HD
ENDBRANCH  15  17
ENDBRANCH  14  15
ENDBRANCH   1  14
TORSDOF 7
ENDMDL
MODEL 4
REMARK VINA RESULT:    -4.993      1.499      3.433
REMARK INTER + INTRA:          -7.123
REMARK INTER:                  -6.748
REMARK INTRA:                  -0.375
REMARK UNBOUND:                -0.379
REMARK  Name = 
REMARK  10 active torsions:
REMARK  status: ('A' for Active; 'I' for Inactive)
REMARK    1  A    between atoms: C_1  and  C_2
REMARK    2  A    between atoms: C_5  and  N_8
REMARK    3  A    between atoms: N_8  and  C_9
REMARK    4  A    between atoms: N_8  and  C_13
REMARK    5  A    between atoms: C_9  and  C_10
REMARK    6  A    between atoms: C_10  and  C_11
REMARK    7  A    between atoms: C_10  and  O_12
REMARK    8  A    between atoms: C_13  and  C_14
REMARK    9  A    between atoms: C_14  and  C_15
REMARK   10  A    between atoms: C_14  and  O_16
REMARK                            x       y       z     vdW  Elec       q    Type
REMARK                         _______ _______ _______ _____ _____    ______ ____
ROOT
ATOM      1  N   UNL     1      -4.569  12.762  -6.436  0.00  0.00    +0.000 N 
ENDROOT
BRANCH   1   6
ATOM      2  C   UNL     1      -3.728  17.602  -9.468  0.00  0.00    +0.000 C 
ATOM      3  C   UNL     1      -3.966  16.357  -8.670  0.00  0.00    +0.000 A 
ATOM      4  C   UNL     1      -3.306  16.145  -7.463  0.00  0.00    +0.000 A 
ATOM      5  C   UNL     1      -3.510  14.963  -6.734  0.00  0.00    +0.000 A 
ATOM      6  C   UNL     1      -4.356  13.930  -7.178  0.00  0.00    +0.000 A 
ATOM      7  C   UNL     1      -5.007  14.179  -8.400  0.00  0.00    +0.000 A 
ATOM      8  C   UNL     1      -4.814  15.358  -9.138  0.00  0.00    +0.000 A 
ENDBRANCH   1   6
BRANCH   1   9
ATOM      9  C   UNL     1      -4.328  12.756  -4.973  0.00  0.00    +0.000 C 
BRANCH   9  10
ATOM     10  C   UNL     1      -5.625  12.949  -4.150  0.00  0.00    +0.000 C 
ATOM     11  C   UNL     1      -6.625  13.818  -4.903  0.00  0.00    +0.000 C 
BRANCH  10  12
ATOM     12  O   UNL     1      -6.252  11.689  -3.873  0.00  0.00    +0.000 OA
ATOM     13  H   UNL     1      -6.655  11.366  -4.696  0.00  0.00    +0.000 HD
ENDBRANCH  10  12
ENDBRANCH   9  10
ENDBRANCH   1   9
BRANCH   1  14
ATOM     14  C   UNL     1      -4.532  11.424  -7.080  0.00  0.00    +0.000 C 
BRANCH  14  15
ATOM     15  C   UNL     1      -5.880  10.675  -6.950  0.00  0.00    +0.000 C 
ATOM     16  C   UNL     1      -6.918  11.127  -7.970  0.00  0.00    +0.000 C 
BRANCH  15  17
ATOM     17  O   UNL     1      -5.714   9.264  -7.084  0.00  0.00    +0.000 OA
ATOM     18  H   UNL     1      -6.430   8.873  -6.544  0.00  0.00    +0.000 HD
ENDBRANCH  15  17
ENDBRANCH  14  15
ENDBRANCH   1  14
TORSDOF 7
ENDMDL
MODEL 5
REMARK VINA RESULT:    -4.847      3.684      6.272
REMARK INTER + INTRA:          -6.925
REMARK INTER:                  -6.544
REMARK INTRA:                  -0.381
REMARK UNBOUND:                -0.379
REMARK  Name = 
REMARK  10 active torsions:
REMARK  status: ('A' for Active; 'I' for Inactive)
REMARK    1  A    between atoms: C_1  and  C_2
REMARK    2  A    between atoms: C_5  and  N_8
REMARK    3  A    between atoms: N_8  and  C_9
REMARK    4  A    between atoms: N_8  and  C_13
REMARK    5  A    between atoms: C_9  and  C_10
REMARK    6  A    between atoms: C_10  and  C_11
REMARK    7  A    between atoms: C_10  and  O_12
REMARK    8  A    between atoms: C_13  and  C_14
REMARK    9  A    between atoms: C_14  and  C_15
REMARK   10  A    between atoms: C_14  and  O_16
REMARK                            x       y       z     vdW  Elec       q    Type
REMARK                         _______ _______ _______ _____ _____    ______ ____
ROOT
ATOM      1  N   UNL     1      -3.609  14.204  -1.342  0.00  0.00    +0.000 N 
ENDROOT
BRANCH   1   6
ATOM      2  C   UNL     1      -4.280  11.700  -6.500  0.00  0.00    +0.000 C 
ATOM      3  C   UNL     1      -4.131  12.349  -5.158  0.00  0.00    +0.000 A 
ATOM      4  C   UNL     1      -4.120  13.734  -5.032  0.00  0.00    +0.000 A 
ATOM      5  C   UNL     1      -3.950  14.337  -3.775  0.00  0.00    +0.000 A 
ATOM      6  C   UNL     1      -3.759  13.597  -2.595  0.00  0.00    +0.000 A 
ATOM      7  C   UNL     1      -3.777  12.199  -2.760  0.00  0.00    +0.000 A 
ATOM      8  C   UNL     1      -3.949  11.583  -4.011  0.00  0.00    +0.000 A 
ENDBRANCH   1   6
BRANCH   1   9
ATOM      9  C   UNL     1      -4.571  15.241  -0.899  0.00  0.00    +0.000 C 
BRANCH   9  10
ATOM     10  C   UNL     1      -5.598  14.706   0.129  0.00  0.00    +0.000 C 
ATOM     11  C   UNL     1      -6.817  15.618   0.206  0.00  0.00    +0.000 C 
BRANCH  10  12
ATOM     12  O   UNL     1      -6.048  13.392  -0.229  0.00  0.00    +0.000 OA
ATOM     13  H   UNL     1      -6.895  13.231   0.220  0.00  0.00    +0.000 HD
ENDBRANCH  10  12
ENDBRANCH   9  10
ENDBRANCH   1   9
BRANCH   1  14
ATOM     14  C   UNL     1      -2.290  14.245  -0.660  0.00  0.00    +0.000 C 
BRANCH  14  15
ATOM     15  C   UNL     1      -1.237  15.039  -1.470  0.00  0.00    +0.000 C 
ATOM     16  C   UNL     1      -0.775  16.310  -0.769  0.00  0.00    +0.000 C 
BRANCH  15  17
ATOM     17  O   UNL     1      -0.084  14.247  -1.755  0.00  0.00    +0.000 OA
ATOM     18  H   UNL     1      -0.043  14.203  -2.732  0.00  0.00    +0.000 HD
ENDBRANCH  15  17
ENDBRANCH  14  15
ENDBRANCH   1  14
TORSDOF 7
ENDMDL
MODEL 6
REMARK VINA RESULT:    -4.815      4.066      6.954
REMARK INTER + INTRA:          -6.882
REMARK INTER:                  -6.389
REMARK INTRA:                  -0.493
REMARK UNBOUND:                -0.379
REMARK  Name = 
REMARK  10 active torsions:
REMARK  status: ('A' for Active; 'I' for Inactive)
REMARK    1  A    between atoms: C_1  and  C_2
REMARK    2  A    between atoms: C_5  and  N_8
REMARK    3  A    between atoms: N_8  and  C_9
REMARK    4  A    between atoms: N_8  and  C_13
REMARK    5  A    between atoms: C_9  and  C_10
REMARK    6  A    between atoms: C_10  and  C_11
REMARK    7  A    between atoms: C_10  and  O_12
REMARK    8  A    between atoms: C_13  and  C_14
REMARK    9  A    between atoms: C_14  and  C_15
REMARK   10  A    between atoms: C_14  and  O_16
REMARK                            x       y       z     vdW  Elec       q    Type
REMARK                         _______ _______ _______ _____ _____    ______ ____
ROOT
ATOM      1  N   UNL     1      -4.227  14.030  -1.954  0.00  0.00    +0.000 N 
ENDROOT
BRANCH   1   6
ATOM      2  C   UNL     1      -0.093  17.651  -0.182  0.00  0.00    +0.000 C 
ATOM      3  C   UNL     1      -1.155  16.710  -0.665  0.00  0.00    +0.000 A 
ATOM      4  C   UNL     1      -2.345  17.191  -1.202  0.00  0.00    +0.000 A 
ATOM      5  C   UNL     1      -3.349  16.305  -1.625  0.00  0.00    +0.000 A 
ATOM      6  C   UNL     1      -3.229  14.908  -1.512  0.00  0.00    +0.000 A 
ATOM      7  C   UNL     1      -2.013  14.458  -0.967  0.00  0.00    +0.000 A 
ATOM      8  C   UNL     1      -0.999  15.333  -0.542  0.00  0.00    +0.000 A 
ENDBRANCH   1   6
BRANCH   1   9
ATOM      9  C   UNL     1      -5.655  14.340  -1.701  0.00  0.00    +0.000 C 
BRANCH   9  10
ATOM     10  C   UNL     1      -5.996  14.411  -0.193  0.00  0.00    +0.000 C 
ATOM     11  C   UNL     1      -6.620  15.756   0.163  0.00  0.00    +0.000 C 
BRANCH  10  12
ATOM     12  O   UNL     1      -6.924  13.380   0.174  0.00  0.00    +0.000 OA
ATOM     13  H   UNL     1      -7.785  13.596  -0.220  0.00  0.00    +0.000 HD
ENDBRANCH  10  12
ENDBRANCH   9  10
ENDBRANCH   1   9
BRANCH   1  14
ATOM     14  C   UNL     1      -3.934  12.595  -2.201  0.00  0.00    +0.000 C 
BRANCH  14  15
ATOM     15  C   UNL     1      -4.309  12.162  -3.639  0.00  0.00    +0.000 C 
ATOM     16  C   UNL     1      -4.001  13.226  -4.685  0.00  0.00    +0.000 C 
BRANCH  15  17
ATOM     17  O   UNL     1      -3.638  10.961  -4.019  0.00  0.00    +0.000 OA
ATOM     18  H   UNL     1      -4.177  10.239  -3.636  0.00  0.00    +0.000 HD
ENDBRANCH  15  17
ENDBRANCH  14  15
ENDBRANCH   1  14
TORSDOF 7
ENDMDL
MODEL 7
REMARK VINA RESULT:    -4.800      3.704      5.854
REMARK INTER + INTRA:          -6.863
REMARK INTER:                  -6.390
REMARK INTRA:                  -0.473
REMARK UNBOUND:                -0.379
REMARK  Name = 
REMARK  10 active torsions:
REMARK  status: ('A' for Active; 'I' for Inactive)
REMARK    1  A    between atoms: C_1  and  C_2
REMARK    2  A    between atoms: C_5  and  N_8
REMARK    3  A    between atoms: N_8  and  C_9
REMARK    4  A    between atoms: N_8  and  C_13
REMARK    5  A    between atoms: C_9  and  C_10
REMARK    6  A    between atoms: C_10  and  C_11
REMARK    7  A    between atoms: C_10  and  O_12
REMARK    8  A    between atoms: C_13  and  C_14
REMARK    9  A    between atoms: C_14  and  C_15
REMARK   10  A    between atoms: C_14  and  O_16
REMARK                            x       y       z     vdW  Elec       q    Type
REMARK                         _______ _______ _______ _____ _____    ______ ____
ROOT
ATOM      1  N   UNL     1      -4.583  13.353  -2.239  0.00  0.00    +0.000 N 
ENDROOT
BRANCH   1   6
ATOM      2  C   UNL     1      -5.977  11.207  -7.414  0.00  0.00    +0.000 C 
ATOM      3  C   UNL     1      -5.607  11.785  -6.082  0.00  0.00    +0.000 A 
ATOM      4  C   UNL     1      -4.352  11.557  -5.528  0.00  0.00    +0.000 A 
ATOM      5  C   UNL     1      -4.022  12.076  -4.266  0.00  0.00    +0.000 A 
ATOM      6  C   UNL     1      -4.926  12.822  -3.489  0.00  0.00    +0.000 A 
ATOM      7  C   UNL     1      -6.185  13.035  -4.081  0.00  0.00    +0.000 A 
ATOM      8  C   UNL     1      -6.527  12.523  -5.344  0.00  0.00    +0.000 A 
ENDBRANCH   1   6
BRANCH   1   9
ATOM      9  C   UNL     1      -5.384  14.457  -1.656  0.00  0.00    +0.000 C 
BRANCH   9  10
ATOM     10  C   UNL     1      -5.696  14.242  -0.154  0.00  0.00    +0.000 C 
ATOM     11  C   UNL     1      -5.937  15.574   0.548  0.00  0.00    +0.000 C 
BRANCH  10  12
ATOM     12  O   UNL     1      -6.866  13.431   0.018  0.00  0.00    +0.000 OA
ATOM     13  H   UNL     1      -6.852  13.068   0.919  0.00  0.00    +0.000 HD
ENDBRANCH  10  12
ENDBRANCH   9  10
ENDBRANCH   1   9
BRANCH   1  14
ATOM     14  C   UNL     1      -3.202  13.234  -1.706  0.00  0.00    +0.000 C 
BRANCH  14  15
ATOM     15  C   UNL     1      -2.480  14.601  -1.643  0.00  0.00    +0.000 C 
ATOM     16  C   UNL     1      -1.521  14.719  -0.464  0.00  0.00    +0.000 C 
BRANCH  15  17
ATOM     17  O   UNL     1      -1.746  14.864  -2.838  0.00  0.00    +0.000 OA
ATOM     18  H   UNL     1      -1.990  15.778  -3.088  0.00  0.00    +0.000 HD
ENDBRANCH  15  17
ENDBRANCH  14  15
ENDBRANCH   1  14
TORSDOF 7
ENDMDL
MODEL 8
REMARK VINA RESULT:    -4.671      3.685      5.680
REMARK INTER + INTRA:          -6.688
REMARK INTER:                  -6.186
REMARK INTRA:                  -0.503
REMARK UNBOUND:                -0.379
REMARK  Name = 
REMARK  10 active torsions:
REMARK  status: ('A' for Active; 'I' for Inactive)
REMARK    1  A    between atoms: C_1  and  C_2
REMARK    2  A    between atoms: C_5  and  N_8
REMARK    3  A    between atoms: N_8  and  C_9
REMARK    4  A    between atoms: N_8  and  C_13
REMARK    5  A    between atoms: C_9  and  C_10
REMARK    6  A    between atoms: C_10  and  C_11
REMARK    7  A    between atoms: C_10  and  O_12
REMARK    8  A    between atoms: C_13  and  C_14
REMARK    9  A    between atoms: C_14  and  C_15
REMARK   10  A    between atoms: C_14  and  O_16
REMARK                            x       y       z     vdW  Elec       q    Type
REMARK                         _______ _______ _______ _____ _____    ______ ____
ROOT
ATOM      1  N   UNL     1      -4.586  13.766  -2.427  0.00  0.00    +0.000 N 
ENDROOT
BRANCH   1   6
ATOM      2  C   UNL     1      -5.967  10.734  -7.142  0.00  0.00    +0.000 C 
ATOM      3  C   UNL     1      -5.613  11.542  -5.932  0.00  0.00    +0.000 A 
ATOM      4  C   UNL     1      -4.294  11.903  -5.675  0.00  0.00    +0.000 A 
ATOM      5  C   UNL     1      -3.964  12.635  -4.522  0.00  0.00    +0.000 A 
ATOM      6  C   UNL     1      -4.920  13.019  -3.564  0.00  0.00    +0.000 A 
ATOM      7  C   UNL     1      -6.242  12.639  -3.858  0.00  0.00    +0.000 A 
ATOM      8  C   UNL     1      -6.587  11.909  -5.007  0.00  0.00    +0.000 A 
ENDBRANCH   1   6
BRANCH   1   9
ATOM      9  C   UNL     1      -3.516  13.293  -1.516  0.00  0.00    +0.000 C 
BRANCH   9  10
ATOM     10  C   UNL     1      -2.309  14.262  -1.454  0.00  0.00    +0.000 C 
ATOM     11  C   UNL     1      -2.260  14.987  -0.115  0.00  0.00    +0.000 C 
BRANCH  10  12
ATOM     12  O   UNL     1      -1.073  13.555  -1.622  0.00  0.00    +0.000 OA
ATOM     13  H   UNL     1      -0.867  13.106  -0.785  0.00  0.00    +0.000 HD
ENDBRANCH  10  12
ENDBRANCH   9  10
ENDBRANCH   1   9
BRANCH   1  14
ATOM     14  C   UNL     1      -5.556  14.710  -1.815  0.00  0.00    +0.000 C 
BRANCH  14  15
ATOM     15  C   UNL     1      -5.806  14.402  -0.319  0.00  0.00    +0.000 C 
ATOM     16  C   UNL     1      -6.216  15.630   0.485  0.00  0.00    +0.000 C 
BRANCH  15  17
ATOM     17  O   UNL     1      -6.812  13.406  -0.147  0.00  0.00    +0.000 OA
ATOM     18  H   UNL     1      -7.537  13.857   0.331  0.00  0.00    +0.000 HD
ENDBRANCH  15  17
ENDBRANCH  14  15
ENDBRANCH   1  14
TORSDOF 7
ENDMDL
MODEL 9
REMARK VINA RESULT:    -4.669      1.728      2.178
REMARK INTER + INTRA:          -6.686
REMARK INTER:                  -6.346
REMARK INTRA:                  -0.340
REMARK UNBOUND:                -0.379
REMARK  Name = 
REMARK  10 active torsions:
REMARK  status: ('A' for Active; 'I' for Inactive)
REMARK    1  A    between atoms: C_1  and  C_2
REMARK    2  A    between atoms: C_5  and  N_8
REMARK    3  A    between atoms: N_8  and  C_9
REMARK    4  A    between atoms: N_8  and  C_13
REMARK    5  A    between atoms: C_9  and  C_10
REMARK    6  A    between atoms: C_10  and  C_11
REMARK    7  A    between atoms: C_10  and  O_12
REMARK    8  A    between atoms: C_13  and  C_14
REMARK    9  A    between atoms: C_14  and  C_15
REMARK   10  A    between atoms: C_14  and  O_16
REMARK                            x       y       z     vdW  Elec       q    Type
REMARK                         _______ _______ _______ _____ _____    ______ ____
ROOT
ATOM      1  N   UNL     1      -5.677  12.902  -6.473  0.00  0.00    +0.000 N 
ENDROOT
BRANCH   1   6
ATOM      2  C   UNL     1      -6.092  15.106 -11.792  0.00  0.00    +0.000 C 
ATOM      3  C   UNL     1      -5.968  14.517 -10.421  0.00  0.00    +0.000 A 
ATOM      4  C   UNL     1      -6.850  13.534  -9.983  0.00  0.00    +0.000 A 
ATOM      5  C   UNL     1      -6.748  13.006  -8.686  0.00  0.00    +0.000 A 
ATOM      6  C   UNL     1      -5.785  13.446  -7.759  0.00  0.00    +0.000 A 
ATOM      7  C   UNL     1      -4.910  14.439  -8.236  0.00  0.00    +0.000 A 
ATOM      8  C   UNL     1      -5.000  14.973  -9.532  0.00  0.00    +0.000 A 
ENDBRANCH   1   6
BRANCH   1   9
ATOM      9  C   UNL     1      -6.125  11.512  -6.214  0.00  0.00    +0.000 C 
BRANCH   9  10
ATOM     10  C   UNL     1      -5.367  10.468  -7.070  0.00  0.00    +0.000 C 
ATOM     11  C   UNL     1      -3.902  10.385  -6.657  0.00  0.00    +0.000 C 
BRANCH  10  12
ATOM     12  O   UNL     1      -5.945   9.164  -6.922  0.00  0.00    +0.000 OA
ATOM     13  H   UNL     1      -5.565   8.586  -7.605  0.00  0.00    +0.000 HD
ENDBRANCH  10  12
ENDBRANCH   9  10
ENDBRANCH   1   9
BRANCH   1  14
ATOM     14  C   UNL     1      -5.619  13.773  -5.272  0.00  0.00    +0.000 C 
BRANCH  14  15
ATOM     15  C   UNL     1      -4.253  13.683  -4.549  0.00  0.00    +0.000 C 
ATOM     16  C   UNL     1      -4.218  12.613  -3.465  0.00  0.00    +0.000 C 
BRANCH  15  17
ATOM     17  O   UNL     1      -3.190  13.421  -5.464  0.00  0.00    +0.000 OA
ATOM     18  H   UNL     1      -2.715  12.653  -5.086  0.00  0.00    +0.000 HD
ENDBRANCH  15  17
ENDBRANCH  14  15
ENDBRANCH   1  14
TORSDOF 7
ENDMDL
