MODEL 1
REMARK VINA RESULT:    -4.113      0.000      0.000
REMARK INTER + INTRA:          -4.526
REMARK INTER:                  -4.473
REMARK INTRA:                  -0.052
REMARK UNBOUND:                -0.052
REMARK  Name = 
REMARK  3 active torsions:
REMARK  status: ('A' for Active; 'I' for Inactive)
REMARK    1  A    between atoms: C_1  and  O_2
REMARK    2  A    between atoms: O_2  and  C_3
REMARK    3  A    between atoms: C_8  and  O_9
REMARK                            x       y       z     vdW  Elec       q    Type
REMARK                         _______ _______ _______ _____ _____    ______ ____
ROOT
ATOM      1  C   UNL     1      -8.504   6.211 -17.155  0.00  0.00    +0.000 A 
ATOM      2  C   UNL     1      -9.192   6.705 -16.047  0.00  0.00    +0.000 A 
ATOM      3  C   UNL     1      -9.738   7.994 -16.080  0.00  0.00    +0.000 A 
ATOM      4  C   UNL     1      -9.600   8.793 -17.217  0.00  0.00    +0.000 A 
ATOM      5  C   UNL     1      -8.915   8.306 -18.328  0.00  0.00    +0.000 A 
ATOM      6  C   UNL     1      -8.376   7.027 -18.287  0.00  0.00    +0.000 A 
ENDROOT
BRANCH   1   8
ATOM      7  C   UNL     1      -8.787   3.852 -17.166  0.00  0.00    +0.000 C 
ATOM      8  O   UNL     1      -7.919   4.975 -17.263  0.00  0.00    +0.000 OA
ENDBRANCH   1   8
BRANCH   6   9
ATOM      9  O   UNL     1      -7.707   6.571 -19.391  0.00  0.00    +0.000 OA
ATOM     10  H   UNL     1      -8.326   6.713 -20.133  0.00  0.00    +0.000 HD
ENDBRANCH   6   9
TORSDOF 2
ENDMDL
MODEL 2
REMARK VINA RESULT:    -4.084      1.430      2.360
REMARK INTER + INTRA:          -4.495
REMARK INTER:                  -4.442
REMARK INTRA:                  -0.052
REMARK UNBOUND:                -0.052
REMARK  Name = 
REMARK  3 active torsions:
REMARK  status: ('A' for Active; 'I' for Inactive)
REMARK    1  A    between atoms: C_1  and  O_2
REMARK    2  A    between atoms: O_2  and  C_3
REMARK    3  A    between atoms: C_8  and  O_9
REMARK                            x       y       z     vdW  Elec       q    Type
REMARK                         _______ _______ _______ _____ _____    ______ ____
ROOT
ATOM      1  C   UNL     1      -8.989   7.176 -16.963  0.00  0.00    +0.000 A 
ATOM      2  C   UNL     1      -9.471   8.452 -17.253  0.00  0.00    +0.000 A 
ATOM      3  C   UNL     1      -9.045   9.114 -18.412  0.00  0.00    +0.000 A 
ATOM      4  C   UNL     1      -8.139   8.505 -19.282  0.00  0.00    +0.000 A 
ATOM      5  C   UNL     1      -7.653   7.230 -18.999  0.00  0.00    +0.000 A 
ATOM      6  C   UNL     1      -8.080   6.582 -17.847  0.00  0.00    +0.000 A 
ENDROOT
BRANCH   1   8
ATOM      7  C   UNL     1      -8.972   6.950 -14.597  0.00  0.00    +0.000 C 
ATOM      8  O   UNL     1      -9.317   6.415 -15.870  0.00  0.00    +0.000 OA
ENDBRANCH   1   8
BRANCH   6   9
ATOM      9  O   UNL     1      -7.589   5.330 -17.590  0.00  0.00    +0.000 OA
ATOM     10  H   UNL     1      -7.471   5.303 -16.622  0.00  0.00    +0.000 HD
ENDBRANCH   6   9
TORSDOF 2
ENDMDL
MODEL 3
REMARK VINA RESULT:    -3.974      0.964      2.717
REMARK INTER + INTRA:          -4.375
REMARK INTER:                  -4.322
REMARK INTRA:                  -0.053
REMARK UNBOUND:                -0.052
REMARK  Name = 
REMARK  3 active torsions:
REMARK  status: ('A' for Active; 'I' for Inactive)
REMARK    1  A    between atoms: C_1  and  O_2
REMARK    2  A    between atoms: O_2  and  C_3
REMARK    3  A    between atoms: C_8  and  O_9
REMARK                            x       y       z     vdW  Elec       q    Type
REMARK                         _______ _______ _______ _____ _____    ______ ____
ROOT
ATOM      1  C   UNL     1      -8.577   7.336 -18.000  0.00  0.00    +0.000 A 
ATOM      2  C   UNL     1      -9.344   8.418 -17.570  0.00  0.00    +0.000 A 
ATOM      3  C   UNL     1      -9.950   8.389 -16.307  0.00  0.00    +0.000 A 
ATOM      4  C   UNL     1      -9.793   7.280 -15.473  0.00  0.00    +0.000 A 
ATOM      5  C   UNL     1      -9.028   6.195 -15.896  0.00  0.00    +0.000 A 
ATOM      6  C   UNL     1      -8.431   6.233 -17.149  0.00  0.00    +0.000 A 
ENDROOT
BRANCH   1   8
ATOM      7  C   UNL     1      -6.832   8.108 -19.416  0.00  0.00    +0.000 C 
ATOM      8  O   UNL     1      -7.930   7.229 -19.205  0.00  0.00    +0.000 OA
ENDBRANCH   1   8
BRANCH   6   9
ATOM      9  O   UNL     1      -7.685   5.155 -17.543  0.00  0.00    +0.000 OA
ATOM     10  H   UNL     1      -7.118   5.494 -18.262  0.00  0.00    +0.000 HD
ENDBRANCH   6   9
TORSDOF 2
ENDMDL
MODEL 4
REMARK VINA RESULT:    -3.937      2.111      3.535
REMARK INTER + INTRA:          -4.335
REMARK INTER:                  -4.284
REMARK INTRA:                  -0.050
REMARK UNBOUND:                -0.052
REMARK  Name = 
REMARK  3 active torsions:
REMARK  status: ('A' for Active; 'I' for Inactive)
REMARK    1  A    between atoms: C_1  and  O_2
REMARK    2  A    between atoms: O_2  and  C_3
REMARK    3  A    between atoms: C_8  and  O_9
REMARK                            x       y       z     vdW  Elec       q    Type
REMARK                         _______ _______ _______ _____ _____    ______ ____
ROOT
ATOM      1  C   UNL     1      -9.912   7.671 -15.505  0.00  0.00    +0.000 A 
ATOM      2  C   UNL     1      -9.926   8.717 -16.426  0.00  0.00    +0.000 A 
ATOM      3  C   UNL     1      -9.302   8.562 -17.670  0.00  0.00    +0.000 A 
ATOM      4  C   UNL     1      -8.662   7.365 -17.997  0.00  0.00    +0.000 A 
ATOM      5  C   UNL     1      -8.644   6.315 -17.082  0.00  0.00    +0.000 A 
ATOM      6  C   UNL     1      -9.266   6.478 -15.850  0.00  0.00    +0.000 A 
ENDROOT
BRANCH   1   8
ATOM      7  C   UNL     1     -11.862   8.009 -14.189  0.00  0.00    +0.000 C 
ATOM      8  O   UNL     1     -10.479   7.682 -14.255  0.00  0.00    +0.000 OA
ENDBRANCH   1   8
BRANCH   6   9
ATOM      9  O   UNL     1      -9.234   5.431 -14.967  0.00  0.00    +0.000 OA
ATOM     10  H   UNL     1      -8.479   5.625 -14.379  0.00  0.00    +0.000 HD
ENDBRANCH   6   9
TORSDOF 2
ENDMDL
MODEL 5
REMARK VINA RESULT:    -3.917      1.572      3.395
REMARK INTER + INTRA:          -4.313
REMARK INTER:                  -4.275
REMARK INTRA:                  -0.038
REMARK UNBOUND:                -0.052
REMARK  Name = 
REMARK  3 active torsions:
REMARK  status: ('A' for Active; 'I' for Inactive)
REMARK    1  A    between atoms: C_1  and  O_2
REMARK    2  A    between atoms: O_2  and  C_3
REMARK    3  A    between atoms: C_8  and  O_9
REMARK                            x       y       z     vdW  Elec       q    Type
REMARK                         _______ _______ _______ _____ _____    ______ ____
ROOT
ATOM      1  C   UNL     1      -9.379   6.364 -16.613  0.00  0.00    +0.000 A 
ATOM      2  C   UNL     1     -10.497   5.916 -15.912  0.00  0.00    +0.000 A 
ATOM      3  C   UNL     1     -10.762   4.544 -15.819  0.00  0.00    +0.000 A 
ATOM      4  C   UNL     1      -9.913   3.617 -16.426  0.00  0.00    +0.000 A 
ATOM      5  C   UNL     1      -8.793   4.057 -17.129  0.00  0.00    +0.000 A 
ATOM      6  C   UNL     1      -8.539   5.419 -17.216  0.00  0.00    +0.000 A 
ENDROOT
BRANCH   1   8
ATOM      7  C   UNL     1      -9.971   8.661 -16.472  0.00  0.00    +0.000 C 
ATOM      8  O   UNL     1      -8.999   7.671 -16.786  0.00  0.00    +0.000 OA
ENDBRANCH   1   8
BRANCH   6   9
ATOM      9  O   UNL     1      -7.432   5.827 -17.912  0.00  0.00    +0.000 OA
ATOM     10  H   UNL     1      -7.071   5.010 -18.304  0.00  0.00    +0.000 HD
ENDBRANCH   6   9
TORSDOF 2
ENDMDL
MODEL 6
REMARK VINA RESULT:    -3.867      1.596      3.014
REMARK INTER + INTRA:          -4.258
REMARK INTER:                  -4.210
REMARK INTRA:                  -0.048
REMARK UNBOUND:                -0.052
REMARK  Name = 
REMARK  3 active torsions:
REMARK  status: ('A' for Active; 'I' for Inactive)
REMARK    1  A    between atoms: C_1  and  O_2
REMARK    2  A    between atoms: O_2  and  C_3
REMARK    3  A    between atoms: C_8  and  O_9
REMARK                            x       y       z     vdW  Elec       q    Type
REMARK                         _______ _______ _______ _____ _____    ______ ____
ROOT
ATOM      1  C   UNL     1      -9.213   6.992 -16.405  0.00  0.00    +0.000 A 
ATOM      2  C   UNL     1      -9.769   8.267 -16.503  0.00  0.00    +0.000 A 
ATOM      3  C   UNL     1     -10.935   8.579 -15.793  0.00  0.00    +0.000 A 
ATOM      4  C   UNL     1     -11.549   7.620 -14.985  0.00  0.00    +0.000 A 
ATOM      5  C   UNL     1     -11.000   6.344 -14.881  0.00  0.00    +0.000 A 
ATOM      6  C   UNL     1      -9.843   6.044 -15.589  0.00  0.00    +0.000 A 
ENDROOT
BRANCH   1   8
ATOM      7  C   UNL     1      -8.003   6.793 -18.440  0.00  0.00    +0.000 C 
ATOM      8  O   UNL     1      -8.081   6.549 -17.041  0.00  0.00    +0.000 OA
ENDBRANCH   1   8
BRANCH   6   9
ATOM      9  O   UNL     1      -9.322   4.783 -15.472  0.00  0.00    +0.000 OA
ATOM     10  H   UNL     1      -9.614   4.474 -14.593  0.00  0.00    +0.000 HD
ENDBRANCH   6   9
TORSDOF 2
ENDMDL
MODEL 7
REMARK VINA RESULT:    -3.830      3.477      4.520
REMARK INTER + INTRA:          -4.218
REMARK INTER:                  -4.177
REMARK INTRA:                  -0.041
REMARK UNBOUND:                -0.052
REMARK  Name = 
REMARK  3 active torsions:
REMARK  status: ('A' for Active; 'I' for Inactive)
REMARK    1  A    between atoms: C_1  and  O_2
REMARK    2  A    between atoms: O_2  and  C_3
REMARK    3  A    between atoms: C_8  and  O_9
REMARK                            x       y       z     vdW  Elec       q    Type
REMARK                         _______ _______ _______ _____ _____    ______ ____
ROOT
ATOM      1  C   UNL     1     -11.035   7.781 -14.294  0.00  0.00    +0.000 A 
ATOM      2  C   UNL     1      -9.919   7.223 -13.674  0.00  0.00    +0.000 A 
ATOM      3  C   UNL     1      -8.789   6.893 -14.433  0.00  0.00    +0.000 A 
ATOM      4  C   UNL     1      -8.771   7.117 -15.811  0.00  0.00    +0.000 A 
ATOM      5  C   UNL     1      -9.883   7.675 -16.438  0.00  0.00    +0.000 A 
ATOM      6  C   UNL     1     -10.999   7.999 -15.677  0.00  0.00    +0.000 A 
ENDROOT
BRANCH   1   8
ATOM      7  C   UNL     1     -12.102   8.582 -12.328  0.00  0.00    +0.000 C 
ATOM      8  O   UNL     1     -12.205   8.151 -13.679  0.00  0.00    +0.000 OA
ENDBRANCH   1   8
BRANCH   6   9
ATOM      9  O   UNL     1     -12.080   8.546 -16.316  0.00  0.00    +0.000 OA
ATOM     10  H   UNL     1     -12.188   8.010 -17.125  0.00  0.00    +0.000 HD
ENDBRANCH   6   9
TORSDOF 2
ENDMDL
MODEL 8
REMARK VINA RESULT:    -3.783      2.656      3.726
REMARK INTER + INTRA:          -4.167
REMARK INTER:                  -4.117
REMARK INTRA:                  -0.050
REMARK UNBOUND:                -0.052
REMARK  Name = 
REMARK  3 active torsions:
REMARK  status: ('A' for Active; 'I' for Inactive)
REMARK    1  A    between atoms: C_1  and  O_2
REMARK    2  A    between atoms: O_2  and  C_3
REMARK    3  A    between atoms: C_8  and  O_9
REMARK                            x       y       z     vdW  Elec       q    Type
REMARK                         _______ _______ _______ _____ _____    ______ ____
ROOT
ATOM      1  C   UNL     1      -9.715   8.046 -16.056  0.00  0.00    +0.000 A 
ATOM      2  C   UNL     1      -8.855   7.533 -15.086  0.00  0.00    +0.000 A 
ATOM      3  C   UNL     1      -9.338   7.247 -13.803  0.00  0.00    +0.000 A 
ATOM      4  C   UNL     1     -10.678   7.472 -13.485  0.00  0.00    +0.000 A 
ATOM      5  C   UNL     1     -11.544   7.984 -14.448  0.00  0.00    +0.000 A 
ATOM      6  C   UNL     1     -11.056   8.265 -15.718  0.00  0.00    +0.000 A 
ENDROOT
BRANCH   1   8
ATOM      7  C   UNL     1      -8.747   7.356 -18.113  0.00  0.00    +0.000 C 
ATOM      8  O   UNL     1      -9.381   8.372 -17.346  0.00  0.00    +0.000 OA
ENDBRANCH   1   8
BRANCH   6   9
ATOM      9  O   UNL     1     -11.927   8.768 -16.648  0.00  0.00    +0.000 OA
ATOM     10  H   UNL     1     -11.513   9.598 -16.952  0.00  0.00    +0.000 HD
ENDBRANCH   6   9
TORSDOF 2
ENDMDL
MODEL 9
REMARK VINA RESULT:    -3.773      2.605      3.724
REMARK INTER + INTRA:          -4.156
REMARK INTER:                  -4.118
REMARK INTRA:                  -0.038
REMARK UNBOUND:                -0.052
REMARK  Name = 
REMARK  3 active torsions:
REMARK  status: ('A' for Active; 'I' for Inactive)
REMARK    1  A    between atoms: C_1  and  O_2
REMARK    2  A    between atoms: O_2  and  C_3
REMARK    3  A    between atoms: C_8  and  O_9
REMARK                            x       y       z     vdW  Elec       q    Type
REMARK                         _______ _______ _______ _____ _____    ______ ____
ROOT
ATOM      1  C   UNL     1      -9.580   6.163 -15.461  0.00  0.00    +0.000 A 
ATOM      2  C   UNL     1     -10.726   5.388 -15.635  0.00  0.00    +0.000 A 
ATOM      3  C   UNL     1     -11.752   5.432 -14.683  0.00  0.00    +0.000 A 
ATOM      4  C   UNL     1     -11.637   6.247 -13.555  0.00  0.00    +0.000 A 
ATOM      5  C   UNL     1     -10.495   7.025 -13.374  0.00  0.00    +0.000 A 
ATOM      6  C   UNL     1      -9.482   6.975 -14.324  0.00  0.00    +0.000 A 
ENDROOT
BRANCH   1   8
ATOM      7  C   UNL     1      -8.396   5.176 -17.269  0.00  0.00    +0.000 C 
ATOM      8  O   UNL     1      -8.502   6.218 -16.307  0.00  0.00    +0.000 OA
ENDBRANCH   1   8
BRANCH   6   9
ATOM      9  O   UNL     1      -8.370   7.748 -14.124  0.00  0.00    +0.000 OA
ATOM     10  H   UNL     1      -7.618   7.143 -14.271  0.00  0.00    +0.000 HD
ENDBRANCH   6   9
TORSDOF 2
ENDMDL
