MODEL 1
REMARK VINA RESULT:    -4.046      0.000      0.000
REMARK INTER + INTRA:          -4.439
REMARK INTER:                  -4.401
REMARK INTRA:                  -0.038
REMARK UNBOUND:                -0.038
REMARK  Name = 
REMARK  3 active torsions:
REMARK  status: ('A' for Active; 'I' for Inactive)
REMARK    1  A    between atoms: C_1  and  O_2
REMARK    2  A    between atoms: O_2  and  C_3
REMARK    3  A    between atoms: C_8  and  O_9
REMARK                            x       y       z     vdW  Elec       q    Type
REMARK                         _______ _______ _______ _____ _____    ______ ____
ROOT
ATOM      1  C   UNL     1      -6.203   8.128 -17.839  0.00  0.00    +0.000 A 
ATOM      2  C   UNL     1      -6.992   7.160 -18.459  0.00  0.00    +0.000 A 
ATOM      3  C   UNL     1      -7.414   6.035 -17.739  0.00  0.00    +0.000 A 
ATOM      4  C   UNL     1      -7.049   5.874 -16.401  0.00  0.00    +0.000 A 
ATOM      5  C   UNL     1      -6.262   6.837 -15.775  0.00  0.00    +0.000 A 
ATOM      6  C   UNL     1      -5.848   7.949 -16.497  0.00  0.00    +0.000 A 
ENDROOT
BRANCH   1   8
ATOM      7  C   UNL     1      -6.221   9.590 -19.713  0.00  0.00    +0.000 C 
ATOM      8  O   UNL     1      -5.720   9.274 -18.419  0.00  0.00    +0.000 OA
ENDBRANCH   1   8
BRANCH   6   9
ATOM      9  O   UNL     1      -5.074   8.882 -15.860  0.00  0.00    +0.000 OA
ATOM     10  H   UNL     1      -4.629   9.369 -16.579  0.00  0.00    +0.000 HD
ENDBRANCH   6   9
TORSDOF 2
ENDMDL
MODEL 2
REMARK VINA RESULT:    -3.846      2.357      3.059
REMARK INTER + INTRA:          -4.221
REMARK INTER:                  -4.171
REMARK INTRA:                  -0.050
REMARK UNBOUND:                -0.038
REMARK  Name = 
REMARK  3 active torsions:
REMARK  status: ('A' for Active; 'I' for Inactive)
REMARK    1  A    between atoms: C_1  and  O_2
REMARK    2  A    between atoms: O_2  and  C_3
REMARK    3  A    between atoms: C_8  and  O_9
REMARK                            x       y       z     vdW  Elec       q    Type
REMARK                         _______ _______ _______ _____ _____    ______ ____
ROOT
ATOM      1  C   UNL     1      -6.485   6.372 -18.255  0.00  0.00    +0.000 A 
ATOM      2  C   UNL     1      -6.010   7.655 -18.524  0.00  0.00    +0.000 A 
ATOM      3  C   UNL     1      -5.716   8.528 -17.469  0.00  0.00    +0.000 A 
ATOM      4  C   UNL     1      -5.896   8.124 -16.145  0.00  0.00    +0.000 A 
ATOM      5  C   UNL     1      -6.370   6.843 -15.868  0.00  0.00    +0.000 A 
ATOM      6  C   UNL     1      -6.659   5.984 -16.920  0.00  0.00    +0.000 A 
ENDROOT
BRANCH   1   8
ATOM      7  C   UNL     1      -5.807   5.081 -20.131  0.00  0.00    +0.000 C 
ATOM      8  O   UNL     1      -6.814   5.417 -19.183  0.00  0.00    +0.000 OA
ENDBRANCH   1   8
BRANCH   6   9
ATOM      9  O   UNL     1      -7.124   4.731 -16.623  0.00  0.00    +0.000 OA
ATOM     10  H   UNL     1      -7.839   4.879 -15.975  0.00  0.00    +0.000 HD
ENDBRANCH   6   9
TORSDOF 2
ENDMDL
MODEL 3
REMARK VINA RESULT:    -3.606      2.080      2.743
REMARK INTER + INTRA:          -3.960
REMARK INTER:                  -3.912
REMARK INTRA:                  -0.048
REMARK UNBOUND:                -0.038
REMARK  Name = 
REMARK  3 active torsions:
REMARK  status: ('A' for Active; 'I' for Inactive)
REMARK    1  A    between atoms: C_1  and  O_2
REMARK    2  A    between atoms: O_2  and  C_3
REMARK    3  A    between atoms: C_8  and  O_9
REMARK                            x       y       z     vdW  Elec       q    Type
REMARK                         _______ _______ _______ _____ _____    ______ ____
ROOT
ATOM      1  C   UNL     1      -5.345   6.865 -18.335  0.00  0.00    +0.000 A 
ATOM      2  C   UNL     1      -5.330   7.710 -17.226  0.00  0.00    +0.000 A 
ATOM      3  C   UNL     1      -6.136   7.423 -16.117  0.00  0.00    +0.000 A 
ATOM      4  C   UNL     1      -6.960   6.296 -16.114  0.00  0.00    +0.000 A 
ATOM      5  C   UNL     1      -6.980   5.447 -17.218  0.00  0.00    +0.000 A 
ATOM      6  C   UNL     1      -6.177   5.739 -18.313  0.00  0.00    +0.000 A 
ENDROOT
BRANCH   1   8
ATOM      7  C   UNL     1      -5.019   8.068 -20.359  0.00  0.00    +0.000 C 
ATOM      8  O   UNL     1      -4.612   7.022 -19.484  0.00  0.00    +0.000 OA
ENDBRANCH   1   8
BRANCH   6   9
ATOM      9  O   UNL     1      -6.215   4.890 -19.387  0.00  0.00    +0.000 OA
ATOM     10  H   UNL     1      -7.032   5.129 -19.864  0.00  0.00    +0.000 HD
ENDBRANCH   6   9
TORSDOF 2
ENDMDL
MODEL 4
REMARK VINA RESULT:    -3.453     23.562     23.918
REMARK INTER + INTRA:          -3.793
REMARK INTER:                  -3.754
REMARK INTRA:                  -0.040
REMARK UNBOUND:                -0.038
REMARK  Name = 
REMARK  3 active torsions:
REMARK  status: ('A' for Active; 'I' for Inactive)
REMARK    1  A    between atoms: C_1  and  O_2
REMARK    2  A    between atoms: O_2  and  C_3
REMARK    3  A    between atoms: C_8  and  O_9
REMARK                            x       y       z     vdW  Elec       q    Type
REMARK                         _______ _______ _______ _____ _____    ______ ____
ROOT
ATOM      1  C   UNL     1       7.833  20.242  -2.774  0.00  0.00    +0.000 A 
ATOM      2  C   UNL     1       9.148  19.840  -3.002  0.00  0.00    +0.000 A 
ATOM      3  C   UNL     1       9.668  18.730  -2.325  0.00  0.00    +0.000 A 
ATOM      4  C   UNL     1       8.877  18.019  -1.419  0.00  0.00    +0.000 A 
ATOM      5  C   UNL     1       7.562  18.415  -1.187  0.00  0.00    +0.000 A 
ATOM      6  C   UNL     1       7.056  19.518  -1.862  0.00  0.00    +0.000 A 
ENDROOT
BRANCH   1   8
ATOM      7  C   UNL     1       7.706  21.733  -4.620  0.00  0.00    +0.000 C 
ATOM      8  O   UNL     1       7.197  21.306  -3.363  0.00  0.00    +0.000 OA
ENDBRANCH   1   8
BRANCH   6   9
ATOM      9  O   UNL     1       5.760  19.887  -1.617  0.00  0.00    +0.000 OA
ATOM     10  H   UNL     1       5.226  19.339  -2.222  0.00  0.00    +0.000 HD
ENDBRANCH   6   9
TORSDOF 2
ENDMDL
MODEL 5
REMARK VINA RESULT:    -3.409     23.429     24.448
REMARK INTER + INTRA:          -3.746
REMARK INTER:                  -3.694
REMARK INTRA:                  -0.052
REMARK UNBOUND:                -0.038
REMARK  Name = 
REMARK  3 active torsions:
REMARK  status: ('A' for Active; 'I' for Inactive)
REMARK    1  A    between atoms: C_1  and  O_2
REMARK    2  A    between atoms: O_2  and  C_3
REMARK    3  A    between atoms: C_8  and  O_9
REMARK                            x       y       z     vdW  Elec       q    Type
REMARK                         _______ _______ _______ _____ _____    ______ ____
ROOT
ATOM      1  C   UNL     1       8.759  18.502  -1.835  0.00  0.00    +0.000 A 
ATOM      2  C   UNL     1       9.974  19.085  -2.192  0.00  0.00    +0.000 A 
ATOM      3  C   UNL     1       9.988  20.268  -2.942  0.00  0.00    +0.000 A 
ATOM      4  C   UNL     1       8.792  20.870  -3.338  0.00  0.00    +0.000 A 
ATOM      5  C   UNL     1       7.575  20.294  -2.984  0.00  0.00    +0.000 A 
ATOM      6  C   UNL     1       7.570  19.120  -2.241  0.00  0.00    +0.000 A 
ENDROOT
BRANCH   1   8
ATOM      7  C   UNL     1       9.146  17.345   0.204  0.00  0.00    +0.000 C 
ATOM      8  O   UNL     1       8.595  17.350  -1.108  0.00  0.00    +0.000 OA
ENDBRANCH   1   8
BRANCH   6   9
ATOM      9  O   UNL     1       6.360  18.572  -1.905  0.00  0.00    +0.000 OA
ATOM     10  H   UNL     1       6.572  17.666  -1.611  0.00  0.00    +0.000 HD
ENDBRANCH   6   9
TORSDOF 2
ENDMDL
MODEL 6
REMARK VINA RESULT:    -3.320     13.857     14.721
REMARK INTER + INTRA:          -3.649
REMARK INTER:                  -3.596
REMARK INTRA:                  -0.053
REMARK UNBOUND:                -0.038
REMARK  Name = 
REMARK  3 active torsions:
REMARK  status: ('A' for Active; 'I' for Inactive)
REMARK    1  A    between atoms: C_1  and  O_2
REMARK    2  A    between atoms: O_2  and  C_3
REMARK    3  A    between atoms: C_8  and  O_9
REMARK                            x       y       z     vdW  Elec       q    Type
REMARK                         _______ _______ _______ _____ _____    ______ ____
ROOT
ATOM      1  C   UNL     1      -6.806  19.260  -8.412  0.00  0.00    +0.000 A 
ATOM      2  C   UNL     1      -6.594  18.031  -9.037  0.00  0.00    +0.000 A 
ATOM      3  C   UNL     1      -6.856  16.841  -8.347  0.00  0.00    +0.000 A 
ATOM      4  C   UNL     1      -7.328  16.874  -7.033  0.00  0.00    +0.000 A 
ATOM      5  C   UNL     1      -7.542  18.097  -6.402  0.00  0.00    +0.000 A 
ATOM      6  C   UNL     1      -7.280  19.272  -7.094  0.00  0.00    +0.000 A 
ENDROOT
BRANCH   1   8
ATOM      7  C   UNL     1      -5.245  20.830  -9.274  0.00  0.00    +0.000 C 
ATOM      8  O   UNL     1      -6.593  20.498  -8.963  0.00  0.00    +0.000 OA
ENDBRANCH   1   8
BRANCH   6   9
ATOM      9  O   UNL     1      -7.498  20.462  -6.453  0.00  0.00    +0.000 OA
ATOM     10  H   UNL     1      -7.421  20.250  -5.503  0.00  0.00    +0.000 HD
ENDBRANCH   6   9
TORSDOF 2
ENDMDL
MODEL 7
REMARK VINA RESULT:    -3.198      2.547      3.485
REMARK INTER + INTRA:          -3.517
REMARK INTER:                  -3.464
REMARK INTRA:                  -0.052
REMARK UNBOUND:                -0.038
REMARK  Name = 
REMARK  3 active torsions:
REMARK  status: ('A' for Active; 'I' for Inactive)
REMARK    1  A    between atoms: C_1  and  O_2
REMARK    2  A    between atoms: O_2  and  C_3
REMARK    3  A    between atoms: C_8  and  O_9
REMARK                            x       y       z     vdW  Elec       q    Type
REMARK                         _______ _______ _______ _____ _____    ______ ____
ROOT
ATOM      1  C   UNL     1      -5.918   7.240 -18.510  0.00  0.00    +0.000 A 
ATOM      2  C   UNL     1      -5.294   7.945 -19.539  0.00  0.00    +0.000 A 
ATOM      3  C   UNL     1      -4.723   7.254 -20.615  0.00  0.00    +0.000 A 
ATOM      4  C   UNL     1      -4.773   5.859 -20.666  0.00  0.00    +0.000 A 
ATOM      5  C   UNL     1      -5.395   5.148 -19.643  0.00  0.00    +0.000 A 
ATOM      6  C   UNL     1      -5.958   5.842 -18.580  0.00  0.00    +0.000 A 
ENDROOT
BRANCH   1   8
ATOM      7  C   UNL     1      -5.652   8.400 -16.453  0.00  0.00    +0.000 C 
ATOM      8  O   UNL     1      -6.515   7.783 -17.401  0.00  0.00    +0.000 OA
ENDBRANCH   1   8
BRANCH   6   9
ATOM      9  O   UNL     1      -6.564   5.121 -17.586  0.00  0.00    +0.000 OA
ATOM     10  H   UNL     1      -6.699   4.234 -17.969  0.00  0.00    +0.000 HD
ENDBRANCH   6   9
TORSDOF 2
ENDMDL
MODEL 8
REMARK VINA RESULT:    -3.120     23.950     24.224
REMARK INTER + INTRA:          -3.432
REMARK INTER:                  -3.385
REMARK INTRA:                  -0.046
REMARK UNBOUND:                -0.038
REMARK  Name = 
REMARK  3 active torsions:
REMARK  status: ('A' for Active; 'I' for Inactive)
REMARK    1  A    between atoms: C_1  and  O_2
REMARK    2  A    between atoms: O_2  and  C_3
REMARK    3  A    between atoms: C_8  and  O_9
REMARK                            x       y       z     vdW  Elec       q    Type
REMARK                         _______ _______ _______ _____ _____    ______ ____
ROOT
ATOM      1  C   UNL     1       8.833  20.346  -2.961  0.00  0.00    +0.000 A 
ATOM      2  C   UNL     1       7.597  20.825  -2.530  0.00  0.00    +0.000 A 
ATOM      3  C   UNL     1       6.777  20.023  -1.726  0.00  0.00    +0.000 A 
ATOM      4  C   UNL     1       7.187  18.742  -1.352  0.00  0.00    +0.000 A 
ATOM      5  C   UNL     1       8.421  18.256  -1.778  0.00  0.00    +0.000 A 
ATOM      6  C   UNL     1       9.228  19.059  -2.575  0.00  0.00    +0.000 A 
ENDROOT
BRANCH   1   8
ATOM      7  C   UNL     1       9.206  21.690  -4.884  0.00  0.00    +0.000 C 
ATOM      8  O   UNL     1       9.734  21.017  -3.747  0.00  0.00    +0.000 OA
ENDBRANCH   1   8
BRANCH   6   9
ATOM      9  O   UNL     1      10.436  18.559  -2.981  0.00  0.00    +0.000 OA
ATOM     10  H   UNL     1      11.059  18.806  -2.271  0.00  0.00    +0.000 HD
ENDBRANCH   6   9
TORSDOF 2
ENDMDL
