MODEL 1
REMARK VINA RESULT:    -4.951      0.000      0.000
REMARK INTER + INTRA:          -5.435
REMARK INTER:                  -5.386
REMARK INTRA:                  -0.049
REMARK UNBOUND:                -0.049
REMARK  Name = 
REMARK  3 active torsions:
REMARK  status: ('A' for Active; 'I' for Inactive)
REMARK    1  A    between atoms: C_1  and  O_2
REMARK    2  A    between atoms: O_2  and  C_3
REMARK    3  A    between atoms: C_8  and  O_9
REMARK                            x       y       z     vdW  Elec       q    Type
REMARK                         _______ _______ _______ _____ _____    ______ ____
ROOT
ATOM      1  C   UNL     1      13.191   1.511   6.390  0.00  0.00    +0.000 A 
ATOM      2  C   UNL     1      13.161   1.684   7.773  0.00  0.00    +0.000 A 
ATOM      3  C   UNL     1      12.030   1.295   8.502  0.00  0.00    +0.000 A 
ATOM      4  C   UNL     1      10.928   0.735   7.854  0.00  0.00    +0.000 A 
ATOM      5  C   UNL     1      10.950   0.559   6.472  0.00  0.00    +0.000 A 
ATOM      6  C   UNL     1      12.076   0.948   5.757  0.00  0.00    +0.000 A 
ENDROOT
BRANCH   1   8
ATOM      7  C   UNL     1      14.438   3.234   5.330  0.00  0.00    +0.000 C 
ATOM      8  O   UNL     1      14.225   1.845   5.553  0.00  0.00    +0.000 OA
ENDBRANCH   1   8
BRANCH   6   9
ATOM      9  O   UNL     1      12.074   0.765   4.400  0.00  0.00    +0.000 OA
ATOM     10  H   UNL     1      11.154   0.942   4.127  0.00  0.00    +0.000 HD
ENDBRANCH   6   9
TORSDOF 2
ENDMDL
MODEL 2
REMARK VINA RESULT:    -4.847      2.233      3.277
REMARK INTER + INTRA:          -5.321
REMARK INTER:                  -5.270
REMARK INTRA:                  -0.051
REMARK UNBOUND:                -0.049
REMARK  Name = 
REMARK  3 active torsions:
REMARK  status: ('A' for Active; 'I' for Inactive)
REMARK    1  A    between atoms: C_1  and  O_2
REMARK    2  A    between atoms: O_2  and  C_3
REMARK    3  A    between atoms: C_8  and  O_9
REMARK                            x       y       z     vdW  Elec       q    Type
REMARK                         _______ _______ _______ _____ _____    ______ ____
ROOT
ATOM      1  C   UNL     1      11.595   0.936   7.872  0.00  0.00    +0.000 A 
ATOM      2  C   UNL     1      12.981   1.092   7.850  0.00  0.00    +0.000 A 
ATOM      3  C   UNL     1      13.658   1.158   6.625  0.00  0.00    +0.000 A 
ATOM      4  C   UNL     1      12.955   1.068   5.422  0.00  0.00    +0.000 A 
ATOM      5  C   UNL     1      11.571   0.913   5.437  0.00  0.00    +0.000 A 
ATOM      6  C   UNL     1      10.908   0.848   6.656  0.00  0.00    +0.000 A 
ENDROOT
BRANCH   1   8
ATOM      7  C   UNL     1      10.900   1.936   9.913  0.00  0.00    +0.000 C 
ATOM      8  O   UNL     1      10.806   0.856   8.992  0.00  0.00    +0.000 OA
ENDBRANCH   1   8
BRANCH   6   9
ATOM      9  O   UNL     1       9.547   0.695   6.644  0.00  0.00    +0.000 OA
ATOM     10  H   UNL     1       9.301   0.583   7.582  0.00  0.00    +0.000 HD
ENDBRANCH   6   9
TORSDOF 2
ENDMDL
MODEL 3
REMARK VINA RESULT:    -4.788     11.068     12.315
REMARK INTER + INTRA:          -5.257
REMARK INTER:                  -5.213
REMARK INTRA:                  -0.044
REMARK UNBOUND:                -0.049
REMARK  Name = 
REMARK  3 active torsions:
REMARK  status: ('A' for Active; 'I' for Inactive)
REMARK    1  A    between atoms: C_1  and  O_2
REMARK    2  A    between atoms: O_2  and  C_3
REMARK    3  A    between atoms: C_8  and  O_9
REMARK                            x       y       z     vdW  Elec       q    Type
REMARK                         _______ _______ _______ _____ _____    ______ ____
ROOT
ATOM      1  C   UNL     1       5.805  -7.965   9.474  0.00  0.00    +0.000 A 
ATOM      2  C   UNL     1       6.279  -9.245   9.192  0.00  0.00    +0.000 A 
ATOM      3  C   UNL     1       5.752  -9.964   8.111  0.00  0.00    +0.000 A 
ATOM      4  C   UNL     1       4.753  -9.407   7.311  0.00  0.00    +0.000 A 
ATOM      5  C   UNL     1       4.274  -8.129   7.586  0.00  0.00    +0.000 A 
ATOM      6  C   UNL     1       4.802  -7.423   8.661  0.00  0.00    +0.000 A 
ENDROOT
BRANCH   1   8
ATOM      7  C   UNL     1       7.620  -7.153  10.774  0.00  0.00    +0.000 C 
ATOM      8  O   UNL     1       6.225  -7.151  10.495  0.00  0.00    +0.000 OA
ENDBRANCH   1   8
BRANCH   6   9
ATOM      9  O   UNL     1       4.315  -6.168   8.912  0.00  0.00    +0.000 OA
ATOM     10  H   UNL     1       4.865  -5.831   9.645  0.00  0.00    +0.000 HD
ENDBRANCH   6   9
TORSDOF 2
ENDMDL
MODEL 4
REMARK VINA RESULT:    -4.703      1.354      2.877
REMARK INTER + INTRA:          -5.164
REMARK INTER:                  -5.125
REMARK INTRA:                  -0.039
REMARK UNBOUND:                -0.049
REMARK  Name = 
REMARK  3 active torsions:
REMARK  status: ('A' for Active; 'I' for Inactive)
REMARK    1  A    between atoms: C_1  and  O_2
REMARK    2  A    between atoms: O_2  and  C_3
REMARK    3  A    between atoms: C_8  and  O_9
REMARK                            x       y       z     vdW  Elec       q    Type
REMARK                         _______ _______ _______ _____ _____    ______ ____
ROOT
ATOM      1  C   UNL     1      11.998   1.705   6.134  0.00  0.00    +0.000 A 
ATOM      2  C   UNL     1      11.214   1.775   7.285  0.00  0.00    +0.000 A 
ATOM      3  C   UNL     1      11.577   2.637   8.327  0.00  0.00    +0.000 A 
ATOM      4  C   UNL     1      12.721   3.430   8.224  0.00  0.00    +0.000 A 
ATOM      5  C   UNL     1      13.509   3.366   7.077  0.00  0.00    +0.000 A 
ATOM      6  C   UNL     1      13.142   2.508   6.048  0.00  0.00    +0.000 A 
ENDROOT
BRANCH   1   8
ATOM      7  C   UNL     1      10.429   0.452   4.863  0.00  0.00    +0.000 C 
ATOM      8  O   UNL     1      11.764   0.909   5.042  0.00  0.00    +0.000 OA
ENDBRANCH   1   8
BRANCH   6   9
ATOM      9  O   UNL     1      13.932   2.462   4.931  0.00  0.00    +0.000 OA
ATOM     10  H   UNL     1      14.841   2.582   5.265  0.00  0.00    +0.000 HD
ENDBRANCH   6   9
TORSDOF 2
ENDMDL
MODEL 5
REMARK VINA RESULT:    -4.647      1.366      2.118
REMARK INTER + INTRA:          -5.104
REMARK INTER:                  -5.052
REMARK INTRA:                  -0.053
REMARK UNBOUND:                -0.049
REMARK  Name = 
REMARK  3 active torsions:
REMARK  status: ('A' for Active; 'I' for Inactive)
REMARK    1  A    between atoms: C_1  and  O_2
REMARK    2  A    between atoms: O_2  and  C_3
REMARK    3  A    between atoms: C_8  and  O_9
REMARK                            x       y       z     vdW  Elec       q    Type
REMARK                         _______ _______ _______ _____ _____    ______ ____
ROOT
ATOM      1  C   UNL     1      12.410   1.494   6.973  0.00  0.00    +0.000 A 
ATOM      2  C   UNL     1      11.276   0.975   7.597  0.00  0.00    +0.000 A 
ATOM      3  C   UNL     1      10.291   0.334   6.836  0.00  0.00    +0.000 A 
ATOM      4  C   UNL     1      10.433   0.210   5.453  0.00  0.00    +0.000 A 
ATOM      5  C   UNL     1      11.563   0.726   4.822  0.00  0.00    +0.000 A 
ATOM      6  C   UNL     1      12.535   1.360   5.584  0.00  0.00    +0.000 A 
ENDROOT
BRANCH   1   8
ATOM      7  C   UNL     1      13.141   3.384   8.213  0.00  0.00    +0.000 C 
ATOM      8  O   UNL     1      13.449   2.144   7.589  0.00  0.00    +0.000 OA
ENDBRANCH   1   8
BRANCH   6   9
ATOM      9  O   UNL     1      13.637   1.859   4.942  0.00  0.00    +0.000 OA
ATOM     10  H   UNL     1      14.383   1.660   5.538  0.00  0.00    +0.000 HD
ENDBRANCH   6   9
TORSDOF 2
ENDMDL
MODEL 6
REMARK VINA RESULT:    -4.618      2.058      2.801
REMARK INTER + INTRA:          -5.072
REMARK INTER:                  -5.051
REMARK INTRA:                  -0.021
REMARK UNBOUND:                -0.049
REMARK  Name = 
REMARK  3 active torsions:
REMARK  status: ('A' for Active; 'I' for Inactive)
REMARK    1  A    between atoms: C_1  and  O_2
REMARK    2  A    between atoms: O_2  and  C_3
REMARK    3  A    between atoms: C_8  and  O_9
REMARK                            x       y       z     vdW  Elec       q    Type
REMARK                         _______ _______ _______ _____ _____    ______ ____
ROOT
ATOM      1  C   UNL     1      12.271   1.465   7.076  0.00  0.00    +0.000 A 
ATOM      2  C   UNL     1      12.756   1.217   5.792  0.00  0.00    +0.000 A 
ATOM      3  C   UNL     1      11.905   0.688   4.813  0.00  0.00    +0.000 A 
ATOM      4  C   UNL     1      10.572   0.404   5.113  0.00  0.00    +0.000 A 
ATOM      5  C   UNL     1      10.080   0.649   6.393  0.00  0.00    +0.000 A 
ATOM      6  C   UNL     1      10.931   1.173   7.358  0.00  0.00    +0.000 A 
ENDROOT
BRANCH   1   8
ATOM      7  C   UNL     1      13.172   3.388   8.142  0.00  0.00    +0.000 C 
ATOM      8  O   UNL     1      12.987   1.977   8.128  0.00  0.00    +0.000 OA
ENDBRANCH   1   8
BRANCH   6   9
ATOM      9  O   UNL     1      10.425   1.405   8.609  0.00  0.00    +0.000 OA
ATOM     10  H   UNL     1       9.501   1.680   8.456  0.00  0.00    +0.000 HD
ENDBRANCH   6   9
TORSDOF 2
ENDMDL
MODEL 7
REMARK VINA RESULT:    -4.602      1.241      2.294
REMARK INTER + INTRA:          -5.055
REMARK INTER:                  -5.003
REMARK INTRA:                  -0.052
REMARK UNBOUND:                -0.049
REMARK  Name = 
REMARK  3 active torsions:
REMARK  status: ('A' for Active; 'I' for Inactive)
REMARK    1  A    between atoms: C_1  and  O_2
REMARK    2  A    between atoms: O_2  and  C_3
REMARK    3  A    between atoms: C_8  and  O_9
REMARK                            x       y       z     vdW  Elec       q    Type
REMARK                         _______ _______ _______ _____ _____    ______ ____
ROOT
ATOM      1  C   UNL     1      12.883   1.264   6.043  0.00  0.00    +0.000 A 
ATOM      2  C   UNL     1      12.045   0.942   4.976  0.00  0.00    +0.000 A 
ATOM      3  C   UNL     1      10.726   0.539   5.220  0.00  0.00    +0.000 A 
ATOM      4  C   UNL     1      10.241   0.456   6.526  0.00  0.00    +0.000 A 
ATOM      5  C   UNL     1      11.073   0.776   7.597  0.00  0.00    +0.000 A 
ATOM      6  C   UNL     1      12.380   1.174   7.346  0.00  0.00    +0.000 A 
ENDROOT
BRANCH   1   8
ATOM      7  C   UNL     1      14.418   2.959   5.396  0.00  0.00    +0.000 C 
ATOM      8  O   UNL     1      14.191   1.670   5.953  0.00  0.00    +0.000 OA
ENDBRANCH   1   8
BRANCH   6   9
ATOM      9  O   UNL     1      13.178   1.484   8.415  0.00  0.00    +0.000 OA
ATOM     10  H   UNL     1      13.847   0.774   8.439  0.00  0.00    +0.000 HD
ENDBRANCH   6   9
TORSDOF 2
ENDMDL
MODEL 8
REMARK VINA RESULT:    -4.593     11.475     12.175
REMARK INTER + INTRA:          -5.045
REMARK INTER:                  -4.993
REMARK INTRA:                  -0.052
REMARK UNBOUND:                -0.049
REMARK  Name = 
REMARK  3 active torsions:
REMARK  status: ('A' for Active; 'I' for Inactive)
REMARK    1  A    between atoms: C_1  and  O_2
REMARK    2  A    between atoms: O_2  and  C_3
REMARK    3  A    between atoms: C_8  and  O_9
REMARK                            x       y       z     vdW  Elec       q    Type
REMARK                         _______ _______ _______ _____ _____    ______ ____
ROOT
ATOM      1  C   UNL     1       6.430  -7.805   9.564  0.00  0.00    +0.000 A 
ATOM      2  C   UNL     1       5.147  -7.277   9.425  0.00  0.00    +0.000 A 
ATOM      3  C   UNL     1       4.243  -7.862   8.531  0.00  0.00    +0.000 A 
ATOM      4  C   UNL     1       4.616  -8.974   7.773  0.00  0.00    +0.000 A 
ATOM      5  C   UNL     1       5.895  -9.508   7.906  0.00  0.00    +0.000 A 
ATOM      6  C   UNL     1       6.786  -8.920   8.796  0.00  0.00    +0.000 A 
ENDROOT
BRANCH   1   8
ATOM      7  C   UNL     1       7.119  -7.330  11.788  0.00  0.00    +0.000 C 
ATOM      8  O   UNL     1       7.415  -7.336  10.396  0.00  0.00    +0.000 OA
ENDBRANCH   1   8
BRANCH   6   9
ATOM      9  O   UNL     1       8.038  -9.462   8.909  0.00  0.00    +0.000 OA
ATOM     10  H   UNL     1       8.503  -8.883   9.543  0.00  0.00    +0.000 HD
ENDBRANCH   6   9
TORSDOF 2
ENDMDL
MODEL 9
REMARK VINA RESULT:    -4.518      1.911      3.151
REMARK INTER + INTRA:          -4.963
REMARK INTER:                  -4.920
REMARK INTRA:                  -0.044
REMARK UNBOUND:                -0.049
REMARK  Name = 
REMARK  3 active torsions:
REMARK  status: ('A' for Active; 'I' for Inactive)
REMARK    1  A    between atoms: C_1  and  O_2
REMARK    2  A    between atoms: O_2  and  C_3
REMARK    3  A    between atoms: C_8  and  O_9
REMARK                            x       y       z     vdW  Elec       q    Type
REMARK                         _______ _______ _______ _____ _____    ______ ____
ROOT
ATOM      1  C   UNL     1      11.884   1.371   6.294  0.00  0.00    +0.000 A 
ATOM      2  C   UNL     1      12.955   2.140   5.841  0.00  0.00    +0.000 A 
ATOM      3  C   UNL     1      13.463   3.172   6.640  0.00  0.00    +0.000 A 
ATOM      4  C   UNL     1      12.903   3.440   7.891  0.00  0.00    +0.000 A 
ATOM      5  C   UNL     1      11.833   2.676   8.350  0.00  0.00    +0.000 A 
ATOM      6  C   UNL     1      11.336   1.654   7.551  0.00  0.00    +0.000 A 
ENDROOT
BRANCH   1   8
ATOM      7  C   UNL     1      10.448   0.687   4.529  0.00  0.00    +0.000 C 
ATOM      8  O   UNL     1      11.288   0.335   5.621  0.00  0.00    +0.000 OA
ENDBRANCH   1   8
BRANCH   6   9
ATOM      9  O   UNL     1      10.283   0.917   8.025  0.00  0.00    +0.000 OA
ATOM     10  H   UNL     1      10.075   0.291   7.305  0.00  0.00    +0.000 HD
ENDBRANCH   6   9
TORSDOF 2
ENDMDL
