MODEL 1
REMARK VINA RESULT:    -4.105      0.000      0.000
REMARK INTER + INTRA:          -5.795
REMARK INTER:                  -5.545
REMARK INTRA:                  -0.250
REMARK UNBOUND:                -0.250
REMARK  Name = 
REMARK  10 active torsions:
REMARK  status: ('A' for Active; 'I' for Inactive)
REMARK    1  A    between atoms: C_1  and  C_2
REMARK    2  A    between atoms: C_5  and  N_8
REMARK    3  A    between atoms: N_8  and  C_9
REMARK    4  A    between atoms: N_8  and  C_13
REMARK    5  A    between atoms: C_9  and  C_10
REMARK    6  A    between atoms: C_10  and  C_11
REMARK    7  A    between atoms: C_10  and  O_12
REMARK    8  A    between atoms: C_13  and  C_14
REMARK    9  A    between atoms: C_14  and  C_15
REMARK   10  A    between atoms: C_14  and  O_16
REMARK                            x       y       z     vdW  Elec       q    Type
REMARK                         _______ _______ _______ _____ _____    ______ ____
ROOT
ATOM      1  N   UNL     1       3.292  19.346  -3.224  0.00  0.00    +0.000 N 
ENDROOT
BRANCH   1   6
ATOM      2  C   UNL     1       8.583  19.741  -0.950  0.00  0.00    +0.000 C 
ATOM      3  C   UNL     1       7.203  19.657  -1.525  0.00  0.00    +0.000 A 
ATOM      4  C   UNL     1       6.271  18.758  -1.015  0.00  0.00    +0.000 A 
ATOM      5  C   UNL     1       4.987  18.662  -1.578  0.00  0.00    +0.000 A 
ATOM      6  C   UNL     1       4.580  19.433  -2.681  0.00  0.00    +0.000 A 
ATOM      7  C   UNL     1       5.547  20.332  -3.168  0.00  0.00    +0.000 A 
ATOM      8  C   UNL     1       6.833  20.440  -2.614  0.00  0.00    +0.000 A 
ENDBRANCH   1   6
BRANCH   1   9
ATOM      9  C   UNL     1       2.848  20.326  -4.245  0.00  0.00    +0.000 C 
BRANCH   9  10
ATOM     10  C   UNL     1       2.915  19.764  -5.686  0.00  0.00    +0.000 C 
ATOM     11  C   UNL     1       4.024  20.439  -6.483  0.00  0.00    +0.000 C 
BRANCH  10  12
ATOM     12  O   UNL     1       3.171  18.352  -5.677  0.00  0.00    +0.000 OA
ATOM     13  H   UNL     1       2.912  18.005  -4.807  0.00  0.00    +0.000 HD
ENDBRANCH  10  12
ENDBRANCH   9  10
ENDBRANCH   1   9
BRANCH   1  14
ATOM     14  C   UNL     1       2.193  18.665  -2.493  0.00  0.00    +0.000 C 
BRANCH  14  15
ATOM     15  C   UNL     1       0.909  19.527  -2.433  0.00  0.00    +0.000 C 
ATOM     16  C   UNL     1      -0.117  19.149  -3.495  0.00  0.00    +0.000 C 
BRANCH  15  17
ATOM     17  O   UNL     1       0.276  19.441  -1.157  0.00  0.00    +0.000 OA
ATOM     18  H   UNL     1       0.915  19.837  -0.530  0.00  0.00    +0.000 HD
ENDBRANCH  15  17
ENDBRANCH  14  15
ENDBRANCH   1  14
TORSDOF 7
ENDMDL
MODEL 2
REMARK VINA RESULT:    -4.016     11.529     14.051
REMARK INTER + INTRA:          -5.675
REMARK INTER:                  -5.180
REMARK INTRA:                  -0.495
REMARK UNBOUND:                -0.250
REMARK  Name = 
REMARK  10 active torsions:
REMARK  status: ('A' for Active; 'I' for Inactive)
REMARK    1  A    between atoms: C_1  and  C_2
REMARK    2  A    between atoms: C_5  and  N_8
REMARK    3  A    between atoms: N_8  and  C_9
REMARK    4  A    between atoms: N_8  and  C_13
REMARK    5  A    between atoms: C_9  and  C_10
REMARK    6  A    between atoms: C_10  and  C_11
REMARK    7  A    between atoms: C_10  and  O_12
REMARK    8  A    between atoms: C_13  and  C_14
REMARK    9  A    between atoms: C_14  and  C_15
REMARK   10  A    between atoms: C_14  and  O_16
REMARK                            x       y       z     vdW  Elec       q    Type
REMARK                         _______ _______ _______ _____ _____    ______ ____
ROOT
ATOM      1  N   UNL     1      15.656  18.015   2.993  0.00  0.00    +0.000 N 
ENDROOT
BRANCH   1   6
ATOM      2  C   UNL     1      21.137  17.588   1.231  0.00  0.00    +0.000 C 
ATOM      3  C   UNL     1      19.713  17.722   1.678  0.00  0.00    +0.000 A 
ATOM      4  C   UNL     1      19.405  18.207   2.945  0.00  0.00    +0.000 A 
ATOM      5  C   UNL     1      18.070  18.302   3.370  0.00  0.00    +0.000 A 
ATOM      6  C   UNL     1      16.986  17.900   2.570  0.00  0.00    +0.000 A 
ATOM      7  C   UNL     1      17.334  17.416   1.295  0.00  0.00    +0.000 A 
ATOM      8  C   UNL     1      18.665  17.318   0.857  0.00  0.00    +0.000 A 
ENDBRANCH   1   6
BRANCH   1   9
ATOM      9  C   UNL     1      15.129  17.112   4.044  0.00  0.00    +0.000 C 
BRANCH   9  10
ATOM     10  C   UNL     1      14.850  15.681   3.521  0.00  0.00    +0.000 C 
ATOM     11  C   UNL     1      15.909  14.704   4.018  0.00  0.00    +0.000 C 
BRANCH  10  12
ATOM     12  O   UNL     1      13.569  15.212   3.965  0.00  0.00    +0.000 OA
ATOM     13  H   UNL     1      13.401  14.352   3.544  0.00  0.00    +0.000 HD
ENDBRANCH  10  12
ENDBRANCH   9  10
ENDBRANCH   1   9
BRANCH   1  14
ATOM     14  C   UNL     1      14.621  18.627   2.120  0.00  0.00    +0.000 C 
BRANCH  14  15
ATOM     15  C   UNL     1      13.411  19.153   2.928  0.00  0.00    +0.000 C 
ATOM     16  C   UNL     1      13.732  20.396   3.749  0.00  0.00    +0.000 C 
BRANCH  15  17
ATOM     17  O   UNL     1      12.303  19.456   2.081  0.00  0.00    +0.000 OA
ATOM     18  H   UNL     1      12.703  19.751   1.238  0.00  0.00    +0.000 HD
ENDBRANCH  15  17
ENDBRANCH  14  15
ENDBRANCH   1  14
TORSDOF 7
ENDMDL
MODEL 3
REMARK VINA RESULT:    -3.888     12.757     15.641
REMARK INTER + INTRA:          -5.502
REMARK INTER:                  -5.210
REMARK INTRA:                  -0.291
REMARK UNBOUND:                -0.250
REMARK  Name = 
REMARK  10 active torsions:
REMARK  status: ('A' for Active; 'I' for Inactive)
REMARK    1  A    between atoms: C_1  and  C_2
REMARK    2  A    between atoms: C_5  and  N_8
REMARK    3  A    between atoms: N_8  and  C_9
REMARK    4  A    between atoms: N_8  and  C_13
REMARK    5  A    between atoms: C_9  and  C_10
REMARK    6  A    between atoms: C_10  and  C_11
REMARK    7  A    between atoms: C_10  and  O_12
REMARK    8  A    between atoms: C_13  and  C_14
REMARK    9  A    between atoms: C_14  and  C_15
REMARK   10  A    between atoms: C_14  and  O_16
REMARK                            x       y       z     vdW  Elec       q    Type
REMARK                         _______ _______ _______ _____ _____    ______ ____
ROOT
ATOM      1  N   UNL     1      17.620  17.876   2.356  0.00  0.00    +0.000 N 
ENDROOT
BRANCH   1   6
ATOM      2  C   UNL     1      17.572  12.356   4.045  0.00  0.00    +0.000 C 
ATOM      3  C   UNL     1      17.574  13.781   3.584  0.00  0.00    +0.000 A 
ATOM      4  C   UNL     1      18.691  14.329   2.961  0.00  0.00    +0.000 A 
ATOM      5  C   UNL     1      18.699  15.674   2.559  0.00  0.00    +0.000 A 
ATOM      6  C   UNL     1      17.613  16.540   2.777  0.00  0.00    +0.000 A 
ATOM      7  C   UNL     1      16.500  15.953   3.407  0.00  0.00    +0.000 A 
ATOM      8  C   UNL     1      16.478  14.608   3.813  0.00  0.00    +0.000 A 
ENDBRANCH   1   6
BRANCH   1   9
ATOM      9  C   UNL     1      17.042  18.244   1.041  0.00  0.00    +0.000 C 
BRANCH   9  10
ATOM     10  C   UNL     1      15.530  18.568   1.119  0.00  0.00    +0.000 C 
ATOM     11  C   UNL     1      15.199  19.314   2.406  0.00  0.00    +0.000 C 
BRANCH  10  12
ATOM     12  O   UNL     1      15.120  19.385   0.014  0.00  0.00    +0.000 OA
ATOM     13  H   UNL     1      14.709  18.808  -0.651  0.00  0.00    +0.000 HD
ENDBRANCH  10  12
ENDBRANCH   9  10
ENDBRANCH   1   9
BRANCH   1  14
ATOM     14  C   UNL     1      18.602  18.848   2.900  0.00  0.00    +0.000 C 
BRANCH  14  15
ATOM     15  C   UNL     1      19.892  18.915   2.048  0.00  0.00    +0.000 C 
ATOM     16  C   UNL     1      20.130  20.286   1.426  0.00  0.00    +0.000 C 
BRANCH  15  17
ATOM     17  O   UNL     1      21.047  18.570   2.811  0.00  0.00    +0.000 OA
ATOM     18  H   UNL     1      21.061  19.210   3.551  0.00  0.00    +0.000 HD
ENDBRANCH  15  17
ENDBRANCH  14  15
ENDBRANCH   1  14
TORSDOF 7
ENDMDL
MODEL 4
REMARK VINA RESULT:    -3.821      1.310      3.480
REMARK INTER + INTRA:          -5.411
REMARK INTER:                  -5.261
REMARK INTRA:                  -0.150
REMARK UNBOUND:                -0.250
REMARK  Name = 
REMARK  10 active torsions:
REMARK  status: ('A' for Active; 'I' for Inactive)
REMARK    1  A    between atoms: C_1  and  C_2
REMARK    2  A    between atoms: C_5  and  N_8
REMARK    3  A    between atoms: N_8  and  C_9
REMARK    4  A    between atoms: N_8  and  C_13
REMARK    5  A    between atoms: C_9  and  C_10
REMARK    6  A    between atoms: C_10  and  C_11
REMARK    7  A    between atoms: C_10  and  O_12
REMARK    8  A    between atoms: C_13  and  C_14
REMARK    9  A    between atoms: C_14  and  C_15
REMARK   10  A    between atoms: C_14  and  O_16
REMARK                            x       y       z     vdW  Elec       q    Type
REMARK                         _______ _______ _______ _____ _____    ______ ____
ROOT
ATOM      1  N   UNL     1       2.687  20.426  -3.363  0.00  0.00    +0.000 N 
ENDROOT
BRANCH   1   6
ATOM      2  C   UNL     1       7.486  18.447  -0.836  0.00  0.00    +0.000 C 
ATOM      3  C   UNL     1       6.243  18.943  -1.509  0.00  0.00    +0.000 A 
ATOM      4  C   UNL     1       6.301  19.958  -2.458  0.00  0.00    +0.000 A 
ATOM      5  C   UNL     1       5.129  20.440  -3.064  0.00  0.00    +0.000 A 
ATOM      6  C   UNL     1       3.850  19.955  -2.741  0.00  0.00    +0.000 A 
ATOM      7  C   UNL     1       3.829  18.927  -1.779  0.00  0.00    +0.000 A 
ATOM      8  C   UNL     1       4.993  18.435  -1.167  0.00  0.00    +0.000 A 
ENDBRANCH   1   6
BRANCH   1   9
ATOM      9  C   UNL     1       1.401  20.436  -2.626  0.00  0.00    +0.000 C 
BRANCH   9  10
ATOM     10  C   UNL     1       0.579  19.141  -2.836  0.00  0.00    +0.000 C 
ATOM     11  C   UNL     1      -0.247  18.813  -1.597  0.00  0.00    +0.000 C 
BRANCH  10  12
ATOM     12  O   UNL     1      -0.320  19.275  -3.946  0.00  0.00    +0.000 OA
ATOM     13  H   UNL     1      -0.039  18.654  -4.637  0.00  0.00    +0.000 HD
ENDBRANCH  10  12
ENDBRANCH   9  10
ENDBRANCH   1   9
BRANCH   1  14
ATOM     14  C   UNL     1       2.559  20.439  -4.843  0.00  0.00    +0.000 C 
BRANCH  14  15
ATOM     15  C   UNL     1       3.364  19.298  -5.510  0.00  0.00    +0.000 C 
ATOM     16  C   UNL     1       2.550  18.025  -5.705  0.00  0.00    +0.000 C 
BRANCH  15  17
ATOM     17  O   UNL     1       3.883  19.691  -6.780  0.00  0.00    +0.000 OA
ATOM     18  H   UNL     1       4.787  20.014  -6.594  0.00  0.00    +0.000 HD
ENDBRANCH  15  17
ENDBRANCH  14  15
ENDBRANCH   1  14
TORSDOF 7
ENDMDL
MODEL 5
REMARK VINA RESULT:    -3.821     11.523     14.650
REMARK INTER + INTRA:          -5.411
REMARK INTER:                  -4.890
REMARK INTRA:                  -0.521
REMARK UNBOUND:                -0.250
REMARK  Name = 
REMARK  10 active torsions:
REMARK  status: ('A' for Active; 'I' for Inactive)
REMARK    1  A    between atoms: C_1  and  C_2
REMARK    2  A    between atoms: C_5  and  N_8
REMARK    3  A    between atoms: N_8  and  C_9
REMARK    4  A    between atoms: N_8  and  C_13
REMARK    5  A    between atoms: C_9  and  C_10
REMARK    6  A    between atoms: C_10  and  C_11
REMARK    7  A    between atoms: C_10  and  O_12
REMARK    8  A    between atoms: C_13  and  C_14
REMARK    9  A    between atoms: C_14  and  C_15
REMARK   10  A    between atoms: C_14  and  O_16
REMARK                            x       y       z     vdW  Elec       q    Type
REMARK                         _______ _______ _______ _____ _____    ______ ____
ROOT
ATOM      1  N   UNL     1      16.598  17.646   2.699  0.00  0.00    +0.000 N 
ENDROOT
BRANCH   1   6
ATOM      2  C   UNL     1      21.496  19.714   0.449  0.00  0.00    +0.000 C 
ATOM      3  C   UNL     1      20.214  19.179   1.011  0.00  0.00    +0.000 A 
ATOM      4  C   UNL     1      19.285  20.028   1.604  0.00  0.00    +0.000 A 
ATOM      5  C   UNL     1      18.098  19.518   2.155  0.00  0.00    +0.000 A 
ATOM      6  C   UNL     1      17.792  18.145   2.164  0.00  0.00    +0.000 A 
ATOM      7  C   UNL     1      18.752  17.317   1.555  0.00  0.00    +0.000 A 
ATOM      8  C   UNL     1      19.942  17.814   0.997  0.00  0.00    +0.000 A 
ENDBRANCH   1   6
BRANCH   1   9
ATOM      9  C   UNL     1      16.163  16.263   2.384  0.00  0.00    +0.000 C 
BRANCH   9  10
ATOM     10  C   UNL     1      16.274  15.308   3.597  0.00  0.00    +0.000 C 
ATOM     11  C   UNL     1      14.935  14.641   3.890  0.00  0.00    +0.000 C 
BRANCH  10  12
ATOM     12  O   UNL     1      17.240  14.276   3.353  0.00  0.00    +0.000 OA
ATOM     13  H   UNL     1      17.850  14.250   4.109  0.00  0.00    +0.000 HD
ENDBRANCH  10  12
ENDBRANCH   9  10
ENDBRANCH   1   9
BRANCH   1  14
ATOM     14  C   UNL     1      15.510  18.558   3.136  0.00  0.00    +0.000 C 
BRANCH  14  15
ATOM     15  C   UNL     1      14.310  18.548   2.157  0.00  0.00    +0.000 C 
ATOM     16  C   UNL     1      13.075  19.243   2.716  0.00  0.00    +0.000 C 
BRANCH  15  17
ATOM     17  O   UNL     1      14.640  19.164   0.914  0.00  0.00    +0.000 OA
ATOM     18  H   UNL     1      15.373  19.777   1.122  0.00  0.00    +0.000 HD
ENDBRANCH  15  17
ENDBRANCH  14  15
ENDBRANCH   1  14
TORSDOF 7
ENDMDL
MODEL 6
REMARK VINA RESULT:    -3.724     13.064     15.435
REMARK INTER + INTRA:          -5.280
REMARK INTER:                  -4.822
REMARK INTRA:                  -0.458
REMARK UNBOUND:                -0.250
REMARK  Name = 
REMARK  10 active torsions:
REMARK  status: ('A' for Active; 'I' for Inactive)
REMARK    1  A    between atoms: C_1  and  C_2
REMARK    2  A    between atoms: C_5  and  N_8
REMARK    3  A    between atoms: N_8  and  C_9
REMARK    4  A    between atoms: N_8  and  C_13
REMARK    5  A    between atoms: C_9  and  C_10
REMARK    6  A    between atoms: C_10  and  C_11
REMARK    7  A    between atoms: C_10  and  O_12
REMARK    8  A    between atoms: C_13  and  C_14
REMARK    9  A    between atoms: C_14  and  C_15
REMARK   10  A    between atoms: C_14  and  O_16
REMARK                            x       y       z     vdW  Elec       q    Type
REMARK                         _______ _______ _______ _____ _____    ______ ____
ROOT
ATOM      1  N   UNL     1      17.368  17.888   2.785  0.00  0.00    +0.000 N 
ENDROOT
BRANCH   1   6
ATOM      2  C   UNL     1      17.611  12.225   3.879  0.00  0.00    +0.000 C 
ATOM      3  C   UNL     1      17.543  13.689   3.571  0.00  0.00    +0.000 A 
ATOM      4  C   UNL     1      18.684  14.397   3.210  0.00  0.00    +0.000 A 
ATOM      5  C   UNL     1      18.620  15.776   2.952  0.00  0.00    +0.000 A 
ATOM      6  C   UNL     1      17.429  16.517   3.063  0.00  0.00    +0.000 A 
ATOM      7  C   UNL     1      16.295  15.768   3.428  0.00  0.00    +0.000 A 
ATOM      8  C   UNL     1      16.345  14.388   3.687  0.00  0.00    +0.000 A 
ENDBRANCH   1   6
BRANCH   1   9
ATOM      9  C   UNL     1      18.336  18.818   3.417  0.00  0.00    +0.000 C 
BRANCH   9  10
ATOM     10  C   UNL     1      19.307  19.458   2.395  0.00  0.00    +0.000 C 
ATOM     11  C   UNL     1      20.599  19.899   3.073  0.00  0.00    +0.000 C 
BRANCH  10  12
ATOM     12  O   UNL     1      19.646  18.529   1.356  0.00  0.00    +0.000 OA
ATOM     13  H   UNL     1      20.113  19.016   0.657  0.00  0.00    +0.000 HD
ENDBRANCH  10  12
ENDBRANCH   9  10
ENDBRANCH   1   9
BRANCH   1  14
ATOM     14  C   UNL     1      16.111  18.522   2.312  0.00  0.00    +0.000 C 
BRANCH  14  15
ATOM     15  C   UNL     1      16.124  18.777   0.786  0.00  0.00    +0.000 C 
ATOM     16  C   UNL     1      16.478  17.537  -0.027  0.00  0.00    +0.000 C 
BRANCH  15  17
ATOM     17  O   UNL     1      14.866  19.264   0.322  0.00  0.00    +0.000 OA
ATOM     18  H   UNL     1      14.315  18.465   0.199  0.00  0.00    +0.000 HD
ENDBRANCH  15  17
ENDBRANCH  14  15
ENDBRANCH   1  14
TORSDOF 7
ENDMDL
MODEL 7
REMARK VINA RESULT:    -3.521     12.414     15.563
REMARK INTER + INTRA:          -5.007
REMARK INTER:                  -4.466
REMARK INTRA:                  -0.540
REMARK UNBOUND:                -0.250
REMARK  Name = 
REMARK  10 active torsions:
REMARK  status: ('A' for Active; 'I' for Inactive)
REMARK    1  A    between atoms: C_1  and  C_2
REMARK    2  A    between atoms: C_5  and  N_8
REMARK    3  A    between atoms: N_8  and  C_9
REMARK    4  A    between atoms: N_8  and  C_13
REMARK    5  A    between atoms: C_9  and  C_10
REMARK    6  A    between atoms: C_10  and  C_11
REMARK    7  A    between atoms: C_10  and  O_12
REMARK    8  A    between atoms: C_13  and  C_14
REMARK    9  A    between atoms: C_14  and  C_15
REMARK   10  A    between atoms: C_14  and  O_16
REMARK                            x       y       z     vdW  Elec       q    Type
REMARK                         _______ _______ _______ _____ _____    ______ ____
ROOT
ATOM      1  N   UNL     1      17.762  16.765   2.061  0.00  0.00    +0.000 N 
ENDROOT
BRANCH   1   6
ATOM      2  C   UNL     1      12.848  19.609   3.102  0.00  0.00    +0.000 C 
ATOM      3  C   UNL     1      14.110  18.851   2.824  0.00  0.00    +0.000 A 
ATOM      4  C   UNL     1      14.727  18.102   3.820  0.00  0.00    +0.000 A 
ATOM      5  C   UNL     1      15.926  17.418   3.563  0.00  0.00    +0.000 A 
ATOM      6  C   UNL     1      16.577  17.465   2.316  0.00  0.00    +0.000 A 
ATOM      7  C   UNL     1      15.923  18.230   1.333  0.00  0.00    +0.000 A 
ATOM      8  C   UNL     1      14.723  18.917   1.577  0.00  0.00    +0.000 A 
ENDBRANCH   1   6
BRANCH   1   9
ATOM      9  C   UNL     1      18.381  15.936   3.124  0.00  0.00    +0.000 C 
BRANCH   9  10
ATOM     10  C   UNL     1      18.943  14.596   2.590  0.00  0.00    +0.000 C 
ATOM     11  C   UNL     1      20.436  14.480   2.874  0.00  0.00    +0.000 C 
BRANCH  10  12
ATOM     12  O   UNL     1      18.286  13.480   3.205  0.00  0.00    +0.000 OA
ATOM     13  H   UNL     1      17.578  13.181   2.610  0.00  0.00    +0.000 HD
ENDBRANCH  10  12
ENDBRANCH   9  10
ENDBRANCH   1   9
BRANCH   1  14
ATOM     14  C   UNL     1      18.691  17.192   0.983  0.00  0.00    +0.000 C 
BRANCH  14  15
ATOM     15  C   UNL     1      19.820  18.108   1.515  0.00  0.00    +0.000 C 
ATOM     16  C   UNL     1      21.145  17.909   0.788  0.00  0.00    +0.000 C 
BRANCH  15  17
ATOM     17  O   UNL     1      19.469  19.487   1.422  0.00  0.00    +0.000 OA
ATOM     18  H   UNL     1      18.814  19.533   0.696  0.00  0.00    +0.000 HD
ENDBRANCH  15  17
ENDBRANCH  14  15
ENDBRANCH   1  14
TORSDOF 7
ENDMDL
MODEL 8
REMARK VINA RESULT:    -3.501     12.352     14.345
REMARK INTER + INTRA:          -4.979
REMARK INTER:                  -4.679
REMARK INTRA:                  -0.301
REMARK UNBOUND:                -0.250
REMARK  Name = 
REMARK  10 active torsions:
REMARK  status: ('A' for Active; 'I' for Inactive)
REMARK    1  A    between atoms: C_1  and  C_2
REMARK    2  A    between atoms: C_5  and  N_8
REMARK    3  A    between atoms: N_8  and  C_9
REMARK    4  A    between atoms: N_8  and  C_13
REMARK    5  A    between atoms: C_9  and  C_10
REMARK    6  A    between atoms: C_10  and  C_11
REMARK    7  A    between atoms: C_10  and  O_12
REMARK    8  A    between atoms: C_13  and  C_14
REMARK    9  A    between atoms: C_14  and  C_15
REMARK   10  A    between atoms: C_14  and  O_16
REMARK                            x       y       z     vdW  Elec       q    Type
REMARK                         _______ _______ _______ _____ _____    ______ ____
ROOT
ATOM      1  N   UNL     1      16.699  18.566   2.760  0.00  0.00    +0.000 N 
ENDROOT
BRANCH   1   6
ATOM      2  C   UNL     1      20.387  14.125   2.677  0.00  0.00    +0.000 C 
ATOM      3  C   UNL     1      19.437  15.283   2.722  0.00  0.00    +0.000 A 
ATOM      4  C   UNL     1      18.116  15.108   3.120  0.00  0.00    +0.000 A 
ATOM      5  C   UNL     1      17.222  16.191   3.131  0.00  0.00    +0.000 A 
ATOM      6  C   UNL     1      17.591  17.486   2.727  0.00  0.00    +0.000 A 
ATOM      7  C   UNL     1      18.934  17.627   2.333  0.00  0.00    +0.000 A 
ATOM      8  C   UNL     1      19.839  16.553   2.319  0.00  0.00    +0.000 A 
ENDBRANCH   1   6
BRANCH   1   9
ATOM      9  C   UNL     1      16.739  19.595   1.693  0.00  0.00    +0.000 C 
BRANCH   9  10
ATOM     10  C   UNL     1      15.956  19.176   0.425  0.00  0.00    +0.000 C 
ATOM     11  C   UNL     1      16.248  17.726   0.058  0.00  0.00    +0.000 C 
BRANCH  10  12
ATOM     12  O   UNL     1      14.542  19.307   0.626  0.00  0.00    +0.000 OA
ATOM     13  H   UNL     1      14.265  18.632   1.267  0.00  0.00    +0.000 HD
ENDBRANCH  10  12
ENDBRANCH   9  10
ENDBRANCH   1   9
BRANCH   1  14
ATOM     14  C   UNL     1      16.074  19.009   4.032  0.00  0.00    +0.000 C 
BRANCH  14  15
ATOM     15  C   UNL     1      14.544  18.774   4.045  0.00  0.00    +0.000 C 
ATOM     16  C   UNL     1      13.740  20.048   3.810  0.00  0.00    +0.000 C 
BRANCH  15  17
ATOM     17  O   UNL     1      14.150  17.816   3.064  0.00  0.00    +0.000 OA
ATOM     18  H   UNL     1      13.206  18.006   2.890  0.00  0.00    +0.000 HD
ENDBRANCH  15  17
ENDBRANCH  14  15
ENDBRANCH   1  14
TORSDOF 7
ENDMDL
MODEL 9
REMARK VINA RESULT:    -3.034     12.491     14.616
REMARK INTER + INTRA:          -4.348
REMARK INTER:                  -4.124
REMARK INTRA:                  -0.224
REMARK UNBOUND:                -0.250
REMARK  Name = 
REMARK  10 active torsions:
REMARK  status: ('A' for Active; 'I' for Inactive)
REMARK    1  A    between atoms: C_1  and  C_2
REMARK    2  A    between atoms: C_5  and  N_8
REMARK    3  A    between atoms: N_8  and  C_9
REMARK    4  A    between atoms: N_8  and  C_13
REMARK    5  A    between atoms: C_9  and  C_10
REMARK    6  A    between atoms: C_10  and  C_11
REMARK    7  A    between atoms: C_10  and  O_12
REMARK    8  A    between atoms: C_13  and  C_14
REMARK    9  A    between atoms: C_14  and  C_15
REMARK   10  A    between atoms: C_14  and  O_16
REMARK                            x       y       z     vdW  Elec       q    Type
REMARK                         _______ _______ _______ _____ _____    ______ ____
ROOT
ATOM      1  N   UNL     1      15.883  18.478   3.108  0.00  0.00    +0.000 N 
ENDROOT
BRANCH   1   6
ATOM      2  C   UNL     1      21.501  19.805   3.018  0.00  0.00    +0.000 C 
ATOM      3  C   UNL     1      20.045  19.456   3.066  0.00  0.00    +0.000 A 
ATOM      4  C   UNL     1      19.613  18.156   2.825  0.00  0.00    +0.000 A 
ATOM      5  C   UNL     1      18.245  17.841   2.841  0.00  0.00    +0.000 A 
ATOM      6  C   UNL     1      17.245  18.803   3.073  0.00  0.00    +0.000 A 
ATOM      7  C   UNL     1      17.718  20.106   3.315  0.00  0.00    +0.000 A 
ATOM      8  C   UNL     1      19.083  20.434   3.304  0.00  0.00    +0.000 A 
ENDBRANCH   1   6
BRANCH   1   9
ATOM      9  C   UNL     1      15.390  17.440   4.045  0.00  0.00    +0.000 C 
BRANCH   9  10
ATOM     10  C   UNL     1      15.169  16.069   3.360  0.00  0.00    +0.000 C 
ATOM     11  C   UNL     1      16.213  15.057   3.817  0.00  0.00    +0.000 C 
BRANCH  10  12
ATOM     12  O   UNL     1      13.872  15.541   3.671  0.00  0.00    +0.000 OA
ATOM     13  H   UNL     1      13.789  15.497   4.638  0.00  0.00    +0.000 HD
ENDBRANCH  10  12
ENDBRANCH   9  10
ENDBRANCH   1   9
BRANCH   1  14
ATOM     14  C   UNL     1      15.002  18.734   1.939  0.00  0.00    +0.000 C 
BRANCH  14  15
ATOM     15  C   UNL     1      15.809  19.005   0.647  0.00  0.00    +0.000 C 
ATOM     16  C   UNL     1      16.313  17.733  -0.023  0.00  0.00    +0.000 C 
BRANCH  15  17
ATOM     17  O   UNL     1      15.043  19.735  -0.310  0.00  0.00    +0.000 OA
ATOM     18  H   UNL     1      14.113  19.494  -0.126  0.00  0.00    +0.000 HD
ENDBRANCH  15  17
ENDBRANCH  14  15
ENDBRANCH   1  14
TORSDOF 7
ENDMDL
