MODEL 1
REMARK VINA RESULT:    -5.739      0.000      0.000
REMARK INTER + INTRA:          -8.039
REMARK INTER:                  -7.752
REMARK INTRA:                  -0.287
REMARK UNBOUND:                -0.287
REMARK  Name = 
REMARK  10 active torsions:
REMARK  status: ('A' for Active; 'I' for Inactive)
REMARK    1  A    between atoms: C_1  and  C_2
REMARK    2  A    between atoms: C_5  and  N_8
REMARK    3  A    between atoms: N_8  and  C_9
REMARK    4  A    between atoms: N_8  and  C_13
REMARK    5  A    between atoms: C_9  and  C_10
REMARK    6  A    between atoms: C_10  and  C_11
REMARK    7  A    between atoms: C_10  and  O_12
REMARK    8  A    between atoms: C_13  and  C_14
REMARK    9  A    between atoms: C_14  and  C_15
REMARK   10  A    between atoms: C_14  and  O_16
REMARK                            x       y       z     vdW  Elec       q    Type
REMARK                         _______ _______ _______ _____ _____    ______ ____
ROOT
ATOM      1  N   UNL     1      -9.269   4.982 -16.642  0.00  0.00    +0.000 N 
ENDROOT
BRANCH   1   6
ATOM      2  C   UNL     1     -12.120   7.865 -12.533  0.00  0.00    +0.000 C 
ATOM      3  C   UNL     1     -11.384   7.136 -13.615  0.00  0.00    +0.000 A 
ATOM      4  C   UNL     1     -12.044   6.239 -14.448  0.00  0.00    +0.000 A 
ATOM      5  C   UNL     1     -11.344   5.536 -15.442  0.00  0.00    +0.000 A 
ATOM      6  C   UNL     1      -9.957   5.672 -15.637  0.00  0.00    +0.000 A 
ATOM      7  C   UNL     1      -9.323   6.589 -14.778  0.00  0.00    +0.000 A 
ATOM      8  C   UNL     1     -10.012   7.300 -13.782  0.00  0.00    +0.000 A 
ENDBRANCH   1   6
BRANCH   1   9
ATOM      9  C   UNL     1      -9.355   3.504 -16.723  0.00  0.00    +0.000 C 
BRANCH   9  10
ATOM     10  C   UNL     1      -8.424   2.906 -17.806  0.00  0.00    +0.000 C 
ATOM     11  C   UNL     1      -7.315   2.075 -17.172  0.00  0.00    +0.000 C 
BRANCH  10  12
ATOM     12  O   UNL     1      -9.155   2.060 -18.704  0.00  0.00    +0.000 OA
ATOM     13  H   UNL     1      -9.260   1.192 -18.281  0.00  0.00    +0.000 HD
ENDBRANCH  10  12
ENDBRANCH   9  10
ENDBRANCH   1   9
BRANCH   1  14
ATOM     14  C   UNL     1      -8.078   5.575 -17.305  0.00  0.00    +0.000 C 
BRANCH  14  15
ATOM     15  C   UNL     1      -8.466   6.517 -18.470  0.00  0.00    +0.000 C 
ATOM     16  C   UNL     1      -8.882   7.907 -18.004  0.00  0.00    +0.000 C 
BRANCH  15  17
ATOM     17  O   UNL     1      -7.400   6.665 -19.406  0.00  0.00    +0.000 OA
ATOM     18  H   UNL     1      -6.810   5.901 -19.240  0.00  0.00    +0.000 HD
ENDBRANCH  15  17
ENDBRANCH  14  15
ENDBRANCH   1  14
TORSDOF 7
ENDMDL
MODEL 2
REMARK VINA RESULT:    -5.544      2.739      5.749
REMARK INTER + INTRA:          -7.776
REMARK INTER:                  -7.481
REMARK INTRA:                  -0.294
REMARK UNBOUND:                -0.287
REMARK  Name = 
REMARK  10 active torsions:
REMARK  status: ('A' for Active; 'I' for Inactive)
REMARK    1  A    between atoms: C_1  and  C_2
REMARK    2  A    between atoms: C_5  and  N_8
REMARK    3  A    between atoms: N_8  and  C_9
REMARK    4  A    between atoms: N_8  and  C_13
REMARK    5  A    between atoms: C_9  and  C_10
REMARK    6  A    between atoms: C_10  and  C_11
REMARK    7  A    between atoms: C_10  and  O_12
REMARK    8  A    between atoms: C_13  and  C_14
REMARK    9  A    between atoms: C_14  and  C_15
REMARK   10  A    between atoms: C_14  and  O_16
REMARK                            x       y       z     vdW  Elec       q    Type
REMARK                         _______ _______ _______ _____ _____    ______ ____
ROOT
ATOM      1  N   UNL     1     -10.590   6.452 -15.387  0.00  0.00    +0.000 N 
ENDROOT
BRANCH   1   6
ATOM      2  C   UNL     1      -8.062   1.951 -17.971  0.00  0.00    +0.000 C 
ATOM      3  C   UNL     1      -8.731   3.123 -17.322  0.00  0.00    +0.000 A 
ATOM      4  C   UNL     1      -8.157   4.389 -17.368  0.00  0.00    +0.000 A 
ATOM      5  C   UNL     1      -8.773   5.479 -16.731  0.00  0.00    +0.000 A 
ATOM      6  C   UNL     1      -9.971   5.357 -16.003  0.00  0.00    +0.000 A 
ATOM      7  C   UNL     1     -10.524   4.064 -15.980  0.00  0.00    +0.000 A 
ATOM      8  C   UNL     1      -9.919   2.966 -16.614  0.00  0.00    +0.000 A 
ENDBRANCH   1   6
BRANCH   1   9
ATOM      9  C   UNL     1      -9.896   7.761 -15.326  0.00  0.00    +0.000 C 
BRANCH   9  10
ATOM     10  C   UNL     1     -10.442   8.778 -16.358  0.00  0.00    +0.000 C 
ATOM     11  C   UNL     1      -9.575   8.801 -17.612  0.00  0.00    +0.000 C 
BRANCH  10  12
ATOM     12  O   UNL     1     -11.781   8.446 -16.750  0.00  0.00    +0.000 OA
ATOM     13  H   UNL     1     -11.753   7.606 -17.237  0.00  0.00    +0.000 HD
ENDBRANCH  10  12
ENDBRANCH   9  10
ENDBRANCH   1   9
BRANCH   1  14
ATOM     14  C   UNL     1     -11.653   6.261 -14.368  0.00  0.00    +0.000 C 
BRANCH  14  15
ATOM     15  C   UNL     1     -11.337   7.003 -13.047  0.00  0.00    +0.000 C 
ATOM     16  C   UNL     1     -12.205   8.237 -12.831  0.00  0.00    +0.000 C 
BRANCH  15  17
ATOM     17  O   UNL     1     -11.490   6.151 -11.914  0.00  0.00    +0.000 OA
ATOM     18  H   UNL     1     -10.950   5.360 -12.117  0.00  0.00    +0.000 HD
ENDBRANCH  15  17
ENDBRANCH  14  15
ENDBRANCH   1  14
TORSDOF 7
ENDMDL
MODEL 3
REMARK VINA RESULT:    -5.476      2.827      5.204
REMARK INTER + INTRA:          -7.684
REMARK INTER:                  -7.148
REMARK INTRA:                  -0.536
REMARK UNBOUND:                -0.287
REMARK  Name = 
REMARK  10 active torsions:
REMARK  status: ('A' for Active; 'I' for Inactive)
REMARK    1  A    between atoms: C_1  and  C_2
REMARK    2  A    between atoms: C_5  and  N_8
REMARK    3  A    between atoms: N_8  and  C_9
REMARK    4  A    between atoms: N_8  and  C_13
REMARK    5  A    between atoms: C_9  and  C_10
REMARK    6  A    between atoms: C_10  and  C_11
REMARK    7  A    between atoms: C_10  and  O_12
REMARK    8  A    between atoms: C_13  and  C_14
REMARK    9  A    between atoms: C_14  and  C_15
REMARK   10  A    between atoms: C_14  and  O_16
REMARK                            x       y       z     vdW  Elec       q    Type
REMARK                         _______ _______ _______ _____ _____    ______ ____
ROOT
ATOM      1  N   UNL     1     -10.616   6.672 -15.249  0.00  0.00    +0.000 N 
ENDROOT
BRANCH   1   6
ATOM      2  C   UNL     1      -8.195   2.117 -17.839  0.00  0.00    +0.000 C 
ATOM      3  C   UNL     1      -8.810   3.294 -17.146  0.00  0.00    +0.000 A 
ATOM      4  C   UNL     1      -9.986   3.160 -16.417  0.00  0.00    +0.000 A 
ATOM      5  C   UNL     1     -10.574   4.274 -15.795  0.00  0.00    +0.000 A 
ATOM      6  C   UNL     1     -10.036   5.570 -15.888  0.00  0.00    +0.000 A 
ATOM      7  C   UNL     1      -8.845   5.668 -16.631  0.00  0.00    +0.000 A 
ATOM      8  C   UNL     1      -8.246   4.562 -17.256  0.00  0.00    +0.000 A 
ENDBRANCH   1   6
BRANCH   1   9
ATOM      9  C   UNL     1     -10.471   6.844 -13.783  0.00  0.00    +0.000 C 
BRANCH   9  10
ATOM     10  C   UNL     1     -11.831   6.869 -13.044  0.00  0.00    +0.000 C 
ATOM     11  C   UNL     1     -12.203   5.480 -12.538  0.00  0.00    +0.000 C 
BRANCH  10  12
ATOM     12  O   UNL     1     -11.788   7.755 -11.916  0.00  0.00    +0.000 OA
ATOM     13  H   UNL     1     -11.370   8.585 -12.201  0.00  0.00    +0.000 HD
ENDBRANCH  10  12
ENDBRANCH   9  10
ENDBRANCH   1   9
BRANCH   1  14
ATOM     14  C   UNL     1     -11.770   7.390 -15.849  0.00  0.00    +0.000 C 
BRANCH  14  15
ATOM     15  C   UNL     1     -11.325   8.434 -16.902  0.00  0.00    +0.000 C 
ATOM     16  C   UNL     1      -9.970   9.058 -16.591  0.00  0.00    +0.000 C 
BRANCH  15  17
ATOM     17  O   UNL     1     -11.262   7.869 -18.211  0.00  0.00    +0.000 OA
ATOM     18  H   UNL     1     -11.003   6.936 -18.071  0.00  0.00    +0.000 HD
ENDBRANCH  15  17
ENDBRANCH  14  15
ENDBRANCH   1  14
TORSDOF 7
ENDMDL
MODEL 4
REMARK VINA RESULT:    -5.327      1.577      2.071
REMARK INTER + INTRA:          -7.482
REMARK INTER:                  -7.020
REMARK INTRA:                  -0.462
REMARK UNBOUND:                -0.287
REMARK  Name = 
REMARK  10 active torsions:
REMARK  status: ('A' for Active; 'I' for Inactive)
REMARK    1  A    between atoms: C_1  and  C_2
REMARK    2  A    between atoms: C_5  and  N_8
REMARK    3  A    between atoms: N_8  and  C_9
REMARK    4  A    between atoms: N_8  and  C_13
REMARK    5  A    between atoms: C_9  and  C_10
REMARK    6  A    between atoms: C_10  and  C_11
REMARK    7  A    between atoms: C_10  and  O_12
REMARK    8  A    between atoms: C_13  and  C_14
REMARK    9  A    between atoms: C_14  and  C_15
REMARK   10  A    between atoms: C_14  and  O_16
REMARK                            x       y       z     vdW  Elec       q    Type
REMARK                         _______ _______ _______ _____ _____    ______ ____
ROOT
ATOM      1  N   UNL     1      -9.260   6.150 -17.268  0.00  0.00    +0.000 N 
ENDROOT
BRANCH   1   6
ATOM      2  C   UNL     1     -11.808   8.502 -12.652  0.00  0.00    +0.000 C 
ATOM      3  C   UNL     1     -11.156   7.870 -13.843  0.00  0.00    +0.000 A 
ATOM      4  C   UNL     1      -9.851   7.393 -13.774  0.00  0.00    +0.000 A 
ATOM      5  C   UNL     1      -9.235   6.828 -14.903  0.00  0.00    +0.000 A 
ATOM      6  C   UNL     1      -9.874   6.733 -16.152  0.00  0.00    +0.000 A 
ATOM      7  C   UNL     1     -11.193   7.222 -16.184  0.00  0.00    +0.000 A 
ATOM      8  C   UNL     1     -11.822   7.788 -15.062  0.00  0.00    +0.000 A 
ENDBRANCH   1   6
BRANCH   1   9
ATOM      9  C   UNL     1      -8.386   4.965 -17.101  0.00  0.00    +0.000 C 
BRANCH   9  10
ATOM     10  C   UNL     1      -9.181   3.639 -17.015  0.00  0.00    +0.000 C 
ATOM     11  C   UNL     1      -8.330   2.462 -17.475  0.00  0.00    +0.000 C 
BRANCH  10  12
ATOM     12  O   UNL     1      -9.607   3.381 -15.670  0.00  0.00    +0.000 OA
ATOM     13  H   UNL     1      -8.862   2.985 -15.189  0.00  0.00    +0.000 HD
ENDBRANCH  10  12
ENDBRANCH   9  10
ENDBRANCH   1   9
BRANCH   1  14
ATOM     14  C   UNL     1      -9.025   6.930 -18.510  0.00  0.00    +0.000 C 
BRANCH  14  15
ATOM     15  C   UNL     1      -8.081   8.133 -18.275  0.00  0.00    +0.000 C 
ATOM     16  C   UNL     1      -6.927   8.193 -19.268  0.00  0.00    +0.000 C 
BRANCH  15  17
ATOM     17  O   UNL     1      -8.783   9.374 -18.337  0.00  0.00    +0.000 OA
ATOM     18  H   UNL     1      -9.649   9.155 -18.735  0.00  0.00    +0.000 HD
ENDBRANCH  15  17
ENDBRANCH  14  15
ENDBRANCH   1  14
TORSDOF 7
ENDMDL
MODEL 5
REMARK VINA RESULT:    -4.777      2.573      5.130
REMARK INTER + INTRA:          -6.739
REMARK INTER:                  -6.184
REMARK INTRA:                  -0.556
REMARK UNBOUND:                -0.287
REMARK  Name = 
REMARK  10 active torsions:
REMARK  status: ('A' for Active; 'I' for Inactive)
REMARK    1  A    between atoms: C_1  and  C_2
REMARK    2  A    between atoms: C_5  and  N_8
REMARK    3  A    between atoms: N_8  and  C_9
REMARK    4  A    between atoms: N_8  and  C_13
REMARK    5  A    between atoms: C_9  and  C_10
REMARK    6  A    between atoms: C_10  and  C_11
REMARK    7  A    between atoms: C_10  and  O_12
REMARK    8  A    between atoms: C_13  and  C_14
REMARK    9  A    between atoms: C_14  and  C_15
REMARK   10  A    between atoms: C_14  and  O_16
REMARK                            x       y       z     vdW  Elec       q    Type
REMARK                         _______ _______ _______ _____ _____    ______ ____
ROOT
ATOM      1  N   UNL     1     -11.195   6.142 -15.904  0.00  0.00    +0.000 N 
ENDROOT
BRANCH   1   6
ATOM      2  C   UNL     1      -7.516   2.012 -17.557  0.00  0.00    +0.000 C 
ATOM      3  C   UNL     1      -8.460   3.083 -17.105  0.00  0.00    +0.000 A 
ATOM      4  C   UNL     1      -9.718   2.762 -16.605  0.00  0.00    +0.000 A 
ATOM      5  C   UNL     1     -10.611   3.772 -16.211  0.00  0.00    +0.000 A 
ATOM      6  C   UNL     1     -10.307   5.141 -16.317  0.00  0.00    +0.000 A 
ATOM      7  C   UNL     1      -9.027   5.428 -16.824  0.00  0.00    +0.000 A 
ATOM      8  C   UNL     1      -8.123   4.429 -17.220  0.00  0.00    +0.000 A 
ENDBRANCH   1   6
BRANCH   1   9
ATOM      9  C   UNL     1     -11.644   6.201 -14.492  0.00  0.00    +0.000 C 
BRANCH   9  10
ATOM     10  C   UNL     1     -11.182   7.490 -13.769  0.00  0.00    +0.000 C 
ATOM     11  C   UNL     1      -9.679   7.691 -13.921  0.00  0.00    +0.000 C 
BRANCH  10  12
ATOM     12  O   UNL     1     -11.841   8.646 -14.306  0.00  0.00    +0.000 OA
ATOM     13  H   UNL     1     -11.721   8.640 -15.270  0.00  0.00    +0.000 HD
ENDBRANCH  10  12
ENDBRANCH   9  10
ENDBRANCH   1   9
BRANCH   1  14
ATOM     14  C   UNL     1     -12.093   6.821 -16.873  0.00  0.00    +0.000 C 
BRANCH  14  15
ATOM     15  C   UNL     1     -11.322   7.787 -17.805  0.00  0.00    +0.000 C 
ATOM     16  C   UNL     1     -12.205   8.423 -18.872  0.00  0.00    +0.000 C 
BRANCH  15  17
ATOM     17  O   UNL     1     -10.691   8.836 -17.071  0.00  0.00    +0.000 OA
ATOM     18  H   UNL     1      -9.745   8.781 -17.316  0.00  0.00    +0.000 HD
ENDBRANCH  15  17
ENDBRANCH  14  15
ENDBRANCH   1  14
TORSDOF 7
ENDMDL
MODEL 6
REMARK VINA RESULT:    -4.312      2.385      4.580
REMARK INTER + INTRA:          -6.112
REMARK INTER:                  -6.327
REMARK INTRA:                   0.215
REMARK UNBOUND:                -0.287
REMARK  Name = 
REMARK  10 active torsions:
REMARK  status: ('A' for Active; 'I' for Inactive)
REMARK    1  A    between atoms: C_1  and  C_2
REMARK    2  A    between atoms: C_5  and  N_8
REMARK    3  A    between atoms: N_8  and  C_9
REMARK    4  A    between atoms: N_8  and  C_13
REMARK    5  A    between atoms: C_9  and  C_10
REMARK    6  A    between atoms: C_10  and  C_11
REMARK    7  A    between atoms: C_10  and  O_12
REMARK    8  A    between atoms: C_13  and  C_14
REMARK    9  A    between atoms: C_14  and  C_15
REMARK   10  A    between atoms: C_14  and  O_16
REMARK                            x       y       z     vdW  Elec       q    Type
REMARK                         _______ _______ _______ _____ _____    ______ ____
ROOT
ATOM      1  N   UNL     1      -9.868   5.712 -15.736  0.00  0.00    +0.000 N 
ENDROOT
BRANCH   1   6
ATOM      2  C   UNL     1      -8.273   9.865 -19.415  0.00  0.00    +0.000 C 
ATOM      3  C   UNL     1      -8.672   8.797 -18.443  0.00  0.00    +0.000 A 
ATOM      4  C   UNL     1      -7.992   7.585 -18.394  0.00  0.00    +0.000 A 
ATOM      5  C   UNL     1      -8.389   6.576 -17.502  0.00  0.00    +0.000 A 
ATOM      6  C   UNL     1      -9.490   6.715 -16.637  0.00  0.00    +0.000 A 
ATOM      7  C   UNL     1     -10.152   7.954 -16.712  0.00  0.00    +0.000 A 
ATOM      8  C   UNL     1      -9.764   8.972 -17.598  0.00  0.00    +0.000 A 
ENDBRANCH   1   6
BRANCH   1   9
ATOM      9  C   UNL     1     -10.798   4.639 -16.165  0.00  0.00    +0.000 C 
BRANCH   9  10
ATOM     10  C   UNL     1     -10.080   3.292 -16.424  0.00  0.00    +0.000 C 
ATOM     11  C   UNL     1      -8.784   3.504 -17.197  0.00  0.00    +0.000 C 
BRANCH  10  12
ATOM     12  O   UNL     1      -9.759   2.635 -15.190  0.00  0.00    +0.000 OA
ATOM     13  H   UNL     1     -10.222   3.098 -14.472  0.00  0.00    +0.000 HD
ENDBRANCH  10  12
ENDBRANCH   9  10
ENDBRANCH   1   9
BRANCH   1  14
ATOM     14  C   UNL     1      -9.805   5.933 -14.268  0.00  0.00    +0.000 C 
BRANCH  14  15
ATOM     15  C   UNL     1     -11.053   6.678 -13.736  0.00  0.00    +0.000 C 
ATOM     16  C   UNL     1     -11.895   5.835 -12.786  0.00  0.00    +0.000 C 
BRANCH  15  17
ATOM     17  O   UNL     1     -10.698   7.883 -13.059  0.00  0.00    +0.000 OA
ATOM     18  H   UNL     1     -11.183   7.849 -12.210  0.00  0.00    +0.000 HD
ENDBRANCH  15  17
ENDBRANCH  14  15
ENDBRANCH   1  14
TORSDOF 7
ENDMDL
MODEL 7
REMARK VINA RESULT:    -4.140     19.671     20.783
REMARK INTER + INTRA:          -5.879
REMARK INTER:                  -5.301
REMARK INTRA:                  -0.578
REMARK UNBOUND:                -0.287
REMARK  Name = 
REMARK  10 active torsions:
REMARK  status: ('A' for Active; 'I' for Inactive)
REMARK    1  A    between atoms: C_1  and  C_2
REMARK    2  A    between atoms: C_5  and  N_8
REMARK    3  A    between atoms: N_8  and  C_9
REMARK    4  A    between atoms: N_8  and  C_13
REMARK    5  A    between atoms: C_9  and  C_10
REMARK    6  A    between atoms: C_10  and  C_11
REMARK    7  A    between atoms: C_10  and  O_12
REMARK    8  A    between atoms: C_13  and  C_14
REMARK    9  A    between atoms: C_14  and  C_15
REMARK   10  A    between atoms: C_14  and  O_16
REMARK                            x       y       z     vdW  Elec       q    Type
REMARK                         _______ _______ _______ _____ _____    ______ ____
ROOT
ATOM      1  N   UNL     1       3.929  21.674 -14.964  0.00  0.00    +0.000 N 
ENDROOT
BRANCH   1   6
ATOM      2  C   UNL     1      -1.149  22.998 -12.557  0.00  0.00    +0.000 C 
ATOM      3  C   UNL     1       0.180  22.671 -13.167  0.00  0.00    +0.000 A 
ATOM      4  C   UNL     1       0.611  23.310 -14.325  0.00  0.00    +0.000 A 
ATOM      5  C   UNL     1       1.844  22.979 -14.909  0.00  0.00    +0.000 A 
ATOM      6  C   UNL     1       2.691  21.986 -14.386  0.00  0.00    +0.000 A 
ATOM      7  C   UNL     1       2.225  21.362 -13.215  0.00  0.00    +0.000 A 
ATOM      8  C   UNL     1       0.995  21.685 -12.619  0.00  0.00    +0.000 A 
ENDBRANCH   1   6
BRANCH   1   9
ATOM      9  C   UNL     1       5.172  21.783 -14.162  0.00  0.00    +0.000 C 
BRANCH   9  10
ATOM     10  C   UNL     1       6.435  21.362 -14.953  0.00  0.00    +0.000 C 
ATOM     11  C   UNL     1       7.701  21.830 -14.246  0.00  0.00    +0.000 C 
BRANCH  10  12
ATOM     12  O   UNL     1       6.503  19.936 -15.091  0.00  0.00    +0.000 OA
ATOM     13  H   UNL     1       6.787  19.735 -15.998  0.00  0.00    +0.000 HD
ENDBRANCH  10  12
ENDBRANCH   9  10
ENDBRANCH   1   9
BRANCH   1  14
ATOM     14  C   UNL     1       4.128  21.731 -16.435  0.00  0.00    +0.000 C 
BRANCH  14  15
ATOM     15  C   UNL     1       3.456  20.541 -17.161  0.00  0.00    +0.000 C 
ATOM     16  C   UNL     1       3.134  20.835 -18.622  0.00  0.00    +0.000 C 
BRANCH  15  17
ATOM     17  O   UNL     1       4.268  19.369 -17.115  0.00  0.00    +0.000 OA
ATOM     18  H   UNL     1       4.380  19.176 -16.163  0.00  0.00    +0.000 HD
ENDBRANCH  15  17
ENDBRANCH  14  15
ENDBRANCH   1  14
TORSDOF 7
ENDMDL
MODEL 8
REMARK VINA RESULT:    -4.056     18.642     20.820
REMARK INTER + INTRA:          -5.765
REMARK INTER:                  -5.113
REMARK INTRA:                  -0.652
REMARK UNBOUND:                -0.287
REMARK  Name = 
REMARK  10 active torsions:
REMARK  status: ('A' for Active; 'I' for Inactive)
REMARK    1  A    between atoms: C_1  and  C_2
REMARK    2  A    between atoms: C_5  and  N_8
REMARK    3  A    between atoms: N_8  and  C_9
REMARK    4  A    between atoms: N_8  and  C_13
REMARK    5  A    between atoms: C_9  and  C_10
REMARK    6  A    between atoms: C_10  and  C_11
REMARK    7  A    between atoms: C_10  and  O_12
REMARK    8  A    between atoms: C_13  and  C_14
REMARK    9  A    between atoms: C_14  and  C_15
REMARK   10  A    between atoms: C_14  and  O_16
REMARK                            x       y       z     vdW  Elec       q    Type
REMARK                         _______ _______ _______ _____ _____    ______ ____
ROOT
ATOM      1  N   UNL     1      -5.336  22.529  -4.738  0.00  0.00    +0.000 N 
ENDROOT
BRANCH   1   6
ATOM      2  C   UNL     1      -5.641  21.898 -10.468  0.00  0.00    +0.000 C 
ATOM      3  C   UNL     1      -5.586  22.055  -8.979  0.00  0.00    +0.000 A 
ATOM      4  C   UNL     1      -5.852  23.282  -8.380  0.00  0.00    +0.000 A 
ATOM      5  C   UNL     1      -5.769  23.430  -6.986  0.00  0.00    +0.000 A 
ATOM      6  C   UNL     1      -5.398  22.379  -6.129  0.00  0.00    +0.000 A 
ATOM      7  C   UNL     1      -5.139  21.153  -6.769  0.00  0.00    +0.000 A 
ATOM      8  C   UNL     1      -5.220  20.990  -8.162  0.00  0.00    +0.000 A 
ENDBRANCH   1   6
BRANCH   1   9
ATOM      9  C   UNL     1      -6.566  22.392  -3.920  0.00  0.00    +0.000 C 
BRANCH   9  10
ATOM     10  C   UNL     1      -6.465  21.259  -2.870  0.00  0.00    +0.000 C 
ATOM     11  C   UNL     1      -7.847  20.856  -2.369  0.00  0.00    +0.000 C 
BRANCH  10  12
ATOM     12  O   UNL     1      -5.838  20.095  -3.427  0.00  0.00    +0.000 OA
ATOM     13  H   UNL     1      -6.451  19.348  -3.332  0.00  0.00    +0.000 HD
ENDBRANCH  10  12
ENDBRANCH   9  10
ENDBRANCH   1   9
BRANCH   1  14
ATOM     14  C   UNL     1      -4.242  23.301  -4.095  0.00  0.00    +0.000 C 
BRANCH  14  15
ATOM     15  C   UNL     1      -2.922  22.496  -4.025  0.00  0.00    +0.000 C 
ATOM     16  C   UNL     1      -1.690  23.378  -3.857  0.00  0.00    +0.000 C 
BRANCH  15  17
ATOM     17  O   UNL     1      -2.938  21.551  -2.956  0.00  0.00    +0.000 OA
ATOM     18  H   UNL     1      -3.611  21.888  -2.331  0.00  0.00    +0.000 HD
ENDBRANCH  15  17
ENDBRANCH  14  15
ENDBRANCH   1  14
TORSDOF 7
ENDMDL
MODEL 9
REMARK VINA RESULT:    -4.049     19.396     20.721
REMARK INTER + INTRA:          -5.756
REMARK INTER:                  -5.147
REMARK INTRA:                  -0.609
REMARK UNBOUND:                -0.287
REMARK  Name = 
REMARK  10 active torsions:
REMARK  status: ('A' for Active; 'I' for Inactive)
REMARK    1  A    between atoms: C_1  and  C_2
REMARK    2  A    between atoms: C_5  and  N_8
REMARK    3  A    between atoms: N_8  and  C_9
REMARK    4  A    between atoms: N_8  and  C_13
REMARK    5  A    between atoms: C_9  and  C_10
REMARK    6  A    between atoms: C_10  and  C_11
REMARK    7  A    between atoms: C_10  and  O_12
REMARK    8  A    between atoms: C_13  and  C_14
REMARK    9  A    between atoms: C_14  and  C_15
REMARK   10  A    between atoms: C_14  and  O_16
REMARK                            x       y       z     vdW  Elec       q    Type
REMARK                         _______ _______ _______ _____ _____    ______ ____
ROOT
ATOM      1  N   UNL     1       3.919  22.052 -14.988  0.00  0.00    +0.000 N 
ENDROOT
BRANCH   1   6
ATOM      2  C   UNL     1      -1.520  22.624 -13.139  0.00  0.00    +0.000 C 
ATOM      3  C   UNL     1      -0.102  22.493 -13.602  0.00  0.00    +0.000 A 
ATOM      4  C   UNL     1       0.377  23.255 -14.663  0.00  0.00    +0.000 A 
ATOM      5  C   UNL     1       1.699  23.106 -15.112  0.00  0.00    +0.000 A 
ATOM      6  C   UNL     1       2.596  22.182 -14.547  0.00  0.00    +0.000 A 
ATOM      7  C   UNL     1       2.079  21.430 -13.476  0.00  0.00    +0.000 A 
ATOM      8  C   UNL     1       0.759  21.570 -13.015  0.00  0.00    +0.000 A 
ENDBRANCH   1   6
BRANCH   1   9
ATOM      9  C   UNL     1       4.203  21.788 -16.419  0.00  0.00    +0.000 C 
BRANCH   9  10
ATOM     10  C   UNL     1       3.421  20.571 -16.971  0.00  0.00    +0.000 C 
ATOM     11  C   UNL     1       2.827  20.882 -18.340  0.00  0.00    +0.000 C 
BRANCH  10  12
ATOM     12  O   UNL     1       4.275  19.427 -17.106  0.00  0.00    +0.000 OA
ATOM     13  H   UNL     1       4.152  18.865 -16.324  0.00  0.00    +0.000 HD
ENDBRANCH  10  12
ENDBRANCH   9  10
ENDBRANCH   1   9
BRANCH   1  14
ATOM     14  C   UNL     1       5.006  21.665 -14.053  0.00  0.00    +0.000 C 
BRANCH  14  15
ATOM     15  C   UNL     1       6.340  21.391 -14.789  0.00  0.00    +0.000 C 
ATOM     16  C   UNL     1       7.558  21.909 -14.035  0.00  0.00    +0.000 C 
BRANCH  15  17
ATOM     17  O   UNL     1       6.531  19.998 -15.033  0.00  0.00    +0.000 OA
ATOM     18  H   UNL     1       6.314  19.561 -14.185  0.00  0.00    +0.000 HD
ENDBRANCH  15  17
ENDBRANCH  14  15
ENDBRANCH   1  14
TORSDOF 7
ENDMDL
