MODEL 1
REMARK VINA RESULT:    -4.020      0.000      0.000
REMARK INTER + INTRA:          -4.419
REMARK INTER:                  -4.372
REMARK INTRA:                  -0.047
REMARK UNBOUND:                -0.047
REMARK  Name = 
REMARK  3 active torsions:
REMARK  status: ('A' for Active; 'I' for Inactive)
REMARK    1  A    between atoms: C_1  and  O_2
REMARK    2  A    between atoms: O_2  and  C_3
REMARK    3  A    between atoms: C_8  and  O_9
REMARK                            x       y       z     vdW  Elec       q    Type
REMARK                         _______ _______ _______ _____ _____    ______ ____
ROOT
ATOM      1  C   UNL     1       2.198   8.466   4.619  0.00  0.00    +0.000 A 
ATOM      2  C   UNL     1       2.861   9.533   4.014  0.00  0.00    +0.000 A 
ATOM      3  C   UNL     1       4.246   9.475   3.819  0.00  0.00    +0.000 A 
ATOM      4  C   UNL     1       4.973   8.355   4.227  0.00  0.00    +0.000 A 
ATOM      5  C   UNL     1       4.317   7.285   4.832  0.00  0.00    +0.000 A 
ATOM      6  C   UNL     1       2.943   7.351   5.022  0.00  0.00    +0.000 A 
ENDROOT
BRANCH   1   8
ATOM      7  C   UNL     1       0.357   9.195   5.934  0.00  0.00    +0.000 C 
ATOM      8  O   UNL     1       0.852   8.386   4.873  0.00  0.00    +0.000 OA
ENDBRANCH   1   8
BRANCH   6   9
ATOM      9  O   UNL     1       2.321   6.287   5.619  0.00  0.00    +0.000 OA
ATOM     10  H   UNL     1       1.613   6.033   4.997  0.00  0.00    +0.000 HD
ENDBRANCH   6   9
TORSDOF 2
ENDMDL
MODEL 2
REMARK VINA RESULT:    -3.996      1.663      3.508
REMARK INTER + INTRA:          -4.394
REMARK INTER:                  -4.341
REMARK INTRA:                  -0.052
REMARK UNBOUND:                -0.047
REMARK  Name = 
REMARK  3 active torsions:
REMARK  status: ('A' for Active; 'I' for Inactive)
REMARK    1  A    between atoms: C_1  and  O_2
REMARK    2  A    between atoms: O_2  and  C_3
REMARK    3  A    between atoms: C_8  and  O_9
REMARK                            x       y       z     vdW  Elec       q    Type
REMARK                         _______ _______ _______ _____ _____    ______ ____
ROOT
ATOM      1  C   UNL     1       2.961   8.854   4.797  0.00  0.00    +0.000 A 
ATOM      2  C   UNL     1       3.090   9.354   6.092  0.00  0.00    +0.000 A 
ATOM      3  C   UNL     1       1.953   9.532   6.890  0.00  0.00    +0.000 A 
ATOM      4  C   UNL     1       0.686   9.214   6.397  0.00  0.00    +0.000 A 
ATOM      5  C   UNL     1       0.549   8.714   5.105  0.00  0.00    +0.000 A 
ATOM      6  C   UNL     1       1.682   8.541   4.320  0.00  0.00    +0.000 A 
ENDROOT
BRANCH   1   8
ATOM      7  C   UNL     1       4.946   7.654   4.282  0.00  0.00    +0.000 C 
ATOM      8  O   UNL     1       3.982   8.630   3.908  0.00  0.00    +0.000 OA
ENDBRANCH   1   8
BRANCH   6   9
ATOM      9  O   UNL     1       1.522   8.048   3.053  0.00  0.00    +0.000 OA
ATOM     10  H   UNL     1       2.327   8.325   2.575  0.00  0.00    +0.000 HD
ENDBRANCH   6   9
TORSDOF 2
ENDMDL
MODEL 3
REMARK VINA RESULT:    -3.421     19.462     20.851
REMARK INTER + INTRA:          -3.768
REMARK INTER:                  -3.722
REMARK INTRA:                  -0.046
REMARK UNBOUND:                -0.047
REMARK  Name = 
REMARK  3 active torsions:
REMARK  status: ('A' for Active; 'I' for Inactive)
REMARK    1  A    between atoms: C_1  and  O_2
REMARK    2  A    between atoms: O_2  and  C_3
REMARK    3  A    between atoms: C_8  and  O_9
REMARK                            x       y       z     vdW  Elec       q    Type
REMARK                         _______ _______ _______ _____ _____    ______ ____
ROOT
ATOM      1  C   UNL     1      17.943  -6.336   6.685  0.00  0.00    +0.000 A 
ATOM      2  C   UNL     1      17.434  -6.346   7.983  0.00  0.00    +0.000 A 
ATOM      3  C   UNL     1      16.947  -5.164   8.553  0.00  0.00    +0.000 A 
ATOM      4  C   UNL     1      16.967  -3.969   7.831  0.00  0.00    +0.000 A 
ATOM      5  C   UNL     1      17.473  -3.950   6.533  0.00  0.00    +0.000 A 
ATOM      6  C   UNL     1      17.955  -5.128   5.976  0.00  0.00    +0.000 A 
ENDROOT
BRANCH   1   8
ATOM      7  C   UNL     1      17.724  -8.631   6.109  0.00  0.00    +0.000 C 
ATOM      8  O   UNL     1      18.451  -7.413   6.004  0.00  0.00    +0.000 OA
ENDBRANCH   1   8
BRANCH   6   9
ATOM      9  O   UNL     1      18.448  -5.085   4.699  0.00  0.00    +0.000 OA
ATOM     10  H   UNL     1      18.242  -4.184   4.384  0.00  0.00    +0.000 HD
ENDBRANCH   6   9
TORSDOF 2
ENDMDL
MODEL 4
REMARK VINA RESULT:    -3.132     26.868     27.420
REMARK INTER + INTRA:          -3.454
REMARK INTER:                  -3.429
REMARK INTRA:                  -0.024
REMARK UNBOUND:                -0.047
REMARK  Name = 
REMARK  3 active torsions:
REMARK  status: ('A' for Active; 'I' for Inactive)
REMARK    1  A    between atoms: C_1  and  O_2
REMARK    2  A    between atoms: O_2  and  C_3
REMARK    3  A    between atoms: C_8  and  O_9
REMARK                            x       y       z     vdW  Elec       q    Type
REMARK                         _______ _______ _______ _____ _____    ______ ____
ROOT
ATOM      1  C   UNL     1      16.877  -9.731  20.175  0.00  0.00    +0.000 A 
ATOM      2  C   UNL     1      17.216  -9.576  18.832  0.00  0.00    +0.000 A 
ATOM      3  C   UNL     1      16.420 -10.159  17.837  0.00  0.00    +0.000 A 
ATOM      4  C   UNL     1      15.286 -10.898  18.181  0.00  0.00    +0.000 A 
ATOM      5  C   UNL     1      14.941 -11.057  19.521  0.00  0.00    +0.000 A 
ATOM      6  C   UNL     1      15.736 -10.476  20.500  0.00  0.00    +0.000 A 
ENDROOT
BRANCH   1   8
ATOM      7  C   UNL     1      17.342  -7.846  21.544  0.00  0.00    +0.000 C 
ATOM      8  O   UNL     1      17.561  -9.220  21.249  0.00  0.00    +0.000 OA
ENDBRANCH   1   8
BRANCH   6   9
ATOM      9  O   UNL     1      15.377 -10.647  21.811  0.00  0.00    +0.000 OA
ATOM     10  H   UNL     1      15.735 -11.521  22.055  0.00  0.00    +0.000 HD
ENDBRANCH   6   9
TORSDOF 2
ENDMDL
MODEL 5
REMARK VINA RESULT:    -3.102     17.671     17.998
REMARK INTER + INTRA:          -3.421
REMARK INTER:                  -3.378
REMARK INTRA:                  -0.043
REMARK UNBOUND:                -0.047
REMARK  Name = 
REMARK  3 active torsions:
REMARK  status: ('A' for Active; 'I' for Inactive)
REMARK    1  A    between atoms: C_1  and  O_2
REMARK    2  A    between atoms: O_2  and  C_3
REMARK    3  A    between atoms: C_8  and  O_9
REMARK                            x       y       z     vdW  Elec       q    Type
REMARK                         _______ _______ _______ _____ _____    ______ ____
ROOT
ATOM      1  C   UNL     1      16.814   7.053  16.038  0.00  0.00    +0.000 A 
ATOM      2  C   UNL     1      17.059   8.262  15.390  0.00  0.00    +0.000 A 
ATOM      3  C   UNL     1      17.876   8.294  14.253  0.00  0.00    +0.000 A 
ATOM      4  C   UNL     1      18.450   7.120  13.761  0.00  0.00    +0.000 A 
ATOM      5  C   UNL     1      18.208   5.907  14.402  0.00  0.00    +0.000 A 
ATOM      6  C   UNL     1      17.397   5.885  15.530  0.00  0.00    +0.000 A 
ENDROOT
BRANCH   1   8
ATOM      7  C   UNL     1      14.867   7.675  17.250  0.00  0.00    +0.000 C 
ATOM      8  O   UNL     1      16.039   6.874  17.156  0.00  0.00    +0.000 OA
ENDBRANCH   1   8
BRANCH   6   9
ATOM      9  O   UNL     1      17.174   4.682  16.143  0.00  0.00    +0.000 OA
ATOM     10  H   UNL     1      16.223   4.687  16.363  0.00  0.00    +0.000 HD
ENDBRANCH   6   9
TORSDOF 2
ENDMDL
MODEL 6
REMARK VINA RESULT:    -3.058     17.996     19.049
REMARK INTER + INTRA:          -3.373
REMARK INTER:                  -3.335
REMARK INTRA:                  -0.038
REMARK UNBOUND:                -0.047
REMARK  Name = 
REMARK  3 active torsions:
REMARK  status: ('A' for Active; 'I' for Inactive)
REMARK    1  A    between atoms: C_1  and  O_2
REMARK    2  A    between atoms: O_2  and  C_3
REMARK    3  A    between atoms: C_8  and  O_9
REMARK                            x       y       z     vdW  Elec       q    Type
REMARK                         _______ _______ _______ _____ _____    ______ ____
ROOT
ATOM      1  C   UNL     1      16.865   6.614  16.564  0.00  0.00    +0.000 A 
ATOM      2  C   UNL     1      16.715   7.371  17.725  0.00  0.00    +0.000 A 
ATOM      3  C   UNL     1      17.265   6.919  18.931  0.00  0.00    +0.000 A 
ATOM      4  C   UNL     1      17.964   5.711  18.982  0.00  0.00    +0.000 A 
ATOM      5  C   UNL     1      18.118   4.949  17.826  0.00  0.00    +0.000 A 
ATOM      6  C   UNL     1      17.569   5.405  16.634  0.00  0.00    +0.000 A 
ENDROOT
BRANCH   1   8
ATOM      7  C   UNL     1      15.374   7.935  15.269  0.00  0.00    +0.000 C 
ATOM      8  O   UNL     1      16.381   6.932  15.320  0.00  0.00    +0.000 OA
ENDBRANCH   1   8
BRANCH   6   9
ATOM      9  O   UNL     1      17.733   4.639  15.512  0.00  0.00    +0.000 OA
ATOM     10  H   UNL     1      18.434   4.002  15.746  0.00  0.00    +0.000 HD
ENDBRANCH   6   9
TORSDOF 2
ENDMDL
MODEL 7
REMARK VINA RESULT:    -3.050     19.102     20.537
REMARK INTER + INTRA:          -3.365
REMARK INTER:                  -3.327
REMARK INTRA:                  -0.037
REMARK UNBOUND:                -0.047
REMARK  Name = 
REMARK  3 active torsions:
REMARK  status: ('A' for Active; 'I' for Inactive)
REMARK    1  A    between atoms: C_1  and  O_2
REMARK    2  A    between atoms: O_2  and  C_3
REMARK    3  A    between atoms: C_8  and  O_9
REMARK                            x       y       z     vdW  Elec       q    Type
REMARK                         _______ _______ _______ _____ _____    ______ ____
ROOT
ATOM      1  C   UNL     1      17.697  -6.163   6.673  0.00  0.00    +0.000 A 
ATOM      2  C   UNL     1      18.451  -5.520   5.693  0.00  0.00    +0.000 A 
ATOM      3  C   UNL     1      18.388  -4.127   5.562  0.00  0.00    +0.000 A 
ATOM      4  C   UNL     1      17.572  -3.373   6.408  0.00  0.00    +0.000 A 
ATOM      5  C   UNL     1      16.816  -4.008   7.391  0.00  0.00    +0.000 A 
ATOM      6  C   UNL     1      16.885  -5.390   7.513  0.00  0.00    +0.000 A 
ENDROOT
BRANCH   1   8
ATOM      7  C   UNL     1      18.415  -8.335   6.030  0.00  0.00    +0.000 C 
ATOM      8  O   UNL     1      17.661  -7.513   6.913  0.00  0.00    +0.000 OA
ENDBRANCH   1   8
BRANCH   6   9
ATOM      9  O   UNL     1      16.132  -5.992   8.486  0.00  0.00    +0.000 OA
ATOM     10  H   UNL     1      16.583  -5.768   9.322  0.00  0.00    +0.000 HD
ENDBRANCH   6   9
TORSDOF 2
ENDMDL
MODEL 8
REMARK VINA RESULT:    -3.016     25.506     26.856
REMARK INTER + INTRA:          -3.327
REMARK INTER:                  -3.287
REMARK INTRA:                  -0.040
REMARK UNBOUND:                -0.047
REMARK  Name = 
REMARK  3 active torsions:
REMARK  status: ('A' for Active; 'I' for Inactive)
REMARK    1  A    between atoms: C_1  and  O_2
REMARK    2  A    between atoms: O_2  and  C_3
REMARK    3  A    between atoms: C_8  and  O_9
REMARK                            x       y       z     vdW  Elec       q    Type
REMARK                         _______ _______ _______ _____ _____    ______ ____
ROOT
ATOM      1  C   UNL     1      15.508 -10.337  18.926  0.00  0.00    +0.000 A 
ATOM      2  C   UNL     1      16.282 -10.106  17.789  0.00  0.00    +0.000 A 
ATOM      3  C   UNL     1      17.606  -9.670  17.921  0.00  0.00    +0.000 A 
ATOM      4  C   UNL     1      18.161  -9.463  19.186  0.00  0.00    +0.000 A 
ATOM      5  C   UNL     1      17.394  -9.692  20.326  0.00  0.00    +0.000 A 
ATOM      6  C   UNL     1      16.081 -10.124  20.186  0.00  0.00    +0.000 A 
ENDROOT
BRANCH   1   8
ATOM      7  C   UNL     1      13.424 -10.473  17.793  0.00  0.00    +0.000 C 
ATOM      8  O   UNL     1      14.204 -10.763  18.946  0.00  0.00    +0.000 OA
ENDBRANCH   1   8
BRANCH   6   9
ATOM      9  O   UNL     1      15.348 -10.342  21.321  0.00  0.00    +0.000 OA
ATOM     10  H   UNL     1      14.751 -11.081  21.093  0.00  0.00    +0.000 HD
ENDBRANCH   6   9
TORSDOF 2
ENDMDL
