MODEL 1
REMARK VINA RESULT:    -4.048      0.000      0.000
REMARK INTER + INTRA:          -4.440
REMARK INTER:                  -4.403
REMARK INTRA:                  -0.038
REMARK UNBOUND:                -0.038
REMARK  Name = 
REMARK  3 active torsions:
REMARK  status: ('A' for Active; 'I' for Inactive)
REMARK    1  A    between atoms: C_1  and  O_2
REMARK    2  A    between atoms: O_2  and  C_3
REMARK    3  A    between atoms: C_8  and  O_9
REMARK                            x       y       z     vdW  Elec       q    Type
REMARK                         _______ _______ _______ _____ _____    ______ ____
ROOT
ATOM      1  C   UNL     1      -6.204   8.129 -17.837  0.00  0.00    +0.000 A 
ATOM      2  C   UNL     1      -6.994   7.160 -18.455  0.00  0.00    +0.000 A 
ATOM      3  C   UNL     1      -7.415   6.037 -17.732  0.00  0.00    +0.000 A 
ATOM      4  C   UNL     1      -7.049   5.878 -16.394  0.00  0.00    +0.000 A 
ATOM      5  C   UNL     1      -6.260   6.842 -15.771  0.00  0.00    +0.000 A 
ATOM      6  C   UNL     1      -5.847   7.953 -16.495  0.00  0.00    +0.000 A 
ENDROOT
BRANCH   1   8
ATOM      7  C   UNL     1      -6.221   9.586 -19.715  0.00  0.00    +0.000 C 
ATOM      8  O   UNL     1      -5.721   9.274 -18.420  0.00  0.00    +0.000 OA
ENDBRANCH   1   8
BRANCH   6   9
ATOM      9  O   UNL     1      -5.072   8.887 -15.860  0.00  0.00    +0.000 OA
ATOM     10  H   UNL     1      -4.187   8.787 -16.259  0.00  0.00    +0.000 HD
ENDBRANCH   6   9
TORSDOF 2
ENDMDL
MODEL 2
REMARK VINA RESULT:    -3.822      2.352      3.059
REMARK INTER + INTRA:          -4.195
REMARK INTER:                  -4.145
REMARK INTRA:                  -0.050
REMARK UNBOUND:                -0.038
REMARK  Name = 
REMARK  3 active torsions:
REMARK  status: ('A' for Active; 'I' for Inactive)
REMARK    1  A    between atoms: C_1  and  O_2
REMARK    2  A    between atoms: O_2  and  C_3
REMARK    3  A    between atoms: C_8  and  O_9
REMARK                            x       y       z     vdW  Elec       q    Type
REMARK                         _______ _______ _______ _____ _____    ______ ____
ROOT
ATOM      1  C   UNL     1      -6.632   6.369 -18.231  0.00  0.00    +0.000 A 
ATOM      2  C   UNL     1      -6.166   7.649 -18.528  0.00  0.00    +0.000 A 
ATOM      3  C   UNL     1      -5.784   8.512 -17.493  0.00  0.00    +0.000 A 
ATOM      4  C   UNL     1      -5.867   8.101 -16.162  0.00  0.00    +0.000 A 
ATOM      5  C   UNL     1      -6.331   6.823 -15.857  0.00  0.00    +0.000 A 
ATOM      6  C   UNL     1      -6.708   5.974 -16.890  0.00  0.00    +0.000 A 
ENDROOT
BRANCH   1   8
ATOM      7  C   UNL     1      -6.106   5.077 -20.155  0.00  0.00    +0.000 C 
ATOM      8  O   UNL     1      -7.038   5.423 -19.138  0.00  0.00    +0.000 OA
ENDBRANCH   1   8
BRANCH   6   9
ATOM      9  O   UNL     1      -7.161   4.723 -16.565  0.00  0.00    +0.000 OA
ATOM     10  H   UNL     1      -7.890   4.879 -15.935  0.00  0.00    +0.000 HD
ENDBRANCH   6   9
TORSDOF 2
ENDMDL
MODEL 3
REMARK VINA RESULT:    -3.462      1.978      2.664
REMARK INTER + INTRA:          -3.804
REMARK INTER:                  -3.751
REMARK INTRA:                  -0.053
REMARK UNBOUND:                -0.038
REMARK  Name = 
REMARK  3 active torsions:
REMARK  status: ('A' for Active; 'I' for Inactive)
REMARK    1  A    between atoms: C_1  and  O_2
REMARK    2  A    between atoms: O_2  and  C_3
REMARK    3  A    between atoms: C_8  and  O_9
REMARK                            x       y       z     vdW  Elec       q    Type
REMARK                         _______ _______ _______ _____ _____    ______ ____
ROOT
ATOM      1  C   UNL     1      -5.382   6.982 -18.205  0.00  0.00    +0.000 A 
ATOM      2  C   UNL     1      -5.395   7.811 -17.085  0.00  0.00    +0.000 A 
ATOM      3  C   UNL     1      -6.229   7.510 -16.001  0.00  0.00    +0.000 A 
ATOM      4  C   UNL     1      -7.051   6.382 -16.033  0.00  0.00    +0.000 A 
ATOM      5  C   UNL     1      -7.043   5.548 -17.148  0.00  0.00    +0.000 A 
ATOM      6  C   UNL     1      -6.213   5.855 -18.219  0.00  0.00    +0.000 A 
ENDROOT
BRANCH   1   8
ATOM      7  C   UNL     1      -4.936   8.277 -20.147  0.00  0.00    +0.000 C 
ATOM      8  O   UNL     1      -4.620   7.154 -19.333  0.00  0.00    +0.000 OA
ENDBRANCH   1   8
BRANCH   6   9
ATOM      9  O   UNL     1      -6.223   5.020 -19.304  0.00  0.00    +0.000 OA
ATOM     10  H   UNL     1      -6.316   4.124 -18.928  0.00  0.00    +0.000 HD
ENDBRANCH   6   9
TORSDOF 2
ENDMDL
MODEL 4
REMARK VINA RESULT:    -3.460     23.472     23.893
REMARK INTER + INTRA:          -3.801
REMARK INTER:                  -3.758
REMARK INTRA:                  -0.043
REMARK UNBOUND:                -0.038
REMARK  Name = 
REMARK  3 active torsions:
REMARK  status: ('A' for Active; 'I' for Inactive)
REMARK    1  A    between atoms: C_1  and  O_2
REMARK    2  A    between atoms: O_2  and  C_3
REMARK    3  A    between atoms: C_8  and  O_9
REMARK                            x       y       z     vdW  Elec       q    Type
REMARK                         _______ _______ _______ _____ _____    ______ ____
ROOT
ATOM      1  C   UNL     1       7.802  20.323  -2.782  0.00  0.00    +0.000 A 
ATOM      2  C   UNL     1       9.113  19.914  -3.022  0.00  0.00    +0.000 A 
ATOM      3  C   UNL     1       9.625  18.786  -2.368  0.00  0.00    +0.000 A 
ATOM      4  C   UNL     1       8.831  18.065  -1.474  0.00  0.00    +0.000 A 
ATOM      5  C   UNL     1       7.520  18.467  -1.230  0.00  0.00    +0.000 A 
ATOM      6  C   UNL     1       7.020  19.587  -1.883  0.00  0.00    +0.000 A 
ENDROOT
BRANCH   1   8
ATOM      7  C   UNL     1       7.510  21.698  -4.698  0.00  0.00    +0.000 C 
ATOM      8  O   UNL     1       7.172  21.403  -3.348  0.00  0.00    +0.000 OA
ENDBRANCH   1   8
BRANCH   6   9
ATOM      9  O   UNL     1       5.729  19.963  -1.626  0.00  0.00    +0.000 OA
ATOM     10  H   UNL     1       5.508  19.531  -0.779  0.00  0.00    +0.000 HD
ENDBRANCH   6   9
TORSDOF 2
ENDMDL
MODEL 5
REMARK VINA RESULT:    -3.406     23.431     24.445
REMARK INTER + INTRA:          -3.742
REMARK INTER:                  -3.690
REMARK INTRA:                  -0.052
REMARK UNBOUND:                -0.038
REMARK  Name = 
REMARK  3 active torsions:
REMARK  status: ('A' for Active; 'I' for Inactive)
REMARK    1  A    between atoms: C_1  and  O_2
REMARK    2  A    between atoms: O_2  and  C_3
REMARK    3  A    between atoms: C_8  and  O_9
REMARK                            x       y       z     vdW  Elec       q    Type
REMARK                         _______ _______ _______ _____ _____    ______ ____
ROOT
ATOM      1  C   UNL     1       8.760  18.499  -1.836  0.00  0.00    +0.000 A 
ATOM      2  C   UNL     1       9.973  19.086  -2.194  0.00  0.00    +0.000 A 
ATOM      3  C   UNL     1       9.983  20.273  -2.937  0.00  0.00    +0.000 A 
ATOM      4  C   UNL     1       8.785  20.877  -3.323  0.00  0.00    +0.000 A 
ATOM      5  C   UNL     1       7.569  20.298  -2.968  0.00  0.00    +0.000 A 
ATOM      6  C   UNL     1       7.568  19.119  -2.233  0.00  0.00    +0.000 A 
ENDROOT
BRANCH   1   8
ATOM      7  C   UNL     1       9.067  17.362   0.228  0.00  0.00    +0.000 C 
ATOM      8  O   UNL     1       8.599  17.343  -1.116  0.00  0.00    +0.000 OA
ENDBRANCH   1   8
BRANCH   6   9
ATOM      9  O   UNL     1       6.361  18.568  -1.896  0.00  0.00    +0.000 OA
ATOM     10  H   UNL     1       5.816  18.653  -2.702  0.00  0.00    +0.000 HD
ENDBRANCH   6   9
TORSDOF 2
ENDMDL
MODEL 6
REMARK VINA RESULT:    -3.384      2.128      2.992
REMARK INTER + INTRA:          -3.718
REMARK INTER:                  -3.666
REMARK INTRA:                  -0.052
REMARK UNBOUND:                -0.038
REMARK  Name = 
REMARK  3 active torsions:
REMARK  status: ('A' for Active; 'I' for Inactive)
REMARK    1  A    between atoms: C_1  and  O_2
REMARK    2  A    between atoms: O_2  and  C_3
REMARK    3  A    between atoms: C_8  and  O_9
REMARK                            x       y       z     vdW  Elec       q    Type
REMARK                         _______ _______ _______ _____ _____    ______ ____
ROOT
ATOM      1  C   UNL     1      -6.165   5.758 -18.401  0.00  0.00    +0.000 A 
ATOM      2  C   UNL     1      -6.988   5.446 -17.320  0.00  0.00    +0.000 A 
ATOM      3  C   UNL     1      -6.990   6.264 -16.183  0.00  0.00    +0.000 A 
ATOM      4  C   UNL     1      -6.172   7.393 -16.122  0.00  0.00    +0.000 A 
ATOM      5  C   UNL     1      -5.347   7.712 -17.199  0.00  0.00    +0.000 A 
ATOM      6  C   UNL     1      -5.351   6.895 -18.322  0.00  0.00    +0.000 A 
ENDROOT
BRANCH   1   8
ATOM      7  C   UNL     1      -7.186   5.090 -20.440  0.00  0.00    +0.000 C 
ATOM      8  O   UNL     1      -6.060   5.051 -19.572  0.00  0.00    +0.000 OA
ENDBRANCH   1   8
BRANCH   6   9
ATOM      9  O   UNL     1      -4.532   7.229 -19.367  0.00  0.00    +0.000 OA
ATOM     10  H   UNL     1      -3.777   7.690 -18.954  0.00  0.00    +0.000 HD
ENDBRANCH   6   9
TORSDOF 2
ENDMDL
MODEL 7
REMARK VINA RESULT:    -3.331     18.731     19.801
REMARK INTER + INTRA:          -3.661
REMARK INTER:                  -3.623
REMARK INTRA:                  -0.037
REMARK UNBOUND:                -0.038
REMARK  Name = 
REMARK  3 active torsions:
REMARK  status: ('A' for Active; 'I' for Inactive)
REMARK    1  A    between atoms: C_1  and  O_2
REMARK    2  A    between atoms: O_2  and  C_3
REMARK    3  A    between atoms: C_8  and  O_9
REMARK                            x       y       z     vdW  Elec       q    Type
REMARK                         _______ _______ _______ _____ _____    ______ ____
ROOT
ATOM      1  C   UNL     1      -0.776  21.255  -4.654  0.00  0.00    +0.000 A 
ATOM      2  C   UNL     1      -0.126  22.349  -4.082  0.00  0.00    +0.000 A 
ATOM      3  C   UNL     1       0.382  22.259  -2.780  0.00  0.00    +0.000 A 
ATOM      4  C   UNL     1       0.243  21.079  -2.046  0.00  0.00    +0.000 A 
ATOM      5  C   UNL     1      -0.404  19.982  -2.611  0.00  0.00    +0.000 A 
ATOM      6  C   UNL     1      -0.905  20.081  -3.902  0.00  0.00    +0.000 A 
ENDROOT
BRANCH   1   8
ATOM      7  C   UNL     1      -1.181  22.369  -6.714  0.00  0.00    +0.000 C 
ATOM      8  O   UNL     1      -1.320  21.202  -5.912  0.00  0.00    +0.000 OA
ENDBRANCH   1   8
BRANCH   6   9
ATOM      9  O   UNL     1      -1.537  18.989  -4.436  0.00  0.00    +0.000 OA
ATOM     10  H   UNL     1      -0.951  18.237  -4.229  0.00  0.00    +0.000 HD
ENDBRANCH   6   9
TORSDOF 2
ENDMDL
MODEL 8
REMARK VINA RESULT:    -3.309     23.542     24.509
REMARK INTER + INTRA:          -3.637
REMARK INTER:                  -3.591
REMARK INTRA:                  -0.046
REMARK UNBOUND:                -0.038
REMARK  Name = 
REMARK  3 active torsions:
REMARK  status: ('A' for Active; 'I' for Inactive)
REMARK    1  A    between atoms: C_1  and  O_2
REMARK    2  A    between atoms: O_2  and  C_3
REMARK    3  A    between atoms: C_8  and  O_9
REMARK                            x       y       z     vdW  Elec       q    Type
REMARK                         _______ _______ _______ _____ _____    ______ ____
ROOT
ATOM      1  C   UNL     1       8.477  18.799  -2.012  0.00  0.00    +0.000 A 
ATOM      2  C   UNL     1       9.805  19.223  -2.042  0.00  0.00    +0.000 A 
ATOM      3  C   UNL     1      10.713  18.747  -1.089  0.00  0.00    +0.000 A 
ATOM      4  C   UNL     1      10.300  17.848  -0.104  0.00  0.00    +0.000 A 
ATOM      5  C   UNL     1       8.975  17.419  -0.068  0.00  0.00    +0.000 A 
ATOM      6  C   UNL     1       8.081  17.897  -1.017  0.00  0.00    +0.000 A 
ENDROOT
BRANCH   1   8
ATOM      7  C   UNL     1       7.415  20.567  -3.192  0.00  0.00    +0.000 C 
ATOM      8  O   UNL     1       7.484  19.181  -2.878  0.00  0.00    +0.000 OA
ENDBRANCH   1   8
BRANCH   6   9
ATOM      9  O   UNL     1       6.784  17.461  -0.961  0.00  0.00    +0.000 OA
ATOM     10  H   UNL     1       6.408  17.687  -1.833  0.00  0.00    +0.000 HD
ENDBRANCH   6   9
TORSDOF 2
ENDMDL
MODEL 9
REMARK VINA RESULT:    -3.206     13.946     15.075
REMARK INTER + INTRA:          -3.525
REMARK INTER:                  -3.487
REMARK INTRA:                  -0.037
REMARK UNBOUND:                -0.038
REMARK  Name = 
REMARK  3 active torsions:
REMARK  status: ('A' for Active; 'I' for Inactive)
REMARK    1  A    between atoms: C_1  and  O_2
REMARK    2  A    between atoms: O_2  and  C_3
REMARK    3  A    between atoms: C_8  and  O_9
REMARK                            x       y       z     vdW  Elec       q    Type
REMARK                         _______ _______ _______ _____ _____    ______ ____
ROOT
ATOM      1  C   UNL     1      -7.476  18.020  -7.261  0.00  0.00    +0.000 A 
ATOM      2  C   UNL     1      -7.452  17.866  -8.646  0.00  0.00    +0.000 A 
ATOM      3  C   UNL     1      -7.469  18.994  -9.476  0.00  0.00    +0.000 A 
ATOM      4  C   UNL     1      -7.511  20.277  -8.926  0.00  0.00    +0.000 A 
ATOM      5  C   UNL     1      -7.535  20.439  -7.543  0.00  0.00    +0.000 A 
ATOM      6  C   UNL     1      -7.518  19.314  -6.727  0.00  0.00    +0.000 A 
ENDROOT
BRANCH   1   8
ATOM      7  C   UNL     1      -7.469  15.681  -6.840  0.00  0.00    +0.000 C 
ATOM      8  O   UNL     1      -7.465  17.010  -6.332  0.00  0.00    +0.000 OA
ENDBRANCH   1   8
BRANCH   6   9
ATOM      9  O   UNL     1      -7.542  19.499  -5.371  0.00  0.00    +0.000 OA
ATOM     10  H   UNL     1      -8.037  18.731  -5.024  0.00  0.00    +0.000 HD
ENDBRANCH   6   9
TORSDOF 2
ENDMDL
