MODEL 1
REMARK VINA RESULT:    -5.781      0.000      0.000
REMARK INTER + INTRA:          -8.125
REMARK INTER:                  -7.809
REMARK INTRA:                  -0.316
REMARK UNBOUND:                -0.316
REMARK  Name = 
REMARK  10 active torsions:
REMARK  status: ('A' for Active; 'I' for Inactive)
REMARK    1  A    between atoms: C_1  and  C_2
REMARK    2  A    between atoms: C_5  and  N_8
REMARK    3  A    between atoms: N_8  and  C_9
REMARK    4  A    between atoms: N_8  and  C_13
REMARK    5  A    between atoms: C_9  and  C_10
REMARK    6  A    between atoms: C_10  and  C_11
REMARK    7  A    between atoms: C_10  and  O_12
REMARK    8  A    between atoms: C_13  and  C_14
REMARK    9  A    between atoms: C_14  and  C_15
REMARK   10  A    between atoms: C_14  and  O_16
REMARK                            x       y       z     vdW  Elec       q    Type
REMARK                         _______ _______ _______ _____ _____    ______ ____
ROOT
ATOM      1  N   UNL     1      -9.276   4.942 -16.620  0.00  0.00    +0.000 N 
ENDROOT
BRANCH   1   6
ATOM      2  C   UNL     1     -12.113   7.674 -12.399  0.00  0.00    +0.000 C 
ATOM      3  C   UNL     1     -11.371   6.946 -13.478  0.00  0.00    +0.000 A 
ATOM      4  C   UNL     1     -10.019   7.182 -13.700  0.00  0.00    +0.000 A 
ATOM      5  C   UNL     1      -9.336   6.519 -14.733  0.00  0.00    +0.000 A 
ATOM      6  C   UNL     1      -9.968   5.614 -15.604  0.00  0.00    +0.000 A 
ATOM      7  C   UNL     1     -11.335   5.398 -15.350  0.00  0.00    +0.000 A 
ATOM      8  C   UNL     1     -12.029   6.053 -14.319  0.00  0.00    +0.000 A 
ENDBRANCH   1   6
BRANCH   1   9
ATOM      9  C   UNL     1      -9.341   3.463 -16.711  0.00  0.00    +0.000 C 
BRANCH   9  10
ATOM     10  C   UNL     1      -8.414   2.888 -17.810  0.00  0.00    +0.000 C 
ATOM     11  C   UNL     1      -7.309   2.035 -17.199  0.00  0.00    +0.000 C 
BRANCH  10  12
ATOM     12  O   UNL     1      -9.152   2.070 -18.729  0.00  0.00    +0.000 OA
ATOM     13  H   UNL     1     -10.012   1.864 -18.326  0.00  0.00    +0.000 HD
ENDBRANCH  10  12
ENDBRANCH   9  10
ENDBRANCH   1   9
BRANCH   1  14
ATOM     14  C   UNL     1      -8.100   5.557 -17.287  0.00  0.00    +0.000 C 
BRANCH  14  15
ATOM     15  C   UNL     1      -8.512   6.517 -18.429  0.00  0.00    +0.000 C 
ATOM     16  C   UNL     1      -8.856   7.918 -17.940  0.00  0.00    +0.000 C 
BRANCH  15  17
ATOM     17  O   UNL     1      -7.488   6.632 -19.416  0.00  0.00    +0.000 OA
ATOM     18  H   UNL     1      -6.795   6.000 -19.136  0.00  0.00    +0.000 HD
ENDBRANCH  15  17
ENDBRANCH  14  15
ENDBRANCH   1  14
TORSDOF 7
ENDMDL
MODEL 2
REMARK VINA RESULT:    -5.641      2.741      5.654
REMARK INTER + INTRA:          -7.936
REMARK INTER:                  -7.635
REMARK INTRA:                  -0.301
REMARK UNBOUND:                -0.316
REMARK  Name = 
REMARK  10 active torsions:
REMARK  status: ('A' for Active; 'I' for Inactive)
REMARK    1  A    between atoms: C_1  and  C_2
REMARK    2  A    between atoms: C_5  and  N_8
REMARK    3  A    between atoms: N_8  and  C_9
REMARK    4  A    between atoms: N_8  and  C_13
REMARK    5  A    between atoms: C_9  and  C_10
REMARK    6  A    between atoms: C_10  and  C_11
REMARK    7  A    between atoms: C_10  and  O_12
REMARK    8  A    between atoms: C_13  and  C_14
REMARK    9  A    between atoms: C_14  and  C_15
REMARK   10  A    between atoms: C_14  and  O_16
REMARK                            x       y       z     vdW  Elec       q    Type
REMARK                         _______ _______ _______ _____ _____    ______ ____
ROOT
ATOM      1  N   UNL     1     -10.627   6.508 -15.327  0.00  0.00    +0.000 N 
ENDROOT
BRANCH   1   6
ATOM      2  C   UNL     1      -8.123   1.997 -17.920  0.00  0.00    +0.000 C 
ATOM      3  C   UNL     1      -8.786   3.172 -17.268  0.00  0.00    +0.000 A 
ATOM      4  C   UNL     1      -8.220   4.440 -17.336  0.00  0.00    +0.000 A 
ATOM      5  C   UNL     1      -8.830   5.532 -16.697  0.00  0.00    +0.000 A 
ATOM      6  C   UNL     1     -10.013   5.411 -15.945  0.00  0.00    +0.000 A 
ATOM      7  C   UNL     1     -10.558   4.115 -15.900  0.00  0.00    +0.000 A 
ATOM      8  C   UNL     1      -9.960   3.015 -16.536  0.00  0.00    +0.000 A 
ENDBRANCH   1   6
BRANCH   1   9
ATOM      9  C   UNL     1      -9.913   7.804 -15.234  0.00  0.00    +0.000 C 
BRANCH   9  10
ATOM     10  C   UNL     1     -10.424   8.846 -16.259  0.00  0.00    +0.000 C 
ATOM     11  C   UNL     1      -9.553   8.854 -17.509  0.00  0.00    +0.000 C 
BRANCH  10  12
ATOM     12  O   UNL     1     -11.772   8.557 -16.657  0.00  0.00    +0.000 OA
ATOM     13  H   UNL     1     -11.860   8.773 -17.600  0.00  0.00    +0.000 HD
ENDBRANCH  10  12
ENDBRANCH   9  10
ENDBRANCH   1   9
BRANCH   1  14
ATOM     14  C   UNL     1     -11.713   6.321 -14.332  0.00  0.00    +0.000 C 
BRANCH  14  15
ATOM     15  C   UNL     1     -11.351   6.918 -12.951  0.00  0.00    +0.000 C 
ATOM     16  C   UNL     1     -12.189   8.138 -12.587  0.00  0.00    +0.000 C 
BRANCH  15  17
ATOM     17  O   UNL     1     -11.492   5.956 -11.907  0.00  0.00    +0.000 OA
ATOM     18  H   UNL     1     -12.201   5.354 -12.212  0.00  0.00    +0.000 HD
ENDBRANCH  15  17
ENDBRANCH  14  15
ENDBRANCH   1  14
TORSDOF 7
ENDMDL
MODEL 3
REMARK VINA RESULT:    -5.160      1.468      3.648
REMARK INTER + INTRA:          -7.286
REMARK INTER:                  -6.971
REMARK INTRA:                  -0.315
REMARK UNBOUND:                -0.316
REMARK  Name = 
REMARK  10 active torsions:
REMARK  status: ('A' for Active; 'I' for Inactive)
REMARK    1  A    between atoms: C_1  and  C_2
REMARK    2  A    between atoms: C_5  and  N_8
REMARK    3  A    between atoms: N_8  and  C_9
REMARK    4  A    between atoms: N_8  and  C_13
REMARK    5  A    between atoms: C_9  and  C_10
REMARK    6  A    between atoms: C_10  and  C_11
REMARK    7  A    between atoms: C_10  and  O_12
REMARK    8  A    between atoms: C_13  and  C_14
REMARK    9  A    between atoms: C_14  and  C_15
REMARK   10  A    between atoms: C_14  and  O_16
REMARK                            x       y       z     vdW  Elec       q    Type
REMARK                         _______ _______ _______ _____ _____    ______ ____
ROOT
ATOM      1  N   UNL     1      -8.779   6.358 -17.242  0.00  0.00    +0.000 N 
ENDROOT
BRANCH   1   6
ATOM      2  C   UNL     1     -11.719   8.437 -12.729  0.00  0.00    +0.000 C 
ATOM      3  C   UNL     1     -10.962   7.875 -13.893  0.00  0.00    +0.000 A 
ATOM      4  C   UNL     1      -9.606   7.584 -13.791  0.00  0.00    +0.000 A 
ATOM      5  C   UNL     1      -8.895   7.085 -14.894  0.00  0.00    +0.000 A 
ATOM      6  C   UNL     1      -9.490   6.874 -16.151  0.00  0.00    +0.000 A 
ATOM      7  C   UNL     1     -10.863   7.177 -16.218  0.00  0.00    +0.000 A 
ATOM      8  C   UNL     1     -11.586   7.674 -15.121  0.00  0.00    +0.000 A 
ENDBRANCH   1   6
BRANCH   1   9
ATOM      9  C   UNL     1      -9.110   6.797 -18.619  0.00  0.00    +0.000 C 
BRANCH   9  10
ATOM     10  C   UNL     1      -8.071   7.789 -19.198  0.00  0.00    +0.000 C 
ATOM     11  C   UNL     1      -8.457   9.229 -18.881  0.00  0.00    +0.000 C 
BRANCH  10  12
ATOM     12  O   UNL     1      -6.768   7.548 -18.650  0.00  0.00    +0.000 OA
ATOM     13  H   UNL     1      -6.109   7.843 -19.300  0.00  0.00    +0.000 HD
ENDBRANCH  10  12
ENDBRANCH   9  10
ENDBRANCH   1   9
BRANCH   1  14
ATOM     14  C   UNL     1      -8.079   5.051 -17.154  0.00  0.00    +0.000 C 
BRANCH  14  15
ATOM     15  C   UNL     1      -9.068   3.863 -17.070  0.00  0.00    +0.000 C 
ATOM     16  C   UNL     1      -8.458   2.542 -17.525  0.00  0.00    +0.000 C 
BRANCH  15  17
ATOM     17  O   UNL     1      -9.567   3.685 -15.745  0.00  0.00    +0.000 OA
ATOM     18  H   UNL     1     -10.262   3.002 -15.827  0.00  0.00    +0.000 HD
ENDBRANCH  15  17
ENDBRANCH  14  15
ENDBRANCH   1  14
TORSDOF 7
ENDMDL
MODEL 4
REMARK VINA RESULT:    -4.849      2.567      5.451
REMARK INTER + INTRA:          -6.866
REMARK INTER:                  -6.533
REMARK INTRA:                  -0.333
REMARK UNBOUND:                -0.316
REMARK  Name = 
REMARK  10 active torsions:
REMARK  status: ('A' for Active; 'I' for Inactive)
REMARK    1  A    between atoms: C_1  and  C_2
REMARK    2  A    between atoms: C_5  and  N_8
REMARK    3  A    between atoms: N_8  and  C_9
REMARK    4  A    between atoms: N_8  and  C_13
REMARK    5  A    between atoms: C_9  and  C_10
REMARK    6  A    between atoms: C_10  and  C_11
REMARK    7  A    between atoms: C_10  and  O_12
REMARK    8  A    between atoms: C_13  and  C_14
REMARK    9  A    between atoms: C_14  and  C_15
REMARK   10  A    between atoms: C_14  and  O_16
REMARK                            x       y       z     vdW  Elec       q    Type
REMARK                         _______ _______ _______ _____ _____    ______ ____
ROOT
ATOM      1  N   UNL     1     -10.593   6.959 -16.328  0.00  0.00    +0.000 N 
ENDROOT
BRANCH   1   6
ATOM      2  C   UNL     1      -7.937   1.929 -17.314  0.00  0.00    +0.000 C 
ATOM      3  C   UNL     1      -8.617   3.235 -17.035  0.00  0.00    +0.000 A 
ATOM      4  C   UNL     1      -9.915   3.272 -16.538  0.00  0.00    +0.000 A 
ATOM      5  C   UNL     1     -10.558   4.499 -16.307  0.00  0.00    +0.000 A 
ATOM      6  C   UNL     1      -9.953   5.739 -16.579  0.00  0.00    +0.000 A 
ATOM      7  C   UNL     1      -8.640   5.663 -17.079  0.00  0.00    +0.000 A 
ATOM      8  C   UNL     1      -7.984   4.443 -17.313  0.00  0.00    +0.000 A 
ENDBRANCH   1   6
BRANCH   1   9
ATOM      9  C   UNL     1     -10.222   8.167 -17.103  0.00  0.00    +0.000 C 
BRANCH   9  10
ATOM     10  C   UNL     1     -10.661   8.088 -18.585  0.00  0.00    +0.000 C 
ATOM     11  C   UNL     1     -12.163   8.309 -18.721  0.00  0.00    +0.000 C 
BRANCH  10  12
ATOM     12  O   UNL     1      -9.993   9.082 -19.374  0.00  0.00    +0.000 OA
ATOM     13  H   UNL     1      -9.051   8.847 -19.421  0.00  0.00    +0.000 HD
ENDBRANCH  10  12
ENDBRANCH   9  10
ENDBRANCH   1   9
BRANCH   1  14
ATOM     14  C   UNL     1     -11.242   7.232 -15.020  0.00  0.00    +0.000 C 
BRANCH  14  15
ATOM     15  C   UNL     1     -10.308   6.915 -13.827  0.00  0.00    +0.000 C 
ATOM     16  C   UNL     1      -9.090   7.829 -13.761  0.00  0.00    +0.000 C 
BRANCH  15  17
ATOM     17  O   UNL     1     -10.996   7.006 -12.580  0.00  0.00    +0.000 OA
ATOM     18  H   UNL     1     -10.325   6.783 -11.904  0.00  0.00    +0.000 HD
ENDBRANCH  15  17
ENDBRANCH  14  15
ENDBRANCH   1  14
TORSDOF 7
ENDMDL
MODEL 5
REMARK VINA RESULT:    -4.106     19.696     20.815
REMARK INTER + INTRA:          -5.863
REMARK INTER:                  -5.278
REMARK INTRA:                  -0.585
REMARK UNBOUND:                -0.316
REMARK  Name = 
REMARK  10 active torsions:
REMARK  status: ('A' for Active; 'I' for Inactive)
REMARK    1  A    between atoms: C_1  and  C_2
REMARK    2  A    between atoms: C_5  and  N_8
REMARK    3  A    between atoms: N_8  and  C_9
REMARK    4  A    between atoms: N_8  and  C_13
REMARK    5  A    between atoms: C_9  and  C_10
REMARK    6  A    between atoms: C_10  and  C_11
REMARK    7  A    between atoms: C_10  and  O_12
REMARK    8  A    between atoms: C_13  and  C_14
REMARK    9  A    between atoms: C_14  and  C_15
REMARK   10  A    between atoms: C_14  and  O_16
REMARK                            x       y       z     vdW  Elec       q    Type
REMARK                         _______ _______ _______ _____ _____    ______ ____
ROOT
ATOM      1  N   UNL     1       3.861  21.674 -14.959  0.00  0.00    +0.000 N 
ENDROOT
BRANCH   1   6
ATOM      2  C   UNL     1      -1.207  23.037 -12.553  0.00  0.00    +0.000 C 
ATOM      3  C   UNL     1       0.120  22.700 -13.163  0.00  0.00    +0.000 A 
ATOM      4  C   UNL     1       0.565  23.350 -14.310  0.00  0.00    +0.000 A 
ATOM      5  C   UNL     1       1.795  23.009 -14.894  0.00  0.00    +0.000 A 
ATOM      6  C   UNL     1       2.626  21.996 -14.382  0.00  0.00    +0.000 A 
ATOM      7  C   UNL     1       2.146  21.362 -13.221  0.00  0.00    +0.000 A 
ATOM      8  C   UNL     1       0.918  21.695 -12.626  0.00  0.00    +0.000 A 
ENDBRANCH   1   6
BRANCH   1   9
ATOM      9  C   UNL     1       5.106  21.788 -14.161  0.00  0.00    +0.000 C 
BRANCH   9  10
ATOM     10  C   UNL     1       6.371  21.397 -14.964  0.00  0.00    +0.000 C 
ATOM     11  C   UNL     1       7.632  21.914 -14.281  0.00  0.00    +0.000 C 
BRANCH  10  12
ATOM     12  O   UNL     1       6.484  19.973 -15.086  0.00  0.00    +0.000 OA
ATOM     13  H   UNL     1       7.070  19.780 -15.838  0.00  0.00    +0.000 HD
ENDBRANCH  10  12
ENDBRANCH   9  10
ENDBRANCH   1   9
BRANCH   1  14
ATOM     14  C   UNL     1       4.057  21.716 -16.431  0.00  0.00    +0.000 C 
BRANCH  14  15
ATOM     15  C   UNL     1       3.409  20.504 -17.141  0.00  0.00    +0.000 C 
ATOM     16  C   UNL     1       3.033  20.789 -18.591  0.00  0.00    +0.000 C 
BRANCH  15  17
ATOM     17  O   UNL     1       4.265  19.363 -17.123  0.00  0.00    +0.000 OA
ATOM     18  H   UNL     1       4.576  19.295 -16.198  0.00  0.00    +0.000 HD
ENDBRANCH  15  17
ENDBRANCH  14  15
ENDBRANCH   1  14
TORSDOF 7
ENDMDL
MODEL 6
REMARK VINA RESULT:    -4.041     19.487     20.809
REMARK INTER + INTRA:          -5.775
REMARK INTER:                  -5.173
REMARK INTRA:                  -0.602
REMARK UNBOUND:                -0.316
REMARK  Name = 
REMARK  10 active torsions:
REMARK  status: ('A' for Active; 'I' for Inactive)
REMARK    1  A    between atoms: C_1  and  C_2
REMARK    2  A    between atoms: C_5  and  N_8
REMARK    3  A    between atoms: N_8  and  C_9
REMARK    4  A    between atoms: N_8  and  C_13
REMARK    5  A    between atoms: C_9  and  C_10
REMARK    6  A    between atoms: C_10  and  C_11
REMARK    7  A    between atoms: C_10  and  O_12
REMARK    8  A    between atoms: C_13  and  C_14
REMARK    9  A    between atoms: C_14  and  C_15
REMARK   10  A    between atoms: C_14  and  O_16
REMARK                            x       y       z     vdW  Elec       q    Type
REMARK                         _______ _______ _______ _____ _____    ______ ____
ROOT
ATOM      1  N   UNL     1       3.986  22.079 -15.031  0.00  0.00    +0.000 N 
ENDROOT
BRANCH   1   6
ATOM      2  C   UNL     1      -1.432  22.634 -13.119  0.00  0.00    +0.000 C 
ATOM      3  C   UNL     1      -0.019  22.507 -13.598  0.00  0.00    +0.000 A 
ATOM      4  C   UNL     1       0.455  23.293 -14.643  0.00  0.00    +0.000 A 
ATOM      5  C   UNL     1       1.772  23.149 -15.108  0.00  0.00    +0.000 A 
ATOM      6  C   UNL     1       2.668  22.204 -14.575  0.00  0.00    +0.000 A 
ATOM      7  C   UNL     1       2.156  21.428 -13.519  0.00  0.00    +0.000 A 
ATOM      8  C   UNL     1       0.842  21.564 -13.043  0.00  0.00    +0.000 A 
ENDBRANCH   1   6
BRANCH   1   9
ATOM      9  C   UNL     1       4.254  21.779 -16.458  0.00  0.00    +0.000 C 
BRANCH   9  10
ATOM     10  C   UNL     1       3.439  20.571 -16.981  0.00  0.00    +0.000 C 
ATOM     11  C   UNL     1       2.799  20.886 -18.328  0.00  0.00    +0.000 C 
BRANCH  10  12
ATOM     12  O   UNL     1       4.275  19.417 -17.146  0.00  0.00    +0.000 OA
ATOM     13  H   UNL     1       3.975  18.938 -17.935  0.00  0.00    +0.000 HD
ENDBRANCH  10  12
ENDBRANCH   9  10
ENDBRANCH   1   9
BRANCH   1  14
ATOM     14  C   UNL     1       5.091  21.729 -14.102  0.00  0.00    +0.000 C 
BRANCH  14  15
ATOM     15  C   UNL     1       6.392  21.357 -14.854  0.00  0.00    +0.000 C 
ATOM     16  C   UNL     1       7.653  21.837 -14.144  0.00  0.00    +0.000 C 
BRANCH  15  17
ATOM     17  O   UNL     1       6.503  19.948 -15.049  0.00  0.00    +0.000 OA
ATOM     18  H   UNL     1       6.950  19.847 -15.913  0.00  0.00    +0.000 HD
ENDBRANCH  15  17
ENDBRANCH  14  15
ENDBRANCH   1  14
TORSDOF 7
ENDMDL
MODEL 7
REMARK VINA RESULT:    -3.640     16.897     18.426
REMARK INTER + INTRA:          -5.232
REMARK INTER:                  -4.770
REMARK INTRA:                  -0.462
REMARK UNBOUND:                -0.316
REMARK  Name = 
REMARK  10 active torsions:
REMARK  status: ('A' for Active; 'I' for Inactive)
REMARK    1  A    between atoms: C_1  and  C_2
REMARK    2  A    between atoms: C_5  and  N_8
REMARK    3  A    between atoms: N_8  and  C_9
REMARK    4  A    between atoms: N_8  and  C_13
REMARK    5  A    between atoms: C_9  and  C_10
REMARK    6  A    between atoms: C_10  and  C_11
REMARK    7  A    between atoms: C_10  and  O_12
REMARK    8  A    between atoms: C_13  and  C_14
REMARK    9  A    between atoms: C_14  and  C_15
REMARK   10  A    between atoms: C_14  and  O_16
REMARK                            x       y       z     vdW  Elec       q    Type
REMARK                         _______ _______ _______ _____ _____    ______ ____
ROOT
ATOM      1  N   UNL     1      -5.397  22.303 -14.387  0.00  0.00    +0.000 N 
ENDROOT
BRANCH   1   6
ATOM      2  C   UNL     1      -1.244  21.837 -18.370  0.00  0.00    +0.000 C 
ATOM      3  C   UNL     1      -2.339  21.954 -17.354  0.00  0.00    +0.000 A 
ATOM      4  C   UNL     1      -2.889  23.191 -17.036  0.00  0.00    +0.000 A 
ATOM      5  C   UNL     1      -3.894  23.299 -16.062  0.00  0.00    +0.000 A 
ATOM      6  C   UNL     1      -4.380  22.191 -15.344  0.00  0.00    +0.000 A 
ATOM      7  C   UNL     1      -3.803  20.956 -15.693  0.00  0.00    +0.000 A 
ATOM      8  C   UNL     1      -2.799  20.834 -16.667  0.00  0.00    +0.000 A 
ENDBRANCH   1   6
BRANCH   1   9
ATOM      9  C   UNL     1      -6.372  23.416 -14.466  0.00  0.00    +0.000 C 
BRANCH   9  10
ATOM     10  C   UNL     1      -7.712  22.996 -15.118  0.00  0.00    +0.000 C 
ATOM     11  C   UNL     1      -7.592  22.961 -16.637  0.00  0.00    +0.000 C 
BRANCH  10  12
ATOM     12  O   UNL     1      -8.114  21.692 -14.675  0.00  0.00    +0.000 OA
ATOM     13  H   UNL     1      -8.047  21.670 -13.706  0.00  0.00    +0.000 HD
ENDBRANCH  10  12
ENDBRANCH   9  10
ENDBRANCH   1   9
BRANCH   1  14
ATOM     14  C   UNL     1      -5.257  21.688 -13.042  0.00  0.00    +0.000 C 
BRANCH  14  15
ATOM     15  C   UNL     1      -5.194  22.751 -11.918  0.00  0.00    +0.000 C 
ATOM     16  C   UNL     1      -5.432  22.170 -10.530  0.00  0.00    +0.000 C 
BRANCH  15  17
ATOM     17  O   UNL     1      -3.939  23.429 -11.904  0.00  0.00    +0.000 OA
ATOM     18  H   UNL     1      -3.920  23.908 -11.051  0.00  0.00    +0.000 HD
ENDBRANCH  15  17
ENDBRANCH  14  15
ENDBRANCH   1  14
TORSDOF 7
ENDMDL
MODEL 8
REMARK VINA RESULT:    -3.604     17.366     19.165
REMARK INTER + INTRA:          -5.184
REMARK INTER:                  -4.670
REMARK INTRA:                  -0.514
REMARK UNBOUND:                -0.316
REMARK  Name = 
REMARK  10 active torsions:
REMARK  status: ('A' for Active; 'I' for Inactive)
REMARK    1  A    between atoms: C_1  and  C_2
REMARK    2  A    between atoms: C_5  and  N_8
REMARK    3  A    between atoms: N_8  and  C_9
REMARK    4  A    between atoms: N_8  and  C_13
REMARK    5  A    between atoms: C_9  and  C_10
REMARK    6  A    between atoms: C_10  and  C_11
REMARK    7  A    between atoms: C_10  and  O_12
REMARK    8  A    between atoms: C_13  and  C_14
REMARK    9  A    between atoms: C_14  and  C_15
REMARK   10  A    between atoms: C_14  and  O_16
REMARK                            x       y       z     vdW  Elec       q    Type
REMARK                         _______ _______ _______ _____ _____    ______ ____
ROOT
ATOM      1  N   UNL     1      -0.645  22.304 -14.211  0.00  0.00    +0.000 N 
ENDROOT
BRANCH   1   6
ATOM      2  C   UNL     1      -6.249  22.007 -12.859  0.00  0.00    +0.000 C 
ATOM      3  C   UNL     1      -4.790  22.066 -13.193  0.00  0.00    +0.000 A 
ATOM      4  C   UNL     1      -3.945  22.960 -12.544  0.00  0.00    +0.000 A 
ATOM      5  C   UNL     1      -2.584  23.033 -12.883  0.00  0.00    +0.000 A 
ATOM      6  C   UNL     1      -2.007  22.241 -13.892  0.00  0.00    +0.000 A 
ATOM      7  C   UNL     1      -2.891  21.347 -14.525  0.00  0.00    +0.000 A 
ATOM      8  C   UNL     1      -4.253  21.264 -14.195  0.00  0.00    +0.000 A 
ENDBRANCH   1   6
BRANCH   1   9
ATOM      9  C   UNL     1       0.348  21.586 -13.377  0.00  0.00    +0.000 C 
BRANCH   9  10
ATOM     10  C   UNL     1       1.388  22.534 -12.731  0.00  0.00    +0.000 C 
ATOM     11  C   UNL     1       0.885  23.064 -11.393  0.00  0.00    +0.000 C 
BRANCH  10  12
ATOM     12  O   UNL     1       2.631  21.856 -12.501  0.00  0.00    +0.000 OA
ATOM     13  H   UNL     1       3.247  22.487 -12.093  0.00  0.00    +0.000 HD
ENDBRANCH  10  12
ENDBRANCH   9  10
ENDBRANCH   1   9
BRANCH   1  14
ATOM     14  C   UNL     1      -0.093  23.431 -15.007  0.00  0.00    +0.000 C 
BRANCH  14  15
ATOM     15  C   UNL     1       0.261  23.006 -16.453  0.00  0.00    +0.000 C 
ATOM     16  C   UNL     1       1.727  22.628 -16.625  0.00  0.00    +0.000 C 
BRANCH  15  17
ATOM     17  O   UNL     1      -0.534  21.903 -16.888  0.00  0.00    +0.000 OA
ATOM     18  H   UNL     1      -0.868  22.165 -17.769  0.00  0.00    +0.000 HD
ENDBRANCH  15  17
ENDBRANCH  14  15
ENDBRANCH   1  14
TORSDOF 7
ENDMDL
MODEL 9
REMARK VINA RESULT:    -3.496     16.693     18.836
REMARK INTER + INTRA:          -5.038
REMARK INTER:                  -4.298
REMARK INTRA:                  -0.740
REMARK UNBOUND:                -0.316
REMARK  Name = 
REMARK  10 active torsions:
REMARK  status: ('A' for Active; 'I' for Inactive)
REMARK    1  A    between atoms: C_1  and  C_2
REMARK    2  A    between atoms: C_5  and  N_8
REMARK    3  A    between atoms: N_8  and  C_9
REMARK    4  A    between atoms: N_8  and  C_13
REMARK    5  A    between atoms: C_9  and  C_10
REMARK    6  A    between atoms: C_10  and  C_11
REMARK    7  A    between atoms: C_10  and  O_12
REMARK    8  A    between atoms: C_13  and  C_14
REMARK    9  A    between atoms: C_14  and  C_15
REMARK   10  A    between atoms: C_14  and  O_16
REMARK                            x       y       z     vdW  Elec       q    Type
REMARK                         _______ _______ _______ _____ _____    ______ ____
ROOT
ATOM      1  N   UNL     1      -3.692  22.707 -14.148  0.00  0.00    +0.000 N 
ENDROOT
BRANCH   1   6
ATOM      2  C   UNL     1       1.927  22.834 -12.832  0.00  0.00    +0.000 C 
ATOM      3  C   UNL     1       0.471  22.825 -13.181  0.00  0.00    +0.000 A 
ATOM      4  C   UNL     1      -0.492  23.175 -12.241  0.00  0.00    +0.000 A 
ATOM      5  C   UNL     1      -1.858  23.135 -12.565  0.00  0.00    +0.000 A 
ATOM      6  C   UNL     1      -2.330  22.725 -13.825  0.00  0.00    +0.000 A 
ATOM      7  C   UNL     1      -1.329  22.381 -14.752  0.00  0.00    +0.000 A 
ATOM      8  C   UNL     1       0.041  22.418 -14.441  0.00  0.00    +0.000 A 
ENDBRANCH   1   6
BRANCH   1   9
ATOM      9  C   UNL     1      -4.121  22.735 -15.567  0.00  0.00    +0.000 C 
BRANCH   9  10
ATOM     10  C   UNL     1      -4.825  21.429 -16.008  0.00  0.00    +0.000 C 
ATOM     11  C   UNL     1      -4.198  20.216 -15.330  0.00  0.00    +0.000 C 
BRANCH  10  12
ATOM     12  O   UNL     1      -6.219  21.456 -15.669  0.00  0.00    +0.000 OA
ATOM     13  H   UNL     1      -6.408  22.308 -15.243  0.00  0.00    +0.000 HD
ENDBRANCH  10  12
ENDBRANCH   9  10
ENDBRANCH   1   9
BRANCH   1  14
ATOM     14  C   UNL     1      -4.719  23.165 -13.177  0.00  0.00    +0.000 C 
BRANCH  14  15
ATOM     15  C   UNL     1      -5.264  22.004 -12.312  0.00  0.00    +0.000 C 
ATOM     16  C   UNL     1      -5.419  22.373 -10.841  0.00  0.00    +0.000 C 
BRANCH  15  17
ATOM     17  O   UNL     1      -6.528  21.541 -12.787  0.00  0.00    +0.000 OA
ATOM     18  H   UNL     1      -6.316  20.793 -13.380  0.00  0.00    +0.000 HD
ENDBRANCH  15  17
ENDBRANCH  14  15
ENDBRANCH   1  14
TORSDOF 7
ENDMDL
