MODEL 1
REMARK VINA RESULT:    -3.821      0.000      0.000
REMARK INTER + INTRA:          -4.194
REMARK INTER:                  -4.156
REMARK INTRA:                  -0.038
REMARK UNBOUND:                -0.038
REMARK  Name = 
REMARK  3 active torsions:
REMARK  status: ('A' for Active; 'I' for Inactive)
REMARK    1  A    between atoms: C_1  and  O_2
REMARK    2  A    between atoms: O_2  and  C_3
REMARK    3  A    between atoms: C_8  and  O_9
REMARK                            x       y       z     vdW  Elec       q    Type
REMARK                         _______ _______ _______ _____ _____    ______ ____
ROOT
ATOM      1  C   UNL     1      -4.291  11.789  -4.849  0.00  0.00    +0.000 A 
ATOM      2  C   UNL     1      -5.029  12.924  -5.182  0.00  0.00    +0.000 A 
ATOM      3  C   UNL     1      -5.421  13.139  -6.509  0.00  0.00    +0.000 A 
ATOM      4  C   UNL     1      -5.078  12.224  -7.505  0.00  0.00    +0.000 A 
ATOM      5  C   UNL     1      -4.341  11.087  -7.180  0.00  0.00    +0.000 A 
ATOM      6  C   UNL     1      -3.956  10.882  -5.862  0.00  0.00    +0.000 A 
ENDROOT
BRANCH   1   8
ATOM      7  C   UNL     1      -3.889  12.476  -2.609  0.00  0.00    +0.000 C 
ATOM      8  O   UNL     1      -3.840  11.453  -3.597  0.00  0.00    +0.000 OA
ENDBRANCH   1   8
BRANCH   6   9
ATOM      9  O   UNL     1      -3.232   9.758  -5.567  0.00  0.00    +0.000 OA
ATOM     10  H   UNL     1      -3.885   9.131  -5.201  0.00  0.00    +0.000 HD
ENDBRANCH   6   9
TORSDOF 2
ENDMDL
MODEL 2
REMARK VINA RESULT:    -3.713      1.696      2.299
REMARK INTER + INTRA:          -4.077
REMARK INTER:                  -4.025
REMARK INTRA:                  -0.052
REMARK UNBOUND:                -0.038
REMARK  Name = 
REMARK  3 active torsions:
REMARK  status: ('A' for Active; 'I' for Inactive)
REMARK    1  A    between atoms: C_1  and  O_2
REMARK    2  A    between atoms: O_2  and  C_3
REMARK    3  A    between atoms: C_8  and  O_9
REMARK                            x       y       z     vdW  Elec       q    Type
REMARK                         _______ _______ _______ _____ _____    ______ ____
ROOT
ATOM      1  C   UNL     1      -4.812  11.573  -6.765  0.00  0.00    +0.000 A 
ATOM      2  C   UNL     1      -4.611  12.872  -7.229  0.00  0.00    +0.000 A 
ATOM      3  C   UNL     1      -5.471  13.412  -8.194  0.00  0.00    +0.000 A 
ATOM      4  C   UNL     1      -6.532  12.657  -8.698  0.00  0.00    +0.000 A 
ATOM      5  C   UNL     1      -6.739  11.358  -8.239  0.00  0.00    +0.000 A 
ATOM      6  C   UNL     1      -5.881  10.831  -7.282  0.00  0.00    +0.000 A 
ENDROOT
BRANCH   1   8
ATOM      7  C   UNL     1      -3.984  11.516  -4.538  0.00  0.00    +0.000 C 
ATOM      8  O   UNL     1      -4.053  10.920  -5.828  0.00  0.00    +0.000 OA
ENDBRANCH   1   8
BRANCH   6   9
ATOM      9  O   UNL     1      -6.106   9.552  -6.847  0.00  0.00    +0.000 OA
ATOM     10  H   UNL     1      -5.663   8.984  -7.505  0.00  0.00    +0.000 HD
ENDBRANCH   6   9
TORSDOF 2
ENDMDL
MODEL 3
REMARK VINA RESULT:    -3.651      2.180      3.258
REMARK INTER + INTRA:          -4.009
REMARK INTER:                  -3.957
REMARK INTRA:                  -0.053
REMARK UNBOUND:                -0.038
REMARK  Name = 
REMARK  3 active torsions:
REMARK  status: ('A' for Active; 'I' for Inactive)
REMARK    1  A    between atoms: C_1  and  O_2
REMARK    2  A    between atoms: O_2  and  C_3
REMARK    3  A    between atoms: C_8  and  O_9
REMARK                            x       y       z     vdW  Elec       q    Type
REMARK                         _______ _______ _______ _____ _____    ______ ____
ROOT
ATOM      1  C   UNL     1      -4.646  12.523  -7.024  0.00  0.00    +0.000 A 
ATOM      2  C   UNL     1      -5.418  12.613  -8.182  0.00  0.00    +0.000 A 
ATOM      3  C   UNL     1      -5.423  13.798  -8.929  0.00  0.00    +0.000 A 
ATOM      4  C   UNL     1      -4.660  14.894  -8.523  0.00  0.00    +0.000 A 
ATOM      5  C   UNL     1      -3.886  14.812  -7.368  0.00  0.00    +0.000 A 
ATOM      6  C   UNL     1      -3.887  13.633  -6.633  0.00  0.00    +0.000 A 
ENDROOT
BRANCH   1   8
ATOM      7  C   UNL     1      -3.953  10.266  -6.757  0.00  0.00    +0.000 C 
ATOM      8  O   UNL     1      -4.546  11.432  -6.199  0.00  0.00    +0.000 OA
ENDBRANCH   1   8
BRANCH   6   9
ATOM      9  O   UNL     1      -3.118  13.577  -5.501  0.00  0.00    +0.000 OA
ATOM     10  H   UNL     1      -3.757  13.450  -4.773  0.00  0.00    +0.000 HD
ENDBRANCH   6   9
TORSDOF 2
ENDMDL
MODEL 4
REMARK VINA RESULT:    -3.640      3.893      6.332
REMARK INTER + INTRA:          -3.997
REMARK INTER:                  -3.956
REMARK INTRA:                  -0.041
REMARK UNBOUND:                -0.038
REMARK  Name = 
REMARK  3 active torsions:
REMARK  status: ('A' for Active; 'I' for Inactive)
REMARK    1  A    between atoms: C_1  and  O_2
REMARK    2  A    between atoms: O_2  and  C_3
REMARK    3  A    between atoms: C_8  and  O_9
REMARK                            x       y       z     vdW  Elec       q    Type
REMARK                         _______ _______ _______ _____ _____    ______ ____
ROOT
ATOM      1  C   UNL     1      -4.765  14.113  -1.184  0.00  0.00    +0.000 A 
ATOM      2  C   UNL     1      -3.741  15.048  -1.324  0.00  0.00    +0.000 A 
ATOM      3  C   UNL     1      -3.710  16.180  -0.500  0.00  0.00    +0.000 A 
ATOM      4  C   UNL     1      -4.699  16.381   0.464  0.00  0.00    +0.000 A 
ATOM      5  C   UNL     1      -5.725  15.451   0.611  0.00  0.00    +0.000 A 
ATOM      6  C   UNL     1      -5.749  14.332  -0.211  0.00  0.00    +0.000 A 
ENDROOT
BRANCH   1   8
ATOM      7  C   UNL     1      -3.731  12.354  -2.401  0.00  0.00    +0.000 C 
ATOM      8  O   UNL     1      -4.922  12.965  -1.919  0.00  0.00    +0.000 OA
ENDBRANCH   1   8
BRANCH   6   9
ATOM      9  O   UNL     1      -6.768  13.431  -0.048  0.00  0.00    +0.000 OA
ATOM     10  H   UNL     1      -7.169  13.348  -0.934  0.00  0.00    +0.000 HD
ENDBRANCH   6   9
TORSDOF 2
ENDMDL
MODEL 5
REMARK VINA RESULT:    -3.600      2.208      3.371
REMARK INTER + INTRA:          -3.954
REMARK INTER:                  -3.909
REMARK INTRA:                  -0.045
REMARK UNBOUND:                -0.038
REMARK  Name = 
REMARK  3 active torsions:
REMARK  status: ('A' for Active; 'I' for Inactive)
REMARK    1  A    between atoms: C_1  and  O_2
REMARK    2  A    between atoms: O_2  and  C_3
REMARK    3  A    between atoms: C_8  and  O_9
REMARK                            x       y       z     vdW  Elec       q    Type
REMARK                         _______ _______ _______ _____ _____    ______ ____
ROOT
ATOM      1  C   UNL     1      -4.935  12.386  -7.353  0.00  0.00    +0.000 A 
ATOM      2  C   UNL     1      -5.423  13.013  -8.498  0.00  0.00    +0.000 A 
ATOM      3  C   UNL     1      -5.049  14.331  -8.788  0.00  0.00    +0.000 A 
ATOM      4  C   UNL     1      -4.189  15.026  -7.936  0.00  0.00    +0.000 A 
ATOM      5  C   UNL     1      -3.697  14.407  -6.790  0.00  0.00    +0.000 A 
ATOM      6  C   UNL     1      -4.074  13.099  -6.510  0.00  0.00    +0.000 A 
ENDROOT
BRANCH   1   8
ATOM      7  C   UNL     1      -6.563  10.673  -7.099  0.00  0.00    +0.000 C 
ATOM      8  O   UNL     1      -5.216  11.106  -6.946  0.00  0.00    +0.000 OA
ENDBRANCH   1   8
BRANCH   6   9
ATOM      9  O   UNL     1      -3.577  12.512  -5.377  0.00  0.00    +0.000 OA
ATOM     10  H   UNL     1      -4.362  12.333  -4.825  0.00  0.00    +0.000 HD
ENDBRANCH   6   9
TORSDOF 2
ENDMDL
MODEL 6
REMARK VINA RESULT:    -3.511      4.262      6.715
REMARK INTER + INTRA:          -3.857
REMARK INTER:                  -3.819
REMARK INTRA:                  -0.039
REMARK UNBOUND:                -0.038
REMARK  Name = 
REMARK  3 active torsions:
REMARK  status: ('A' for Active; 'I' for Inactive)
REMARK    1  A    between atoms: C_1  and  O_2
REMARK    2  A    between atoms: O_2  and  C_3
REMARK    3  A    between atoms: C_8  and  O_9
REMARK                            x       y       z     vdW  Elec       q    Type
REMARK                         _______ _______ _______ _____ _____    ______ ____
ROOT
ATOM      1  C   UNL     1      -2.387  14.434  -0.944  0.00  0.00    +0.000 A 
ATOM      2  C   UNL     1      -3.344  15.136  -0.212  0.00  0.00    +0.000 A 
ATOM      3  C   UNL     1      -2.987  16.310   0.463  0.00  0.00    +0.000 A 
ATOM      4  C   UNL     1      -1.675  16.786   0.409  0.00  0.00    +0.000 A 
ATOM      5  C   UNL     1      -0.714  16.090  -0.320  0.00  0.00    +0.000 A 
ATOM      6  C   UNL     1      -1.077  14.926  -0.986  0.00  0.00    +0.000 A 
ENDROOT
BRANCH   1   8
ATOM      7  C   UNL     1      -3.942  12.972  -1.989  0.00  0.00    +0.000 C 
ATOM      8  O   UNL     1      -2.595  13.276  -1.649  0.00  0.00    +0.000 OA
ENDBRANCH   1   8
BRANCH   6   9
ATOM      9  O   UNL     1      -0.114  14.260  -1.696  0.00  0.00    +0.000 OA
ATOM     10  H   UNL     1       0.021  13.425  -1.209  0.00  0.00    +0.000 HD
ENDBRANCH   6   9
TORSDOF 2
ENDMDL
MODEL 7
REMARK VINA RESULT:    -3.409      1.955      2.342
REMARK INTER + INTRA:          -3.746
REMARK INTER:                  -3.693
REMARK INTRA:                  -0.053
REMARK UNBOUND:                -0.038
REMARK  Name = 
REMARK  3 active torsions:
REMARK  status: ('A' for Active; 'I' for Inactive)
REMARK    1  A    between atoms: C_1  and  O_2
REMARK    2  A    between atoms: O_2  and  C_3
REMARK    3  A    between atoms: C_8  and  O_9
REMARK                            x       y       z     vdW  Elec       q    Type
REMARK                         _______ _______ _______ _____ _____    ______ ____
ROOT
ATOM      1  C   UNL     1      -5.844  12.257  -5.508  0.00  0.00    +0.000 A 
ATOM      2  C   UNL     1      -6.873  11.475  -6.031  0.00  0.00    +0.000 A 
ATOM      3  C   UNL     1      -6.578  10.433  -6.919  0.00  0.00    +0.000 A 
ATOM      4  C   UNL     1      -5.257  10.170  -7.287  0.00  0.00    +0.000 A 
ATOM      5  C   UNL     1      -4.224  10.946  -6.768  0.00  0.00    +0.000 A 
ATOM      6  C   UNL     1      -4.526  11.978  -5.889  0.00  0.00    +0.000 A 
ENDROOT
BRANCH   1   8
ATOM      7  C   UNL     1      -6.424  12.980  -3.320  0.00  0.00    +0.000 C 
ATOM      8  O   UNL     1      -5.986  13.305  -4.634  0.00  0.00    +0.000 OA
ENDBRANCH   1   8
BRANCH   6   9
ATOM      9  O   UNL     1      -3.493  12.727  -5.392  0.00  0.00    +0.000 OA
ATOM     10  H   UNL     1      -2.842  12.764  -6.118  0.00  0.00    +0.000 HD
ENDBRANCH   6   9
TORSDOF 2
ENDMDL
MODEL 8
REMARK VINA RESULT:    -3.392      2.622      3.623
REMARK INTER + INTRA:          -3.727
REMARK INTER:                  -3.689
REMARK INTRA:                  -0.038
REMARK UNBOUND:                -0.038
REMARK  Name = 
REMARK  3 active torsions:
REMARK  status: ('A' for Active; 'I' for Inactive)
REMARK    1  A    between atoms: C_1  and  O_2
REMARK    2  A    between atoms: O_2  and  C_3
REMARK    3  A    between atoms: C_8  and  O_9
REMARK                            x       y       z     vdW  Elec       q    Type
REMARK                         _______ _______ _______ _____ _____    ______ ____
ROOT
ATOM      1  C   UNL     1      -4.964  13.314  -1.879  0.00  0.00    +0.000 A 
ATOM      2  C   UNL     1      -6.162  13.405  -2.585  0.00  0.00    +0.000 A 
ATOM      3  C   UNL     1      -6.304  12.740  -3.810  0.00  0.00    +0.000 A 
ATOM      4  C   UNL     1      -5.253  11.985  -4.331  0.00  0.00    +0.000 A 
ATOM      5  C   UNL     1      -4.052  11.889  -3.631  0.00  0.00    +0.000 A 
ATOM      6  C   UNL     1      -3.920  12.552  -2.418  0.00  0.00    +0.000 A 
ENDROOT
BRANCH   1   8
ATOM      7  C   UNL     1      -5.784  14.498   0.012  0.00  0.00    +0.000 C 
ATOM      8  O   UNL     1      -4.685  13.910  -0.675  0.00  0.00    +0.000 OA
ENDBRANCH   1   8
BRANCH   6   9
ATOM      9  O   UNL     1      -2.731  12.443  -1.747  0.00  0.00    +0.000 OA
ATOM     10  H   UNL     1      -2.174  11.882  -2.320  0.00  0.00    +0.000 HD
ENDBRANCH   6   9
TORSDOF 2
ENDMDL
