MODEL 1
REMARK VINA RESULT:    -4.269      0.000      0.000
REMARK INTER + INTRA:          -6.255
REMARK INTER:                  -5.767
REMARK INTRA:                  -0.488
REMARK UNBOUND:                -0.488
REMARK  Name = 
REMARK  10 active torsions:
REMARK  status: ('A' for Active; 'I' for Inactive)
REMARK    1  A    between atoms: C_1  and  C_2
REMARK    2  A    between atoms: C_5  and  N_8
REMARK    3  A    between atoms: N_8  and  C_9
REMARK    4  A    between atoms: N_8  and  C_13
REMARK    5  A    between atoms: C_9  and  C_10
REMARK    6  A    between atoms: C_10  and  C_11
REMARK    7  A    between atoms: C_10  and  O_12
REMARK    8  A    between atoms: C_13  and  C_14
REMARK    9  A    between atoms: C_14  and  C_15
REMARK   10  A    between atoms: C_14  and  O_16
REMARK                            x       y       z     vdW  Elec       q    Type
REMARK                         _______ _______ _______ _____ _____    ______ ____
ROOT
ATOM      1  N   UNL     1       9.265  20.573  -1.948  0.00  0.00    +0.000 N 
ENDROOT
BRANCH   1   6
ATOM      2  C   UNL     1       8.518  22.369  -7.383  0.00  0.00    +0.000 C 
ATOM      3  C   UNL     1       8.711  21.879  -5.981  0.00  0.00    +0.000 A 
ATOM      4  C   UNL     1       7.622  21.666  -5.142  0.00  0.00    +0.000 A 
ATOM      5  C   UNL     1       7.811  21.236  -3.819  0.00  0.00    +0.000 A 
ATOM      6  C   UNL     1       9.085  21.021  -3.262  0.00  0.00    +0.000 A 
ATOM      7  C   UNL     1      10.162  21.244  -4.139  0.00  0.00    +0.000 A 
ATOM      8  C   UNL     1       9.987  21.672  -5.466  0.00  0.00    +0.000 A 
ENDBRANCH   1   6
BRANCH   1   9
ATOM      9  C   UNL     1       8.104  20.094  -1.160  0.00  0.00    +0.000 C 
BRANCH   9  10
ATOM     10  C   UNL     1       7.799  18.593  -1.393  0.00  0.00    +0.000 C 
ATOM     11  C   UNL     1       8.031  17.786  -0.121  0.00  0.00    +0.000 C 
BRANCH  10  12
ATOM     12  O   UNL     1       6.437  18.401  -1.798  0.00  0.00    +0.000 OA
ATOM     13  H   UNL     1       6.382  17.560  -2.281  0.00  0.00    +0.000 HD
ENDBRANCH  10  12
ENDBRANCH   9  10
ENDBRANCH   1   9
BRANCH   1  14
ATOM     14  C   UNL     1      10.429  21.015  -1.138  0.00  0.00    +0.000 C 
BRANCH  14  15
ATOM     15  C   UNL     1      11.376  19.842  -0.788  0.00  0.00    +0.000 C 
ATOM     16  C   UNL     1      11.388  18.745  -1.846  0.00  0.00    +0.000 C 
BRANCH  15  17
ATOM     17  O   UNL     1      12.718  20.287  -0.598  0.00  0.00    +0.000 OA
ATOM     18  H   UNL     1      13.142  19.590  -0.057  0.00  0.00    +0.000 HD
ENDBRANCH  15  17
ENDBRANCH  14  15
ENDBRANCH   1  14
TORSDOF 7
ENDMDL
MODEL 2
REMARK VINA RESULT:    -4.096     16.204     18.065
REMARK INTER + INTRA:          -6.021
REMARK INTER:                  -5.691
REMARK INTRA:                  -0.330
REMARK UNBOUND:                -0.488
REMARK  Name = 
REMARK  10 active torsions:
REMARK  status: ('A' for Active; 'I' for Inactive)
REMARK    1  A    between atoms: C_1  and  C_2
REMARK    2  A    between atoms: C_5  and  N_8
REMARK    3  A    between atoms: N_8  and  C_9
REMARK    4  A    between atoms: N_8  and  C_13
REMARK    5  A    between atoms: C_9  and  C_10
REMARK    6  A    between atoms: C_10  and  C_11
REMARK    7  A    between atoms: C_10  and  O_12
REMARK    8  A    between atoms: C_13  and  C_14
REMARK    9  A    between atoms: C_14  and  C_15
REMARK   10  A    between atoms: C_14  and  O_16
REMARK                            x       y       z     vdW  Elec       q    Type
REMARK                         _______ _______ _______ _____ _____    ______ ____
ROOT
ATOM      1  N   UNL     1      10.927  14.932 -20.066  0.00  0.00    +0.000 N 
ENDROOT
BRANCH   1   6
ATOM      2  C   UNL     1       9.839  20.521 -19.112  0.00  0.00    +0.000 C 
ATOM      3  C   UNL     1      10.146  19.075 -19.359  0.00  0.00    +0.000 A 
ATOM      4  C   UNL     1      10.223  18.573 -20.654  0.00  0.00    +0.000 A 
ATOM      5  C   UNL     1      10.482  17.211 -20.879  0.00  0.00    +0.000 A 
ATOM      6  C   UNL     1      10.651  16.285 -19.834  0.00  0.00    +0.000 A 
ATOM      7  C   UNL     1      10.568  16.829 -18.538  0.00  0.00    +0.000 A 
ATOM      8  C   UNL     1      10.312  18.189 -18.299  0.00  0.00    +0.000 A 
ENDBRANCH   1   6
BRANCH   1   9
ATOM      9  C   UNL     1      12.298  14.507 -20.439  0.00  0.00    +0.000 C 
BRANCH   9  10
ATOM     10  C   UNL     1      13.023  13.751 -19.298  0.00  0.00    +0.000 C 
ATOM     11  C   UNL     1      14.265  13.039 -19.820  0.00  0.00    +0.000 C 
BRANCH  10  12
ATOM     12  O   UNL     1      13.431  14.654 -18.261  0.00  0.00    +0.000 OA
ATOM     13  H   UNL     1      14.117  15.239 -18.623  0.00  0.00    +0.000 HD
ENDBRANCH  10  12
ENDBRANCH   9  10
ENDBRANCH   1   9
BRANCH   1  14
ATOM     14  C   UNL     1       9.852  13.983 -20.452  0.00  0.00    +0.000 C 
BRANCH  14  15
ATOM     15  C   UNL     1       8.441  14.592 -20.269  0.00  0.00    +0.000 C 
ATOM     16  C   UNL     1       7.666  14.713 -21.575  0.00  0.00    +0.000 C 
BRANCH  15  17
ATOM     17  O   UNL     1       7.653  13.829 -19.356  0.00  0.00    +0.000 OA
ATOM     18  H   UNL     1       6.734  13.920 -19.679  0.00  0.00    +0.000 HD
ENDBRANCH  15  17
ENDBRANCH  14  15
ENDBRANCH   1  14
TORSDOF 7
ENDMDL
MODEL 3
REMARK VINA RESULT:    -4.080     15.819     17.661
REMARK INTER + INTRA:          -5.999
REMARK INTER:                  -5.598
REMARK INTRA:                  -0.401
REMARK UNBOUND:                -0.488
REMARK  Name = 
REMARK  10 active torsions:
REMARK  status: ('A' for Active; 'I' for Inactive)
REMARK    1  A    between atoms: C_1  and  C_2
REMARK    2  A    between atoms: C_5  and  N_8
REMARK    3  A    between atoms: N_8  and  C_9
REMARK    4  A    between atoms: N_8  and  C_13
REMARK    5  A    between atoms: C_9  and  C_10
REMARK    6  A    between atoms: C_10  and  C_11
REMARK    7  A    between atoms: C_10  and  O_12
REMARK    8  A    between atoms: C_13  and  C_14
REMARK    9  A    between atoms: C_14  and  C_15
REMARK   10  A    between atoms: C_14  and  O_16
REMARK                            x       y       z     vdW  Elec       q    Type
REMARK                         _______ _______ _______ _____ _____    ______ ____
ROOT
ATOM      1  N   UNL     1      10.983  15.340 -20.359  0.00  0.00    +0.000 N 
ENDROOT
BRANCH   1   6
ATOM      2  C   UNL     1       9.731  20.493 -18.077  0.00  0.00    +0.000 C 
ATOM      3  C   UNL     1      10.079  19.163 -18.672  0.00  0.00    +0.000 A 
ATOM      4  C   UNL     1       9.923  18.927 -20.034  0.00  0.00    +0.000 A 
ATOM      5  C   UNL     1      10.222  17.669 -20.582  0.00  0.00    +0.000 A 
ATOM      6  C   UNL     1      10.667  16.586 -19.803  0.00  0.00    +0.000 A 
ATOM      7  C   UNL     1      10.816  16.861 -18.431  0.00  0.00    +0.000 A 
ATOM      8  C   UNL     1      10.522  18.115 -17.870  0.00  0.00    +0.000 A 
ENDBRANCH   1   6
BRANCH   1   9
ATOM      9  C   UNL     1      10.045  14.200 -20.210  0.00  0.00    +0.000 C 
BRANCH   9  10
ATOM     10  C   UNL     1       8.560  14.637 -20.244  0.00  0.00    +0.000 C 
ATOM     11  C   UNL     1       7.970  14.454 -21.637  0.00  0.00    +0.000 C 
BRANCH  10  12
ATOM     12  O   UNL     1       7.775  13.865 -19.324  0.00  0.00    +0.000 OA
ATOM     13  H   UNL     1       7.844  12.930 -19.581  0.00  0.00    +0.000 HD
ENDBRANCH  10  12
ENDBRANCH   9  10
ENDBRANCH   1   9
BRANCH   1  14
ATOM     14  C   UNL     1      12.390  14.957 -20.640  0.00  0.00    +0.000 C 
BRANCH  14  15
ATOM     15  C   UNL     1      12.937  13.942 -19.608  0.00  0.00    +0.000 C 
ATOM     16  C   UNL     1      14.137  13.155 -20.120  0.00  0.00    +0.000 C 
BRANCH  15  17
ATOM     17  O   UNL     1      13.315  14.581 -18.389  0.00  0.00    +0.000 OA
ATOM     18  H   UNL     1      12.934  14.021 -17.682  0.00  0.00    +0.000 HD
ENDBRANCH  15  17
ENDBRANCH  14  15
ENDBRANCH   1  14
TORSDOF 7
ENDMDL
MODEL 4
REMARK VINA RESULT:    -3.919     14.358     16.986
REMARK INTER + INTRA:          -5.781
REMARK INTER:                  -5.338
REMARK INTRA:                  -0.444
REMARK UNBOUND:                -0.488
REMARK  Name = 
REMARK  10 active torsions:
REMARK  status: ('A' for Active; 'I' for Inactive)
REMARK    1  A    between atoms: C_1  and  C_2
REMARK    2  A    between atoms: C_5  and  N_8
REMARK    3  A    between atoms: N_8  and  C_9
REMARK    4  A    between atoms: N_8  and  C_13
REMARK    5  A    between atoms: C_9  and  C_10
REMARK    6  A    between atoms: C_10  and  C_11
REMARK    7  A    between atoms: C_10  and  O_12
REMARK    8  A    between atoms: C_13  and  C_14
REMARK    9  A    between atoms: C_14  and  C_15
REMARK   10  A    between atoms: C_14  and  O_16
REMARK                            x       y       z     vdW  Elec       q    Type
REMARK                         _______ _______ _______ _____ _____    ______ ____
ROOT
ATOM      1  N   UNL     1      10.948  16.543 -19.479  0.00  0.00    +0.000 N 
ENDROOT
BRANCH   1   6
ATOM      2  C   UNL     1       9.395  21.116 -16.316  0.00  0.00    +0.000 C 
ATOM      3  C   UNL     1       9.820  19.941 -17.142  0.00  0.00    +0.000 A 
ATOM      4  C   UNL     1       9.494  19.861 -18.492  0.00  0.00    +0.000 A 
ATOM      5  C   UNL     1       9.869  18.743 -19.254  0.00  0.00    +0.000 A 
ATOM      6  C   UNL     1      10.560  17.647 -18.709  0.00  0.00    +0.000 A 
ATOM      7  C   UNL     1      10.875  17.762 -17.342  0.00  0.00    +0.000 A 
ATOM      8  C   UNL     1      10.508  18.875 -16.568  0.00  0.00    +0.000 A 
ENDBRANCH   1   6
BRANCH   1   9
ATOM      9  C   UNL     1      12.386  16.225 -19.651  0.00  0.00    +0.000 C 
BRANCH   9  10
ATOM     10  C   UNL     1      12.858  15.069 -18.735  0.00  0.00    +0.000 C 
ATOM     11  C   UNL     1      13.751  14.099 -19.499  0.00  0.00    +0.000 C 
BRANCH  10  12
ATOM     12  O   UNL     1      13.602  15.571 -17.616  0.00  0.00    +0.000 OA
ATOM     13  H   UNL     1      14.408  15.993 -17.955  0.00  0.00    +0.000 HD
ENDBRANCH  10  12
ENDBRANCH   9  10
ENDBRANCH   1   9
BRANCH   1  14
ATOM     14  C   UNL     1      10.055  15.986 -20.528  0.00  0.00    +0.000 C 
BRANCH  14  15
ATOM     15  C   UNL     1       9.329  14.703 -20.057  0.00  0.00    +0.000 C 
ATOM     16  C   UNL     1       8.008  14.463 -20.776  0.00  0.00    +0.000 C 
BRANCH  15  17
ATOM     17  O   UNL     1      10.143  13.544 -20.229  0.00  0.00    +0.000 OA
ATOM     18  H   UNL     1      10.864  13.828 -20.826  0.00  0.00    +0.000 HD
ENDBRANCH  15  17
ENDBRANCH  14  15
ENDBRANCH   1  14
TORSDOF 7
ENDMDL
MODEL 5
REMARK VINA RESULT:    -3.897      0.616      3.263
REMARK INTER + INTRA:          -5.752
REMARK INTER:                  -5.277
REMARK INTRA:                  -0.475
REMARK UNBOUND:                -0.488
REMARK  Name = 
REMARK  10 active torsions:
REMARK  status: ('A' for Active; 'I' for Inactive)
REMARK    1  A    between atoms: C_1  and  C_2
REMARK    2  A    between atoms: C_5  and  N_8
REMARK    3  A    between atoms: N_8  and  C_9
REMARK    4  A    between atoms: N_8  and  C_13
REMARK    5  A    between atoms: C_9  and  C_10
REMARK    6  A    between atoms: C_10  and  C_11
REMARK    7  A    between atoms: C_10  and  O_12
REMARK    8  A    between atoms: C_13  and  C_14
REMARK    9  A    between atoms: C_14  and  C_15
REMARK   10  A    between atoms: C_14  and  O_16
REMARK                            x       y       z     vdW  Elec       q    Type
REMARK                         _______ _______ _______ _____ _____    ______ ____
ROOT
ATOM      1  N   UNL     1       9.511  20.471  -2.076  0.00  0.00    +0.000 N 
ENDROOT
BRANCH   1   6
ATOM      2  C   UNL     1       8.649  22.369  -7.460  0.00  0.00    +0.000 C 
ATOM      3  C   UNL     1       8.872  21.853  -6.071  0.00  0.00    +0.000 A 
ATOM      4  C   UNL     1       7.801  21.621  -5.215  0.00  0.00    +0.000 A 
ATOM      5  C   UNL     1       8.018  21.166  -3.904  0.00  0.00    +0.000 A 
ATOM      6  C   UNL     1       9.303  20.944  -3.378  0.00  0.00    +0.000 A 
ATOM      7  C   UNL     1      10.362  21.186  -4.272  0.00  0.00    +0.000 A 
ATOM      8  C   UNL     1      10.159  21.639  -5.586  0.00  0.00    +0.000 A 
ENDBRANCH   1   6
BRANCH   1   9
ATOM      9  C   UNL     1      10.791  19.814  -1.719  0.00  0.00    +0.000 C 
BRANCH   9  10
ATOM     10  C   UNL     1      11.536  20.535  -0.570  0.00  0.00    +0.000 C 
ATOM     11  C   UNL     1      12.238  19.533   0.339  0.00  0.00    +0.000 C 
BRANCH  10  12
ATOM     12  O   UNL     1      12.526  21.437  -1.084  0.00  0.00    +0.000 OA
ATOM     13  H   UNL     1      12.738  21.166  -1.993  0.00  0.00    +0.000 HD
ENDBRANCH  10  12
ENDBRANCH   9  10
ENDBRANCH   1   9
BRANCH   1  14
ATOM     14  C   UNL     1       8.368  20.136  -1.188  0.00  0.00    +0.000 C 
BRANCH  14  15
ATOM     15  C   UNL     1       7.937  18.656  -1.325  0.00  0.00    +0.000 C 
ATOM     16  C   UNL     1       7.984  17.894  -0.006  0.00  0.00    +0.000 C 
BRANCH  15  17
ATOM     17  O   UNL     1       6.618  18.538  -1.856  0.00  0.00    +0.000 OA
ATOM     18  H   UNL     1       6.665  17.790  -2.486  0.00  0.00    +0.000 HD
ENDBRANCH  15  17
ENDBRANCH  14  15
ENDBRANCH   1  14
TORSDOF 7
ENDMDL
MODEL 6
REMARK VINA RESULT:    -3.658     14.370     16.677
REMARK INTER + INTRA:          -5.429
REMARK INTER:                  -4.662
REMARK INTRA:                  -0.767
REMARK UNBOUND:                -0.488
REMARK  Name = 
REMARK  10 active torsions:
REMARK  status: ('A' for Active; 'I' for Inactive)
REMARK    1  A    between atoms: C_1  and  C_2
REMARK    2  A    between atoms: C_5  and  N_8
REMARK    3  A    between atoms: N_8  and  C_9
REMARK    4  A    between atoms: N_8  and  C_13
REMARK    5  A    between atoms: C_9  and  C_10
REMARK    6  A    between atoms: C_10  and  C_11
REMARK    7  A    between atoms: C_10  and  O_12
REMARK    8  A    between atoms: C_13  and  C_14
REMARK    9  A    between atoms: C_14  and  C_15
REMARK   10  A    between atoms: C_14  and  O_16
REMARK                            x       y       z     vdW  Elec       q    Type
REMARK                         _______ _______ _______ _____ _____    ______ ____
ROOT
ATOM      1  N   UNL     1      11.091  18.481 -18.853  0.00  0.00    +0.000 N 
ENDROOT
BRANCH   1   6
ATOM      2  C   UNL     1       8.133  14.420 -21.696  0.00  0.00    +0.000 C 
ATOM      3  C   UNL     1       8.922  15.463 -20.966  0.00  0.00    +0.000 A 
ATOM      4  C   UNL     1       9.292  15.280 -19.638  0.00  0.00    +0.000 A 
ATOM      5  C   UNL     1      10.006  16.275 -18.950  0.00  0.00    +0.000 A 
ATOM      6  C   UNL     1      10.363  17.502 -19.539  0.00  0.00    +0.000 A 
ATOM      7  C   UNL     1       9.973  17.651 -20.883  0.00  0.00    +0.000 A 
ATOM      8  C   UNL     1       9.261  16.664 -21.583  0.00  0.00    +0.000 A 
ENDBRANCH   1   6
BRANCH   1   9
ATOM      9  C   UNL     1      10.763  19.916 -19.035  0.00  0.00    +0.000 C 
BRANCH   9  10
ATOM     10  C   UNL     1       9.588  20.380 -18.141  0.00  0.00    +0.000 C 
ATOM     11  C   UNL     1       8.323  20.584 -18.966  0.00  0.00    +0.000 C 
BRANCH  10  12
ATOM     12  O   UNL     1       9.303  19.413 -17.122  0.00  0.00    +0.000 OA
ATOM     13  H   UNL     1       9.059  18.579 -17.557  0.00  0.00    +0.000 HD
ENDBRANCH  10  12
ENDBRANCH   9  10
ENDBRANCH   1   9
BRANCH   1  14
ATOM     14  C   UNL     1      12.468  18.213 -18.363  0.00  0.00    +0.000 C 
BRANCH  14  15
ATOM     15  C   UNL     1      12.554  18.246 -16.818  0.00  0.00    +0.000 C 
ATOM     16  C   UNL     1      12.934  19.616 -16.268  0.00  0.00    +0.000 C 
BRANCH  15  17
ATOM     17  O   UNL     1      11.324  17.853 -16.212  0.00  0.00    +0.000 OA
ATOM     18  H   UNL     1      11.454  18.003 -15.254  0.00  0.00    +0.000 HD
ENDBRANCH  15  17
ENDBRANCH  14  15
ENDBRANCH   1  14
TORSDOF 7
ENDMDL
MODEL 7
REMARK VINA RESULT:    -3.654      2.131      5.189
REMARK INTER + INTRA:          -5.424
REMARK INTER:                  -4.718
REMARK INTRA:                  -0.706
REMARK UNBOUND:                -0.488
REMARK  Name = 
REMARK  10 active torsions:
REMARK  status: ('A' for Active; 'I' for Inactive)
REMARK    1  A    between atoms: C_1  and  C_2
REMARK    2  A    between atoms: C_5  and  N_8
REMARK    3  A    between atoms: N_8  and  C_9
REMARK    4  A    between atoms: N_8  and  C_13
REMARK    5  A    between atoms: C_9  and  C_10
REMARK    6  A    between atoms: C_10  and  C_11
REMARK    7  A    between atoms: C_10  and  O_12
REMARK    8  A    between atoms: C_13  and  C_14
REMARK    9  A    between atoms: C_14  and  C_15
REMARK   10  A    between atoms: C_14  and  O_16
REMARK                            x       y       z     vdW  Elec       q    Type
REMARK                         _______ _______ _______ _____ _____    ______ ____
ROOT
ATOM      1  N   UNL     1       9.557  21.451  -2.913  0.00  0.00    +0.000 N 
ENDROOT
BRANCH   1   6
ATOM      2  C   UNL     1       7.478  17.077   0.229  0.00  0.00    +0.000 C 
ATOM      3  C   UNL     1       8.038  18.212  -0.572  0.00  0.00    +0.000 A 
ATOM      4  C   UNL     1       7.786  19.532  -0.215  0.00  0.00    +0.000 A 
ATOM      5  C   UNL     1       8.289  20.592  -0.988  0.00  0.00    +0.000 A 
ATOM      6  C   UNL     1       9.042  20.390  -2.158  0.00  0.00    +0.000 A 
ATOM      7  C   UNL     1       9.280  19.043  -2.488  0.00  0.00    +0.000 A 
ATOM      8  C   UNL     1       8.785  17.974  -1.723  0.00  0.00    +0.000 A 
ENDBRANCH   1   6
BRANCH   1   9
ATOM      9  C   UNL     1      10.579  22.352  -2.328  0.00  0.00    +0.000 C 
BRANCH   9  10
ATOM     10  C   UNL     1      11.976  21.692  -2.231  0.00  0.00    +0.000 C 
ATOM     11  C   UNL     1      12.106  20.877  -0.950  0.00  0.00    +0.000 C 
BRANCH  10  12
ATOM     12  O   UNL     1      12.209  20.815  -3.341  0.00  0.00    +0.000 OA
ATOM     13  H   UNL     1      13.153  20.582  -3.348  0.00  0.00    +0.000 HD
ENDBRANCH  10  12
ENDBRANCH   9  10
ENDBRANCH   1   9
BRANCH   1  14
ATOM     14  C   UNL     1       8.794  22.027  -4.050  0.00  0.00    +0.000 C 
BRANCH  14  15
ATOM     15  C   UNL     1       9.213  21.410  -5.406  0.00  0.00    +0.000 C 
ATOM     16  C   UNL     1       8.509  22.048  -6.598  0.00  0.00    +0.000 C 
BRANCH  15  17
ATOM     17  O   UNL     1      10.621  21.510  -5.619  0.00  0.00    +0.000 OA
ATOM     18  H   UNL     1      10.799  22.470  -5.679  0.00  0.00    +0.000 HD
ENDBRANCH  15  17
ENDBRANCH  14  15
ENDBRANCH   1  14
TORSDOF 7
ENDMDL
MODEL 8
REMARK VINA RESULT:    -3.634      2.263      5.539
REMARK INTER + INTRA:          -5.397
REMARK INTER:                  -4.861
REMARK INTRA:                  -0.536
REMARK UNBOUND:                -0.488
REMARK  Name = 
REMARK  10 active torsions:
REMARK  status: ('A' for Active; 'I' for Inactive)
REMARK    1  A    between atoms: C_1  and  C_2
REMARK    2  A    between atoms: C_5  and  N_8
REMARK    3  A    between atoms: N_8  and  C_9
REMARK    4  A    between atoms: N_8  and  C_13
REMARK    5  A    between atoms: C_9  and  C_10
REMARK    6  A    between atoms: C_10  and  C_11
REMARK    7  A    between atoms: C_10  and  O_12
REMARK    8  A    between atoms: C_13  and  C_14
REMARK    9  A    between atoms: C_14  and  C_15
REMARK   10  A    between atoms: C_14  and  O_16
REMARK                            x       y       z     vdW  Elec       q    Type
REMARK                         _______ _______ _______ _____ _____    ______ ____
ROOT
ATOM      1  N   UNL     1       9.189  21.040  -3.124  0.00  0.00    +0.000 N 
ENDROOT
BRANCH   1   6
ATOM      2  C   UNL     1      12.518  17.625   0.130  0.00  0.00    +0.000 C 
ATOM      3  C   UNL     1      11.671  18.510  -0.733  0.00  0.00    +0.000 A 
ATOM      4  C   UNL     1      11.774  19.895  -0.652  0.00  0.00    +0.000 A 
ATOM      5  C   UNL     1      10.956  20.720  -1.442  0.00  0.00    +0.000 A 
ATOM      6  C   UNL     1       9.987  20.211  -2.325  0.00  0.00    +0.000 A 
ATOM      7  C   UNL     1       9.913  18.807  -2.382  0.00  0.00    +0.000 A 
ATOM      8  C   UNL     1      10.726  17.970  -1.600  0.00  0.00    +0.000 A 
ENDBRANCH   1   6
BRANCH   1   9
ATOM      9  C   UNL     1       9.691  22.368  -3.552  0.00  0.00    +0.000 C 
BRANCH   9  10
ATOM     10  C   UNL     1      10.472  22.312  -4.888  0.00  0.00    +0.000 C 
ATOM     11  C   UNL     1      11.963  22.114  -4.640  0.00  0.00    +0.000 C 
BRANCH  10  12
ATOM     12  O   UNL     1      10.010  21.230  -5.709  0.00  0.00    +0.000 OA
ATOM     13  H   UNL     1      10.279  20.397  -5.288  0.00  0.00    +0.000 HD
ENDBRANCH  10  12
ENDBRANCH   9  10
ENDBRANCH   1   9
BRANCH   1  14
ATOM     14  C   UNL     1       7.711  20.895  -3.145  0.00  0.00    +0.000 C 
BRANCH  14  15
ATOM     15  C   UNL     1       7.111  20.817  -1.720  0.00  0.00    +0.000 C 
ATOM     16  C   UNL     1       6.819  22.186  -1.117  0.00  0.00    +0.000 C 
BRANCH  15  17
ATOM     17  O   UNL     1       5.904  20.058  -1.697  0.00  0.00    +0.000 OA
ATOM     18  H   UNL     1       6.126  19.217  -2.146  0.00  0.00    +0.000 HD
ENDBRANCH  15  17
ENDBRANCH  14  15
ENDBRANCH   1  14
TORSDOF 7
ENDMDL
MODEL 9
REMARK VINA RESULT:    -3.581     14.184     16.762
REMARK INTER + INTRA:          -5.326
REMARK INTER:                  -4.850
REMARK INTRA:                  -0.476
REMARK UNBOUND:                -0.488
REMARK  Name = 
REMARK  10 active torsions:
REMARK  status: ('A' for Active; 'I' for Inactive)
REMARK    1  A    between atoms: C_1  and  C_2
REMARK    2  A    between atoms: C_5  and  N_8
REMARK    3  A    between atoms: N_8  and  C_9
REMARK    4  A    between atoms: N_8  and  C_13
REMARK    5  A    between atoms: C_9  and  C_10
REMARK    6  A    between atoms: C_10  and  C_11
REMARK    7  A    between atoms: C_10  and  O_12
REMARK    8  A    between atoms: C_13  and  C_14
REMARK    9  A    between atoms: C_14  and  C_15
REMARK   10  A    between atoms: C_14  and  O_16
REMARK                            x       y       z     vdW  Elec       q    Type
REMARK                         _______ _______ _______ _____ _____    ______ ____
ROOT
ATOM      1  N   UNL     1      11.501  17.698 -18.815  0.00  0.00    +0.000 N 
ENDROOT
BRANCH   1   6
ATOM      2  C   UNL     1       9.068  13.326 -21.695  0.00  0.00    +0.000 C 
ATOM      3  C   UNL     1       9.712  14.444 -20.934  0.00  0.00    +0.000 A 
ATOM      4  C   UNL     1       9.113  14.971 -19.795  0.00  0.00    +0.000 A 
ATOM      5  C   UNL     1       9.707  16.039 -19.102  0.00  0.00    +0.000 A 
ATOM      6  C   UNL     1      10.905  16.646 -19.521  0.00  0.00    +0.000 A 
ATOM      7  C   UNL     1      11.483  16.086 -20.675  0.00  0.00    +0.000 A 
ATOM      8  C   UNL     1      10.902  15.017 -21.376  0.00  0.00    +0.000 A 
ENDBRANCH   1   6
BRANCH   1   9
ATOM      9  C   UNL     1      10.660  18.758 -18.210  0.00  0.00    +0.000 C 
BRANCH   9  10
ATOM     10  C   UNL     1      10.774  18.808 -16.666  0.00  0.00    +0.000 C 
ATOM     11  C   UNL     1       9.829  19.851 -16.083  0.00  0.00    +0.000 C 
BRANCH  10  12
ATOM     12  O   UNL     1      10.448  17.537 -16.085  0.00  0.00    +0.000 OA
ATOM     13  H   UNL     1      10.602  16.851 -16.755  0.00  0.00    +0.000 HD
ENDBRANCH  10  12
ENDBRANCH   9  10
ENDBRANCH   1   9
BRANCH   1  14
ATOM     14  C   UNL     1      12.913  18.087 -19.062  0.00  0.00    +0.000 C 
BRANCH  14  15
ATOM     15  C   UNL     1      13.898  17.331 -18.136  0.00  0.00    +0.000 C 
ATOM     16  C   UNL     1      14.482  18.211 -17.037  0.00  0.00    +0.000 C 
BRANCH  15  17
ATOM     17  O   UNL     1      13.280  16.204 -17.518  0.00  0.00    +0.000 OA
ATOM     18  H   UNL     1      12.688  16.581 -16.837  0.00  0.00    +0.000 HD
ENDBRANCH  15  17
ENDBRANCH  14  15
ENDBRANCH   1  14
TORSDOF 7
ENDMDL
