MODEL 1
REMARK VINA RESULT:    -3.830      0.000      0.000
REMARK INTER + INTRA:          -4.204
REMARK INTER:                  -4.166
REMARK INTRA:                  -0.038
REMARK UNBOUND:                -0.038
REMARK  Name = 
REMARK  3 active torsions:
REMARK  status: ('A' for Active; 'I' for Inactive)
REMARK    1  A    between atoms: C_1  and  O_2
REMARK    2  A    between atoms: O_2  and  C_3
REMARK    3  A    between atoms: C_8  and  O_9
REMARK                            x       y       z     vdW  Elec       q    Type
REMARK                         _______ _______ _______ _____ _____    ______ ____
ROOT
ATOM      1  C   UNL     1      -4.266  11.758  -4.868  0.00  0.00    +0.000 A 
ATOM      2  C   UNL     1      -4.999  12.888  -5.230  0.00  0.00    +0.000 A 
ATOM      3  C   UNL     1      -5.413  13.058  -6.557  0.00  0.00    +0.000 A 
ATOM      4  C   UNL     1      -5.097  12.103  -7.525  0.00  0.00    +0.000 A 
ATOM      5  C   UNL     1      -4.366  10.971  -7.171  0.00  0.00    +0.000 A 
ATOM      6  C   UNL     1      -3.959  10.811  -5.853  0.00  0.00    +0.000 A 
ENDROOT
BRANCH   1   8
ATOM      7  C   UNL     1      -3.892  12.497  -2.641  0.00  0.00    +0.000 C 
ATOM      8  O   UNL     1      -3.797  11.463  -3.613  0.00  0.00    +0.000 OA
ENDBRANCH   1   8
BRANCH   6   9
ATOM      9  O   UNL     1      -3.241   9.691  -5.530  0.00  0.00    +0.000 OA
ATOM     10  H   UNL     1      -3.780   9.237  -4.853  0.00  0.00    +0.000 HD
ENDBRANCH   6   9
TORSDOF 2
ENDMDL
MODEL 2
REMARK VINA RESULT:    -3.744      1.747      2.341
REMARK INTER + INTRA:          -4.110
REMARK INTER:                  -4.058
REMARK INTRA:                  -0.051
REMARK UNBOUND:                -0.038
REMARK  Name = 
REMARK  3 active torsions:
REMARK  status: ('A' for Active; 'I' for Inactive)
REMARK    1  A    between atoms: C_1  and  O_2
REMARK    2  A    between atoms: O_2  and  C_3
REMARK    3  A    between atoms: C_8  and  O_9
REMARK                            x       y       z     vdW  Elec       q    Type
REMARK                         _______ _______ _______ _____ _____    ______ ____
ROOT
ATOM      1  C   UNL     1      -4.878  11.589  -6.803  0.00  0.00    +0.000 A 
ATOM      2  C   UNL     1      -4.685  12.883  -7.286  0.00  0.00    +0.000 A 
ATOM      3  C   UNL     1      -5.554  13.406  -8.252  0.00  0.00    +0.000 A 
ATOM      4  C   UNL     1      -6.615  12.640  -8.739  0.00  0.00    +0.000 A 
ATOM      5  C   UNL     1      -6.814  11.347  -8.261  0.00  0.00    +0.000 A 
ATOM      6  C   UNL     1      -5.948  10.836  -7.303  0.00  0.00    +0.000 A 
ENDROOT
BRANCH   1   8
ATOM      7  C   UNL     1      -4.006  11.584  -4.593  0.00  0.00    +0.000 C 
ATOM      8  O   UNL     1      -4.109  10.952  -5.863  0.00  0.00    +0.000 OA
ENDBRANCH   1   8
BRANCH   6   9
ATOM      9  O   UNL     1      -6.164   9.562  -6.849  0.00  0.00    +0.000 OA
ATOM     10  H   UNL     1      -5.688   9.518  -5.997  0.00  0.00    +0.000 HD
ENDBRANCH   6   9
TORSDOF 2
ENDMDL
MODEL 3
REMARK VINA RESULT:    -3.683      3.465      6.238
REMARK INTER + INTRA:          -4.044
REMARK INTER:                  -4.007
REMARK INTRA:                  -0.037
REMARK UNBOUND:                -0.038
REMARK  Name = 
REMARK  3 active torsions:
REMARK  status: ('A' for Active; 'I' for Inactive)
REMARK    1  A    between atoms: C_1  and  O_2
REMARK    2  A    between atoms: O_2  and  C_3
REMARK    3  A    between atoms: C_8  and  O_9
REMARK                            x       y       z     vdW  Elec       q    Type
REMARK                         _______ _______ _______ _____ _____    ______ ____
ROOT
ATOM      1  C   UNL     1      -4.708  13.810  -1.294  0.00  0.00    +0.000 A 
ATOM      2  C   UNL     1      -3.513  14.525  -1.370  0.00  0.00    +0.000 A 
ATOM      3  C   UNL     1      -3.259  15.561  -0.462  0.00  0.00    +0.000 A 
ATOM      4  C   UNL     1      -4.195  15.886   0.521  0.00  0.00    +0.000 A 
ATOM      5  C   UNL     1      -5.390  15.176   0.604  0.00  0.00    +0.000 A 
ATOM      6  C   UNL     1      -5.635  14.151  -0.301  0.00  0.00    +0.000 A 
ENDROOT
BRANCH   1   8
ATOM      7  C   UNL     1      -4.116  12.311  -3.040  0.00  0.00    +0.000 C 
ATOM      8  O   UNL     1      -5.089  12.778  -2.113  0.00  0.00    +0.000 OA
ENDBRANCH   1   8
BRANCH   6   9
ATOM      9  O   UNL     1      -6.817  13.468  -0.200  0.00  0.00    +0.000 OA
ATOM     10  H   UNL     1      -6.593  12.547  -0.435  0.00  0.00    +0.000 HD
ENDBRANCH   6   9
TORSDOF 2
ENDMDL
MODEL 4
REMARK VINA RESULT:    -3.669      2.190      3.327
REMARK INTER + INTRA:          -4.028
REMARK INTER:                  -3.976
REMARK INTRA:                  -0.053
REMARK UNBOUND:                -0.038
REMARK  Name = 
REMARK  3 active torsions:
REMARK  status: ('A' for Active; 'I' for Inactive)
REMARK    1  A    between atoms: C_1  and  O_2
REMARK    2  A    between atoms: O_2  and  C_3
REMARK    3  A    between atoms: C_8  and  O_9
REMARK                            x       y       z     vdW  Elec       q    Type
REMARK                         _______ _______ _______ _____ _____    ______ ____
ROOT
ATOM      1  C   UNL     1      -4.652  12.551  -7.067  0.00  0.00    +0.000 A 
ATOM      2  C   UNL     1      -5.387  12.681  -8.244  0.00  0.00    +0.000 A 
ATOM      3  C   UNL     1      -5.353  13.883  -8.962  0.00  0.00    +0.000 A 
ATOM      4  C   UNL     1      -4.587  14.958  -8.506  0.00  0.00    +0.000 A 
ATOM      5  C   UNL     1      -3.850  14.836  -7.330  0.00  0.00    +0.000 A 
ATOM      6  C   UNL     1      -3.890  13.639  -6.625  0.00  0.00    +0.000 A 
ENDROOT
BRANCH   1   8
ATOM      7  C   UNL     1      -3.999  10.278  -6.835  0.00  0.00    +0.000 C 
ATOM      8  O   UNL     1      -4.593  11.438  -6.266  0.00  0.00    +0.000 OA
ENDBRANCH   1   8
BRANCH   6   9
ATOM      9  O   UNL     1      -3.157  13.543  -5.472  0.00  0.00    +0.000 OA
ATOM     10  H   UNL     1      -2.678  12.696  -5.552  0.00  0.00    +0.000 HD
ENDBRANCH   6   9
TORSDOF 2
ENDMDL
MODEL 5
REMARK VINA RESULT:    -3.603      1.995      2.247
REMARK INTER + INTRA:          -3.957
REMARK INTER:                  -3.920
REMARK INTRA:                  -0.038
REMARK UNBOUND:                -0.038
REMARK  Name = 
REMARK  3 active torsions:
REMARK  status: ('A' for Active; 'I' for Inactive)
REMARK    1  A    between atoms: C_1  and  O_2
REMARK    2  A    between atoms: O_2  and  C_3
REMARK    3  A    between atoms: C_8  and  O_9
REMARK                            x       y       z     vdW  Elec       q    Type
REMARK                         _______ _______ _______ _____ _____    ______ ____
ROOT
ATOM      1  C   UNL     1      -4.561  12.252  -6.612  0.00  0.00    +0.000 A 
ATOM      2  C   UNL     1      -5.837  12.801  -6.735  0.00  0.00    +0.000 A 
ATOM      3  C   UNL     1      -6.922  11.980  -7.070  0.00  0.00    +0.000 A 
ATOM      4  C   UNL     1      -6.736  10.613  -7.284  0.00  0.00    +0.000 A 
ATOM      5  C   UNL     1      -5.464  10.058  -7.163  0.00  0.00    +0.000 A 
ATOM      6  C   UNL     1      -4.394  10.879  -6.830  0.00  0.00    +0.000 A 
ENDROOT
BRANCH   1   8
ATOM      7  C   UNL     1      -3.526  14.345  -6.168  0.00  0.00    +0.000 C 
ATOM      8  O   UNL     1      -3.413  12.932  -6.291  0.00  0.00    +0.000 OA
ENDBRANCH   1   8
BRANCH   6   9
ATOM      9  O   UNL     1      -3.154  10.310  -6.717  0.00  0.00    +0.000 OA
ATOM     10  H   UNL     1      -3.229   9.455  -7.181  0.00  0.00    +0.000 HD
ENDBRANCH   6   9
TORSDOF 2
ENDMDL
MODEL 6
REMARK VINA RESULT:    -3.602      0.995      2.867
REMARK INTER + INTRA:          -3.956
REMARK INTER:                  -3.909
REMARK INTRA:                  -0.046
REMARK UNBOUND:                -0.038
REMARK  Name = 
REMARK  3 active torsions:
REMARK  status: ('A' for Active; 'I' for Inactive)
REMARK    1  A    between atoms: C_1  and  O_2
REMARK    2  A    between atoms: O_2  and  C_3
REMARK    3  A    between atoms: C_8  and  O_9
REMARK                            x       y       z     vdW  Elec       q    Type
REMARK                         _______ _______ _______ _____ _____    ______ ____
ROOT
ATOM      1  C   UNL     1      -4.202  11.127  -6.361  0.00  0.00    +0.000 A 
ATOM      2  C   UNL     1      -4.817  11.884  -7.357  0.00  0.00    +0.000 A 
ATOM      3  C   UNL     1      -5.331  13.151  -7.055  0.00  0.00    +0.000 A 
ATOM      4  C   UNL     1      -5.234  13.664  -5.760  0.00  0.00    +0.000 A 
ATOM      5  C   UNL     1      -4.621  12.914  -4.760  0.00  0.00    +0.000 A 
ATOM      6  C   UNL     1      -4.114  11.658  -5.068  0.00  0.00    +0.000 A 
ENDROOT
BRANCH   1   8
ATOM      7  C   UNL     1      -4.426   8.935  -7.251  0.00  0.00    +0.000 C 
ATOM      8  O   UNL     1      -3.657   9.877  -6.513  0.00  0.00    +0.000 OA
ENDBRANCH   1   8
BRANCH   6   9
ATOM      9  O   UNL     1      -3.515  10.939  -4.068  0.00  0.00    +0.000 OA
ATOM     10  H   UNL     1      -4.025  11.158  -3.265  0.00  0.00    +0.000 HD
ENDBRANCH   6   9
TORSDOF 2
ENDMDL
MODEL 7
REMARK VINA RESULT:    -3.540      4.452      6.948
REMARK INTER + INTRA:          -3.889
REMARK INTER:                  -3.849
REMARK INTRA:                  -0.039
REMARK UNBOUND:                -0.038
REMARK  Name = 
REMARK  3 active torsions:
REMARK  status: ('A' for Active; 'I' for Inactive)
REMARK    1  A    between atoms: C_1  and  O_2
REMARK    2  A    between atoms: O_2  and  C_3
REMARK    3  A    between atoms: C_8  and  O_9
REMARK                            x       y       z     vdW  Elec       q    Type
REMARK                         _______ _______ _______ _____ _____    ______ ____
ROOT
ATOM      1  C   UNL     1      -2.123  14.554  -0.874  0.00  0.00    +0.000 A 
ATOM      2  C   UNL     1      -3.105  15.175  -0.103  0.00  0.00    +0.000 A 
ATOM      3  C   UNL     1      -2.824  16.381   0.550  0.00  0.00    +0.000 A 
ATOM      4  C   UNL     1      -1.563  16.971   0.436  0.00  0.00    +0.000 A 
ATOM      5  C   UNL     1      -0.577  16.358  -0.333  0.00  0.00    +0.000 A 
ATOM      6  C   UNL     1      -0.864  15.161  -0.977  0.00  0.00    +0.000 A 
ENDROOT
BRANCH   1   8
ATOM      7  C   UNL     1      -3.583  12.980  -1.890  0.00  0.00    +0.000 C 
ATOM      8  O   UNL     1      -2.257  13.377  -1.564  0.00  0.00    +0.000 OA
ENDBRANCH   1   8
BRANCH   6   9
ATOM      9  O   UNL     1       0.121  14.577  -1.727  0.00  0.00    +0.000 OA
ATOM     10  H   UNL     1      -0.239  14.552  -2.634  0.00  0.00    +0.000 HD
ENDBRANCH   6   9
TORSDOF 2
ENDMDL
MODEL 8
REMARK VINA RESULT:    -3.388      1.912      2.393
REMARK INTER + INTRA:          -3.723
REMARK INTER:                  -3.671
REMARK INTRA:                  -0.053
REMARK UNBOUND:                -0.038
REMARK  Name = 
REMARK  3 active torsions:
REMARK  status: ('A' for Active; 'I' for Inactive)
REMARK    1  A    between atoms: C_1  and  O_2
REMARK    2  A    between atoms: O_2  and  C_3
REMARK    3  A    between atoms: C_8  and  O_9
REMARK                            x       y       z     vdW  Elec       q    Type
REMARK                         _______ _______ _______ _____ _____    ______ ____
ROOT
ATOM      1  C   UNL     1      -5.844  12.166  -5.624  0.00  0.00    +0.000 A 
ATOM      2  C   UNL     1      -6.812  11.394  -6.264  0.00  0.00    +0.000 A 
ATOM      3  C   UNL     1      -6.426  10.343  -7.105  0.00  0.00    +0.000 A 
ATOM      4  C   UNL     1      -5.074  10.061  -7.310  0.00  0.00    +0.000 A 
ATOM      5  C   UNL     1      -4.100  10.828  -6.674  0.00  0.00    +0.000 A 
ATOM      6  C   UNL     1      -4.493  11.869  -5.842  0.00  0.00    +0.000 A 
ENDROOT
BRANCH   1   8
ATOM      7  C   UNL     1      -6.679  12.911  -3.528  0.00  0.00    +0.000 C 
ATOM      8  O   UNL     1      -6.076  13.221  -4.779  0.00  0.00    +0.000 OA
ENDBRANCH   1   8
BRANCH   6   9
ATOM      9  O   UNL     1      -3.518  12.609  -5.229  0.00  0.00    +0.000 OA
ATOM     10  H   UNL     1      -3.964  13.026  -4.467  0.00  0.00    +0.000 HD
ENDBRANCH   6   9
TORSDOF 2
ENDMDL
MODEL 9
REMARK VINA RESULT:    -3.382      2.563      3.085
REMARK INTER + INTRA:          -3.717
REMARK INTER:                  -3.675
REMARK INTRA:                  -0.042
REMARK UNBOUND:                -0.038
REMARK  Name = 
REMARK  3 active torsions:
REMARK  status: ('A' for Active; 'I' for Inactive)
REMARK    1  A    between atoms: C_1  and  O_2
REMARK    2  A    between atoms: O_2  and  C_3
REMARK    3  A    between atoms: C_8  and  O_9
REMARK                            x       y       z     vdW  Elec       q    Type
REMARK                         _______ _______ _______ _____ _____    ______ ____
ROOT
ATOM      1  C   UNL     1      -3.684  14.261  -6.654  0.00  0.00    +0.000 A 
ATOM      2  C   UNL     1      -4.160  14.933  -7.779  0.00  0.00    +0.000 A 
ATOM      3  C   UNL     1      -5.024  14.283  -8.668  0.00  0.00    +0.000 A 
ATOM      4  C   UNL     1      -5.415  12.963  -8.438  0.00  0.00    +0.000 A 
ATOM      5  C   UNL     1      -4.944  12.285  -7.316  0.00  0.00    +0.000 A 
ATOM      6  C   UNL     1      -4.087  12.937  -6.439  0.00  0.00    +0.000 A 
ENDROOT
BRANCH   1   8
ATOM      7  C   UNL     1      -1.863  15.704  -6.156  0.00  0.00    +0.000 C 
ATOM      8  O   UNL     1      -2.836  14.771  -5.703  0.00  0.00    +0.000 OA
ENDBRANCH   1   8
BRANCH   6   9
ATOM      9  O   UNL     1      -3.638  12.250  -5.343  0.00  0.00    +0.000 OA
ATOM     10  H   UNL     1      -4.229  12.527  -4.617  0.00  0.00    +0.000 HD
ENDBRANCH   6   9
TORSDOF 2
ENDMDL
