MODEL 1
REMARK VINA RESULT:    -4.057      0.000      0.000
REMARK INTER + INTRA:          -4.450
REMARK INTER:                  -4.413
REMARK INTRA:                  -0.038
REMARK UNBOUND:                -0.038
REMARK  Name = 
REMARK  3 active torsions:
REMARK  status: ('A' for Active; 'I' for Inactive)
REMARK    1  A    between atoms: C_1  and  O_2
REMARK    2  A    between atoms: O_2  and  C_3
REMARK    3  A    between atoms: C_8  and  O_9
REMARK                            x       y       z     vdW  Elec       q    Type
REMARK                         _______ _______ _______ _____ _____    ______ ____
ROOT
ATOM      1  C   UNL     1      -6.275   8.118 -17.840  0.00  0.00    +0.000 A 
ATOM      2  C   UNL     1      -7.088   7.157 -18.441  0.00  0.00    +0.000 A 
ATOM      3  C   UNL     1      -7.501   6.035 -17.712  0.00  0.00    +0.000 A 
ATOM      4  C   UNL     1      -7.104   5.868 -16.384  0.00  0.00    +0.000 A 
ATOM      5  C   UNL     1      -6.292   6.823 -15.776  0.00  0.00    +0.000 A 
ATOM      6  C   UNL     1      -5.887   7.933 -16.507  0.00  0.00    +0.000 A 
ENDROOT
BRANCH   1   8
ATOM      7  C   UNL     1      -6.269   9.542 -19.742  0.00  0.00    +0.000 C 
ATOM      8  O   UNL     1      -5.797   9.260 -18.430  0.00  0.00    +0.000 OA
ENDBRANCH   1   8
BRANCH   6   9
ATOM      9  O   UNL     1      -5.089   8.858 -15.889  0.00  0.00    +0.000 OA
ATOM     10  H   UNL     1      -4.262   8.380 -15.691  0.00  0.00    +0.000 HD
ENDBRANCH   6   9
TORSDOF 2
ENDMDL
MODEL 2
REMARK VINA RESULT:    -3.851      2.371      3.066
REMARK INTER + INTRA:          -4.226
REMARK INTER:                  -4.176
REMARK INTRA:                  -0.050
REMARK UNBOUND:                -0.038
REMARK  Name = 
REMARK  3 active torsions:
REMARK  status: ('A' for Active; 'I' for Inactive)
REMARK    1  A    between atoms: C_1  and  O_2
REMARK    2  A    between atoms: O_2  and  C_3
REMARK    3  A    between atoms: C_8  and  O_9
REMARK                            x       y       z     vdW  Elec       q    Type
REMARK                         _______ _______ _______ _____ _____    ______ ____
ROOT
ATOM      1  C   UNL     1      -6.538   6.342 -18.302  0.00  0.00    +0.000 A 
ATOM      2  C   UNL     1      -6.090   7.624 -18.617  0.00  0.00    +0.000 A 
ATOM      3  C   UNL     1      -5.774   8.526 -17.592  0.00  0.00    +0.000 A 
ATOM      4  C   UNL     1      -5.905   8.151 -16.254  0.00  0.00    +0.000 A 
ATOM      5  C   UNL     1      -6.351   6.871 -15.932  0.00  0.00    +0.000 A 
ATOM      6  C   UNL     1      -6.663   5.984 -16.954  0.00  0.00    +0.000 A 
ENDROOT
BRANCH   1   8
ATOM      7  C   UNL     1      -5.899   5.009 -20.162  0.00  0.00    +0.000 C 
ATOM      8  O   UNL     1      -6.883   5.361 -19.197  0.00  0.00    +0.000 OA
ENDBRANCH   1   8
BRANCH   6   9
ATOM      9  O   UNL     1      -7.100   4.732 -16.613  0.00  0.00    +0.000 OA
ATOM     10  H   UNL     1      -7.888   4.887 -16.058  0.00  0.00    +0.000 HD
ENDBRANCH   6   9
TORSDOF 2
ENDMDL
MODEL 3
REMARK VINA RESULT:    -3.613      2.074      2.731
REMARK INTER + INTRA:          -3.967
REMARK INTER:                  -3.921
REMARK INTRA:                  -0.046
REMARK UNBOUND:                -0.038
REMARK  Name = 
REMARK  3 active torsions:
REMARK  status: ('A' for Active; 'I' for Inactive)
REMARK    1  A    between atoms: C_1  and  O_2
REMARK    2  A    between atoms: O_2  and  C_3
REMARK    3  A    between atoms: C_8  and  O_9
REMARK                            x       y       z     vdW  Elec       q    Type
REMARK                         _______ _______ _______ _____ _____    ______ ____
ROOT
ATOM      1  C   UNL     1      -5.339   6.867 -18.286  0.00  0.00    +0.000 A 
ATOM      2  C   UNL     1      -5.305   7.712 -17.177  0.00  0.00    +0.000 A 
ATOM      3  C   UNL     1      -6.097   7.428 -16.057  0.00  0.00    +0.000 A 
ATOM      4  C   UNL     1      -6.923   6.302 -16.041  0.00  0.00    +0.000 A 
ATOM      5  C   UNL     1      -6.961   5.453 -17.145  0.00  0.00    +0.000 A 
ATOM      6  C   UNL     1      -6.173   5.743 -18.251  0.00  0.00    +0.000 A 
ENDROOT
BRANCH   1   8
ATOM      7  C   UNL     1      -5.050   8.056 -20.323  0.00  0.00    +0.000 C 
ATOM      8  O   UNL     1      -4.621   7.022 -19.445  0.00  0.00    +0.000 OA
ENDBRANCH   1   8
BRANCH   6   9
ATOM      9  O   UNL     1      -6.228   4.894 -19.324  0.00  0.00    +0.000 OA
ATOM     10  H   UNL     1      -5.299   4.642 -19.490  0.00  0.00    +0.000 HD
ENDBRANCH   6   9
TORSDOF 2
ENDMDL
MODEL 4
REMARK VINA RESULT:    -3.466     23.529     23.965
REMARK INTER + INTRA:          -3.807
REMARK INTER:                  -3.763
REMARK INTRA:                  -0.045
REMARK UNBOUND:                -0.038
REMARK  Name = 
REMARK  3 active torsions:
REMARK  status: ('A' for Active; 'I' for Inactive)
REMARK    1  A    between atoms: C_1  and  O_2
REMARK    2  A    between atoms: O_2  and  C_3
REMARK    3  A    between atoms: C_8  and  O_9
REMARK                            x       y       z     vdW  Elec       q    Type
REMARK                         _______ _______ _______ _____ _____    ______ ____
ROOT
ATOM      1  C   UNL     1       7.834  20.349  -2.748  0.00  0.00    +0.000 A 
ATOM      2  C   UNL     1       9.144  19.929  -2.971  0.00  0.00    +0.000 A 
ATOM      3  C   UNL     1       9.630  18.781  -2.332  0.00  0.00    +0.000 A 
ATOM      4  C   UNL     1       8.810  18.052  -1.468  0.00  0.00    +0.000 A 
ATOM      5  C   UNL     1       7.499  18.466  -1.240  0.00  0.00    +0.000 A 
ATOM      6  C   UNL     1       7.027  19.605  -1.878  0.00  0.00    +0.000 A 
ENDROOT
BRANCH   1   8
ATOM      7  C   UNL     1       7.505  21.700  -4.675  0.00  0.00    +0.000 C 
ATOM      8  O   UNL     1       7.229  21.449  -3.302  0.00  0.00    +0.000 OA
ENDBRANCH   1   8
BRANCH   6   9
ATOM      9  O   UNL     1       5.735  19.992  -1.638  0.00  0.00    +0.000 OA
ATOM     10  H   UNL     1       5.329  20.063  -2.523  0.00  0.00    +0.000 HD
ENDBRANCH   6   9
TORSDOF 2
ENDMDL
MODEL 5
REMARK VINA RESULT:    -3.410     23.472     24.492
REMARK INTER + INTRA:          -3.746
REMARK INTER:                  -3.694
REMARK INTRA:                  -0.052
REMARK UNBOUND:                -0.038
REMARK  Name = 
REMARK  3 active torsions:
REMARK  status: ('A' for Active; 'I' for Inactive)
REMARK    1  A    between atoms: C_1  and  O_2
REMARK    2  A    between atoms: O_2  and  C_3
REMARK    3  A    between atoms: C_8  and  O_9
REMARK                            x       y       z     vdW  Elec       q    Type
REMARK                         _______ _______ _______ _____ _____    ______ ____
ROOT
ATOM      1  C   UNL     1       8.748  18.500  -1.825  0.00  0.00    +0.000 A 
ATOM      2  C   UNL     1       9.967  19.077  -2.177  0.00  0.00    +0.000 A 
ATOM      3  C   UNL     1       9.991  20.259  -2.928  0.00  0.00    +0.000 A 
ATOM      4  C   UNL     1       8.800  20.866  -3.330  0.00  0.00    +0.000 A 
ATOM      5  C   UNL     1       7.578  20.295  -2.982  0.00  0.00    +0.000 A 
ATOM      6  C   UNL     1       7.564  19.123  -2.237  0.00  0.00    +0.000 A 
ENDROOT
BRANCH   1   8
ATOM      7  C   UNL     1       9.059  17.367   0.241  0.00  0.00    +0.000 C 
ATOM      8  O   UNL     1       8.575  17.350  -1.097  0.00  0.00    +0.000 OA
ENDBRANCH   1   8
BRANCH   6   9
ATOM      9  O   UNL     1       6.350  18.581  -1.907  0.00  0.00    +0.000 OA
ATOM     10  H   UNL     1       5.796  19.345  -1.659  0.00  0.00    +0.000 HD
ENDBRANCH   6   9
TORSDOF 2
ENDMDL
MODEL 6
REMARK VINA RESULT:    -3.317      1.533      3.189
REMARK INTER + INTRA:          -3.645
REMARK INTER:                  -3.601
REMARK INTRA:                  -0.044
REMARK UNBOUND:                -0.038
REMARK  Name = 
REMARK  3 active torsions:
REMARK  status: ('A' for Active; 'I' for Inactive)
REMARK    1  A    between atoms: C_1  and  O_2
REMARK    2  A    between atoms: O_2  and  C_3
REMARK    3  A    between atoms: C_8  and  O_9
REMARK                            x       y       z     vdW  Elec       q    Type
REMARK                         _______ _______ _______ _____ _____    ______ ____
ROOT
ATOM      1  C   UNL     1      -6.288   6.791 -17.370  0.00  0.00    +0.000 A 
ATOM      2  C   UNL     1      -6.261   6.207 -18.636  0.00  0.00    +0.000 A 
ATOM      3  C   UNL     1      -5.983   6.992 -19.762  0.00  0.00    +0.000 A 
ATOM      4  C   UNL     1      -5.733   8.359 -19.628  0.00  0.00    +0.000 A 
ATOM      5  C   UNL     1      -5.758   8.949 -18.367  0.00  0.00    +0.000 A 
ATOM      6  C   UNL     1      -6.035   8.163 -17.255  0.00  0.00    +0.000 A 
ENDROOT
BRANCH   1   8
ATOM      7  C   UNL     1      -7.542   5.134 -16.218  0.00  0.00    +0.000 C 
ATOM      8  O   UNL     1      -6.545   6.147 -16.186  0.00  0.00    +0.000 OA
ENDBRANCH   1   8
BRANCH   6   9
ATOM      9  O   UNL     1      -6.054   8.766 -16.026  0.00  0.00    +0.000 OA
ATOM     10  H   UNL     1      -6.241   9.705 -16.212  0.00  0.00    +0.000 HD
ENDBRANCH   6   9
TORSDOF 2
ENDMDL
MODEL 7
REMARK VINA RESULT:    -3.307     13.852     14.708
REMARK INTER + INTRA:          -3.635
REMARK INTER:                  -3.582
REMARK INTRA:                  -0.053
REMARK UNBOUND:                -0.038
REMARK  Name = 
REMARK  3 active torsions:
REMARK  status: ('A' for Active; 'I' for Inactive)
REMARK    1  A    between atoms: C_1  and  O_2
REMARK    2  A    between atoms: O_2  and  C_3
REMARK    3  A    between atoms: C_8  and  O_9
REMARK                            x       y       z     vdW  Elec       q    Type
REMARK                         _______ _______ _______ _____ _____    ______ ____
ROOT
ATOM      1  C   UNL     1      -6.716  19.352  -8.526  0.00  0.00    +0.000 A 
ATOM      2  C   UNL     1      -6.509  18.138  -9.180  0.00  0.00    +0.000 A 
ATOM      3  C   UNL     1      -6.818  16.934  -8.534  0.00  0.00    +0.000 A 
ATOM      4  C   UNL     1      -7.332  16.939  -7.236  0.00  0.00    +0.000 A 
ATOM      5  C   UNL     1      -7.542  18.148  -6.577  0.00  0.00    +0.000 A 
ATOM      6  C   UNL     1      -7.233  19.337  -7.225  0.00  0.00    +0.000 A 
ENDROOT
BRANCH   1   8
ATOM      7  C   UNL     1      -5.099  20.901  -9.323  0.00  0.00    +0.000 C 
ATOM      8  O   UNL     1      -6.459  20.601  -9.034  0.00  0.00    +0.000 OA
ENDBRANCH   1   8
BRANCH   6   9
ATOM      9  O   UNL     1      -7.448  20.513  -6.556  0.00  0.00    +0.000 OA
ATOM     10  H   UNL     1      -6.914  20.437  -5.742  0.00  0.00    +0.000 HD
ENDBRANCH   6   9
TORSDOF 2
ENDMDL
MODEL 8
REMARK VINA RESULT:    -3.157     23.999     24.218
REMARK INTER + INTRA:          -3.472
REMARK INTER:                  -3.429
REMARK INTRA:                  -0.042
REMARK UNBOUND:                -0.038
REMARK  Name = 
REMARK  3 active torsions:
REMARK  status: ('A' for Active; 'I' for Inactive)
REMARK    1  A    between atoms: C_1  and  O_2
REMARK    2  A    between atoms: O_2  and  C_3
REMARK    3  A    between atoms: C_8  and  O_9
REMARK                            x       y       z     vdW  Elec       q    Type
REMARK                         _______ _______ _______ _____ _____    ______ ____
ROOT
ATOM      1  C   UNL     1       8.765  20.269  -2.985  0.00  0.00    +0.000 A 
ATOM      2  C   UNL     1       7.515  20.705  -2.547  0.00  0.00    +0.000 A 
ATOM      3  C   UNL     1       6.748  19.894  -1.701  0.00  0.00    +0.000 A 
ATOM      4  C   UNL     1       7.226  18.648  -1.291  0.00  0.00    +0.000 A 
ATOM      5  C   UNL     1       8.474  18.206  -1.724  0.00  0.00    +0.000 A 
ATOM      6  C   UNL     1       9.227  19.017  -2.563  0.00  0.00    +0.000 A 
ENDROOT
BRANCH   1   8
ATOM      7  C   UNL     1       9.017  21.754  -4.823  0.00  0.00    +0.000 C 
ATOM      8  O   UNL     1       9.619  20.955  -3.811  0.00  0.00    +0.000 OA
ENDBRANCH   1   8
BRANCH   6   9
ATOM      9  O   UNL     1      10.451  18.561  -2.975  0.00  0.00    +0.000 OA
ATOM     10  H   UNL     1      10.470  18.735  -3.936  0.00  0.00    +0.000 HD
ENDBRANCH   6   9
TORSDOF 2
ENDMDL
