MODEL 1
REMARK VINA RESULT:    -4.086      0.000      0.000
REMARK INTER + INTRA:          -4.497
REMARK INTER:                  -4.444
REMARK INTRA:                  -0.053
REMARK UNBOUND:                -0.053
REMARK  Name = 
REMARK  3 active torsions:
REMARK  status: ('A' for Active; 'I' for Inactive)
REMARK    1  A    between atoms: C_1  and  O_2
REMARK    2  A    between atoms: O_2  and  C_3
REMARK    3  A    between atoms: C_8  and  O_9
REMARK                            x       y       z     vdW  Elec       q    Type
REMARK                         _______ _______ _______ _____ _____    ______ ____
ROOT
ATOM      1  C   UNL     1      14.854 -11.565   4.609  0.00  0.00    +0.000 A 
ATOM      2  C   UNL     1      14.000 -12.553   4.120  0.00  0.00    +0.000 A 
ATOM      3  C   UNL     1      13.015 -12.224   3.181  0.00  0.00    +0.000 A 
ATOM      4  C   UNL     1      12.879 -10.910   2.728  0.00  0.00    +0.000 A 
ATOM      5  C   UNL     1      13.729  -9.918   3.212  0.00  0.00    +0.000 A 
ATOM      6  C   UNL     1      14.703 -10.253   4.143  0.00  0.00    +0.000 A 
ENDROOT
BRANCH   1   8
ATOM      7  C   UNL     1      16.942 -12.574   5.130  0.00  0.00    +0.000 C 
ATOM      8  O   UNL     1      15.858 -11.743   5.527  0.00  0.00    +0.000 OA
ENDBRANCH   1   8
BRANCH   6   9
ATOM      9  O   UNL     1      15.526  -9.261   4.604  0.00  0.00    +0.000 OA
ATOM     10  H   UNL     1      15.929  -8.879   3.801  0.00  0.00    +0.000 HD
ENDBRANCH   6   9
TORSDOF 2
ENDMDL
MODEL 2
REMARK VINA RESULT:    -4.023     22.075     23.549
REMARK INTER + INTRA:          -4.428
REMARK INTER:                  -4.376
REMARK INTRA:                  -0.052
REMARK UNBOUND:                -0.053
REMARK  Name = 
REMARK  3 active torsions:
REMARK  status: ('A' for Active; 'I' for Inactive)
REMARK    1  A    between atoms: C_1  and  O_2
REMARK    2  A    between atoms: O_2  and  C_3
REMARK    3  A    between atoms: C_8  and  O_9
REMARK                            x       y       z     vdW  Elec       q    Type
REMARK                         _______ _______ _______ _____ _____    ______ ____
ROOT
ATOM      1  C   UNL     1       2.969   8.854   4.756  0.00  0.00    +0.000 A 
ATOM      2  C   UNL     1       3.094   9.363   6.048  0.00  0.00    +0.000 A 
ATOM      3  C   UNL     1       1.956   9.533   6.846  0.00  0.00    +0.000 A 
ATOM      4  C   UNL     1       0.692   9.197   6.357  0.00  0.00    +0.000 A 
ATOM      5  C   UNL     1       0.559   8.687   5.068  0.00  0.00    +0.000 A 
ATOM      6  C   UNL     1       1.693   8.522   4.283  0.00  0.00    +0.000 A 
ENDROOT
BRANCH   1   8
ATOM      7  C   UNL     1       4.959   7.662   4.239  0.00  0.00    +0.000 C 
ATOM      8  O   UNL     1       3.991   8.637   3.867  0.00  0.00    +0.000 OA
ENDBRANCH   1   8
BRANCH   6   9
ATOM      9  O   UNL     1       1.537   8.020   3.019  0.00  0.00    +0.000 OA
ATOM     10  H   UNL     1       2.359   7.523   2.845  0.00  0.00    +0.000 HD
ENDBRANCH   6   9
TORSDOF 2
ENDMDL
MODEL 3
REMARK VINA RESULT:    -3.961     21.465     23.064
REMARK INTER + INTRA:          -4.361
REMARK INTER:                  -4.309
REMARK INTRA:                  -0.053
REMARK UNBOUND:                -0.053
REMARK  Name = 
REMARK  3 active torsions:
REMARK  status: ('A' for Active; 'I' for Inactive)
REMARK    1  A    between atoms: C_1  and  O_2
REMARK    2  A    between atoms: O_2  and  C_3
REMARK    3  A    between atoms: C_8  and  O_9
REMARK                            x       y       z     vdW  Elec       q    Type
REMARK                         _______ _______ _______ _____ _____    ______ ____
ROOT
ATOM      1  C   UNL     1       2.207   8.471   4.748  0.00  0.00    +0.000 A 
ATOM      2  C   UNL     1       2.863   9.533   4.128  0.00  0.00    +0.000 A 
ATOM      3  C   UNL     1       4.234   9.444   3.853  0.00  0.00    +0.000 A 
ATOM      4  C   UNL     1       4.952   8.297   4.197  0.00  0.00    +0.000 A 
ATOM      5  C   UNL     1       4.303   7.231   4.816  0.00  0.00    +0.000 A 
ATOM      6  C   UNL     1       2.943   7.328   5.085  0.00  0.00    +0.000 A 
ENDROOT
BRANCH   1   8
ATOM      7  C   UNL     1       0.442   9.299   6.107  0.00  0.00    +0.000 C 
ATOM      8  O   UNL     1       0.876   8.420   5.075  0.00  0.00    +0.000 OA
ENDBRANCH   1   8
BRANCH   6   9
ATOM      9  O   UNL     1       2.327   6.268   5.694  0.00  0.00    +0.000 OA
ATOM     10  H   UNL     1       1.385   6.519   5.737  0.00  0.00    +0.000 HD
ENDBRANCH   6   9
TORSDOF 2
ENDMDL
MODEL 4
REMARK VINA RESULT:    -3.865     22.903     23.842
REMARK INTER + INTRA:          -4.257
REMARK INTER:                  -4.219
REMARK INTRA:                  -0.038
REMARK UNBOUND:                -0.053
REMARK  Name = 
REMARK  3 active torsions:
REMARK  status: ('A' for Active; 'I' for Inactive)
REMARK    1  A    between atoms: C_1  and  O_2
REMARK    2  A    between atoms: O_2  and  C_3
REMARK    3  A    between atoms: C_8  and  O_9
REMARK                            x       y       z     vdW  Elec       q    Type
REMARK                         _______ _______ _______ _____ _____    ______ ____
ROOT
ATOM      1  C   UNL     1       1.892   8.972   5.077  0.00  0.00    +0.000 A 
ATOM      2  C   UNL     1       2.861   9.484   5.939  0.00  0.00    +0.000 A 
ATOM      3  C   UNL     1       4.201   9.532   5.535  0.00  0.00    +0.000 A 
ATOM      4  C   UNL     1       4.577   9.069   4.273  0.00  0.00    +0.000 A 
ATOM      5  C   UNL     1       3.615   8.556   3.406  0.00  0.00    +0.000 A 
ATOM      6  C   UNL     1       2.288   8.512   3.815  0.00  0.00    +0.000 A 
ENDROOT
BRANCH   1   8
ATOM      7  C   UNL     1       0.074   9.532   6.500  0.00  0.00    +0.000 C 
ATOM      8  O   UNL     1       0.549   8.864   5.338  0.00  0.00    +0.000 OA
ENDBRANCH   1   8
BRANCH   6   9
ATOM      9  O   UNL     1       1.360   8.004   2.945  0.00  0.00    +0.000 OA
ATOM     10  H   UNL     1       0.533   7.961   3.462  0.00  0.00    +0.000 HD
ENDBRANCH   6   9
TORSDOF 2
ENDMDL
MODEL 5
REMARK VINA RESULT:    -3.714      7.036      8.228
REMARK INTER + INTRA:          -4.093
REMARK INTER:                  -4.055
REMARK INTRA:                  -0.037
REMARK UNBOUND:                -0.053
REMARK  Name = 
REMARK  3 active torsions:
REMARK  status: ('A' for Active; 'I' for Inactive)
REMARK    1  A    between atoms: C_1  and  O_2
REMARK    2  A    between atoms: O_2  and  C_3
REMARK    3  A    between atoms: C_8  and  O_9
REMARK                            x       y       z     vdW  Elec       q    Type
REMARK                         _______ _______ _______ _____ _____    ______ ____
ROOT
ATOM      1  C   UNL     1      17.681  -4.138   6.464  0.00  0.00    +0.000 A 
ATOM      2  C   UNL     1      18.412  -5.084   5.747  0.00  0.00    +0.000 A 
ATOM      3  C   UNL     1      18.381  -6.431   6.132  0.00  0.00    +0.000 A 
ATOM      4  C   UNL     1      17.623  -6.835   7.233  0.00  0.00    +0.000 A 
ATOM      5  C   UNL     1      16.890  -5.895   7.954  0.00  0.00    +0.000 A 
ATOM      6  C   UNL     1      16.926  -4.562   7.565  0.00  0.00    +0.000 A 
ENDROOT
BRANCH   1   8
ATOM      7  C   UNL     1      18.451  -2.311   5.154  0.00  0.00    +0.000 C 
ATOM      8  O   UNL     1      17.619  -2.793   6.202  0.00  0.00    +0.000 OA
ENDBRANCH   1   8
BRANCH   6   9
ATOM      9  O   UNL     1      16.198  -3.657   8.289  0.00  0.00    +0.000 OA
ATOM     10  H   UNL     1      16.715  -2.830   8.246  0.00  0.00    +0.000 HD
ENDBRANCH   6   9
TORSDOF 2
ENDMDL
MODEL 6
REMARK VINA RESULT:    -3.328      6.561      8.077
REMARK INTER + INTRA:          -3.673
REMARK INTER:                  -3.635
REMARK INTRA:                  -0.037
REMARK UNBOUND:                -0.053
REMARK  Name = 
REMARK  3 active torsions:
REMARK  status: ('A' for Active; 'I' for Inactive)
REMARK    1  A    between atoms: C_1  and  O_2
REMARK    2  A    between atoms: O_2  and  C_3
REMARK    3  A    between atoms: C_8  and  O_9
REMARK                            x       y       z     vdW  Elec       q    Type
REMARK                         _______ _______ _______ _____ _____    ______ ____
ROOT
ATOM      1  C   UNL     1      17.767  -4.547   6.241  0.00  0.00    +0.000 A 
ATOM      2  C   UNL     1      17.219  -3.874   7.332  0.00  0.00    +0.000 A 
ATOM      3  C   UNL     1      16.753  -4.596   8.438  0.00  0.00    +0.000 A 
ATOM      4  C   UNL     1      16.832  -5.990   8.457  0.00  0.00    +0.000 A 
ATOM      5  C   UNL     1      17.378  -6.670   7.371  0.00  0.00    +0.000 A 
ATOM      6  C   UNL     1      17.837  -5.945   6.279  0.00  0.00    +0.000 A 
ENDROOT
BRANCH   1   8
ATOM      7  C   UNL     1      18.353  -2.553   5.090  0.00  0.00    +0.000 C 
ATOM      8  O   UNL     1      18.259  -3.972   5.097  0.00  0.00    +0.000 OA
ENDBRANCH   1   8
BRANCH   6   9
ATOM      9  O   UNL     1      18.369  -6.636   5.223  0.00  0.00    +0.000 OA
ATOM     10  H   UNL     1      18.962  -7.295   5.631  0.00  0.00    +0.000 HD
ENDBRANCH   6   9
TORSDOF 2
ENDMDL
MODEL 7
REMARK VINA RESULT:    -3.127     15.082     16.148
REMARK INTER + INTRA:          -3.454
REMARK INTER:                  -3.430
REMARK INTRA:                  -0.024
REMARK UNBOUND:                -0.053
REMARK  Name = 
REMARK  3 active torsions:
REMARK  status: ('A' for Active; 'I' for Inactive)
REMARK    1  A    between atoms: C_1  and  O_2
REMARK    2  A    between atoms: O_2  and  C_3
REMARK    3  A    between atoms: C_8  and  O_9
REMARK                            x       y       z     vdW  Elec       q    Type
REMARK                         _______ _______ _______ _____ _____    ______ ____
ROOT
ATOM      1  C   UNL     1      16.882  -9.722  20.180  0.00  0.00    +0.000 A 
ATOM      2  C   UNL     1      17.224  -9.581  18.836  0.00  0.00    +0.000 A 
ATOM      3  C   UNL     1      16.430 -10.174  17.846  0.00  0.00    +0.000 A 
ATOM      4  C   UNL     1      15.296 -10.908  18.195  0.00  0.00    +0.000 A 
ATOM      5  C   UNL     1      14.947 -11.054  19.536  0.00  0.00    +0.000 A 
ATOM      6  C   UNL     1      15.740 -10.462  20.511  0.00  0.00    +0.000 A 
ENDROOT
BRANCH   1   8
ATOM      7  C   UNL     1      17.340  -7.823  21.534  0.00  0.00    +0.000 C 
ATOM      8  O   UNL     1      17.564  -9.199  21.250  0.00  0.00    +0.000 OA
ENDBRANCH   1   8
BRANCH   6   9
ATOM      9  O   UNL     1      15.378 -10.619  21.822  0.00  0.00    +0.000 OA
ATOM     10  H   UNL     1      15.965 -10.016  22.316  0.00  0.00    +0.000 HD
ENDBRANCH   6   9
TORSDOF 2
ENDMDL
MODEL 8
REMARK VINA RESULT:    -3.094     21.003     22.242
REMARK INTER + INTRA:          -3.418
REMARK INTER:                  -3.379
REMARK INTRA:                  -0.038
REMARK UNBOUND:                -0.053
REMARK  Name = 
REMARK  3 active torsions:
REMARK  status: ('A' for Active; 'I' for Inactive)
REMARK    1  A    between atoms: C_1  and  O_2
REMARK    2  A    between atoms: O_2  and  C_3
REMARK    3  A    between atoms: C_8  and  O_9
REMARK                            x       y       z     vdW  Elec       q    Type
REMARK                         _______ _______ _______ _____ _____    ______ ____
ROOT
ATOM      1  C   UNL     1      16.812   6.701  16.651  0.00  0.00    +0.000 A 
ATOM      2  C   UNL     1      16.830   7.461  17.819  0.00  0.00    +0.000 A 
ATOM      3  C   UNL     1      17.460   6.963  18.968  0.00  0.00    +0.000 A 
ATOM      4  C   UNL     1      18.070   5.708  18.952  0.00  0.00    +0.000 A 
ATOM      5  C   UNL     1      18.056   4.943  17.788  0.00  0.00    +0.000 A 
ATOM      6  C   UNL     1      17.429   5.444  16.654  0.00  0.00    +0.000 A 
ENDROOT
BRANCH   1   8
ATOM      7  C   UNL     1      15.280   8.114  15.508  0.00  0.00    +0.000 C 
ATOM      8  O   UNL     1      16.235   7.061  15.459  0.00  0.00    +0.000 OA
ENDBRANCH   1   8
BRANCH   6   9
ATOM      9  O   UNL     1      17.428   4.674  15.522  0.00  0.00    +0.000 OA
ATOM     10  H   UNL     1      17.223   5.297  14.798  0.00  0.00    +0.000 HD
ENDBRANCH   6   9
TORSDOF 2
ENDMDL
MODEL 9
REMARK VINA RESULT:    -3.070     20.548     21.755
REMARK INTER + INTRA:          -3.392
REMARK INTER:                  -3.346
REMARK INTRA:                  -0.046
REMARK UNBOUND:                -0.053
REMARK  Name = 
REMARK  3 active torsions:
REMARK  status: ('A' for Active; 'I' for Inactive)
REMARK    1  A    between atoms: C_1  and  O_2
REMARK    2  A    between atoms: O_2  and  C_3
REMARK    3  A    between atoms: C_8  and  O_9
REMARK                            x       y       z     vdW  Elec       q    Type
REMARK                         _______ _______ _______ _____ _____    ______ ____
ROOT
ATOM      1  C   UNL     1      16.852   7.070  16.039  0.00  0.00    +0.000 A 
ATOM      2  C   UNL     1      17.122   8.274  15.389  0.00  0.00    +0.000 A 
ATOM      3  C   UNL     1      17.920   8.283  14.238  0.00  0.00    +0.000 A 
ATOM      4  C   UNL     1      18.450   7.094  13.734  0.00  0.00    +0.000 A 
ATOM      5  C   UNL     1      18.185   5.888  14.378  0.00  0.00    +0.000 A 
ATOM      6  C   UNL     1      17.393   5.888  15.519  0.00  0.00    +0.000 A 
ENDROOT
BRANCH   1   8
ATOM      7  C   UNL     1      14.865   7.632  17.215  0.00  0.00    +0.000 C 
ATOM      8  O   UNL     1      16.092   6.913  17.170  0.00  0.00    +0.000 OA
ENDBRANCH   1   8
BRANCH   6   9
ATOM      9  O   UNL     1      17.145   4.690  16.135  0.00  0.00    +0.000 OA
ATOM     10  H   UNL     1      17.960   4.496  16.637  0.00  0.00    +0.000 HD
ENDBRANCH   6   9
TORSDOF 2
ENDMDL
