MODEL 1
REMARK VINA RESULT:    -4.699      0.000      0.000
REMARK INTER + INTRA:          -7.059
REMARK INTER:                  -6.347
REMARK INTRA:                  -0.711
REMARK UNBOUND:                -0.711
REMARK  Name = 
REMARK  10 active torsions:
REMARK  status: ('A' for Active; 'I' for Inactive)
REMARK    1  A    between atoms: C_1  and  C_2
REMARK    2  A    between atoms: C_5  and  N_8
REMARK    3  A    between atoms: N_8  and  C_9
REMARK    4  A    between atoms: N_8  and  C_13
REMARK    5  A    between atoms: C_9  and  C_10
REMARK    6  A    between atoms: C_10  and  C_11
REMARK    7  A    between atoms: C_10  and  O_12
REMARK    8  A    between atoms: C_13  and  C_14
REMARK    9  A    between atoms: C_14  and  C_15
REMARK   10  A    between atoms: C_14  and  O_16
REMARK                            x       y       z     vdW  Elec       q    Type
REMARK                         _______ _______ _______ _____ _____    ______ ____
ROOT
ATOM      1  N   UNL     1      15.299   1.354   8.985  0.00  0.00    +0.000 N 
ENDROOT
BRANCH   1   6
ATOM      2  C   UNL     1      12.489  -3.575   7.915  0.00  0.00    +0.000 C 
ATOM      3  C   UNL     1      13.215  -2.289   8.169  0.00  0.00    +0.000 A 
ATOM      4  C   UNL     1      14.599  -2.213   8.044  0.00  0.00    +0.000 A 
ATOM      5  C   UNL     1      15.277  -1.013   8.313  0.00  0.00    +0.000 A 
ATOM      6  C   UNL     1      14.618   0.155   8.738  0.00  0.00    +0.000 A 
ATOM      7  C   UNL     1      13.221   0.042   8.851  0.00  0.00    +0.000 A 
ATOM      8  C   UNL     1      12.530  -1.151   8.584  0.00  0.00    +0.000 A 
ENDBRANCH   1   6
BRANCH   1   9
ATOM      9  C   UNL     1      15.795   2.174   7.854  0.00  0.00    +0.000 C 
BRANCH   9  10
ATOM     10  C   UNL     1      15.121   3.566   7.781  0.00  0.00    +0.000 C 
ATOM     11  C   UNL     1      15.193   4.133   6.368  0.00  0.00    +0.000 C 
BRANCH  10  12
ATOM     12  O   UNL     1      13.739   3.489   8.158  0.00  0.00    +0.000 OA
ATOM     13  H   UNL     1      13.252   4.166   7.659  0.00  0.00    +0.000 HD
ENDBRANCH  10  12
ENDBRANCH   9  10
ENDBRANCH   1   9
BRANCH   1  14
ATOM     14  C   UNL     1      15.987   1.594  10.279  0.00  0.00    +0.000 C 
BRANCH  14  15
ATOM     15  C   UNL     1      15.000   2.010  11.397  0.00  0.00    +0.000 C 
ATOM     16  C   UNL     1      15.695   2.393  12.698  0.00  0.00    +0.000 C 
BRANCH  15  17
ATOM     17  O   UNL     1      14.179   3.105  10.995  0.00  0.00    +0.000 OA
ATOM     18  H   UNL     1      13.492   2.709  10.422  0.00  0.00    +0.000 HD
ENDBRANCH  15  17
ENDBRANCH  14  15
ENDBRANCH   1  14
TORSDOF 7
ENDMDL
MODEL 2
REMARK VINA RESULT:    -4.471      1.276      5.209
REMARK INTER + INTRA:          -6.751
REMARK INTER:                  -6.001
REMARK INTRA:                  -0.750
REMARK UNBOUND:                -0.711
REMARK  Name = 
REMARK  10 active torsions:
REMARK  status: ('A' for Active; 'I' for Inactive)
REMARK    1  A    between atoms: C_1  and  C_2
REMARK    2  A    between atoms: C_5  and  N_8
REMARK    3  A    between atoms: N_8  and  C_9
REMARK    4  A    between atoms: N_8  and  C_13
REMARK    5  A    between atoms: C_9  and  C_10
REMARK    6  A    between atoms: C_10  and  C_11
REMARK    7  A    between atoms: C_10  and  O_12
REMARK    8  A    between atoms: C_13  and  C_14
REMARK    9  A    between atoms: C_14  and  C_15
REMARK   10  A    between atoms: C_14  and  O_16
REMARK                            x       y       z     vdW  Elec       q    Type
REMARK                         _______ _______ _______ _____ _____    ______ ____
ROOT
ATOM      1  N   UNL     1      15.198   1.517   9.147  0.00  0.00    +0.000 N 
ENDROOT
BRANCH   1   6
ATOM      2  C   UNL     1      15.506   5.419   4.902  0.00  0.00    +0.000 C 
ATOM      3  C   UNL     1      15.412   4.392   5.989  0.00  0.00    +0.000 A 
ATOM      4  C   UNL     1      14.416   4.466   6.958  0.00  0.00    +0.000 A 
ATOM      5  C   UNL     1      14.351   3.518   7.992  0.00  0.00    +0.000 A 
ATOM      6  C   UNL     1      15.281   2.471   8.124  0.00  0.00    +0.000 A 
ATOM      7  C   UNL     1      16.272   2.425   7.126  0.00  0.00    +0.000 A 
ATOM      8  C   UNL     1      16.347   3.366   6.086  0.00  0.00    +0.000 A 
ENDBRANCH   1   6
BRANCH   1   9
ATOM      9  C   UNL     1      15.985   1.692  10.391  0.00  0.00    +0.000 C 
BRANCH   9  10
ATOM     10  C   UNL     1      15.094   1.872  11.645  0.00  0.00    +0.000 C 
ATOM     11  C   UNL     1      15.860   2.571  12.762  0.00  0.00    +0.000 C 
BRANCH  10  12
ATOM     12  O   UNL     1      13.934   2.659  11.342  0.00  0.00    +0.000 OA
ATOM     13  H   UNL     1      14.157   3.256  10.609  0.00  0.00    +0.000 HD
ENDBRANCH  10  12
ENDBRANCH   9  10
ENDBRANCH   1   9
BRANCH   1  14
ATOM     14  C   UNL     1      14.779   0.121   8.864  0.00  0.00    +0.000 C 
BRANCH  14  15
ATOM     15  C   UNL     1      13.250  -0.000   8.658  0.00  0.00    +0.000 C 
ATOM     16  C   UNL     1      12.741  -1.432   8.776  0.00  0.00    +0.000 C 
BRANCH  15  17
ATOM     17  O   UNL     1      12.528   0.804   9.590  0.00  0.00    +0.000 OA
ATOM     18  H   UNL     1      12.564   0.308  10.433  0.00  0.00    +0.000 HD
ENDBRANCH  15  17
ENDBRANCH  14  15
ENDBRANCH   1  14
TORSDOF 7
ENDMDL
MODEL 3
REMARK VINA RESULT:    -4.400      0.682      3.040
REMARK INTER + INTRA:          -6.654
REMARK INTER:                  -6.004
REMARK INTRA:                  -0.651
REMARK UNBOUND:                -0.711
REMARK  Name = 
REMARK  10 active torsions:
REMARK  status: ('A' for Active; 'I' for Inactive)
REMARK    1  A    between atoms: C_1  and  C_2
REMARK    2  A    between atoms: C_5  and  N_8
REMARK    3  A    between atoms: N_8  and  C_9
REMARK    4  A    between atoms: N_8  and  C_13
REMARK    5  A    between atoms: C_9  and  C_10
REMARK    6  A    between atoms: C_10  and  C_11
REMARK    7  A    between atoms: C_10  and  O_12
REMARK    8  A    between atoms: C_13  and  C_14
REMARK    9  A    between atoms: C_14  and  C_15
REMARK   10  A    between atoms: C_14  and  O_16
REMARK                            x       y       z     vdW  Elec       q    Type
REMARK                         _______ _______ _______ _____ _____    ______ ____
ROOT
ATOM      1  N   UNL     1      15.619   1.188   8.912  0.00  0.00    +0.000 N 
ENDROOT
BRANCH   1   6
ATOM      2  C   UNL     1      12.200  -3.449   9.279  0.00  0.00    +0.000 C 
ATOM      3  C   UNL     1      13.092  -2.251   9.160  0.00  0.00    +0.000 A 
ATOM      4  C   UNL     1      14.440  -2.328   9.495  0.00  0.00    +0.000 A 
ATOM      5  C   UNL     1      15.265  -1.195   9.410  0.00  0.00    +0.000 A 
ATOM      6  C   UNL     1      14.786   0.067   9.013  0.00  0.00    +0.000 A 
ATOM      7  C   UNL     1      13.420   0.107   8.680  0.00  0.00    +0.000 A 
ATOM      8  C   UNL     1      12.584  -1.019   8.758  0.00  0.00    +0.000 A 
ENDBRANCH   1   6
BRANCH   1   9
ATOM      9  C   UNL     1      16.059   1.900  10.136  0.00  0.00    +0.000 C 
BRANCH   9  10
ATOM     10  C   UNL     1      14.956   1.968  11.220  0.00  0.00    +0.000 C 
ATOM     11  C   UNL     1      15.565   2.114  12.609  0.00  0.00    +0.000 C 
BRANCH  10  12
ATOM     12  O   UNL     1      14.084   3.086  10.998  0.00  0.00    +0.000 OA
ATOM     13  H   UNL     1      13.537   3.203  11.792  0.00  0.00    +0.000 HD
ENDBRANCH  10  12
ENDBRANCH   9  10
ENDBRANCH   1   9
BRANCH   1  14
ATOM     14  C   UNL     1      15.673   1.996   7.666  0.00  0.00    +0.000 C 
BRANCH  14  15
ATOM     15  C   UNL     1      15.176   3.445   7.887  0.00  0.00    +0.000 C 
ATOM     16  C   UNL     1      15.555   4.388   6.752  0.00  0.00    +0.000 C 
BRANCH  15  17
ATOM     17  O   UNL     1      13.760   3.497   8.051  0.00  0.00    +0.000 OA
ATOM     18  H   UNL     1      13.417   3.806   7.188  0.00  0.00    +0.000 HD
ENDBRANCH  15  17
ENDBRANCH  14  15
ENDBRANCH   1  14
TORSDOF 7
ENDMDL
MODEL 4
REMARK VINA RESULT:    -4.344      1.230      3.199
REMARK INTER + INTRA:          -6.580
REMARK INTER:                  -6.000
REMARK INTRA:                  -0.579
REMARK UNBOUND:                -0.711
REMARK  Name = 
REMARK  10 active torsions:
REMARK  status: ('A' for Active; 'I' for Inactive)
REMARK    1  A    between atoms: C_1  and  C_2
REMARK    2  A    between atoms: C_5  and  N_8
REMARK    3  A    between atoms: N_8  and  C_9
REMARK    4  A    between atoms: N_8  and  C_13
REMARK    5  A    between atoms: C_9  and  C_10
REMARK    6  A    between atoms: C_10  and  C_11
REMARK    7  A    between atoms: C_10  and  O_12
REMARK    8  A    between atoms: C_13  and  C_14
REMARK    9  A    between atoms: C_14  and  C_15
REMARK   10  A    between atoms: C_14  and  O_16
REMARK                            x       y       z     vdW  Elec       q    Type
REMARK                         _______ _______ _______ _____ _____    ______ ____
ROOT
ATOM      1  N   UNL     1      14.766   0.946   9.614  0.00  0.00    +0.000 N 
ENDROOT
BRANCH   1   6
ATOM      2  C   UNL     1      12.651  -3.777   7.056  0.00  0.00    +0.000 C 
ATOM      3  C   UNL     1      13.200  -2.540   7.698  0.00  0.00    +0.000 A 
ATOM      4  C   UNL     1      14.571  -2.358   7.842  0.00  0.00    +0.000 A 
ATOM      5  C   UNL     1      15.079  -1.210   8.471  0.00  0.00    +0.000 A 
ATOM      6  C   UNL     1      14.252  -0.205   9.005  0.00  0.00    +0.000 A 
ATOM      7  C   UNL     1      12.872  -0.421   8.840  0.00  0.00    +0.000 A 
ATOM      8  C   UNL     1      12.350  -1.564   8.211  0.00  0.00    +0.000 A 
ENDBRANCH   1   6
BRANCH   1   9
ATOM      9  C   UNL     1      15.466   0.848  10.918  0.00  0.00    +0.000 C 
BRANCH   9  10
ATOM     10  C   UNL     1      15.335   2.136  11.768  0.00  0.00    +0.000 C 
ATOM     11  C   UNL     1      15.145   1.799  13.242  0.00  0.00    +0.000 C 
BRANCH  10  12
ATOM     12  O   UNL     1      16.506   2.955  11.647  0.00  0.00    +0.000 OA
ATOM     13  H   UNL     1      16.265   3.864  11.892  0.00  0.00    +0.000 HD
ENDBRANCH  10  12
ENDBRANCH   9  10
ENDBRANCH   1   9
BRANCH   1  14
ATOM     14  C   UNL     1      14.222   2.292   9.297  0.00  0.00    +0.000 C 
BRANCH  14  15
ATOM     15  C   UNL     1      14.990   2.974   8.140  0.00  0.00    +0.000 C 
ATOM     16  C   UNL     1      14.222   4.130   7.510  0.00  0.00    +0.000 C 
BRANCH  15  17
ATOM     17  O   UNL     1      16.259   3.468   8.568  0.00  0.00    +0.000 OA
ATOM     18  H   UNL     1      16.109   3.794   9.478  0.00  0.00    +0.000 HD
ENDBRANCH  15  17
ENDBRANCH  14  15
ENDBRANCH   1  14
TORSDOF 7
ENDMDL
MODEL 5
REMARK VINA RESULT:    -4.185      1.686      4.789
REMARK INTER + INTRA:          -6.364
REMARK INTER:                  -5.870
REMARK INTRA:                  -0.494
REMARK UNBOUND:                -0.711
REMARK  Name = 
REMARK  10 active torsions:
REMARK  status: ('A' for Active; 'I' for Inactive)
REMARK    1  A    between atoms: C_1  and  C_2
REMARK    2  A    between atoms: C_5  and  N_8
REMARK    3  A    between atoms: N_8  and  C_9
REMARK    4  A    between atoms: N_8  and  C_13
REMARK    5  A    between atoms: C_9  and  C_10
REMARK    6  A    between atoms: C_10  and  C_11
REMARK    7  A    between atoms: C_10  and  O_12
REMARK    8  A    between atoms: C_13  and  C_14
REMARK    9  A    between atoms: C_14  and  C_15
REMARK   10  A    between atoms: C_14  and  O_16
REMARK                            x       y       z     vdW  Elec       q    Type
REMARK                         _______ _______ _______ _____ _____    ______ ____
ROOT
ATOM      1  N   UNL     1      15.145   1.776   9.373  0.00  0.00    +0.000 N 
ENDROOT
BRANCH   1   6
ATOM      2  C   UNL     1      15.480   5.185   4.726  0.00  0.00    +0.000 C 
ATOM      3  C   UNL     1      15.379   4.284   5.919  0.00  0.00    +0.000 A 
ATOM      4  C   UNL     1      14.375   4.461   6.864  0.00  0.00    +0.000 A 
ATOM      5  C   UNL     1      14.303   3.633   7.996  0.00  0.00    +0.000 A 
ATOM      6  C   UNL     1      15.234   2.610   8.252  0.00  0.00    +0.000 A 
ATOM      7  C   UNL     1      16.234   2.459   7.274  0.00  0.00    +0.000 A 
ATOM      8  C   UNL     1      16.316   3.279   6.136  0.00  0.00    +0.000 A 
ENDBRANCH   1   6
BRANCH   1   9
ATOM      9  C   UNL     1      13.860   1.116   9.707  0.00  0.00    +0.000 C 
BRANCH   9  10
ATOM     10  C   UNL     1      13.488  -0.012   8.714  0.00  0.00    +0.000 C 
ATOM     11  C   UNL     1      14.378  -1.233   8.917  0.00  0.00    +0.000 C 
BRANCH  10  12
ATOM     12  O   UNL     1      12.125  -0.423   8.888  0.00  0.00    +0.000 OA
ATOM     13  H   UNL     1      11.963  -1.184   8.307  0.00  0.00    +0.000 HD
ENDBRANCH  10  12
ENDBRANCH   9  10
ENDBRANCH   1   9
BRANCH   1  14
ATOM     14  C   UNL     1      16.093   1.909  10.509  0.00  0.00    +0.000 C 
BRANCH  14  15
ATOM     15  C   UNL     1      15.364   2.162  11.851  0.00  0.00    +0.000 C 
ATOM     16  C   UNL     1      15.755   1.171  12.940  0.00  0.00    +0.000 C 
BRANCH  15  17
ATOM     17  O   UNL     1      15.607   3.478  12.343  0.00  0.00    +0.000 OA
ATOM     18  H   UNL     1      15.678   3.376  13.314  0.00  0.00    +0.000 HD
ENDBRANCH  15  17
ENDBRANCH  14  15
ENDBRANCH   1  14
TORSDOF 7
ENDMDL
MODEL 6
REMARK VINA RESULT:    -4.173      8.000     10.397
REMARK INTER + INTRA:          -6.348
REMARK INTER:                  -5.810
REMARK INTRA:                  -0.538
REMARK UNBOUND:                -0.711
REMARK  Name = 
REMARK  10 active torsions:
REMARK  status: ('A' for Active; 'I' for Inactive)
REMARK    1  A    between atoms: C_1  and  C_2
REMARK    2  A    between atoms: C_5  and  N_8
REMARK    3  A    between atoms: N_8  and  C_9
REMARK    4  A    between atoms: N_8  and  C_13
REMARK    5  A    between atoms: C_9  and  C_10
REMARK    6  A    between atoms: C_10  and  C_11
REMARK    7  A    between atoms: C_10  and  O_12
REMARK    8  A    between atoms: C_13  and  C_14
REMARK    9  A    between atoms: C_14  and  C_15
REMARK   10  A    between atoms: C_14  and  O_16
REMARK                            x       y       z     vdW  Elec       q    Type
REMARK                         _______ _______ _______ _____ _____    ______ ____
ROOT
ATOM      1  N   UNL     1      18.215  -2.008   1.379  0.00  0.00    +0.000 N 
ENDROOT
BRANCH   1   6
ATOM      2  C   UNL     1      19.326   3.601   2.175  0.00  0.00    +0.000 C 
ATOM      3  C   UNL     1      19.053   2.140   1.987  0.00  0.00    +0.000 A 
ATOM      4  C   UNL     1      19.816   1.378   1.110  0.00  0.00    +0.000 A 
ATOM      5  C   UNL     1      19.537   0.015   0.915  0.00  0.00    +0.000 A 
ATOM      6  C   UNL     1      18.476  -0.644   1.563  0.00  0.00    +0.000 A 
ATOM      7  C   UNL     1      17.727   0.157   2.444  0.00  0.00    +0.000 A 
ATOM      8  C   UNL     1      17.997   1.520   2.649  0.00  0.00    +0.000 A 
ENDBRANCH   1   6
BRANCH   1   9
ATOM      9  C   UNL     1      17.947  -2.878   2.549  0.00  0.00    +0.000 C 
BRANCH   9  10
ATOM     10  C   UNL     1      16.609  -3.648   2.430  0.00  0.00    +0.000 C 
ATOM     11  C   UNL     1      16.123  -4.111   3.798  0.00  0.00    +0.000 C 
BRANCH  10  12
ATOM     12  O   UNL     1      15.589  -2.822   1.852  0.00  0.00    +0.000 OA
ATOM     13  H   UNL     1      15.403  -3.154   0.958  0.00  0.00    +0.000 HD
ENDBRANCH  10  12
ENDBRANCH   9  10
ENDBRANCH   1   9
BRANCH   1  14
ATOM     14  C   UNL     1      18.682  -2.723   0.163  0.00  0.00    +0.000 C 
BRANCH  14  15
ATOM     15  C   UNL     1      17.623  -2.709  -0.965  0.00  0.00    +0.000 C 
ATOM     16  C   UNL     1      17.742  -1.499  -1.884  0.00  0.00    +0.000 C 
BRANCH  15  17
ATOM     17  O   UNL     1      17.696  -3.884  -1.771  0.00  0.00    +0.000 OA
ATOM     18  H   UNL     1      16.816  -3.957  -2.193  0.00  0.00    +0.000 HD
ENDBRANCH  15  17
ENDBRANCH  14  15
ENDBRANCH   1  14
TORSDOF 7
ENDMDL
MODEL 7
REMARK VINA RESULT:    -4.170      4.671      8.483
REMARK INTER + INTRA:          -6.344
REMARK INTER:                  -6.069
REMARK INTRA:                  -0.275
REMARK UNBOUND:                -0.711
REMARK  Name = 
REMARK  10 active torsions:
REMARK  status: ('A' for Active; 'I' for Inactive)
REMARK    1  A    between atoms: C_1  and  C_2
REMARK    2  A    between atoms: C_5  and  N_8
REMARK    3  A    between atoms: N_8  and  C_9
REMARK    4  A    between atoms: N_8  and  C_13
REMARK    5  A    between atoms: C_9  and  C_10
REMARK    6  A    between atoms: C_10  and  C_11
REMARK    7  A    between atoms: C_10  and  O_12
REMARK    8  A    between atoms: C_13  and  C_14
REMARK    9  A    between atoms: C_14  and  C_15
REMARK   10  A    between atoms: C_14  and  O_16
REMARK                            x       y       z     vdW  Elec       q    Type
REMARK                         _______ _______ _______ _____ _____    ______ ____
ROOT
ATOM      1  N   UNL     1      16.244   5.141   4.810  0.00  0.00    +0.000 N 
ENDROOT
BRANCH   1   6
ATOM      2  C   UNL     1      19.231   9.405   2.316  0.00  0.00    +0.000 C 
ATOM      3  C   UNL     1      18.476   8.294   2.978  0.00  0.00    +0.000 A 
ATOM      4  C   UNL     1      18.523   6.998   2.475  0.00  0.00    +0.000 A 
ATOM      5  C   UNL     1      17.789   5.967   3.082  0.00  0.00    +0.000 A 
ATOM      6  C   UNL     1      16.958   6.178   4.198  0.00  0.00    +0.000 A 
ATOM      7  C   UNL     1      16.936   7.499   4.681  0.00  0.00    +0.000 A 
ATOM      8  C   UNL     1      17.668   8.540   4.085  0.00  0.00    +0.000 A 
ENDBRANCH   1   6
BRANCH   1   9
ATOM      9  C   UNL     1      15.578   4.107   3.982  0.00  0.00    +0.000 C 
BRANCH   9  10
ATOM     10  C   UNL     1      16.529   2.952   3.585  0.00  0.00    +0.000 C 
ATOM     11  C   UNL     1      16.975   2.166   4.812  0.00  0.00    +0.000 C 
BRANCH  10  12
ATOM     12  O   UNL     1      15.884   2.041   2.684  0.00  0.00    +0.000 OA
ATOM     13  H   UNL     1      16.379   2.043   1.848  0.00  0.00    +0.000 HD
ENDBRANCH  10  12
ENDBRANCH   9  10
ENDBRANCH   1   9
BRANCH   1  14
ATOM     14  C   UNL     1      15.695   5.291   6.182  0.00  0.00    +0.000 C 
BRANCH  14  15
ATOM     15  C   UNL     1      14.404   4.463   6.389  0.00  0.00    +0.000 C 
ATOM     16  C   UNL     1      14.327   3.804   7.761  0.00  0.00    +0.000 C 
BRANCH  15  17
ATOM     17  O   UNL     1      13.233   5.259   6.215  0.00  0.00    +0.000 OA
ATOM     18  H   UNL     1      13.446   5.865   5.477  0.00  0.00    +0.000 HD
ENDBRANCH  15  17
ENDBRANCH  14  15
ENDBRANCH   1  14
TORSDOF 7
ENDMDL
MODEL 8
REMARK VINA RESULT:    -4.127      3.453      6.594
REMARK INTER + INTRA:          -6.286
REMARK INTER:                  -5.998
REMARK INTRA:                  -0.288
REMARK UNBOUND:                -0.711
REMARK  Name = 
REMARK  10 active torsions:
REMARK  status: ('A' for Active; 'I' for Inactive)
REMARK    1  A    between atoms: C_1  and  C_2
REMARK    2  A    between atoms: C_5  and  N_8
REMARK    3  A    between atoms: N_8  and  C_9
REMARK    4  A    between atoms: N_8  and  C_13
REMARK    5  A    between atoms: C_9  and  C_10
REMARK    6  A    between atoms: C_10  and  C_11
REMARK    7  A    between atoms: C_10  and  O_12
REMARK    8  A    between atoms: C_13  and  C_14
REMARK    9  A    between atoms: C_14  and  C_15
REMARK   10  A    between atoms: C_14  and  O_16
REMARK                            x       y       z     vdW  Elec       q    Type
REMARK                         _______ _______ _______ _____ _____    ______ ____
ROOT
ATOM      1  N   UNL     1      15.489   2.323  13.353  0.00  0.00    +0.000 N 
ENDROOT
BRANCH   1   6
ATOM      2  C   UNL     1      13.914   0.869  18.713  0.00  0.00    +0.000 C 
ATOM      3  C   UNL     1      14.326   1.270  17.330  0.00  0.00    +0.000 A 
ATOM      4  C   UNL     1      13.382   1.673  16.391  0.00  0.00    +0.000 A 
ATOM      5  C   UNL     1      13.770   2.019  15.087  0.00  0.00    +0.000 A 
ATOM      6  C   UNL     1      15.106   1.958  14.649  0.00  0.00    +0.000 A 
ATOM      7  C   UNL     1      16.034   1.549  15.625  0.00  0.00    +0.000 A 
ATOM      8  C   UNL     1      15.658   1.202  16.933  0.00  0.00    +0.000 A 
ENDBRANCH   1   6
BRANCH   1   9
ATOM      9  C   UNL     1      15.223   1.411  12.214  0.00  0.00    +0.000 C 
BRANCH   9  10
ATOM     10  C   UNL     1      15.155   2.151  10.856  0.00  0.00    +0.000 C 
ATOM     11  C   UNL     1      14.948   1.168   9.710  0.00  0.00    +0.000 C 
BRANCH  10  12
ATOM     12  O   UNL     1      14.073   3.092  10.835  0.00  0.00    +0.000 OA
ATOM     13  H   UNL     1      14.296   3.821  11.439  0.00  0.00    +0.000 HD
ENDBRANCH  10  12
ENDBRANCH   9  10
ENDBRANCH   1   9
BRANCH   1  14
ATOM     14  C   UNL     1      16.574   3.311  13.121  0.00  0.00    +0.000 C 
BRANCH  14  15
ATOM     15  C   UNL     1      16.484   4.516  14.088  0.00  0.00    +0.000 C 
ATOM     16  C   UNL     1      17.836   4.933  14.654  0.00  0.00    +0.000 C 
BRANCH  15  17
ATOM     17  O   UNL     1      15.899   5.654  13.459  0.00  0.00    +0.000 OA
ATOM     18  H   UNL     1      15.103   5.857  13.991  0.00  0.00    +0.000 HD
ENDBRANCH  15  17
ENDBRANCH  14  15
ENDBRANCH   1  14
TORSDOF 7
ENDMDL
MODEL 9
REMARK VINA RESULT:    -4.012      3.969      6.320
REMARK INTER + INTRA:          -6.131
REMARK INTER:                  -5.725
REMARK INTRA:                  -0.406
REMARK UNBOUND:                -0.711
REMARK  Name = 
REMARK  10 active torsions:
REMARK  status: ('A' for Active; 'I' for Inactive)
REMARK    1  A    between atoms: C_1  and  C_2
REMARK    2  A    between atoms: C_5  and  N_8
REMARK    3  A    between atoms: N_8  and  C_9
REMARK    4  A    between atoms: N_8  and  C_13
REMARK    5  A    between atoms: C_9  and  C_10
REMARK    6  A    between atoms: C_10  and  C_11
REMARK    7  A    between atoms: C_10  and  O_12
REMARK    8  A    between atoms: C_13  and  C_14
REMARK    9  A    between atoms: C_14  and  C_15
REMARK   10  A    between atoms: C_14  and  O_16
REMARK                            x       y       z     vdW  Elec       q    Type
REMARK                         _______ _______ _______ _____ _____    ______ ____
ROOT
ATOM      1  N   UNL     1      16.370   4.966   5.144  0.00  0.00    +0.000 N 
ENDROOT
BRANCH   1   6
ATOM      2  C   UNL     1      14.284   1.814   9.507  0.00  0.00    +0.000 C 
ATOM      3  C   UNL     1      14.838   2.645   8.391  0.00  0.00    +0.000 A 
ATOM      4  C   UNL     1      14.166   3.776   7.940  0.00  0.00    +0.000 A 
ATOM      5  C   UNL     1      14.675   4.535   6.874  0.00  0.00    +0.000 A 
ATOM      6  C   UNL     1      15.858   4.194   6.194  0.00  0.00    +0.000 A 
ATOM      7  C   UNL     1      16.513   3.046   6.678  0.00  0.00    +0.000 A 
ATOM      8  C   UNL     1      16.016   2.280   7.745  0.00  0.00    +0.000 A 
ENDBRANCH   1   6
BRANCH   1   9
ATOM      9  C   UNL     1      17.454   4.429   4.286  0.00  0.00    +0.000 C 
BRANCH   9  10
ATOM     10  C   UNL     1      16.937   3.913   2.921  0.00  0.00    +0.000 C 
ATOM     11  C   UNL     1      15.494   3.435   3.029  0.00  0.00    +0.000 C 
BRANCH  10  12
ATOM     12  O   UNL     1      16.991   4.945   1.926  0.00  0.00    +0.000 OA
ATOM     13  H   UNL     1      17.651   5.600   2.207  0.00  0.00    +0.000 HD
ENDBRANCH  10  12
ENDBRANCH   9  10
ENDBRANCH   1   9
BRANCH   1  14
ATOM     14  C   UNL     1      16.257   6.447   5.153  0.00  0.00    +0.000 C 
BRANCH  14  15
ATOM     15  C   UNL     1      17.637   7.139   5.042  0.00  0.00    +0.000 C 
ATOM     16  C   UNL     1      17.647   8.304   4.059  0.00  0.00    +0.000 C 
BRANCH  15  17
ATOM     17  O   UNL     1      18.086   7.625   6.306  0.00  0.00    +0.000 OA
ATOM     18  H   UNL     1      19.004   7.297   6.391  0.00  0.00    +0.000 HD
ENDBRANCH  15  17
ENDBRANCH  14  15
ENDBRANCH   1  14
TORSDOF 7
ENDMDL
