MODEL 1
REMARK VINA RESULT:    -4.360      0.000      0.000
REMARK INTER + INTRA:          -6.248
REMARK INTER:                  -5.890
REMARK INTRA:                  -0.359
REMARK UNBOUND:                -0.359
REMARK  Name = 
REMARK  10 active torsions:
REMARK  status: ('A' for Active; 'I' for Inactive)
REMARK    1  A    between atoms: C_1  and  C_2
REMARK    2  A    between atoms: C_5  and  N_8
REMARK    3  A    between atoms: N_8  and  C_9
REMARK    4  A    between atoms: N_8  and  C_13
REMARK    5  A    between atoms: C_9  and  C_10
REMARK    6  A    between atoms: C_10  and  C_11
REMARK    7  A    between atoms: C_10  and  O_12
REMARK    8  A    between atoms: C_13  and  C_14
REMARK    9  A    between atoms: C_14  and  C_15
REMARK   10  A    between atoms: C_14  and  O_16
REMARK                            x       y       z     vdW  Elec       q    Type
REMARK                         _______ _______ _______ _____ _____    ______ ____
ROOT
ATOM      1  N   UNL     1       9.213  20.531  -1.841  0.00  0.00    +0.000 N 
ENDROOT
BRANCH   1   6
ATOM      2  C   UNL     1       8.596  22.369  -7.279  0.00  0.00    +0.000 C 
ATOM      3  C   UNL     1       8.757  21.916  -5.860  0.00  0.00    +0.000 A 
ATOM      4  C   UNL     1      10.017  21.663  -5.330  0.00  0.00    +0.000 A 
ATOM      5  C   UNL     1      10.160  21.209  -4.008  0.00  0.00    +0.000 A 
ATOM      6  C   UNL     1       9.062  20.965  -3.164  0.00  0.00    +0.000 A 
ATOM      7  C   UNL     1       7.803  21.233  -3.733  0.00  0.00    +0.000 A 
ATOM      8  C   UNL     1       7.646  21.689  -5.053  0.00  0.00    +0.000 A 
ENDBRANCH   1   6
BRANCH   1   9
ATOM      9  C   UNL     1       8.048  19.991  -1.099  0.00  0.00    +0.000 C 
BRANCH   9  10
ATOM     10  C   UNL     1       7.737  18.517  -1.461  0.00  0.00    +0.000 C 
ATOM     11  C   UNL     1       8.021  17.595  -0.281  0.00  0.00    +0.000 C 
BRANCH  10  12
ATOM     12  O   UNL     1       6.360  18.357  -1.828  0.00  0.00    +0.000 OA
ATOM     13  H   UNL     1       5.937  17.783  -1.169  0.00  0.00    +0.000 HD
ENDBRANCH  10  12
ENDBRANCH   9  10
ENDBRANCH   1   9
BRANCH   1  14
ATOM     14  C   UNL     1      10.317  21.038  -0.987  0.00  0.00    +0.000 C 
BRANCH  14  15
ATOM     15  C   UNL     1      11.386  19.954  -0.710  0.00  0.00    +0.000 C 
ATOM     16  C   UNL     1      11.302  18.770  -1.666  0.00  0.00    +0.000 C 
BRANCH  15  17
ATOM     17  O   UNL     1      12.708  20.487  -0.782  0.00  0.00    +0.000 OA
ATOM     18  H   UNL     1      13.101  20.081  -1.581  0.00  0.00    +0.000 HD
ENDBRANCH  15  17
ENDBRANCH  14  15
ENDBRANCH   1  14
TORSDOF 7
ENDMDL
MODEL 2
REMARK VINA RESULT:    -4.185     16.299     18.139
REMARK INTER + INTRA:          -6.012
REMARK INTER:                  -5.670
REMARK INTRA:                  -0.342
REMARK UNBOUND:                -0.359
REMARK  Name = 
REMARK  10 active torsions:
REMARK  status: ('A' for Active; 'I' for Inactive)
REMARK    1  A    between atoms: C_1  and  C_2
REMARK    2  A    between atoms: C_5  and  N_8
REMARK    3  A    between atoms: N_8  and  C_9
REMARK    4  A    between atoms: N_8  and  C_13
REMARK    5  A    between atoms: C_9  and  C_10
REMARK    6  A    between atoms: C_10  and  C_11
REMARK    7  A    between atoms: C_10  and  O_12
REMARK    8  A    between atoms: C_13  and  C_14
REMARK    9  A    between atoms: C_14  and  C_15
REMARK   10  A    between atoms: C_14  and  O_16
REMARK                            x       y       z     vdW  Elec       q    Type
REMARK                         _______ _______ _______ _____ _____    ______ ____
ROOT
ATOM      1  N   UNL     1      10.910  14.986 -20.147  0.00  0.00    +0.000 N 
ENDROOT
BRANCH   1   6
ATOM      2  C   UNL     1       9.799  20.563 -19.153  0.00  0.00    +0.000 C 
ATOM      3  C   UNL     1      10.112  19.121 -19.411  0.00  0.00    +0.000 A 
ATOM      4  C   UNL     1      10.164  18.623 -20.709  0.00  0.00    +0.000 A 
ATOM      5  C   UNL     1      10.428  17.264 -20.944  0.00  0.00    +0.000 A 
ATOM      6  C   UNL     1      10.628  16.336 -19.905  0.00  0.00    +0.000 A 
ATOM      7  C   UNL     1      10.570  16.876 -18.607  0.00  0.00    +0.000 A 
ATOM      8  C   UNL     1      10.310  18.233 -18.358  0.00  0.00    +0.000 A 
ENDBRANCH   1   6
BRANCH   1   9
ATOM      9  C   UNL     1      12.298  14.559 -20.447  0.00  0.00    +0.000 C 
BRANCH   9  10
ATOM     10  C   UNL     1      12.974  13.837 -19.256  0.00  0.00    +0.000 C 
ATOM     11  C   UNL     1      14.174  13.022 -19.723  0.00  0.00    +0.000 C 
BRANCH  10  12
ATOM     12  O   UNL     1      13.431  14.779 -18.276  0.00  0.00    +0.000 OA
ATOM     13  H   UNL     1      14.356  14.569 -18.064  0.00  0.00    +0.000 HD
ENDBRANCH  10  12
ENDBRANCH   9  10
ENDBRANCH   1   9
BRANCH   1  14
ATOM     14  C   UNL     1       9.854  14.052 -20.615  0.00  0.00    +0.000 C 
BRANCH  14  15
ATOM     15  C   UNL     1       8.431  14.605 -20.362  0.00  0.00    +0.000 C 
ATOM     16  C   UNL     1       7.576  14.660 -21.623  0.00  0.00    +0.000 C 
BRANCH  15  17
ATOM     17  O   UNL     1       7.731  13.833 -19.387  0.00  0.00    +0.000 OA
ATOM     18  H   UNL     1       8.323  13.813 -18.609  0.00  0.00    +0.000 HD
ENDBRANCH  15  17
ENDBRANCH  14  15
ENDBRANCH   1  14
TORSDOF 7
ENDMDL
MODEL 3
REMARK VINA RESULT:    -4.171     16.243     17.816
REMARK INTER + INTRA:          -5.992
REMARK INTER:                  -5.558
REMARK INTRA:                  -0.435
REMARK UNBOUND:                -0.359
REMARK  Name = 
REMARK  10 active torsions:
REMARK  status: ('A' for Active; 'I' for Inactive)
REMARK    1  A    between atoms: C_1  and  C_2
REMARK    2  A    between atoms: C_5  and  N_8
REMARK    3  A    between atoms: N_8  and  C_9
REMARK    4  A    between atoms: N_8  and  C_13
REMARK    5  A    between atoms: C_9  and  C_10
REMARK    6  A    between atoms: C_10  and  C_11
REMARK    7  A    between atoms: C_10  and  O_12
REMARK    8  A    between atoms: C_13  and  C_14
REMARK    9  A    between atoms: C_14  and  C_15
REMARK   10  A    between atoms: C_14  and  O_16
REMARK                            x       y       z     vdW  Elec       q    Type
REMARK                         _______ _______ _______ _____ _____    ______ ____
ROOT
ATOM      1  N   UNL     1      10.951  15.314 -20.412  0.00  0.00    +0.000 N 
ENDROOT
BRANCH   1   6
ATOM      2  C   UNL     1       9.421  20.654 -18.839  0.00  0.00    +0.000 C 
ATOM      3  C   UNL     1       9.842  19.276 -19.250  0.00  0.00    +0.000 A 
ATOM      4  C   UNL     1       9.786  18.880 -20.582  0.00  0.00    +0.000 A 
ATOM      5  C   UNL     1      10.154  17.577 -20.957  0.00  0.00    +0.000 A 
ATOM      6  C   UNL     1      10.568  16.606 -20.028  0.00  0.00    +0.000 A 
ATOM      7  C   UNL     1      10.613  17.042 -18.691  0.00  0.00    +0.000 A 
ATOM      8  C   UNL     1      10.251  18.342 -18.303  0.00  0.00    +0.000 A 
ENDBRANCH   1   6
BRANCH   1   9
ATOM      9  C   UNL     1      10.037  14.169 -20.184  0.00  0.00    +0.000 C 
BRANCH   9  10
ATOM     10  C   UNL     1       8.544  14.561 -20.298  0.00  0.00    +0.000 C 
ATOM     11  C   UNL     1       7.998  14.232 -21.683  0.00  0.00    +0.000 C 
BRANCH  10  12
ATOM     12  O   UNL     1       7.752  13.858 -19.330  0.00  0.00    +0.000 OA
ATOM     13  H   UNL     1       7.639  14.436 -18.557  0.00  0.00    +0.000 HD
ENDBRANCH  10  12
ENDBRANCH   9  10
ENDBRANCH   1   9
BRANCH   1  14
ATOM     14  C   UNL     1      12.383  14.950 -20.563  0.00  0.00    +0.000 C 
BRANCH  14  15
ATOM     15  C   UNL     1      12.883  14.054 -19.404  0.00  0.00    +0.000 C 
ATOM     16  C   UNL     1      14.028  13.133 -19.810  0.00  0.00    +0.000 C 
BRANCH  15  17
ATOM     17  O   UNL     1      13.314  14.829 -18.286  0.00  0.00    +0.000 OA
ATOM     18  H   UNL     1      12.495  15.218 -17.918  0.00  0.00    +0.000 HD
ENDBRANCH  15  17
ENDBRANCH  14  15
ENDBRANCH   1  14
TORSDOF 7
ENDMDL
MODEL 4
REMARK VINA RESULT:    -4.080     14.753     17.247
REMARK INTER + INTRA:          -5.870
REMARK INTER:                  -5.377
REMARK INTRA:                  -0.493
REMARK UNBOUND:                -0.359
REMARK  Name = 
REMARK  10 active torsions:
REMARK  status: ('A' for Active; 'I' for Inactive)
REMARK    1  A    between atoms: C_1  and  C_2
REMARK    2  A    between atoms: C_5  and  N_8
REMARK    3  A    between atoms: N_8  and  C_9
REMARK    4  A    between atoms: N_8  and  C_13
REMARK    5  A    between atoms: C_9  and  C_10
REMARK    6  A    between atoms: C_10  and  C_11
REMARK    7  A    between atoms: C_10  and  O_12
REMARK    8  A    between atoms: C_13  and  C_14
REMARK    9  A    between atoms: C_14  and  C_15
REMARK   10  A    between atoms: C_14  and  O_16
REMARK                            x       y       z     vdW  Elec       q    Type
REMARK                         _______ _______ _______ _____ _____    ______ ____
ROOT
ATOM      1  N   UNL     1      10.649  15.933 -19.696  0.00  0.00    +0.000 N 
ENDROOT
BRANCH   1   6
ATOM      2  C   UNL     1       9.991  20.691 -16.494  0.00  0.00    +0.000 C 
ATOM      3  C   UNL     1      10.139  19.449 -17.318  0.00  0.00    +0.000 A 
ATOM      4  C   UNL     1      10.705  18.298 -16.780  0.00  0.00    +0.000 A 
ATOM      5  C   UNL     1      10.869  17.146 -17.566  0.00  0.00    +0.000 A 
ATOM      6  C   UNL     1      10.501  17.091 -18.923  0.00  0.00    +0.000 A 
ATOM      7  C   UNL     1       9.930  18.272 -19.433  0.00  0.00    +0.000 A 
ATOM      8  C   UNL     1       9.759  19.431 -18.657  0.00  0.00    +0.000 A 
ENDBRANCH   1   6
BRANCH   1   9
ATOM      9  C   UNL     1       9.776  14.759 -19.451  0.00  0.00    +0.000 C 
BRANCH   9  10
ATOM     10  C   UNL     1       8.620  14.647 -20.476  0.00  0.00    +0.000 C 
ATOM     11  C   UNL     1       9.032  13.792 -21.669  0.00  0.00    +0.000 C 
BRANCH  10  12
ATOM     12  O   UNL     1       7.460  14.049 -19.880  0.00  0.00    +0.000 OA
ATOM     13  H   UNL     1       6.922  13.663 -20.591  0.00  0.00    +0.000 HD
ENDBRANCH  10  12
ENDBRANCH   9  10
ENDBRANCH   1   9
BRANCH   1  14
ATOM     14  C   UNL     1      11.929  15.626 -20.384  0.00  0.00    +0.000 C 
BRANCH  14  15
ATOM     15  C   UNL     1      12.565  14.310 -19.874  0.00  0.00    +0.000 C 
ATOM     16  C   UNL     1      13.577  13.717 -20.848  0.00  0.00    +0.000 C 
BRANCH  15  17
ATOM     17  O   UNL     1      13.215  14.491 -18.617  0.00  0.00    +0.000 OA
ATOM     18  H   UNL     1      13.504  15.426 -18.614  0.00  0.00    +0.000 HD
ENDBRANCH  15  17
ENDBRANCH  14  15
ENDBRANCH   1  14
TORSDOF 7
ENDMDL
MODEL 5
REMARK VINA RESULT:    -3.882      0.744      3.454
REMARK INTER + INTRA:          -5.602
REMARK INTER:                  -5.149
REMARK INTRA:                  -0.453
REMARK UNBOUND:                -0.359
REMARK  Name = 
REMARK  10 active torsions:
REMARK  status: ('A' for Active; 'I' for Inactive)
REMARK    1  A    between atoms: C_1  and  C_2
REMARK    2  A    between atoms: C_5  and  N_8
REMARK    3  A    between atoms: N_8  and  C_9
REMARK    4  A    between atoms: N_8  and  C_13
REMARK    5  A    between atoms: C_9  and  C_10
REMARK    6  A    between atoms: C_10  and  C_11
REMARK    7  A    between atoms: C_10  and  O_12
REMARK    8  A    between atoms: C_13  and  C_14
REMARK    9  A    between atoms: C_14  and  C_15
REMARK   10  A    between atoms: C_14  and  O_16
REMARK                            x       y       z     vdW  Elec       q    Type
REMARK                         _______ _______ _______ _____ _____    ______ ____
ROOT
ATOM      1  N   UNL     1       9.860  20.297  -2.044  0.00  0.00    +0.000 N 
ENDROOT
BRANCH   1   6
ATOM      2  C   UNL     1       8.343  22.369  -7.214  0.00  0.00    +0.000 C 
ATOM      3  C   UNL     1       8.738  21.808  -5.882  0.00  0.00    +0.000 A 
ATOM      4  C   UNL     1       7.776  21.392  -4.969  0.00  0.00    +0.000 A 
ATOM      5  C   UNL     1       8.151  20.895  -3.710  0.00  0.00    +0.000 A 
ATOM      6  C   UNL     1       9.492  20.811  -3.293  0.00  0.00    +0.000 A 
ATOM      7  C   UNL     1      10.438  21.239  -4.243  0.00  0.00    +0.000 A 
ATOM      8  C   UNL     1      10.076  21.736  -5.506  0.00  0.00    +0.000 A 
ENDBRANCH   1   6
BRANCH   1   9
ATOM      9  C   UNL     1      11.205  19.702  -1.851  0.00  0.00    +0.000 C 
BRANCH   9  10
ATOM     10  C   UNL     1      11.838  20.078  -0.489  0.00  0.00    +0.000 C 
ATOM     11  C   UNL     1      12.659  18.921   0.068  0.00  0.00    +0.000 C 
BRANCH  10  12
ATOM     12  O   UNL     1      12.702  21.215  -0.619  0.00  0.00    +0.000 OA
ATOM     13  H   UNL     1      12.148  22.012  -0.658  0.00  0.00    +0.000 HD
ENDBRANCH  10  12
ENDBRANCH   9  10
ENDBRANCH   1   9
BRANCH   1  14
ATOM     14  C   UNL     1       8.836  19.855  -1.062  0.00  0.00    +0.000 C 
BRANCH  14  15
ATOM     15  C   UNL     1       8.419  18.381  -1.276  0.00  0.00    +0.000 C 
ATOM     16  C   UNL     1       8.843  17.465  -0.134  0.00  0.00    +0.000 C 
BRANCH  15  17
ATOM     17  O   UNL     1       7.008  18.251  -1.445  0.00  0.00    +0.000 OA
ATOM     18  H   UNL     1       6.693  17.825  -0.623  0.00  0.00    +0.000 HD
ENDBRANCH  15  17
ENDBRANCH  14  15
ENDBRANCH   1  14
TORSDOF 7
ENDMDL
MODEL 6
REMARK VINA RESULT:    -3.865     15.015     18.014
REMARK INTER + INTRA:          -5.579
REMARK INTER:                  -4.992
REMARK INTRA:                  -0.587
REMARK UNBOUND:                -0.359
REMARK  Name = 
REMARK  10 active torsions:
REMARK  status: ('A' for Active; 'I' for Inactive)
REMARK    1  A    between atoms: C_1  and  C_2
REMARK    2  A    between atoms: C_5  and  N_8
REMARK    3  A    between atoms: N_8  and  C_9
REMARK    4  A    between atoms: N_8  and  C_13
REMARK    5  A    between atoms: C_9  and  C_10
REMARK    6  A    between atoms: C_10  and  C_11
REMARK    7  A    between atoms: C_10  and  O_12
REMARK    8  A    between atoms: C_13  and  C_14
REMARK    9  A    between atoms: C_14  and  C_15
REMARK   10  A    between atoms: C_14  and  O_16
REMARK                            x       y       z     vdW  Elec       q    Type
REMARK                         _______ _______ _______ _____ _____    ______ ____
ROOT
ATOM      1  N   UNL     1      10.882  15.697 -20.289  0.00  0.00    +0.000 N 
ENDROOT
BRANCH   1   6
ATOM      2  C   UNL     1      10.246  20.075 -16.580  0.00  0.00    +0.000 C 
ATOM      3  C   UNL     1      10.389  18.930 -17.535  0.00  0.00    +0.000 A 
ATOM      4  C   UNL     1      11.021  17.753 -17.150  0.00  0.00    +0.000 A 
ATOM      5  C   UNL     1      11.179  16.694 -18.059  0.00  0.00    +0.000 A 
ATOM      6  C   UNL     1      10.739  16.764 -19.394  0.00  0.00    +0.000 A 
ATOM      7  C   UNL     1      10.102  17.968 -19.748  0.00  0.00    +0.000 A 
ATOM      8  C   UNL     1       9.936  19.034 -18.848  0.00  0.00    +0.000 A 
ENDBRANCH   1   6
BRANCH   1   9
ATOM      9  C   UNL     1      11.441  15.932 -21.642  0.00  0.00    +0.000 C 
BRANCH   9  10
ATOM     10  C   UNL     1      12.986  15.838 -21.678  0.00  0.00    +0.000 C 
ATOM     11  C   UNL     1      13.619  17.218 -21.541  0.00  0.00    +0.000 C 
BRANCH  10  12
ATOM     12  O   UNL     1      13.476  15.016 -20.611  0.00  0.00    +0.000 OA
ATOM     13  H   UNL     1      14.154  15.519 -20.129  0.00  0.00    +0.000 HD
ENDBRANCH  10  12
ENDBRANCH   9  10
ENDBRANCH   1   9
BRANCH   1  14
ATOM     14  C   UNL     1      10.058  14.468 -20.159  0.00  0.00    +0.000 C 
BRANCH  14  15
ATOM     15  C   UNL     1       8.542  14.777 -20.169  0.00  0.00    +0.000 C 
ATOM     16  C   UNL     1       7.917  14.669 -21.555  0.00  0.00    +0.000 C 
BRANCH  15  17
ATOM     17  O   UNL     1       7.821  13.913 -19.292  0.00  0.00    +0.000 OA
ATOM     18  H   UNL     1       7.762  14.403 -18.447  0.00  0.00    +0.000 HD
ENDBRANCH  15  17
ENDBRANCH  14  15
ENDBRANCH   1  14
TORSDOF 7
ENDMDL
MODEL 7
REMARK VINA RESULT:    -3.758     24.456     26.268
REMARK INTER + INTRA:          -5.435
REMARK INTER:                  -4.985
REMARK INTRA:                  -0.450
REMARK UNBOUND:                -0.359
REMARK  Name = 
REMARK  10 active torsions:
REMARK  status: ('A' for Active; 'I' for Inactive)
REMARK    1  A    between atoms: C_1  and  C_2
REMARK    2  A    between atoms: C_5  and  N_8
REMARK    3  A    between atoms: N_8  and  C_9
REMARK    4  A    between atoms: N_8  and  C_13
REMARK    5  A    between atoms: C_9  and  C_10
REMARK    6  A    between atoms: C_10  and  C_11
REMARK    7  A    between atoms: C_10  and  O_12
REMARK    8  A    between atoms: C_13  and  C_14
REMARK    9  A    between atoms: C_14  and  C_15
REMARK   10  A    between atoms: C_14  and  O_16
REMARK                            x       y       z     vdW  Elec       q    Type
REMARK                         _______ _______ _______ _____ _____    ______ ____
ROOT
ATOM      1  N   UNL     1      -6.770   7.879 -19.015  0.00  0.00    +0.000 N 
ENDROOT
BRANCH   1   6
ATOM      2  C   UNL     1      -3.826   3.698 -21.696  0.00  0.00    +0.000 C 
ATOM      3  C   UNL     1      -4.582   4.774 -20.978  0.00  0.00    +0.000 A 
ATOM      4  C   UNL     1      -5.908   4.588 -20.604  0.00  0.00    +0.000 A 
ATOM      5  C   UNL     1      -6.621   5.611 -19.958  0.00  0.00    +0.000 A 
ATOM      6  C   UNL     1      -6.059   6.869 -19.677  0.00  0.00    +0.000 A 
ATOM      7  C   UNL     1      -4.716   7.022 -20.067  0.00  0.00    +0.000 A 
ATOM      8  C   UNL     1      -3.991   6.006 -20.712  0.00  0.00    +0.000 A 
ENDBRANCH   1   6
BRANCH   1   9
ATOM      9  C   UNL     1      -7.284   7.649 -17.643  0.00  0.00    +0.000 C 
BRANCH   9  10
ATOM     10  C   UNL     1      -6.203   7.097 -16.682  0.00  0.00    +0.000 C 
ATOM     11  C   UNL     1      -5.299   8.215 -16.178  0.00  0.00    +0.000 C 
BRANCH  10  12
ATOM     12  O   UNL     1      -6.802   6.463 -15.543  0.00  0.00    +0.000 OA
ATOM     13  H   UNL     1      -7.742   6.314 -15.741  0.00  0.00    +0.000 HD
ENDBRANCH  10  12
ENDBRANCH   9  10
ENDBRANCH   1   9
BRANCH   1  14
ATOM     14  C   UNL     1      -7.466   8.951 -19.771  0.00  0.00    +0.000 C 
BRANCH  14  15
ATOM     15  C   UNL     1      -6.483  10.017 -20.313  0.00  0.00    +0.000 C 
ATOM     16  C   UNL     1      -7.180  11.170 -21.024  0.00  0.00    +0.000 C 
BRANCH  15  17
ATOM     17  O   UNL     1      -5.673  10.564 -19.273  0.00  0.00    +0.000 OA
ATOM     18  H   UNL     1      -6.191  11.313 -18.917  0.00  0.00    +0.000 HD
ENDBRANCH  15  17
ENDBRANCH  14  15
ENDBRANCH   1  14
TORSDOF 7
ENDMDL
MODEL 8
REMARK VINA RESULT:    -3.694     14.196     16.764
REMARK INTER + INTRA:          -5.348
REMARK INTER:                  -4.972
REMARK INTRA:                  -0.377
REMARK UNBOUND:                -0.359
REMARK  Name = 
REMARK  10 active torsions:
REMARK  status: ('A' for Active; 'I' for Inactive)
REMARK    1  A    between atoms: C_1  and  C_2
REMARK    2  A    between atoms: C_5  and  N_8
REMARK    3  A    between atoms: N_8  and  C_9
REMARK    4  A    between atoms: N_8  and  C_13
REMARK    5  A    between atoms: C_9  and  C_10
REMARK    6  A    between atoms: C_10  and  C_11
REMARK    7  A    between atoms: C_10  and  O_12
REMARK    8  A    between atoms: C_13  and  C_14
REMARK    9  A    between atoms: C_14  and  C_15
REMARK   10  A    between atoms: C_14  and  O_16
REMARK                            x       y       z     vdW  Elec       q    Type
REMARK                         _______ _______ _______ _____ _____    ______ ____
ROOT
ATOM      1  N   UNL     1      11.875  17.597 -18.681  0.00  0.00    +0.000 N 
ENDROOT
BRANCH   1   6
ATOM      2  C   UNL     1       9.351  13.369 -21.695  0.00  0.00    +0.000 C 
ATOM      3  C   UNL     1      10.001  14.454 -20.892  0.00  0.00    +0.000 A 
ATOM      4  C   UNL     1       9.270  15.550 -20.447  0.00  0.00    +0.000 A 
ATOM      5  C   UNL     1       9.891  16.578 -19.720  0.00  0.00    +0.000 A 
ATOM      6  C   UNL     1      11.266  16.577 -19.423  0.00  0.00    +0.000 A 
ATOM      7  C   UNL     1      11.974  15.453 -19.886  0.00  0.00    +0.000 A 
ATOM      8  C   UNL     1      11.364  14.416 -20.612  0.00  0.00    +0.000 A 
ENDBRANCH   1   6
BRANCH   1   9
ATOM      9  C   UNL     1      11.049  18.663 -18.065  0.00  0.00    +0.000 C 
BRANCH   9  10
ATOM     10  C   UNL     1      10.869  18.477 -16.539  0.00  0.00    +0.000 C 
ATOM     11  C   UNL     1       9.859  19.473 -15.983  0.00  0.00    +0.000 C 
BRANCH  10  12
ATOM     12  O   UNL     1      10.404  17.155 -16.233  0.00  0.00    +0.000 OA
ATOM     13  H   UNL     1       9.433  17.159 -16.280  0.00  0.00    +0.000 HD
ENDBRANCH  10  12
ENDBRANCH   9  10
ENDBRANCH   1   9
BRANCH   1  14
ATOM     14  C   UNL     1      13.301  17.955 -18.893  0.00  0.00    +0.000 C 
BRANCH  14  15
ATOM     15  C   UNL     1      14.212  17.425 -17.760  0.00  0.00    +0.000 C 
ATOM     16  C   UNL     1      14.425  18.435 -16.639  0.00  0.00    +0.000 C 
BRANCH  15  17
ATOM     17  O   UNL     1      13.692  16.228 -17.183  0.00  0.00    +0.000 OA
ATOM     18  H   UNL     1      14.444  15.834 -16.696  0.00  0.00    +0.000 HD
ENDBRANCH  15  17
ENDBRANCH  14  15
ENDBRANCH   1  14
TORSDOF 7
ENDMDL
MODEL 9
REMARK VINA RESULT:    -3.693     14.422     16.333
REMARK INTER + INTRA:          -5.346
REMARK INTER:                  -4.651
REMARK INTRA:                  -0.696
REMARK UNBOUND:                -0.359
REMARK  Name = 
REMARK  10 active torsions:
REMARK  status: ('A' for Active; 'I' for Inactive)
REMARK    1  A    between atoms: C_1  and  C_2
REMARK    2  A    between atoms: C_5  and  N_8
REMARK    3  A    between atoms: N_8  and  C_9
REMARK    4  A    between atoms: N_8  and  C_13
REMARK    5  A    between atoms: C_9  and  C_10
REMARK    6  A    between atoms: C_10  and  C_11
REMARK    7  A    between atoms: C_10  and  O_12
REMARK    8  A    between atoms: C_13  and  C_14
REMARK    9  A    between atoms: C_14  and  C_15
REMARK   10  A    between atoms: C_14  and  O_16
REMARK                            x       y       z     vdW  Elec       q    Type
REMARK                         _______ _______ _______ _____ _____    ______ ____
ROOT
ATOM      1  N   UNL     1      10.816  19.396 -18.552  0.00  0.00    +0.000 N 
ENDROOT
BRANCH   1   6
ATOM      2  C   UNL     1       9.026  14.751 -21.474  0.00  0.00    +0.000 C 
ATOM      3  C   UNL     1       9.467  15.962 -20.710  0.00  0.00    +0.000 A 
ATOM      4  C   UNL     1       9.637  17.186 -21.348  0.00  0.00    +0.000 A 
ATOM      5  C   UNL     1      10.080  18.311 -20.633  0.00  0.00    +0.000 A 
ATOM      6  C   UNL     1      10.394  18.266 -19.263  0.00  0.00    +0.000 A 
ATOM      7  C   UNL     1      10.208  17.013 -18.650  0.00  0.00    +0.000 A 
ATOM      8  C   UNL     1       9.764  15.881 -19.353  0.00  0.00    +0.000 A 
ENDBRANCH   1   6
BRANCH   1   9
ATOM      9  C   UNL     1      10.095  20.683 -18.704  0.00  0.00    +0.000 C 
BRANCH   9  10
ATOM     10  C   UNL     1       8.921  20.834 -17.705  0.00  0.00    +0.000 C 
ATOM     11  C   UNL     1       7.581  20.791 -18.428  0.00  0.00    +0.000 C 
BRANCH  10  12
ATOM     12  O   UNL     1       8.935  19.781 -16.731  0.00  0.00    +0.000 OA
ATOM     13  H   UNL     1       9.246  18.971 -17.168  0.00  0.00    +0.000 HD
ENDBRANCH  10  12
ENDBRANCH   9  10
ENDBRANCH   1   9
BRANCH   1  14
ATOM     14  C   UNL     1      12.213  19.518 -18.060  0.00  0.00    +0.000 C 
BRANCH  14  15
ATOM     15  C   UNL     1      12.401  18.869 -16.667  0.00  0.00    +0.000 C 
ATOM     16  C   UNL     1      13.802  19.062 -16.100  0.00  0.00    +0.000 C 
BRANCH  15  17
ATOM     17  O   UNL     1      11.465  19.378 -15.718  0.00  0.00    +0.000 OA
ATOM     18  H   UNL     1      11.255  18.619 -15.138  0.00  0.00    +0.000 HD
ENDBRANCH  15  17
ENDBRANCH  14  15
ENDBRANCH   1  14
TORSDOF 7
ENDMDL
