MODEL 1
REMARK VINA RESULT:    -4.932      0.000      0.000
REMARK INTER + INTRA:          -5.409
REMARK INTER:                  -5.365
REMARK INTRA:                  -0.044
REMARK UNBOUND:                -0.044
REMARK  Name = 
REMARK  3 active torsions:
REMARK  status: ('A' for Active; 'I' for Inactive)
REMARK    1  A    between atoms: C_1  and  O_2
REMARK    2  A    between atoms: O_2  and  C_3
REMARK    3  A    between atoms: C_8  and  O_9
REMARK                            x       y       z     vdW  Elec       q    Type
REMARK                         _______ _______ _______ _____ _____    ______ ____
ROOT
ATOM      1  C   UNL     1       0.673   2.949  10.266  0.00  0.00    +0.000 A 
ATOM      2  C   UNL     1       1.116   4.124  10.871  0.00  0.00    +0.000 A 
ATOM      3  C   UNL     1       1.332   4.162  12.254  0.00  0.00    +0.000 A 
ATOM      4  C   UNL     1       1.106   3.028  13.036  0.00  0.00    +0.000 A 
ATOM      5  C   UNL     1       0.664   1.849  12.440  0.00  0.00    +0.000 A 
ATOM      6  C   UNL     1       0.452   1.821  11.067  0.00  0.00    +0.000 A 
ENDROOT
BRANCH   1   8
ATOM      7  C   UNL     1       1.335   3.375   8.024  0.00  0.00    +0.000 C 
ATOM      8  O   UNL     1       0.421   2.769   8.930  0.00  0.00    +0.000 OA
ENDBRANCH   1   8
BRANCH   6   9
ATOM      9  O   UNL     1       0.017   0.652  10.503  0.00  0.00    +0.000 OA
ATOM     10  H   UNL     1      -0.818   0.887  10.057  0.00  0.00    +0.000 HD
ENDBRANCH   6   9
TORSDOF 2
ENDMDL
MODEL 2
REMARK VINA RESULT:    -4.446      2.317      3.324
REMARK INTER + INTRA:          -4.880
REMARK INTER:                  -4.828
REMARK INTRA:                  -0.053
REMARK UNBOUND:                -0.044
REMARK  Name = 
REMARK  3 active torsions:
REMARK  status: ('A' for Active; 'I' for Inactive)
REMARK    1  A    between atoms: C_1  and  O_2
REMARK    2  A    between atoms: O_2  and  C_3
REMARK    3  A    between atoms: C_8  and  O_9
REMARK                            x       y       z     vdW  Elec       q    Type
REMARK                         _______ _______ _______ _____ _____    ______ ____
ROOT
ATOM      1  C   UNL     1       0.923   4.054  12.067  0.00  0.00    +0.000 A 
ATOM      2  C   UNL     1       0.487   4.045  10.743  0.00  0.00    +0.000 A 
ATOM      3  C   UNL     1       0.115   2.838  10.138  0.00  0.00    +0.000 A 
ATOM      4  C   UNL     1       0.178   1.639  10.851  0.00  0.00    +0.000 A 
ATOM      5  C   UNL     1       0.613   1.641  12.175  0.00  0.00    +0.000 A 
ATOM      6  C   UNL     1       0.981   2.843  12.767  0.00  0.00    +0.000 A 
ENDROOT
BRANCH   1   8
ATOM      7  C   UNL     1       0.307   6.109  13.090  0.00  0.00    +0.000 C 
ATOM      8  O   UNL     1       1.318   5.156  12.783  0.00  0.00    +0.000 OA
ENDBRANCH   1   8
BRANCH   6   9
ATOM      9  O   UNL     1       1.405   2.819  14.068  0.00  0.00    +0.000 OA
ATOM     10  H   UNL     1       1.278   1.894  14.354  0.00  0.00    +0.000 HD
ENDBRANCH   6   9
TORSDOF 2
ENDMDL
MODEL 3
REMARK VINA RESULT:    -4.431      1.353      3.097
REMARK INTER + INTRA:          -4.864
REMARK INTER:                  -4.815
REMARK INTRA:                  -0.049
REMARK UNBOUND:                -0.044
REMARK  Name = 
REMARK  3 active torsions:
REMARK  status: ('A' for Active; 'I' for Inactive)
REMARK    1  A    between atoms: C_1  and  O_2
REMARK    2  A    between atoms: O_2  and  C_3
REMARK    3  A    between atoms: C_8  and  O_9
REMARK                            x       y       z     vdW  Elec       q    Type
REMARK                         _______ _______ _______ _____ _____    ______ ____
ROOT
ATOM      1  C   UNL     1       0.900   2.596  11.641  0.00  0.00    +0.000 A 
ATOM      2  C   UNL     1       1.702   3.715  11.423  0.00  0.00    +0.000 A 
ATOM      3  C   UNL     1       1.905   4.188  10.121  0.00  0.00    +0.000 A 
ATOM      4  C   UNL     1       1.310   3.546   9.034  0.00  0.00    +0.000 A 
ATOM      5  C   UNL     1       0.507   2.427   9.243  0.00  0.00    +0.000 A 
ATOM      6  C   UNL     1       0.311   1.964  10.538  0.00  0.00    +0.000 A 
ENDROOT
BRANCH   1   8
ATOM      7  C   UNL     1       1.728   1.726  13.691  0.00  0.00    +0.000 C 
ATOM      8  O   UNL     1       0.616   2.025  12.856  0.00  0.00    +0.000 OA
ENDBRANCH   1   8
BRANCH   6   9
ATOM      9  O   UNL     1      -0.482   0.863  10.719  0.00  0.00    +0.000 OA
ATOM     10  H   UNL     1       0.009   0.132  10.297  0.00  0.00    +0.000 HD
ENDBRANCH   6   9
TORSDOF 2
ENDMDL
MODEL 4
REMARK VINA RESULT:    -4.151      1.663      2.402
REMARK INTER + INTRA:          -4.559
REMARK INTER:                  -4.515
REMARK INTRA:                  -0.045
REMARK UNBOUND:                -0.044
REMARK  Name = 
REMARK  3 active torsions:
REMARK  status: ('A' for Active; 'I' for Inactive)
REMARK    1  A    between atoms: C_1  and  O_2
REMARK    2  A    between atoms: O_2  and  C_3
REMARK    3  A    between atoms: C_8  and  O_9
REMARK                            x       y       z     vdW  Elec       q    Type
REMARK                         _______ _______ _______ _____ _____    ______ ____
ROOT
ATOM      1  C   UNL     1       1.143   3.397   9.987  0.00  0.00    +0.000 A 
ATOM      2  C   UNL     1       0.207   2.364   9.936  0.00  0.00    +0.000 A 
ATOM      3  C   UNL     1      -0.051   1.597  11.079  0.00  0.00    +0.000 A 
ATOM      4  C   UNL     1       0.623   1.858  12.273  0.00  0.00    +0.000 A 
ATOM      5  C   UNL     1       1.558   2.888  12.332  0.00  0.00    +0.000 A 
ATOM      6  C   UNL     1       1.809   3.644  11.194  0.00  0.00    +0.000 A 
ENDROOT
BRANCH   1   8
ATOM      7  C   UNL     1       1.648   3.614   7.675  0.00  0.00    +0.000 C 
ATOM      8  O   UNL     1       1.495   4.224   8.951  0.00  0.00    +0.000 OA
ENDBRANCH   1   8
BRANCH   6   9
ATOM      9  O   UNL     1       2.733   4.651  11.277  0.00  0.00    +0.000 OA
ATOM     10  H   UNL     1       3.471   4.358  10.709  0.00  0.00    +0.000 HD
ENDBRANCH   6   9
TORSDOF 2
ENDMDL
MODEL 5
REMARK VINA RESULT:    -4.100      2.125      3.705
REMARK INTER + INTRA:          -4.504
REMARK INTER:                  -4.451
REMARK INTRA:                  -0.053
REMARK UNBOUND:                -0.044
REMARK  Name = 
REMARK  3 active torsions:
REMARK  status: ('A' for Active; 'I' for Inactive)
REMARK    1  A    between atoms: C_1  and  O_2
REMARK    2  A    between atoms: O_2  and  C_3
REMARK    3  A    between atoms: C_8  and  O_9
REMARK                            x       y       z     vdW  Elec       q    Type
REMARK                         _______ _______ _______ _____ _____    ______ ____
ROOT
ATOM      1  C   UNL     1       0.965   3.943  12.487  0.00  0.00    +0.000 A 
ATOM      2  C   UNL     1       1.262   2.703  13.050  0.00  0.00    +0.000 A 
ATOM      3  C   UNL     1       0.916   1.526  12.375  0.00  0.00    +0.000 A 
ATOM      4  C   UNL     1       0.271   1.584  11.138  0.00  0.00    +0.000 A 
ATOM      5  C   UNL     1      -0.029   2.819  10.568  0.00  0.00    +0.000 A 
ATOM      6  C   UNL     1       0.318   3.981  11.245  0.00  0.00    +0.000 A 
ENDROOT
BRANCH   1   8
ATOM      7  C   UNL     1       0.570   5.493  14.244  0.00  0.00    +0.000 C 
ATOM      8  O   UNL     1       1.243   5.170  13.033  0.00  0.00    +0.000 OA
ENDBRANCH   1   8
BRANCH   6   9
ATOM      9  O   UNL     1       0.013   5.183  10.665  0.00  0.00    +0.000 OA
ATOM     10  H   UNL     1      -0.729   4.986  10.061  0.00  0.00    +0.000 HD
ENDBRANCH   6   9
TORSDOF 2
ENDMDL
MODEL 6
REMARK VINA RESULT:    -4.033      2.018      3.825
REMARK INTER + INTRA:          -4.431
REMARK INTER:                  -4.390
REMARK INTRA:                  -0.041
REMARK UNBOUND:                -0.044
REMARK  Name = 
REMARK  3 active torsions:
REMARK  status: ('A' for Active; 'I' for Inactive)
REMARK    1  A    between atoms: C_1  and  O_2
REMARK    2  A    between atoms: O_2  and  C_3
REMARK    3  A    between atoms: C_8  and  O_9
REMARK                            x       y       z     vdW  Elec       q    Type
REMARK                         _______ _______ _______ _____ _____    ______ ____
ROOT
ATOM      1  C   UNL     1       0.769   2.614  11.874  0.00  0.00    +0.000 A 
ATOM      2  C   UNL     1       0.014   1.730  11.105  0.00  0.00    +0.000 A 
ATOM      3  C   UNL     1      -0.047   1.888   9.714  0.00  0.00    +0.000 A 
ATOM      4  C   UNL     1       0.643   2.929   9.090  0.00  0.00    +0.000 A 
ATOM      5  C   UNL     1       1.400   3.816   9.852  0.00  0.00    +0.000 A 
ATOM      6  C   UNL     1       1.454   3.651  11.230  0.00  0.00    +0.000 A 
ENDROOT
BRANCH   1   8
ATOM      7  C   UNL     1       1.780   1.574  13.757  0.00  0.00    +0.000 C 
ATOM      8  O   UNL     1       0.918   2.579  13.238  0.00  0.00    +0.000 OA
ENDBRANCH   1   8
BRANCH   6   9
ATOM      9  O   UNL     1       2.204   4.536  11.958  0.00  0.00    +0.000 OA
ATOM     10  H   UNL     1       2.616   3.995  12.659  0.00  0.00    +0.000 HD
ENDBRANCH   6   9
TORSDOF 2
ENDMDL
MODEL 7
REMARK VINA RESULT:    -3.490      2.130      2.808
REMARK INTER + INTRA:          -3.841
REMARK INTER:                  -3.797
REMARK INTRA:                  -0.044
REMARK UNBOUND:                -0.044
REMARK  Name = 
REMARK  3 active torsions:
REMARK  status: ('A' for Active; 'I' for Inactive)
REMARK    1  A    between atoms: C_1  and  O_2
REMARK    2  A    between atoms: O_2  and  C_3
REMARK    3  A    between atoms: C_8  and  O_9
REMARK                            x       y       z     vdW  Elec       q    Type
REMARK                         _______ _______ _______ _____ _____    ______ ____
ROOT
ATOM      1  C   UNL     1       0.917   3.645  12.433  0.00  0.00    +0.000 A 
ATOM      2  C   UNL     1       0.654   4.991  12.183  0.00  0.00    +0.000 A 
ATOM      3  C   UNL     1       0.498   5.884  13.252  0.00  0.00    +0.000 A 
ATOM      4  C   UNL     1       0.604   5.435  14.570  0.00  0.00    +0.000 A 
ATOM      5  C   UNL     1       0.868   4.092  14.827  0.00  0.00    +0.000 A 
ATOM      6  C   UNL     1       1.021   3.214  13.762  0.00  0.00    +0.000 A 
ENDROOT
BRANCH   1   8
ATOM      7  C   UNL     1       0.249   2.728  10.346  0.00  0.00    +0.000 C 
ATOM      8  O   UNL     1       1.091   2.664  11.490  0.00  0.00    +0.000 OA
ENDBRANCH   1   8
BRANCH   6   9
ATOM      9  O   UNL     1       1.279   1.898  14.040  0.00  0.00    +0.000 OA
ATOM     10  H   UNL     1       0.465   1.570  14.468  0.00  0.00    +0.000 HD
ENDBRANCH   6   9
TORSDOF 2
ENDMDL
MODEL 8
REMARK VINA RESULT:    -3.465     21.447     22.683
REMARK INTER + INTRA:          -3.813
REMARK INTER:                  -3.763
REMARK INTRA:                  -0.050
REMARK UNBOUND:                -0.044
REMARK  Name = 
REMARK  3 active torsions:
REMARK  status: ('A' for Active; 'I' for Inactive)
REMARK    1  A    between atoms: C_1  and  O_2
REMARK    2  A    between atoms: O_2  and  C_3
REMARK    3  A    between atoms: C_8  and  O_9
REMARK                            x       y       z     vdW  Elec       q    Type
REMARK                         _______ _______ _______ _____ _____    ______ ____
ROOT
ATOM      1  C   UNL     1      12.441  20.624   3.692  0.00  0.00    +0.000 A 
ATOM      2  C   UNL     1      12.416  20.805   5.074  0.00  0.00    +0.000 A 
ATOM      3  C   UNL     1      13.589  20.645   5.822  0.00  0.00    +0.000 A 
ATOM      4  C   UNL     1      14.789  20.305   5.193  0.00  0.00    +0.000 A 
ATOM      5  C   UNL     1      14.822  20.123   3.813  0.00  0.00    +0.000 A 
ATOM      6  C   UNL     1      13.653  20.283   3.079  0.00  0.00    +0.000 A 
ENDROOT
BRANCH   1   8
ATOM      7  C   UNL     1      10.383  19.728   2.911  0.00  0.00    +0.000 C 
ATOM      8  O   UNL     1      11.374  20.747   2.838  0.00  0.00    +0.000 OA
ENDBRANCH   1   8
BRANCH   6   9
ATOM      9  O   UNL     1      13.711  20.099   1.723  0.00  0.00    +0.000 OA
ATOM     10  H   UNL     1      13.035  19.420   1.536  0.00  0.00    +0.000 HD
ENDBRANCH   6   9
TORSDOF 2
ENDMDL
MODEL 9
REMARK VINA RESULT:    -3.413     21.500     22.572
REMARK INTER + INTRA:          -3.757
REMARK INTER:                  -3.704
REMARK INTRA:                  -0.053
REMARK UNBOUND:                -0.044
REMARK  Name = 
REMARK  3 active torsions:
REMARK  status: ('A' for Active; 'I' for Inactive)
REMARK    1  A    between atoms: C_1  and  O_2
REMARK    2  A    between atoms: O_2  and  C_3
REMARK    3  A    between atoms: C_8  and  O_9
REMARK                            x       y       z     vdW  Elec       q    Type
REMARK                         _______ _______ _______ _____ _____    ______ ____
ROOT
ATOM      1  C   UNL     1      12.455  20.644   3.766  0.00  0.00    +0.000 A 
ATOM      2  C   UNL     1      13.509  20.125   3.015  0.00  0.00    +0.000 A 
ATOM      3  C   UNL     1      14.749  19.886   3.622  0.00  0.00    +0.000 A 
ATOM      4  C   UNL     1      14.939  20.163   4.977  0.00  0.00    +0.000 A 
ATOM      5  C   UNL     1      13.890  20.681   5.733  0.00  0.00    +0.000 A 
ATOM      6  C   UNL     1      12.664  20.916   5.123  0.00  0.00    +0.000 A 
ENDROOT
BRANCH   1   8
ATOM      7  C   UNL     1      10.407  19.818   2.886  0.00  0.00    +0.000 C 
ATOM      8  O   UNL     1      11.194  20.927   3.305  0.00  0.00    +0.000 OA
ENDBRANCH   1   8
BRANCH   6   9
ATOM      9  O   UNL     1      11.648  21.425   5.887  0.00  0.00    +0.000 OA
ATOM     10  H   UNL     1      10.849  21.324   5.337  0.00  0.00    +0.000 HD
ENDBRANCH   6   9
TORSDOF 2
ENDMDL
