MODEL 1
REMARK VINA RESULT:    -6.122      0.000      0.000
REMARK INTER + INTRA:          -8.787
REMARK INTER:                  -8.270
REMARK INTRA:                  -0.517
REMARK UNBOUND:                -0.517
REMARK  Name = 
REMARK  10 active torsions:
REMARK  status: ('A' for Active; 'I' for Inactive)
REMARK    1  A    between atoms: C_1  and  C_2
REMARK    2  A    between atoms: C_5  and  N_8
REMARK    3  A    between atoms: N_8  and  C_9
REMARK    4  A    between atoms: N_8  and  C_13
REMARK    5  A    between atoms: C_9  and  C_10
REMARK    6  A    between atoms: C_10  and  C_11
REMARK    7  A    between atoms: C_10  and  O_12
REMARK    8  A    between atoms: C_13  and  C_14
REMARK    9  A    between atoms: C_14  and  C_15
REMARK   10  A    between atoms: C_14  and  O_16
REMARK                            x       y       z     vdW  Elec       q    Type
REMARK                         _______ _______ _______ _____ _____    ______ ____
ROOT
ATOM      1  N   UNL     1      12.446   1.249   7.153  0.00  0.00    +0.000 N 
ENDROOT
BRANCH   1   6
ATOM      2  C   UNL     1      10.150   2.697  12.248  0.00  0.00    +0.000 C 
ATOM      3  C   UNL     1      10.768   2.318  10.937  0.00  0.00    +0.000 A 
ATOM      4  C   UNL     1      11.275   3.289  10.079  0.00  0.00    +0.000 A 
ATOM      5  C   UNL     1      11.826   2.931   8.838  0.00  0.00    +0.000 A 
ATOM      6  C   UNL     1      11.877   1.601   8.383  0.00  0.00    +0.000 A 
ATOM      7  C   UNL     1      11.358   0.646   9.277  0.00  0.00    +0.000 A 
ATOM      8  C   UNL     1      10.806   0.991  10.522  0.00  0.00    +0.000 A 
ENDBRANCH   1   6
BRANCH   1   9
ATOM      9  C   UNL     1      11.711   0.360   6.221  0.00  0.00    +0.000 C 
BRANCH   9  10
ATOM     10  C   UNL     1      10.380   0.977   5.727  0.00  0.00    +0.000 C 
ATOM     11  C   UNL     1      10.163   0.691   4.246  0.00  0.00    +0.000 C 
BRANCH  10  12
ATOM     12  O   UNL     1       9.264   0.441   6.452  0.00  0.00    +0.000 OA
ATOM     13  H   UNL     1       9.198  -0.506   6.246  0.00  0.00    +0.000 HD
ENDBRANCH  10  12
ENDBRANCH   9  10
ENDBRANCH   1   9
BRANCH   1  14
ATOM     14  C   UNL     1      13.916   1.294   6.944  0.00  0.00    +0.000 C 
BRANCH  14  15
ATOM     15  C   UNL     1      14.300   2.052   5.651  0.00  0.00    +0.000 C 
ATOM     16  C   UNL     1      14.026   3.549   5.730  0.00  0.00    +0.000 C 
BRANCH  15  17
ATOM     17  O   UNL     1      15.677   1.872   5.324  0.00  0.00    +0.000 OA
ATOM     18  H   UNL     1      15.755   0.932   5.064  0.00  0.00    +0.000 HD
ENDBRANCH  15  17
ENDBRANCH  14  15
ENDBRANCH   1  14
TORSDOF 7
ENDMDL
MODEL 2
REMARK VINA RESULT:    -5.920      0.986      3.498
REMARK INTER + INTRA:          -8.514
REMARK INTER:                  -8.249
REMARK INTRA:                  -0.265
REMARK UNBOUND:                -0.517
REMARK  Name = 
REMARK  10 active torsions:
REMARK  status: ('A' for Active; 'I' for Inactive)
REMARK    1  A    between atoms: C_1  and  C_2
REMARK    2  A    between atoms: C_5  and  N_8
REMARK    3  A    between atoms: N_8  and  C_9
REMARK    4  A    between atoms: N_8  and  C_13
REMARK    5  A    between atoms: C_9  and  C_10
REMARK    6  A    between atoms: C_10  and  C_11
REMARK    7  A    between atoms: C_10  and  O_12
REMARK    8  A    between atoms: C_13  and  C_14
REMARK    9  A    between atoms: C_14  and  C_15
REMARK   10  A    between atoms: C_14  and  O_16
REMARK                            x       y       z     vdW  Elec       q    Type
REMARK                         _______ _______ _______ _____ _____    ______ ____
ROOT
ATOM      1  N   UNL     1      12.451   1.412   7.027  0.00  0.00    +0.000 N 
ENDROOT
BRANCH   1   6
ATOM      2  C   UNL     1      10.131   2.542  12.191  0.00  0.00    +0.000 C 
ATOM      3  C   UNL     1      10.711   2.254  10.840  0.00  0.00    +0.000 A 
ATOM      4  C   UNL     1      10.712   0.962  10.324  0.00  0.00    +0.000 A 
ATOM      5  C   UNL     1      11.284   0.693   9.070  0.00  0.00    +0.000 A 
ATOM      6  C   UNL     1      11.899   1.684   8.285  0.00  0.00    +0.000 A 
ATOM      7  C   UNL     1      11.878   2.978   8.837  0.00  0.00    +0.000 A 
ATOM      8  C   UNL     1      11.308   3.262  10.089  0.00  0.00    +0.000 A 
ENDBRANCH   1   6
BRANCH   1   9
ATOM      9  C   UNL     1      13.922   1.392   6.848  0.00  0.00    +0.000 C 
BRANCH   9  10
ATOM     10  C   UNL     1      14.381   2.119   5.560  0.00  0.00    +0.000 C 
ATOM     11  C   UNL     1      14.196   3.626   5.689  0.00  0.00    +0.000 C 
BRANCH  10  12
ATOM     12  O   UNL     1      15.766   1.862   5.289  0.00  0.00    +0.000 OA
ATOM     13  H   UNL     1      15.845   1.584   4.362  0.00  0.00    +0.000 HD
ENDBRANCH  10  12
ENDBRANCH   9  10
ENDBRANCH   1   9
BRANCH   1  14
ATOM     14  C   UNL     1      11.674   1.640   5.781  0.00  0.00    +0.000 C 
BRANCH  14  15
ATOM     15  C   UNL     1      11.125   0.322   5.185  0.00  0.00    +0.000 C 
ATOM     16  C   UNL     1       9.722  -0.019   5.674  0.00  0.00    +0.000 C 
BRANCH  15  17
ATOM     17  O   UNL     1      11.099   0.358   3.759  0.00  0.00    +0.000 OA
ATOM     18  H   UNL     1      10.172   0.157   3.518  0.00  0.00    +0.000 HD
ENDBRANCH  15  17
ENDBRANCH  14  15
ENDBRANCH   1  14
TORSDOF 7
ENDMDL
MODEL 3
REMARK VINA RESULT:    -5.898      2.074      2.347
REMARK INTER + INTRA:          -8.484
REMARK INTER:                  -8.037
REMARK INTRA:                  -0.447
REMARK UNBOUND:                -0.517
REMARK  Name = 
REMARK  10 active torsions:
REMARK  status: ('A' for Active; 'I' for Inactive)
REMARK    1  A    between atoms: C_1  and  C_2
REMARK    2  A    between atoms: C_5  and  N_8
REMARK    3  A    between atoms: N_8  and  C_9
REMARK    4  A    between atoms: N_8  and  C_13
REMARK    5  A    between atoms: C_9  and  C_10
REMARK    6  A    between atoms: C_10  and  C_11
REMARK    7  A    between atoms: C_10  and  O_12
REMARK    8  A    between atoms: C_13  and  C_14
REMARK    9  A    between atoms: C_14  and  C_15
REMARK   10  A    between atoms: C_14  and  O_16
REMARK                            x       y       z     vdW  Elec       q    Type
REMARK                         _______ _______ _______ _____ _____    ______ ____
ROOT
ATOM      1  N   UNL     1      11.907   1.561   7.063  0.00  0.00    +0.000 N 
ENDROOT
BRANCH   1   6
ATOM      2  C   UNL     1      13.192  -0.578  12.269  0.00  0.00    +0.000 C 
ATOM      3  C   UNL     1      12.864  -0.045  10.908  0.00  0.00    +0.000 A 
ATOM      4  C   UNL     1      13.828   0.603  10.143  0.00  0.00    +0.000 A 
ATOM      5  C   UNL     1      13.507   1.127   8.880  0.00  0.00    +0.000 A 
ATOM      6  C   UNL     1      12.215   1.053   8.331  0.00  0.00    +0.000 A 
ATOM      7  C   UNL     1      11.266   0.389   9.131  0.00  0.00    +0.000 A 
ATOM      8  C   UNL     1      11.574  -0.141  10.394  0.00  0.00    +0.000 A 
ENDBRANCH   1   6
BRANCH   1   9
ATOM      9  C   UNL     1      10.546   1.382   6.501  0.00  0.00    +0.000 C 
BRANCH   9  10
ATOM     10  C   UNL     1      10.542   0.553   5.193  0.00  0.00    +0.000 C 
ATOM     11  C   UNL     1       9.596  -0.637   5.305  0.00  0.00    +0.000 C 
BRANCH  10  12
ATOM     12  O   UNL     1      10.120   1.352   4.079  0.00  0.00    +0.000 OA
ATOM     13  H   UNL     1      10.707   1.157   3.329  0.00  0.00    +0.000 HD
ENDBRANCH  10  12
ENDBRANCH   9  10
ENDBRANCH   1   9
BRANCH   1  14
ATOM     14  C   UNL     1      12.970   1.813   6.056  0.00  0.00    +0.000 C 
BRANCH  14  15
ATOM     15  C   UNL     1      13.313   3.317   5.934  0.00  0.00    +0.000 C 
ATOM     16  C   UNL     1      14.514   3.586   5.035  0.00  0.00    +0.000 C 
BRANCH  15  17
ATOM     17  O   UNL     1      12.210   4.071   5.434  0.00  0.00    +0.000 OA
ATOM     18  H   UNL     1      11.625   3.411   5.010  0.00  0.00    +0.000 HD
ENDBRANCH  15  17
ENDBRANCH  14  15
ENDBRANCH   1  14
TORSDOF 7
ENDMDL
MODEL 4
REMARK VINA RESULT:    -5.715      2.684      5.300
REMARK INTER + INTRA:          -8.236
REMARK INTER:                  -7.749
REMARK INTRA:                  -0.487
REMARK UNBOUND:                -0.517
REMARK  Name = 
REMARK  10 active torsions:
REMARK  status: ('A' for Active; 'I' for Inactive)
REMARK    1  A    between atoms: C_1  and  C_2
REMARK    2  A    between atoms: C_5  and  N_8
REMARK    3  A    between atoms: N_8  and  C_9
REMARK    4  A    between atoms: N_8  and  C_13
REMARK    5  A    between atoms: C_9  and  C_10
REMARK    6  A    between atoms: C_10  and  C_11
REMARK    7  A    between atoms: C_10  and  O_12
REMARK    8  A    between atoms: C_13  and  C_14
REMARK    9  A    between atoms: C_14  and  C_15
REMARK   10  A    between atoms: C_14  and  O_16
REMARK                            x       y       z     vdW  Elec       q    Type
REMARK                         _______ _______ _______ _____ _____    ______ ____
ROOT
ATOM      1  N   UNL     1      12.107   2.572   9.601  0.00  0.00    +0.000 N 
ENDROOT
BRANCH   1   6
ATOM      2  C   UNL     1      10.515   0.430   4.481  0.00  0.00    +0.000 C 
ATOM      3  C   UNL     1      10.949   0.972   5.809  0.00  0.00    +0.000 A 
ATOM      4  C   UNL     1      10.567   0.352   6.993  0.00  0.00    +0.000 A 
ATOM      5  C   UNL     1      10.952   0.882   8.236  0.00  0.00    +0.000 A 
ATOM      6  C   UNL     1      11.710   2.060   8.359  0.00  0.00    +0.000 A 
ATOM      7  C   UNL     1      12.081   2.659   7.141  0.00  0.00    +0.000 A 
ATOM      8  C   UNL     1      11.704   2.138   5.892  0.00  0.00    +0.000 A 
ENDBRANCH   1   6
BRANCH   1   9
ATOM      9  C   UNL     1      11.308   3.634  10.257  0.00  0.00    +0.000 C 
BRANCH   9  10
ATOM     10  C   UNL     1      10.536   3.124  11.498  0.00  0.00    +0.000 C 
ATOM     11  C   UNL     1       9.931   4.285  12.279  0.00  0.00    +0.000 C 
BRANCH  10  12
ATOM     12  O   UNL     1       9.471   2.242  11.116  0.00  0.00    +0.000 OA
ATOM     13  H   UNL     1       8.677   2.779  10.959  0.00  0.00    +0.000 HD
ENDBRANCH  10  12
ENDBRANCH   9  10
ENDBRANCH   1   9
BRANCH   1  14
ATOM     14  C   UNL     1      13.520   2.484  10.052  0.00  0.00    +0.000 C 
BRANCH  14  15
ATOM     15  C   UNL     1      13.725   1.381  11.118  0.00  0.00    +0.000 C 
ATOM     16  C   UNL     1      14.070   0.024  10.517  0.00  0.00    +0.000 C 
BRANCH  15  17
ATOM     17  O   UNL     1      14.753   1.728  12.045  0.00  0.00    +0.000 OA
ATOM     18  H   UNL     1      14.465   2.578  12.435  0.00  0.00    +0.000 HD
ENDBRANCH  15  17
ENDBRANCH  14  15
ENDBRANCH   1  14
TORSDOF 7
ENDMDL
MODEL 5
REMARK VINA RESULT:    -5.703      2.835      5.500
REMARK INTER + INTRA:          -8.221
REMARK INTER:                  -7.492
REMARK INTRA:                  -0.728
REMARK UNBOUND:                -0.517
REMARK  Name = 
REMARK  10 active torsions:
REMARK  status: ('A' for Active; 'I' for Inactive)
REMARK    1  A    between atoms: C_1  and  C_2
REMARK    2  A    between atoms: C_5  and  N_8
REMARK    3  A    between atoms: N_8  and  C_9
REMARK    4  A    between atoms: N_8  and  C_13
REMARK    5  A    between atoms: C_9  and  C_10
REMARK    6  A    between atoms: C_10  and  C_11
REMARK    7  A    between atoms: C_10  and  O_12
REMARK    8  A    between atoms: C_13  and  C_14
REMARK    9  A    between atoms: C_14  and  C_15
REMARK   10  A    between atoms: C_14  and  O_16
REMARK                            x       y       z     vdW  Elec       q    Type
REMARK                         _______ _______ _______ _____ _____    ______ ____
ROOT
ATOM      1  N   UNL     1      12.375   1.473  10.336  0.00  0.00    +0.000 N 
ENDROOT
BRANCH   1   6
ATOM      2  C   UNL     1      14.328   3.345   5.236  0.00  0.00    +0.000 C 
ATOM      3  C   UNL     1      13.799   2.857   6.549  0.00  0.00    +0.000 A 
ATOM      4  C   UNL     1      13.321   3.749   7.503  0.00  0.00    +0.000 A 
ATOM      5  C   UNL     1      12.853   3.288   8.744  0.00  0.00    +0.000 A 
ATOM      6  C   UNL     1      12.860   1.928   9.103  0.00  0.00    +0.000 A 
ATOM      7  C   UNL     1      13.348   1.054   8.114  0.00  0.00    +0.000 A 
ATOM      8  C   UNL     1      13.817   1.502   6.868  0.00  0.00    +0.000 A 
ENDBRANCH   1   6
BRANCH   1   9
ATOM      9  C   UNL     1      12.038   2.443  11.406  0.00  0.00    +0.000 C 
BRANCH   9  10
ATOM     10  C   UNL     1      10.512   2.623  11.594  0.00  0.00    +0.000 C 
ATOM     11  C   UNL     1      10.167   4.078  11.891  0.00  0.00    +0.000 C 
BRANCH  10  12
ATOM     12  O   UNL     1       9.797   2.228  10.415  0.00  0.00    +0.000 OA
ATOM     13  H   UNL     1      10.419   2.239   9.668  0.00  0.00    +0.000 HD
ENDBRANCH  10  12
ENDBRANCH   9  10
ENDBRANCH   1   9
BRANCH   1  14
ATOM     14  C   UNL     1      12.650   0.093  10.809  0.00  0.00    +0.000 C 
BRANCH  14  15
ATOM     15  C   UNL     1      11.432  -0.843  10.621  0.00  0.00    +0.000 C 
ATOM     16  C   UNL     1      10.582  -0.980  11.879  0.00  0.00    +0.000 C 
BRANCH  15  17
ATOM     17  O   UNL     1      10.585  -0.400   9.562  0.00  0.00    +0.000 OA
ATOM     18  H   UNL     1       9.710  -0.263   9.978  0.00  0.00    +0.000 HD
ENDBRANCH  15  17
ENDBRANCH  14  15
ENDBRANCH   1  14
TORSDOF 7
ENDMDL
MODEL 6
REMARK VINA RESULT:    -5.639      3.188      5.932
REMARK INTER + INTRA:          -8.134
REMARK INTER:                  -7.517
REMARK INTRA:                  -0.617
REMARK UNBOUND:                -0.517
REMARK  Name = 
REMARK  10 active torsions:
REMARK  status: ('A' for Active; 'I' for Inactive)
REMARK    1  A    between atoms: C_1  and  C_2
REMARK    2  A    between atoms: C_5  and  N_8
REMARK    3  A    between atoms: N_8  and  C_9
REMARK    4  A    between atoms: N_8  and  C_13
REMARK    5  A    between atoms: C_9  and  C_10
REMARK    6  A    between atoms: C_10  and  C_11
REMARK    7  A    between atoms: C_10  and  O_12
REMARK    8  A    between atoms: C_13  and  C_14
REMARK    9  A    between atoms: C_14  and  C_15
REMARK   10  A    between atoms: C_14  and  O_16
REMARK                            x       y       z     vdW  Elec       q    Type
REMARK                         _______ _______ _______ _____ _____    ______ ____
ROOT
ATOM      1  N   UNL     1      12.000   1.755  10.747  0.00  0.00    +0.000 N 
ENDROOT
BRANCH   1   6
ATOM      2  C   UNL     1      14.108   2.907   5.498  0.00  0.00    +0.000 C 
ATOM      3  C   UNL     1      13.584   2.610   6.869  0.00  0.00    +0.000 A 
ATOM      4  C   UNL     1      13.447   1.299   7.313  0.00  0.00    +0.000 A 
ATOM      5  C   UNL     1      12.928   1.025   8.589  0.00  0.00    +0.000 A 
ATOM      6  C   UNL     1      12.500   2.035   9.469  0.00  0.00    +0.000 A 
ATOM      7  C   UNL     1      12.654   3.348   8.988  0.00  0.00    +0.000 A 
ATOM      8  C   UNL     1      13.175   3.636   7.716  0.00  0.00    +0.000 A 
ENDBRANCH   1   6
BRANCH   1   9
ATOM      9  C   UNL     1      11.816   2.851  11.729  0.00  0.00    +0.000 C 
BRANCH   9  10
ATOM     10  C   UNL     1      10.326   3.123  12.052  0.00  0.00    +0.000 C 
ATOM     11  C   UNL     1      10.076   4.613  12.255  0.00  0.00    +0.000 C 
BRANCH  10  12
ATOM     12  O   UNL     1       9.478   2.673  10.986  0.00  0.00    +0.000 OA
ATOM     13  H   UNL     1       8.733   2.188  11.379  0.00  0.00    +0.000 HD
ENDBRANCH  10  12
ENDBRANCH   9  10
ENDBRANCH   1   9
BRANCH   1  14
ATOM     14  C   UNL     1      12.122   0.399  11.341  0.00  0.00    +0.000 C 
BRANCH  14  15
ATOM     15  C   UNL     1      10.828  -0.432  11.169  0.00  0.00    +0.000 C 
ATOM     16  C   UNL     1      11.080  -1.935  11.135  0.00  0.00    +0.000 C 
BRANCH  15  17
ATOM     17  O   UNL     1       9.888  -0.165  12.208  0.00  0.00    +0.000 OA
ATOM     18  H   UNL     1       9.010  -0.275  11.790  0.00  0.00    +0.000 HD
ENDBRANCH  15  17
ENDBRANCH  14  15
ENDBRANCH   1  14
TORSDOF 7
ENDMDL
MODEL 7
REMARK VINA RESULT:    -5.586      2.743      5.792
REMARK INTER + INTRA:          -8.062
REMARK INTER:                  -7.701
REMARK INTRA:                  -0.362
REMARK UNBOUND:                -0.517
REMARK  Name = 
REMARK  10 active torsions:
REMARK  status: ('A' for Active; 'I' for Inactive)
REMARK    1  A    between atoms: C_1  and  C_2
REMARK    2  A    between atoms: C_5  and  N_8
REMARK    3  A    between atoms: N_8  and  C_9
REMARK    4  A    between atoms: N_8  and  C_13
REMARK    5  A    between atoms: C_9  and  C_10
REMARK    6  A    between atoms: C_10  and  C_11
REMARK    7  A    between atoms: C_10  and  O_12
REMARK    8  A    between atoms: C_13  and  C_14
REMARK    9  A    between atoms: C_14  and  C_15
REMARK   10  A    between atoms: C_14  and  O_16
REMARK                            x       y       z     vdW  Elec       q    Type
REMARK                         _______ _______ _______ _____ _____    ______ ____
ROOT
ATOM      1  N   UNL     1      12.443   1.204   9.477  0.00  0.00    +0.000 N 
ENDROOT
BRANCH   1   6
ATOM      2  C   UNL     1      10.559   0.540   4.060  0.00  0.00    +0.000 C 
ATOM      3  C   UNL     1      11.054   0.688   5.467  0.00  0.00    +0.000 A 
ATOM      4  C   UNL     1      10.191   0.537   6.547  0.00  0.00    +0.000 A 
ATOM      5  C   UNL     1      10.654   0.707   7.862  0.00  0.00    +0.000 A 
ATOM      6  C   UNL     1      11.984   1.055   8.162  0.00  0.00    +0.000 A 
ATOM      7  C   UNL     1      12.828   1.198   7.046  0.00  0.00    +0.000 A 
ATOM      8  C   UNL     1      12.378   1.029   5.726  0.00  0.00    +0.000 A 
ENDBRANCH   1   6
BRANCH   1   9
ATOM      9  C   UNL     1      13.891   1.089   9.776  0.00  0.00    +0.000 C 
BRANCH   9  10
ATOM     10  C   UNL     1      14.174   0.813  11.273  0.00  0.00    +0.000 C 
ATOM     11  C   UNL     1      15.153  -0.344  11.438  0.00  0.00    +0.000 C 
BRANCH  10  12
ATOM     12  O   UNL     1      14.739   1.967  11.911  0.00  0.00    +0.000 OA
ATOM     13  H   UNL     1      15.663   1.766  12.132  0.00  0.00    +0.000 HD
ENDBRANCH  10  12
ENDBRANCH   9  10
ENDBRANCH   1   9
BRANCH   1  14
ATOM     14  C   UNL     1      11.545   0.967  10.637  0.00  0.00    +0.000 C 
BRANCH  14  15
ATOM     15  C   UNL     1      10.889   2.274  11.144  0.00  0.00    +0.000 C 
ATOM     16  C   UNL     1      11.316   3.505  10.353  0.00  0.00    +0.000 C 
BRANCH  15  17
ATOM     17  O   UNL     1       9.465   2.198  11.109  0.00  0.00    +0.000 OA
ATOM     18  H   UNL     1       9.163   2.763  11.848  0.00  0.00    +0.000 HD
ENDBRANCH  15  17
ENDBRANCH  14  15
ENDBRANCH   1  14
TORSDOF 7
ENDMDL
MODEL 8
REMARK VINA RESULT:    -5.400      2.890      5.276
REMARK INTER + INTRA:          -7.811
REMARK INTER:                  -7.440
REMARK INTRA:                  -0.370
REMARK UNBOUND:                -0.517
REMARK  Name = 
REMARK  10 active torsions:
REMARK  status: ('A' for Active; 'I' for Inactive)
REMARK    1  A    between atoms: C_1  and  C_2
REMARK    2  A    between atoms: C_5  and  N_8
REMARK    3  A    between atoms: N_8  and  C_9
REMARK    4  A    between atoms: N_8  and  C_13
REMARK    5  A    between atoms: C_9  and  C_10
REMARK    6  A    between atoms: C_10  and  C_11
REMARK    7  A    between atoms: C_10  and  O_12
REMARK    8  A    between atoms: C_13  and  C_14
REMARK    9  A    between atoms: C_14  and  C_15
REMARK   10  A    between atoms: C_14  and  O_16
REMARK                            x       y       z     vdW  Elec       q    Type
REMARK                         _______ _______ _______ _____ _____    ______ ____
ROOT
ATOM      1  N   UNL     1      13.086   1.202   9.595  0.00  0.00    +0.000 N 
ENDROOT
BRANCH   1   6
ATOM      2  C   UNL     1      10.583   0.649   4.422  0.00  0.00    +0.000 C 
ATOM      3  C   UNL     1      11.239   0.768   5.764  0.00  0.00    +0.000 A 
ATOM      4  C   UNL     1      10.508   0.593   6.934  0.00  0.00    +0.000 A 
ATOM      5  C   UNL     1      11.121   0.735   8.189  0.00  0.00    +0.000 A 
ATOM      6  C   UNL     1      12.476   1.080   8.340  0.00  0.00    +0.000 A 
ATOM      7  C   UNL     1      13.185   1.248   7.136  0.00  0.00    +0.000 A 
ATOM      8  C   UNL     1      12.584   1.106   5.874  0.00  0.00    +0.000 A 
ENDBRANCH   1   6
BRANCH   1   9
ATOM      9  C   UNL     1      12.972   2.469  10.357  0.00  0.00    +0.000 C 
BRANCH   9  10
ATOM     10  C   UNL     1      11.781   2.469  11.346  0.00  0.00    +0.000 C 
ATOM     11  C   UNL     1      10.627   3.309  10.810  0.00  0.00    +0.000 C 
BRANCH  10  12
ATOM     12  O   UNL     1      11.295   1.137  11.567  0.00  0.00    +0.000 OA
ATOM     13  H   UNL     1      10.344   1.126  11.367  0.00  0.00    +0.000 HD
ENDBRANCH  10  12
ENDBRANCH   9  10
ENDBRANCH   1   9
BRANCH   1  14
ATOM     14  C   UNL     1      14.238   0.346   9.976  0.00  0.00    +0.000 C 
BRANCH  14  15
ATOM     15  C   UNL     1      14.665   0.562  11.448  0.00  0.00    +0.000 C 
ATOM     16  C   UNL     1      14.620  -0.715  12.279  0.00  0.00    +0.000 C 
BRANCH  15  17
ATOM     17  O   UNL     1      15.983   1.103  11.540  0.00  0.00    +0.000 OA
ATOM     18  H   UNL     1      15.897   1.876  12.134  0.00  0.00    +0.000 HD
ENDBRANCH  15  17
ENDBRANCH  14  15
ENDBRANCH   1  14
TORSDOF 7
ENDMDL
