MODEL 1
REMARK VINA RESULT:    -4.108      0.000      0.000
REMARK INTER + INTRA:          -5.965
REMARK INTER:                  -5.550
REMARK INTRA:                  -0.415
REMARK UNBOUND:                -0.415
REMARK  Name = 
REMARK  10 active torsions:
REMARK  status: ('A' for Active; 'I' for Inactive)
REMARK    1  A    between atoms: C_1  and  C_2
REMARK    2  A    between atoms: C_5  and  N_8
REMARK    3  A    between atoms: N_8  and  C_9
REMARK    4  A    between atoms: N_8  and  C_13
REMARK    5  A    between atoms: C_9  and  C_10
REMARK    6  A    between atoms: C_10  and  C_11
REMARK    7  A    between atoms: C_10  and  O_12
REMARK    8  A    between atoms: C_13  and  C_14
REMARK    9  A    between atoms: C_14  and  C_15
REMARK   10  A    between atoms: C_14  and  O_16
REMARK                            x       y       z     vdW  Elec       q    Type
REMARK                         _______ _______ _______ _____ _____    ______ ____
ROOT
ATOM      1  N   UNL     1       3.080  19.544  -3.087  0.00  0.00    +0.000 N 
ENDROOT
BRANCH   1   6
ATOM      2  C   UNL     1       8.438  19.574  -0.939  0.00  0.00    +0.000 C 
ATOM      3  C   UNL     1       7.054  19.549  -1.513  0.00  0.00    +0.000 A 
ATOM      4  C   UNL     1       6.687  20.423  -2.530  0.00  0.00    +0.000 A 
ATOM      5  C   UNL     1       5.380  20.416  -3.044  0.00  0.00    +0.000 A 
ATOM      6  C   UNL     1       4.376  19.559  -2.557  0.00  0.00    +0.000 A 
ATOM      7  C   UNL     1       4.783  18.688  -1.531  0.00  0.00    +0.000 A 
ATOM      8  C   UNL     1       6.087  18.683  -1.009  0.00  0.00    +0.000 A 
ENDBRANCH   1   6
BRANCH   1   9
ATOM      9  C   UNL     1       2.727  20.440  -4.215  0.00  0.00    +0.000 C 
BRANCH   9  10
ATOM     10  C   UNL     1       2.824  19.738  -5.592  0.00  0.00    +0.000 C 
ATOM     11  C   UNL     1       3.944  20.339  -6.432  0.00  0.00    +0.000 C 
BRANCH  10  12
ATOM     12  O   UNL     1       3.087  18.337  -5.438  0.00  0.00    +0.000 OA
ATOM     13  H   UNL     1       3.611  18.043  -6.201  0.00  0.00    +0.000 HD
ENDBRANCH  10  12
ENDBRANCH   9  10
ENDBRANCH   1   9
BRANCH   1  14
ATOM     14  C   UNL     1       1.925  19.070  -2.282  0.00  0.00    +0.000 C 
BRANCH  14  15
ATOM     15  C   UNL     1       0.778  20.108  -2.238  0.00  0.00    +0.000 C 
ATOM     16  C   UNL     1      -0.480  19.642  -2.962  0.00  0.00    +0.000 C 
BRANCH  15  17
ATOM     17  O   UNL     1       0.418  20.440  -0.898  0.00  0.00    +0.000 OA
ATOM     18  H   UNL     1       1.098  20.010  -0.340  0.00  0.00    +0.000 HD
ENDBRANCH  15  17
ENDBRANCH  14  15
ENDBRANCH   1  14
TORSDOF 7
ENDMDL
MODEL 2
REMARK VINA RESULT:    -4.098      1.358      3.518
REMARK INTER + INTRA:          -5.950
REMARK INTER:                  -5.763
REMARK INTRA:                  -0.187
REMARK UNBOUND:                -0.415
REMARK  Name = 
REMARK  10 active torsions:
REMARK  status: ('A' for Active; 'I' for Inactive)
REMARK    1  A    between atoms: C_1  and  C_2
REMARK    2  A    between atoms: C_5  and  N_8
REMARK    3  A    between atoms: N_8  and  C_9
REMARK    4  A    between atoms: N_8  and  C_13
REMARK    5  A    between atoms: C_9  and  C_10
REMARK    6  A    between atoms: C_10  and  C_11
REMARK    7  A    between atoms: C_10  and  O_12
REMARK    8  A    between atoms: C_13  and  C_14
REMARK    9  A    between atoms: C_14  and  C_15
REMARK   10  A    between atoms: C_14  and  O_16
REMARK                            x       y       z     vdW  Elec       q    Type
REMARK                         _______ _______ _______ _____ _____    ______ ____
ROOT
ATOM      1  N   UNL     1       2.735  20.398  -3.366  0.00  0.00    +0.000 N 
ENDROOT
BRANCH   1   6
ATOM      2  C   UNL     1       7.532  18.436  -0.822  0.00  0.00    +0.000 C 
ATOM      3  C   UNL     1       6.285  18.963  -1.465  0.00  0.00    +0.000 A 
ATOM      4  C   UNL     1       5.037  18.449  -1.130  0.00  0.00    +0.000 A 
ATOM      5  C   UNL     1       3.875  18.926  -1.757  0.00  0.00    +0.000 A 
ATOM      6  C   UNL     1       3.900  19.914  -2.758  0.00  0.00    +0.000 A 
ATOM      7  C   UNL     1       5.179  20.412  -3.070  0.00  0.00    +0.000 A 
ATOM      8  C   UNL     1       6.349  19.945  -2.449  0.00  0.00    +0.000 A 
ENDBRANCH   1   6
BRANCH   1   9
ATOM      9  C   UNL     1       1.452  20.395  -2.622  0.00  0.00    +0.000 C 
BRANCH   9  10
ATOM     10  C   UNL     1       0.618  19.115  -2.869  0.00  0.00    +0.000 C 
ATOM     11  C   UNL     1      -0.117  18.690  -1.604  0.00  0.00    +0.000 C 
BRANCH  10  12
ATOM     12  O   UNL     1      -0.357  19.327  -3.900  0.00  0.00    +0.000 OA
ATOM     13  H   UNL     1      -0.484  20.284  -4.002  0.00  0.00    +0.000 HD
ENDBRANCH  10  12
ENDBRANCH   9  10
ENDBRANCH   1   9
BRANCH   1  14
ATOM     14  C   UNL     1       2.599  20.440  -4.844  0.00  0.00    +0.000 C 
BRANCH  14  15
ATOM     15  C   UNL     1       3.431  19.335  -5.539  0.00  0.00    +0.000 C 
ATOM     16  C   UNL     1       2.670  18.025  -5.704  0.00  0.00    +0.000 C 
BRANCH  15  17
ATOM     17  O   UNL     1       3.884  19.748  -6.827  0.00  0.00    +0.000 OA
ATOM     18  H   UNL     1       4.834  19.950  -6.708  0.00  0.00    +0.000 HD
ENDBRANCH  15  17
ENDBRANCH  14  15
ENDBRANCH   1  14
TORSDOF 7
ENDMDL
MODEL 3
REMARK VINA RESULT:    -4.073      1.367      3.321
REMARK INTER + INTRA:          -5.916
REMARK INTER:                  -5.841
REMARK INTRA:                  -0.075
REMARK UNBOUND:                -0.415
REMARK  Name = 
REMARK  10 active torsions:
REMARK  status: ('A' for Active; 'I' for Inactive)
REMARK    1  A    between atoms: C_1  and  C_2
REMARK    2  A    between atoms: C_5  and  N_8
REMARK    3  A    between atoms: N_8  and  C_9
REMARK    4  A    between atoms: N_8  and  C_13
REMARK    5  A    between atoms: C_9  and  C_10
REMARK    6  A    between atoms: C_10  and  C_11
REMARK    7  A    between atoms: C_10  and  O_12
REMARK    8  A    between atoms: C_13  and  C_14
REMARK    9  A    between atoms: C_14  and  C_15
REMARK   10  A    between atoms: C_14  and  O_16
REMARK                            x       y       z     vdW  Elec       q    Type
REMARK                         _______ _______ _______ _____ _____    ______ ____
ROOT
ATOM      1  N   UNL     1       2.717  20.380  -3.337  0.00  0.00    +0.000 N 
ENDROOT
BRANCH   1   6
ATOM      2  C   UNL     1       7.519  18.415  -0.805  0.00  0.00    +0.000 C 
ATOM      3  C   UNL     1       6.275  18.907  -1.479  0.00  0.00    +0.000 A 
ATOM      4  C   UNL     1       6.336  19.880  -2.471  0.00  0.00    +0.000 A 
ATOM      5  C   UNL     1       5.164  20.359  -3.078  0.00  0.00    +0.000 A 
ATOM      6  C   UNL     1       3.881  19.912  -2.713  0.00  0.00    +0.000 A 
ATOM      7  C   UNL     1       3.857  18.927  -1.709  0.00  0.00    +0.000 A 
ATOM      8  C   UNL     1       5.021  18.438  -1.095  0.00  0.00    +0.000 A 
ENDBRANCH   1   6
BRANCH   1   9
ATOM      9  C   UNL     1       1.427  20.370  -2.606  0.00  0.00    +0.000 C 
BRANCH   9  10
ATOM     10  C   UNL     1       0.587  19.100  -2.886  0.00  0.00    +0.000 C 
ATOM     11  C   UNL     1      -0.268  18.734  -1.679  0.00  0.00    +0.000 C 
BRANCH  10  12
ATOM     12  O   UNL     1      -0.287  19.297  -4.006  0.00  0.00    +0.000 OA
ATOM     13  H   UNL     1       0.239  19.662  -4.738  0.00  0.00    +0.000 HD
ENDBRANCH  10  12
ENDBRANCH   9  10
ENDBRANCH   1   9
BRANCH   1  14
ATOM     14  C   UNL     1       2.596  20.407  -4.817  0.00  0.00    +0.000 C 
BRANCH  14  15
ATOM     15  C   UNL     1       3.467  19.323  -5.495  0.00  0.00    +0.000 C 
ATOM     16  C   UNL     1       2.723  18.013  -5.724  0.00  0.00    +0.000 C 
BRANCH  15  17
ATOM     17  O   UNL     1       3.978  19.766  -6.751  0.00  0.00    +0.000 OA
ATOM     18  H   UNL     1       4.477  19.003  -7.105  0.00  0.00    +0.000 HD
ENDBRANCH  15  17
ENDBRANCH  14  15
ENDBRANCH   1  14
TORSDOF 7
ENDMDL
MODEL 4
REMARK VINA RESULT:    -3.637     13.295     15.657
REMARK INTER + INTRA:          -5.328
REMARK INTER:                  -4.893
REMARK INTRA:                  -0.435
REMARK UNBOUND:                -0.415
REMARK  Name = 
REMARK  10 active torsions:
REMARK  status: ('A' for Active; 'I' for Inactive)
REMARK    1  A    between atoms: C_1  and  C_2
REMARK    2  A    between atoms: C_5  and  N_8
REMARK    3  A    between atoms: N_8  and  C_9
REMARK    4  A    between atoms: N_8  and  C_13
REMARK    5  A    between atoms: C_9  and  C_10
REMARK    6  A    between atoms: C_10  and  C_11
REMARK    7  A    between atoms: C_10  and  O_12
REMARK    8  A    between atoms: C_13  and  C_14
REMARK    9  A    between atoms: C_14  and  C_15
REMARK   10  A    between atoms: C_14  and  O_16
REMARK                            x       y       z     vdW  Elec       q    Type
REMARK                         _______ _______ _______ _____ _____    ______ ____
ROOT
ATOM      1  N   UNL     1      17.808  17.758   2.620  0.00  0.00    +0.000 N 
ENDROOT
BRANCH   1   6
ATOM      2  C   UNL     1      17.354  12.182   4.045  0.00  0.00    +0.000 C 
ATOM      3  C   UNL     1      17.463  13.624   3.652  0.00  0.00    +0.000 A 
ATOM      4  C   UNL     1      18.645  14.133   3.126  0.00  0.00    +0.000 A 
ATOM      5  C   UNL     1      18.752  15.492   2.787  0.00  0.00    +0.000 A 
ATOM      6  C   UNL     1      17.702  16.408   2.978  0.00  0.00    +0.000 A 
ATOM      7  C   UNL     1      16.521  15.858   3.510  0.00  0.00    +0.000 A 
ATOM      8  C   UNL     1      16.401  14.501   3.850  0.00  0.00    +0.000 A 
ENDBRANCH   1   6
BRANCH   1   9
ATOM      9  C   UNL     1      19.098  18.472   2.785  0.00  0.00    +0.000 C 
BRANCH   9  10
ATOM     10  C   UNL     1      19.798  18.766   1.436  0.00  0.00    +0.000 C 
ATOM     11  C   UNL     1      20.376  20.176   1.417  0.00  0.00    +0.000 C 
BRANCH  10  12
ATOM     12  O   UNL     1      20.870  17.843   1.200  0.00  0.00    +0.000 OA
ATOM     13  H   UNL     1      20.787  17.115   1.839  0.00  0.00    +0.000 HD
ENDBRANCH  10  12
ENDBRANCH   9  10
ENDBRANCH   1   9
BRANCH   1  14
ATOM     14  C   UNL     1      16.611  18.637   2.568  0.00  0.00    +0.000 C 
BRANCH  14  15
ATOM     15  C   UNL     1      16.144  18.901   1.116  0.00  0.00    +0.000 C 
ATOM     16  C   UNL     1      16.501  17.772   0.156  0.00  0.00    +0.000 C 
BRANCH  15  17
ATOM     17  O   UNL     1      14.735  19.112   1.046  0.00  0.00    +0.000 OA
ATOM     18  H   UNL     1      14.417  18.474   0.376  0.00  0.00    +0.000 HD
ENDBRANCH  15  17
ENDBRANCH  14  15
ENDBRANCH   1  14
TORSDOF 7
ENDMDL
MODEL 5
REMARK VINA RESULT:    -3.632     11.922     14.345
REMARK INTER + INTRA:          -5.321
REMARK INTER:                  -4.789
REMARK INTRA:                  -0.532
REMARK UNBOUND:                -0.415
REMARK  Name = 
REMARK  10 active torsions:
REMARK  status: ('A' for Active; 'I' for Inactive)
REMARK    1  A    between atoms: C_1  and  C_2
REMARK    2  A    between atoms: C_5  and  N_8
REMARK    3  A    between atoms: N_8  and  C_9
REMARK    4  A    between atoms: N_8  and  C_13
REMARK    5  A    between atoms: C_9  and  C_10
REMARK    6  A    between atoms: C_10  and  C_11
REMARK    7  A    between atoms: C_10  and  O_12
REMARK    8  A    between atoms: C_13  and  C_14
REMARK    9  A    between atoms: C_14  and  C_15
REMARK   10  A    between atoms: C_14  and  O_16
REMARK                            x       y       z     vdW  Elec       q    Type
REMARK                         _______ _______ _______ _____ _____    ______ ____
ROOT
ATOM      1  N   UNL     1      15.820  17.616   3.014  0.00  0.00    +0.000 N 
ENDROOT
BRANCH   1   6
ATOM      2  C   UNL     1      21.291  17.183   1.223  0.00  0.00    +0.000 C 
ATOM      3  C   UNL     1      19.867  17.272   1.679  0.00  0.00    +0.000 A 
ATOM      4  C   UNL     1      18.888  17.826   0.860  0.00  0.00    +0.000 A 
ATOM      5  C   UNL     1      17.560  17.935   1.304  0.00  0.00    +0.000 A 
ATOM      6  C   UNL     1      17.150  17.523   2.585  0.00  0.00    +0.000 A 
ATOM      7  C   UNL     1      18.165  16.966   3.385  0.00  0.00    +0.000 A 
ATOM      8  C   UNL     1      19.496  16.850   2.952  0.00  0.00    +0.000 A 
ENDBRANCH   1   6
BRANCH   1   9
ATOM      9  C   UNL     1      15.304  16.683   4.044  0.00  0.00    +0.000 C 
BRANCH   9  10
ATOM     10  C   UNL     1      14.917  15.301   3.462  0.00  0.00    +0.000 C 
ATOM     11  C   UNL     1      15.816  14.204   4.021  0.00  0.00    +0.000 C 
BRANCH  10  12
ATOM     12  O   UNL     1      13.559  14.969   3.782  0.00  0.00    +0.000 OA
ATOM     13  H   UNL     1      13.571  14.243   4.428  0.00  0.00    +0.000 HD
ENDBRANCH  10  12
ENDBRANCH   9  10
ENDBRANCH   1   9
BRANCH   1  14
ATOM     14  C   UNL     1      14.778  18.241   2.159  0.00  0.00    +0.000 C 
BRANCH  14  15
ATOM     15  C   UNL     1      13.772  19.080   2.982  0.00  0.00    +0.000 C 
ATOM     16  C   UNL     1      14.429  20.228   3.741  0.00  0.00    +0.000 C 
BRANCH  15  17
ATOM     17  O   UNL     1      12.743  19.627   2.159  0.00  0.00    +0.000 OA
ATOM     18  H   UNL     1      13.183  19.835   1.310  0.00  0.00    +0.000 HD
ENDBRANCH  15  17
ENDBRANCH  14  15
ENDBRANCH   1  14
TORSDOF 7
ENDMDL
MODEL 6
REMARK VINA RESULT:    -2.839     20.725     22.000
REMARK INTER + INTRA:          -4.250
REMARK INTER:                  -4.003
REMARK INTRA:                  -0.247
REMARK UNBOUND:                -0.415
REMARK  Name = 
REMARK  10 active torsions:
REMARK  status: ('A' for Active; 'I' for Inactive)
REMARK    1  A    between atoms: C_1  and  C_2
REMARK    2  A    between atoms: C_5  and  N_8
REMARK    3  A    between atoms: N_8  and  C_9
REMARK    4  A    between atoms: N_8  and  C_13
REMARK    5  A    between atoms: C_9  and  C_10
REMARK    6  A    between atoms: C_10  and  C_11
REMARK    7  A    between atoms: C_10  and  O_12
REMARK    8  A    between atoms: C_13  and  C_14
REMARK    9  A    between atoms: C_14  and  C_15
REMARK   10  A    between atoms: C_14  and  O_16
REMARK                            x       y       z     vdW  Elec       q    Type
REMARK                         _______ _______ _______ _____ _____    ______ ____
ROOT
ATOM      1  N   UNL     1      21.072  12.742 -15.079  0.00  0.00    +0.000 N 
ENDROOT
BRANCH   1   6
ATOM      2  C   UNL     1      21.500  18.130 -13.050  0.00  0.00    +0.000 C 
ATOM      3  C   UNL     1      21.414  16.730 -13.578  0.00  0.00    +0.000 A 
ATOM      4  C   UNL     1      21.305  16.487 -14.943  0.00  0.00    +0.000 A 
ATOM      5  C   UNL     1      21.194  15.174 -15.430  0.00  0.00    +0.000 A 
ATOM      6  C   UNL     1      21.163  14.050 -14.586  0.00  0.00    +0.000 A 
ATOM      7  C   UNL     1      21.277  14.333 -13.212  0.00  0.00    +0.000 A 
ATOM      8  C   UNL     1      21.391  15.641 -12.712  0.00  0.00    +0.000 A 
ENDBRANCH   1   6
BRANCH   1   9
ATOM      9  C   UNL     1      21.048  11.594 -14.142  0.00  0.00    +0.000 C 
BRANCH   9  10
ATOM     10  C   UNL     1      19.863  10.631 -14.401  0.00  0.00    +0.000 C 
ATOM     11  C   UNL     1      20.346   9.191 -14.517  0.00  0.00    +0.000 C 
BRANCH  10  12
ATOM     12  O   UNL     1      18.906  10.695 -13.334  0.00  0.00    +0.000 OA
ATOM     13  H   UNL     1      19.224  11.341 -12.682  0.00  0.00    +0.000 HD
ENDBRANCH  10  12
ENDBRANCH   9  10
ENDBRANCH   1   9
BRANCH   1  14
ATOM     14  C   UNL     1      21.501  12.411 -16.462  0.00  0.00    +0.000 C 
BRANCH  14  15
ATOM     15  C   UNL     1      20.311  12.381 -17.452  0.00  0.00    +0.000 C 
ATOM     16  C   UNL     1      19.944  10.974 -17.906  0.00  0.00    +0.000 C 
BRANCH  15  17
ATOM     17  O   UNL     1      19.145  12.983 -16.892  0.00  0.00    +0.000 OA
ATOM     18  H   UNL     1      19.473  13.767 -16.407  0.00  0.00    +0.000 HD
ENDBRANCH  15  17
ENDBRANCH  14  15
ENDBRANCH   1  14
TORSDOF 7
ENDMDL
MODEL 7
REMARK VINA RESULT:    -2.474     21.767     23.029
REMARK INTER + INTRA:          -3.757
REMARK INTER:                  -3.193
REMARK INTRA:                  -0.564
REMARK UNBOUND:                -0.415
REMARK  Name = 
REMARK  10 active torsions:
REMARK  status: ('A' for Active; 'I' for Inactive)
REMARK    1  A    between atoms: C_1  and  C_2
REMARK    2  A    between atoms: C_5  and  N_8
REMARK    3  A    between atoms: N_8  and  C_9
REMARK    4  A    between atoms: N_8  and  C_13
REMARK    5  A    between atoms: C_9  and  C_10
REMARK    6  A    between atoms: C_10  and  C_11
REMARK    7  A    between atoms: C_10  and  O_12
REMARK    8  A    between atoms: C_13  and  C_14
REMARK    9  A    between atoms: C_14  and  C_15
REMARK   10  A    between atoms: C_14  and  O_16
REMARK                            x       y       z     vdW  Elec       q    Type
REMARK                         _______ _______ _______ _____ _____    ______ ____
ROOT
ATOM      1  N   UNL     1      21.107  11.296 -16.038  0.00  0.00    +0.000 N 
ENDROOT
BRANCH   1   6
ATOM      2  C   UNL     1      21.500  17.028 -15.475  0.00  0.00    +0.000 C 
ATOM      3  C   UNL     1      21.374  15.543 -15.625  0.00  0.00    +0.000 A 
ATOM      4  C   UNL     1      21.181  14.727 -14.515  0.00  0.00    +0.000 A 
ATOM      5  C   UNL     1      21.093  13.332 -14.658  0.00  0.00    +0.000 A 
ATOM      6  C   UNL     1      21.215  12.685 -15.901  0.00  0.00    +0.000 A 
ATOM      7  C   UNL     1      21.407  13.541 -17.001  0.00  0.00    +0.000 A 
ATOM      8  C   UNL     1      21.495  14.937 -16.872  0.00  0.00    +0.000 A 
ENDBRANCH   1   6
BRANCH   1   9
ATOM      9  C   UNL     1      21.501  10.405 -14.920  0.00  0.00    +0.000 C 
BRANCH   9  10
ATOM     10  C   UNL     1      20.453   9.302 -14.634  0.00  0.00    +0.000 C 
ATOM     11  C   UNL     1      20.881   8.435 -13.456  0.00  0.00    +0.000 C 
BRANCH  10  12
ATOM     12  O   UNL     1      19.175   9.874 -14.324  0.00  0.00    +0.000 OA
ATOM     13  H   UNL     1      18.992   9.711 -13.384  0.00  0.00    +0.000 HD
ENDBRANCH  10  12
ENDBRANCH   9  10
ENDBRANCH   1   9
BRANCH   1  14
ATOM     14  C   UNL     1      21.107  10.653 -17.378  0.00  0.00    +0.000 C 
BRANCH  14  15
ATOM     15  C   UNL     1      19.678  10.305 -17.858  0.00  0.00    +0.000 C 
ATOM     16  C   UNL     1      19.425   8.805 -17.951  0.00  0.00    +0.000 C 
BRANCH  15  17
ATOM     17  O   UNL     1      18.683  10.870 -17.006  0.00  0.00    +0.000 OA
ATOM     18  H   UNL     1      18.402  10.135 -16.424  0.00  0.00    +0.000 HD
ENDBRANCH  15  17
ENDBRANCH  14  15
ENDBRANCH   1  14
TORSDOF 7
ENDMDL
MODEL 8
REMARK VINA RESULT:    -2.430     20.970     22.149
REMARK INTER + INTRA:          -3.698
REMARK INTER:                  -3.445
REMARK INTRA:                  -0.252
REMARK UNBOUND:                -0.415
REMARK  Name = 
REMARK  10 active torsions:
REMARK  status: ('A' for Active; 'I' for Inactive)
REMARK    1  A    between atoms: C_1  and  C_2
REMARK    2  A    between atoms: C_5  and  N_8
REMARK    3  A    between atoms: N_8  and  C_9
REMARK    4  A    between atoms: N_8  and  C_13
REMARK    5  A    between atoms: C_9  and  C_10
REMARK    6  A    between atoms: C_10  and  C_11
REMARK    7  A    between atoms: C_10  and  O_12
REMARK    8  A    between atoms: C_13  and  C_14
REMARK    9  A    between atoms: C_14  and  C_15
REMARK   10  A    between atoms: C_14  and  O_16
REMARK                            x       y       z     vdW  Elec       q    Type
REMARK                         _______ _______ _______ _____ _____    ______ ____
ROOT
ATOM      1  N   UNL     1      21.168  12.553 -14.816  0.00  0.00    +0.000 N 
ENDROOT
BRANCH   1   6
ATOM      2  C   UNL     1      21.501  18.227 -13.803  0.00  0.00    +0.000 C 
ATOM      3  C   UNL     1      21.389  16.757 -14.069  0.00  0.00    +0.000 A 
ATOM      4  C   UNL     1      21.227  15.852 -13.025  0.00  0.00    +0.000 A 
ATOM      5  C   UNL     1      21.154  14.473 -13.277  0.00  0.00    +0.000 A 
ATOM      6  C   UNL     1      21.261  13.929 -14.570  0.00  0.00    +0.000 A 
ATOM      7  C   UNL     1      21.422  14.872 -15.601  0.00  0.00    +0.000 A 
ATOM      8  C   UNL     1      21.495  16.254 -15.363  0.00  0.00    +0.000 A 
ENDBRANCH   1   6
BRANCH   1   9
ATOM      9  C   UNL     1      21.296  12.035 -16.200  0.00  0.00    +0.000 C 
BRANCH   9  10
ATOM     10  C   UNL     1      19.926  11.784 -16.875  0.00  0.00    +0.000 C 
ATOM     11  C   UNL     1      19.708  12.742 -18.041  0.00  0.00    +0.000 C 
BRANCH  10  12
ATOM     12  O   UNL     1      19.839  10.444 -17.380  0.00  0.00    +0.000 OA
ATOM     13  H   UNL     1      19.632   9.854 -16.636  0.00  0.00    +0.000 HD
ENDBRANCH  10  12
ENDBRANCH   9  10
ENDBRANCH   1   9
BRANCH   1  14
ATOM     14  C   UNL     1      20.457  11.650 -13.875  0.00  0.00    +0.000 C 
BRANCH  14  15
ATOM     15  C   UNL     1      20.666  10.157 -14.228  0.00  0.00    +0.000 C 
ATOM     16  C   UNL     1      21.501   9.408 -13.196  0.00  0.00    +0.000 C 
BRANCH  15  17
ATOM     17  O   UNL     1      19.423   9.471 -14.372  0.00  0.00    +0.000 OA
ATOM     18  H   UNL     1      18.738  10.153 -14.216  0.00  0.00    +0.000 HD
ENDBRANCH  15  17
ENDBRANCH  14  15
ENDBRANCH   1  14
TORSDOF 7
ENDMDL
