MODEL 1
REMARK VINA RESULT:    -3.941      0.000      0.000
REMARK INTER + INTRA:          -5.823
REMARK INTER:                  -5.324
REMARK INTRA:                  -0.499
REMARK UNBOUND:                -0.499
REMARK  Name = 
REMARK  10 active torsions:
REMARK  status: ('A' for Active; 'I' for Inactive)
REMARK    1  A    between atoms: C_1  and  C_2
REMARK    2  A    between atoms: C_5  and  N_8
REMARK    3  A    between atoms: N_8  and  C_9
REMARK    4  A    between atoms: N_8  and  C_13
REMARK    5  A    between atoms: C_9  and  C_10
REMARK    6  A    between atoms: C_10  and  C_11
REMARK    7  A    between atoms: C_10  and  O_12
REMARK    8  A    between atoms: C_13  and  C_14
REMARK    9  A    between atoms: C_14  and  C_15
REMARK   10  A    between atoms: C_14  and  O_16
REMARK                            x       y       z     vdW  Elec       q    Type
REMARK                         _______ _______ _______ _____ _____    ______ ____
ROOT
ATOM      1  N   UNL     1      16.532   7.487  17.185  0.00  0.00    +0.000 N 
ENDROOT
BRANCH   1   6
ATOM      2  C   UNL     1      16.892   5.683  22.657  0.00  0.00    +0.000 C 
ATOM      3  C   UNL     1      16.785   6.131  21.232  0.00  0.00    +0.000 A 
ATOM      4  C   UNL     1      17.741   5.760  20.292  0.00  0.00    +0.000 A 
ATOM      5  C   UNL     1      17.651   6.208  18.964  0.00  0.00    +0.000 A 
ATOM      6  C   UNL     1      16.626   7.060  18.515  0.00  0.00    +0.000 A 
ATOM      7  C   UNL     1      15.676   7.413  19.491  0.00  0.00    +0.000 A 
ATOM      8  C   UNL     1      15.752   6.970  20.822  0.00  0.00    +0.000 A 
ENDBRANCH   1   6
BRANCH   1   9
ATOM      9  C   UNL     1      15.202   7.672  16.556  0.00  0.00    +0.000 C 
BRANCH   9  10
ATOM     10  C   UNL     1      14.859   9.161  16.305  0.00  0.00    +0.000 C 
ATOM     11  C   UNL     1      14.819   9.467  14.812  0.00  0.00    +0.000 C 
BRANCH  10  12
ATOM     12  O   UNL     1      13.580   9.495  16.861  0.00  0.00    +0.000 OA
ATOM     13  H   UNL     1      12.912   8.926  16.444  0.00  0.00    +0.000 HD
ENDBRANCH  10  12
ENDBRANCH   9  10
ENDBRANCH   1   9
BRANCH   1  14
ATOM     14  C   UNL     1      17.651   7.280  16.230  0.00  0.00    +0.000 C 
BRANCH  14  15
ATOM     15  C   UNL     1      17.322   6.201  15.170  0.00  0.00    +0.000 C 
ATOM     16  C   UNL     1      18.382   6.088  14.081  0.00  0.00    +0.000 C 
BRANCH  15  17
ATOM     17  O   UNL     1      17.156   4.913  15.761  0.00  0.00    +0.000 OA
ATOM     18  H   UNL     1      17.951   4.787  16.317  0.00  0.00    +0.000 HD
ENDBRANCH  15  17
ENDBRANCH  14  15
ENDBRANCH   1  14
TORSDOF 7
ENDMDL
MODEL 2
REMARK VINA RESULT:    -3.880      1.587      3.556
REMARK INTER + INTRA:          -5.741
REMARK INTER:                  -5.222
REMARK INTRA:                  -0.519
REMARK UNBOUND:                -0.499
REMARK  Name = 
REMARK  10 active torsions:
REMARK  status: ('A' for Active; 'I' for Inactive)
REMARK    1  A    between atoms: C_1  and  C_2
REMARK    2  A    between atoms: C_5  and  N_8
REMARK    3  A    between atoms: N_8  and  C_9
REMARK    4  A    between atoms: N_8  and  C_13
REMARK    5  A    between atoms: C_9  and  C_10
REMARK    6  A    between atoms: C_10  and  C_11
REMARK    7  A    between atoms: C_10  and  O_12
REMARK    8  A    between atoms: C_13  and  C_14
REMARK    9  A    between atoms: C_14  and  C_15
REMARK   10  A    between atoms: C_14  and  O_16
REMARK                            x       y       z     vdW  Elec       q    Type
REMARK                         _______ _______ _______ _____ _____    ______ ____
ROOT
ATOM      1  N   UNL     1      16.949   7.068  18.451  0.00  0.00    +0.000 N 
ENDROOT
BRANCH   1   6
ATOM      2  C   UNL     1      15.723   6.725  24.082  0.00  0.00    +0.000 C 
ATOM      3  C   UNL     1      16.020   6.802  22.616  0.00  0.00    +0.000 A 
ATOM      4  C   UNL     1      16.766   5.813  21.985  0.00  0.00    +0.000 A 
ATOM      5  C   UNL     1      17.067   5.905  20.616  0.00  0.00    +0.000 A 
ATOM      6  C   UNL     1      16.662   6.992  19.820  0.00  0.00    +0.000 A 
ATOM      7  C   UNL     1      15.908   7.972  20.490  0.00  0.00    +0.000 A 
ATOM      8  C   UNL     1      15.598   7.891  21.858  0.00  0.00    +0.000 A 
ENDBRANCH   1   6
BRANCH   1   9
ATOM      9  C   UNL     1      18.134   6.367  17.900  0.00  0.00    +0.000 C 
BRANCH   9  10
ATOM     10  C   UNL     1      17.756   5.136  17.040  0.00  0.00    +0.000 C 
ATOM     11  C   UNL     1      18.440   5.191  15.679  0.00  0.00    +0.000 C 
BRANCH  10  12
ATOM     12  O   UNL     1      18.150   3.917  17.686  0.00  0.00    +0.000 OA
ATOM     13  H   UNL     1      17.878   3.969  18.618  0.00  0.00    +0.000 HD
ENDBRANCH  10  12
ENDBRANCH   9  10
ENDBRANCH   1   9
BRANCH   1  14
ATOM     14  C   UNL     1      16.448   8.194  17.622  0.00  0.00    +0.000 C 
BRANCH  14  15
ATOM     15  C   UNL     1      15.082   7.876  16.968  0.00  0.00    +0.000 C 
ATOM     16  C   UNL     1      14.184   9.099  16.830  0.00  0.00    +0.000 C 
BRANCH  15  17
ATOM     17  O   UNL     1      15.240   7.295  15.675  0.00  0.00    +0.000 OA
ATOM     18  H   UNL     1      15.990   7.776  15.271  0.00  0.00    +0.000 HD
ENDBRANCH  15  17
ENDBRANCH  14  15
ENDBRANCH   1  14
TORSDOF 7
ENDMDL
MODEL 3
REMARK VINA RESULT:    -3.865     17.216     18.718
REMARK INTER + INTRA:          -5.721
REMARK INTER:                  -5.192
REMARK INTRA:                  -0.529
REMARK UNBOUND:                -0.499
REMARK  Name = 
REMARK  10 active torsions:
REMARK  status: ('A' for Active; 'I' for Inactive)
REMARK    1  A    between atoms: C_1  and  C_2
REMARK    2  A    between atoms: C_5  and  N_8
REMARK    3  A    between atoms: N_8  and  C_9
REMARK    4  A    between atoms: N_8  and  C_13
REMARK    5  A    between atoms: C_9  and  C_10
REMARK    6  A    between atoms: C_10  and  C_11
REMARK    7  A    between atoms: C_10  and  O_12
REMARK    8  A    between atoms: C_13  and  C_14
REMARK    9  A    between atoms: C_14  and  C_15
REMARK   10  A    between atoms: C_14  and  O_16
REMARK                            x       y       z     vdW  Elec       q    Type
REMARK                         _______ _______ _______ _____ _____    ______ ____
ROOT
ATOM      1  N   UNL     1      15.499 -11.320  19.110  0.00  0.00    +0.000 N 
ENDROOT
BRANCH   1   6
ATOM      2  C   UNL     1      11.065 -10.552  15.494  0.00  0.00    +0.000 C 
ATOM      3  C   UNL     1      12.199 -10.760  16.450  0.00  0.00    +0.000 A 
ATOM      4  C   UNL     1      12.634  -9.729  17.276  0.00  0.00    +0.000 A 
ATOM      5  C   UNL     1      13.718  -9.920  18.149  0.00  0.00    +0.000 A 
ATOM      6  C   UNL     1      14.431 -11.130  18.223  0.00  0.00    +0.000 A 
ATOM      7  C   UNL     1      13.963 -12.150  17.375  0.00  0.00    +0.000 A 
ATOM      8  C   UNL     1      12.879 -11.973  16.499  0.00  0.00    +0.000 A 
ENDBRANCH   1   6
BRANCH   1   9
ATOM      9  C   UNL     1      15.434 -10.761  20.482  0.00  0.00    +0.000 C 
BRANCH   9  10
ATOM     10  C   UNL     1      16.580 -11.268  21.391  0.00  0.00    +0.000 C 
ATOM     11  C   UNL     1      17.258 -10.108  22.111  0.00  0.00    +0.000 C 
BRANCH  10  12
ATOM     12  O   UNL     1      16.087 -12.179  22.383  0.00  0.00    +0.000 OA
ATOM     13  H   UNL     1      15.846 -13.008  21.937  0.00  0.00    +0.000 HD
ENDBRANCH  10  12
ENDBRANCH   9  10
ENDBRANCH   1   9
BRANCH   1  14
ATOM     14  C   UNL     1      16.871 -11.598  18.613  0.00  0.00    +0.000 C 
BRANCH  14  15
ATOM     15  C   UNL     1      17.404 -10.464  17.705  0.00  0.00    +0.000 C 
ATOM     16  C   UNL     1      17.924  -9.264  18.487  0.00  0.00    +0.000 C 
BRANCH  15  17
ATOM     17  O   UNL     1      18.451 -10.922  16.851  0.00  0.00    +0.000 OA
ATOM     18  H   UNL     1      18.651 -10.162  16.267  0.00  0.00    +0.000 HD
ENDBRANCH  15  17
ENDBRANCH  14  15
ENDBRANCH   1  14
TORSDOF 7
ENDMDL
MODEL 4
REMARK VINA RESULT:    -3.664      1.496      1.978
REMARK INTER + INTRA:          -5.449
REMARK INTER:                  -4.879
REMARK INTRA:                  -0.570
REMARK UNBOUND:                -0.499
REMARK  Name = 
REMARK  10 active torsions:
REMARK  status: ('A' for Active; 'I' for Inactive)
REMARK    1  A    between atoms: C_1  and  C_2
REMARK    2  A    between atoms: C_5  and  N_8
REMARK    3  A    between atoms: N_8  and  C_9
REMARK    4  A    between atoms: N_8  and  C_13
REMARK    5  A    between atoms: C_9  and  C_10
REMARK    6  A    between atoms: C_10  and  C_11
REMARK    7  A    between atoms: C_10  and  O_12
REMARK    8  A    between atoms: C_13  and  C_14
REMARK    9  A    between atoms: C_14  and  C_15
REMARK   10  A    between atoms: C_14  and  O_16
REMARK                            x       y       z     vdW  Elec       q    Type
REMARK                         _______ _______ _______ _____ _____    ______ ____
ROOT
ATOM      1  N   UNL     1      16.802   7.030  18.184  0.00  0.00    +0.000 N 
ENDROOT
BRANCH   1   6
ATOM      2  C   UNL     1      15.649   7.033  23.840  0.00  0.00    +0.000 C 
ATOM      3  C   UNL     1      15.970   7.044  22.377  0.00  0.00    +0.000 A 
ATOM      4  C   UNL     1      15.548   8.088  21.561  0.00  0.00    +0.000 A 
ATOM      5  C   UNL     1      15.826   8.078  20.184  0.00  0.00    +0.000 A 
ATOM      6  C   UNL     1      16.511   7.024  19.554  0.00  0.00    +0.000 A 
ATOM      7  C   UNL     1      16.925   5.987  20.410  0.00  0.00    +0.000 A 
ATOM      8  C   UNL     1      16.655   5.985  21.788  0.00  0.00    +0.000 A 
ENDBRANCH   1   6
BRANCH   1   9
ATOM      9  C   UNL     1      15.710   7.187  17.193  0.00  0.00    +0.000 C 
BRANCH   9  10
ATOM     10  C   UNL     1      15.998   8.298  16.153  0.00  0.00    +0.000 C 
ATOM     11  C   UNL     1      15.856   7.765  14.733  0.00  0.00    +0.000 C 
BRANCH  10  12
ATOM     12  O   UNL     1      15.089   9.397  16.309  0.00  0.00    +0.000 OA
ATOM     13  H   UNL     1      14.958   9.804  15.436  0.00  0.00    +0.000 HD
ENDBRANCH  10  12
ENDBRANCH   9  10
ENDBRANCH   1   9
BRANCH   1  14
ATOM     14  C   UNL     1      18.036   6.393  17.656  0.00  0.00    +0.000 C 
BRANCH  14  15
ATOM     15  C   UNL     1      17.736   5.084  16.889  0.00  0.00    +0.000 C 
ATOM     16  C   UNL     1      18.350   5.052  15.494  0.00  0.00    +0.000 C 
BRANCH  15  17
ATOM     17  O   UNL     1      18.198   3.937  17.601  0.00  0.00    +0.000 OA
ATOM     18  H   UNL     1      18.498   4.281  18.467  0.00  0.00    +0.000 HD
ENDBRANCH  15  17
ENDBRANCH  14  15
ENDBRANCH   1  14
TORSDOF 7
ENDMDL
MODEL 5
REMARK VINA RESULT:    -3.579     16.973     17.988
REMARK INTER + INTRA:          -5.334
REMARK INTER:                  -5.054
REMARK INTRA:                  -0.281
REMARK UNBOUND:                -0.499
REMARK  Name = 
REMARK  10 active torsions:
REMARK  status: ('A' for Active; 'I' for Inactive)
REMARK    1  A    between atoms: C_1  and  C_2
REMARK    2  A    between atoms: C_5  and  N_8
REMARK    3  A    between atoms: N_8  and  C_9
REMARK    4  A    between atoms: N_8  and  C_13
REMARK    5  A    between atoms: C_9  and  C_10
REMARK    6  A    between atoms: C_10  and  C_11
REMARK    7  A    between atoms: C_10  and  O_12
REMARK    8  A    between atoms: C_13  and  C_14
REMARK    9  A    between atoms: C_14  and  C_15
REMARK   10  A    between atoms: C_14  and  O_16
REMARK                            x       y       z     vdW  Elec       q    Type
REMARK                         _______ _______ _______ _____ _____    ______ ____
ROOT
ATOM      1  N   UNL     1      15.575 -10.544  18.879  0.00  0.00    +0.000 N 
ENDROOT
BRANCH   1   6
ATOM      2  C   UNL     1      18.002 -11.326  24.059  0.00  0.00    +0.000 C 
ATOM      3  C   UNL     1      17.350 -11.125  22.725  0.00  0.00    +0.000 A 
ATOM      4  C   UNL     1      17.113 -12.202  21.877  0.00  0.00    +0.000 A 
ATOM      5  C   UNL     1      16.528 -12.004  20.615  0.00  0.00    +0.000 A 
ATOM      6  C   UNL     1      16.175 -10.732  20.131  0.00  0.00    +0.000 A 
ATOM      7  C   UNL     1      16.427  -9.667  21.016  0.00  0.00    +0.000 A 
ATOM      8  C   UNL     1      17.009  -9.851  22.281  0.00  0.00    +0.000 A 
ENDBRANCH   1   6
BRANCH   1   9
ATOM      9  C   UNL     1      14.499 -11.459  18.426  0.00  0.00    +0.000 C 
BRANCH   9  10
ATOM     10  C   UNL     1      13.181 -10.718  18.094  0.00  0.00    +0.000 C 
ATOM     11  C   UNL     1      12.733 -11.016  16.668  0.00  0.00    +0.000 C 
BRANCH  10  12
ATOM     12  O   UNL     1      12.128 -11.116  18.983  0.00  0.00    +0.000 OA
ATOM     13  H   UNL     1      12.534 -11.496  19.779  0.00  0.00    +0.000 HD
ENDBRANCH  10  12
ENDBRANCH   9  10
ENDBRANCH   1   9
BRANCH   1  14
ATOM     14  C   UNL     1      16.277  -9.819  17.790  0.00  0.00    +0.000 C 
BRANCH  14  15
ATOM     15  C   UNL     1      17.816  -9.865  17.955  0.00  0.00    +0.000 C 
ATOM     16  C   UNL     1      18.434 -11.164  17.451  0.00  0.00    +0.000 C 
BRANCH  15  17
ATOM     17  O   UNL     1      18.451  -8.782  17.278  0.00  0.00    +0.000 OA
ATOM     18  H   UNL     1      18.025  -7.976  17.635  0.00  0.00    +0.000 HD
ENDBRANCH  15  17
ENDBRANCH  14  15
ENDBRANCH   1  14
TORSDOF 7
ENDMDL
MODEL 6
REMARK VINA RESULT:    -3.476     16.918     18.291
REMARK INTER + INTRA:          -5.194
REMARK INTER:                  -4.707
REMARK INTRA:                  -0.487
REMARK UNBOUND:                -0.499
REMARK  Name = 
REMARK  10 active torsions:
REMARK  status: ('A' for Active; 'I' for Inactive)
REMARK    1  A    between atoms: C_1  and  C_2
REMARK    2  A    between atoms: C_5  and  N_8
REMARK    3  A    between atoms: N_8  and  C_9
REMARK    4  A    between atoms: N_8  and  C_13
REMARK    5  A    between atoms: C_9  and  C_10
REMARK    6  A    between atoms: C_10  and  C_11
REMARK    7  A    between atoms: C_10  and  O_12
REMARK    8  A    between atoms: C_13  and  C_14
REMARK    9  A    between atoms: C_14  and  C_15
REMARK   10  A    between atoms: C_14  and  O_16
REMARK                            x       y       z     vdW  Elec       q    Type
REMARK                         _______ _______ _______ _____ _____    ______ ____
ROOT
ATOM      1  N   UNL     1      15.766 -10.905  18.807  0.00  0.00    +0.000 N 
ENDROOT
BRANCH   1   6
ATOM      2  C   UNL     1      17.801 -11.742  24.144  0.00  0.00    +0.000 C 
ATOM      3  C   UNL     1      17.249 -11.528  22.768  0.00  0.00    +0.000 A 
ATOM      4  C   UNL     1      17.110 -12.590  21.881  0.00  0.00    +0.000 A 
ATOM      5  C   UNL     1      16.621 -12.379  20.581  0.00  0.00    +0.000 A 
ATOM      6  C   UNL     1      16.271 -11.106  20.098  0.00  0.00    +0.000 A 
ATOM      7  C   UNL     1      16.423 -10.056  21.022  0.00  0.00    +0.000 A 
ATOM      8  C   UNL     1      16.909 -10.253  22.325  0.00  0.00    +0.000 A 
ENDBRANCH   1   6
BRANCH   1   9
ATOM      9  C   UNL     1      16.042  -9.637  18.089  0.00  0.00    +0.000 C 
BRANCH   9  10
ATOM     10  C   UNL     1      17.421  -9.634  17.386  0.00  0.00    +0.000 C 
ATOM     11  C   UNL     1      18.451  -8.871  18.211  0.00  0.00    +0.000 C 
BRANCH  10  12
ATOM     12  O   UNL     1      17.906 -10.970  17.197  0.00  0.00    +0.000 OA
ATOM     13  H   UNL     1      18.195 -11.311  18.059  0.00  0.00    +0.000 HD
ENDBRANCH  10  12
ENDBRANCH   9  10
ENDBRANCH   1   9
BRANCH   1  14
ATOM     14  C   UNL     1      14.575 -11.650  18.323  0.00  0.00    +0.000 C 
BRANCH  14  15
ATOM     15  C   UNL     1      13.331 -10.739  18.187  0.00  0.00    +0.000 C 
ATOM     16  C   UNL     1      12.733 -10.746  16.786  0.00  0.00    +0.000 C 
BRANCH  15  17
ATOM     17  O   UNL     1      12.305 -11.106  19.108  0.00  0.00    +0.000 OA
ATOM     18  H   UNL     1      11.679 -11.647  18.586  0.00  0.00    +0.000 HD
ENDBRANCH  15  17
ENDBRANCH  14  15
ENDBRANCH   1  14
TORSDOF 7
ENDMDL
MODEL 7
REMARK VINA RESULT:    -3.458     17.115     18.579
REMARK INTER + INTRA:          -5.171
REMARK INTER:                  -4.619
REMARK INTRA:                  -0.551
REMARK UNBOUND:                -0.499
REMARK  Name = 
REMARK  10 active torsions:
REMARK  status: ('A' for Active; 'I' for Inactive)
REMARK    1  A    between atoms: C_1  and  C_2
REMARK    2  A    between atoms: C_5  and  N_8
REMARK    3  A    between atoms: N_8  and  C_9
REMARK    4  A    between atoms: N_8  and  C_13
REMARK    5  A    between atoms: C_9  and  C_10
REMARK    6  A    between atoms: C_10  and  C_11
REMARK    7  A    between atoms: C_10  and  O_12
REMARK    8  A    between atoms: C_13  and  C_14
REMARK    9  A    between atoms: C_14  and  C_15
REMARK   10  A    between atoms: C_14  and  O_16
REMARK                            x       y       z     vdW  Elec       q    Type
REMARK                         _______ _______ _______ _____ _____    ______ ____
ROOT
ATOM      1  N   UNL     1      15.892 -11.407  18.772  0.00  0.00    +0.000 N 
ENDROOT
BRANCH   1   6
ATOM      2  C   UNL     1      10.982 -10.406  15.905  0.00  0.00    +0.000 C 
ATOM      3  C   UNL     1      12.269 -10.659  16.629  0.00  0.00    +0.000 A 
ATOM      4  C   UNL     1      12.857 -11.919  16.622  0.00  0.00    +0.000 A 
ATOM      5  C   UNL     1      14.048 -12.158  17.328  0.00  0.00    +0.000 A 
ATOM      6  C   UNL     1      14.694 -11.167  18.087  0.00  0.00    +0.000 A 
ATOM      7  C   UNL     1      14.074  -9.904  18.069  0.00  0.00    +0.000 A 
ATOM      8  C   UNL     1      12.884  -9.651  17.367  0.00  0.00    +0.000 A 
ENDBRANCH   1   6
BRANCH   1   9
ATOM      9  C   UNL     1      17.193 -11.146  18.109  0.00  0.00    +0.000 C 
BRANCH   9  10
ATOM     10  C   UNL     1      17.895  -9.874  18.644  0.00  0.00    +0.000 C 
ATOM     11  C   UNL     1      18.451  -9.036  17.499  0.00  0.00    +0.000 C 
BRANCH  10  12
ATOM     12  O   UNL     1      16.982  -9.057  19.390  0.00  0.00    +0.000 OA
ATOM     13  H   UNL     1      16.086  -9.411  19.261  0.00  0.00    +0.000 HD
ENDBRANCH  10  12
ENDBRANCH   9  10
ENDBRANCH   1   9
BRANCH   1  14
ATOM     14  C   UNL     1      15.951 -12.363  19.907  0.00  0.00    +0.000 C 
BRANCH  14  15
ATOM     15  C   UNL     1      15.932 -11.645  21.278  0.00  0.00    +0.000 C 
ATOM     16  C   UNL     1      17.312 -11.539  21.917  0.00  0.00    +0.000 C 
BRANCH  15  17
ATOM     17  O   UNL     1      15.390 -10.329  21.177  0.00  0.00    +0.000 OA
ATOM     18  H   UNL     1      16.162  -9.732  21.243  0.00  0.00    +0.000 HD
ENDBRANCH  15  17
ENDBRANCH  14  15
ENDBRANCH   1  14
TORSDOF 7
ENDMDL
MODEL 8
REMARK VINA RESULT:    -3.049      1.335      2.931
REMARK INTER + INTRA:          -4.618
REMARK INTER:                  -4.377
REMARK INTRA:                  -0.241
REMARK UNBOUND:                -0.499
REMARK  Name = 
REMARK  10 active torsions:
REMARK  status: ('A' for Active; 'I' for Inactive)
REMARK    1  A    between atoms: C_1  and  C_2
REMARK    2  A    between atoms: C_5  and  N_8
REMARK    3  A    between atoms: N_8  and  C_9
REMARK    4  A    between atoms: N_8  and  C_13
REMARK    5  A    between atoms: C_9  and  C_10
REMARK    6  A    between atoms: C_10  and  C_11
REMARK    7  A    between atoms: C_10  and  O_12
REMARK    8  A    between atoms: C_13  and  C_14
REMARK    9  A    between atoms: C_14  and  C_15
REMARK   10  A    between atoms: C_14  and  O_16
REMARK                            x       y       z     vdW  Elec       q    Type
REMARK                         _______ _______ _______ _____ _____    ______ ____
ROOT
ATOM      1  N   UNL     1      17.157   8.006  16.878  0.00  0.00    +0.000 N 
ENDROOT
BRANCH   1   6
ATOM      2  C   UNL     1      16.566   5.566  22.077  0.00  0.00    +0.000 C 
ATOM      3  C   UNL     1      16.708   6.180  20.717  0.00  0.00    +0.000 A 
ATOM      4  C   UNL     1      17.841   5.951  19.945  0.00  0.00    +0.000 A 
ATOM      5  C   UNL     1      17.982   6.553  18.684  0.00  0.00    +0.000 A 
ATOM      6  C   UNL     1      17.019   7.425  18.144  0.00  0.00    +0.000 A 
ATOM      7  C   UNL     1      15.885   7.632  18.952  0.00  0.00    +0.000 A 
ATOM      8  C   UNL     1      15.731   7.034  20.214  0.00  0.00    +0.000 A 
ENDBRANCH   1   6
BRANCH   1   9
ATOM      9  C   UNL     1      18.450   7.921  16.158  0.00  0.00    +0.000 C 
BRANCH   9  10
ATOM     10  C   UNL     1      18.427   6.889  15.003  0.00  0.00    +0.000 C 
ATOM     11  C   UNL     1      17.837   5.564  15.469  0.00  0.00    +0.000 C 
BRANCH  10  12
ATOM     12  O   UNL     1      17.640   7.365  13.903  0.00  0.00    +0.000 OA
ATOM     13  H   UNL     1      17.141   6.613  13.542  0.00  0.00    +0.000 HD
ENDBRANCH  10  12
ENDBRANCH   9  10
ENDBRANCH   1   9
BRANCH   1  14
ATOM     14  C   UNL     1      16.270   9.114  16.440  0.00  0.00    +0.000 C 
BRANCH  14  15
ATOM     15  C   UNL     1      15.010   8.598  15.704  0.00  0.00    +0.000 C 
ATOM     16  C   UNL     1      14.787   9.271  14.354  0.00  0.00    +0.000 C 
BRANCH  15  17
ATOM     17  O   UNL     1      15.064   7.189  15.491  0.00  0.00    +0.000 OA
ATOM     18  H   UNL     1      14.530   6.803  16.215  0.00  0.00    +0.000 HD
ENDBRANCH  15  17
ENDBRANCH  14  15
ENDBRANCH   1  14
TORSDOF 7
ENDMDL
