MODEL 1
REMARK VINA RESULT:    -4.050      0.000      0.000
REMARK INTER + INTRA:          -4.443
REMARK INTER:                  -4.405
REMARK INTRA:                  -0.038
REMARK UNBOUND:                -0.038
REMARK  Name = 
REMARK  3 active torsions:
REMARK  status: ('A' for Active; 'I' for Inactive)
REMARK    1  A    between atoms: C_1  and  O_2
REMARK    2  A    between atoms: O_2  and  C_3
REMARK    3  A    between atoms: C_8  and  O_9
REMARK                            x       y       z     vdW  Elec       q    Type
REMARK                         _______ _______ _______ _____ _____    ______ ____
ROOT
ATOM      1  C   UNL     1      -6.252   8.146 -17.866  0.00  0.00    +0.000 A 
ATOM      2  C   UNL     1      -7.063   7.193 -18.482  0.00  0.00    +0.000 A 
ATOM      3  C   UNL     1      -7.488   6.068 -17.765  0.00  0.00    +0.000 A 
ATOM      4  C   UNL     1      -7.105   5.891 -16.434  0.00  0.00    +0.000 A 
ATOM      5  C   UNL     1      -6.296   6.838 -15.812  0.00  0.00    +0.000 A 
ATOM      6  C   UNL     1      -5.879   7.951 -16.531  0.00  0.00    +0.000 A 
ENDROOT
BRANCH   1   8
ATOM      7  C   UNL     1      -6.255   9.606 -19.741  0.00  0.00    +0.000 C 
ATOM      8  O   UNL     1      -5.763   9.290 -18.444  0.00  0.00    +0.000 OA
ENDBRANCH   1   8
BRANCH   6   9
ATOM      9  O   UNL     1      -5.084   8.869 -15.898  0.00  0.00    +0.000 OA
ATOM     10  H   UNL     1      -4.346   8.347 -15.529  0.00  0.00    +0.000 HD
ENDBRANCH   6   9
TORSDOF 2
ENDMDL
MODEL 2
REMARK VINA RESULT:    -3.855      2.377      3.074
REMARK INTER + INTRA:          -4.230
REMARK INTER:                  -4.180
REMARK INTRA:                  -0.050
REMARK UNBOUND:                -0.038
REMARK  Name = 
REMARK  3 active torsions:
REMARK  status: ('A' for Active; 'I' for Inactive)
REMARK    1  A    between atoms: C_1  and  O_2
REMARK    2  A    between atoms: O_2  and  C_3
REMARK    3  A    between atoms: C_8  and  O_9
REMARK                            x       y       z     vdW  Elec       q    Type
REMARK                         _______ _______ _______ _____ _____    ______ ____
ROOT
ATOM      1  C   UNL     1      -6.509   6.353 -18.315  0.00  0.00    +0.000 A 
ATOM      2  C   UNL     1      -6.055   7.637 -18.613  0.00  0.00    +0.000 A 
ATOM      3  C   UNL     1      -5.762   8.533 -17.577  0.00  0.00    +0.000 A 
ATOM      4  C   UNL     1      -5.923   8.151 -16.244  0.00  0.00    +0.000 A 
ATOM      5  C   UNL     1      -6.376   6.869 -15.939  0.00  0.00    +0.000 A 
ATOM      6  C   UNL     1      -6.664   5.988 -16.973  0.00  0.00    +0.000 A 
ENDROOT
BRANCH   1   8
ATOM      7  C   UNL     1      -5.836   5.044 -20.180  0.00  0.00    +0.000 C 
ATOM      8  O   UNL     1      -6.834   5.377 -19.223  0.00  0.00    +0.000 OA
ENDBRANCH   1   8
BRANCH   6   9
ATOM      9  O   UNL     1      -7.109   4.734 -16.648  0.00  0.00    +0.000 OA
ATOM     10  H   UNL     1      -7.930   4.620 -17.163  0.00  0.00    +0.000 HD
ENDBRANCH   6   9
TORSDOF 2
ENDMDL
MODEL 3
REMARK VINA RESULT:    -3.606      2.083      2.735
REMARK INTER + INTRA:          -3.960
REMARK INTER:                  -3.912
REMARK INTRA:                  -0.048
REMARK UNBOUND:                -0.038
REMARK  Name = 
REMARK  3 active torsions:
REMARK  status: ('A' for Active; 'I' for Inactive)
REMARK    1  A    between atoms: C_1  and  O_2
REMARK    2  A    between atoms: O_2  and  C_3
REMARK    3  A    between atoms: C_8  and  O_9
REMARK                            x       y       z     vdW  Elec       q    Type
REMARK                         _______ _______ _______ _____ _____    ______ ____
ROOT
ATOM      1  C   UNL     1      -5.366   6.871 -18.319  0.00  0.00    +0.000 A 
ATOM      2  C   UNL     1      -5.360   7.715 -17.209  0.00  0.00    +0.000 A 
ATOM      3  C   UNL     1      -6.167   7.422 -16.103  0.00  0.00    +0.000 A 
ATOM      4  C   UNL     1      -6.981   6.288 -16.101  0.00  0.00    +0.000 A 
ATOM      5  C   UNL     1      -6.992   5.439 -17.206  0.00  0.00    +0.000 A 
ATOM      6  C   UNL     1      -6.189   5.738 -18.299  0.00  0.00    +0.000 A 
ENDROOT
BRANCH   1   8
ATOM      7  C   UNL     1      -5.044   8.077 -20.341  0.00  0.00    +0.000 C 
ATOM      8  O   UNL     1      -4.632   7.034 -19.466  0.00  0.00    +0.000 OA
ENDBRANCH   1   8
BRANCH   6   9
ATOM      9  O   UNL     1      -6.217   4.889 -19.373  0.00  0.00    +0.000 OA
ATOM     10  H   UNL     1      -6.002   4.012 -19.002  0.00  0.00    +0.000 HD
ENDBRANCH   6   9
TORSDOF 2
ENDMDL
MODEL 4
REMARK VINA RESULT:    -3.458     23.586     23.945
REMARK INTER + INTRA:          -3.799
REMARK INTER:                  -3.759
REMARK INTRA:                  -0.040
REMARK UNBOUND:                -0.038
REMARK  Name = 
REMARK  3 active torsions:
REMARK  status: ('A' for Active; 'I' for Inactive)
REMARK    1  A    between atoms: C_1  and  O_2
REMARK    2  A    between atoms: O_2  and  C_3
REMARK    3  A    between atoms: C_8  and  O_9
REMARK                            x       y       z     vdW  Elec       q    Type
REMARK                         _______ _______ _______ _____ _____    ______ ____
ROOT
ATOM      1  C   UNL     1       7.813  20.302  -2.802  0.00  0.00    +0.000 A 
ATOM      2  C   UNL     1       9.120  19.876  -3.032  0.00  0.00    +0.000 A 
ATOM      3  C   UNL     1       9.621  18.757  -2.355  0.00  0.00    +0.000 A 
ATOM      4  C   UNL     1       8.819  18.062  -1.447  0.00  0.00    +0.000 A 
ATOM      5  C   UNL     1       7.512  18.482  -1.212  0.00  0.00    +0.000 A 
ATOM      6  C   UNL     1       7.024  19.593  -1.888  0.00  0.00    +0.000 A 
ENDROOT
BRANCH   1   8
ATOM      7  C   UNL     1       7.668  21.753  -4.679  0.00  0.00    +0.000 C 
ATOM      8  O   UNL     1       7.195  21.376  -3.391  0.00  0.00    +0.000 OA
ENDBRANCH   1   8
BRANCH   6   9
ATOM      9  O   UNL     1       5.736  19.987  -1.641  0.00  0.00    +0.000 OA
ATOM     10  H   UNL     1       5.462  19.465  -0.862  0.00  0.00    +0.000 HD
ENDBRANCH   6   9
TORSDOF 2
ENDMDL
MODEL 5
REMARK VINA RESULT:    -3.409     23.456     24.477
REMARK INTER + INTRA:          -3.745
REMARK INTER:                  -3.693
REMARK INTRA:                  -0.052
REMARK UNBOUND:                -0.038
REMARK  Name = 
REMARK  3 active torsions:
REMARK  status: ('A' for Active; 'I' for Inactive)
REMARK    1  A    between atoms: C_1  and  O_2
REMARK    2  A    between atoms: O_2  and  C_3
REMARK    3  A    between atoms: C_8  and  O_9
REMARK                            x       y       z     vdW  Elec       q    Type
REMARK                         _______ _______ _______ _____ _____    ______ ____
ROOT
ATOM      1  C   UNL     1       8.750  18.499  -1.831  0.00  0.00    +0.000 A 
ATOM      2  C   UNL     1       9.963  19.081  -2.195  0.00  0.00    +0.000 A 
ATOM      3  C   UNL     1       9.975  20.256  -2.957  0.00  0.00    +0.000 A 
ATOM      4  C   UNL     1       8.777  20.852  -3.357  0.00  0.00    +0.000 A 
ATOM      5  C   UNL     1       7.561  20.277  -2.996  0.00  0.00    +0.000 A 
ATOM      6  C   UNL     1       7.559  19.111  -2.241  0.00  0.00    +0.000 A 
ENDROOT
BRANCH   1   8
ATOM      7  C   UNL     1       9.064  17.392   0.249  0.00  0.00    +0.000 C 
ATOM      8  O   UNL     1       8.589  17.354  -1.092  0.00  0.00    +0.000 OA
ENDBRANCH   1   8
BRANCH   6   9
ATOM      9  O   UNL     1       6.351  18.564  -1.899  0.00  0.00    +0.000 OA
ATOM     10  H   UNL     1       6.178  18.888  -0.995  0.00  0.00    +0.000 HD
ENDBRANCH   6   9
TORSDOF 2
ENDMDL
MODEL 6
REMARK VINA RESULT:    -3.356     18.787     19.843
REMARK INTER + INTRA:          -3.688
REMARK INTER:                  -3.651
REMARK INTRA:                  -0.037
REMARK UNBOUND:                -0.038
REMARK  Name = 
REMARK  3 active torsions:
REMARK  status: ('A' for Active; 'I' for Inactive)
REMARK    1  A    between atoms: C_1  and  O_2
REMARK    2  A    between atoms: O_2  and  C_3
REMARK    3  A    between atoms: C_8  and  O_9
REMARK                            x       y       z     vdW  Elec       q    Type
REMARK                         _______ _______ _______ _____ _____    ______ ____
ROOT
ATOM      1  C   UNL     1      -0.789  21.196  -4.556  0.00  0.00    +0.000 A 
ATOM      2  C   UNL     1      -0.176  22.289  -3.946  0.00  0.00    +0.000 A 
ATOM      3  C   UNL     1       0.295  22.182  -2.631  0.00  0.00    +0.000 A 
ATOM      4  C   UNL     1       0.155  20.987  -1.923  0.00  0.00    +0.000 A 
ATOM      5  C   UNL     1      -0.456  19.890  -2.527  0.00  0.00    +0.000 A 
ATOM      6  C   UNL     1      -0.921  20.005  -3.831  0.00  0.00    +0.000 A 
ENDROOT
BRANCH   1   8
ATOM      7  C   UNL     1      -1.236  22.369  -6.574  0.00  0.00    +0.000 C 
ATOM      8  O   UNL     1      -1.296  21.157  -5.831  0.00  0.00    +0.000 OA
ENDBRANCH   1   8
BRANCH   6   9
ATOM      9  O   UNL     1      -1.518  18.914  -4.403  0.00  0.00    +0.000 OA
ATOM     10  H   UNL     1      -2.217  19.284  -4.976  0.00  0.00    +0.000 HD
ENDBRANCH   6   9
TORSDOF 2
ENDMDL
MODEL 7
REMARK VINA RESULT:    -3.305     23.618     24.572
REMARK INTER + INTRA:          -3.633
REMARK INTER:                  -3.582
REMARK INTRA:                  -0.050
REMARK UNBOUND:                -0.038
REMARK  Name = 
REMARK  3 active torsions:
REMARK  status: ('A' for Active; 'I' for Inactive)
REMARK    1  A    between atoms: C_1  and  O_2
REMARK    2  A    between atoms: O_2  and  C_3
REMARK    3  A    between atoms: C_8  and  O_9
REMARK                            x       y       z     vdW  Elec       q    Type
REMARK                         _______ _______ _______ _____ _____    ______ ____
ROOT
ATOM      1  C   UNL     1       8.548  18.763  -2.027  0.00  0.00    +0.000 A 
ATOM      2  C   UNL     1       9.886  19.155  -2.033  0.00  0.00    +0.000 A 
ATOM      3  C   UNL     1      10.759  18.678  -1.047  0.00  0.00    +0.000 A 
ATOM      4  C   UNL     1      10.300  17.811  -0.054  0.00  0.00    +0.000 A 
ATOM      5  C   UNL     1       8.965  17.414  -0.042  0.00  0.00    +0.000 A 
ATOM      6  C   UNL     1       8.106  17.892  -1.023  0.00  0.00    +0.000 A 
ENDROOT
BRANCH   1   8
ATOM      7  C   UNL     1       7.396  20.550  -3.088  0.00  0.00    +0.000 C 
ATOM      8  O   UNL     1       7.586  19.149  -2.925  0.00  0.00    +0.000 OA
ENDBRANCH   1   8
BRANCH   6   9
ATOM      9  O   UNL     1       6.798  17.488  -0.990  0.00  0.00    +0.000 OA
ATOM     10  H   UNL     1       6.705  16.883  -1.751  0.00  0.00    +0.000 HD
ENDBRANCH   6   9
TORSDOF 2
ENDMDL
MODEL 8
REMARK VINA RESULT:    -3.283      1.468      3.164
REMARK INTER + INTRA:          -3.608
REMARK INTER:                  -3.562
REMARK INTRA:                  -0.046
REMARK UNBOUND:                -0.038
REMARK  Name = 
REMARK  3 active torsions:
REMARK  status: ('A' for Active; 'I' for Inactive)
REMARK    1  A    between atoms: C_1  and  O_2
REMARK    2  A    between atoms: O_2  and  C_3
REMARK    3  A    between atoms: C_8  and  O_9
REMARK                            x       y       z     vdW  Elec       q    Type
REMARK                         _______ _______ _______ _____ _____    ______ ____
ROOT
ATOM      1  C   UNL     1      -6.218   6.887 -17.356  0.00  0.00    +0.000 A 
ATOM      2  C   UNL     1      -6.265   6.278 -18.610  0.00  0.00    +0.000 A 
ATOM      3  C   UNL     1      -6.041   7.037 -19.765  0.00  0.00    +0.000 A 
ATOM      4  C   UNL     1      -5.770   8.404 -19.673  0.00  0.00    +0.000 A 
ATOM      5  C   UNL     1      -5.722   9.019 -18.424  0.00  0.00    +0.000 A 
ATOM      6  C   UNL     1      -5.946   8.259 -17.284  0.00  0.00    +0.000 A 
ENDROOT
BRANCH   1   8
ATOM      7  C   UNL     1      -7.507   5.359 -16.072  0.00  0.00    +0.000 C 
ATOM      8  O   UNL     1      -6.418   6.271 -16.147  0.00  0.00    +0.000 OA
ENDBRANCH   1   8
BRANCH   6   9
ATOM      9  O   UNL     1      -5.893   8.886 -16.067  0.00  0.00    +0.000 OA
ATOM     10  H   UNL     1      -5.970   9.837 -16.275  0.00  0.00    +0.000 HD
ENDBRANCH   6   9
TORSDOF 2
ENDMDL
MODEL 9
REMARK VINA RESULT:    -3.226      2.549      3.464
REMARK INTER + INTRA:          -3.547
REMARK INTER:                  -3.495
REMARK INTRA:                  -0.052
REMARK UNBOUND:                -0.038
REMARK  Name = 
REMARK  3 active torsions:
REMARK  status: ('A' for Active; 'I' for Inactive)
REMARK    1  A    between atoms: C_1  and  O_2
REMARK    2  A    between atoms: O_2  and  C_3
REMARK    3  A    between atoms: C_8  and  O_9
REMARK                            x       y       z     vdW  Elec       q    Type
REMARK                         _______ _______ _______ _____ _____    ______ ____
ROOT
ATOM      1  C   UNL     1      -5.917   7.243 -18.424  0.00  0.00    +0.000 A 
ATOM      2  C   UNL     1      -5.301   7.967 -19.445  0.00  0.00    +0.000 A 
ATOM      3  C   UNL     1      -4.768   7.299 -20.554  0.00  0.00    +0.000 A 
ATOM      4  C   UNL     1      -4.846   5.908 -20.647  0.00  0.00    +0.000 A 
ATOM      5  C   UNL     1      -5.460   5.177 -19.632  0.00  0.00    +0.000 A 
ATOM      6  C   UNL     1      -5.986   5.849 -18.535  0.00  0.00    +0.000 A 
ENDROOT
BRANCH   1   8
ATOM      7  C   UNL     1      -5.607   8.472 -16.414  0.00  0.00    +0.000 C 
ATOM      8  O   UNL     1      -6.479   7.763 -17.286  0.00  0.00    +0.000 OA
ENDBRANCH   1   8
BRANCH   6   9
ATOM      9  O   UNL     1      -6.584   5.109 -17.550  0.00  0.00    +0.000 OA
ATOM     10  H   UNL     1      -5.951   5.126 -16.808  0.00  0.00    +0.000 HD
ENDBRANCH   6   9
TORSDOF 2
ENDMDL
