MODEL 1
REMARK VINA RESULT:    -4.095      0.000      0.000
REMARK INTER + INTRA:          -4.492
REMARK INTER:                  -4.454
REMARK INTRA:                  -0.038
REMARK UNBOUND:                -0.038
REMARK  Name = 
REMARK  3 active torsions:
REMARK  status: ('A' for Active; 'I' for Inactive)
REMARK    1  A    between atoms: C_1  and  O_2
REMARK    2  A    between atoms: O_2  and  C_3
REMARK    3  A    between atoms: C_8  and  O_9
REMARK                            x       y       z     vdW  Elec       q    Type
REMARK                         _______ _______ _______ _____ _____    ______ ____
ROOT
ATOM      1  C   UNL     1       2.639  11.802 -16.508  0.00  0.00    +0.000 A 
ATOM      2  C   UNL     1       1.680  11.363 -17.420  0.00  0.00    +0.000 A 
ATOM      3  C   UNL     1       0.628  10.544 -16.989  0.00  0.00    +0.000 A 
ATOM      4  C   UNL     1       0.532  10.162 -15.650  0.00  0.00    +0.000 A 
ATOM      5  C   UNL     1       1.486  10.598 -14.733  0.00  0.00    +0.000 A 
ATOM      6  C   UNL     1       2.525  11.409 -15.169  0.00  0.00    +0.000 A 
ENDROOT
BRANCH   1   8
ATOM      7  C   UNL     1       3.712  13.255 -18.052  0.00  0.00    +0.000 C 
ATOM      8  O   UNL     1       3.717  12.603 -16.788  0.00  0.00    +0.000 OA
ENDBRANCH   1   8
BRANCH   6   9
ATOM      9  O   UNL     1       3.451  11.824 -14.249  0.00  0.00    +0.000 OA
ATOM     10  H   UNL     1       3.498  11.097 -13.599  0.00  0.00    +0.000 HD
ENDBRANCH   6   9
TORSDOF 2
ENDMDL
MODEL 2
REMARK VINA RESULT:    -3.913     13.467     14.741
REMARK INTER + INTRA:          -4.295
REMARK INTER:                  -4.247
REMARK INTRA:                  -0.047
REMARK UNBOUND:                -0.038
REMARK  Name = 
REMARK  3 active torsions:
REMARK  status: ('A' for Active; 'I' for Inactive)
REMARK    1  A    between atoms: C_1  and  O_2
REMARK    2  A    between atoms: O_2  and  C_3
REMARK    3  A    between atoms: C_8  and  O_9
REMARK                            x       y       z     vdW  Elec       q    Type
REMARK                         _______ _______ _______ _____ _____    ______ ____
ROOT
ATOM      1  C   UNL     1       0.866  19.009  -3.495  0.00  0.00    +0.000 A 
ATOM      2  C   UNL     1       2.093  19.208  -2.863  0.00  0.00    +0.000 A 
ATOM      3  C   UNL     1       3.281  18.851  -3.513  0.00  0.00    +0.000 A 
ATOM      4  C   UNL     1       3.248  18.295  -4.793  0.00  0.00    +0.000 A 
ATOM      5  C   UNL     1       2.026  18.093  -5.431  0.00  0.00    +0.000 A 
ATOM      6  C   UNL     1       0.853  18.449  -4.779  0.00  0.00    +0.000 A 
ENDROOT
BRANCH   1   8
ATOM      7  C   UNL     1      -0.622  18.882  -1.647  0.00  0.00    +0.000 C 
ATOM      8  O   UNL     1      -0.370  19.309  -2.980  0.00  0.00    +0.000 OA
ENDBRANCH   1   8
BRANCH   6   9
ATOM      9  O   UNL     1      -0.336  18.242  -5.426  0.00  0.00    +0.000 OA
ATOM     10  H   UNL     1      -0.197  18.603  -6.322  0.00  0.00    +0.000 HD
ENDBRANCH   6   9
TORSDOF 2
ENDMDL
MODEL 3
REMARK VINA RESULT:    -3.797      2.287      3.136
REMARK INTER + INTRA:          -4.168
REMARK INTER:                  -4.143
REMARK INTRA:                  -0.026
REMARK UNBOUND:                -0.038
REMARK  Name = 
REMARK  3 active torsions:
REMARK  status: ('A' for Active; 'I' for Inactive)
REMARK    1  A    between atoms: C_1  and  O_2
REMARK    2  A    between atoms: O_2  and  C_3
REMARK    3  A    between atoms: C_8  and  O_9
REMARK                            x       y       z     vdW  Elec       q    Type
REMARK                         _______ _______ _______ _____ _____    ______ ____
ROOT
ATOM      1  C   UNL     1       0.796  11.317 -16.323  0.00  0.00    +0.000 A 
ATOM      2  C   UNL     1       1.967  11.946 -16.744  0.00  0.00    +0.000 A 
ATOM      3  C   UNL     1       3.135  11.833 -15.980  0.00  0.00    +0.000 A 
ATOM      4  C   UNL     1       3.138  11.094 -14.795  0.00  0.00    +0.000 A 
ATOM      5  C   UNL     1       1.972  10.462 -14.369  0.00  0.00    +0.000 A 
ATOM      6  C   UNL     1       0.818  10.580 -15.133  0.00  0.00    +0.000 A 
ENDROOT
BRANCH   1   8
ATOM      7  C   UNL     1      -0.560  10.469 -18.080  0.00  0.00    +0.000 C 
ATOM      8  O   UNL     1      -0.415  11.343 -16.967  0.00  0.00    +0.000 OA
ENDBRANCH   1   8
BRANCH   6   9
ATOM      9  O   UNL     1      -0.316   9.950 -14.693  0.00  0.00    +0.000 OA
ATOM     10  H   UNL     1      -0.669   9.494 -15.481  0.00  0.00    +0.000 HD
ENDBRANCH   6   9
TORSDOF 2
ENDMDL
MODEL 4
REMARK VINA RESULT:    -3.742     16.152     16.866
REMARK INTER + INTRA:          -4.108
REMARK INTER:                  -4.067
REMARK INTRA:                  -0.041
REMARK UNBOUND:                -0.038
REMARK  Name = 
REMARK  3 active torsions:
REMARK  status: ('A' for Active; 'I' for Inactive)
REMARK    1  A    between atoms: C_1  and  O_2
REMARK    2  A    between atoms: O_2  and  C_3
REMARK    3  A    between atoms: C_8  and  O_9
REMARK                            x       y       z     vdW  Elec       q    Type
REMARK                         _______ _______ _______ _____ _____    ______ ____
ROOT
ATOM      1  C   UNL     1       6.449  19.374  -1.768  0.00  0.00    +0.000 A 
ATOM      2  C   UNL     1       6.202  20.172  -2.884  0.00  0.00    +0.000 A 
ATOM      3  C   UNL     1       4.906  20.262  -3.408  0.00  0.00    +0.000 A 
ATOM      4  C   UNL     1       3.855  19.556  -2.820  0.00  0.00    +0.000 A 
ATOM      5  C   UNL     1       4.093  18.757  -1.704  0.00  0.00    +0.000 A 
ATOM      6  C   UNL     1       5.382  18.673  -1.192  0.00  0.00    +0.000 A 
ENDROOT
BRANCH   1   8
ATOM      7  C   UNL     1       8.577  20.278  -1.222  0.00  0.00    +0.000 C 
ATOM      8  O   UNL     1       7.661  19.192  -1.153  0.00  0.00    +0.000 OA
ENDBRANCH   1   8
BRANCH   6   9
ATOM      9  O   UNL     1       5.591  17.881  -0.095  0.00  0.00    +0.000 OA
ATOM     10  H   UNL     1       5.323  16.986  -0.380  0.00  0.00    +0.000 HD
ENDBRANCH   6   9
TORSDOF 2
ENDMDL
MODEL 5
REMARK VINA RESULT:    -3.737     13.753     14.892
REMARK INTER + INTRA:          -4.103
REMARK INTER:                  -4.053
REMARK INTRA:                  -0.050
REMARK UNBOUND:                -0.038
REMARK  Name = 
REMARK  3 active torsions:
REMARK  status: ('A' for Active; 'I' for Inactive)
REMARK    1  A    between atoms: C_1  and  O_2
REMARK    2  A    between atoms: O_2  and  C_3
REMARK    3  A    between atoms: C_8  and  O_9
REMARK                            x       y       z     vdW  Elec       q    Type
REMARK                         _______ _______ _______ _____ _____    ______ ____
ROOT
ATOM      1  C   UNL     1       2.353  18.477  -2.745  0.00  0.00    +0.000 A 
ATOM      2  C   UNL     1       1.209  19.150  -2.319  0.00  0.00    +0.000 A 
ATOM      3  C   UNL     1       0.160  19.386  -3.217  0.00  0.00    +0.000 A 
ATOM      4  C   UNL     1       0.251  18.951  -4.540  0.00  0.00    +0.000 A 
ATOM      5  C   UNL     1       1.391  18.277  -4.974  0.00  0.00    +0.000 A 
ATOM      6  C   UNL     1       2.426  18.048  -4.076  0.00  0.00    +0.000 A 
ENDROOT
BRANCH   1   8
ATOM      7  C   UNL     1       4.287  19.271  -1.616  0.00  0.00    +0.000 C 
ATOM      8  O   UNL     1       3.451  18.179  -1.979  0.00  0.00    +0.000 OA
ENDBRANCH   1   8
BRANCH   6   9
ATOM      9  O   UNL     1       3.536  17.384  -4.525  0.00  0.00    +0.000 OA
ATOM     10  H   UNL     1       3.730  16.727  -3.830  0.00  0.00    +0.000 HD
ENDBRANCH   6   9
TORSDOF 2
ENDMDL
MODEL 6
REMARK VINA RESULT:    -3.711     13.511     14.775
REMARK INTER + INTRA:          -4.075
REMARK INTER:                  -4.034
REMARK INTRA:                  -0.041
REMARK UNBOUND:                -0.038
REMARK  Name = 
REMARK  3 active torsions:
REMARK  status: ('A' for Active; 'I' for Inactive)
REMARK    1  A    between atoms: C_1  and  O_2
REMARK    2  A    between atoms: O_2  and  C_3
REMARK    3  A    between atoms: C_8  and  O_9
REMARK                            x       y       z     vdW  Elec       q    Type
REMARK                         _______ _______ _______ _____ _____    ______ ____
ROOT
ATOM      1  C   UNL     1       3.891  18.959  -3.320  0.00  0.00    +0.000 A 
ATOM      2  C   UNL     1       4.569  20.090  -3.772  0.00  0.00    +0.000 A 
ATOM      3  C   UNL     1       4.519  20.440  -5.127  0.00  0.00    +0.000 A 
ATOM      4  C   UNL     1       3.794  19.663  -6.033  0.00  0.00    +0.000 A 
ATOM      5  C   UNL     1       3.114  18.532  -5.589  0.00  0.00    +0.000 A 
ATOM      6  C   UNL     1       3.169  18.192  -4.243  0.00  0.00    +0.000 A 
ENDROOT
BRANCH   1   8
ATOM      7  C   UNL     1       4.992  18.774  -1.222  0.00  0.00    +0.000 C 
ATOM      8  O   UNL     1       3.853  18.498  -2.028  0.00  0.00    +0.000 OA
ENDBRANCH   1   8
BRANCH   6   9
ATOM      9  O   UNL     1       2.492  17.075  -3.830  0.00  0.00    +0.000 OA
ATOM     10  H   UNL     1       2.466  17.147  -2.857  0.00  0.00    +0.000 HD
ENDBRANCH   6   9
TORSDOF 2
ENDMDL
MODEL 7
REMARK VINA RESULT:    -3.676     13.909     14.983
REMARK INTER + INTRA:          -4.036
REMARK INTER:                  -3.984
REMARK INTRA:                  -0.052
REMARK UNBOUND:                -0.038
REMARK  Name = 
REMARK  3 active torsions:
REMARK  status: ('A' for Active; 'I' for Inactive)
REMARK    1  A    between atoms: C_1  and  O_2
REMARK    2  A    between atoms: O_2  and  C_3
REMARK    3  A    between atoms: C_8  and  O_9
REMARK                            x       y       z     vdW  Elec       q    Type
REMARK                         _______ _______ _______ _____ _____    ______ ____
ROOT
ATOM      1  C   UNL     1       2.527  18.423  -2.944  0.00  0.00    +0.000 A 
ATOM      2  C   UNL     1       2.797  17.956  -4.229  0.00  0.00    +0.000 A 
ATOM      3  C   UNL     1       1.822  18.055  -5.229  0.00  0.00    +0.000 A 
ATOM      4  C   UNL     1       0.576  18.620  -4.949  0.00  0.00    +0.000 A 
ATOM      5  C   UNL     1       0.299  19.089  -3.668  0.00  0.00    +0.000 A 
ATOM      6  C   UNL     1       1.272  18.986  -2.682  0.00  0.00    +0.000 A 
ENDROOT
BRANCH   1   8
ATOM      7  C   UNL     1       4.521  19.239  -1.942  0.00  0.00    +0.000 C 
ATOM      8  O   UNL     1       3.383  18.389  -1.872  0.00  0.00    +0.000 OA
ENDBRANCH   1   8
BRANCH   6   9
ATOM      9  O   UNL     1       0.976  19.454  -1.429  0.00  0.00    +0.000 OA
ATOM     10  H   UNL     1       1.331  20.364  -1.414  0.00  0.00    +0.000 HD
ENDBRANCH   6   9
TORSDOF 2
ENDMDL
MODEL 8
REMARK VINA RESULT:    -3.674     22.654     23.690
REMARK INTER + INTRA:          -4.034
REMARK INTER:                  -3.994
REMARK INTRA:                  -0.040
REMARK UNBOUND:                -0.038
REMARK  Name = 
REMARK  3 active torsions:
REMARK  status: ('A' for Active; 'I' for Inactive)
REMARK    1  A    between atoms: C_1  and  O_2
REMARK    2  A    between atoms: O_2  and  C_3
REMARK    3  A    between atoms: C_8  and  O_9
REMARK                            x       y       z     vdW  Elec       q    Type
REMARK                         _______ _______ _______ _____ _____    ______ ____
ROOT
ATOM      1  C   UNL     1      15.757  18.001   1.925  0.00  0.00    +0.000 A 
ATOM      2  C   UNL     1      16.285  17.497   3.113  0.00  0.00    +0.000 A 
ATOM      3  C   UNL     1      17.350  16.587   3.075  0.00  0.00    +0.000 A 
ATOM      4  C   UNL     1      17.888  16.179   1.853  0.00  0.00    +0.000 A 
ATOM      5  C   UNL     1      17.366  16.678   0.662  0.00  0.00    +0.000 A 
ATOM      6  C   UNL     1      16.311  17.580   0.710  0.00  0.00    +0.000 A 
ENDROOT
BRANCH   1   8
ATOM      7  C   UNL     1      13.774  18.902   2.874  0.00  0.00    +0.000 C 
ATOM      8  O   UNL     1      14.721  18.893   1.812  0.00  0.00    +0.000 OA
ENDBRANCH   1   8
BRANCH   6   9
ATOM      9  O   UNL     1      15.815  18.057  -0.474  0.00  0.00    +0.000 OA
ATOM     10  H   UNL     1      16.140  18.976  -0.528  0.00  0.00    +0.000 HD
ENDBRANCH   6   9
TORSDOF 2
ENDMDL
MODEL 9
REMARK VINA RESULT:    -3.579     13.374     14.464
REMARK INTER + INTRA:          -3.930
REMARK INTER:                  -3.891
REMARK INTRA:                  -0.039
REMARK UNBOUND:                -0.038
REMARK  Name = 
REMARK  3 active torsions:
REMARK  status: ('A' for Active; 'I' for Inactive)
REMARK    1  A    between atoms: C_1  and  O_2
REMARK    2  A    between atoms: O_2  and  C_3
REMARK    3  A    between atoms: C_8  and  O_9
REMARK                            x       y       z     vdW  Elec       q    Type
REMARK                         _______ _______ _______ _____ _____    ______ ____
ROOT
ATOM      1  C   UNL     1       4.104  19.521  -4.004  0.00  0.00    +0.000 A 
ATOM      2  C   UNL     1       3.602  18.886  -2.869  0.00  0.00    +0.000 A 
ATOM      3  C   UNL     1       2.504  18.024  -2.978  0.00  0.00    +0.000 A 
ATOM      4  C   UNL     1       1.904  17.794  -4.217  0.00  0.00    +0.000 A 
ATOM      5  C   UNL     1       2.400  18.425  -5.356  0.00  0.00    +0.000 A 
ATOM      6  C   UNL     1       3.489  19.278  -5.239  0.00  0.00    +0.000 A 
ENDROOT
BRANCH   1   8
ATOM      7  C   UNL     1       6.106  20.290  -2.982  0.00  0.00    +0.000 C 
ATOM      8  O   UNL     1       5.167  20.387  -4.046  0.00  0.00    +0.000 OA
ENDBRANCH   1   8
BRANCH   6   9
ATOM      9  O   UNL     1       3.959  19.887  -6.372  0.00  0.00    +0.000 OA
ATOM     10  H   UNL     1       3.165  20.261  -6.800  0.00  0.00    +0.000 HD
ENDBRANCH   6   9
TORSDOF 2
ENDMDL
