MODEL 1
REMARK VINA RESULT:    -3.822      0.000      0.000
REMARK INTER + INTRA:          -4.195
REMARK INTER:                  -4.157
REMARK INTRA:                  -0.038
REMARK UNBOUND:                -0.038
REMARK  Name = 
REMARK  3 active torsions:
REMARK  status: ('A' for Active; 'I' for Inactive)
REMARK    1  A    between atoms: C_1  and  O_2
REMARK    2  A    between atoms: O_2  and  C_3
REMARK    3  A    between atoms: C_8  and  O_9
REMARK                            x       y       z     vdW  Elec       q    Type
REMARK                         _______ _______ _______ _____ _____    ______ ____
ROOT
ATOM      1  C   UNL     1      -4.283  11.786  -4.863  0.00  0.00    +0.000 A 
ATOM      2  C   UNL     1      -5.024  12.917  -5.205  0.00  0.00    +0.000 A 
ATOM      3  C   UNL     1      -5.417  13.120  -6.533  0.00  0.00    +0.000 A 
ATOM      4  C   UNL     1      -5.073  12.197  -7.523  0.00  0.00    +0.000 A 
ATOM      5  C   UNL     1      -4.334  11.065  -7.189  0.00  0.00    +0.000 A 
ATOM      6  C   UNL     1      -3.948  10.871  -5.869  0.00  0.00    +0.000 A 
ENDROOT
BRANCH   1   8
ATOM      7  C   UNL     1      -3.909  12.482  -2.622  0.00  0.00    +0.000 C 
ATOM      8  O   UNL     1      -3.832  11.461  -3.609  0.00  0.00    +0.000 OA
ENDBRANCH   1   8
BRANCH   6   9
ATOM      9  O   UNL     1      -3.222   9.751  -5.565  0.00  0.00    +0.000 OA
ATOM     10  H   UNL     1      -2.654   9.603  -6.345  0.00  0.00    +0.000 HD
ENDBRANCH   6   9
TORSDOF 2
ENDMDL
MODEL 2
REMARK VINA RESULT:    -3.764      1.780      2.411
REMARK INTER + INTRA:          -4.132
REMARK INTER:                  -4.080
REMARK INTRA:                  -0.052
REMARK UNBOUND:                -0.038
REMARK  Name = 
REMARK  3 active torsions:
REMARK  status: ('A' for Active; 'I' for Inactive)
REMARK    1  A    between atoms: C_1  and  O_2
REMARK    2  A    between atoms: O_2  and  C_3
REMARK    3  A    between atoms: C_8  and  O_9
REMARK                            x       y       z     vdW  Elec       q    Type
REMARK                         _______ _______ _______ _____ _____    ______ ____
ROOT
ATOM      1  C   UNL     1      -4.903  11.609  -6.863  0.00  0.00    +0.000 A 
ATOM      2  C   UNL     1      -4.689  12.891  -7.368  0.00  0.00    +0.000 A 
ATOM      3  C   UNL     1      -5.562  13.419  -8.328  0.00  0.00    +0.000 A 
ATOM      4  C   UNL     1      -6.648  12.670  -8.786  0.00  0.00    +0.000 A 
ATOM      5  C   UNL     1      -6.868  11.389  -8.285  0.00  0.00    +0.000 A 
ATOM      6  C   UNL     1      -5.998  10.873  -7.333  0.00  0.00    +0.000 A 
ENDROOT
BRANCH   1   8
ATOM      7  C   UNL     1      -4.049  11.583  -4.645  0.00  0.00    +0.000 C 
ATOM      8  O   UNL     1      -4.134  10.968  -5.925  0.00  0.00    +0.000 OA
ENDBRANCH   1   8
BRANCH   6   9
ATOM      9  O   UNL     1      -6.235   9.612  -6.856  0.00  0.00    +0.000 OA
ATOM     10  H   UNL     1      -5.385   9.143  -6.959  0.00  0.00    +0.000 HD
ENDBRANCH   6   9
TORSDOF 2
ENDMDL
MODEL 3
REMARK VINA RESULT:    -3.685      3.433      6.198
REMARK INTER + INTRA:          -4.046
REMARK INTER:                  -4.009
REMARK INTRA:                  -0.038
REMARK UNBOUND:                -0.038
REMARK  Name = 
REMARK  3 active torsions:
REMARK  status: ('A' for Active; 'I' for Inactive)
REMARK    1  A    between atoms: C_1  and  O_2
REMARK    2  A    between atoms: O_2  and  C_3
REMARK    3  A    between atoms: C_8  and  O_9
REMARK                            x       y       z     vdW  Elec       q    Type
REMARK                         _______ _______ _______ _____ _____    ______ ____
ROOT
ATOM      1  C   UNL     1      -4.684  13.788  -1.305  0.00  0.00    +0.000 A 
ATOM      2  C   UNL     1      -3.484  14.494  -1.385  0.00  0.00    +0.000 A 
ATOM      3  C   UNL     1      -3.222  15.534  -0.483  0.00  0.00    +0.000 A 
ATOM      4  C   UNL     1      -4.157  15.872   0.497  0.00  0.00    +0.000 A 
ATOM      5  C   UNL     1      -5.358  15.171   0.583  0.00  0.00    +0.000 A 
ATOM      6  C   UNL     1      -5.609  14.142  -0.315  0.00  0.00    +0.000 A 
ENDROOT
BRANCH   1   8
ATOM      7  C   UNL     1      -4.111  12.294  -3.062  0.00  0.00    +0.000 C 
ATOM      8  O   UNL     1      -5.071  12.753  -2.118  0.00  0.00    +0.000 OA
ENDBRANCH   1   8
BRANCH   6   9
ATOM      9  O   UNL     1      -6.796  13.468  -0.211  0.00  0.00    +0.000 OA
ATOM     10  H   UNL     1      -6.569  12.536  -0.392  0.00  0.00    +0.000 HD
ENDBRANCH   6   9
TORSDOF 2
ENDMDL
MODEL 4
REMARK VINA RESULT:    -3.669      2.170      3.242
REMARK INTER + INTRA:          -4.028
REMARK INTER:                  -3.976
REMARK INTRA:                  -0.053
REMARK UNBOUND:                -0.038
REMARK  Name = 
REMARK  3 active torsions:
REMARK  status: ('A' for Active; 'I' for Inactive)
REMARK    1  A    between atoms: C_1  and  O_2
REMARK    2  A    between atoms: O_2  and  C_3
REMARK    3  A    between atoms: C_8  and  O_9
REMARK                            x       y       z     vdW  Elec       q    Type
REMARK                         _______ _______ _______ _____ _____    ______ ____
ROOT
ATOM      1  C   UNL     1      -4.692  12.443  -7.047  0.00  0.00    +0.000 A 
ATOM      2  C   UNL     1      -5.425  12.577  -8.225  0.00  0.00    +0.000 A 
ATOM      3  C   UNL     1      -5.400  13.787  -8.931  0.00  0.00    +0.000 A 
ATOM      4  C   UNL     1      -4.645  14.864  -8.463  0.00  0.00    +0.000 A 
ATOM      5  C   UNL     1      -3.909  14.737  -7.287  0.00  0.00    +0.000 A 
ATOM      6  C   UNL     1      -3.940  13.534  -6.593  0.00  0.00    +0.000 A 
ENDROOT
BRANCH   1   8
ATOM      7  C   UNL     1      -3.986  10.185  -6.822  0.00  0.00    +0.000 C 
ATOM      8  O   UNL     1      -4.624  11.324  -6.257  0.00  0.00    +0.000 OA
ENDBRANCH   1   8
BRANCH   6   9
ATOM      9  O   UNL     1      -3.209  13.434  -5.440  0.00  0.00    +0.000 OA
ATOM     10  H   UNL     1      -2.283  13.361  -5.739  0.00  0.00    +0.000 HD
ENDBRANCH   6   9
TORSDOF 2
ENDMDL
MODEL 5
REMARK VINA RESULT:    -3.595      1.023      2.863
REMARK INTER + INTRA:          -3.948
REMARK INTER:                  -3.902
REMARK INTRA:                  -0.046
REMARK UNBOUND:                -0.038
REMARK  Name = 
REMARK  3 active torsions:
REMARK  status: ('A' for Active; 'I' for Inactive)
REMARK    1  A    between atoms: C_1  and  O_2
REMARK    2  A    between atoms: O_2  and  C_3
REMARK    3  A    between atoms: C_8  and  O_9
REMARK                            x       y       z     vdW  Elec       q    Type
REMARK                         _______ _______ _______ _____ _____    ______ ____
ROOT
ATOM      1  C   UNL     1      -4.213  11.170  -6.403  0.00  0.00    +0.000 A 
ATOM      2  C   UNL     1      -4.814  11.904  -7.424  0.00  0.00    +0.000 A 
ATOM      3  C   UNL     1      -5.334  13.178  -7.158  0.00  0.00    +0.000 A 
ATOM      4  C   UNL     1      -5.255  13.720  -5.874  0.00  0.00    +0.000 A 
ATOM      5  C   UNL     1      -4.654  12.993  -4.849  0.00  0.00    +0.000 A 
ATOM      6  C   UNL     1      -4.142  11.731  -5.122  0.00  0.00    +0.000 A 
ENDROOT
BRANCH   1   8
ATOM      7  C   UNL     1      -4.417   8.962  -7.258  0.00  0.00    +0.000 C 
ATOM      8  O   UNL     1      -3.665   9.918  -6.519  0.00  0.00    +0.000 OA
ENDBRANCH   1   8
BRANCH   6   9
ATOM      9  O   UNL     1      -3.557  11.035  -4.098  0.00  0.00    +0.000 OA
ATOM     10  H   UNL     1      -3.346  11.711  -3.426  0.00  0.00    +0.000 HD
ENDBRANCH   6   9
TORSDOF 2
ENDMDL
MODEL 6
REMARK VINA RESULT:    -3.571      4.615      7.058
REMARK INTER + INTRA:          -3.922
REMARK INTER:                  -3.879
REMARK INTRA:                  -0.043
REMARK UNBOUND:                -0.038
REMARK  Name = 
REMARK  3 active torsions:
REMARK  status: ('A' for Active; 'I' for Inactive)
REMARK    1  A    between atoms: C_1  and  O_2
REMARK    2  A    between atoms: O_2  and  C_3
REMARK    3  A    between atoms: C_8  and  O_9
REMARK                            x       y       z     vdW  Elec       q    Type
REMARK                         _______ _______ _______ _____ _____    ______ ____
ROOT
ATOM      1  C   UNL     1      -1.905  14.641  -0.777  0.00  0.00    +0.000 A 
ATOM      2  C   UNL     1      -2.824  15.261   0.068  0.00  0.00    +0.000 A 
ATOM      3  C   UNL     1      -2.519  16.499   0.646  0.00  0.00    +0.000 A 
ATOM      4  C   UNL     1      -1.297  17.121   0.383  0.00  0.00    +0.000 A 
ATOM      5  C   UNL     1      -0.374  16.509  -0.461  0.00  0.00    +0.000 A 
ATOM      6  C   UNL     1      -0.685  15.280  -1.029  0.00  0.00    +0.000 A 
ENDROOT
BRANCH   1   8
ATOM      7  C   UNL     1      -3.379  13.135  -1.876  0.00  0.00    +0.000 C 
ATOM      8  O   UNL     1      -2.069  13.434  -1.409  0.00  0.00    +0.000 OA
ENDBRANCH   1   8
BRANCH   6   9
ATOM      9  O   UNL     1       0.239  14.697  -1.855  0.00  0.00    +0.000 OA
ATOM     10  H   UNL     1       1.058  14.660  -1.325  0.00  0.00    +0.000 HD
ENDBRANCH   6   9
TORSDOF 2
ENDMDL
MODEL 7
REMARK VINA RESULT:    -3.530      1.803      2.108
REMARK INTER + INTRA:          -3.877
REMARK INTER:                  -3.829
REMARK INTRA:                  -0.048
REMARK UNBOUND:                -0.038
REMARK  Name = 
REMARK  3 active torsions:
REMARK  status: ('A' for Active; 'I' for Inactive)
REMARK    1  A    between atoms: C_1  and  O_2
REMARK    2  A    between atoms: O_2  and  C_3
REMARK    3  A    between atoms: C_8  and  O_9
REMARK                            x       y       z     vdW  Elec       q    Type
REMARK                         _______ _______ _______ _____ _____    ______ ____
ROOT
ATOM      1  C   UNL     1      -4.635  12.209  -6.286  0.00  0.00    +0.000 A 
ATOM      2  C   UNL     1      -5.904  12.762  -6.452  0.00  0.00    +0.000 A 
ATOM      3  C   UNL     1      -6.924  12.007  -7.045  0.00  0.00    +0.000 A 
ATOM      4  C   UNL     1      -6.680  10.701  -7.474  0.00  0.00    +0.000 A 
ATOM      5  C   UNL     1      -5.415  10.142  -7.311  0.00  0.00    +0.000 A 
ATOM      6  C   UNL     1      -4.409  10.898  -6.723  0.00  0.00    +0.000 A 
ENDROOT
BRANCH   1   8
ATOM      7  C   UNL     1      -3.250  14.138  -6.197  0.00  0.00    +0.000 C 
ATOM      8  O   UNL     1      -3.547  12.829  -5.726  0.00  0.00    +0.000 OA
ENDBRANCH   1   8
BRANCH   6   9
ATOM      9  O   UNL     1      -3.173  10.326  -6.574  0.00  0.00    +0.000 OA
ATOM     10  H   UNL     1      -2.689  10.568  -7.386  0.00  0.00    +0.000 HD
ENDBRANCH   6   9
TORSDOF 2
ENDMDL
MODEL 8
REMARK VINA RESULT:    -3.413      2.076      2.883
REMARK INTER + INTRA:          -3.750
REMARK INTER:                  -3.739
REMARK INTRA:                  -0.011
REMARK UNBOUND:                -0.038
REMARK  Name = 
REMARK  3 active torsions:
REMARK  status: ('A' for Active; 'I' for Inactive)
REMARK    1  A    between atoms: C_1  and  O_2
REMARK    2  A    between atoms: O_2  and  C_3
REMARK    3  A    between atoms: C_8  and  O_9
REMARK                            x       y       z     vdW  Elec       q    Type
REMARK                         _______ _______ _______ _____ _____    ______ ____
ROOT
ATOM      1  C   UNL     1      -4.254  12.766  -6.477  0.00  0.00    +0.000 A 
ATOM      2  C   UNL     1      -5.132  12.408  -7.499  0.00  0.00    +0.000 A 
ATOM      3  C   UNL     1      -5.387  13.300  -8.548  0.00  0.00    +0.000 A 
ATOM      4  C   UNL     1      -4.767  14.551  -8.579  0.00  0.00    +0.000 A 
ATOM      5  C   UNL     1      -3.888  14.916  -7.562  0.00  0.00    +0.000 A 
ATOM      6  C   UNL     1      -3.642  14.025  -6.526  0.00  0.00    +0.000 A 
ENDROOT
BRANCH   1   8
ATOM      7  C   UNL     1      -4.823  12.003  -4.300  0.00  0.00    +0.000 C 
ATOM      8  O   UNL     1      -3.913  11.997  -5.393  0.00  0.00    +0.000 OA
ENDBRANCH   1   8
BRANCH   6   9
ATOM      9  O   UNL     1      -2.774  14.407  -5.538  0.00  0.00    +0.000 OA
ATOM     10  H   UNL     1      -2.183  15.056  -5.964  0.00  0.00    +0.000 HD
ENDBRANCH   6   9
TORSDOF 2
ENDMDL
MODEL 9
REMARK VINA RESULT:    -3.389      1.950      2.373
REMARK INTER + INTRA:          -3.724
REMARK INTER:                  -3.674
REMARK INTRA:                  -0.050
REMARK UNBOUND:                -0.038
REMARK  Name = 
REMARK  3 active torsions:
REMARK  status: ('A' for Active; 'I' for Inactive)
REMARK    1  A    between atoms: C_1  and  O_2
REMARK    2  A    between atoms: O_2  and  C_3
REMARK    3  A    between atoms: C_8  and  O_9
REMARK                            x       y       z     vdW  Elec       q    Type
REMARK                         _______ _______ _______ _____ _____    ______ ____
ROOT
ATOM      1  C   UNL     1      -5.835  12.235  -5.510  0.00  0.00    +0.000 A 
ATOM      2  C   UNL     1      -6.851  11.454  -6.060  0.00  0.00    +0.000 A 
ATOM      3  C   UNL     1      -6.535  10.421  -6.951  0.00  0.00    +0.000 A 
ATOM      4  C   UNL     1      -5.206  10.165  -7.296  0.00  0.00    +0.000 A 
ATOM      5  C   UNL     1      -4.185  10.941  -6.750  0.00  0.00    +0.000 A 
ATOM      6  C   UNL     1      -4.508  11.963  -5.867  0.00  0.00    +0.000 A 
ENDROOT
BRANCH   1   8
ATOM      7  C   UNL     1      -6.733  12.994  -3.445  0.00  0.00    +0.000 C 
ATOM      8  O   UNL     1      -5.997  13.274  -4.629  0.00  0.00    +0.000 OA
ENDBRANCH   1   8
BRANCH   6   9
ATOM      9  O   UNL     1      -3.488  12.712  -5.344  0.00  0.00    +0.000 OA
ATOM     10  H   UNL     1      -3.921  13.518  -5.003  0.00  0.00    +0.000 HD
ENDBRANCH   6   9
TORSDOF 2
ENDMDL
