MODEL 1
REMARK VINA RESULT:    -4.093      0.000      0.000
REMARK INTER + INTRA:          -4.490
REMARK INTER:                  -4.452
REMARK INTRA:                  -0.038
REMARK UNBOUND:                -0.038
REMARK  Name = 
REMARK  3 active torsions:
REMARK  status: ('A' for Active; 'I' for Inactive)
REMARK    1  A    between atoms: C_1  and  O_2
REMARK    2  A    between atoms: O_2  and  C_3
REMARK    3  A    between atoms: C_8  and  O_9
REMARK                            x       y       z     vdW  Elec       q    Type
REMARK                         _______ _______ _______ _____ _____    ______ ____
ROOT
ATOM      1  C   UNL     1       2.624  11.782 -16.506  0.00  0.00    +0.000 A 
ATOM      2  C   UNL     1       1.664  11.338 -17.414  0.00  0.00    +0.000 A 
ATOM      3  C   UNL     1       0.612  10.523 -16.977  0.00  0.00    +0.000 A 
ATOM      4  C   UNL     1       0.517  10.148 -15.636  0.00  0.00    +0.000 A 
ATOM      5  C   UNL     1       1.473  10.588 -14.722  0.00  0.00    +0.000 A 
ATOM      6  C   UNL     1       2.512  11.396 -15.164  0.00  0.00    +0.000 A 
ENDROOT
BRANCH   1   8
ATOM      7  C   UNL     1       3.658  13.291 -18.023  0.00  0.00    +0.000 C 
ATOM      8  O   UNL     1       3.703  12.581 -16.792  0.00  0.00    +0.000 OA
ENDBRANCH   1   8
BRANCH   6   9
ATOM      9  O   UNL     1       3.439  11.816 -14.248  0.00  0.00    +0.000 OA
ATOM     10  H   UNL     1       4.017  12.429 -14.742  0.00  0.00    +0.000 HD
ENDBRANCH   6   9
TORSDOF 2
ENDMDL
MODEL 2
REMARK VINA RESULT:    -3.835     13.560     14.832
REMARK INTER + INTRA:          -4.209
REMARK INTER:                  -4.163
REMARK INTRA:                  -0.046
REMARK UNBOUND:                -0.038
REMARK  Name = 
REMARK  3 active torsions:
REMARK  status: ('A' for Active; 'I' for Inactive)
REMARK    1  A    between atoms: C_1  and  O_2
REMARK    2  A    between atoms: O_2  and  C_3
REMARK    3  A    between atoms: C_8  and  O_9
REMARK                            x       y       z     vdW  Elec       q    Type
REMARK                         _______ _______ _______ _____ _____    ______ ____
ROOT
ATOM      1  C   UNL     1       0.874  19.045  -3.432  0.00  0.00    +0.000 A 
ATOM      2  C   UNL     1       2.075  19.314  -2.776  0.00  0.00    +0.000 A 
ATOM      3  C   UNL     1       3.293  19.010  -3.396  0.00  0.00    +0.000 A 
ATOM      4  C   UNL     1       3.317  18.437  -4.669  0.00  0.00    +0.000 A 
ATOM      5  C   UNL     1       2.121  18.166  -5.330  0.00  0.00    +0.000 A 
ATOM      6  C   UNL     1       0.917  18.470  -4.708  0.00  0.00    +0.000 A 
ENDROOT
BRANCH   1   8
ATOM      7  C   UNL     1      -0.624  18.936  -1.590  0.00  0.00    +0.000 C 
ATOM      8  O   UNL     1      -0.387  19.289  -2.948  0.00  0.00    +0.000 OA
ENDBRANCH   1   8
BRANCH   6   9
ATOM      9  O   UNL     1      -0.245  18.195  -5.378  0.00  0.00    +0.000 OA
ATOM     10  H   UNL     1      -0.373  18.956  -5.976  0.00  0.00    +0.000 HD
ENDBRANCH   6   9
TORSDOF 2
ENDMDL
MODEL 3
REMARK VINA RESULT:    -3.738     13.777     14.912
REMARK INTER + INTRA:          -4.104
REMARK INTER:                  -4.052
REMARK INTRA:                  -0.052
REMARK UNBOUND:                -0.038
REMARK  Name = 
REMARK  3 active torsions:
REMARK  status: ('A' for Active; 'I' for Inactive)
REMARK    1  A    between atoms: C_1  and  O_2
REMARK    2  A    between atoms: O_2  and  C_3
REMARK    3  A    between atoms: C_8  and  O_9
REMARK                            x       y       z     vdW  Elec       q    Type
REMARK                         _______ _______ _______ _____ _____    ______ ____
ROOT
ATOM      1  C   UNL     1       2.372  18.465  -2.742  0.00  0.00    +0.000 A 
ATOM      2  C   UNL     1       1.243  19.117  -2.247  0.00  0.00    +0.000 A 
ATOM      3  C   UNL     1       0.158  19.377  -3.094  0.00  0.00    +0.000 A 
ATOM      4  C   UNL     1       0.197  18.988  -4.434  0.00  0.00    +0.000 A 
ATOM      5  C   UNL     1       1.321  18.335  -4.935  0.00  0.00    +0.000 A 
ATOM      6  C   UNL     1       2.393  18.082  -4.088  0.00  0.00    +0.000 A 
ENDROOT
BRANCH   1   8
ATOM      7  C   UNL     1       4.323  19.236  -1.625  0.00  0.00    +0.000 C 
ATOM      8  O   UNL     1       3.502  18.147  -2.031  0.00  0.00    +0.000 OA
ENDBRANCH   1   8
BRANCH   6   9
ATOM      9  O   UNL     1       3.486  17.439  -4.604  0.00  0.00    +0.000 OA
ATOM     10  H   UNL     1       3.181  17.073  -5.456  0.00  0.00    +0.000 HD
ENDBRANCH   6   9
TORSDOF 2
ENDMDL
MODEL 4
REMARK VINA RESULT:    -3.735     16.154     16.884
REMARK INTER + INTRA:          -4.101
REMARK INTER:                  -4.060
REMARK INTRA:                  -0.041
REMARK UNBOUND:                -0.038
REMARK  Name = 
REMARK  3 active torsions:
REMARK  status: ('A' for Active; 'I' for Inactive)
REMARK    1  A    between atoms: C_1  and  O_2
REMARK    2  A    between atoms: O_2  and  C_3
REMARK    3  A    between atoms: C_8  and  O_9
REMARK                            x       y       z     vdW  Elec       q    Type
REMARK                         _______ _______ _______ _____ _____    ______ ____
ROOT
ATOM      1  C   UNL     1       6.492  19.392  -1.760  0.00  0.00    +0.000 A 
ATOM      2  C   UNL     1       6.205  20.172  -2.880  0.00  0.00    +0.000 A 
ATOM      3  C   UNL     1       4.901  20.211  -3.389  0.00  0.00    +0.000 A 
ATOM      4  C   UNL     1       3.882  19.472  -2.784  0.00  0.00    +0.000 A 
ATOM      5  C   UNL     1       4.162  18.692  -1.665  0.00  0.00    +0.000 A 
ATOM      6  C   UNL     1       5.458  18.659  -1.167  0.00  0.00    +0.000 A 
ENDROOT
BRANCH   1   8
ATOM      7  C   UNL     1       8.592  20.378  -1.244  0.00  0.00    +0.000 C 
ATOM      8  O   UNL     1       7.718  19.259  -1.157  0.00  0.00    +0.000 OA
ENDBRANCH   1   8
BRANCH   6   9
ATOM      9  O   UNL     1       5.708  17.884  -0.066  0.00  0.00    +0.000 OA
ATOM     10  H   UNL     1       6.459  18.320   0.379  0.00  0.00    +0.000 HD
ENDBRANCH   6   9
TORSDOF 2
ENDMDL
MODEL 5
REMARK VINA RESULT:    -3.675     22.651     23.679
REMARK INTER + INTRA:          -4.036
REMARK INTER:                  -3.996
REMARK INTRA:                  -0.040
REMARK UNBOUND:                -0.038
REMARK  Name = 
REMARK  3 active torsions:
REMARK  status: ('A' for Active; 'I' for Inactive)
REMARK    1  A    between atoms: C_1  and  O_2
REMARK    2  A    between atoms: O_2  and  C_3
REMARK    3  A    between atoms: C_8  and  O_9
REMARK                            x       y       z     vdW  Elec       q    Type
REMARK                         _______ _______ _______ _____ _____    ______ ____
ROOT
ATOM      1  C   UNL     1      15.738  18.015   1.911  0.00  0.00    +0.000 A 
ATOM      2  C   UNL     1      16.262  17.499   3.095  0.00  0.00    +0.000 A 
ATOM      3  C   UNL     1      17.328  16.591   3.052  0.00  0.00    +0.000 A 
ATOM      4  C   UNL     1      17.872  16.196   1.828  0.00  0.00    +0.000 A 
ATOM      5  C   UNL     1      17.354  16.708   0.640  0.00  0.00    +0.000 A 
ATOM      6  C   UNL     1      16.297  17.608   0.693  0.00  0.00    +0.000 A 
ENDROOT
BRANCH   1   8
ATOM      7  C   UNL     1      13.758  18.915   2.869  0.00  0.00    +0.000 C 
ATOM      8  O   UNL     1      14.701  18.907   1.804  0.00  0.00    +0.000 OA
ENDBRANCH   1   8
BRANCH   6   9
ATOM      9  O   UNL     1      15.805  18.097  -0.487  0.00  0.00    +0.000 OA
ATOM     10  H   UNL     1      15.243  17.380  -0.838  0.00  0.00    +0.000 HD
ENDBRANCH   6   9
TORSDOF 2
ENDMDL
MODEL 6
REMARK VINA RESULT:    -3.665     13.931     14.991
REMARK INTER + INTRA:          -4.024
REMARK INTER:                  -3.972
REMARK INTRA:                  -0.052
REMARK UNBOUND:                -0.038
REMARK  Name = 
REMARK  3 active torsions:
REMARK  status: ('A' for Active; 'I' for Inactive)
REMARK    1  A    between atoms: C_1  and  O_2
REMARK    2  A    between atoms: O_2  and  C_3
REMARK    3  A    between atoms: C_8  and  O_9
REMARK                            x       y       z     vdW  Elec       q    Type
REMARK                         _______ _______ _______ _____ _____    ______ ____
ROOT
ATOM      1  C   UNL     1       2.535  18.523  -2.968  0.00  0.00    +0.000 A 
ATOM      2  C   UNL     1       2.769  18.013  -4.244  0.00  0.00    +0.000 A 
ATOM      3  C   UNL     1       1.763  18.072  -5.216  0.00  0.00    +0.000 A 
ATOM      4  C   UNL     1       0.522  18.637  -4.918  0.00  0.00    +0.000 A 
ATOM      5  C   UNL     1       0.280  19.149  -3.645  0.00  0.00    +0.000 A 
ATOM      6  C   UNL     1       1.284  19.087  -2.687  0.00  0.00    +0.000 A 
ENDROOT
BRANCH   1   8
ATOM      7  C   UNL     1       4.609  19.297  -2.104  0.00  0.00    +0.000 C 
ATOM      8  O   UNL     1       3.423  18.533  -1.922  0.00  0.00    +0.000 OA
ENDBRANCH   1   8
BRANCH   6   9
ATOM      9  O   UNL     1       1.023  19.596  -1.443  0.00  0.00    +0.000 OA
ATOM     10  H   UNL     1       1.780  19.315  -0.895  0.00  0.00    +0.000 HD
ENDBRANCH   6   9
TORSDOF 2
ENDMDL
MODEL 7
REMARK VINA RESULT:    -3.621      2.234      3.114
REMARK INTER + INTRA:          -3.977
REMARK INTER:                  -3.968
REMARK INTRA:                  -0.009
REMARK UNBOUND:                -0.038
REMARK  Name = 
REMARK  3 active torsions:
REMARK  status: ('A' for Active; 'I' for Inactive)
REMARK    1  A    between atoms: C_1  and  O_2
REMARK    2  A    between atoms: O_2  and  C_3
REMARK    3  A    between atoms: C_8  and  O_9
REMARK                            x       y       z     vdW  Elec       q    Type
REMARK                         _______ _______ _______ _____ _____    ______ ____
ROOT
ATOM      1  C   UNL     1       0.825  11.340 -16.460  0.00  0.00    +0.000 A 
ATOM      2  C   UNL     1       2.031  11.850 -16.939  0.00  0.00    +0.000 A 
ATOM      3  C   UNL     1       3.194  11.739 -16.167  0.00  0.00    +0.000 A 
ATOM      4  C   UNL     1       3.156  11.121 -14.915  0.00  0.00    +0.000 A 
ATOM      5  C   UNL     1       1.955  10.608 -14.430  0.00  0.00    +0.000 A 
ATOM      6  C   UNL     1       0.806  10.723 -15.203  0.00  0.00    +0.000 A 
ENDROOT
BRANCH   1   8
ATOM      7  C   UNL     1      -0.617  10.369 -18.080  0.00  0.00    +0.000 C 
ATOM      8  O   UNL     1      -0.385  11.378 -17.105  0.00  0.00    +0.000 OA
ENDBRANCH   1   8
BRANCH   6   9
ATOM      9  O   UNL     1      -0.362  10.212 -14.705  0.00  0.00    +0.000 OA
ATOM     10  H   UNL     1      -0.747  10.939 -14.180  0.00  0.00    +0.000 HD
ENDBRANCH   6   9
TORSDOF 2
ENDMDL
MODEL 8
REMARK VINA RESULT:    -3.606     13.799     14.996
REMARK INTER + INTRA:          -3.960
REMARK INTER:                  -3.909
REMARK INTRA:                  -0.051
REMARK UNBOUND:                -0.038
REMARK  Name = 
REMARK  3 active torsions:
REMARK  status: ('A' for Active; 'I' for Inactive)
REMARK    1  A    between atoms: C_1  and  O_2
REMARK    2  A    between atoms: O_2  and  C_3
REMARK    3  A    between atoms: C_8  and  O_9
REMARK                            x       y       z     vdW  Elec       q    Type
REMARK                         _______ _______ _______ _____ _____    ______ ____
ROOT
ATOM      1  C   UNL     1       4.313  19.316  -3.164  0.00  0.00    +0.000 A 
ATOM      2  C   UNL     1       4.809  20.298  -4.021  0.00  0.00    +0.000 A 
ATOM      3  C   UNL     1       4.350  20.371  -5.342  0.00  0.00    +0.000 A 
ATOM      4  C   UNL     1       3.396  19.466  -5.810  0.00  0.00    +0.000 A 
ATOM      5  C   UNL     1       2.894  18.483  -4.960  0.00  0.00    +0.000 A 
ATOM      6  C   UNL     1       3.356  18.417  -3.651  0.00  0.00    +0.000 A 
ENDROOT
BRANCH   1   8
ATOM      7  C   UNL     1       6.056  18.926  -1.596  0.00  0.00    +0.000 C 
ATOM      8  O   UNL     1       4.671  19.128  -1.853  0.00  0.00    +0.000 OA
ENDBRANCH   1   8
BRANCH   6   9
ATOM      9  O   UNL     1       2.849  17.442  -2.834  0.00  0.00    +0.000 OA
ATOM     10  H   UNL     1       3.112  16.603  -3.257  0.00  0.00    +0.000 HD
ENDBRANCH   6   9
TORSDOF 2
ENDMDL
MODEL 9
REMARK VINA RESULT:    -3.541     13.363     14.445
REMARK INTER + INTRA:          -3.890
REMARK INTER:                  -3.851
REMARK INTRA:                  -0.038
REMARK UNBOUND:                -0.038
REMARK  Name = 
REMARK  3 active torsions:
REMARK  status: ('A' for Active; 'I' for Inactive)
REMARK    1  A    between atoms: C_1  and  O_2
REMARK    2  A    between atoms: O_2  and  C_3
REMARK    3  A    between atoms: C_8  and  O_9
REMARK                            x       y       z     vdW  Elec       q    Type
REMARK                         _______ _______ _______ _____ _____    ______ ____
ROOT
ATOM      1  C   UNL     1       4.171  19.535  -4.083  0.00  0.00    +0.000 A 
ATOM      2  C   UNL     1       3.718  18.929  -2.912  0.00  0.00    +0.000 A 
ATOM      3  C   UNL     1       2.610  18.073  -2.950  0.00  0.00    +0.000 A 
ATOM      4  C   UNL     1       1.952  17.822  -4.155  0.00  0.00    +0.000 A 
ATOM      5  C   UNL     1       2.398  18.423  -5.330  0.00  0.00    +0.000 A 
ATOM      6  C   UNL     1       3.498  19.271  -5.282  0.00  0.00    +0.000 A 
ENDROOT
BRANCH   1   8
ATOM      7  C   UNL     1       6.145  20.419  -3.099  0.00  0.00    +0.000 C 
ATOM      8  O   UNL     1       5.237  20.392  -4.193  0.00  0.00    +0.000 OA
ENDBRANCH   1   8
BRANCH   6   9
ATOM      9  O   UNL     1       3.918  19.851  -6.449  0.00  0.00    +0.000 OA
ATOM     10  H   UNL     1       3.096  20.080  -6.923  0.00  0.00    +0.000 HD
ENDBRANCH   6   9
TORSDOF 2
ENDMDL
