MODEL 1
REMARK VINA RESULT:    -3.651      0.000      0.000
REMARK INTER + INTRA:          -4.882
REMARK INTER:                  -4.931
REMARK INTRA:                   0.049
REMARK UNBOUND:                 0.049
REMARK  Name = 
REMARK  10 active torsions:
REMARK  status: ('A' for Active; 'I' for Inactive)
REMARK    1  A    between atoms: C_1  and  C_2
REMARK    2  A    between atoms: C_5  and  N_8
REMARK    3  A    between atoms: N_8  and  C_9
REMARK    4  A    between atoms: N_8  and  C_13
REMARK    5  A    between atoms: C_9  and  C_10
REMARK    6  A    between atoms: C_10  and  C_11
REMARK    7  A    between atoms: C_10  and  O_12
REMARK    8  A    between atoms: C_13  and  C_14
REMARK    9  A    between atoms: C_14  and  C_15
REMARK   10  A    between atoms: C_14  and  O_16
REMARK                            x       y       z     vdW  Elec       q    Type
REMARK                         _______ _______ _______ _____ _____    ______ ____
ROOT
ATOM      1  N   UNL     1       0.837   3.581  11.518  0.00  0.00    +0.000 N 
ENDROOT
BRANCH   1   6
ATOM      2  C   UNL     1       0.806   8.389  14.713  0.00  0.00    +0.000 C 
ATOM      3  C   UNL     1       0.827   7.154  13.866  0.00  0.00    +0.000 A 
ATOM      4  C   UNL     1      -0.195   6.891  12.961  0.00  0.00    +0.000 A 
ATOM      5  C   UNL     1      -0.185   5.716  12.191  0.00  0.00    +0.000 A 
ATOM      6  C   UNL     1       0.823   4.741  12.302  0.00  0.00    +0.000 A 
ATOM      7  C   UNL     1       1.841   5.041  13.226  0.00  0.00    +0.000 A 
ATOM      8  C   UNL     1       1.845   6.213  14.000  0.00  0.00    +0.000 A 
ENDBRANCH   1   6
BRANCH   1   9
ATOM      9  C   UNL     1       0.447   2.279  12.109  0.00  0.00    +0.000 C 
BRANCH   9  10
ATOM     10  C   UNL     1       1.584   1.632  12.938  0.00  0.00    +0.000 C 
ATOM     11  C   UNL     1       1.491   2.041  14.403  0.00  0.00    +0.000 C 
BRANCH  10  12
ATOM     12  O   UNL     1       1.519   0.201  12.871  0.00  0.00    +0.000 OA
ATOM     13  H   UNL     1       0.844  -0.100  13.502  0.00  0.00    +0.000 HD
ENDBRANCH  10  12
ENDBRANCH   9  10
ENDBRANCH   1   9
BRANCH   1  14
ATOM     14  C   UNL     1       1.684   3.486  10.301  0.00  0.00    +0.000 C 
BRANCH  14  15
ATOM     15  C   UNL     1       0.842   3.314   9.014  0.00  0.00    +0.000 C 
ATOM     16  C   UNL     1       1.535   3.851   7.768  0.00  0.00    +0.000 C 
BRANCH  15  17
ATOM     17  O   UNL     1       0.509   1.946   8.781  0.00  0.00    +0.000 OA
ATOM     18  H   UNL     1       0.113   1.932   7.886  0.00  0.00    +0.000 HD
ENDBRANCH  15  17
ENDBRANCH  14  15
ENDBRANCH   1  14
TORSDOF 7
ENDMDL
MODEL 2
REMARK VINA RESULT:    -2.607      2.254      4.507
REMARK INTER + INTRA:          -3.472
REMARK INTER:                  -3.584
REMARK INTRA:                   0.112
REMARK UNBOUND:                 0.049
REMARK  Name = 
REMARK  10 active torsions:
REMARK  status: ('A' for Active; 'I' for Inactive)
REMARK    1  A    between atoms: C_1  and  C_2
REMARK    2  A    between atoms: C_5  and  N_8
REMARK    3  A    between atoms: N_8  and  C_9
REMARK    4  A    between atoms: N_8  and  C_13
REMARK    5  A    between atoms: C_9  and  C_10
REMARK    6  A    between atoms: C_10  and  C_11
REMARK    7  A    between atoms: C_10  and  O_12
REMARK    8  A    between atoms: C_13  and  C_14
REMARK    9  A    between atoms: C_14  and  C_15
REMARK   10  A    between atoms: C_14  and  O_16
REMARK                            x       y       z     vdW  Elec       q    Type
REMARK                         _______ _______ _______ _____ _____    ______ ____
ROOT
ATOM      1  N   UNL     1       0.948   3.992  13.387  0.00  0.00    +0.000 N 
ENDROOT
BRANCH   1   6
ATOM      2  C   UNL     1       1.481   3.344   7.675  0.00  0.00    +0.000 C 
ATOM      3  C   UNL     1       1.353   3.490   9.160  0.00  0.00    +0.000 A 
ATOM      4  C   UNL     1       0.201   3.080   9.822  0.00  0.00    +0.000 A 
ATOM      5  C   UNL     1       0.074   3.247  11.211  0.00  0.00    +0.000 A 
ATOM      6  C   UNL     1       1.073   3.847  11.999  0.00  0.00    +0.000 A 
ATOM      7  C   UNL     1       2.225   4.247  11.298  0.00  0.00    +0.000 A 
ATOM      8  C   UNL     1       2.365   4.084   9.909  0.00  0.00    +0.000 A 
ENDBRANCH   1   6
BRANCH   1   9
ATOM      9  C   UNL     1       0.664   2.810  14.235  0.00  0.00    +0.000 C 
BRANCH   9  10
ATOM     10  C   UNL     1       1.798   1.755  14.194  0.00  0.00    +0.000 C 
ATOM     11  C   UNL     1       1.564   0.749  13.074  0.00  0.00    +0.000 C 
BRANCH  10  12
ATOM     12  O   UNL     1       3.071   2.377  13.974  0.00  0.00    +0.000 OA
ATOM     13  H   UNL     1       3.642   1.740  13.513  0.00  0.00    +0.000 HD
ENDBRANCH  10  12
ENDBRANCH   9  10
ENDBRANCH   1   9
BRANCH   1  14
ATOM     14  C   UNL     1       0.584   5.298  13.993  0.00  0.00    +0.000 C 
BRANCH  14  15
ATOM     15  C   UNL     1       0.583   6.445  12.954  0.00  0.00    +0.000 C 
ATOM     16  C   UNL     1      -0.777   6.664  12.303  0.00  0.00    +0.000 C 
BRANCH  15  17
ATOM     17  O   UNL     1       1.000   7.681  13.533  0.00  0.00    +0.000 OA
ATOM     18  H   UNL     1       1.560   7.427  14.294  0.00  0.00    +0.000 HD
ENDBRANCH  15  17
ENDBRANCH  14  15
ENDBRANCH   1  14
TORSDOF 7
ENDMDL
MODEL 3
REMARK VINA RESULT:    -2.300     20.021     21.394
REMARK INTER + INTRA:          -3.057
REMARK INTER:                  -2.917
REMARK INTRA:                  -0.140
REMARK UNBOUND:                 0.049
REMARK  Name = 
REMARK  10 active torsions:
REMARK  status: ('A' for Active; 'I' for Inactive)
REMARK    1  A    between atoms: C_1  and  C_2
REMARK    2  A    between atoms: C_5  and  N_8
REMARK    3  A    between atoms: N_8  and  C_9
REMARK    4  A    between atoms: N_8  and  C_13
REMARK    5  A    between atoms: C_9  and  C_10
REMARK    6  A    between atoms: C_10  and  C_11
REMARK    7  A    between atoms: C_10  and  O_12
REMARK    8  A    between atoms: C_13  and  C_14
REMARK    9  A    between atoms: C_14  and  C_15
REMARK   10  A    between atoms: C_14  and  O_16
REMARK                            x       y       z     vdW  Elec       q    Type
REMARK                         _______ _______ _______ _____ _____    ______ ____
ROOT
ATOM      1  N   UNL     1      11.155  20.647   3.260  0.00  0.00    +0.000 N 
ENDROOT
BRANCH   1   6
ATOM      2  C   UNL     1      16.557  19.707   5.064  0.00  0.00    +0.000 C 
ATOM      3  C   UNL     1      15.150  19.927   4.599  0.00  0.00    +0.000 A 
ATOM      4  C   UNL     1      14.827  19.864   3.248  0.00  0.00    +0.000 A 
ATOM      5  C   UNL     1      13.512  20.100   2.814  0.00  0.00    +0.000 A 
ATOM      6  C   UNL     1      12.468  20.432   3.696  0.00  0.00    +0.000 A 
ATOM      7  C   UNL     1      12.831  20.485   5.055  0.00  0.00    +0.000 A 
ATOM      8  C   UNL     1      14.141  20.248   5.502  0.00  0.00    +0.000 A 
ENDBRANCH   1   6
BRANCH   1   9
ATOM      9  C   UNL     1      10.456  19.609   2.464  0.00  0.00    +0.000 C 
BRANCH   9  10
ATOM     10  C   UNL     1      10.499  18.212   3.130  0.00  0.00    +0.000 C 
ATOM     11  C   UNL     1       9.646  18.185   4.393  0.00  0.00    +0.000 C 
BRANCH  10  12
ATOM     12  O   UNL     1      10.007  17.202   2.239  0.00  0.00    +0.000 OA
ATOM     13  H   UNL     1      10.122  16.338   2.670  0.00  0.00    +0.000 HD
ENDBRANCH  10  12
ENDBRANCH   9  10
ENDBRANCH   1   9
BRANCH   1  14
ATOM     14  C   UNL     1      10.610  22.021   3.109  0.00  0.00    +0.000 C 
BRANCH  14  15
ATOM     15  C   UNL     1       9.481  22.317   4.126  0.00  0.00    +0.000 C 
ATOM     16  C   UNL     1       8.325  21.328   4.043  0.00  0.00    +0.000 C 
BRANCH  15  17
ATOM     17  O   UNL     1       9.967  22.317   5.467  0.00  0.00    +0.000 OA
ATOM     18  H   UNL     1      10.610  21.581   5.503  0.00  0.00    +0.000 HD
ENDBRANCH  15  17
ENDBRANCH  14  15
ENDBRANCH   1  14
TORSDOF 7
ENDMDL
MODEL 4
REMARK VINA RESULT:    -2.094     20.741     22.002
REMARK INTER + INTRA:          -2.780
REMARK INTER:                  -3.333
REMARK INTRA:                   0.554
REMARK UNBOUND:                 0.049
REMARK  Name = 
REMARK  10 active torsions:
REMARK  status: ('A' for Active; 'I' for Inactive)
REMARK    1  A    between atoms: C_1  and  C_2
REMARK    2  A    between atoms: C_5  and  N_8
REMARK    3  A    between atoms: N_8  and  C_9
REMARK    4  A    between atoms: N_8  and  C_13
REMARK    5  A    between atoms: C_9  and  C_10
REMARK    6  A    between atoms: C_10  and  C_11
REMARK    7  A    between atoms: C_10  and  O_12
REMARK    8  A    between atoms: C_13  and  C_14
REMARK    9  A    between atoms: C_14  and  C_15
REMARK   10  A    between atoms: C_14  and  O_16
REMARK                            x       y       z     vdW  Elec       q    Type
REMARK                         _______ _______ _______ _____ _____    ______ ____
ROOT
ATOM      1  N   UNL     1      11.366  20.867   3.486  0.00  0.00    +0.000 N 
ENDROOT
BRANCH   1   6
ATOM      2  C   UNL     1      16.715  21.343   5.605  0.00  0.00    +0.000 C 
ATOM      3  C   UNL     1      15.333  21.235   5.037  0.00  0.00    +0.000 A 
ATOM      4  C   UNL     1      14.316  22.081   5.466  0.00  0.00    +0.000 A 
ATOM      5  C   UNL     1      13.015  21.956   4.952  0.00  0.00    +0.000 A 
ATOM      6  C   UNL     1      12.661  20.974   4.009  0.00  0.00    +0.000 A 
ATOM      7  C   UNL     1      13.715  20.138   3.596  0.00  0.00    +0.000 A 
ATOM      8  C   UNL     1      15.020  20.254   4.101  0.00  0.00    +0.000 A 
ENDBRANCH   1   6
BRANCH   1   9
ATOM      9  C   UNL     1      10.958  19.642   2.758  0.00  0.00    +0.000 C 
BRANCH   9  10
ATOM     10  C   UNL     1       9.775  18.907   3.435  0.00  0.00    +0.000 C 
ATOM     11  C   UNL     1      10.275  17.919   4.482  0.00  0.00    +0.000 C 
BRANCH  10  12
ATOM     12  O   UNL     1       8.896  19.836   4.085  0.00  0.00    +0.000 OA
ATOM     13  H   UNL     1       9.401  20.642   4.280  0.00  0.00    +0.000 HD
ENDBRANCH  10  12
ENDBRANCH   9  10
ENDBRANCH   1   9
BRANCH   1  14
ATOM     14  C   UNL     1      10.560  22.075   3.177  0.00  0.00    +0.000 C 
BRANCH  14  15
ATOM     15  C   UNL     1      10.418  22.309   1.654  0.00  0.00    +0.000 C 
ATOM     16  C   UNL     1      11.749  22.255   0.913  0.00  0.00    +0.000 C 
BRANCH  15  17
ATOM     17  O   UNL     1       9.539  21.359   1.054  0.00  0.00    +0.000 OA
ATOM     18  H   UNL     1       9.997  20.499   1.142  0.00  0.00    +0.000 HD
ENDBRANCH  15  17
ENDBRANCH  14  15
ENDBRANCH   1  14
TORSDOF 7
ENDMDL
MODEL 5
REMARK VINA RESULT:    -1.949     20.720     22.133
REMARK INTER + INTRA:          -2.584
REMARK INTER:                  -3.329
REMARK INTRA:                   0.746
REMARK UNBOUND:                 0.049
REMARK  Name = 
REMARK  10 active torsions:
REMARK  status: ('A' for Active; 'I' for Inactive)
REMARK    1  A    between atoms: C_1  and  C_2
REMARK    2  A    between atoms: C_5  and  N_8
REMARK    3  A    between atoms: N_8  and  C_9
REMARK    4  A    between atoms: N_8  and  C_13
REMARK    5  A    between atoms: C_9  and  C_10
REMARK    6  A    between atoms: C_10  and  C_11
REMARK    7  A    between atoms: C_10  and  O_12
REMARK    8  A    between atoms: C_13  and  C_14
REMARK    9  A    between atoms: C_14  and  C_15
REMARK   10  A    between atoms: C_14  and  O_16
REMARK                            x       y       z     vdW  Elec       q    Type
REMARK                         _______ _______ _______ _____ _____    ______ ____
ROOT
ATOM      1  N   UNL     1      12.912  21.010   3.675  0.00  0.00    +0.000 N 
ENDROOT
BRANCH   1   6
ATOM      2  C   UNL     1       7.220  21.477   4.518  0.00  0.00    +0.000 C 
ATOM      3  C   UNL     1       8.699  21.343   4.320  0.00  0.00    +0.000 A 
ATOM      4  C   UNL     1       9.574  22.317   4.790  0.00  0.00    +0.000 A 
ATOM      5  C   UNL     1      10.957  22.201   4.576  0.00  0.00    +0.000 A 
ATOM      6  C   UNL     1      11.530  21.129   3.868  0.00  0.00    +0.000 A 
ATOM      7  C   UNL     1      10.616  20.162   3.409  0.00  0.00    +0.000 A 
ATOM      8  C   UNL     1       9.231  20.265   3.618  0.00  0.00    +0.000 A 
ENDBRANCH   1   6
BRANCH   1   9
ATOM      9  C   UNL     1      13.551  19.672   3.685  0.00  0.00    +0.000 C 
BRANCH   9  10
ATOM     10  C   UNL     1      15.044  19.716   3.276  0.00  0.00    +0.000 C 
ATOM     11  C   UNL     1      15.928  19.132   4.371  0.00  0.00    +0.000 C 
BRANCH  10  12
ATOM     12  O   UNL     1      15.271  18.966   2.075  0.00  0.00    +0.000 OA
ATOM     13  H   UNL     1      15.374  18.031   2.318  0.00  0.00    +0.000 HD
ENDBRANCH  10  12
ENDBRANCH   9  10
ENDBRANCH   1   9
BRANCH   1  14
ATOM     14  C   UNL     1      13.829  22.142   3.963  0.00  0.00    +0.000 C 
BRANCH  14  15
ATOM     15  C   UNL     1      14.132  22.279   5.474  0.00  0.00    +0.000 C 
ATOM     16  C   UNL     1      13.531  21.155   6.311  0.00  0.00    +0.000 C 
BRANCH  15  17
ATOM     17  O   UNL     1      15.535  22.317   5.730  0.00  0.00    +0.000 OA
ATOM     18  H   UNL     1      15.750  23.267   5.821  0.00  0.00    +0.000 HD
ENDBRANCH  15  17
ENDBRANCH  14  15
ENDBRANCH   1  14
TORSDOF 7
ENDMDL
MODEL 6
REMARK VINA RESULT:    -1.796     20.757     22.245
REMARK INTER + INTRA:          -2.376
REMARK INTER:                  -2.049
REMARK INTRA:                  -0.327
REMARK UNBOUND:                 0.049
REMARK  Name = 
REMARK  10 active torsions:
REMARK  status: ('A' for Active; 'I' for Inactive)
REMARK    1  A    between atoms: C_1  and  C_2
REMARK    2  A    between atoms: C_5  and  N_8
REMARK    3  A    between atoms: N_8  and  C_9
REMARK    4  A    between atoms: N_8  and  C_13
REMARK    5  A    between atoms: C_9  and  C_10
REMARK    6  A    between atoms: C_10  and  C_11
REMARK    7  A    between atoms: C_10  and  O_12
REMARK    8  A    between atoms: C_13  and  C_14
REMARK    9  A    between atoms: C_14  and  C_15
REMARK   10  A    between atoms: C_14  and  O_16
REMARK                            x       y       z     vdW  Elec       q    Type
REMARK                         _______ _______ _______ _____ _____    ______ ____
ROOT
ATOM      1  N   UNL     1      12.810  20.947   3.123  0.00  0.00    +0.000 N 
ENDROOT
BRANCH   1   6
ATOM      2  C   UNL     1       7.297  21.491   4.747  0.00  0.00    +0.000 C 
ATOM      3  C   UNL     1       8.733  21.338   4.347  0.00  0.00    +0.000 A 
ATOM      4  C   UNL     1       9.670  22.317   4.659  0.00  0.00    +0.000 A 
ATOM      5  C   UNL     1      11.008  22.182   4.255  0.00  0.00    +0.000 A 
ATOM      6  C   UNL     1      11.470  21.085   3.506  0.00  0.00    +0.000 A 
ATOM      7  C   UNL     1      10.496  20.114   3.210  0.00  0.00    +0.000 A 
ATOM      8  C   UNL     1       9.155  20.235   3.610  0.00  0.00    +0.000 A 
ENDBRANCH   1   6
BRANCH   1   9
ATOM      9  C   UNL     1      13.180  20.010   2.036  0.00  0.00    +0.000 C 
BRANCH   9  10
ATOM     10  C   UNL     1      13.019  20.631   0.627  0.00  0.00    +0.000 C 
ATOM     11  C   UNL     1      12.967  22.152   0.705  0.00  0.00    +0.000 C 
BRANCH  10  12
ATOM     12  O   UNL     1      14.114  20.267  -0.225  0.00  0.00    +0.000 OA
ATOM     13  H   UNL     1      13.774  19.676  -0.917  0.00  0.00    +0.000 HD
ENDBRANCH  10  12
ENDBRANCH   9  10
ENDBRANCH   1   9
BRANCH   1  14
ATOM     14  C   UNL     1      13.915  21.289   4.055  0.00  0.00    +0.000 C 
BRANCH  14  15
ATOM     15  C   UNL     1      14.372  20.071   4.893  0.00  0.00    +0.000 C 
ATOM     16  C   UNL     1      15.886  19.910   4.942  0.00  0.00    +0.000 C 
BRANCH  15  17
ATOM     17  O   UNL     1      13.891  20.144   6.234  0.00  0.00    +0.000 OA
ATOM     18  H   UNL     1      14.248  20.984   6.585  0.00  0.00    +0.000 HD
ENDBRANCH  15  17
ENDBRANCH  14  15
ENDBRANCH   1  14
TORSDOF 7
ENDMDL
MODEL 7
REMARK VINA RESULT:    -1.628     20.900     22.264
REMARK INTER + INTRA:          -2.150
REMARK INTER:                  -2.365
REMARK INTRA:                   0.215
REMARK UNBOUND:                 0.049
REMARK  Name = 
REMARK  10 active torsions:
REMARK  status: ('A' for Active; 'I' for Inactive)
REMARK    1  A    between atoms: C_1  and  C_2
REMARK    2  A    between atoms: C_5  and  N_8
REMARK    3  A    between atoms: N_8  and  C_9
REMARK    4  A    between atoms: N_8  and  C_13
REMARK    5  A    between atoms: C_9  and  C_10
REMARK    6  A    between atoms: C_10  and  C_11
REMARK    7  A    between atoms: C_10  and  O_12
REMARK    8  A    between atoms: C_13  and  C_14
REMARK    9  A    between atoms: C_14  and  C_15
REMARK   10  A    between atoms: C_14  and  O_16
REMARK                            x       y       z     vdW  Elec       q    Type
REMARK                         _______ _______ _______ _____ _____    ______ ____
ROOT
ATOM      1  N   UNL     1      13.082  21.143   3.633  0.00  0.00    +0.000 N 
ENDROOT
BRANCH   1   6
ATOM      2  C   UNL     1       7.361  21.177   4.404  0.00  0.00    +0.000 C 
ATOM      3  C   UNL     1       8.842  21.176   4.180  0.00  0.00    +0.000 A 
ATOM      4  C   UNL     1       9.502  20.020   3.775  0.00  0.00    +0.000 A 
ATOM      5  C   UNL     1      10.895  20.017   3.596  0.00  0.00    +0.000 A 
ATOM      6  C   UNL     1      11.696  21.149   3.832  0.00  0.00    +0.000 A 
ATOM      7  C   UNL     1      10.995  22.299   4.239  0.00  0.00    +0.000 A 
ATOM      8  C   UNL     1       9.602  22.317   4.419  0.00  0.00    +0.000 A 
ENDBRANCH   1   6
BRANCH   1   9
ATOM      9  C   UNL     1      13.895  22.317   4.033  0.00  0.00    +0.000 C 
BRANCH   9  10
ATOM     10  C   UNL     1      14.688  22.080   5.342  0.00  0.00    +0.000 C 
ATOM     11  C   UNL     1      13.745  21.920   6.529  0.00  0.00    +0.000 C 
BRANCH  10  12
ATOM     12  O   UNL     1      15.491  20.895   5.250  0.00  0.00    +0.000 OA
ATOM     13  H   UNL     1      15.113  20.328   4.558  0.00  0.00    +0.000 HD
ENDBRANCH  10  12
ENDBRANCH   9  10
ENDBRANCH   1   9
BRANCH   1  14
ATOM     14  C   UNL     1      13.708  20.271   2.607  0.00  0.00    +0.000 C 
BRANCH  14  15
ATOM     15  C   UNL     1      13.099  20.493   1.201  0.00  0.00    +0.000 C 
ATOM     16  C   UNL     1      12.807  21.958   0.899  0.00  0.00    +0.000 C 
BRANCH  15  17
ATOM     17  O   UNL     1      13.951  19.991   0.173  0.00  0.00    +0.000 OA
ATOM     18  H   UNL     1      13.883  19.017   0.241  0.00  0.00    +0.000 HD
ENDBRANCH  15  17
ENDBRANCH  14  15
ENDBRANCH   1  14
TORSDOF 7
ENDMDL
