MODEL 1
REMARK VINA RESULT:    -4.944      0.000      0.000
REMARK INTER + INTRA:          -5.427
REMARK INTER:                  -5.378
REMARK INTRA:                  -0.049
REMARK UNBOUND:                -0.049
REMARK  Name = 
REMARK  3 active torsions:
REMARK  status: ('A' for Active; 'I' for Inactive)
REMARK    1  A    between atoms: C_1  and  O_2
REMARK    2  A    between atoms: O_2  and  C_3
REMARK    3  A    between atoms: C_8  and  O_9
REMARK                            x       y       z     vdW  Elec       q    Type
REMARK                         _______ _______ _______ _____ _____    ______ ____
ROOT
ATOM      1  C   UNL     1      13.170   1.539   6.385  0.00  0.00    +0.000 A 
ATOM      2  C   UNL     1      13.113   1.714   7.767  0.00  0.00    +0.000 A 
ATOM      3  C   UNL     1      11.969   1.325   8.475  0.00  0.00    +0.000 A 
ATOM      4  C   UNL     1      10.880   0.762   7.806  0.00  0.00    +0.000 A 
ATOM      5  C   UNL     1      10.930   0.583   6.426  0.00  0.00    +0.000 A 
ATOM      6  C   UNL     1      12.069   0.972   5.732  0.00  0.00    +0.000 A 
ENDROOT
BRANCH   1   8
ATOM      7  C   UNL     1      14.429   3.261   5.338  0.00  0.00    +0.000 C 
ATOM      8  O   UNL     1      14.220   1.873   5.568  0.00  0.00    +0.000 OA
ENDBRANCH   1   8
BRANCH   6   9
ATOM      9  O   UNL     1      12.094   0.787   4.375  0.00  0.00    +0.000 OA
ATOM     10  H   UNL     1      11.198   1.030   4.074  0.00  0.00    +0.000 HD
ENDBRANCH   6   9
TORSDOF 2
ENDMDL
MODEL 2
REMARK VINA RESULT:    -4.820      2.242      3.282
REMARK INTER + INTRA:          -5.291
REMARK INTER:                  -5.244
REMARK INTRA:                  -0.047
REMARK UNBOUND:                -0.049
REMARK  Name = 
REMARK  3 active torsions:
REMARK  status: ('A' for Active; 'I' for Inactive)
REMARK    1  A    between atoms: C_1  and  O_2
REMARK    2  A    between atoms: O_2  and  C_3
REMARK    3  A    between atoms: C_8  and  O_9
REMARK                            x       y       z     vdW  Elec       q    Type
REMARK                         _______ _______ _______ _____ _____    ______ ____
ROOT
ATOM      1  C   UNL     1      11.595   0.955   7.899  0.00  0.00    +0.000 A 
ATOM      2  C   UNL     1      12.978   1.130   7.878  0.00  0.00    +0.000 A 
ATOM      3  C   UNL     1      13.659   1.181   6.655  0.00  0.00    +0.000 A 
ATOM      4  C   UNL     1      12.962   1.056   5.452  0.00  0.00    +0.000 A 
ATOM      5  C   UNL     1      11.581   0.881   5.464  0.00  0.00    +0.000 A 
ATOM      6  C   UNL     1      10.914   0.831   6.681  0.00  0.00    +0.000 A 
ENDROOT
BRANCH   1   8
ATOM      7  C   UNL     1      11.024   1.877  10.013  0.00  0.00    +0.000 C 
ATOM      8  O   UNL     1      10.802   0.886   9.016  0.00  0.00    +0.000 OA
ENDBRANCH   1   8
BRANCH   6   9
ATOM      9  O   UNL     1       9.555   0.658   6.668  0.00  0.00    +0.000 OA
ATOM     10  H   UNL     1       9.224   1.236   7.382  0.00  0.00    +0.000 HD
ENDBRANCH   6   9
TORSDOF 2
ENDMDL
MODEL 3
REMARK VINA RESULT:    -4.785     11.031     12.313
REMARK INTER + INTRA:          -5.253
REMARK INTER:                  -5.208
REMARK INTRA:                  -0.046
REMARK UNBOUND:                -0.049
REMARK  Name = 
REMARK  3 active torsions:
REMARK  status: ('A' for Active; 'I' for Inactive)
REMARK    1  A    between atoms: C_1  and  O_2
REMARK    2  A    between atoms: O_2  and  C_3
REMARK    3  A    between atoms: C_8  and  O_9
REMARK                            x       y       z     vdW  Elec       q    Type
REMARK                         _______ _______ _______ _____ _____    ______ ____
ROOT
ATOM      1  C   UNL     1       5.816  -7.967   9.495  0.00  0.00    +0.000 A 
ATOM      2  C   UNL     1       6.293  -9.245   9.206  0.00  0.00    +0.000 A 
ATOM      3  C   UNL     1       5.768  -9.959   8.122  0.00  0.00    +0.000 A 
ATOM      4  C   UNL     1       4.767  -9.400   7.324  0.00  0.00    +0.000 A 
ATOM      5  C   UNL     1       4.287  -8.124   7.606  0.00  0.00    +0.000 A 
ATOM      6  C   UNL     1       4.813  -7.423   8.684  0.00  0.00    +0.000 A 
ENDROOT
BRANCH   1   8
ATOM      7  C   UNL     1       7.639  -7.086  10.739  0.00  0.00    +0.000 C 
ATOM      8  O   UNL     1       6.235  -7.158  10.521  0.00  0.00    +0.000 OA
ENDBRANCH   1   8
BRANCH   6   9
ATOM      9  O   UNL     1       4.324  -6.170   8.941  0.00  0.00    +0.000 OA
ATOM     10  H   UNL     1       4.119  -6.174   9.896  0.00  0.00    +0.000 HD
ENDBRANCH   6   9
TORSDOF 2
ENDMDL
MODEL 4
REMARK VINA RESULT:    -4.705      1.245      2.685
REMARK INTER + INTRA:          -5.166
REMARK INTER:                  -5.129
REMARK INTRA:                  -0.037
REMARK UNBOUND:                -0.049
REMARK  Name = 
REMARK  3 active torsions:
REMARK  status: ('A' for Active; 'I' for Inactive)
REMARK    1  A    between atoms: C_1  and  O_2
REMARK    2  A    between atoms: O_2  and  C_3
REMARK    3  A    between atoms: C_8  and  O_9
REMARK                            x       y       z     vdW  Elec       q    Type
REMARK                         _______ _______ _______ _____ _____    ______ ____
ROOT
ATOM      1  C   UNL     1      11.786   1.052   6.098  0.00  0.00    +0.000 A 
ATOM      2  C   UNL     1      10.822   1.480   7.010  0.00  0.00    +0.000 A 
ATOM      3  C   UNL     1      11.201   1.848   8.307  0.00  0.00    +0.000 A 
ATOM      4  C   UNL     1      12.541   1.790   8.696  0.00  0.00    +0.000 A 
ATOM      5  C   UNL     1      13.509   1.364   7.791  0.00  0.00    +0.000 A 
ATOM      6  C   UNL     1      13.124   1.000   6.506  0.00  0.00    +0.000 A 
ENDROOT
BRANCH   1   8
ATOM      7  C   UNL     1      10.203   0.636   4.375  0.00  0.00    +0.000 C 
ATOM      8  O   UNL     1      11.559   0.662   4.802  0.00  0.00    +0.000 OA
ENDBRANCH   1   8
BRANCH   6   9
ATOM      9  O   UNL     1      14.094   0.584   5.634  0.00  0.00    +0.000 OA
ATOM     10  H   UNL     1      14.676   0.009   6.166  0.00  0.00    +0.000 HD
ENDBRANCH   6   9
TORSDOF 2
ENDMDL
MODEL 5
REMARK VINA RESULT:    -4.627      2.052      2.783
REMARK INTER + INTRA:          -5.081
REMARK INTER:                  -5.053
REMARK INTRA:                  -0.029
REMARK UNBOUND:                -0.049
REMARK  Name = 
REMARK  3 active torsions:
REMARK  status: ('A' for Active; 'I' for Inactive)
REMARK    1  A    between atoms: C_1  and  O_2
REMARK    2  A    between atoms: O_2  and  C_3
REMARK    3  A    between atoms: C_8  and  O_9
REMARK                            x       y       z     vdW  Elec       q    Type
REMARK                         _______ _______ _______ _____ _____    ______ ____
ROOT
ATOM      1  C   UNL     1      12.253   1.481   7.058  0.00  0.00    +0.000 A 
ATOM      2  C   UNL     1      12.713   1.205   5.771  0.00  0.00    +0.000 A 
ATOM      3  C   UNL     1      11.843   0.658   4.819  0.00  0.00    +0.000 A 
ATOM      4  C   UNL     1      10.515   0.384   5.149  0.00  0.00    +0.000 A 
ATOM      5  C   UNL     1      10.047   0.657   6.433  0.00  0.00    +0.000 A 
ATOM      6  C   UNL     1      10.917   1.200   7.370  0.00  0.00    +0.000 A 
ENDROOT
BRANCH   1   8
ATOM      7  C   UNL     1      13.208   3.420   8.046  0.00  0.00    +0.000 C 
ATOM      8  O   UNL     1      12.989   2.015   8.085  0.00  0.00    +0.000 OA
ENDBRANCH   1   8
BRANCH   6   9
ATOM      9  O   UNL     1      10.434   1.460   8.625  0.00  0.00    +0.000 OA
ATOM     10  H   UNL     1       9.877   0.688   8.842  0.00  0.00    +0.000 HD
ENDBRANCH   6   9
TORSDOF 2
ENDMDL
MODEL 6
REMARK VINA RESULT:    -4.615      1.379      2.077
REMARK INTER + INTRA:          -5.068
REMARK INTER:                  -5.016
REMARK INTRA:                  -0.053
REMARK UNBOUND:                -0.049
REMARK  Name = 
REMARK  3 active torsions:
REMARK  status: ('A' for Active; 'I' for Inactive)
REMARK    1  A    between atoms: C_1  and  O_2
REMARK    2  A    between atoms: O_2  and  C_3
REMARK    3  A    between atoms: C_8  and  O_9
REMARK                            x       y       z     vdW  Elec       q    Type
REMARK                         _______ _______ _______ _____ _____    ______ ____
ROOT
ATOM      1  C   UNL     1      12.361   1.451   6.919  0.00  0.00    +0.000 A 
ATOM      2  C   UNL     1      11.213   0.977   7.552  0.00  0.00    +0.000 A 
ATOM      3  C   UNL     1      10.196   0.375   6.800  0.00  0.00    +0.000 A 
ATOM      4  C   UNL     1      10.323   0.245   5.416  0.00  0.00    +0.000 A 
ATOM      5  C   UNL     1      11.467   0.715   4.776  0.00  0.00    +0.000 A 
ATOM      6  C   UNL     1      12.470   1.311   5.530  0.00  0.00    +0.000 A 
ENDROOT
BRANCH   1   8
ATOM      7  C   UNL     1      13.186   3.333   8.111  0.00  0.00    +0.000 C 
ATOM      8  O   UNL     1      13.430   2.059   7.526  0.00  0.00    +0.000 OA
ENDBRANCH   1   8
BRANCH   6   9
ATOM      9  O   UNL     1      13.585   1.766   4.878  0.00  0.00    +0.000 OA
ATOM     10  H   UNL     1      14.330   1.302   5.307  0.00  0.00    +0.000 HD
ENDBRANCH   6   9
TORSDOF 2
ENDMDL
MODEL 7
REMARK VINA RESULT:    -4.605      1.255      2.306
REMARK INTER + INTRA:          -5.057
REMARK INTER:                  -5.031
REMARK INTRA:                  -0.026
REMARK UNBOUND:                -0.049
REMARK  Name = 
REMARK  3 active torsions:
REMARK  status: ('A' for Active; 'I' for Inactive)
REMARK    1  A    between atoms: C_1  and  O_2
REMARK    2  A    between atoms: O_2  and  C_3
REMARK    3  A    between atoms: C_8  and  O_9
REMARK                            x       y       z     vdW  Elec       q    Type
REMARK                         _______ _______ _______ _____ _____    ______ ____
ROOT
ATOM      1  C   UNL     1      12.826   1.145   5.906  0.00  0.00    +0.000 A 
ATOM      2  C   UNL     1      11.965   0.832   4.855  0.00  0.00    +0.000 A 
ATOM      3  C   UNL     1      10.629   0.503   5.118  0.00  0.00    +0.000 A 
ATOM      4  C   UNL     1      10.150   0.486   6.430  0.00  0.00    +0.000 A 
ATOM      5  C   UNL     1      11.004   0.799   7.485  0.00  0.00    +0.000 A 
ATOM      6  C   UNL     1      12.327   1.123   7.214  0.00  0.00    +0.000 A 
ENDROOT
BRANCH   1   8
ATOM      7  C   UNL     1      14.435   2.821   5.407  0.00  0.00    +0.000 C 
ATOM      8  O   UNL     1      14.151   1.483   5.796  0.00  0.00    +0.000 OA
ENDBRANCH   1   8
BRANCH   6   9
ATOM      9  O   UNL     1      13.147   1.426   8.268  0.00  0.00    +0.000 OA
ATOM     10  H   UNL     1      12.609   2.002   8.844  0.00  0.00    +0.000 HD
ENDBRANCH   6   9
TORSDOF 2
ENDMDL
MODEL 8
REMARK VINA RESULT:    -4.560     11.454     12.109
REMARK INTER + INTRA:          -5.009
REMARK INTER:                  -4.957
REMARK INTRA:                  -0.052
REMARK UNBOUND:                -0.049
REMARK  Name = 
REMARK  3 active torsions:
REMARK  status: ('A' for Active; 'I' for Inactive)
REMARK    1  A    between atoms: C_1  and  O_2
REMARK    2  A    between atoms: O_2  and  C_3
REMARK    3  A    between atoms: C_8  and  O_9
REMARK                            x       y       z     vdW  Elec       q    Type
REMARK                         _______ _______ _______ _____ _____    ______ ____
ROOT
ATOM      1  C   UNL     1       6.490  -7.755   9.587  0.00  0.00    +0.000 A 
ATOM      2  C   UNL     1       5.222  -7.188   9.467  0.00  0.00    +0.000 A 
ATOM      3  C   UNL     1       4.300  -7.722   8.559  0.00  0.00    +0.000 A 
ATOM      4  C   UNL     1       4.640  -8.822   7.769  0.00  0.00    +0.000 A 
ATOM      5  C   UNL     1       5.905  -9.394   7.883  0.00  0.00    +0.000 A 
ATOM      6  C   UNL     1       6.814  -8.858   8.786  0.00  0.00    +0.000 A 
ENDROOT
BRANCH   1   8
ATOM      7  C   UNL     1       7.193  -7.352  11.821  0.00  0.00    +0.000 C 
ATOM      8  O   UNL     1       7.489  -7.338  10.430  0.00  0.00    +0.000 OA
ENDBRANCH   1   8
BRANCH   6   9
ATOM      9  O   UNL     1       8.051  -9.437   8.881  0.00  0.00    +0.000 OA
ATOM     10  H   UNL     1       8.402  -9.134   9.739  0.00  0.00    +0.000 HD
ENDBRANCH   6   9
TORSDOF 2
ENDMDL
MODEL 9
REMARK VINA RESULT:    -4.538      1.868      3.142
REMARK INTER + INTRA:          -4.985
REMARK INTER:                  -4.960
REMARK INTRA:                  -0.024
REMARK UNBOUND:                -0.049
REMARK  Name = 
REMARK  3 active torsions:
REMARK  status: ('A' for Active; 'I' for Inactive)
REMARK    1  A    between atoms: C_1  and  O_2
REMARK    2  A    between atoms: O_2  and  C_3
REMARK    3  A    between atoms: C_8  and  O_9
REMARK                            x       y       z     vdW  Elec       q    Type
REMARK                         _______ _______ _______ _____ _____    ______ ____
ROOT
ATOM      1  C   UNL     1      11.868   1.310   6.216  0.00  0.00    +0.000 A 
ATOM      2  C   UNL     1      12.978   2.041   5.794  0.00  0.00    +0.000 A 
ATOM      3  C   UNL     1      13.493   3.061   6.604  0.00  0.00    +0.000 A 
ATOM      4  C   UNL     1      12.903   3.353   7.835  0.00  0.00    +0.000 A 
ATOM      5  C   UNL     1      11.794   2.627   8.264  0.00  0.00    +0.000 A 
ATOM      6  C   UNL     1      11.290   1.617   7.454  0.00  0.00    +0.000 A 
ENDROOT
BRANCH   1   8
ATOM      7  C   UNL     1      10.378   0.669   4.480  0.00  0.00    +0.000 C 
ATOM      8  O   UNL     1      11.260   0.290   5.529  0.00  0.00    +0.000 OA
ENDBRANCH   1   8
BRANCH   6   9
ATOM      9  O   UNL     1      10.200   0.917   7.897  0.00  0.00    +0.000 OA
ATOM     10  H   UNL     1      10.118   0.167   7.278  0.00  0.00    +0.000 HD
ENDBRANCH   6   9
TORSDOF 2
ENDMDL
