MODEL 1
REMARK VINA RESULT:    -4.700      0.000      0.000
REMARK INTER + INTRA:          -7.064
REMARK INTER:                  -6.348
REMARK INTRA:                  -0.716
REMARK UNBOUND:                -0.716
REMARK  Name = 
REMARK  10 active torsions:
REMARK  status: ('A' for Active; 'I' for Inactive)
REMARK    1  A    between atoms: C_1  and  C_2
REMARK    2  A    between atoms: C_5  and  N_8
REMARK    3  A    between atoms: N_8  and  C_9
REMARK    4  A    between atoms: N_8  and  C_13
REMARK    5  A    between atoms: C_9  and  C_10
REMARK    6  A    between atoms: C_10  and  C_11
REMARK    7  A    between atoms: C_10  and  O_12
REMARK    8  A    between atoms: C_13  and  C_14
REMARK    9  A    between atoms: C_14  and  C_15
REMARK   10  A    between atoms: C_14  and  O_16
REMARK                            x       y       z     vdW  Elec       q    Type
REMARK                         _______ _______ _______ _____ _____    ______ ____
ROOT
ATOM      1  N   UNL     1      15.292   1.350   8.985  0.00  0.00    +0.000 N 
ENDROOT
BRANCH   1   6
ATOM      2  C   UNL     1      12.551  -3.606   7.866  0.00  0.00    +0.000 C 
ATOM      3  C   UNL     1      13.259  -2.313   8.133  0.00  0.00    +0.000 A 
ATOM      4  C   UNL     1      14.641  -2.215   8.005  0.00  0.00    +0.000 A 
ATOM      5  C   UNL     1      15.302  -1.009   8.285  0.00  0.00    +0.000 A 
ATOM      6  C   UNL     1      14.628   0.145   8.726  0.00  0.00    +0.000 A 
ATOM      7  C   UNL     1      13.232   0.010   8.842  0.00  0.00    +0.000 A 
ATOM      8  C   UNL     1      12.558  -1.190   8.563  0.00  0.00    +0.000 A 
ENDBRANCH   1   6
BRANCH   1   9
ATOM      9  C   UNL     1      15.804   2.173   7.863  0.00  0.00    +0.000 C 
BRANCH   9  10
ATOM     10  C   UNL     1      15.130   3.565   7.783  0.00  0.00    +0.000 C 
ATOM     11  C   UNL     1      15.206   4.126   6.368  0.00  0.00    +0.000 C 
BRANCH  10  12
ATOM     12  O   UNL     1      13.748   3.489   8.157  0.00  0.00    +0.000 OA
ATOM     13  H   UNL     1      13.584   2.607   8.531  0.00  0.00    +0.000 HD
ENDBRANCH  10  12
ENDBRANCH   9  10
ENDBRANCH   1   9
BRANCH   1  14
ATOM     14  C   UNL     1      15.950   1.600  10.293  0.00  0.00    +0.000 C 
BRANCH  14  15
ATOM     15  C   UNL     1      14.933   1.983  11.395  0.00  0.00    +0.000 C 
ATOM     16  C   UNL     1      15.591   2.312  12.730  0.00  0.00    +0.000 C 
BRANCH  15  17
ATOM     17  O   UNL     1      14.134   3.101  11.010  0.00  0.00    +0.000 OA
ATOM     18  H   UNL     1      14.770   3.833  10.878  0.00  0.00    +0.000 HD
ENDBRANCH  15  17
ENDBRANCH  14  15
ENDBRANCH   1  14
TORSDOF 7
ENDMDL
MODEL 2
REMARK VINA RESULT:    -4.486      1.288      5.203
REMARK INTER + INTRA:          -6.776
REMARK INTER:                  -6.007
REMARK INTRA:                  -0.769
REMARK UNBOUND:                -0.716
REMARK  Name = 
REMARK  10 active torsions:
REMARK  status: ('A' for Active; 'I' for Inactive)
REMARK    1  A    between atoms: C_1  and  C_2
REMARK    2  A    between atoms: C_5  and  N_8
REMARK    3  A    between atoms: N_8  and  C_9
REMARK    4  A    between atoms: N_8  and  C_13
REMARK    5  A    between atoms: C_9  and  C_10
REMARK    6  A    between atoms: C_10  and  C_11
REMARK    7  A    between atoms: C_10  and  O_12
REMARK    8  A    between atoms: C_13  and  C_14
REMARK    9  A    between atoms: C_14  and  C_15
REMARK   10  A    between atoms: C_14  and  O_16
REMARK                            x       y       z     vdW  Elec       q    Type
REMARK                         _______ _______ _______ _____ _____    ______ ____
ROOT
ATOM      1  N   UNL     1      15.205   1.494   9.228  0.00  0.00    +0.000 N 
ENDROOT
BRANCH   1   6
ATOM      2  C   UNL     1      15.507   5.396   4.984  0.00  0.00    +0.000 C 
ATOM      3  C   UNL     1      15.414   4.369   6.071  0.00  0.00    +0.000 A 
ATOM      4  C   UNL     1      14.416   4.440   7.037  0.00  0.00    +0.000 A 
ATOM      5  C   UNL     1      14.353   3.491   8.071  0.00  0.00    +0.000 A 
ATOM      6  C   UNL     1      15.286   2.448   8.206  0.00  0.00    +0.000 A 
ATOM      7  C   UNL     1      16.279   2.406   7.210  0.00  0.00    +0.000 A 
ATOM      8  C   UNL     1      16.353   3.347   6.169  0.00  0.00    +0.000 A 
ENDBRANCH   1   6
BRANCH   1   9
ATOM      9  C   UNL     1      15.968   1.685  10.485  0.00  0.00    +0.000 C 
BRANCH   9  10
ATOM     10  C   UNL     1      15.054   1.795  11.731  0.00  0.00    +0.000 C 
ATOM     11  C   UNL     1      15.776   2.495  12.876  0.00  0.00    +0.000 C 
BRANCH  10  12
ATOM     12  O   UNL     1      13.865   2.541  11.433  0.00  0.00    +0.000 OA
ATOM     13  H   UNL     1      14.035   3.474  11.642  0.00  0.00    +0.000 HD
ENDBRANCH  10  12
ENDBRANCH   9  10
ENDBRANCH   1   9
BRANCH   1  14
ATOM     14  C   UNL     1      14.818   0.089   8.940  0.00  0.00    +0.000 C 
BRANCH  14  15
ATOM     15  C   UNL     1      13.302  -0.054   8.660  0.00  0.00    +0.000 C 
ATOM     16  C   UNL     1      12.802  -1.487   8.787  0.00  0.00    +0.000 C 
BRANCH  15  17
ATOM     17  O   UNL     1      12.526   0.765   9.534  0.00  0.00    +0.000 OA
ATOM     18  H   UNL     1      13.145   1.039  10.240  0.00  0.00    +0.000 HD
ENDBRANCH  15  17
ENDBRANCH  14  15
ENDBRANCH   1  14
TORSDOF 7
ENDMDL
MODEL 3
REMARK VINA RESULT:    -4.390      0.689      3.050
REMARK INTER + INTRA:          -6.645
REMARK INTER:                  -6.010
REMARK INTRA:                  -0.635
REMARK UNBOUND:                -0.716
REMARK  Name = 
REMARK  10 active torsions:
REMARK  status: ('A' for Active; 'I' for Inactive)
REMARK    1  A    between atoms: C_1  and  C_2
REMARK    2  A    between atoms: C_5  and  N_8
REMARK    3  A    between atoms: N_8  and  C_9
REMARK    4  A    between atoms: N_8  and  C_13
REMARK    5  A    between atoms: C_9  and  C_10
REMARK    6  A    between atoms: C_10  and  C_11
REMARK    7  A    between atoms: C_10  and  O_12
REMARK    8  A    between atoms: C_13  and  C_14
REMARK    9  A    between atoms: C_14  and  C_15
REMARK   10  A    between atoms: C_14  and  O_16
REMARK                            x       y       z     vdW  Elec       q    Type
REMARK                         _______ _______ _______ _____ _____    ______ ____
ROOT
ATOM      1  N   UNL     1      15.613   1.161   8.920  0.00  0.00    +0.000 N 
ENDROOT
BRANCH   1   6
ATOM      2  C   UNL     1      12.191  -3.477   9.254  0.00  0.00    +0.000 C 
ATOM      3  C   UNL     1      13.084  -2.279   9.143  0.00  0.00    +0.000 A 
ATOM      4  C   UNL     1      14.436  -2.364   9.456  0.00  0.00    +0.000 A 
ATOM      5  C   UNL     1      15.262  -1.231   9.379  0.00  0.00    +0.000 A 
ATOM      6  C   UNL     1      14.780   0.039   9.013  0.00  0.00    +0.000 A 
ATOM      7  C   UNL     1      13.409   0.088   8.703  0.00  0.00    +0.000 A 
ATOM      8  C   UNL     1      12.572  -1.038   8.773  0.00  0.00    +0.000 A 
ENDBRANCH   1   6
BRANCH   1   9
ATOM      9  C   UNL     1      16.049   1.867  10.149  0.00  0.00    +0.000 C 
BRANCH   9  10
ATOM     10  C   UNL     1      14.938   1.939  11.225  0.00  0.00    +0.000 C 
ATOM     11  C   UNL     1      15.539   2.062  12.620  0.00  0.00    +0.000 C 
BRANCH  10  12
ATOM     12  O   UNL     1      14.084   3.071  11.008  0.00  0.00    +0.000 OA
ATOM     13  H   UNL     1      13.282   2.760  10.556  0.00  0.00    +0.000 HD
ENDBRANCH  10  12
ENDBRANCH   9  10
ENDBRANCH   1   9
BRANCH   1  14
ATOM     14  C   UNL     1      15.672   1.973   7.678  0.00  0.00    +0.000 C 
BRANCH  14  15
ATOM     15  C   UNL     1      15.156   3.416   7.899  0.00  0.00    +0.000 C 
ATOM     16  C   UNL     1      15.528   4.365   6.766  0.00  0.00    +0.000 C 
BRANCH  15  17
ATOM     17  O   UNL     1      13.739   3.450   8.058  0.00  0.00    +0.000 OA
ATOM     18  H   UNL     1      13.390   3.661   7.168  0.00  0.00    +0.000 HD
ENDBRANCH  15  17
ENDBRANCH  14  15
ENDBRANCH   1  14
TORSDOF 7
ENDMDL
MODEL 4
REMARK VINA RESULT:    -4.338      1.228      3.412
REMARK INTER + INTRA:          -6.575
REMARK INTER:                  -5.997
REMARK INTRA:                  -0.578
REMARK UNBOUND:                -0.716
REMARK  Name = 
REMARK  10 active torsions:
REMARK  status: ('A' for Active; 'I' for Inactive)
REMARK    1  A    between atoms: C_1  and  C_2
REMARK    2  A    between atoms: C_5  and  N_8
REMARK    3  A    between atoms: N_8  and  C_9
REMARK    4  A    between atoms: N_8  and  C_13
REMARK    5  A    between atoms: C_9  and  C_10
REMARK    6  A    between atoms: C_10  and  C_11
REMARK    7  A    between atoms: C_10  and  O_12
REMARK    8  A    between atoms: C_13  and  C_14
REMARK    9  A    between atoms: C_14  and  C_15
REMARK   10  A    between atoms: C_14  and  O_16
REMARK                            x       y       z     vdW  Elec       q    Type
REMARK                         _______ _______ _______ _____ _____    ______ ____
ROOT
ATOM      1  N   UNL     1      14.754   0.926   9.571  0.00  0.00    +0.000 N 
ENDROOT
BRANCH   1   6
ATOM      2  C   UNL     1      12.631  -3.794   7.012  0.00  0.00    +0.000 C 
ATOM      3  C   UNL     1      13.182  -2.581   7.698  0.00  0.00    +0.000 A 
ATOM      4  C   UNL     1      12.336  -1.595   8.194  0.00  0.00    +0.000 A 
ATOM      5  C   UNL     1      12.859  -0.446   8.809  0.00  0.00    +0.000 A 
ATOM      6  C   UNL     1      14.240  -0.213   8.938  0.00  0.00    +0.000 A 
ATOM      7  C   UNL     1      15.065  -1.232   8.428  0.00  0.00    +0.000 A 
ATOM      8  C   UNL     1      14.555  -2.387   7.812  0.00  0.00    +0.000 A 
ENDBRANCH   1   6
BRANCH   1   9
ATOM      9  C   UNL     1      15.433   0.805  10.883  0.00  0.00    +0.000 C 
BRANCH   9  10
ATOM     10  C   UNL     1      15.324   2.092  11.736  0.00  0.00    +0.000 C 
ATOM     11  C   UNL     1      15.129   1.755  13.210  0.00  0.00    +0.000 C 
BRANCH  10  12
ATOM     12  O   UNL     1      16.509   2.891  11.616  0.00  0.00    +0.000 OA
ATOM     13  H   UNL     1      17.197   2.348  11.197  0.00  0.00    +0.000 HD
ENDBRANCH  10  12
ENDBRANCH   9  10
ENDBRANCH   1   9
BRANCH   1  14
ATOM     14  C   UNL     1      14.227   2.280   9.263  0.00  0.00    +0.000 C 
BRANCH  14  15
ATOM     15  C   UNL     1      15.014   2.968   8.121  0.00  0.00    +0.000 C 
ATOM     16  C   UNL     1      14.269   4.145   7.504  0.00  0.00    +0.000 C 
BRANCH  15  17
ATOM     17  O   UNL     1      16.287   3.435   8.566  0.00  0.00    +0.000 OA
ATOM     18  H   UNL     1      16.734   3.758   7.757  0.00  0.00    +0.000 HD
ENDBRANCH  15  17
ENDBRANCH  14  15
ENDBRANCH   1  14
TORSDOF 7
ENDMDL
MODEL 5
REMARK VINA RESULT:    -4.291      1.347      4.434
REMARK INTER + INTRA:          -6.511
REMARK INTER:                  -5.920
REMARK INTRA:                  -0.592
REMARK UNBOUND:                -0.716
REMARK  Name = 
REMARK  10 active torsions:
REMARK  status: ('A' for Active; 'I' for Inactive)
REMARK    1  A    between atoms: C_1  and  C_2
REMARK    2  A    between atoms: C_5  and  N_8
REMARK    3  A    between atoms: N_8  and  C_9
REMARK    4  A    between atoms: N_8  and  C_13
REMARK    5  A    between atoms: C_9  and  C_10
REMARK    6  A    between atoms: C_10  and  C_11
REMARK    7  A    between atoms: C_10  and  O_12
REMARK    8  A    between atoms: C_13  and  C_14
REMARK    9  A    between atoms: C_14  and  C_15
REMARK   10  A    between atoms: C_14  and  O_16
REMARK                            x       y       z     vdW  Elec       q    Type
REMARK                         _______ _______ _______ _____ _____    ______ ____
ROOT
ATOM      1  N   UNL     1      15.585   1.543   9.435  0.00  0.00    +0.000 N 
ENDROOT
BRANCH   1   6
ATOM      2  C   UNL     1      14.936   5.084   4.922  0.00  0.00    +0.000 C 
ATOM      3  C   UNL     1      15.120   4.182   6.103  0.00  0.00    +0.000 A 
ATOM      4  C   UNL     1      16.111   3.206   6.110  0.00  0.00    +0.000 A 
ATOM      5  C   UNL     1      16.259   2.343   7.208  0.00  0.00    +0.000 A 
ATOM      6  C   UNL     1      15.419   2.394   8.335  0.00  0.00    +0.000 A 
ATOM      7  C   UNL     1      14.430   3.394   8.295  0.00  0.00    +0.000 A 
ATOM      8  C   UNL     1      14.272   4.264   7.204  0.00  0.00    +0.000 A 
ENDBRANCH   1   6
BRANCH   1   9
ATOM      9  C   UNL     1      14.996   0.182   9.418  0.00  0.00    +0.000 C 
BRANCH   9  10
ATOM     10  C   UNL     1      13.645   0.123   8.665  0.00  0.00    +0.000 C 
ATOM     11  C   UNL     1      13.264  -1.317   8.342  0.00  0.00    +0.000 C 
BRANCH  10  12
ATOM     12  O   UNL     1      12.591   0.695   9.453  0.00  0.00    +0.000 OA
ATOM     13  H   UNL     1      12.306   1.518   9.022  0.00  0.00    +0.000 HD
ENDBRANCH  10  12
ENDBRANCH   9  10
ENDBRANCH   1   9
BRANCH   1  14
ATOM     14  C   UNL     1      15.869   2.084  10.789  0.00  0.00    +0.000 C 
BRANCH  14  15
ATOM     15  C   UNL     1      14.788   1.676  11.819  0.00  0.00    +0.000 C 
ATOM     16  C   UNL     1      15.224   1.892  13.263  0.00  0.00    +0.000 C 
BRANCH  15  17
ATOM     17  O   UNL     1      13.569   2.389  11.614  0.00  0.00    +0.000 OA
ATOM     18  H   UNL     1      13.746   3.293  11.946  0.00  0.00    +0.000 HD
ENDBRANCH  15  17
ENDBRANCH  14  15
ENDBRANCH   1  14
TORSDOF 7
ENDMDL
MODEL 6
REMARK VINA RESULT:    -4.172      4.640      8.542
REMARK INTER + INTRA:          -6.351
REMARK INTER:                  -6.069
REMARK INTRA:                  -0.282
REMARK UNBOUND:                -0.716
REMARK  Name = 
REMARK  10 active torsions:
REMARK  status: ('A' for Active; 'I' for Inactive)
REMARK    1  A    between atoms: C_1  and  C_2
REMARK    2  A    between atoms: C_5  and  N_8
REMARK    3  A    between atoms: N_8  and  C_9
REMARK    4  A    between atoms: N_8  and  C_13
REMARK    5  A    between atoms: C_9  and  C_10
REMARK    6  A    between atoms: C_10  and  C_11
REMARK    7  A    between atoms: C_10  and  O_12
REMARK    8  A    between atoms: C_13  and  C_14
REMARK    9  A    between atoms: C_14  and  C_15
REMARK   10  A    between atoms: C_14  and  O_16
REMARK                            x       y       z     vdW  Elec       q    Type
REMARK                         _______ _______ _______ _____ _____    ______ ____
ROOT
ATOM      1  N   UNL     1      16.204   5.164   4.809  0.00  0.00    +0.000 N 
ENDROOT
BRANCH   1   6
ATOM      2  C   UNL     1      19.265   9.381   2.325  0.00  0.00    +0.000 C 
ATOM      3  C   UNL     1      18.452   8.292   2.954  0.00  0.00    +0.000 A 
ATOM      4  C   UNL     1      17.654   8.546   4.065  0.00  0.00    +0.000 A 
ATOM      5  C   UNL     1      16.917   7.515   4.668  0.00  0.00    +0.000 A 
ATOM      6  C   UNL     1      16.957   6.184   4.214  0.00  0.00    +0.000 A 
ATOM      7  C   UNL     1      17.772   5.964   3.088  0.00  0.00    +0.000 A 
ATOM      8  C   UNL     1      18.512   6.987   2.474  0.00  0.00    +0.000 A 
ENDBRANCH   1   6
BRANCH   1   9
ATOM      9  C   UNL     1      15.542   4.140   3.965  0.00  0.00    +0.000 C 
BRANCH   9  10
ATOM     10  C   UNL     1      16.493   2.986   3.565  0.00  0.00    +0.000 C 
ATOM     11  C   UNL     1      16.953   2.208   4.792  0.00  0.00    +0.000 C 
BRANCH  10  12
ATOM     12  O   UNL     1      15.843   2.068   2.675  0.00  0.00    +0.000 OA
ATOM     13  H   UNL     1      16.521   1.670   2.104  0.00  0.00    +0.000 HD
ENDBRANCH  10  12
ENDBRANCH   9  10
ENDBRANCH   1   9
BRANCH   1  14
ATOM     14  C   UNL     1      15.618   5.331   6.164  0.00  0.00    +0.000 C 
BRANCH  14  15
ATOM     15  C   UNL     1      14.355   4.460   6.365  0.00  0.00    +0.000 C 
ATOM     16  C   UNL     1      14.348   3.711   7.693  0.00  0.00    +0.000 C 
BRANCH  15  17
ATOM     17  O   UNL     1      13.160   5.237   6.291  0.00  0.00    +0.000 OA
ATOM     18  H   UNL     1      12.475   4.617   5.968  0.00  0.00    +0.000 HD
ENDBRANCH  15  17
ENDBRANCH  14  15
ENDBRANCH   1  14
TORSDOF 7
ENDMDL
MODEL 7
REMARK VINA RESULT:    -4.114      3.423      6.523
REMARK INTER + INTRA:          -6.273
REMARK INTER:                  -5.975
REMARK INTRA:                  -0.297
REMARK UNBOUND:                -0.716
REMARK  Name = 
REMARK  10 active torsions:
REMARK  status: ('A' for Active; 'I' for Inactive)
REMARK    1  A    between atoms: C_1  and  C_2
REMARK    2  A    between atoms: C_5  and  N_8
REMARK    3  A    between atoms: N_8  and  C_9
REMARK    4  A    between atoms: N_8  and  C_13
REMARK    5  A    between atoms: C_9  and  C_10
REMARK    6  A    between atoms: C_10  and  C_11
REMARK    7  A    between atoms: C_10  and  O_12
REMARK    8  A    between atoms: C_13  and  C_14
REMARK    9  A    between atoms: C_14  and  C_15
REMARK   10  A    between atoms: C_14  and  O_16
REMARK                            x       y       z     vdW  Elec       q    Type
REMARK                         _______ _______ _______ _____ _____    ______ ____
ROOT
ATOM      1  N   UNL     1      15.549   2.348  13.347  0.00  0.00    +0.000 N 
ENDROOT
BRANCH   1   6
ATOM      2  C   UNL     1      13.914   0.888  18.687  0.00  0.00    +0.000 C 
ATOM      3  C   UNL     1      14.335   1.243  17.294  0.00  0.00    +0.000 A 
ATOM      4  C   UNL     1      15.674   1.203  16.920  0.00  0.00    +0.000 A 
ATOM      5  C   UNL     1      16.066   1.566  15.622  0.00  0.00    +0.000 A 
ATOM      6  C   UNL     1      15.153   2.006  14.646  0.00  0.00    +0.000 A 
ATOM      7  C   UNL     1      13.808   2.032  15.058  0.00  0.00    +0.000 A 
ATOM      8  C   UNL     1      13.402   1.670  16.353  0.00  0.00    +0.000 A 
ENDBRANCH   1   6
BRANCH   1   9
ATOM      9  C   UNL     1      15.321   1.403  12.227  0.00  0.00    +0.000 C 
BRANCH   9  10
ATOM     10  C   UNL     1      15.171   2.116  10.861  0.00  0.00    +0.000 C 
ATOM     11  C   UNL     1      14.877   1.113   9.752  0.00  0.00    +0.000 C 
BRANCH  10  12
ATOM     12  O   UNL     1      14.101   3.070  10.893  0.00  0.00    +0.000 OA
ATOM     13  H   UNL     1      13.955   3.390   9.987  0.00  0.00    +0.000 HD
ENDBRANCH  10  12
ENDBRANCH   9  10
ENDBRANCH   1   9
BRANCH   1  14
ATOM     14  C   UNL     1      16.616   3.353  13.108  0.00  0.00    +0.000 C 
BRANCH  14  15
ATOM     15  C   UNL     1      16.503   4.564  14.065  0.00  0.00    +0.000 C 
ATOM     16  C   UNL     1      17.853   5.050  14.580  0.00  0.00    +0.000 C 
BRANCH  15  17
ATOM     17  O   UNL     1      15.845   5.668  13.444  0.00  0.00    +0.000 OA
ATOM     18  H   UNL     1      16.261   5.746  12.561  0.00  0.00    +0.000 HD
ENDBRANCH  15  17
ENDBRANCH  14  15
ENDBRANCH   1  14
TORSDOF 7
ENDMDL
MODEL 8
REMARK VINA RESULT:    -4.033      7.330      9.879
REMARK INTER + INTRA:          -6.164
REMARK INTER:                  -5.507
REMARK INTRA:                  -0.656
REMARK UNBOUND:                -0.716
REMARK  Name = 
REMARK  10 active torsions:
REMARK  status: ('A' for Active; 'I' for Inactive)
REMARK    1  A    between atoms: C_1  and  C_2
REMARK    2  A    between atoms: C_5  and  N_8
REMARK    3  A    between atoms: N_8  and  C_9
REMARK    4  A    between atoms: N_8  and  C_13
REMARK    5  A    between atoms: C_9  and  C_10
REMARK    6  A    between atoms: C_10  and  C_11
REMARK    7  A    between atoms: C_10  and  O_12
REMARK    8  A    between atoms: C_13  and  C_14
REMARK    9  A    between atoms: C_14  and  C_15
REMARK   10  A    between atoms: C_14  and  O_16
REMARK                            x       y       z     vdW  Elec       q    Type
REMARK                         _______ _______ _______ _____ _____    ______ ____
ROOT
ATOM      1  N   UNL     1      18.114  -0.782   1.373  0.00  0.00    +0.000 N 
ENDROOT
BRANCH   1   6
ATOM      2  C   UNL     1      17.909   4.602   3.446  0.00  0.00    +0.000 C 
ATOM      3  C   UNL     1      17.973   3.197   2.930  0.00  0.00    +0.000 A 
ATOM      4  C   UNL     1      19.077   2.749   2.212  0.00  0.00    +0.000 A 
ATOM      5  C   UNL     1      19.118   1.440   1.705  0.00  0.00    +0.000 A 
ATOM      6  C   UNL     1      18.059   0.528   1.865  0.00  0.00    +0.000 A 
ATOM      7  C   UNL     1      16.960   1.015   2.597  0.00  0.00    +0.000 A 
ATOM      8  C   UNL     1      16.907   2.320   3.112  0.00  0.00    +0.000 A 
ENDBRANCH   1   6
BRANCH   1   9
ATOM      9  C   UNL     1      17.923  -1.930   2.292  0.00  0.00    +0.000 C 
BRANCH   9  10
ATOM     10  C   UNL     1      16.829  -2.912   1.806  0.00  0.00    +0.000 C 
ATOM     11  C   UNL     1      16.474  -3.917   2.895  0.00  0.00    +0.000 C 
BRANCH  10  12
ATOM     12  O   UNL     1      15.632  -2.210   1.442  0.00  0.00    +0.000 OA
ATOM     13  H   UNL     1      15.638  -1.350   1.894  0.00  0.00    +0.000 HD
ENDBRANCH  10  12
ENDBRANCH   9  10
ENDBRANCH   1   9
BRANCH   1  14
ATOM     14  C   UNL     1      18.841  -1.102   0.118  0.00  0.00    +0.000 C 
BRANCH  14  15
ATOM     15  C   UNL     1      17.892  -1.191  -1.101  0.00  0.00    +0.000 C 
ATOM     16  C   UNL     1      17.684  -2.617  -1.596  0.00  0.00    +0.000 C 
BRANCH  15  17
ATOM     17  O   UNL     1      16.611  -0.632  -0.813  0.00  0.00    +0.000 OA
ATOM     18  H   UNL     1      16.013  -1.402  -0.725  0.00  0.00    +0.000 HD
ENDBRANCH  15  17
ENDBRANCH  14  15
ENDBRANCH   1  14
TORSDOF 7
ENDMDL
MODEL 9
REMARK VINA RESULT:    -3.977      6.730      8.314
REMARK INTER + INTRA:          -6.088
REMARK INTER:                  -5.320
REMARK INTRA:                  -0.767
REMARK UNBOUND:                -0.716
REMARK  Name = 
REMARK  10 active torsions:
REMARK  status: ('A' for Active; 'I' for Inactive)
REMARK    1  A    between atoms: C_1  and  C_2
REMARK    2  A    between atoms: C_5  and  N_8
REMARK    3  A    between atoms: N_8  and  C_9
REMARK    4  A    between atoms: N_8  and  C_13
REMARK    5  A    between atoms: C_9  and  C_10
REMARK    6  A    between atoms: C_10  and  C_11
REMARK    7  A    between atoms: C_10  and  O_12
REMARK    8  A    between atoms: C_13  and  C_14
REMARK    9  A    between atoms: C_14  and  C_15
REMARK   10  A    between atoms: C_14  and  O_16
REMARK                            x       y       z     vdW  Elec       q    Type
REMARK                         _______ _______ _______ _____ _____    ______ ____
ROOT
ATOM      1  N   UNL     1      18.363   5.570   3.971  0.00  0.00    +0.000 N 
ENDROOT
BRANCH   1   6
ATOM      2  C   UNL     1      12.892   4.246   5.254  0.00  0.00    +0.000 C 
ATOM      3  C   UNL     1      14.304   4.611   4.910  0.00  0.00    +0.000 A 
ATOM      4  C   UNL     1      14.882   4.187   3.718  0.00  0.00    +0.000 A 
ATOM      5  C   UNL     1      16.215   4.506   3.415  0.00  0.00    +0.000 A 
ATOM      6  C   UNL     1      17.040   5.238   4.288  0.00  0.00    +0.000 A 
ATOM      7  C   UNL     1      16.422   5.653   5.483  0.00  0.00    +0.000 A 
ATOM      8  C   UNL     1      15.089   5.342   5.797  0.00  0.00    +0.000 A 
ENDBRANCH   1   6
BRANCH   1   9
ATOM      9  C   UNL     1      19.398   4.511   3.898  0.00  0.00    +0.000 C 
BRANCH   9  10
ATOM     10  C   UNL     1      19.734   4.099   2.444  0.00  0.00    +0.000 C 
ATOM     11  C   UNL     1      19.207   2.703   2.137  0.00  0.00    +0.000 C 
BRANCH  10  12
ATOM     12  O   UNL     1      19.151   5.011   1.503  0.00  0.00    +0.000 OA
ATOM     13  H   UNL     1      18.196   4.837   1.467  0.00  0.00    +0.000 HD
ENDBRANCH  10  12
ENDBRANCH   9  10
ENDBRANCH   1   9
BRANCH   1  14
ATOM     14  C   UNL     1      18.888   6.941   4.198  0.00  0.00    +0.000 C 
BRANCH  14  15
ATOM     15  C   UNL     1      18.234   7.981   3.256  0.00  0.00    +0.000 C 
ATOM     16  C   UNL     1      18.465   9.420   3.699  0.00  0.00    +0.000 C 
BRANCH  15  17
ATOM     17  O   UNL     1      18.709   7.849   1.916  0.00  0.00    +0.000 OA
ATOM     18  H   UNL     1      18.532   8.717   1.499  0.00  0.00    +0.000 HD
ENDBRANCH  15  17
ENDBRANCH  14  15
ENDBRANCH   1  14
TORSDOF 7
ENDMDL
