MODEL 1
REMARK VINA RESULT:    -5.601      0.000      0.000
REMARK INTER + INTRA:          -7.880
REMARK INTER:                  -7.566
REMARK INTRA:                  -0.314
REMARK UNBOUND:                -0.314
REMARK  Name = 
REMARK  10 active torsions:
REMARK  status: ('A' for Active; 'I' for Inactive)
REMARK    1  A    between atoms: C_1  and  C_2
REMARK    2  A    between atoms: C_5  and  N_8
REMARK    3  A    between atoms: N_8  and  C_9
REMARK    4  A    between atoms: N_8  and  C_13
REMARK    5  A    between atoms: C_9  and  C_10
REMARK    6  A    between atoms: C_10  and  C_11
REMARK    7  A    between atoms: C_10  and  O_12
REMARK    8  A    between atoms: C_13  and  C_14
REMARK    9  A    between atoms: C_14  and  C_15
REMARK   10  A    between atoms: C_14  and  O_16
REMARK                            x       y       z     vdW  Elec       q    Type
REMARK                         _______ _______ _______ _____ _____    ______ ____
ROOT
ATOM      1  N   UNL     1     -10.711   6.546 -15.313  0.00  0.00    +0.000 N 
ENDROOT
BRANCH   1   6
ATOM      2  C   UNL     1      -8.149   2.065 -17.897  0.00  0.00    +0.000 C 
ATOM      3  C   UNL     1      -8.800   3.223 -17.205  0.00  0.00    +0.000 A 
ATOM      4  C   UNL     1      -9.994   3.061 -16.510  0.00  0.00    +0.000 A 
ATOM      5  C   UNL     1     -10.616   4.157 -15.890  0.00  0.00    +0.000 A 
ATOM      6  C   UNL     1     -10.096   5.462 -15.950  0.00  0.00    +0.000 A 
ATOM      7  C   UNL     1      -8.887   5.589 -16.660  0.00  0.00    +0.000 A 
ATOM      8  C   UNL     1      -8.254   4.501 -17.283  0.00  0.00    +0.000 A 
ENDBRANCH   1   6
BRANCH   1   9
ATOM      9  C   UNL     1     -10.015   7.853 -15.229  0.00  0.00    +0.000 C 
BRANCH   9  10
ATOM     10  C   UNL     1     -10.534   8.878 -16.267  0.00  0.00    +0.000 C 
ATOM     11  C   UNL     1      -9.647   8.897 -17.506  0.00  0.00    +0.000 C 
BRANCH  10  12
ATOM     12  O   UNL     1     -11.870   8.558 -16.681  0.00  0.00    +0.000 OA
ATOM     13  H   UNL     1     -12.449   9.296 -16.428  0.00  0.00    +0.000 HD
ENDBRANCH  10  12
ENDBRANCH   9  10
ENDBRANCH   1   9
BRANCH   1  14
ATOM     14  C   UNL     1     -11.772   6.338 -14.294  0.00  0.00    +0.000 C 
BRANCH  14  15
ATOM     15  C   UNL     1     -11.375   6.909 -12.911  0.00  0.00    +0.000 C 
ATOM     16  C   UNL     1     -12.205   8.120 -12.501  0.00  0.00    +0.000 C 
BRANCH  15  17
ATOM     17  O   UNL     1     -11.488   5.927 -11.883  0.00  0.00    +0.000 OA
ATOM     18  H   UNL     1     -12.450   5.811 -11.749  0.00  0.00    +0.000 HD
ENDBRANCH  15  17
ENDBRANCH  14  15
ENDBRANCH   1  14
TORSDOF 7
ENDMDL
MODEL 2
REMARK VINA RESULT:    -5.510      1.014      3.494
REMARK INTER + INTRA:          -7.758
REMARK INTER:                  -7.210
REMARK INTRA:                  -0.548
REMARK UNBOUND:                -0.314
REMARK  Name = 
REMARK  10 active torsions:
REMARK  status: ('A' for Active; 'I' for Inactive)
REMARK    1  A    between atoms: C_1  and  C_2
REMARK    2  A    between atoms: C_5  and  N_8
REMARK    3  A    between atoms: N_8  and  C_9
REMARK    4  A    between atoms: N_8  and  C_13
REMARK    5  A    between atoms: C_9  and  C_10
REMARK    6  A    between atoms: C_10  and  C_11
REMARK    7  A    between atoms: C_10  and  O_12
REMARK    8  A    between atoms: C_13  and  C_14
REMARK    9  A    between atoms: C_14  and  C_15
REMARK   10  A    between atoms: C_14  and  O_16
REMARK                            x       y       z     vdW  Elec       q    Type
REMARK                         _______ _______ _______ _____ _____    ______ ____
ROOT
ATOM      1  N   UNL     1     -10.599   6.681 -15.220  0.00  0.00    +0.000 N 
ENDROOT
BRANCH   1   6
ATOM      2  C   UNL     1      -8.240   2.139 -17.891  0.00  0.00    +0.000 C 
ATOM      3  C   UNL     1      -8.866   3.323 -17.218  0.00  0.00    +0.000 A 
ATOM      4  C   UNL     1      -8.270   4.578 -17.281  0.00  0.00    +0.000 A 
ATOM      5  C   UNL     1      -8.845   5.677 -16.623  0.00  0.00    +0.000 A 
ATOM      6  C   UNL     1     -10.020   5.576 -15.857  0.00  0.00    +0.000 A 
ATOM      7  C   UNL     1     -10.596   4.293 -15.817  0.00  0.00    +0.000 A 
ATOM      8  C   UNL     1     -10.033   3.186 -16.472  0.00  0.00    +0.000 A 
ENDBRANCH   1   6
BRANCH   1   9
ATOM      9  C   UNL     1     -10.427   6.871 -13.759  0.00  0.00    +0.000 C 
BRANCH   9  10
ATOM     10  C   UNL     1     -11.775   6.945 -13.001  0.00  0.00    +0.000 C 
ATOM     11  C   UNL     1     -12.176   5.576 -12.467  0.00  0.00    +0.000 C 
BRANCH  10  12
ATOM     12  O   UNL     1     -11.691   7.849 -11.890  0.00  0.00    +0.000 OA
ATOM     13  H   UNL     1     -12.593   8.013 -11.567  0.00  0.00    +0.000 HD
ENDBRANCH  10  12
ENDBRANCH   9  10
ENDBRANCH   1   9
BRANCH   1  14
ATOM     14  C   UNL     1     -11.770   7.381 -15.807  0.00  0.00    +0.000 C 
BRANCH  14  15
ATOM     15  C   UNL     1     -11.355   8.419 -16.877  0.00  0.00    +0.000 C 
ATOM     16  C   UNL     1     -10.016   9.085 -16.579  0.00  0.00    +0.000 C 
BRANCH  15  17
ATOM     17  O   UNL     1     -11.278   7.835 -18.176  0.00  0.00    +0.000 OA
ATOM     18  H   UNL     1     -11.542   6.901 -18.050  0.00  0.00    +0.000 HD
ENDBRANCH  15  17
ENDBRANCH  14  15
ENDBRANCH   1  14
TORSDOF 7
ENDMDL
MODEL 3
REMARK VINA RESULT:    -5.144      1.259      3.194
REMARK INTER + INTRA:          -7.262
REMARK INTER:                  -6.547
REMARK INTRA:                  -0.715
REMARK UNBOUND:                -0.314
REMARK  Name = 
REMARK  10 active torsions:
REMARK  status: ('A' for Active; 'I' for Inactive)
REMARK    1  A    between atoms: C_1  and  C_2
REMARK    2  A    between atoms: C_5  and  N_8
REMARK    3  A    between atoms: N_8  and  C_9
REMARK    4  A    between atoms: N_8  and  C_13
REMARK    5  A    between atoms: C_9  and  C_10
REMARK    6  A    between atoms: C_10  and  C_11
REMARK    7  A    between atoms: C_10  and  O_12
REMARK    8  A    between atoms: C_13  and  C_14
REMARK    9  A    between atoms: C_14  and  C_15
REMARK   10  A    between atoms: C_14  and  O_16
REMARK                            x       y       z     vdW  Elec       q    Type
REMARK                         _______ _______ _______ _____ _____    ______ ____
ROOT
ATOM      1  N   UNL     1     -10.875   5.883 -15.750  0.00  0.00    +0.000 N 
ENDROOT
BRANCH   1   6
ATOM      2  C   UNL     1      -7.493   1.679 -17.802  0.00  0.00    +0.000 C 
ATOM      3  C   UNL     1      -8.383   2.771 -17.292  0.00  0.00    +0.000 A 
ATOM      4  C   UNL     1      -8.019   4.107 -17.418  0.00  0.00    +0.000 A 
ATOM      5  C   UNL     1      -8.843   5.125 -16.911  0.00  0.00    +0.000 A 
ATOM      6  C   UNL     1     -10.049   4.863 -16.237  0.00  0.00    +0.000 A 
ATOM      7  C   UNL     1     -10.386   3.501 -16.129  0.00  0.00    +0.000 A 
ATOM      8  C   UNL     1      -9.572   2.473 -16.633  0.00  0.00    +0.000 A 
ENDBRANCH   1   6
BRANCH   1   9
ATOM      9  C   UNL     1     -11.367   5.839 -14.352  0.00  0.00    +0.000 C 
BRANCH   9  10
ATOM     10  C   UNL     1     -10.740   6.938 -13.460  0.00  0.00    +0.000 C 
ATOM     11  C   UNL     1      -9.307   7.234 -13.886  0.00  0.00    +0.000 C 
BRANCH  10  12
ATOM     12  O   UNL     1     -11.489   8.158 -13.543  0.00  0.00    +0.000 OA
ATOM     13  H   UNL     1     -12.134   8.067 -14.264  0.00  0.00    +0.000 HD
ENDBRANCH  10  12
ENDBRANCH   9  10
ENDBRANCH   1   9
BRANCH   1  14
ATOM     14  C   UNL     1     -11.686   6.720 -16.671  0.00  0.00    +0.000 C 
BRANCH  14  15
ATOM     15  C   UNL     1     -10.959   8.029 -17.065  0.00  0.00    +0.000 C 
ATOM     16  C   UNL     1     -11.068   8.352 -18.550  0.00  0.00    +0.000 C 
BRANCH  15  17
ATOM     17  O   UNL     1     -11.455   9.148 -16.332  0.00  0.00    +0.000 OA
ATOM     18  H   UNL     1     -11.305   8.921 -15.392  0.00  0.00    +0.000 HD
ENDBRANCH  15  17
ENDBRANCH  14  15
ENDBRANCH   1  14
TORSDOF 7
ENDMDL
MODEL 4
REMARK VINA RESULT:    -5.024      0.999      1.564
REMARK INTER + INTRA:          -7.101
REMARK INTER:                  -6.962
REMARK INTRA:                  -0.139
REMARK UNBOUND:                -0.314
REMARK  Name = 
REMARK  10 active torsions:
REMARK  status: ('A' for Active; 'I' for Inactive)
REMARK    1  A    between atoms: C_1  and  C_2
REMARK    2  A    between atoms: C_5  and  N_8
REMARK    3  A    between atoms: N_8  and  C_9
REMARK    4  A    between atoms: N_8  and  C_13
REMARK    5  A    between atoms: C_9  and  C_10
REMARK    6  A    between atoms: C_10  and  C_11
REMARK    7  A    between atoms: C_10  and  O_12
REMARK    8  A    between atoms: C_13  and  C_14
REMARK    9  A    between atoms: C_14  and  C_15
REMARK   10  A    between atoms: C_14  and  O_16
REMARK                            x       y       z     vdW  Elec       q    Type
REMARK                         _______ _______ _______ _____ _____    ______ ____
ROOT
ATOM      1  N   UNL     1     -10.508   6.686 -15.926  0.00  0.00    +0.000 N 
ENDROOT
BRANCH   1   6
ATOM      2  C   UNL     1      -7.896   1.843 -17.673  0.00  0.00    +0.000 C 
ATOM      3  C   UNL     1      -8.586   3.101 -17.242  0.00  0.00    +0.000 A 
ATOM      4  C   UNL     1      -8.003   4.345 -17.457  0.00  0.00    +0.000 A 
ATOM      5  C   UNL     1      -8.641   5.519 -17.024  0.00  0.00    +0.000 A 
ATOM      6  C   UNL     1      -9.869   5.510 -16.338  0.00  0.00    +0.000 A 
ATOM      7  C   UNL     1     -10.430   4.235 -16.140  0.00  0.00    +0.000 A 
ATOM      8  C   UNL     1      -9.804   3.053 -16.570  0.00  0.00    +0.000 A 
ENDBRANCH   1   6
BRANCH   1   9
ATOM      9  C   UNL     1      -9.814   7.990 -16.044  0.00  0.00    +0.000 C 
BRANCH   9  10
ATOM     10  C   UNL     1     -10.221   8.773 -17.317  0.00  0.00    +0.000 C 
ATOM     11  C   UNL     1      -9.028   8.961 -18.246  0.00  0.00    +0.000 C 
BRANCH  10  12
ATOM     12  O   UNL     1     -11.245   8.079 -18.043  0.00  0.00    +0.000 OA
ATOM     13  H   UNL     1     -11.033   8.136 -18.990  0.00  0.00    +0.000 HD
ENDBRANCH  10  12
ENDBRANCH   9  10
ENDBRANCH   1   9
BRANCH   1  14
ATOM     14  C   UNL     1     -11.610   6.653 -14.930  0.00  0.00    +0.000 C 
BRANCH  14  15
ATOM     15  C   UNL     1     -11.115   6.978 -13.500  0.00  0.00    +0.000 C 
ATOM     16  C   UNL     1     -11.941   6.302 -12.412  0.00  0.00    +0.000 C 
BRANCH  15  17
ATOM     17  O   UNL     1      -9.751   6.603 -13.317  0.00  0.00    +0.000 OA
ATOM     18  H   UNL     1      -9.236   7.398 -13.562  0.00  0.00    +0.000 HD
ENDBRANCH  15  17
ENDBRANCH  14  15
ENDBRANCH   1  14
TORSDOF 7
ENDMDL
MODEL 5
REMARK VINA RESULT:    -4.117     19.815     21.347
REMARK INTER + INTRA:          -5.876
REMARK INTER:                  -5.313
REMARK INTRA:                  -0.563
REMARK UNBOUND:                -0.314
REMARK  Name = 
REMARK  10 active torsions:
REMARK  status: ('A' for Active; 'I' for Inactive)
REMARK    1  A    between atoms: C_1  and  C_2
REMARK    2  A    between atoms: C_5  and  N_8
REMARK    3  A    between atoms: N_8  and  C_9
REMARK    4  A    between atoms: N_8  and  C_13
REMARK    5  A    between atoms: C_9  and  C_10
REMARK    6  A    between atoms: C_10  and  C_11
REMARK    7  A    between atoms: C_10  and  O_12
REMARK    8  A    between atoms: C_13  and  C_14
REMARK    9  A    between atoms: C_14  and  C_15
REMARK   10  A    between atoms: C_14  and  O_16
REMARK                            x       y       z     vdW  Elec       q    Type
REMARK                         _______ _______ _______ _____ _____    ______ ____
ROOT
ATOM      1  N   UNL     1       3.917  21.676 -14.923  0.00  0.00    +0.000 N 
ENDROOT
BRANCH   1   6
ATOM      2  C   UNL     1      -1.192  22.937 -12.548  0.00  0.00    +0.000 C 
ATOM      3  C   UNL     1       0.122  22.593 -13.179  0.00  0.00    +0.000 A 
ATOM      4  C   UNL     1       0.944  21.614 -12.630  0.00  0.00    +0.000 A 
ATOM      5  C   UNL     1       2.189  21.317 -13.209  0.00  0.00    +0.000 A 
ATOM      6  C   UNL     1       2.683  21.991 -14.340  0.00  0.00    +0.000 A 
ATOM      7  C   UNL     1       1.825  22.973 -14.870  0.00  0.00    +0.000 A 
ATOM      8  C   UNL     1       0.577  23.278 -14.302  0.00  0.00    +0.000 A 
ENDBRANCH   1   6
BRANCH   1   9
ATOM      9  C   UNL     1       5.165  21.798 -14.132  0.00  0.00    +0.000 C 
BRANCH   9  10
ATOM     10  C   UNL     1       6.424  21.379 -14.931  0.00  0.00    +0.000 C 
ATOM     11  C   UNL     1       7.694  21.842 -14.227  0.00  0.00    +0.000 C 
BRANCH  10  12
ATOM     12  O   UNL     1       6.491  19.954 -15.076  0.00  0.00    +0.000 OA
ATOM     13  H   UNL     1       7.375  19.664 -14.796  0.00  0.00    +0.000 HD
ENDBRANCH  10  12
ENDBRANCH   9  10
ENDBRANCH   1   9
BRANCH   1  14
ATOM     14  C   UNL     1       4.104  21.718 -16.396  0.00  0.00    +0.000 C 
BRANCH  14  15
ATOM     15  C   UNL     1       3.419  20.525 -17.105  0.00  0.00    +0.000 C 
ATOM     16  C   UNL     1       2.989  20.843 -18.532  0.00  0.00    +0.000 C 
BRANCH  15  17
ATOM     17  O   UNL     1       4.267  19.378 -17.145  0.00  0.00    +0.000 OA
ATOM     18  H   UNL     1       4.965  19.557 -16.484  0.00  0.00    +0.000 HD
ENDBRANCH  15  17
ENDBRANCH  14  15
ENDBRANCH   1  14
TORSDOF 7
ENDMDL
MODEL 6
REMARK VINA RESULT:    -4.054     19.539     21.253
REMARK INTER + INTRA:          -5.791
REMARK INTER:                  -5.189
REMARK INTRA:                  -0.602
REMARK UNBOUND:                -0.314
REMARK  Name = 
REMARK  10 active torsions:
REMARK  status: ('A' for Active; 'I' for Inactive)
REMARK    1  A    between atoms: C_1  and  C_2
REMARK    2  A    between atoms: C_5  and  N_8
REMARK    3  A    between atoms: N_8  and  C_9
REMARK    4  A    between atoms: N_8  and  C_13
REMARK    5  A    between atoms: C_9  and  C_10
REMARK    6  A    between atoms: C_10  and  C_11
REMARK    7  A    between atoms: C_10  and  O_12
REMARK    8  A    between atoms: C_13  and  C_14
REMARK    9  A    between atoms: C_14  and  C_15
REMARK   10  A    between atoms: C_14  and  O_16
REMARK                            x       y       z     vdW  Elec       q    Type
REMARK                         _______ _______ _______ _____ _____    ______ ____
ROOT
ATOM      1  N   UNL     1       3.989  22.078 -15.186  0.00  0.00    +0.000 N 
ENDROOT
BRANCH   1   6
ATOM      2  C   UNL     1      -1.436  22.595 -13.283  0.00  0.00    +0.000 C 
ATOM      3  C   UNL     1      -0.021  22.479 -13.761  0.00  0.00    +0.000 A 
ATOM      4  C   UNL     1       0.430  23.224 -14.845  0.00  0.00    +0.000 A 
ATOM      5  C   UNL     1       1.749  23.089 -15.307  0.00  0.00    +0.000 A 
ATOM      6  C   UNL     1       2.669  22.193 -14.732  0.00  0.00    +0.000 A 
ATOM      7  C   UNL     1       2.179  21.458 -13.638  0.00  0.00    +0.000 A 
ATOM      8  C   UNL     1       0.863  21.585 -13.164  0.00  0.00    +0.000 A 
ENDBRANCH   1   6
BRANCH   1   9
ATOM      9  C   UNL     1       4.260  21.715 -16.598  0.00  0.00    +0.000 C 
BRANCH   9  10
ATOM     10  C   UNL     1       3.441  20.489 -17.071  0.00  0.00    +0.000 C 
ATOM     11  C   UNL     1       2.842  20.733 -18.451  0.00  0.00    +0.000 C 
BRANCH  10  12
ATOM     12  O   UNL     1       4.264  19.316 -17.144  0.00  0.00    +0.000 OA
ATOM     13  H   UNL     1       4.677  19.293 -18.023  0.00  0.00    +0.000 HD
ENDBRANCH  10  12
ENDBRANCH   9  10
ENDBRANCH   1   9
BRANCH   1  14
ATOM     14  C   UNL     1       5.105  21.801 -14.245  0.00  0.00    +0.000 C 
BRANCH  14  15
ATOM     15  C   UNL     1       6.394  21.363 -14.980  0.00  0.00    +0.000 C 
ATOM     16  C   UNL     1       7.665  21.903 -14.336  0.00  0.00    +0.000 C 
BRANCH  15  17
ATOM     17  O   UNL     1       6.504  19.942 -15.051  0.00  0.00    +0.000 OA
ATOM     18  H   UNL     1       7.463  19.759 -14.981  0.00  0.00    +0.000 HD
ENDBRANCH  15  17
ENDBRANCH  14  15
ENDBRANCH   1  14
TORSDOF 7
ENDMDL
MODEL 7
REMARK VINA RESULT:    -3.977     18.023     20.116
REMARK INTER + INTRA:          -5.686
REMARK INTER:                  -5.044
REMARK INTRA:                  -0.643
REMARK UNBOUND:                -0.314
REMARK  Name = 
REMARK  10 active torsions:
REMARK  status: ('A' for Active; 'I' for Inactive)
REMARK    1  A    between atoms: C_1  and  C_2
REMARK    2  A    between atoms: C_5  and  N_8
REMARK    3  A    between atoms: N_8  and  C_9
REMARK    4  A    between atoms: N_8  and  C_13
REMARK    5  A    between atoms: C_9  and  C_10
REMARK    6  A    between atoms: C_10  and  C_11
REMARK    7  A    between atoms: C_10  and  O_12
REMARK    8  A    between atoms: C_13  and  C_14
REMARK    9  A    between atoms: C_14  and  C_15
REMARK   10  A    between atoms: C_14  and  O_16
REMARK                            x       y       z     vdW  Elec       q    Type
REMARK                         _______ _______ _______ _____ _____    ______ ____
ROOT
ATOM      1  N   UNL     1      -5.391  22.524  -4.604  0.00  0.00    +0.000 N 
ENDROOT
BRANCH   1   6
ATOM      2  C   UNL     1      -5.612  21.918 -10.341  0.00  0.00    +0.000 C 
ATOM      3  C   UNL     1      -5.531  22.083  -8.854  0.00  0.00    +0.000 A 
ATOM      4  C   UNL     1      -5.173  21.016  -8.036  0.00  0.00    +0.000 A 
ATOM      5  C   UNL     1      -5.128  21.168  -6.641  0.00  0.00    +0.000 A 
ATOM      6  C   UNL     1      -5.457  22.374  -5.995  0.00  0.00    +0.000 A 
ATOM      7  C   UNL     1      -5.813  23.431  -6.853  0.00  0.00    +0.000 A 
ATOM      8  C   UNL     1      -5.860  23.293  -8.251  0.00  0.00    +0.000 A 
ENDBRANCH   1   6
BRANCH   1   9
ATOM      9  C   UNL     1      -6.616  22.376  -3.782  0.00  0.00    +0.000 C 
BRANCH   9  10
ATOM     10  C   UNL     1      -6.520  21.211  -2.767  0.00  0.00    +0.000 C 
ATOM     11  C   UNL     1      -7.906  20.768  -2.314  0.00  0.00    +0.000 C 
BRANCH  10  12
ATOM     12  O   UNL     1      -5.858  20.078  -3.345  0.00  0.00    +0.000 OA
ATOM     13  H   UNL     1      -6.324  19.276  -3.055  0.00  0.00    +0.000 HD
ENDBRANCH  10  12
ENDBRANCH   9  10
ENDBRANCH   1   9
BRANCH   1  14
ATOM     14  C   UNL     1      -4.301  23.305  -3.966  0.00  0.00    +0.000 C 
BRANCH  14  15
ATOM     15  C   UNL     1      -2.965  22.524  -3.933  0.00  0.00    +0.000 C 
ATOM     16  C   UNL     1      -1.748  23.425  -3.754  0.00  0.00    +0.000 C 
BRANCH  15  17
ATOM     17  O   UNL     1      -2.950  21.549  -2.892  0.00  0.00    +0.000 OA
ATOM     18  H   UNL     1      -3.733  21.754  -2.342  0.00  0.00    +0.000 HD
ENDBRANCH  15  17
ENDBRANCH  14  15
ENDBRANCH   1  14
TORSDOF 7
ENDMDL
MODEL 8
REMARK VINA RESULT:    -3.777      1.757      4.010
REMARK INTER + INTRA:          -5.416
REMARK INTER:                  -5.935
REMARK INTRA:                   0.519
REMARK UNBOUND:                -0.314
REMARK  Name = 
REMARK  10 active torsions:
REMARK  status: ('A' for Active; 'I' for Inactive)
REMARK    1  A    between atoms: C_1  and  C_2
REMARK    2  A    between atoms: C_5  and  N_8
REMARK    3  A    between atoms: N_8  and  C_9
REMARK    4  A    between atoms: N_8  and  C_13
REMARK    5  A    between atoms: C_9  and  C_10
REMARK    6  A    between atoms: C_10  and  C_11
REMARK    7  A    between atoms: C_10  and  O_12
REMARK    8  A    between atoms: C_13  and  C_14
REMARK    9  A    between atoms: C_14  and  C_15
REMARK   10  A    between atoms: C_14  and  O_16
REMARK                            x       y       z     vdW  Elec       q    Type
REMARK                         _______ _______ _______ _____ _____    ______ ____
ROOT
ATOM      1  N   UNL     1     -10.233   7.748 -17.009  0.00  0.00    +0.000 N 
ENDROOT
BRANCH   1   6
ATOM      2  C   UNL     1      -9.620   2.068 -16.182  0.00  0.00    +0.000 C 
ATOM      3  C   UNL     1      -9.785   3.538 -16.421  0.00  0.00    +0.000 A 
ATOM      4  C   UNL     1      -8.699   4.329 -16.780  0.00  0.00    +0.000 A 
ATOM      5  C   UNL     1      -8.853   5.712 -16.973  0.00  0.00    +0.000 A 
ATOM      6  C   UNL     1     -10.082   6.372 -16.796  0.00  0.00    +0.000 A 
ATOM      7  C   UNL     1     -11.158   5.541 -16.435  0.00  0.00    +0.000 A 
ATOM      8  C   UNL     1     -11.018   4.157 -16.241  0.00  0.00    +0.000 A 
ENDBRANCH   1   6
BRANCH   1   9
ATOM      9  C   UNL     1     -10.369   8.669 -15.855  0.00  0.00    +0.000 C 
BRANCH   9  10
ATOM     10  C   UNL     1     -11.172   8.050 -14.684  0.00  0.00    +0.000 C 
ATOM     11  C   UNL     1     -10.255   7.709 -13.515  0.00  0.00    +0.000 C 
BRANCH  10  12
ATOM     12  O   UNL     1     -12.176   8.958 -14.212  0.00  0.00    +0.000 OA
ATOM     13  H   UNL     1     -12.030   9.101 -13.262  0.00  0.00    +0.000 HD
ENDBRANCH  10  12
ENDBRANCH   9  10
ENDBRANCH   1   9
BRANCH   1  14
ATOM     14  C   UNL     1     -10.766   8.274 -18.292  0.00  0.00    +0.000 C 
BRANCH  14  15
ATOM     15  C   UNL     1      -9.656   8.452 -19.356  0.00  0.00    +0.000 C 
ATOM     16  C   UNL     1      -8.792   9.686 -19.120  0.00  0.00    +0.000 C 
BRANCH  15  17
ATOM     17  O   UNL     1      -8.795   7.315 -19.416  0.00  0.00    +0.000 OA
ATOM     18  H   UNL     1      -8.456   7.207 -18.505  0.00  0.00    +0.000 HD
ENDBRANCH  15  17
ENDBRANCH  14  15
ENDBRANCH   1  14
TORSDOF 7
ENDMDL
MODEL 9
REMARK VINA RESULT:    -3.630     16.558     17.419
REMARK INTER + INTRA:          -5.218
REMARK INTER:                  -4.630
REMARK INTRA:                  -0.588
REMARK UNBOUND:                -0.314
REMARK  Name = 
REMARK  10 active torsions:
REMARK  status: ('A' for Active; 'I' for Inactive)
REMARK    1  A    between atoms: C_1  and  C_2
REMARK    2  A    between atoms: C_5  and  N_8
REMARK    3  A    between atoms: N_8  and  C_9
REMARK    4  A    between atoms: N_8  and  C_13
REMARK    5  A    between atoms: C_9  and  C_10
REMARK    6  A    between atoms: C_10  and  C_11
REMARK    7  A    between atoms: C_10  and  O_12
REMARK    8  A    between atoms: C_13  and  C_14
REMARK    9  A    between atoms: C_14  and  C_15
REMARK   10  A    between atoms: C_14  and  O_16
REMARK                            x       y       z     vdW  Elec       q    Type
REMARK                         _______ _______ _______ _____ _____    ______ ____
ROOT
ATOM      1  N   UNL     1      -4.826  22.337 -15.002  0.00  0.00    +0.000 N 
ENDROOT
BRANCH   1   6
ATOM      2  C   UNL     1      -8.812  22.981 -19.129  0.00  0.00    +0.000 C 
ATOM      3  C   UNL     1      -7.770  22.793 -18.069  0.00  0.00    +0.000 A 
ATOM      4  C   UNL     1      -8.064  22.115 -16.890  0.00  0.00    +0.000 A 
ATOM      5  C   UNL     1      -7.092  21.968 -15.887  0.00  0.00    +0.000 A 
ATOM      6  C   UNL     1      -5.797  22.505 -15.998  0.00  0.00    +0.000 A 
ATOM      7  C   UNL     1      -5.534  23.181 -17.203  0.00  0.00    +0.000 A 
ATOM      8  C   UNL     1      -6.496  23.334 -18.215  0.00  0.00    +0.000 A 
ENDBRANCH   1   6
BRANCH   1   9
ATOM      9  C   UNL     1      -3.423  22.744 -15.255  0.00  0.00    +0.000 C 
BRANCH   9  10
ATOM     10  C   UNL     1      -2.493  21.541 -15.546  0.00  0.00    +0.000 C 
ATOM     11  C   UNL     1      -2.245  21.393 -17.043  0.00  0.00    +0.000 C 
BRANCH  10  12
ATOM     12  O   UNL     1      -1.223  21.704 -14.899  0.00  0.00    +0.000 OA
ATOM     13  H   UNL     1      -1.098  22.650 -14.715  0.00  0.00    +0.000 HD
ENDBRANCH  10  12
ENDBRANCH   9  10
ENDBRANCH   1   9
BRANCH   1  14
ATOM     14  C   UNL     1      -5.000  21.334 -13.920  0.00  0.00    +0.000 C 
BRANCH  14  15
ATOM     15  C   UNL     1      -5.134  21.995 -12.527  0.00  0.00    +0.000 C 
ATOM     16  C   UNL     1      -5.968  23.270 -12.545  0.00  0.00    +0.000 C 
BRANCH  15  17
ATOM     17  O   UNL     1      -5.710  21.103 -11.573  0.00  0.00    +0.000 OA
ATOM     18  H   UNL     1      -5.880  20.278 -12.070  0.00  0.00    +0.000 HD
ENDBRANCH  15  17
ENDBRANCH  14  15
ENDBRANCH   1  14
TORSDOF 7
ENDMDL
