MODEL 1
REMARK VINA RESULT:    -4.047      0.000      0.000
REMARK INTER + INTRA:          -4.450
REMARK INTER:                  -4.402
REMARK INTRA:                  -0.048
REMARK UNBOUND:                -0.048
REMARK  Name = 
REMARK  3 active torsions:
REMARK  status: ('A' for Active; 'I' for Inactive)
REMARK    1  A    between atoms: C_1  and  O_2
REMARK    2  A    between atoms: O_2  and  C_3
REMARK    3  A    between atoms: C_8  and  O_9
REMARK                            x       y       z     vdW  Elec       q    Type
REMARK                         _______ _______ _______ _____ _____    ______ ____
ROOT
ATOM      1  C   UNL     1       2.884   8.749   4.731  0.00  0.00    +0.000 A 
ATOM      2  C   UNL     1       3.141   9.262   6.002  0.00  0.00    +0.000 A 
ATOM      3  C   UNL     1       2.080   9.526   6.877  0.00  0.00    +0.000 A 
ATOM      4  C   UNL     1       0.762   9.282   6.486  0.00  0.00    +0.000 A 
ATOM      5  C   UNL     1       0.498   8.770   5.218  0.00  0.00    +0.000 A 
ATOM      6  C   UNL     1       1.556   8.510   4.356  0.00  0.00    +0.000 A 
ENDROOT
BRANCH   1   8
ATOM      7  C   UNL     1       4.936   7.674   4.202  0.00  0.00    +0.000 C 
ATOM      8  O   UNL     1       3.820   8.445   3.775  0.00  0.00    +0.000 OA
ENDBRANCH   1   8
BRANCH   6   9
ATOM      9  O   UNL     1       1.271   8.007   3.115  0.00  0.00    +0.000 OA
ATOM     10  H   UNL     1       2.128   7.686   2.775  0.00  0.00    +0.000 HD
ENDBRANCH   6   9
TORSDOF 2
ENDMDL
MODEL 2
REMARK VINA RESULT:    -4.007      1.630      3.499
REMARK INTER + INTRA:          -4.406
REMARK INTER:                  -4.353
REMARK INTRA:                  -0.053
REMARK UNBOUND:                -0.048
REMARK  Name = 
REMARK  3 active torsions:
REMARK  status: ('A' for Active; 'I' for Inactive)
REMARK    1  A    between atoms: C_1  and  O_2
REMARK    2  A    between atoms: O_2  and  C_3
REMARK    3  A    between atoms: C_8  and  O_9
REMARK                            x       y       z     vdW  Elec       q    Type
REMARK                         _______ _______ _______ _____ _____    ______ ____
ROOT
ATOM      1  C   UNL     1       2.186   8.460   4.644  0.00  0.00    +0.000 A 
ATOM      2  C   UNL     1       2.837   9.530   4.032  0.00  0.00    +0.000 A 
ATOM      3  C   UNL     1       4.216   9.465   3.792  0.00  0.00    +0.000 A 
ATOM      4  C   UNL     1       4.946   8.335   4.162  0.00  0.00    +0.000 A 
ATOM      5  C   UNL     1       4.302   7.261   4.773  0.00  0.00    +0.000 A 
ATOM      6  C   UNL     1       2.935   7.334   5.008  0.00  0.00    +0.000 A 
ENDROOT
BRANCH   1   8
ATOM      7  C   UNL     1       0.365   9.293   5.924  0.00  0.00    +0.000 C 
ATOM      8  O   UNL     1       0.848   8.387   4.939  0.00  0.00    +0.000 OA
ENDBRANCH   1   8
BRANCH   6   9
ATOM      9  O   UNL     1       2.324   6.267   5.610  0.00  0.00    +0.000 OA
ATOM     10  H   UNL     1       2.828   6.125   6.434  0.00  0.00    +0.000 HD
ENDBRANCH   6   9
TORSDOF 2
ENDMDL
MODEL 3
REMARK VINA RESULT:    -3.816     19.751     21.095
REMARK INTER + INTRA:          -4.198
REMARK INTER:                  -4.161
REMARK INTRA:                  -0.037
REMARK UNBOUND:                -0.048
REMARK  Name = 
REMARK  3 active torsions:
REMARK  status: ('A' for Active; 'I' for Inactive)
REMARK    1  A    between atoms: C_1  and  O_2
REMARK    2  A    between atoms: O_2  and  C_3
REMARK    3  A    between atoms: C_8  and  O_9
REMARK                            x       y       z     vdW  Elec       q    Type
REMARK                         _______ _______ _______ _____ _____    ______ ____
ROOT
ATOM      1  C   UNL     1      17.670  -6.156   6.670  0.00  0.00    +0.000 A 
ATOM      2  C   UNL     1      18.427  -5.508   5.696  0.00  0.00    +0.000 A 
ATOM      3  C   UNL     1      18.378  -4.113   5.585  0.00  0.00    +0.000 A 
ATOM      4  C   UNL     1      17.574  -3.362   6.444  0.00  0.00    +0.000 A 
ATOM      5  C   UNL     1      16.815  -4.002   7.421  0.00  0.00    +0.000 A 
ATOM      6  C   UNL     1      16.869  -5.386   7.524  0.00  0.00    +0.000 A 
ENDROOT
BRANCH   1   8
ATOM      7  C   UNL     1      18.420  -8.322   6.042  0.00  0.00    +0.000 C 
ATOM      8  O   UNL     1      17.620  -7.509   6.892  0.00  0.00    +0.000 OA
ENDBRANCH   1   8
BRANCH   6   9
ATOM      9  O   UNL     1      16.114  -5.993   8.491  0.00  0.00    +0.000 OA
ATOM     10  H   UNL     1      15.314  -5.439   8.565  0.00  0.00    +0.000 HD
ENDBRANCH   6   9
TORSDOF 2
ENDMDL
MODEL 4
REMARK VINA RESULT:    -3.472     20.053     21.346
REMARK INTER + INTRA:          -3.825
REMARK INTER:                  -3.786
REMARK INTRA:                  -0.039
REMARK UNBOUND:                -0.048
REMARK  Name = 
REMARK  3 active torsions:
REMARK  status: ('A' for Active; 'I' for Inactive)
REMARK    1  A    between atoms: C_1  and  O_2
REMARK    2  A    between atoms: O_2  and  C_3
REMARK    3  A    between atoms: C_8  and  O_9
REMARK                            x       y       z     vdW  Elec       q    Type
REMARK                         _______ _______ _______ _____ _____    ______ ____
ROOT
ATOM      1  C   UNL     1      17.948  -6.409   6.584  0.00  0.00    +0.000 A 
ATOM      2  C   UNL     1      17.542  -6.578   7.907  0.00  0.00    +0.000 A 
ATOM      3  C   UNL     1      17.049  -5.487   8.633  0.00  0.00    +0.000 A 
ATOM      4  C   UNL     1      16.962  -4.225   8.042  0.00  0.00    +0.000 A 
ATOM      5  C   UNL     1      17.365  -4.048   6.720  0.00  0.00    +0.000 A 
ATOM      6  C   UNL     1      17.852  -5.136   6.008  0.00  0.00    +0.000 A 
ENDROOT
BRANCH   1   8
ATOM      7  C   UNL     1      18.138  -8.728   6.103  0.00  0.00    +0.000 C 
ATOM      8  O   UNL     1      18.448  -7.383   5.758  0.00  0.00    +0.000 OA
ENDBRANCH   1   8
BRANCH   6   9
ATOM      9  O   UNL     1      18.243  -4.937   4.710  0.00  0.00    +0.000 OA
ATOM     10  H   UNL     1      19.116  -5.370   4.645  0.00  0.00    +0.000 HD
ENDBRANCH   6   9
TORSDOF 2
ENDMDL
MODEL 5
REMARK VINA RESULT:    -3.132     27.351     27.867
REMARK INTER + INTRA:          -3.454
REMARK INTER:                  -3.430
REMARK INTRA:                  -0.024
REMARK UNBOUND:                -0.048
REMARK  Name = 
REMARK  3 active torsions:
REMARK  status: ('A' for Active; 'I' for Inactive)
REMARK    1  A    between atoms: C_1  and  O_2
REMARK    2  A    between atoms: O_2  and  C_3
REMARK    3  A    between atoms: C_8  and  O_9
REMARK                            x       y       z     vdW  Elec       q    Type
REMARK                         _______ _______ _______ _____ _____    ______ ____
ROOT
ATOM      1  C   UNL     1      16.882  -9.722  20.180  0.00  0.00    +0.000 A 
ATOM      2  C   UNL     1      17.224  -9.581  18.836  0.00  0.00    +0.000 A 
ATOM      3  C   UNL     1      16.430 -10.173  17.846  0.00  0.00    +0.000 A 
ATOM      4  C   UNL     1      15.295 -10.908  18.194  0.00  0.00    +0.000 A 
ATOM      5  C   UNL     1      14.947 -11.053  19.535  0.00  0.00    +0.000 A 
ATOM      6  C   UNL     1      15.740 -10.463  20.510  0.00  0.00    +0.000 A 
ENDROOT
BRANCH   1   8
ATOM      7  C   UNL     1      17.341  -7.825  21.535  0.00  0.00    +0.000 C 
ATOM      8  O   UNL     1      17.564  -9.200  21.250  0.00  0.00    +0.000 OA
ENDBRANCH   1   8
BRANCH   6   9
ATOM      9  O   UNL     1      15.378 -10.620  21.821  0.00  0.00    +0.000 OA
ATOM     10  H   UNL     1      16.140 -10.287  22.332  0.00  0.00    +0.000 HD
ENDBRANCH   6   9
TORSDOF 2
ENDMDL
MODEL 6
REMARK VINA RESULT:    -3.063     18.080     19.380
REMARK INTER + INTRA:          -3.380
REMARK INTER:                  -3.341
REMARK INTRA:                  -0.038
REMARK UNBOUND:                -0.048
REMARK  Name = 
REMARK  3 active torsions:
REMARK  status: ('A' for Active; 'I' for Inactive)
REMARK    1  A    between atoms: C_1  and  O_2
REMARK    2  A    between atoms: O_2  and  C_3
REMARK    3  A    between atoms: C_8  and  O_9
REMARK                            x       y       z     vdW  Elec       q    Type
REMARK                         _______ _______ _______ _____ _____    ______ ____
ROOT
ATOM      1  C   UNL     1      16.869   6.618  16.596  0.00  0.00    +0.000 A 
ATOM      2  C   UNL     1      16.743   7.359  17.770  0.00  0.00    +0.000 A 
ATOM      3  C   UNL     1      17.296   6.879  18.963  0.00  0.00    +0.000 A 
ATOM      4  C   UNL     1      17.976   5.660  18.989  0.00  0.00    +0.000 A 
ATOM      5  C   UNL     1      18.107   4.914  17.820  0.00  0.00    +0.000 A 
ATOM      6  C   UNL     1      17.554   5.397  16.641  0.00  0.00    +0.000 A 
ENDROOT
BRANCH   1   8
ATOM      7  C   UNL     1      15.373   7.967  15.337  0.00  0.00    +0.000 C 
ATOM      8  O   UNL     1      16.379   6.963  15.362  0.00  0.00    +0.000 OA
ENDBRANCH   1   8
BRANCH   6   9
ATOM      9  O   UNL     1      17.696   4.645  15.505  0.00  0.00    +0.000 OA
ATOM     10  H   UNL     1      18.497   4.110  15.659  0.00  0.00    +0.000 HD
ENDBRANCH   6   9
TORSDOF 2
ENDMDL
MODEL 7
REMARK VINA RESULT:    -3.013     17.925     18.614
REMARK INTER + INTRA:          -3.325
REMARK INTER:                  -3.281
REMARK INTRA:                  -0.044
REMARK UNBOUND:                -0.048
REMARK  Name = 
REMARK  3 active torsions:
REMARK  status: ('A' for Active; 'I' for Inactive)
REMARK    1  A    between atoms: C_1  and  O_2
REMARK    2  A    between atoms: O_2  and  C_3
REMARK    3  A    between atoms: C_8  and  O_9
REMARK                            x       y       z     vdW  Elec       q    Type
REMARK                         _______ _______ _______ _____ _____    ______ ____
ROOT
ATOM      1  C   UNL     1      16.903   7.021  15.995  0.00  0.00    +0.000 A 
ATOM      2  C   UNL     1      17.122   8.197  15.277  0.00  0.00    +0.000 A 
ATOM      3  C   UNL     1      17.895   8.170  14.110  0.00  0.00    +0.000 A 
ATOM      4  C   UNL     1      18.451   6.973  13.656  0.00  0.00    +0.000 A 
ATOM      5  C   UNL     1      18.237   5.794  14.367  0.00  0.00    +0.000 A 
ATOM      6  C   UNL     1      17.469   5.830  15.525  0.00  0.00    +0.000 A 
ENDROOT
BRANCH   1   8
ATOM      7  C   UNL     1      14.979   7.672  17.229  0.00  0.00    +0.000 C 
ATOM      8  O   UNL     1      16.172   6.900  17.149  0.00  0.00    +0.000 OA
ENDBRANCH   1   8
BRANCH   6   9
ATOM      9  O   UNL     1      17.273   4.659  16.207  0.00  0.00    +0.000 OA
ATOM     10  H   UNL     1      18.140   4.454  16.604  0.00  0.00    +0.000 HD
ENDBRANCH   6   9
TORSDOF 2
ENDMDL
MODEL 8
REMARK VINA RESULT:    -3.011     26.092     27.455
REMARK INTER + INTRA:          -3.322
REMARK INTER:                  -3.282
REMARK INTRA:                  -0.040
REMARK UNBOUND:                -0.048
REMARK  Name = 
REMARK  3 active torsions:
REMARK  status: ('A' for Active; 'I' for Inactive)
REMARK    1  A    between atoms: C_1  and  O_2
REMARK    2  A    between atoms: O_2  and  C_3
REMARK    3  A    between atoms: C_8  and  O_9
REMARK                            x       y       z     vdW  Elec       q    Type
REMARK                         _______ _______ _______ _____ _____    ______ ____
ROOT
ATOM      1  C   UNL     1      15.508 -10.360  18.897  0.00  0.00    +0.000 A 
ATOM      2  C   UNL     1      16.297 -10.125  17.771  0.00  0.00    +0.000 A 
ATOM      3  C   UNL     1      17.622  -9.698  17.923  0.00  0.00    +0.000 A 
ATOM      4  C   UNL     1      18.162  -9.504  19.195  0.00  0.00    +0.000 A 
ATOM      5  C   UNL     1      17.381  -9.737  20.324  0.00  0.00    +0.000 A 
ATOM      6  C   UNL     1      16.067 -10.160  20.165  0.00  0.00    +0.000 A 
ENDROOT
BRANCH   1   8
ATOM      7  C   UNL     1      13.432 -10.459  17.746  0.00  0.00    +0.000 C 
ATOM      8  O   UNL     1      14.201 -10.777  18.899  0.00  0.00    +0.000 OA
ENDBRANCH   1   8
BRANCH   6   9
ATOM      9  O   UNL     1      15.319 -10.382  21.290  0.00  0.00    +0.000 OA
ATOM     10  H   UNL     1      14.532  -9.815  21.181  0.00  0.00    +0.000 HD
ENDBRANCH   6   9
TORSDOF 2
ENDMDL
