MODEL 1
REMARK VINA RESULT:    -3.824      0.000      0.000
REMARK INTER + INTRA:          -4.198
REMARK INTER:                  -4.160
REMARK INTRA:                  -0.038
REMARK UNBOUND:                -0.038
REMARK  Name = 
REMARK  3 active torsions:
REMARK  status: ('A' for Active; 'I' for Inactive)
REMARK    1  A    between atoms: C_1  and  O_2
REMARK    2  A    between atoms: O_2  and  C_3
REMARK    3  A    between atoms: C_8  and  O_9
REMARK                            x       y       z     vdW  Elec       q    Type
REMARK                         _______ _______ _______ _____ _____    ______ ____
ROOT
ATOM      1  C   UNL     1      -4.290  11.783  -4.853  0.00  0.00    +0.000 A 
ATOM      2  C   UNL     1      -5.028  12.919  -5.184  0.00  0.00    +0.000 A 
ATOM      3  C   UNL     1      -5.420  13.136  -6.511  0.00  0.00    +0.000 A 
ATOM      4  C   UNL     1      -5.076  12.222  -7.509  0.00  0.00    +0.000 A 
ATOM      5  C   UNL     1      -4.340  11.084  -7.185  0.00  0.00    +0.000 A 
ATOM      6  C   UNL     1      -3.955  10.878  -5.867  0.00  0.00    +0.000 A 
ENDROOT
BRANCH   1   8
ATOM      7  C   UNL     1      -3.905  12.461  -2.608  0.00  0.00    +0.000 C 
ATOM      8  O   UNL     1      -3.841  11.445  -3.601  0.00  0.00    +0.000 OA
ENDBRANCH   1   8
BRANCH   6   9
ATOM      9  O   UNL     1      -3.232   9.753  -5.573  0.00  0.00    +0.000 OA
ATOM     10  H   UNL     1      -3.901   9.055  -5.439  0.00  0.00    +0.000 HD
ENDBRANCH   6   9
TORSDOF 2
ENDMDL
MODEL 2
REMARK VINA RESULT:    -3.767      1.799      2.427
REMARK INTER + INTRA:          -4.135
REMARK INTER:                  -4.084
REMARK INTRA:                  -0.052
REMARK UNBOUND:                -0.038
REMARK  Name = 
REMARK  3 active torsions:
REMARK  status: ('A' for Active; 'I' for Inactive)
REMARK    1  A    between atoms: C_1  and  O_2
REMARK    2  A    between atoms: O_2  and  C_3
REMARK    3  A    between atoms: C_8  and  O_9
REMARK                            x       y       z     vdW  Elec       q    Type
REMARK                         _______ _______ _______ _____ _____    ______ ____
ROOT
ATOM      1  C   UNL     1      -4.945  11.630  -6.871  0.00  0.00    +0.000 A 
ATOM      2  C   UNL     1      -4.761  12.911  -7.391  0.00  0.00    +0.000 A 
ATOM      3  C   UNL     1      -5.645  13.408  -8.356  0.00  0.00    +0.000 A 
ATOM      4  C   UNL     1      -6.713  12.629  -8.805  0.00  0.00    +0.000 A 
ATOM      5  C   UNL     1      -6.904  11.348  -8.291  0.00  0.00    +0.000 A 
ATOM      6  C   UNL     1      -6.021  10.864  -7.333  0.00  0.00    +0.000 A 
ENDROOT
BRANCH   1   8
ATOM      7  C   UNL     1      -4.063  11.667  -4.665  0.00  0.00    +0.000 C 
ATOM      8  O   UNL     1      -4.160  11.018  -5.926  0.00  0.00    +0.000 OA
ENDBRANCH   1   8
BRANCH   6   9
ATOM      9  O   UNL     1      -6.229   9.602  -6.842  0.00  0.00    +0.000 OA
ATOM     10  H   UNL     1      -5.738   9.016  -7.449  0.00  0.00    +0.000 HD
ENDBRANCH   6   9
TORSDOF 2
ENDMDL
MODEL 3
REMARK VINA RESULT:    -3.659      2.184      3.258
REMARK INTER + INTRA:          -4.017
REMARK INTER:                  -3.965
REMARK INTRA:                  -0.053
REMARK UNBOUND:                -0.038
REMARK  Name = 
REMARK  3 active torsions:
REMARK  status: ('A' for Active; 'I' for Inactive)
REMARK    1  A    between atoms: C_1  and  O_2
REMARK    2  A    between atoms: O_2  and  C_3
REMARK    3  A    between atoms: C_8  and  O_9
REMARK                            x       y       z     vdW  Elec       q    Type
REMARK                         _______ _______ _______ _____ _____    ______ ____
ROOT
ATOM      1  C   UNL     1      -4.655  12.514  -7.036  0.00  0.00    +0.000 A 
ATOM      2  C   UNL     1      -5.412  12.608  -8.202  0.00  0.00    +0.000 A 
ATOM      3  C   UNL     1      -5.406  13.794  -8.947  0.00  0.00    +0.000 A 
ATOM      4  C   UNL     1      -4.644  14.887  -8.530  0.00  0.00    +0.000 A 
ATOM      5  C   UNL     1      -3.884  14.801  -7.366  0.00  0.00    +0.000 A 
ATOM      6  C   UNL     1      -3.897  13.621  -6.633  0.00  0.00    +0.000 A 
ENDROOT
BRANCH   1   8
ATOM      7  C   UNL     1      -3.937  10.267  -6.752  0.00  0.00    +0.000 C 
ATOM      8  O   UNL     1      -4.567  11.421  -6.211  0.00  0.00    +0.000 OA
ENDBRANCH   1   8
BRANCH   6   9
ATOM      9  O   UNL     1      -3.142  13.560  -5.493  0.00  0.00    +0.000 OA
ATOM     10  H   UNL     1      -2.263  13.892  -5.758  0.00  0.00    +0.000 HD
ENDBRANCH   6   9
TORSDOF 2
ENDMDL
MODEL 4
REMARK VINA RESULT:    -3.629      3.890      6.329
REMARK INTER + INTRA:          -3.986
REMARK INTER:                  -3.944
REMARK INTRA:                  -0.041
REMARK UNBOUND:                -0.038
REMARK  Name = 
REMARK  3 active torsions:
REMARK  status: ('A' for Active; 'I' for Inactive)
REMARK    1  A    between atoms: C_1  and  O_2
REMARK    2  A    between atoms: O_2  and  C_3
REMARK    3  A    between atoms: C_8  and  O_9
REMARK                            x       y       z     vdW  Elec       q    Type
REMARK                         _______ _______ _______ _____ _____    ______ ____
ROOT
ATOM      1  C   UNL     1      -4.676  14.051  -1.174  0.00  0.00    +0.000 A 
ATOM      2  C   UNL     1      -3.609  14.946  -1.236  0.00  0.00    +0.000 A 
ATOM      3  C   UNL     1      -3.565  16.044  -0.367  0.00  0.00    +0.000 A 
ATOM      4  C   UNL     1      -4.584  16.250   0.564  0.00  0.00    +0.000 A 
ATOM      5  C   UNL     1      -5.653  15.360   0.632  0.00  0.00    +0.000 A 
ATOM      6  C   UNL     1      -5.689  14.275  -0.234  0.00  0.00    +0.000 A 
ENDROOT
BRANCH   1   8
ATOM      7  C   UNL     1      -3.666  12.285  -2.401  0.00  0.00    +0.000 C 
ATOM      8  O   UNL     1      -4.849  12.940  -1.960  0.00  0.00    +0.000 OA
ENDBRANCH   1   8
BRANCH   6   9
ATOM      9  O   UNL     1      -6.750  13.414  -0.148  0.00  0.00    +0.000 OA
ATOM     10  H   UNL     1      -7.539  13.983  -0.227  0.00  0.00    +0.000 HD
ENDBRANCH   6   9
TORSDOF 2
ENDMDL
MODEL 5
REMARK VINA RESULT:    -3.620      2.016      2.361
REMARK INTER + INTRA:          -3.975
REMARK INTER:                  -3.935
REMARK INTRA:                  -0.040
REMARK UNBOUND:                -0.038
REMARK  Name = 
REMARK  3 active torsions:
REMARK  status: ('A' for Active; 'I' for Inactive)
REMARK    1  A    between atoms: C_1  and  O_2
REMARK    2  A    between atoms: O_2  and  C_3
REMARK    3  A    between atoms: C_8  and  O_9
REMARK                            x       y       z     vdW  Elec       q    Type
REMARK                         _______ _______ _______ _____ _____    ______ ____
ROOT
ATOM      1  C   UNL     1      -4.570  12.296  -6.604  0.00  0.00    +0.000 A 
ATOM      2  C   UNL     1      -5.856  12.821  -6.725  0.00  0.00    +0.000 A 
ATOM      3  C   UNL     1      -6.923  11.984  -7.077  0.00  0.00    +0.000 A 
ATOM      4  C   UNL     1      -6.710  10.624  -7.309  0.00  0.00    +0.000 A 
ATOM      5  C   UNL     1      -5.428  10.092  -7.189  0.00  0.00    +0.000 A 
ATOM      6  C   UNL     1      -4.376  10.929  -6.840  0.00  0.00    +0.000 A 
ENDROOT
BRANCH   1   8
ATOM      7  C   UNL     1      -3.424  14.377  -6.598  0.00  0.00    +0.000 C 
ATOM      8  O   UNL     1      -3.438  12.993  -6.269  0.00  0.00    +0.000 OA
ENDBRANCH   1   8
BRANCH   6   9
ATOM      9  O   UNL     1      -3.125  10.383  -6.729  0.00  0.00    +0.000 OA
ATOM     10  H   UNL     1      -3.150   9.588  -7.295  0.00  0.00    +0.000 HD
ENDBRANCH   6   9
TORSDOF 2
ENDMDL
MODEL 6
REMARK VINA RESULT:    -3.409      1.947      2.339
REMARK INTER + INTRA:          -3.746
REMARK INTER:                  -3.694
REMARK INTRA:                  -0.052
REMARK UNBOUND:                -0.038
REMARK  Name = 
REMARK  3 active torsions:
REMARK  status: ('A' for Active; 'I' for Inactive)
REMARK    1  A    between atoms: C_1  and  O_2
REMARK    2  A    between atoms: O_2  and  C_3
REMARK    3  A    between atoms: C_8  and  O_9
REMARK                            x       y       z     vdW  Elec       q    Type
REMARK                         _______ _______ _______ _____ _____    ______ ____
ROOT
ATOM      1  C   UNL     1      -5.839  12.258  -5.515  0.00  0.00    +0.000 A 
ATOM      2  C   UNL     1      -6.858  11.471  -6.049  0.00  0.00    +0.000 A 
ATOM      3  C   UNL     1      -6.548  10.435  -6.939  0.00  0.00    +0.000 A 
ATOM      4  C   UNL     1      -5.223  10.182  -7.297  0.00  0.00    +0.000 A 
ATOM      5  C   UNL     1      -4.199  10.964  -6.767  0.00  0.00    +0.000 A 
ATOM      6  C   UNL     1      -4.515  11.990  -5.885  0.00  0.00    +0.000 A 
ENDROOT
BRANCH   1   8
ATOM      7  C   UNL     1      -6.407  12.966  -3.318  0.00  0.00    +0.000 C 
ATOM      8  O   UNL     1      -5.995  13.302  -4.638  0.00  0.00    +0.000 OA
ENDBRANCH   1   8
BRANCH   6   9
ATOM      9  O   UNL     1      -3.492  12.745  -5.378  0.00  0.00    +0.000 OA
ATOM     10  H   UNL     1      -2.704  12.173  -5.447  0.00  0.00    +0.000 HD
ENDBRANCH   6   9
TORSDOF 2
ENDMDL
MODEL 7
REMARK VINA RESULT:    -3.386      2.911      3.946
REMARK INTER + INTRA:          -3.721
REMARK INTER:                  -3.683
REMARK INTRA:                  -0.038
REMARK UNBOUND:                -0.038
REMARK  Name = 
REMARK  3 active torsions:
REMARK  status: ('A' for Active; 'I' for Inactive)
REMARK    1  A    between atoms: C_1  and  O_2
REMARK    2  A    between atoms: O_2  and  C_3
REMARK    3  A    between atoms: C_8  and  O_9
REMARK                            x       y       z     vdW  Elec       q    Type
REMARK                         _______ _______ _______ _____ _____    ______ ____
ROOT
ATOM      1  C   UNL     1      -4.867  13.588  -1.617  0.00  0.00    +0.000 A 
ATOM      2  C   UNL     1      -6.121  13.642  -2.224  0.00  0.00    +0.000 A 
ATOM      3  C   UNL     1      -6.364  12.909  -3.392  0.00  0.00    +0.000 A 
ATOM      4  C   UNL     1      -5.358  12.123  -3.958  0.00  0.00    +0.000 A 
ATOM      5  C   UNL     1      -4.103  12.064  -3.357  0.00  0.00    +0.000 A 
ATOM      6  C   UNL     1      -3.870  12.794  -2.198  0.00  0.00    +0.000 A 
ENDROOT
BRANCH   1   8
ATOM      7  C   UNL     1      -5.538  14.752   0.343  0.00  0.00    +0.000 C 
ATOM      8  O   UNL     1      -4.489  14.250  -0.476  0.00  0.00    +0.000 OA
ENDBRANCH   1   8
BRANCH   6   9
ATOM      9  O   UNL     1      -2.628  12.720  -1.626  0.00  0.00    +0.000 OA
ATOM     10  H   UNL     1      -2.024  12.530  -2.369  0.00  0.00    +0.000 HD
ENDBRANCH   6   9
TORSDOF 2
ENDMDL
MODEL 8
REMARK VINA RESULT:    -3.374      2.700      3.265
REMARK INTER + INTRA:          -3.708
REMARK INTER:                  -3.665
REMARK INTRA:                  -0.043
REMARK UNBOUND:                -0.038
REMARK  Name = 
REMARK  3 active torsions:
REMARK  status: ('A' for Active; 'I' for Inactive)
REMARK    1  A    between atoms: C_1  and  O_2
REMARK    2  A    between atoms: O_2  and  C_3
REMARK    3  A    between atoms: C_8  and  O_9
REMARK                            x       y       z     vdW  Elec       q    Type
REMARK                         _______ _______ _______ _____ _____    ______ ____
ROOT
ATOM      1  C   UNL     1      -3.634  14.441  -6.743  0.00  0.00    +0.000 A 
ATOM      2  C   UNL     1      -4.113  15.073  -7.890  0.00  0.00    +0.000 A 
ATOM      3  C   UNL     1      -4.983  14.394  -8.752  0.00  0.00    +0.000 A 
ATOM      4  C   UNL     1      -5.376  13.083  -8.473  0.00  0.00    +0.000 A 
ATOM      5  C   UNL     1      -4.902  12.445  -7.329  0.00  0.00    +0.000 A 
ATOM      6  C   UNL     1      -4.039  13.126  -6.480  0.00  0.00    +0.000 A 
ENDROOT
BRANCH   1   8
ATOM      7  C   UNL     1      -1.764  15.843  -6.314  0.00  0.00    +0.000 C 
ATOM      8  O   UNL     1      -2.781  14.982  -5.815  0.00  0.00    +0.000 OA
ENDBRANCH   1   8
BRANCH   6   9
ATOM      9  O   UNL     1      -3.586  12.478  -5.362  0.00  0.00    +0.000 OA
ATOM     10  H   UNL     1      -3.401  13.190  -4.720  0.00  0.00    +0.000 HD
ENDBRANCH   6   9
TORSDOF 2
ENDMDL
MODEL 9
REMARK VINA RESULT:    -3.340      5.501      6.470
REMARK INTER + INTRA:          -3.671
REMARK INTER:                  -3.632
REMARK INTRA:                  -0.039
REMARK UNBOUND:                -0.038
REMARK  Name = 
REMARK  3 active torsions:
REMARK  status: ('A' for Active; 'I' for Inactive)
REMARK    1  A    between atoms: C_1  and  O_2
REMARK    2  A    between atoms: O_2  and  C_3
REMARK    3  A    between atoms: C_8  and  O_9
REMARK                            x       y       z     vdW  Elec       q    Type
REMARK                         _______ _______ _______ _____ _____    ______ ____
ROOT
ATOM      1  C   UNL     1      -3.428  14.829  -0.575  0.00  0.00    +0.000 A 
ATOM      2  C   UNL     1      -3.263  16.063   0.053  0.00  0.00    +0.000 A 
ATOM      3  C   UNL     1      -1.985  16.622   0.171  0.00  0.00    +0.000 A 
ATOM      4  C   UNL     1      -0.869  15.952  -0.335  0.00  0.00    +0.000 A 
ATOM      5  C   UNL     1      -1.026  14.719  -0.964  0.00  0.00    +0.000 A 
ATOM      6  C   UNL     1      -2.298  14.172  -1.077  0.00  0.00    +0.000 A 
ENDROOT
BRANCH   1   8
ATOM      7  C   UNL     1      -5.697  14.556   0.075  0.00  0.00    +0.000 C 
ATOM      8  O   UNL     1      -4.615  14.165  -0.760  0.00  0.00    +0.000 OA
ENDBRANCH   1   8
BRANCH   6   9
ATOM      9  O   UNL     1      -2.427  12.959  -1.699  0.00  0.00    +0.000 OA
ATOM     10  H   UNL     1      -2.798  13.168  -2.577  0.00  0.00    +0.000 HD
ENDBRANCH   6   9
TORSDOF 2
ENDMDL
