MODEL 1
REMARK VINA RESULT:    -4.229      0.000      0.000
REMARK INTER + INTRA:          -6.010
REMARK INTER:                  -5.712
REMARK INTRA:                  -0.298
REMARK UNBOUND:                -0.298
REMARK  Name = 
REMARK  10 active torsions:
REMARK  status: ('A' for Active; 'I' for Inactive)
REMARK    1  A    between atoms: C_1  and  C_2
REMARK    2  A    between atoms: C_5  and  N_8
REMARK    3  A    between atoms: N_8  and  C_9
REMARK    4  A    between atoms: N_8  and  C_13
REMARK    5  A    between atoms: C_9  and  C_10
REMARK    6  A    between atoms: C_10  and  C_11
REMARK    7  A    between atoms: C_10  and  O_12
REMARK    8  A    between atoms: C_13  and  C_14
REMARK    9  A    between atoms: C_14  and  C_15
REMARK   10  A    between atoms: C_14  and  O_16
REMARK                            x       y       z     vdW  Elec       q    Type
REMARK                         _______ _______ _______ _____ _____    ______ ____
ROOT
ATOM      1  N   UNL     1       2.751  20.404  -3.356  0.00  0.00    +0.000 N 
ENDROOT
BRANCH   1   6
ATOM      2  C   UNL     1       7.514  18.389  -0.790  0.00  0.00    +0.000 C 
ATOM      3  C   UNL     1       6.276  18.929  -1.438  0.00  0.00    +0.000 A 
ATOM      4  C   UNL     1       5.026  18.396  -1.144  0.00  0.00    +0.000 A 
ATOM      5  C   UNL     1       3.871  18.886  -1.777  0.00  0.00    +0.000 A 
ATOM      6  C   UNL     1       3.908  19.907  -2.743  0.00  0.00    +0.000 A 
ATOM      7  C   UNL     1       5.189  20.424  -3.013  0.00  0.00    +0.000 A 
ATOM      8  C   UNL     1       6.351  19.945  -2.386  0.00  0.00    +0.000 A 
ENDBRANCH   1   6
BRANCH   1   9
ATOM      9  C   UNL     1       1.467  20.423  -2.615  0.00  0.00    +0.000 C 
BRANCH   9  10
ATOM     10  C   UNL     1       0.576  19.195  -2.927  0.00  0.00    +0.000 C 
ATOM     11  C   UNL     1      -0.099  18.676  -1.663  0.00  0.00    +0.000 C 
BRANCH  10  12
ATOM     12  O   UNL     1      -0.448  19.530  -3.873  0.00  0.00    +0.000 OA
ATOM     13  H   UNL     1      -0.981  18.733  -4.035  0.00  0.00    +0.000 HD
ENDBRANCH  10  12
ENDBRANCH   9  10
ENDBRANCH   1   9
BRANCH   1  14
ATOM     14  C   UNL     1       2.619  20.440  -4.835  0.00  0.00    +0.000 C 
BRANCH  14  15
ATOM     15  C   UNL     1       3.397  19.290  -5.519  0.00  0.00    +0.000 C 
ATOM     16  C   UNL     1       2.546  18.049  -5.757  0.00  0.00    +0.000 C 
BRANCH  15  17
ATOM     17  O   UNL     1       3.945  19.697  -6.772  0.00  0.00    +0.000 OA
ATOM     18  H   UNL     1       4.551  18.974  -7.030  0.00  0.00    +0.000 HD
ENDBRANCH  15  17
ENDBRANCH  14  15
ENDBRANCH   1  14
TORSDOF 7
ENDMDL
MODEL 2
REMARK VINA RESULT:    -4.124      1.353      3.560
REMARK INTER + INTRA:          -5.868
REMARK INTER:                  -5.381
REMARK INTRA:                  -0.487
REMARK UNBOUND:                -0.298
REMARK  Name = 
REMARK  10 active torsions:
REMARK  status: ('A' for Active; 'I' for Inactive)
REMARK    1  A    between atoms: C_1  and  C_2
REMARK    2  A    between atoms: C_5  and  N_8
REMARK    3  A    between atoms: N_8  and  C_9
REMARK    4  A    between atoms: N_8  and  C_13
REMARK    5  A    between atoms: C_9  and  C_10
REMARK    6  A    between atoms: C_10  and  C_11
REMARK    7  A    between atoms: C_10  and  O_12
REMARK    8  A    between atoms: C_13  and  C_14
REMARK    9  A    between atoms: C_14  and  C_15
REMARK   10  A    between atoms: C_14  and  O_16
REMARK                            x       y       z     vdW  Elec       q    Type
REMARK                         _______ _______ _______ _____ _____    ______ ____
ROOT
ATOM      1  N   UNL     1       2.916  19.345  -3.302  0.00  0.00    +0.000 N 
ENDROOT
BRANCH   1   6
ATOM      2  C   UNL     1       8.165  19.593  -0.912  0.00  0.00    +0.000 C 
ATOM      3  C   UNL     1       6.811  19.510  -1.547  0.00  0.00    +0.000 A 
ATOM      4  C   UNL     1       6.495  20.281  -2.660  0.00  0.00    +0.000 A 
ATOM      5  C   UNL     1       5.214  20.221  -3.233  0.00  0.00    +0.000 A 
ATOM      6  C   UNL     1       4.185  19.414  -2.714  0.00  0.00    +0.000 A 
ATOM      7  C   UNL     1       4.540  18.647  -1.589  0.00  0.00    +0.000 A 
ATOM      8  C   UNL     1       5.818  18.696  -1.008  0.00  0.00    +0.000 A 
ENDBRANCH   1   6
BRANCH   1   9
ATOM      9  C   UNL     1       2.540  20.297  -4.374  0.00  0.00    +0.000 C 
BRANCH   9  10
ATOM     10  C   UNL     1       2.724  19.705  -5.793  0.00  0.00    +0.000 C 
ATOM     11  C   UNL     1       3.824  20.440  -6.552  0.00  0.00    +0.000 C 
BRANCH  10  12
ATOM     12  O   UNL     1       3.080  18.317  -5.730  0.00  0.00    +0.000 OA
ATOM     13  H   UNL     1       4.025  18.258  -5.512  0.00  0.00    +0.000 HD
ENDBRANCH  10  12
ENDBRANCH   9  10
ENDBRANCH   1   9
BRANCH   1  14
ATOM     14  C   UNL     1       1.770  18.726  -2.587  0.00  0.00    +0.000 C 
BRANCH  14  15
ATOM     15  C   UNL     1       0.816  19.786  -1.985  0.00  0.00    +0.000 C 
ATOM     16  C   UNL     1      -0.526  19.208  -1.553  0.00  0.00    +0.000 C 
BRANCH  15  17
ATOM     17  O   UNL     1       1.398  20.440  -0.858  0.00  0.00    +0.000 OA
ATOM     18  H   UNL     1       2.013  19.783  -0.474  0.00  0.00    +0.000 HD
ENDBRANCH  15  17
ENDBRANCH  14  15
ENDBRANCH   1  14
TORSDOF 7
ENDMDL
MODEL 3
REMARK VINA RESULT:    -3.993     12.311     15.152
REMARK INTER + INTRA:          -5.691
REMARK INTER:                  -5.417
REMARK INTRA:                  -0.274
REMARK UNBOUND:                -0.298
REMARK  Name = 
REMARK  10 active torsions:
REMARK  status: ('A' for Active; 'I' for Inactive)
REMARK    1  A    between atoms: C_1  and  C_2
REMARK    2  A    between atoms: C_5  and  N_8
REMARK    3  A    between atoms: N_8  and  C_9
REMARK    4  A    between atoms: N_8  and  C_13
REMARK    5  A    between atoms: C_9  and  C_10
REMARK    6  A    between atoms: C_10  and  C_11
REMARK    7  A    between atoms: C_10  and  O_12
REMARK    8  A    between atoms: C_13  and  C_14
REMARK    9  A    between atoms: C_14  and  C_15
REMARK   10  A    between atoms: C_14  and  O_16
REMARK                            x       y       z     vdW  Elec       q    Type
REMARK                         _______ _______ _______ _____ _____    ______ ____
ROOT
ATOM      1  N   UNL     1      16.362  17.690   2.208  0.00  0.00    +0.000 N 
ENDROOT
BRANCH   1   6
ATOM      2  C   UNL     1      20.651  13.893   2.926  0.00  0.00    +0.000 C 
ATOM      3  C   UNL     1      19.535  14.869   2.717  0.00  0.00    +0.000 A 
ATOM      4  C   UNL     1      19.788  16.153   2.245  0.00  0.00    +0.000 A 
ATOM      5  C   UNL     1      18.741  17.074   2.079  0.00  0.00    +0.000 A 
ATOM      6  C   UNL     1      17.404  16.773   2.394  0.00  0.00    +0.000 A 
ATOM      7  C   UNL     1      17.185  15.466   2.867  0.00  0.00    +0.000 A 
ATOM      8  C   UNL     1      18.222  14.534   3.036  0.00  0.00    +0.000 A 
ENDBRANCH   1   6
BRANCH   1   9
ATOM      9  C   UNL     1      16.081  18.231   0.856  0.00  0.00    +0.000 C 
BRANCH   9  10
ATOM     10  C   UNL     1      16.092  19.778   0.815  0.00  0.00    +0.000 C 
ATOM     11  C   UNL     1      17.501  20.319   1.027  0.00  0.00    +0.000 C 
BRANCH  10  12
ATOM     12  O   UNL     1      15.616  20.263  -0.449  0.00  0.00    +0.000 OA
ATOM     13  H   UNL     1      16.313  20.814  -0.842  0.00  0.00    +0.000 HD
ENDBRANCH  10  12
ENDBRANCH   9  10
ENDBRANCH   1   9
BRANCH   1  14
ATOM     14  C   UNL     1      15.862  18.524   3.331  0.00  0.00    +0.000 C 
BRANCH  14  15
ATOM     15  C   UNL     1      14.404  18.177   3.713  0.00  0.00    +0.000 C 
ATOM     16  C   UNL     1      13.375  19.066   3.024  0.00  0.00    +0.000 C 
BRANCH  15  17
ATOM     17  O   UNL     1      14.088  16.819   3.408  0.00  0.00    +0.000 OA
ATOM     18  H   UNL     1      14.942  16.411   3.159  0.00  0.00    +0.000 HD
ENDBRANCH  15  17
ENDBRANCH  14  15
ENDBRANCH   1  14
TORSDOF 7
ENDMDL
MODEL 4
REMARK VINA RESULT:    -3.814     12.357     14.688
REMARK INTER + INTRA:          -5.450
REMARK INTER:                  -4.916
REMARK INTRA:                  -0.534
REMARK UNBOUND:                -0.298
REMARK  Name = 
REMARK  10 active torsions:
REMARK  status: ('A' for Active; 'I' for Inactive)
REMARK    1  A    between atoms: C_1  and  C_2
REMARK    2  A    between atoms: C_5  and  N_8
REMARK    3  A    between atoms: N_8  and  C_9
REMARK    4  A    between atoms: N_8  and  C_13
REMARK    5  A    between atoms: C_9  and  C_10
REMARK    6  A    between atoms: C_10  and  C_11
REMARK    7  A    between atoms: C_10  and  O_12
REMARK    8  A    between atoms: C_13  and  C_14
REMARK    9  A    between atoms: C_14  and  C_15
REMARK   10  A    between atoms: C_14  and  O_16
REMARK                            x       y       z     vdW  Elec       q    Type
REMARK                         _______ _______ _______ _____ _____    ______ ____
ROOT
ATOM      1  N   UNL     1      15.554  17.790   3.080  0.00  0.00    +0.000 N 
ENDROOT
BRANCH   1   6
ATOM      2  C   UNL     1      20.865  17.830   0.817  0.00  0.00    +0.000 C 
ATOM      3  C   UNL     1      19.483  17.842   1.395  0.00  0.00    +0.000 A 
ATOM      4  C   UNL     1      19.259  18.271   2.699  0.00  0.00    +0.000 A 
ATOM      5  C   UNL     1      17.965  18.252   3.246  0.00  0.00    +0.000 A 
ATOM      6  C   UNL     1      16.844  17.787   2.535  0.00  0.00    +0.000 A 
ATOM      7  C   UNL     1      17.108  17.364   1.219  0.00  0.00    +0.000 A 
ATOM      8  C   UNL     1      18.397  17.380   0.659  0.00  0.00    +0.000 A 
ENDBRANCH   1   6
BRANCH   1   9
ATOM      9  C   UNL     1      15.153  16.738   4.045  0.00  0.00    +0.000 C 
BRANCH   9  10
ATOM     10  C   UNL     1      15.182  15.317   3.430  0.00  0.00    +0.000 C 
ATOM     11  C   UNL     1      16.304  14.483   4.036  0.00  0.00    +0.000 C 
BRANCH  10  12
ATOM     12  O   UNL     1      13.944  14.631   3.661  0.00  0.00    +0.000 OA
ATOM     13  H   UNL     1      14.061  13.702   3.402  0.00  0.00    +0.000 HD
ENDBRANCH  10  12
ENDBRANCH   9  10
ENDBRANCH   1   9
BRANCH   1  14
ATOM     14  C   UNL     1      14.427  18.462   2.384  0.00  0.00    +0.000 C 
BRANCH  14  15
ATOM     15  C   UNL     1      13.590  19.342   3.343  0.00  0.00    +0.000 C 
ATOM     16  C   UNL     1      14.408  20.437   4.019  0.00  0.00    +0.000 C 
BRANCH  15  17
ATOM     17  O   UNL     1      12.495  19.961   2.671  0.00  0.00    +0.000 OA
ATOM     18  H   UNL     1      11.699  19.666   3.158  0.00  0.00    +0.000 HD
ENDBRANCH  15  17
ENDBRANCH  14  15
ENDBRANCH   1  14
TORSDOF 7
ENDMDL
MODEL 5
REMARK VINA RESULT:    -3.792     13.123     16.160
REMARK INTER + INTRA:          -5.420
REMARK INTER:                  -4.993
REMARK INTRA:                  -0.427
REMARK UNBOUND:                -0.298
REMARK  Name = 
REMARK  10 active torsions:
REMARK  status: ('A' for Active; 'I' for Inactive)
REMARK    1  A    between atoms: C_1  and  C_2
REMARK    2  A    between atoms: C_5  and  N_8
REMARK    3  A    between atoms: N_8  and  C_9
REMARK    4  A    between atoms: N_8  and  C_13
REMARK    5  A    between atoms: C_9  and  C_10
REMARK    6  A    between atoms: C_10  and  C_11
REMARK    7  A    between atoms: C_10  and  O_12
REMARK    8  A    between atoms: C_13  and  C_14
REMARK    9  A    between atoms: C_14  and  C_15
REMARK   10  A    between atoms: C_14  and  O_16
REMARK                            x       y       z     vdW  Elec       q    Type
REMARK                         _______ _______ _______ _____ _____    ______ ____
ROOT
ATOM      1  N   UNL     1      17.813  17.757   2.539  0.00  0.00    +0.000 N 
ENDROOT
BRANCH   1   6
ATOM      2  C   UNL     1      17.538  12.191   4.045  0.00  0.00    +0.000 C 
ATOM      3  C   UNL     1      17.622  13.640   3.675  0.00  0.00    +0.000 A 
ATOM      4  C   UNL     1      16.617  14.529   4.038  0.00  0.00    +0.000 A 
ATOM      5  C   UNL     1      16.686  15.881   3.663  0.00  0.00    +0.000 A 
ATOM      6  C   UNL     1      17.741  16.404   2.893  0.00  0.00    +0.000 A 
ATOM      7  C   UNL     1      18.740  15.477   2.545  0.00  0.00    +0.000 A 
ATOM      8  C   UNL     1      18.684  14.123   2.916  0.00  0.00    +0.000 A 
ENDBRANCH   1   6
BRANCH   1   9
ATOM      9  C   UNL     1      17.394  18.195   1.186  0.00  0.00    +0.000 C 
BRANCH   9  10
ATOM     10  C   UNL     1      15.882  17.981   0.927  0.00  0.00    +0.000 C 
ATOM     11  C   UNL     1      15.045  18.938   1.768  0.00  0.00    +0.000 C 
BRANCH  10  12
ATOM     12  O   UNL     1      15.559  18.204  -0.452  0.00  0.00    +0.000 OA
ATOM     13  H   UNL     1      15.296  17.353  -0.841  0.00  0.00    +0.000 HD
ENDBRANCH  10  12
ENDBRANCH   9  10
ENDBRANCH   1   9
BRANCH   1  14
ATOM     14  C   UNL     1      18.739  18.686   3.237  0.00  0.00    +0.000 C 
BRANCH  14  15
ATOM     15  C   UNL     1      20.071  18.868   2.470  0.00  0.00    +0.000 C 
ATOM     16  C   UNL     1      20.651  20.271   2.602  0.00  0.00    +0.000 C 
BRANCH  15  17
ATOM     17  O   UNL     1      21.061  17.938   2.906  0.00  0.00    +0.000 OA
ATOM     18  H   UNL     1      20.661  17.484   3.675  0.00  0.00    +0.000 HD
ENDBRANCH  15  17
ENDBRANCH  14  15
ENDBRANCH   1  14
TORSDOF 7
ENDMDL
MODEL 6
REMARK VINA RESULT:    -3.694     13.530     15.949
REMARK INTER + INTRA:          -5.288
REMARK INTER:                  -4.577
REMARK INTRA:                  -0.710
REMARK UNBOUND:                -0.298
REMARK  Name = 
REMARK  10 active torsions:
REMARK  status: ('A' for Active; 'I' for Inactive)
REMARK    1  A    between atoms: C_1  and  C_2
REMARK    2  A    between atoms: C_5  and  N_8
REMARK    3  A    between atoms: N_8  and  C_9
REMARK    4  A    between atoms: N_8  and  C_13
REMARK    5  A    between atoms: C_9  and  C_10
REMARK    6  A    between atoms: C_10  and  C_11
REMARK    7  A    between atoms: C_10  and  O_12
REMARK    8  A    between atoms: C_13  and  C_14
REMARK    9  A    between atoms: C_14  and  C_15
REMARK   10  A    between atoms: C_14  and  O_16
REMARK                            x       y       z     vdW  Elec       q    Type
REMARK                         _______ _______ _______ _____ _____    ______ ____
ROOT
ATOM      1  N   UNL     1      17.410  17.808   2.699  0.00  0.00    +0.000 N 
ENDROOT
BRANCH   1   6
ATOM      2  C   UNL     1      17.393  12.194   4.045  0.00  0.00    +0.000 C 
ATOM      3  C   UNL     1      17.390  13.645   3.672  0.00  0.00    +0.000 A 
ATOM      4  C   UNL     1      18.535  14.258   3.174  0.00  0.00    +0.000 A 
ATOM      5  C   UNL     1      18.535  15.625   2.855  0.00  0.00    +0.000 A 
ATOM      6  C   UNL     1      17.409  16.449   3.037  0.00  0.00    +0.000 A 
ATOM      7  C   UNL     1      16.269  15.796   3.541  0.00  0.00    +0.000 A 
ATOM      8  C   UNL     1      16.256  14.429   3.862  0.00  0.00    +0.000 A 
ENDBRANCH   1   6
BRANCH   1   9
ATOM      9  C   UNL     1      18.566  18.664   3.060  0.00  0.00    +0.000 C 
BRANCH   9  10
ATOM     10  C   UNL     1      19.282  19.259   1.823  0.00  0.00    +0.000 C 
ATOM     11  C   UNL     1      20.713  19.658   2.160  0.00  0.00    +0.000 C 
BRANCH  10  12
ATOM     12  O   UNL     1      19.327  18.311   0.748  0.00  0.00    +0.000 OA
ATOM     13  H   UNL     1      19.802  18.719   0.005  0.00  0.00    +0.000 HD
ENDBRANCH  10  12
ENDBRANCH   9  10
ENDBRANCH   1   9
BRANCH   1  14
ATOM     14  C   UNL     1      16.141  18.542   2.460  0.00  0.00    +0.000 C 
BRANCH  14  15
ATOM     15  C   UNL     1      15.730  18.529   0.968  0.00  0.00    +0.000 C 
ATOM     16  C   UNL     1      16.002  19.850   0.260  0.00  0.00    +0.000 C 
BRANCH  15  17
ATOM     17  O   UNL     1      16.397  17.495   0.246  0.00  0.00    +0.000 OA
ATOM     18  H   UNL     1      15.909  16.676   0.467  0.00  0.00    +0.000 HD
ENDBRANCH  15  17
ENDBRANCH  14  15
ENDBRANCH   1  14
TORSDOF 7
ENDMDL
MODEL 7
REMARK VINA RESULT:    -3.640      1.661      3.121
REMARK INTER + INTRA:          -5.214
REMARK INTER:                  -4.703
REMARK INTRA:                  -0.511
REMARK UNBOUND:                -0.298
REMARK  Name = 
REMARK  10 active torsions:
REMARK  status: ('A' for Active; 'I' for Inactive)
REMARK    1  A    between atoms: C_1  and  C_2
REMARK    2  A    between atoms: C_5  and  N_8
REMARK    3  A    between atoms: N_8  and  C_9
REMARK    4  A    between atoms: N_8  and  C_13
REMARK    5  A    between atoms: C_9  and  C_10
REMARK    6  A    between atoms: C_10  and  C_11
REMARK    7  A    between atoms: C_10  and  O_12
REMARK    8  A    between atoms: C_13  and  C_14
REMARK    9  A    between atoms: C_14  and  C_15
REMARK   10  A    between atoms: C_14  and  O_16
REMARK                            x       y       z     vdW  Elec       q    Type
REMARK                         _______ _______ _______ _____ _____    ______ ____
ROOT
ATOM      1  N   UNL     1       2.128  19.910  -3.770  0.00  0.00    +0.000 N 
ENDROOT
BRANCH   1   6
ATOM      2  C   UNL     1       7.399  20.440  -1.475  0.00  0.00    +0.000 C 
ATOM      3  C   UNL     1       6.030  20.327  -2.073  0.00  0.00    +0.000 A 
ATOM      4  C   UNL     1       4.896  20.322  -1.267  0.00  0.00    +0.000 A 
ATOM      5  C   UNL     1       3.617  20.186  -1.831  0.00  0.00    +0.000 A 
ATOM      6  C   UNL     1       3.407  20.026  -3.213  0.00  0.00    +0.000 A 
ATOM      7  C   UNL     1       4.576  20.037  -3.997  0.00  0.00    +0.000 A 
ATOM      8  C   UNL     1       5.860  20.175  -3.446  0.00  0.00    +0.000 A 
ENDBRANCH   1   6
BRANCH   1   9
ATOM      9  C   UNL     1       1.967  19.746  -5.235  0.00  0.00    +0.000 C 
BRANCH   9  10
ATOM     10  C   UNL     1       1.507  18.322  -5.633  0.00  0.00    +0.000 C 
ATOM     11  C   UNL     1       2.276  17.263  -4.851  0.00  0.00    +0.000 C 
BRANCH  10  12
ATOM     12  O   UNL     1       0.109  18.140  -5.369  0.00  0.00    +0.000 OA
ATOM     13  H   UNL     1      -0.334  17.949  -6.212  0.00  0.00    +0.000 HD
ENDBRANCH  10  12
ENDBRANCH   9  10
ENDBRANCH   1   9
BRANCH   1  14
ATOM     14  C   UNL     1       0.932  20.440  -3.066  0.00  0.00    +0.000 C 
BRANCH  14  15
ATOM     15  C   UNL     1       0.394  19.452  -2.004  0.00  0.00    +0.000 C 
ATOM     16  C   UNL     1      -0.618  20.084  -1.055  0.00  0.00    +0.000 C 
BRANCH  15  17
ATOM     17  O   UNL     1      -0.218  18.312  -2.606  0.00  0.00    +0.000 OA
ATOM     18  H   UNL     1      -0.589  17.800  -1.859  0.00  0.00    +0.000 HD
ENDBRANCH  15  17
ENDBRANCH  14  15
ENDBRANCH   1  14
TORSDOF 7
ENDMDL
MODEL 8
REMARK VINA RESULT:    -3.488     12.724     16.236
REMARK INTER + INTRA:          -5.010
REMARK INTER:                  -4.546
REMARK INTRA:                  -0.464
REMARK UNBOUND:                -0.298
REMARK  Name = 
REMARK  10 active torsions:
REMARK  status: ('A' for Active; 'I' for Inactive)
REMARK    1  A    between atoms: C_1  and  C_2
REMARK    2  A    between atoms: C_5  and  N_8
REMARK    3  A    between atoms: N_8  and  C_9
REMARK    4  A    between atoms: N_8  and  C_13
REMARK    5  A    between atoms: C_9  and  C_10
REMARK    6  A    between atoms: C_10  and  C_11
REMARK    7  A    between atoms: C_10  and  O_12
REMARK    8  A    between atoms: C_13  and  C_14
REMARK    9  A    between atoms: C_14  and  C_15
REMARK   10  A    between atoms: C_14  and  O_16
REMARK                            x       y       z     vdW  Elec       q    Type
REMARK                         _______ _______ _______ _____ _____    ______ ____
ROOT
ATOM      1  N   UNL     1      18.243  17.171   2.463  0.00  0.00    +0.000 N 
ENDROOT
BRANCH   1   6
ATOM      2  C   UNL     1      12.856  19.244   2.564  0.00  0.00    +0.000 C 
ATOM      3  C   UNL     1      14.262  18.728   2.548  0.00  0.00    +0.000 A 
ATOM      4  C   UNL     1      15.077  18.910   1.436  0.00  0.00    +0.000 A 
ATOM      5  C   UNL     1      16.384  18.397   1.415  0.00  0.00    +0.000 A 
ATOM      6  C   UNL     1      16.932  17.663   2.483  0.00  0.00    +0.000 A 
ATOM      7  C   UNL     1      16.080  17.500   3.591  0.00  0.00    +0.000 A 
ATOM      8  C   UNL     1      14.772  18.010   3.626  0.00  0.00    +0.000 A 
ENDBRANCH   1   6
BRANCH   1   9
ATOM      9  C   UNL     1      19.074  17.319   1.244  0.00  0.00    +0.000 C 
BRANCH   9  10
ATOM     10  C   UNL     1      20.223  18.342   1.421  0.00  0.00    +0.000 C 
ATOM     11  C   UNL     1      21.245  18.214   0.298  0.00  0.00    +0.000 C 
BRANCH  10  12
ATOM     12  O   UNL     1      19.722  19.686   1.415  0.00  0.00    +0.000 OA
ATOM     13  H   UNL     1      20.479  20.290   1.345  0.00  0.00    +0.000 HD
ENDBRANCH  10  12
ENDBRANCH   9  10
ENDBRANCH   1   9
BRANCH   1  14
ATOM     14  C   UNL     1      18.671  16.086   3.383  0.00  0.00    +0.000 C 
BRANCH  14  15
ATOM     15  C   UNL     1      19.042  14.790   2.624  0.00  0.00    +0.000 C 
ATOM     16  C   UNL     1      20.498  14.379   2.814  0.00  0.00    +0.000 C 
BRANCH  15  17
ATOM     17  O   UNL     1      18.218  13.694   3.018  0.00  0.00    +0.000 OA
ATOM     18  H   UNL     1      17.433  13.746   2.437  0.00  0.00    +0.000 HD
ENDBRANCH  15  17
ENDBRANCH  14  15
ENDBRANCH   1  14
TORSDOF 7
ENDMDL
MODEL 9
REMARK VINA RESULT:    -3.392      1.694      3.215
REMARK INTER + INTRA:          -4.880
REMARK INTER:                  -4.613
REMARK INTRA:                  -0.267
REMARK UNBOUND:                -0.298
REMARK  Name = 
REMARK  10 active torsions:
REMARK  status: ('A' for Active; 'I' for Inactive)
REMARK    1  A    between atoms: C_1  and  C_2
REMARK    2  A    between atoms: C_5  and  N_8
REMARK    3  A    between atoms: N_8  and  C_9
REMARK    4  A    between atoms: N_8  and  C_13
REMARK    5  A    between atoms: C_9  and  C_10
REMARK    6  A    between atoms: C_10  and  C_11
REMARK    7  A    between atoms: C_10  and  O_12
REMARK    8  A    between atoms: C_13  and  C_14
REMARK    9  A    between atoms: C_14  and  C_15
REMARK   10  A    between atoms: C_14  and  O_16
REMARK                            x       y       z     vdW  Elec       q    Type
REMARK                         _______ _______ _______ _____ _____    ______ ____
ROOT
ATOM      1  N   UNL     1       4.503  19.643  -3.034  0.00  0.00    +0.000 N 
ENDROOT
BRANCH   1   6
ATOM      2  C   UNL     1       9.429  19.282  -0.045  0.00  0.00    +0.000 C 
ATOM      3  C   UNL     1       8.141  19.392  -0.803  0.00  0.00    +0.000 A 
ATOM      4  C   UNL     1       7.103  18.494  -0.580  0.00  0.00    +0.000 A 
ATOM      5  C   UNL     1       5.910  18.583  -1.316  0.00  0.00    +0.000 A 
ATOM      6  C   UNL     1       5.703  19.548  -2.318  0.00  0.00    +0.000 A 
ATOM      7  C   UNL     1       6.773  20.440  -2.514  0.00  0.00    +0.000 A 
ATOM      8  C   UNL     1       7.971  20.364  -1.785  0.00  0.00    +0.000 A 
ENDBRANCH   1   6
BRANCH   1   9
ATOM      9  C   UNL     1       4.515  20.075  -4.452  0.00  0.00    +0.000 C 
BRANCH   9  10
ATOM     10  C   UNL     1       3.267  19.600  -5.235  0.00  0.00    +0.000 C 
ATOM     11  C   UNL     1       3.059  20.440  -6.490  0.00  0.00    +0.000 C 
BRANCH  10  12
ATOM     12  O   UNL     1       3.402  18.229  -5.635  0.00  0.00    +0.000 OA
ATOM     13  H   UNL     1       3.739  18.213  -6.546  0.00  0.00    +0.000 HD
ENDBRANCH  10  12
ENDBRANCH   9  10
ENDBRANCH   1   9
BRANCH   1  14
ATOM     14  C   UNL     1       3.204  19.826  -2.336  0.00  0.00    +0.000 C 
BRANCH  14  15
ATOM     15  C   UNL     1       2.421  18.498  -2.200  0.00  0.00    +0.000 C 
ATOM     16  C   UNL     1       1.026  18.560  -2.810  0.00  0.00    +0.000 C 
BRANCH  15  17
ATOM     17  O   UNL     1       3.119  17.410  -2.804  0.00  0.00    +0.000 OA
ATOM     18  H   UNL     1       2.796  16.613  -2.338  0.00  0.00    +0.000 HD
ENDBRANCH  15  17
ENDBRANCH  14  15
ENDBRANCH   1  14
TORSDOF 7
ENDMDL
