MODEL 1
REMARK VINA RESULT:    -3.742      0.000      0.000
REMARK INTER + INTRA:          -4.916
REMARK INTER:                  -5.054
REMARK INTRA:                   0.138
REMARK UNBOUND:                 0.138
REMARK  Name = 
REMARK  10 active torsions:
REMARK  status: ('A' for Active; 'I' for Inactive)
REMARK    1  A    between atoms: C_1  and  C_2
REMARK    2  A    between atoms: C_5  and  N_8
REMARK    3  A    between atoms: N_8  and  C_9
REMARK    4  A    between atoms: N_8  and  C_13
REMARK    5  A    between atoms: C_9  and  C_10
REMARK    6  A    between atoms: C_10  and  C_11
REMARK    7  A    between atoms: C_10  and  O_12
REMARK    8  A    between atoms: C_13  and  C_14
REMARK    9  A    between atoms: C_14  and  C_15
REMARK   10  A    between atoms: C_14  and  O_16
REMARK                            x       y       z     vdW  Elec       q    Type
REMARK                         _______ _______ _______ _____ _____    ______ ____
ROOT
ATOM      1  N   UNL     1       0.855   3.629  11.515  0.00  0.00    +0.000 N 
ENDROOT
BRANCH   1   6
ATOM      2  C   UNL     1       0.795   8.397  14.771  0.00  0.00    +0.000 C 
ATOM      3  C   UNL     1       0.797   7.148  13.943  0.00  0.00    +0.000 A 
ATOM      4  C   UNL     1       1.814   6.208  14.071  0.00  0.00    +0.000 A 
ATOM      5  C   UNL     1       1.827   5.053  13.271  0.00  0.00    +0.000 A 
ATOM      6  C   UNL     1       0.847   4.792  12.296  0.00  0.00    +0.000 A 
ATOM      7  C   UNL     1      -0.166   5.763  12.196  0.00  0.00    +0.000 A 
ATOM      8  C   UNL     1      -0.192   6.921  12.991  0.00  0.00    +0.000 A 
ENDBRANCH   1   6
BRANCH   1   9
ATOM      9  C   UNL     1       0.455   2.332  12.111  0.00  0.00    +0.000 C 
BRANCH   9  10
ATOM     10  C   UNL     1       1.587   1.678  12.941  0.00  0.00    +0.000 C 
ATOM     11  C   UNL     1       1.497   2.091  14.405  0.00  0.00    +0.000 C 
BRANCH  10  12
ATOM     12  O   UNL     1       1.511   0.247  12.877  0.00  0.00    +0.000 OA
ATOM     13  H   UNL     1       2.361  -0.085  12.542  0.00  0.00    +0.000 HD
ENDBRANCH  10  12
ENDBRANCH   9  10
ENDBRANCH   1   9
BRANCH   1  14
ATOM     14  C   UNL     1       1.705   3.524  10.302  0.00  0.00    +0.000 C 
BRANCH  14  15
ATOM     15  C   UNL     1       0.867   3.320   9.017  0.00  0.00    +0.000 C 
ATOM     16  C   UNL     1       1.571   3.810   7.757  0.00  0.00    +0.000 C 
BRANCH  15  17
ATOM     17  O   UNL     1       0.521   1.949   8.825  0.00  0.00    +0.000 OA
ATOM     18  H   UNL     1      -0.416   1.884   9.098  0.00  0.00    +0.000 HD
ENDBRANCH  15  17
ENDBRANCH  14  15
ENDBRANCH   1  14
TORSDOF 7
ENDMDL
MODEL 2
REMARK VINA RESULT:    -3.308      0.762      3.541
REMARK INTER + INTRA:          -4.330
REMARK INTER:                  -4.618
REMARK INTRA:                   0.288
REMARK UNBOUND:                 0.138
REMARK  Name = 
REMARK  10 active torsions:
REMARK  status: ('A' for Active; 'I' for Inactive)
REMARK    1  A    between atoms: C_1  and  C_2
REMARK    2  A    between atoms: C_5  and  N_8
REMARK    3  A    between atoms: N_8  and  C_9
REMARK    4  A    between atoms: N_8  and  C_13
REMARK    5  A    between atoms: C_9  and  C_10
REMARK    6  A    between atoms: C_10  and  C_11
REMARK    7  A    between atoms: C_10  and  O_12
REMARK    8  A    between atoms: C_13  and  C_14
REMARK    9  A    between atoms: C_14  and  C_15
REMARK   10  A    between atoms: C_14  and  O_16
REMARK                            x       y       z     vdW  Elec       q    Type
REMARK                         _______ _______ _______ _____ _____    ______ ____
ROOT
ATOM      1  N   UNL     1       1.017   3.521  11.649  0.00  0.00    +0.000 N 
ENDROOT
BRANCH   1   6
ATOM      2  C   UNL     1       0.732   8.334  14.824  0.00  0.00    +0.000 C 
ATOM      3  C   UNL     1       0.820   7.097  13.984  0.00  0.00    +0.000 A 
ATOM      4  C   UNL     1      -0.139   6.822  13.015  0.00  0.00    +0.000 A 
ATOM      5  C   UNL     1      -0.068   5.646  12.250  0.00  0.00    +0.000 A 
ATOM      6  C   UNL     1       0.941   4.682  12.428  0.00  0.00    +0.000 A 
ATOM      7  C   UNL     1       1.894   4.994  13.415  0.00  0.00    +0.000 A 
ATOM      8  C   UNL     1       1.836   6.168  14.185  0.00  0.00    +0.000 A 
ENDBRANCH   1   6
BRANCH   1   9
ATOM      9  C   UNL     1       0.969   3.614  10.170  0.00  0.00    +0.000 C 
BRANCH   9  10
ATOM     10  C   UNL     1       0.379   2.345   9.508  0.00  0.00    +0.000 C 
ATOM     11  C   UNL     1      -1.137   2.452   9.382  0.00  0.00    +0.000 C 
BRANCH  10  12
ATOM     12  O   UNL     1       0.921   2.150   8.194  0.00  0.00    +0.000 OA
ATOM     13  H   UNL     1       0.336   1.541   7.714  0.00  0.00    +0.000 HD
ENDBRANCH  10  12
ENDBRANCH   9  10
ENDBRANCH   1   9
BRANCH   1  14
ATOM     14  C   UNL     1       0.636   2.197  12.204  0.00  0.00    +0.000 C 
BRANCH  14  15
ATOM     15  C   UNL     1       1.716   1.631  13.158  0.00  0.00    +0.000 C 
ATOM     16  C   UNL     1       1.542   2.091  14.600  0.00  0.00    +0.000 C 
BRANCH  15  17
ATOM     17  O   UNL     1       1.733   0.204  13.148  0.00  0.00    +0.000 OA
ATOM     18  H   UNL     1       2.666  -0.036  12.978  0.00  0.00    +0.000 HD
ENDBRANCH  15  17
ENDBRANCH  14  15
ENDBRANCH   1  14
TORSDOF 7
ENDMDL
MODEL 3
REMARK VINA RESULT:    -3.077     20.458     21.683
REMARK INTER + INTRA:          -4.019
REMARK INTER:                  -4.486
REMARK INTRA:                   0.468
REMARK UNBOUND:                 0.138
REMARK  Name = 
REMARK  10 active torsions:
REMARK  status: ('A' for Active; 'I' for Inactive)
REMARK    1  A    between atoms: C_1  and  C_2
REMARK    2  A    between atoms: C_5  and  N_8
REMARK    3  A    between atoms: N_8  and  C_9
REMARK    4  A    between atoms: N_8  and  C_13
REMARK    5  A    between atoms: C_9  and  C_10
REMARK    6  A    between atoms: C_10  and  C_11
REMARK    7  A    between atoms: C_10  and  O_12
REMARK    8  A    between atoms: C_13  and  C_14
REMARK    9  A    between atoms: C_14  and  C_15
REMARK   10  A    between atoms: C_14  and  O_16
REMARK                            x       y       z     vdW  Elec       q    Type
REMARK                         _______ _______ _______ _____ _____    ______ ____
ROOT
ATOM      1  N   UNL     1      11.089  20.660   3.328  0.00  0.00    +0.000 N 
ENDROOT
BRANCH   1   6
ATOM      2  C   UNL     1      16.541  19.829   5.035  0.00  0.00    +0.000 C 
ATOM      3  C   UNL     1      15.132  20.068   4.587  0.00  0.00    +0.000 A 
ATOM      4  C   UNL     1      14.151  20.459   5.492  0.00  0.00    +0.000 A 
ATOM      5  C   UNL     1      12.825  20.653   5.072  0.00  0.00    +0.000 A 
ATOM      6  C   UNL     1      12.409  20.446   3.744  0.00  0.00    +0.000 A 
ATOM      7  C   UNL     1      13.428  20.053   2.856  0.00  0.00    +0.000 A 
ATOM      8  C   UNL     1      14.758  19.858   3.263  0.00  0.00    +0.000 A 
ENDBRANCH   1   6
BRANCH   1   9
ATOM      9  C   UNL     1      10.337  19.575   2.653  0.00  0.00    +0.000 C 
BRANCH   9  10
ATOM     10  C   UNL     1       9.300  18.896   3.581  0.00  0.00    +0.000 C 
ATOM     11  C   UNL     1       9.987  17.979   4.587  0.00  0.00    +0.000 C 
BRANCH  10  12
ATOM     12  O   UNL     1       8.547  19.873   4.313  0.00  0.00    +0.000 OA
ATOM     13  H   UNL     1       7.702  19.470   4.572  0.00  0.00    +0.000 HD
ENDBRANCH  10  12
ENDBRANCH   9  10
ENDBRANCH   1   9
BRANCH   1  14
ATOM     14  C   UNL     1      10.578  22.030   3.066  0.00  0.00    +0.000 C 
BRANCH  14  15
ATOM     15  C   UNL     1      10.418  22.314   1.553  0.00  0.00    +0.000 C 
ATOM     16  C   UNL     1      11.742  22.307   0.798  0.00  0.00    +0.000 C 
BRANCH  15  17
ATOM     17  O   UNL     1       9.548  21.372   0.929  0.00  0.00    +0.000 OA
ATOM     18  H   UNL     1       8.777  21.305   1.528  0.00  0.00    +0.000 HD
ENDBRANCH  15  17
ENDBRANCH  14  15
ENDBRANCH   1  14
TORSDOF 7
ENDMDL
MODEL 4
REMARK VINA RESULT:    -2.785     20.483     21.904
REMARK INTER + INTRA:          -3.623
REMARK INTER:                  -3.143
REMARK INTRA:                  -0.481
REMARK UNBOUND:                 0.138
REMARK  Name = 
REMARK  10 active torsions:
REMARK  status: ('A' for Active; 'I' for Inactive)
REMARK    1  A    between atoms: C_1  and  C_2
REMARK    2  A    between atoms: C_5  and  N_8
REMARK    3  A    between atoms: N_8  and  C_9
REMARK    4  A    between atoms: N_8  and  C_13
REMARK    5  A    between atoms: C_9  and  C_10
REMARK    6  A    between atoms: C_10  and  C_11
REMARK    7  A    between atoms: C_10  and  O_12
REMARK    8  A    between atoms: C_13  and  C_14
REMARK    9  A    between atoms: C_14  and  C_15
REMARK   10  A    between atoms: C_14  and  O_16
REMARK                            x       y       z     vdW  Elec       q    Type
REMARK                         _______ _______ _______ _____ _____    ______ ____
ROOT
ATOM      1  N   UNL     1      11.330  20.902   3.567  0.00  0.00    +0.000 N 
ENDROOT
BRANCH   1   6
ATOM      2  C   UNL     1      16.758  19.625   5.061  0.00  0.00    +0.000 C 
ATOM      3  C   UNL     1      15.343  19.934   4.680  0.00  0.00    +0.000 A 
ATOM      4  C   UNL     1      14.895  19.740   3.377  0.00  0.00    +0.000 A 
ATOM      5  C   UNL     1      13.576  20.059   3.018  0.00  0.00    +0.000 A 
ATOM      6  C   UNL     1      12.651  20.605   3.927  0.00  0.00    +0.000 A 
ATOM      7  C   UNL     1      13.137  20.785   5.235  0.00  0.00    +0.000 A 
ATOM      8  C   UNL     1      14.453  20.468   5.607  0.00  0.00    +0.000 A 
ENDBRANCH   1   6
BRANCH   1   9
ATOM      9  C   UNL     1      10.975  22.266   3.106  0.00  0.00    +0.000 C 
BRANCH   9  10
ATOM     10  C   UNL     1      10.574  22.309   1.611  0.00  0.00    +0.000 C 
ATOM     11  C   UNL     1      11.796  22.153   0.714  0.00  0.00    +0.000 C 
BRANCH  10  12
ATOM     12  O   UNL     1       9.654  21.255   1.294  0.00  0.00    +0.000 OA
ATOM     13  H   UNL     1      10.154  20.535   0.875  0.00  0.00    +0.000 HD
ENDBRANCH  10  12
ENDBRANCH   9  10
ENDBRANCH   1   9
BRANCH   1  14
ATOM     14  C   UNL     1      10.192  20.103   4.089  0.00  0.00    +0.000 C 
BRANCH  14  15
ATOM     15  C   UNL     1      10.343  18.596   3.774  0.00  0.00    +0.000 C 
ATOM     16  C   UNL     1       9.251  17.739   4.405  0.00  0.00    +0.000 C 
BRANCH  15  17
ATOM     17  O   UNL     1      10.343  18.348   2.369  0.00  0.00    +0.000 OA
ATOM     18  H   UNL     1      11.076  17.717   2.223  0.00  0.00    +0.000 HD
ENDBRANCH  15  17
ENDBRANCH  14  15
ENDBRANCH   1  14
TORSDOF 7
ENDMDL
MODEL 5
REMARK VINA RESULT:    -2.402     19.951     21.446
REMARK INTER + INTRA:          -3.106
REMARK INTER:                  -2.619
REMARK INTRA:                  -0.487
REMARK UNBOUND:                 0.138
REMARK  Name = 
REMARK  10 active torsions:
REMARK  status: ('A' for Active; 'I' for Inactive)
REMARK    1  A    between atoms: C_1  and  C_2
REMARK    2  A    between atoms: C_5  and  N_8
REMARK    3  A    between atoms: N_8  and  C_9
REMARK    4  A    between atoms: N_8  and  C_13
REMARK    5  A    between atoms: C_9  and  C_10
REMARK    6  A    between atoms: C_10  and  C_11
REMARK    7  A    between atoms: C_10  and  O_12
REMARK    8  A    between atoms: C_13  and  C_14
REMARK    9  A    between atoms: C_14  and  C_15
REMARK   10  A    between atoms: C_14  and  O_16
REMARK                            x       y       z     vdW  Elec       q    Type
REMARK                         _______ _______ _______ _____ _____    ______ ____
ROOT
ATOM      1  N   UNL     1      10.041  21.254   3.971  0.00  0.00    +0.000 N 
ENDROOT
BRANCH   1   6
ATOM      2  C   UNL     1      15.625  22.246   5.052  0.00  0.00    +0.000 C 
ATOM      3  C   UNL     1      14.181  21.964   4.770  0.00  0.00    +0.000 A 
ATOM      4  C   UNL     1      13.690  21.983   3.468  0.00  0.00    +0.000 A 
ATOM      5  C   UNL     1      12.329  21.747   3.212  0.00  0.00    +0.000 A 
ATOM      6  C   UNL     1      11.393  21.507   4.234  0.00  0.00    +0.000 A 
ATOM      7  C   UNL     1      11.925  21.493   5.537  0.00  0.00    +0.000 A 
ATOM      8  C   UNL     1      13.284  21.725   5.807  0.00  0.00    +0.000 A 
ENDBRANCH   1   6
BRANCH   1   9
ATOM      9  C   UNL     1       9.655  20.142   3.068  0.00  0.00    +0.000 C 
BRANCH   9  10
ATOM     10  C   UNL     1      10.409  18.826   3.380  0.00  0.00    +0.000 C 
ATOM     11  C   UNL     1       9.818  18.138   4.605  0.00  0.00    +0.000 C 
BRANCH  10  12
ATOM     12  O   UNL     1      10.330  17.914   2.276  0.00  0.00    +0.000 OA
ATOM     13  H   UNL     1      10.237  17.015   2.634  0.00  0.00    +0.000 HD
ENDBRANCH  10  12
ENDBRANCH   9  10
ENDBRANCH   1   9
BRANCH   1  14
ATOM     14  C   UNL     1       9.015  22.316   4.126  0.00  0.00    +0.000 C 
BRANCH  14  15
ATOM     15  C   UNL     1       7.820  21.852   4.994  0.00  0.00    +0.000 C 
ATOM     16  C   UNL     1       7.915  22.317   6.442  0.00  0.00    +0.000 C 
BRANCH  15  17
ATOM     17  O   UNL     1       6.576  22.308   4.464  0.00  0.00    +0.000 OA
ATOM     18  H   UNL     1       6.812  23.040   3.859  0.00  0.00    +0.000 HD
ENDBRANCH  15  17
ENDBRANCH  14  15
ENDBRANCH   1  14
TORSDOF 7
ENDMDL
MODEL 6
REMARK VINA RESULT:    -2.320     19.957     21.313
REMARK INTER + INTRA:          -2.996
REMARK INTER:                  -2.833
REMARK INTRA:                  -0.162
REMARK UNBOUND:                 0.138
REMARK  Name = 
REMARK  10 active torsions:
REMARK  status: ('A' for Active; 'I' for Inactive)
REMARK    1  A    between atoms: C_1  and  C_2
REMARK    2  A    between atoms: C_5  and  N_8
REMARK    3  A    between atoms: N_8  and  C_9
REMARK    4  A    between atoms: N_8  and  C_13
REMARK    5  A    between atoms: C_9  and  C_10
REMARK    6  A    between atoms: C_10  and  C_11
REMARK    7  A    between atoms: C_10  and  O_12
REMARK    8  A    between atoms: C_13  and  C_14
REMARK    9  A    between atoms: C_14  and  C_15
REMARK   10  A    between atoms: C_14  and  O_16
REMARK                            x       y       z     vdW  Elec       q    Type
REMARK                         _______ _______ _______ _____ _____    ______ ____
ROOT
ATOM      1  N   UNL     1      11.040  20.629   3.381  0.00  0.00    +0.000 N 
ENDROOT
BRANCH   1   6
ATOM      2  C   UNL     1      16.490  19.836   5.113  0.00  0.00    +0.000 C 
ATOM      3  C   UNL     1      15.081  20.066   4.659  0.00  0.00    +0.000 A 
ATOM      4  C   UNL     1      14.088  20.426   5.564  0.00  0.00    +0.000 A 
ATOM      5  C   UNL     1      12.763  20.611   5.138  0.00  0.00    +0.000 A 
ATOM      6  C   UNL     1      12.360  20.424   3.803  0.00  0.00    +0.000 A 
ATOM      7  C   UNL     1      13.390  20.063   2.915  0.00  0.00    +0.000 A 
ATOM      8  C   UNL     1      14.720  19.877   3.328  0.00  0.00    +0.000 A 
ENDBRANCH   1   6
BRANCH   1   9
ATOM      9  C   UNL     1      10.341  19.585   2.594  0.00  0.00    +0.000 C 
BRANCH   9  10
ATOM     10  C   UNL     1      10.416  18.186   3.252  0.00  0.00    +0.000 C 
ATOM     11  C   UNL     1       9.578  18.136   4.524  0.00  0.00    +0.000 C 
BRANCH  10  12
ATOM     12  O   UNL     1       9.933  17.171   2.361  0.00  0.00    +0.000 OA
ATOM     13  H   UNL     1       9.153  16.759   2.769  0.00  0.00    +0.000 HD
ENDBRANCH  10  12
ENDBRANCH   9  10
ENDBRANCH   1   9
BRANCH   1  14
ATOM     14  C   UNL     1      10.483  21.999   3.236  0.00  0.00    +0.000 C 
BRANCH  14  15
ATOM     15  C   UNL     1       9.425  22.316   4.319  0.00  0.00    +0.000 C 
ATOM     16  C   UNL     1       8.239  21.359   4.298  0.00  0.00    +0.000 C 
BRANCH  15  17
ATOM     17  O   UNL     1       9.988  22.294   5.630  0.00  0.00    +0.000 OA
ATOM     18  H   UNL     1      10.063  21.345   5.856  0.00  0.00    +0.000 HD
ENDBRANCH  15  17
ENDBRANCH  14  15
ENDBRANCH   1  14
TORSDOF 7
ENDMDL
MODEL 7
REMARK VINA RESULT:    -1.580     20.019     21.393
REMARK INTER + INTRA:          -1.996
REMARK INTER:                  -3.184
REMARK INTRA:                   1.189
REMARK UNBOUND:                 0.138
REMARK  Name = 
REMARK  10 active torsions:
REMARK  status: ('A' for Active; 'I' for Inactive)
REMARK    1  A    between atoms: C_1  and  C_2
REMARK    2  A    between atoms: C_5  and  N_8
REMARK    3  A    between atoms: N_8  and  C_9
REMARK    4  A    between atoms: N_8  and  C_13
REMARK    5  A    between atoms: C_9  and  C_10
REMARK    6  A    between atoms: C_10  and  C_11
REMARK    7  A    between atoms: C_10  and  O_12
REMARK    8  A    between atoms: C_13  and  C_14
REMARK    9  A    between atoms: C_14  and  C_15
REMARK   10  A    between atoms: C_14  and  O_16
REMARK                            x       y       z     vdW  Elec       q    Type
REMARK                         _______ _______ _______ _____ _____    ______ ____
ROOT
ATOM      1  N   UNL     1      10.972  20.777   2.813  0.00  0.00    +0.000 N 
ENDROOT
BRANCH   1   6
ATOM      2  C   UNL     1      16.192  19.626   4.994  0.00  0.00    +0.000 C 
ATOM      3  C   UNL     1      14.844  19.949   4.425  0.00  0.00    +0.000 A 
ATOM      4  C   UNL     1      13.783  20.295   5.255  0.00  0.00    +0.000 A 
ATOM      5  C   UNL     1      12.514  20.567   4.719  0.00  0.00    +0.000 A 
ATOM      6  C   UNL     1      12.235  20.485   3.343  0.00  0.00    +0.000 A 
ATOM      7  C   UNL     1      13.332  20.135   2.534  0.00  0.00    +0.000 A 
ATOM      8  C   UNL     1      14.607  19.862   3.057  0.00  0.00    +0.000 A 
ENDBRANCH   1   6
BRANCH   1   9
ATOM      9  C   UNL     1      10.425  22.151   2.910  0.00  0.00    +0.000 C 
BRANCH   9  10
ATOM     10  C   UNL     1       9.421  22.316   4.077  0.00  0.00    +0.000 C 
ATOM     11  C   UNL     1       8.400  21.185   4.082  0.00  0.00    +0.000 C 
BRANCH  10  12
ATOM     12  O   UNL     1      10.096  22.310   5.342  0.00  0.00    +0.000 OA
ATOM     13  H   UNL     1       9.440  22.126   6.034  0.00  0.00    +0.000 HD
ENDBRANCH  10  12
ENDBRANCH   9  10
ENDBRANCH   1   9
BRANCH   1  14
ATOM     14  C   UNL     1       9.955  19.712   2.619  0.00  0.00    +0.000 C 
BRANCH  14  15
ATOM     15  C   UNL     1      10.424  18.347   3.179  0.00  0.00    +0.000 C 
ATOM     16  C   UNL     1       9.904  18.065   4.584  0.00  0.00    +0.000 C 
BRANCH  15  17
ATOM     17  O   UNL     1      10.027  17.267   2.336  0.00  0.00    +0.000 OA
ATOM     18  H   UNL     1       9.534  16.657   2.922  0.00  0.00    +0.000 HD
ENDBRANCH  15  17
ENDBRANCH  14  15
ENDBRANCH   1  14
TORSDOF 7
ENDMDL
MODEL 8
REMARK VINA RESULT:    -1.535     20.985     22.427
REMARK INTER + INTRA:          -1.935
REMARK INTER:                  -2.193
REMARK INTRA:                   0.258
REMARK UNBOUND:                 0.138
REMARK  Name = 
REMARK  10 active torsions:
REMARK  status: ('A' for Active; 'I' for Inactive)
REMARK    1  A    between atoms: C_1  and  C_2
REMARK    2  A    between atoms: C_5  and  N_8
REMARK    3  A    between atoms: N_8  and  C_9
REMARK    4  A    between atoms: N_8  and  C_13
REMARK    5  A    between atoms: C_9  and  C_10
REMARK    6  A    between atoms: C_10  and  C_11
REMARK    7  A    between atoms: C_10  and  O_12
REMARK    8  A    between atoms: C_13  and  C_14
REMARK    9  A    between atoms: C_14  and  C_15
REMARK   10  A    between atoms: C_14  and  O_16
REMARK                            x       y       z     vdW  Elec       q    Type
REMARK                         _______ _______ _______ _____ _____    ______ ____
ROOT
ATOM      1  N   UNL     1      12.977  20.381   3.433  0.00  0.00    +0.000 N 
ENDROOT
BRANCH   1   6
ATOM      2  C   UNL     1       7.504  21.782   4.624  0.00  0.00    +0.000 C 
ATOM      3  C   UNL     1       8.922  21.428   4.292  0.00  0.00    +0.000 A 
ATOM      4  C   UNL     1       9.241  20.184   3.758  0.00  0.00    +0.000 A 
ATOM      5  C   UNL     1      10.575  19.847   3.477  0.00  0.00    +0.000 A 
ATOM      6  C   UNL     1      11.651  20.716   3.734  0.00  0.00    +0.000 A 
ATOM      7  C   UNL     1      11.290  21.966   4.272  0.00  0.00    +0.000 A 
ATOM      8  C   UNL     1       9.960  22.317   4.556  0.00  0.00    +0.000 A 
ENDBRANCH   1   6
BRANCH   1   9
ATOM      9  C   UNL     1      13.330  19.885   2.081  0.00  0.00    +0.000 C 
BRANCH   9  10
ATOM     10  C   UNL     1      12.931  20.871   0.957  0.00  0.00    +0.000 C 
ATOM     11  C   UNL     1      13.021  22.314   1.440  0.00  0.00    +0.000 C 
BRANCH  10  12
ATOM     12  O   UNL     1      13.791  20.729  -0.182  0.00  0.00    +0.000 OA
ATOM     13  H   UNL     1      13.307  21.037  -0.966  0.00  0.00    +0.000 HD
ENDBRANCH  10  12
ENDBRANCH   9  10
ENDBRANCH   1   9
BRANCH   1  14
ATOM     14  C   UNL     1      13.939  20.014   4.504  0.00  0.00    +0.000 C 
BRANCH  14  15
ATOM     15  C   UNL     1      14.898  21.178   4.851  0.00  0.00    +0.000 C 
ATOM     16  C   UNL     1      16.289  20.707   5.260  0.00  0.00    +0.000 C 
BRANCH  15  17
ATOM     17  O   UNL     1      15.043  22.086   3.760  0.00  0.00    +0.000 OA
ATOM     18  H   UNL     1      15.947  22.447   3.850  0.00  0.00    +0.000 HD
ENDBRANCH  15  17
ENDBRANCH  14  15
ENDBRANCH   1  14
TORSDOF 7
ENDMDL
