MODEL 1
REMARK VINA RESULT:    -5.675      0.000      0.000
REMARK INTER + INTRA:          -8.282
REMARK INTER:                  -7.665
REMARK INTRA:                  -0.616
REMARK UNBOUND:                -0.616
REMARK  Name = 
REMARK  10 active torsions:
REMARK  status: ('A' for Active; 'I' for Inactive)
REMARK    1  A    between atoms: C_1  and  C_2
REMARK    2  A    between atoms: C_5  and  N_8
REMARK    3  A    between atoms: N_8  and  C_9
REMARK    4  A    between atoms: N_8  and  C_13
REMARK    5  A    between atoms: C_9  and  C_10
REMARK    6  A    between atoms: C_10  and  C_11
REMARK    7  A    between atoms: C_10  and  O_12
REMARK    8  A    between atoms: C_13  and  C_14
REMARK    9  A    between atoms: C_14  and  C_15
REMARK   10  A    between atoms: C_14  and  O_16
REMARK                            x       y       z     vdW  Elec       q    Type
REMARK                         _______ _______ _______ _____ _____    ______ ____
ROOT
ATOM      1  N   UNL     1       2.287  18.689   1.837  0.00  0.00    +0.000 N 
ENDROOT
BRANCH   1   6
ATOM      2  C   UNL     1      -1.608  18.177  -2.394  0.00  0.00    +0.000 C 
ATOM      3  C   UNL     1      -0.601  18.286  -1.290  0.00  0.00    +0.000 A 
ATOM      4  C   UNL     1      -0.978  18.703  -0.018  0.00  0.00    +0.000 A 
ATOM      5  C   UNL     1      -0.024  18.832   1.006  0.00  0.00    +0.000 A 
ATOM      6  C   UNL     1       1.345  18.577   0.807  0.00  0.00    +0.000 A 
ATOM      7  C   UNL     1       1.689  18.155  -0.490  0.00  0.00    +0.000 A 
ATOM      8  C   UNL     1       0.745  18.020  -1.522  0.00  0.00    +0.000 A 
ENDBRANCH   1   6
BRANCH   1   9
ATOM      9  C   UNL     1       2.034  18.047   3.149  0.00  0.00    +0.000 C 
BRANCH   9  10
ATOM     10  C   UNL     1       2.780  16.700   3.313  0.00  0.00    +0.000 C 
ATOM     11  C   UNL     1       1.906  15.676   4.028  0.00  0.00    +0.000 C 
BRANCH  10  12
ATOM     12  O   UNL     1       3.147  16.157   2.037  0.00  0.00    +0.000 OA
ATOM     13  H   UNL     1       2.941  16.820   1.357  0.00  0.00    +0.000 HD
ENDBRANCH  10  12
ENDBRANCH   9  10
ENDBRANCH   1   9
BRANCH   1  14
ATOM     14  C   UNL     1       3.264  19.807   1.867  0.00  0.00    +0.000 C 
BRANCH  14  15
ATOM     15  C   UNL     1       4.710  19.328   1.595  0.00  0.00    +0.000 C 
ATOM     16  C   UNL     1       5.528  19.137   2.867  0.00  0.00    +0.000 C 
BRANCH  15  17
ATOM     17  O   UNL     1       4.730  18.100   0.868  0.00  0.00    +0.000 OA
ATOM     18  H   UNL     1       4.313  17.447   1.464  0.00  0.00    +0.000 HD
ENDBRANCH  15  17
ENDBRANCH  14  15
ENDBRANCH   1  14
TORSDOF 7
ENDMDL
MODEL 2
REMARK VINA RESULT:    -5.633      0.167      1.201
REMARK INTER + INTRA:          -8.225
REMARK INTER:                  -7.611
REMARK INTRA:                  -0.615
REMARK UNBOUND:                -0.616
REMARK  Name = 
REMARK  10 active torsions:
REMARK  status: ('A' for Active; 'I' for Inactive)
REMARK    1  A    between atoms: C_1  and  C_2
REMARK    2  A    between atoms: C_5  and  N_8
REMARK    3  A    between atoms: N_8  and  C_9
REMARK    4  A    between atoms: N_8  and  C_13
REMARK    5  A    between atoms: C_9  and  C_10
REMARK    6  A    between atoms: C_10  and  C_11
REMARK    7  A    between atoms: C_10  and  O_12
REMARK    8  A    between atoms: C_13  and  C_14
REMARK    9  A    between atoms: C_14  and  C_15
REMARK   10  A    between atoms: C_14  and  O_16
REMARK                            x       y       z     vdW  Elec       q    Type
REMARK                         _______ _______ _______ _____ _____    ______ ____
ROOT
ATOM      1  N   UNL     1       2.261  18.726   1.729  0.00  0.00    +0.000 N 
ENDROOT
BRANCH   1   6
ATOM      2  C   UNL     1      -1.494  18.055  -2.605  0.00  0.00    +0.000 C 
ATOM      3  C   UNL     1      -0.517  18.253  -1.486  0.00  0.00    +0.000 A 
ATOM      4  C   UNL     1       0.842  18.028  -1.677  0.00  0.00    +0.000 A 
ATOM      5  C   UNL     1       1.750  18.186  -0.617  0.00  0.00    +0.000 A 
ATOM      6  C   UNL     1       1.348  18.551   0.681  0.00  0.00    +0.000 A 
ATOM      7  C   UNL     1      -0.032  18.773   0.837  0.00  0.00    +0.000 A 
ATOM      8  C   UNL     1      -0.950  18.620  -0.216  0.00  0.00    +0.000 A 
ENDBRANCH   1   6
BRANCH   1   9
ATOM      9  C   UNL     1       2.002  18.109   3.052  0.00  0.00    +0.000 C 
BRANCH   9  10
ATOM     10  C   UNL     1       2.801  16.802   3.272  0.00  0.00    +0.000 C 
ATOM     11  C   UNL     1       1.982  15.788   4.063  0.00  0.00    +0.000 C 
BRANCH  10  12
ATOM     12  O   UNL     1       3.162  16.202   2.020  0.00  0.00    +0.000 OA
ATOM     13  H   UNL     1       2.594  16.582   1.329  0.00  0.00    +0.000 HD
ENDBRANCH  10  12
ENDBRANCH   9  10
ENDBRANCH   1   9
BRANCH   1  14
ATOM     14  C   UNL     1       3.194  19.882   1.751  0.00  0.00    +0.000 C 
BRANCH  14  15
ATOM     15  C   UNL     1       4.660  19.455   1.500  0.00  0.00    +0.000 C 
ATOM     16  C   UNL     1       5.476  19.332   2.781  0.00  0.00    +0.000 C 
BRANCH  15  17
ATOM     17  O   UNL     1       4.735  18.211   0.806  0.00  0.00    +0.000 OA
ATOM     18  H   UNL     1       5.373  17.674   1.318  0.00  0.00    +0.000 HD
ENDBRANCH  15  17
ENDBRANCH  14  15
ENDBRANCH   1  14
TORSDOF 7
ENDMDL
MODEL 3
REMARK VINA RESULT:    -5.436      1.122      2.870
REMARK INTER + INTRA:          -7.959
REMARK INTER:                  -7.936
REMARK INTRA:                  -0.023
REMARK UNBOUND:                -0.616
REMARK  Name = 
REMARK  10 active torsions:
REMARK  status: ('A' for Active; 'I' for Inactive)
REMARK    1  A    between atoms: C_1  and  C_2
REMARK    2  A    between atoms: C_5  and  N_8
REMARK    3  A    between atoms: N_8  and  C_9
REMARK    4  A    between atoms: N_8  and  C_13
REMARK    5  A    between atoms: C_9  and  C_10
REMARK    6  A    between atoms: C_10  and  C_11
REMARK    7  A    between atoms: C_10  and  O_12
REMARK    8  A    between atoms: C_13  and  C_14
REMARK    9  A    between atoms: C_14  and  C_15
REMARK   10  A    between atoms: C_14  and  O_16
REMARK                            x       y       z     vdW  Elec       q    Type
REMARK                         _______ _______ _______ _____ _____    ______ ____
ROOT
ATOM      1  N   UNL     1       2.198  18.802   1.685  0.00  0.00    +0.000 N 
ENDROOT
BRANCH   1   6
ATOM      2  C   UNL     1      -0.998  18.014  -3.058  0.00  0.00    +0.000 C 
ATOM      3  C   UNL     1      -0.169  18.194  -1.823  0.00  0.00    +0.000 A 
ATOM      4  C   UNL     1      -0.765  18.470  -0.597  0.00  0.00    +0.000 A 
ATOM      5  C   UNL     1       0.018  18.667   0.552  0.00  0.00    +0.000 A 
ATOM      6  C   UNL     1       1.424  18.623   0.532  0.00  0.00    +0.000 A 
ATOM      7  C   UNL     1       1.992  18.340  -0.724  0.00  0.00    +0.000 A 
ATOM      8  C   UNL     1       1.220  18.138  -1.880  0.00  0.00    +0.000 A 
ENDBRANCH   1   6
BRANCH   1   9
ATOM      9  C   UNL     1       3.611  19.237   1.572  0.00  0.00    +0.000 C 
BRANCH   9  10
ATOM     10  C   UNL     1       4.108  19.996   2.826  0.00  0.00    +0.000 C 
ATOM     11  C   UNL     1       5.575  19.689   3.104  0.00  0.00    +0.000 C 
BRANCH  10  12
ATOM     12  O   UNL     1       3.975  21.414   2.657  0.00  0.00    +0.000 OA
ATOM     13  H   UNL     1       3.634  21.580   1.762  0.00  0.00    +0.000 HD
ENDBRANCH  10  12
ENDBRANCH   9  10
ENDBRANCH   1   9
BRANCH   1  14
ATOM     14  C   UNL     1       1.858  18.110   2.954  0.00  0.00    +0.000 C 
BRANCH  14  15
ATOM     15  C   UNL     1       2.726  16.848   3.182  0.00  0.00    +0.000 C 
ATOM     16  C   UNL     1       2.049  15.807   4.066  0.00  0.00    +0.000 C 
BRANCH  15  17
ATOM     17  O   UNL     1       3.077  16.220   1.950  0.00  0.00    +0.000 OA
ATOM     18  H   UNL     1       4.000  15.921   2.073  0.00  0.00    +0.000 HD
ENDBRANCH  15  17
ENDBRANCH  14  15
ENDBRANCH   1  14
TORSDOF 7
ENDMDL
MODEL 4
REMARK VINA RESULT:    -5.364      1.488      3.312
REMARK INTER + INTRA:          -7.862
REMARK INTER:                  -7.119
REMARK INTRA:                  -0.742
REMARK UNBOUND:                -0.616
REMARK  Name = 
REMARK  10 active torsions:
REMARK  status: ('A' for Active; 'I' for Inactive)
REMARK    1  A    between atoms: C_1  and  C_2
REMARK    2  A    between atoms: C_5  and  N_8
REMARK    3  A    between atoms: N_8  and  C_9
REMARK    4  A    between atoms: N_8  and  C_13
REMARK    5  A    between atoms: C_9  and  C_10
REMARK    6  A    between atoms: C_10  and  C_11
REMARK    7  A    between atoms: C_10  and  O_12
REMARK    8  A    between atoms: C_13  and  C_14
REMARK    9  A    between atoms: C_14  and  C_15
REMARK   10  A    between atoms: C_14  and  O_16
REMARK                            x       y       z     vdW  Elec       q    Type
REMARK                         _______ _______ _______ _____ _____    ______ ____
ROOT
ATOM      1  N   UNL     1       3.055  18.550   1.007  0.00  0.00    +0.000 N 
ENDROOT
BRANCH   1   6
ATOM      2  C   UNL     1      -2.150  18.515  -1.490  0.00  0.00    +0.000 C 
ATOM      3  C   UNL     1      -0.796  18.547  -0.849  0.00  0.00    +0.000 A 
ATOM      4  C   UNL     1       0.333  18.128  -1.544  0.00  0.00    +0.000 A 
ATOM      5  C   UNL     1       1.595  18.132  -0.929  0.00  0.00    +0.000 A 
ATOM      6  C   UNL     1       1.790  18.530   0.406  0.00  0.00    +0.000 A 
ATOM      7  C   UNL     1       0.627  18.950   1.078  0.00  0.00    +0.000 A 
ATOM      8  C   UNL     1      -0.641  18.952   0.473  0.00  0.00    +0.000 A 
ENDBRANCH   1   6
BRANCH   1   9
ATOM      9  C   UNL     1       4.049  19.577   0.613  0.00  0.00    +0.000 C 
BRANCH   9  10
ATOM     10  C   UNL     1       4.049  20.805   1.556  0.00  0.00    +0.000 C 
ATOM     11  C   UNL     1       3.055  21.858   1.081  0.00  0.00    +0.000 C 
BRANCH  10  12
ATOM     12  O   UNL     1       3.692  20.428   2.893  0.00  0.00    +0.000 OA
ATOM     13  H   UNL     1       2.751  20.633   3.022  0.00  0.00    +0.000 HD
ENDBRANCH  10  12
ENDBRANCH   9  10
ENDBRANCH   1   9
BRANCH   1  14
ATOM     14  C   UNL     1       3.630  17.330   1.629  0.00  0.00    +0.000 C 
BRANCH  14  15
ATOM     15  C   UNL     1       2.975  17.004   2.992  0.00  0.00    +0.000 C 
ATOM     16  C   UNL     1       2.965  15.513   3.312  0.00  0.00    +0.000 C 
BRANCH  15  17
ATOM     17  O   UNL     1       3.627  17.681   4.066  0.00  0.00    +0.000 OA
ATOM     18  H   UNL     1       3.050  17.537   4.843  0.00  0.00    +0.000 HD
ENDBRANCH  15  17
ENDBRANCH  14  15
ENDBRANCH   1  14
TORSDOF 7
ENDMDL
MODEL 5
REMARK VINA RESULT:    -5.263      1.874      2.640
REMARK INTER + INTRA:          -7.725
REMARK INTER:                  -7.149
REMARK INTRA:                  -0.576
REMARK UNBOUND:                -0.616
REMARK  Name = 
REMARK  10 active torsions:
REMARK  status: ('A' for Active; 'I' for Inactive)
REMARK    1  A    between atoms: C_1  and  C_2
REMARK    2  A    between atoms: C_5  and  N_8
REMARK    3  A    between atoms: N_8  and  C_9
REMARK    4  A    between atoms: N_8  and  C_13
REMARK    5  A    between atoms: C_9  and  C_10
REMARK    6  A    between atoms: C_10  and  C_11
REMARK    7  A    between atoms: C_10  and  O_12
REMARK    8  A    between atoms: C_13  and  C_14
REMARK    9  A    between atoms: C_14  and  C_15
REMARK   10  A    between atoms: C_14  and  O_16
REMARK                            x       y       z     vdW  Elec       q    Type
REMARK                         _______ _______ _______ _____ _____    ______ ____
ROOT
ATOM      1  N   UNL     1       3.460  18.341   0.352  0.00  0.00    +0.000 N 
ENDROOT
BRANCH   1   6
ATOM      2  C   UNL     1      -2.148  18.579  -1.000  0.00  0.00    +0.000 C 
ATOM      3  C   UNL     1      -0.690  18.541  -0.655  0.00  0.00    +0.000 A 
ATOM      4  C   UNL     1       0.261  18.191  -1.608  0.00  0.00    +0.000 A 
ATOM      5  C   UNL     1       1.623  18.128  -1.271  0.00  0.00    +0.000 A 
ATOM      6  C   UNL     1       2.098  18.386   0.027  0.00  0.00    +0.000 A 
ATOM      7  C   UNL     1       1.110  18.739   0.964  0.00  0.00    +0.000 A 
ATOM      8  C   UNL     1      -0.255  18.807   0.640  0.00  0.00    +0.000 A 
ENDBRANCH   1   6
BRANCH   1   9
ATOM      9  C   UNL     1       3.916  17.580   1.540  0.00  0.00    +0.000 C 
BRANCH   9  10
ATOM     10  C   UNL     1       4.903  18.382   2.423  0.00  0.00    +0.000 C 
ATOM     11  C   UNL     1       4.227  18.850   3.707  0.00  0.00    +0.000 C 
BRANCH  10  12
ATOM     12  O   UNL     1       6.038  17.583   2.785  0.00  0.00    +0.000 OA
ATOM     13  H   UNL     1       5.938  16.712   2.366  0.00  0.00    +0.000 HD
ENDBRANCH  10  12
ENDBRANCH   9  10
ENDBRANCH   1   9
BRANCH   1  14
ATOM     14  C   UNL     1       4.396  19.398  -0.110  0.00  0.00    +0.000 C 
BRANCH  14  15
ATOM     15  C   UNL     1       3.706  20.777  -0.231  0.00  0.00    +0.000 C 
ATOM     16  C   UNL     1       3.682  21.553   1.080  0.00  0.00    +0.000 C 
BRANCH  15  17
ATOM     17  O   UNL     1       4.333  21.596  -1.217  0.00  0.00    +0.000 OA
ATOM     18  H   UNL     1       5.287  21.564  -1.003  0.00  0.00    +0.000 HD
ENDBRANCH  15  17
ENDBRANCH  14  15
ENDBRANCH   1  14
TORSDOF 7
ENDMDL
MODEL 6
REMARK VINA RESULT:    -5.260     15.162     17.234
REMARK INTER + INTRA:          -7.721
REMARK INTER:                  -7.227
REMARK INTRA:                  -0.494
REMARK UNBOUND:                -0.616
REMARK  Name = 
REMARK  10 active torsions:
REMARK  status: ('A' for Active; 'I' for Inactive)
REMARK    1  A    between atoms: C_1  and  C_2
REMARK    2  A    between atoms: C_5  and  N_8
REMARK    3  A    between atoms: N_8  and  C_9
REMARK    4  A    between atoms: N_8  and  C_13
REMARK    5  A    between atoms: C_9  and  C_10
REMARK    6  A    between atoms: C_10  and  C_11
REMARK    7  A    between atoms: C_10  and  O_12
REMARK    8  A    between atoms: C_13  and  C_14
REMARK    9  A    between atoms: C_14  and  C_15
REMARK   10  A    between atoms: C_14  and  O_16
REMARK                            x       y       z     vdW  Elec       q    Type
REMARK                         _______ _______ _______ _____ _____    ______ ____
ROOT
ATOM      1  N   UNL     1       3.096  15.105 -15.678  0.00  0.00    +0.000 N 
ENDROOT
BRANCH   1   6
ATOM      2  C   UNL     1      -1.327  11.738 -14.117  0.00  0.00    +0.000 C 
ATOM      3  C   UNL     1      -0.164  12.592 -14.524  0.00  0.00    +0.000 A 
ATOM      4  C   UNL     1       0.675  13.157 -13.570  0.00  0.00    +0.000 A 
ATOM      5  C   UNL     1       1.745  13.981 -13.956  0.00  0.00    +0.000 A 
ATOM      6  C   UNL     1       2.015  14.299 -15.299  0.00  0.00    +0.000 A 
ATOM      7  C   UNL     1       1.148  13.708 -16.236  0.00  0.00    +0.000 A 
ATOM      8  C   UNL     1       0.075  12.881 -15.864  0.00  0.00    +0.000 A 
ENDBRANCH   1   6
BRANCH   1   9
ATOM      9  C   UNL     1       3.630  15.032 -17.060  0.00  0.00    +0.000 C 
BRANCH   9  10
ATOM     10  C   UNL     1       5.176  14.958 -17.102  0.00  0.00    +0.000 C 
ATOM     11  C   UNL     1       5.644  13.868 -18.058  0.00  0.00    +0.000 C 
BRANCH  10  12
ATOM     12  O   UNL     1       5.738  16.203 -17.539  0.00  0.00    +0.000 OA
ATOM     13  H   UNL     1       6.616  16.022 -17.914  0.00  0.00    +0.000 HD
ENDBRANCH  10  12
ENDBRANCH   9  10
ENDBRANCH   1   9
BRANCH   1  14
ATOM     14  C   UNL     1       4.045  15.642 -14.670  0.00  0.00    +0.000 C 
BRANCH  14  15
ATOM     15  C   UNL     1       3.919  17.177 -14.509  0.00  0.00    +0.000 C 
ATOM     16  C   UNL     1       2.893  17.587 -13.460  0.00  0.00    +0.000 C 
BRANCH  15  17
ATOM     17  O   UNL     1       5.168  17.774 -14.163  0.00  0.00    +0.000 OA
ATOM     18  H   UNL     1       5.389  18.353 -14.919  0.00  0.00    +0.000 HD
ENDBRANCH  15  17
ENDBRANCH  14  15
ENDBRANCH   1  14
TORSDOF 7
ENDMDL
MODEL 7
REMARK VINA RESULT:    -5.118      1.724      3.118
REMARK INTER + INTRA:          -7.530
REMARK INTER:                  -6.976
REMARK INTRA:                  -0.554
REMARK UNBOUND:                -0.616
REMARK  Name = 
REMARK  10 active torsions:
REMARK  status: ('A' for Active; 'I' for Inactive)
REMARK    1  A    between atoms: C_1  and  C_2
REMARK    2  A    between atoms: C_5  and  N_8
REMARK    3  A    between atoms: N_8  and  C_9
REMARK    4  A    between atoms: N_8  and  C_13
REMARK    5  A    between atoms: C_9  and  C_10
REMARK    6  A    between atoms: C_10  and  C_11
REMARK    7  A    between atoms: C_10  and  O_12
REMARK    8  A    between atoms: C_13  and  C_14
REMARK    9  A    between atoms: C_14  and  C_15
REMARK   10  A    between atoms: C_14  and  O_16
REMARK                            x       y       z     vdW  Elec       q    Type
REMARK                         _______ _______ _______ _____ _____    ______ ____
ROOT
ATOM      1  N   UNL     1       2.750  18.799   0.684  0.00  0.00    +0.000 N 
ENDROOT
BRANCH   1   6
ATOM      2  C   UNL     1      -1.914  18.134  -2.653  0.00  0.00    +0.000 C 
ATOM      3  C   UNL     1      -0.704  18.282  -1.782  0.00  0.00    +0.000 A 
ATOM      4  C   UNL     1      -0.829  18.625  -0.440  0.00  0.00    +0.000 A 
ATOM      5  C   UNL     1       0.310  18.792   0.365  0.00  0.00    +0.000 A 
ATOM      6  C   UNL     1       1.619  18.650  -0.129  0.00  0.00    +0.000 A 
ATOM      7  C   UNL     1       1.707  18.301  -1.489  0.00  0.00    +0.000 A 
ATOM      8  C   UNL     1       0.576  18.129  -2.305  0.00  0.00    +0.000 A 
ENDBRANCH   1   6
BRANCH   1   9
ATOM      9  C   UNL     1       3.918  19.573   0.199  0.00  0.00    +0.000 C 
BRANCH   9  10
ATOM     10  C   UNL     1       3.629  21.090   0.091  0.00  0.00    +0.000 C 
ATOM     11  C   UNL     1       3.797  21.775   1.442  0.00  0.00    +0.000 C 
BRANCH  10  12
ATOM     12  O   UNL     1       4.522  21.719  -0.839  0.00  0.00    +0.000 OA
ATOM     13  H   UNL     1       5.431  21.566  -0.534  0.00  0.00    +0.000 HD
ENDBRANCH  10  12
ENDBRANCH   9  10
ENDBRANCH   1   9
BRANCH   1  14
ATOM     14  C   UNL     1       3.050  17.829   1.768  0.00  0.00    +0.000 C 
BRANCH  14  15
ATOM     15  C   UNL     1       4.174  18.331   2.706  0.00  0.00    +0.000 C 
ATOM     16  C   UNL     1       3.652  18.865   4.035  0.00  0.00    +0.000 C 
BRANCH  15  17
ATOM     17  O   UNL     1       5.125  17.304   2.986  0.00  0.00    +0.000 OA
ATOM     18  H   UNL     1       4.821  16.899   3.822  0.00  0.00    +0.000 HD
ENDBRANCH  15  17
ENDBRANCH  14  15
ENDBRANCH   1  14
TORSDOF 7
ENDMDL
MODEL 8
REMARK VINA RESULT:    -4.901     15.247     17.182
REMARK INTER + INTRA:          -7.236
REMARK INTER:                  -6.876
REMARK INTRA:                  -0.360
REMARK UNBOUND:                -0.616
REMARK  Name = 
REMARK  10 active torsions:
REMARK  status: ('A' for Active; 'I' for Inactive)
REMARK    1  A    between atoms: C_1  and  C_2
REMARK    2  A    between atoms: C_5  and  N_8
REMARK    3  A    between atoms: N_8  and  C_9
REMARK    4  A    between atoms: N_8  and  C_13
REMARK    5  A    between atoms: C_9  and  C_10
REMARK    6  A    between atoms: C_10  and  C_11
REMARK    7  A    between atoms: C_10  and  O_12
REMARK    8  A    between atoms: C_13  and  C_14
REMARK    9  A    between atoms: C_14  and  C_15
REMARK   10  A    between atoms: C_14  and  O_16
REMARK                            x       y       z     vdW  Elec       q    Type
REMARK                         _______ _______ _______ _____ _____    ______ ____
ROOT
ATOM      1  N   UNL     1       2.339  14.883 -15.593  0.00  0.00    +0.000 N 
ENDROOT
BRANCH   1   6
ATOM      2  C   UNL     1      -1.932  11.094 -14.739  0.00  0.00    +0.000 C 
ATOM      3  C   UNL     1      -0.839  12.095 -14.955  0.00  0.00    +0.000 A 
ATOM      4  C   UNL     1      -0.612  12.646 -16.212  0.00  0.00    +0.000 A 
ATOM      5  C   UNL     1       0.433  13.562 -16.414  0.00  0.00    +0.000 A 
ATOM      6  C   UNL     1       1.311  13.954 -15.388  0.00  0.00    +0.000 A 
ATOM      7  C   UNL     1       1.051  13.379 -14.130  0.00  0.00    +0.000 A 
ATOM      8  C   UNL     1       0.008  12.463 -13.914  0.00  0.00    +0.000 A 
ENDBRANCH   1   6
BRANCH   1   9
ATOM      9  C   UNL     1       2.493  16.036 -14.674  0.00  0.00    +0.000 C 
BRANCH   9  10
ATOM     10  C   UNL     1       3.722  15.902 -13.742  0.00  0.00    +0.000 C 
ATOM     11  C   UNL     1       4.447  17.235 -13.600  0.00  0.00    +0.000 C 
BRANCH  10  12
ATOM     12  O   UNL     1       3.330  15.468 -12.432  0.00  0.00    +0.000 OA
ATOM     13  H   UNL     1       2.367  15.341 -12.433  0.00  0.00    +0.000 HD
ENDBRANCH  10  12
ENDBRANCH   9  10
ENDBRANCH   1   9
BRANCH   1  14
ATOM     14  C   UNL     1       2.956  15.065 -16.932  0.00  0.00    +0.000 C 
BRANCH  14  15
ATOM     15  C   UNL     1       4.486  14.833 -16.907  0.00  0.00    +0.000 C 
ATOM     16  C   UNL     1       4.979  13.964 -18.058  0.00  0.00    +0.000 C 
BRANCH  15  17
ATOM     17  O   UNL     1       5.206  16.063 -16.943  0.00  0.00    +0.000 OA
ATOM     18  H   UNL     1       6.090  15.850 -16.582  0.00  0.00    +0.000 HD
ENDBRANCH  15  17
ENDBRANCH  14  15
ENDBRANCH   1  14
TORSDOF 7
ENDMDL
MODEL 9
REMARK VINA RESULT:    -4.815      2.369      5.164
REMARK INTER + INTRA:          -7.121
REMARK INTER:                  -6.549
REMARK INTRA:                  -0.572
REMARK UNBOUND:                -0.616
REMARK  Name = 
REMARK  10 active torsions:
REMARK  status: ('A' for Active; 'I' for Inactive)
REMARK    1  A    between atoms: C_1  and  C_2
REMARK    2  A    between atoms: C_5  and  N_8
REMARK    3  A    between atoms: N_8  and  C_9
REMARK    4  A    between atoms: N_8  and  C_13
REMARK    5  A    between atoms: C_9  and  C_10
REMARK    6  A    between atoms: C_10  and  C_11
REMARK    7  A    between atoms: C_10  and  O_12
REMARK    8  A    between atoms: C_13  and  C_14
REMARK    9  A    between atoms: C_14  and  C_15
REMARK   10  A    between atoms: C_14  and  O_16
REMARK                            x       y       z     vdW  Elec       q    Type
REMARK                         _______ _______ _______ _____ _____    ______ ____
ROOT
ATOM      1  N   UNL     1       2.272  19.993  -0.558  0.00  0.00    +0.000 N 
ENDROOT
BRANCH   1   6
ATOM      2  C   UNL     1       2.393  16.336   3.907  0.00  0.00    +0.000 C 
ATOM      3  C   UNL     1       2.375  17.301   2.762  0.00  0.00    +0.000 A 
ATOM      4  C   UNL     1       1.338  18.217   2.616  0.00  0.00    +0.000 A 
ATOM      5  C   UNL     1       1.311  19.100   1.524  0.00  0.00    +0.000 A 
ATOM      6  C   UNL     1       2.295  19.097   0.519  0.00  0.00    +0.000 A 
ATOM      7  C   UNL     1       3.329  18.160   0.700  0.00  0.00    +0.000 A 
ATOM      8  C   UNL     1       3.369  17.273   1.788  0.00  0.00    +0.000 A 
ENDBRANCH   1   6
BRANCH   1   9
ATOM      9  C   UNL     1       2.046  21.439  -0.317  0.00  0.00    +0.000 C 
BRANCH   9  10
ATOM     10  C   UNL     1       3.358  22.215  -0.046  0.00  0.00    +0.000 C 
ATOM     11  C   UNL     1       3.707  22.194   1.438  0.00  0.00    +0.000 C 
BRANCH  10  12
ATOM     12  O   UNL     1       4.455  21.639  -0.769  0.00  0.00    +0.000 OA
ATOM     13  H   UNL     1       4.370  20.672  -0.726  0.00  0.00    +0.000 HD
ENDBRANCH  10  12
ENDBRANCH   9  10
ENDBRANCH   1   9
BRANCH   1  14
ATOM     14  C   UNL     1       1.958  19.533  -1.935  0.00  0.00    +0.000 C 
BRANCH  14  15
ATOM     15  C   UNL     1       0.723  18.602  -1.972  0.00  0.00    +0.000 C 
ATOM     16  C   UNL     1      -0.347  19.065  -2.954  0.00  0.00    +0.000 C 
BRANCH  15  17
ATOM     17  O   UNL     1       1.081  17.263  -2.309  0.00  0.00    +0.000 OA
ATOM     18  H   UNL     1       1.441  16.882  -1.482  0.00  0.00    +0.000 HD
ENDBRANCH  15  17
ENDBRANCH  14  15
ENDBRANCH   1  14
TORSDOF 7
ENDMDL
