MODEL 1
REMARK VINA RESULT:    -3.854      0.000      0.000
REMARK INTER + INTRA:          -4.240
REMARK INTER:                  -4.192
REMARK INTRA:                  -0.049
REMARK UNBOUND:                -0.049
REMARK  Name = 
REMARK  3 active torsions:
REMARK  status: ('A' for Active; 'I' for Inactive)
REMARK    1  A    between atoms: C_1  and  O_2
REMARK    2  A    between atoms: O_2  and  C_3
REMARK    3  A    between atoms: C_8  and  O_9
REMARK                            x       y       z     vdW  Elec       q    Type
REMARK                         _______ _______ _______ _____ _____    ______ ____
ROOT
ATOM      1  C   UNL     1      23.048  -6.881  53.283  0.00  0.00    +0.000 A 
ATOM      2  C   UNL     1      23.439  -7.804  54.252  0.00  0.00    +0.000 A 
ATOM      3  C   UNL     1      22.906  -7.729  55.545  0.00  0.00    +0.000 A 
ATOM      4  C   UNL     1      21.984  -6.733  55.874  0.00  0.00    +0.000 A 
ATOM      5  C   UNL     1      21.589  -5.808  54.911  0.00  0.00    +0.000 A 
ATOM      6  C   UNL     1      22.122  -5.889  53.631  0.00  0.00    +0.000 A 
ENDROOT
BRANCH   1   8
ATOM      7  C   UNL     1      23.433  -8.053  51.252  0.00  0.00    +0.000 C 
ATOM      8  O   UNL     1      23.486  -6.834  51.983  0.00  0.00    +0.000 OA
ENDBRANCH   1   8
BRANCH   6   9
ATOM      9  O   UNL     1      21.718  -4.968  52.702  0.00  0.00    +0.000 OA
ATOM     10  H   UNL     1      20.748  -5.066  52.661  0.00  0.00    +0.000 HD
ENDBRANCH   6   9
TORSDOF 2
ENDMDL
MODEL 2
REMARK VINA RESULT:    -3.497     11.503     12.826
REMARK INTER + INTRA:          -3.852
REMARK INTER:                  -3.812
REMARK INTRA:                  -0.040
REMARK UNBOUND:                -0.049
REMARK  Name = 
REMARK  3 active torsions:
REMARK  status: ('A' for Active; 'I' for Inactive)
REMARK    1  A    between atoms: C_1  and  O_2
REMARK    2  A    between atoms: O_2  and  C_3
REMARK    3  A    between atoms: C_8  and  O_9
REMARK                            x       y       z     vdW  Elec       q    Type
REMARK                         _______ _______ _______ _____ _____    ______ ____
ROOT
ATOM      1  C   UNL     1      15.789  -6.342  43.767  0.00  0.00    +0.000 A 
ATOM      2  C   UNL     1      15.132  -7.539  43.486  0.00  0.00    +0.000 A 
ATOM      3  C   UNL     1      13.863  -7.518  42.894  0.00  0.00    +0.000 A 
ATOM      4  C   UNL     1      13.247  -6.304  42.582  0.00  0.00    +0.000 A 
ATOM      5  C   UNL     1      13.898  -5.104  42.859  0.00  0.00    +0.000 A 
ATOM      6  C   UNL     1      15.156  -5.134  43.447  0.00  0.00    +0.000 A 
ENDROOT
BRANCH   1   8
ATOM      7  C   UNL     1      17.944  -7.278  44.124  0.00  0.00    +0.000 C 
ATOM      8  O   UNL     1      17.028  -6.212  44.342  0.00  0.00    +0.000 OA
ENDBRANCH   1   8
BRANCH   6   9
ATOM      9  O   UNL     1      15.775  -3.942  43.710  0.00  0.00    +0.000 OA
ATOM     10  H   UNL     1      16.108  -3.638  42.844  0.00  0.00    +0.000 HD
ENDBRANCH   6   9
TORSDOF 2
ENDMDL
MODEL 3
REMARK VINA RESULT:    -3.490     15.608     16.024
REMARK INTER + INTRA:          -3.845
REMARK INTER:                  -3.799
REMARK INTRA:                  -0.046
REMARK UNBOUND:                -0.049
REMARK  Name = 
REMARK  3 active torsions:
REMARK  status: ('A' for Active; 'I' for Inactive)
REMARK    1  A    between atoms: C_1  and  O_2
REMARK    2  A    between atoms: O_2  and  C_3
REMARK    3  A    between atoms: C_8  and  O_9
REMARK                            x       y       z     vdW  Elec       q    Type
REMARK                         _______ _______ _______ _____ _____    ______ ____
ROOT
ATOM      1  C   UNL     1      10.557  -3.408  43.591  0.00  0.00    +0.000 A 
ATOM      2  C   UNL     1      10.375  -4.451  44.498  0.00  0.00    +0.000 A 
ATOM      3  C   UNL     1       9.778  -4.202  45.740  0.00  0.00    +0.000 A 
ATOM      4  C   UNL     1       9.362  -2.913  46.080  0.00  0.00    +0.000 A 
ATOM      5  C   UNL     1       9.540  -1.866  45.179  0.00  0.00    +0.000 A 
ATOM      6  C   UNL     1      10.134  -2.122  43.949  0.00  0.00    +0.000 A 
ENDROOT
BRANCH   1   8
ATOM      7  C   UNL     1      12.303  -4.298  42.246  0.00  0.00    +0.000 C 
ATOM      8  O   UNL     1      11.126  -3.505  42.346  0.00  0.00    +0.000 OA
ENDBRANCH   1   8
BRANCH   6   9
ATOM      9  O   UNL     1      10.299  -1.076  43.080  0.00  0.00    +0.000 OA
ATOM     10  H   UNL     1      10.531  -1.495  42.230  0.00  0.00    +0.000 HD
ENDBRANCH   6   9
TORSDOF 2
ENDMDL
MODEL 4
REMARK VINA RESULT:    -3.430     10.779     12.258
REMARK INTER + INTRA:          -3.779
REMARK INTER:                  -3.726
REMARK INTRA:                  -0.053
REMARK UNBOUND:                -0.049
REMARK  Name = 
REMARK  3 active torsions:
REMARK  status: ('A' for Active; 'I' for Inactive)
REMARK    1  A    between atoms: C_1  and  O_2
REMARK    2  A    between atoms: O_2  and  C_3
REMARK    3  A    between atoms: C_8  and  O_9
REMARK                            x       y       z     vdW  Elec       q    Type
REMARK                         _______ _______ _______ _____ _____    ______ ____
ROOT
ATOM      1  C   UNL     1      15.515  -7.068  43.632  0.00  0.00    +0.000 A 
ATOM      2  C   UNL     1      14.555  -7.997  43.233  0.00  0.00    +0.000 A 
ATOM      3  C   UNL     1      14.572  -9.292  43.765  0.00  0.00    +0.000 A 
ATOM      4  C   UNL     1      15.545  -9.663  44.695  0.00  0.00    +0.000 A 
ATOM      5  C   UNL     1      16.507  -8.740  45.099  0.00  0.00    +0.000 A 
ATOM      6  C   UNL     1      16.484  -7.458  44.565  0.00  0.00    +0.000 A 
ENDROOT
BRANCH   1   8
ATOM      7  C   UNL     1      14.548  -4.899  43.534  0.00  0.00    +0.000 C 
ATOM      8  O   UNL     1      15.620  -5.771  43.195  0.00  0.00    +0.000 OA
ENDBRANCH   1   8
BRANCH   6   9
ATOM      9  O   UNL     1      17.440  -6.569  44.977  0.00  0.00    +0.000 OA
ATOM     10  H   UNL     1      17.036  -6.103  45.734  0.00  0.00    +0.000 HD
ENDBRANCH   6   9
TORSDOF 2
ENDMDL
MODEL 5
REMARK VINA RESULT:    -3.425      2.144      3.105
REMARK INTER + INTRA:          -3.774
REMARK INTER:                  -3.736
REMARK INTRA:                  -0.037
REMARK UNBOUND:                -0.049
REMARK  Name = 
REMARK  3 active torsions:
REMARK  status: ('A' for Active; 'I' for Inactive)
REMARK    1  A    between atoms: C_1  and  O_2
REMARK    2  A    between atoms: O_2  and  C_3
REMARK    3  A    between atoms: C_8  and  O_9
REMARK                            x       y       z     vdW  Elec       q    Type
REMARK                         _______ _______ _______ _____ _____    ______ ____
ROOT
ATOM      1  C   UNL     1      22.899  -7.349  55.108  0.00  0.00    +0.000 A 
ATOM      2  C   UNL     1      23.463  -7.658  53.870  0.00  0.00    +0.000 A 
ATOM      3  C   UNL     1      23.257  -6.808  52.776  0.00  0.00    +0.000 A 
ATOM      4  C   UNL     1      22.488  -5.650  52.914  0.00  0.00    +0.000 A 
ATOM      5  C   UNL     1      21.922  -5.335  54.147  0.00  0.00    +0.000 A 
ATOM      6  C   UNL     1      22.131  -6.184  55.226  0.00  0.00    +0.000 A 
ENDROOT
BRANCH   1   8
ATOM      7  C   UNL     1      23.800  -9.270  56.177  0.00  0.00    +0.000 C 
ATOM      8  O   UNL     1      23.016  -8.086  56.259  0.00  0.00    +0.000 OA
ENDBRANCH   1   8
BRANCH   6   9
ATOM      9  O   UNL     1      21.564  -5.853  56.428  0.00  0.00    +0.000 OA
ATOM     10  H   UNL     1      21.239  -6.699  56.790  0.00  0.00    +0.000 HD
ENDBRANCH   6   9
TORSDOF 2
ENDMDL
MODEL 6
REMARK VINA RESULT:    -3.414     16.207     16.809
REMARK INTER + INTRA:          -3.762
REMARK INTER:                  -3.714
REMARK INTRA:                  -0.048
REMARK UNBOUND:                -0.049
REMARK  Name = 
REMARK  3 active torsions:
REMARK  status: ('A' for Active; 'I' for Inactive)
REMARK    1  A    between atoms: C_1  and  O_2
REMARK    2  A    between atoms: O_2  and  C_3
REMARK    3  A    between atoms: C_8  and  O_9
REMARK                            x       y       z     vdW  Elec       q    Type
REMARK                         _______ _______ _______ _____ _____    ______ ____
ROOT
ATOM      1  C   UNL     1       9.357  -1.007  45.171  0.00  0.00    +0.000 A 
ATOM      2  C   UNL     1       9.063  -1.956  46.149  0.00  0.00    +0.000 A 
ATOM      3  C   UNL     1       9.325  -3.311  45.909  0.00  0.00    +0.000 A 
ATOM      4  C   UNL     1       9.878  -3.721  44.695  0.00  0.00    +0.000 A 
ATOM      5  C   UNL     1      10.175  -2.779  43.713  0.00  0.00    +0.000 A 
ATOM      6  C   UNL     1       9.912  -1.437  43.959  0.00  0.00    +0.000 A 
ENDROOT
BRANCH   1   8
ATOM      7  C   UNL     1       9.620   0.974  46.457  0.00  0.00    +0.000 C 
ATOM      8  O   UNL     1       9.155   0.346  45.268  0.00  0.00    +0.000 OA
ENDBRANCH   1   8
BRANCH   6   9
ATOM      9  O   UNL     1      10.212  -0.529  42.979  0.00  0.00    +0.000 OA
ATOM     10  H   UNL     1      10.045   0.342  43.388  0.00  0.00    +0.000 HD
ENDBRANCH   6   9
TORSDOF 2
ENDMDL
MODEL 7
REMARK VINA RESULT:    -3.367     15.759     16.408
REMARK INTER + INTRA:          -3.711
REMARK INTER:                  -3.673
REMARK INTRA:                  -0.038
REMARK UNBOUND:                -0.049
REMARK  Name = 
REMARK  3 active torsions:
REMARK  status: ('A' for Active; 'I' for Inactive)
REMARK    1  A    between atoms: C_1  and  O_2
REMARK    2  A    between atoms: O_2  and  C_3
REMARK    3  A    between atoms: C_8  and  O_9
REMARK                            x       y       z     vdW  Elec       q    Type
REMARK                         _______ _______ _______ _____ _____    ______ ____
ROOT
ATOM      1  C   UNL     1       9.831  -2.560  44.657  0.00  0.00    +0.000 A 
ATOM      2  C   UNL     1       9.345  -2.904  45.918  0.00  0.00    +0.000 A 
ATOM      3  C   UNL     1       8.875  -1.908  46.783  0.00  0.00    +0.000 A 
ATOM      4  C   UNL     1       8.889  -0.568  46.392  0.00  0.00    +0.000 A 
ATOM      5  C   UNL     1       9.372  -0.216  45.134  0.00  0.00    +0.000 A 
ATOM      6  C   UNL     1       9.837  -1.210  44.283  0.00  0.00    +0.000 A 
ENDROOT
BRANCH   1   8
ATOM      7  C   UNL     1      10.596  -4.751  44.148  0.00  0.00    +0.000 C 
ATOM      8  O   UNL     1      10.321  -3.426  43.712  0.00  0.00    +0.000 OA
ENDBRANCH   1   8
BRANCH   6   9
ATOM      9  O   UNL     1      10.307  -0.840  43.052  0.00  0.00    +0.000 OA
ATOM     10  H   UNL     1      10.885  -0.073  43.227  0.00  0.00    +0.000 HD
ENDBRANCH   6   9
TORSDOF 2
ENDMDL
MODEL 8
REMARK VINA RESULT:    -3.358      2.098      3.923
REMARK INTER + INTRA:          -3.702
REMARK INTER:                  -3.655
REMARK INTRA:                  -0.046
REMARK UNBOUND:                -0.049
REMARK  Name = 
REMARK  3 active torsions:
REMARK  status: ('A' for Active; 'I' for Inactive)
REMARK    1  A    between atoms: C_1  and  O_2
REMARK    2  A    between atoms: O_2  and  C_3
REMARK    3  A    between atoms: C_8  and  O_9
REMARK                            x       y       z     vdW  Elec       q    Type
REMARK                         _______ _______ _______ _____ _____    ______ ____
ROOT
ATOM      1  C   UNL     1      22.115  -6.642  55.066  0.00  0.00    +0.000 A 
ATOM      2  C   UNL     1      21.701  -5.514  54.360  0.00  0.00    +0.000 A 
ATOM      3  C   UNL     1      22.310  -5.189  53.141  0.00  0.00    +0.000 A 
ATOM      4  C   UNL     1      23.332  -5.987  52.625  0.00  0.00    +0.000 A 
ATOM      5  C   UNL     1      23.751  -7.117  53.325  0.00  0.00    +0.000 A 
ATOM      6  C   UNL     1      23.142  -7.431  54.533  0.00  0.00    +0.000 A 
ENDROOT
BRANCH   1   8
ATOM      7  C   UNL     1      21.974  -6.326  57.417  0.00  0.00    +0.000 C 
ATOM      8  O   UNL     1      21.611  -7.078  56.265  0.00  0.00    +0.000 OA
ENDBRANCH   1   8
BRANCH   6   9
ATOM      9  O   UNL     1      23.570  -8.546  55.202  0.00  0.00    +0.000 OA
ATOM     10  H   UNL     1      24.472  -8.707  54.865  0.00  0.00    +0.000 HD
ENDBRANCH   6   9
TORSDOF 2
ENDMDL
MODEL 9
REMARK VINA RESULT:    -3.336     11.026     11.949
REMARK INTER + INTRA:          -3.677
REMARK INTER:                  -3.633
REMARK INTRA:                  -0.044
REMARK UNBOUND:                -0.049
REMARK  Name = 
REMARK  3 active torsions:
REMARK  status: ('A' for Active; 'I' for Inactive)
REMARK    1  A    between atoms: C_1  and  O_2
REMARK    2  A    between atoms: O_2  and  C_3
REMARK    3  A    between atoms: C_8  and  O_9
REMARK                            x       y       z     vdW  Elec       q    Type
REMARK                         _______ _______ _______ _____ _____    ______ ____
ROOT
ATOM      1  C   UNL     1      16.717  -7.336  44.019  0.00  0.00    +0.000 A 
ATOM      2  C   UNL     1      16.352  -8.127  45.108  0.00  0.00    +0.000 A 
ATOM      3  C   UNL     1      16.632  -9.500  45.101  0.00  0.00    +0.000 A 
ATOM      4  C   UNL     1      17.274 -10.085  44.008  0.00  0.00    +0.000 A 
ATOM      5  C   UNL     1      17.642  -9.301  42.917  0.00  0.00    +0.000 A 
ATOM      6  C   UNL     1      17.361  -7.941  42.933  0.00  0.00    +0.000 A 
ENDROOT
BRANCH   1   8
ATOM      7  C   UNL     1      15.172  -5.576  43.619  0.00  0.00    +0.000 C 
ATOM      8  O   UNL     1      16.506  -5.987  43.891  0.00  0.00    +0.000 OA
ENDBRANCH   1   8
BRANCH   6   9
ATOM      9  O   UNL     1      17.732  -7.191  41.848  0.00  0.00    +0.000 OA
ATOM     10  H   UNL     1      16.954  -7.206  41.258  0.00  0.00    +0.000 HD
ENDBRANCH   6   9
TORSDOF 2
ENDMDL
