MODEL 1
REMARK VINA RESULT:    -3.043      0.000      0.000
REMARK INTER + INTRA:          -3.356
REMARK INTER:                  -3.310
REMARK INTRA:                  -0.046
REMARK UNBOUND:                -0.046
REMARK  Name = 
REMARK  3 active torsions:
REMARK  status: ('A' for Active; 'I' for Inactive)
REMARK    1  A    between atoms: C_1  and  O_2
REMARK    2  A    between atoms: O_2  and  C_3
REMARK    3  A    between atoms: C_8  and  O_9
REMARK                            x       y       z     vdW  Elec       q    Type
REMARK                         _______ _______ _______ _____ _____    ______ ____
ROOT
ATOM      1  C   UNL     1       5.240  12.222   9.992  0.00  0.00    +0.000 A 
ATOM      2  C   UNL     1       6.428  12.608  10.611  0.00  0.00    +0.000 A 
ATOM      3  C   UNL     1       7.521  13.013   9.835  0.00  0.00    +0.000 A 
ATOM      4  C   UNL     1       7.432  13.033   8.442  0.00  0.00    +0.000 A 
ATOM      5  C   UNL     1       6.248  12.648   7.817  0.00  0.00    +0.000 A 
ATOM      6  C   UNL     1       5.169  12.248   8.594  0.00  0.00    +0.000 A 
ENDROOT
BRANCH   1   8
ATOM      7  C   UNL     1       4.262  10.889  11.700  0.00  0.00    +0.000 C 
ATOM      8  O   UNL     1       4.095  11.804  10.623  0.00  0.00    +0.000 OA
ENDBRANCH   1   8
BRANCH   6   9
ATOM      9  O   UNL     1       4.016  11.874   7.956  0.00  0.00    +0.000 OA
ATOM     10  H   UNL     1       3.352  12.533   8.237  0.00  0.00    +0.000 HD
ENDBRANCH   6   9
TORSDOF 2
ENDMDL
MODEL 2
REMARK VINA RESULT:    -2.988      9.661     10.906
REMARK INTER + INTRA:          -3.296
REMARK INTER:                  -3.251
REMARK INTRA:                  -0.045
REMARK UNBOUND:                -0.046
REMARK  Name = 
REMARK  3 active torsions:
REMARK  status: ('A' for Active; 'I' for Inactive)
REMARK    1  A    between atoms: C_1  and  O_2
REMARK    2  A    between atoms: O_2  and  C_3
REMARK    3  A    between atoms: C_8  and  O_9
REMARK                            x       y       z     vdW  Elec       q    Type
REMARK                         _______ _______ _______ _____ _____    ______ ____
ROOT
ATOM      1  C   UNL     1       3.120  16.762  -0.143  0.00  0.00    +0.000 A 
ATOM      2  C   UNL     1       3.781  17.921  -0.547  0.00  0.00    +0.000 A 
ATOM      3  C   UNL     1       5.169  18.026  -0.391  0.00  0.00    +0.000 A 
ATOM      4  C   UNL     1       5.900  16.976   0.168  0.00  0.00    +0.000 A 
ATOM      5  C   UNL     1       5.247  15.814   0.574  0.00  0.00    +0.000 A 
ATOM      6  C   UNL     1       3.870  15.719   0.416  0.00  0.00    +0.000 A 
ENDROOT
BRANCH   1   8
ATOM      7  C   UNL     1       1.261  16.259  -1.535  0.00  0.00    +0.000 C 
ATOM      8  O   UNL     1       1.772  16.523  -0.234  0.00  0.00    +0.000 OA
ENDBRANCH   1   8
BRANCH   6   9
ATOM      9  O   UNL     1       3.251  14.568   0.822  0.00  0.00    +0.000 OA
ATOM     10  H   UNL     1       3.340  13.957   0.066  0.00  0.00    +0.000 HD
ENDBRANCH   6   9
TORSDOF 2
ENDMDL
MODEL 3
REMARK VINA RESULT:    -2.986      9.097     10.709
REMARK INTER + INTRA:          -3.294
REMARK INTER:                  -3.243
REMARK INTRA:                  -0.051
REMARK UNBOUND:                -0.046
REMARK  Name = 
REMARK  3 active torsions:
REMARK  status: ('A' for Active; 'I' for Inactive)
REMARK    1  A    between atoms: C_1  and  O_2
REMARK    2  A    between atoms: O_2  and  C_3
REMARK    3  A    between atoms: C_8  and  O_9
REMARK                            x       y       z     vdW  Elec       q    Type
REMARK                         _______ _______ _______ _____ _____    ______ ____
ROOT
ATOM      1  C   UNL     1       4.222  16.271   0.321  0.00  0.00    +0.000 A 
ATOM      2  C   UNL     1       4.267  17.518  -0.300  0.00  0.00    +0.000 A 
ATOM      3  C   UNL     1       3.161  17.977  -1.027  0.00  0.00    +0.000 A 
ATOM      4  C   UNL     1       2.010  17.195  -1.136  0.00  0.00    +0.000 A 
ATOM      5  C   UNL     1       1.957  15.948  -0.517  0.00  0.00    +0.000 A 
ATOM      6  C   UNL     1       3.059  15.500   0.201  0.00  0.00    +0.000 A 
ENDROOT
BRANCH   1   8
ATOM      7  C   UNL     1       5.681  16.431   2.190  0.00  0.00    +0.000 C 
ATOM      8  O   UNL     1       5.225  15.696   1.060  0.00  0.00    +0.000 OA
ENDBRANCH   1   8
BRANCH   6   9
ATOM      9  O   UNL     1       2.983  14.271   0.801  0.00  0.00    +0.000 OA
ATOM     10  H   UNL     1       2.128  13.903   0.507  0.00  0.00    +0.000 HD
ENDBRANCH   6   9
TORSDOF 2
ENDMDL
MODEL 4
REMARK VINA RESULT:    -2.965      1.441      3.290
REMARK INTER + INTRA:          -3.271
REMARK INTER:                  -3.224
REMARK INTRA:                  -0.046
REMARK UNBOUND:                -0.046
REMARK  Name = 
REMARK  3 active torsions:
REMARK  status: ('A' for Active; 'I' for Inactive)
REMARK    1  A    between atoms: C_1  and  O_2
REMARK    2  A    between atoms: O_2  and  C_3
REMARK    3  A    between atoms: C_8  and  O_9
REMARK                            x       y       z     vdW  Elec       q    Type
REMARK                         _______ _______ _______ _____ _____    ______ ____
ROOT
ATOM      1  C   UNL     1       6.480  12.662   8.005  0.00  0.00    +0.000 A 
ATOM      2  C   UNL     1       7.309  13.167   9.005  0.00  0.00    +0.000 A 
ATOM      3  C   UNL     1       6.902  13.114  10.345  0.00  0.00    +0.000 A 
ATOM      4  C   UNL     1       5.668  12.559  10.688  0.00  0.00    +0.000 A 
ATOM      5  C   UNL     1       4.835  12.051   9.694  0.00  0.00    +0.000 A 
ATOM      6  C   UNL     1       5.246  12.108   8.368  0.00  0.00    +0.000 A 
ENDROOT
BRANCH   1   8
ATOM      7  C   UNL     1       7.267  13.850   6.103  0.00  0.00    +0.000 C 
ATOM      8  O   UNL     1       6.748  12.648   6.660  0.00  0.00    +0.000 OA
ENDBRANCH   1   8
BRANCH   6   9
ATOM      9  O   UNL     1       4.409  11.603   7.409  0.00  0.00    +0.000 OA
ATOM     10  H   UNL     1       4.061  12.388   6.945  0.00  0.00    +0.000 HD
ENDBRANCH   6   9
TORSDOF 2
ENDMDL
MODEL 5
REMARK VINA RESULT:    -2.946      9.839     11.295
REMARK INTER + INTRA:          -3.250
REMARK INTER:                  -3.199
REMARK INTRA:                  -0.051
REMARK UNBOUND:                -0.046
REMARK  Name = 
REMARK  3 active torsions:
REMARK  status: ('A' for Active; 'I' for Inactive)
REMARK    1  A    between atoms: C_1  and  O_2
REMARK    2  A    between atoms: O_2  and  C_3
REMARK    3  A    between atoms: C_8  and  O_9
REMARK                            x       y       z     vdW  Elec       q    Type
REMARK                         _______ _______ _______ _____ _____    ______ ____
ROOT
ATOM      1  C   UNL     1       3.923  17.111  -0.015  0.00  0.00    +0.000 A 
ATOM      2  C   UNL     1       2.956  17.596  -0.895  0.00  0.00    +0.000 A 
ATOM      3  C   UNL     1       1.860  16.797  -1.240  0.00  0.00    +0.000 A 
ATOM      4  C   UNL     1       1.726  15.512  -0.710  0.00  0.00    +0.000 A 
ATOM      5  C   UNL     1       2.687  15.020   0.169  0.00  0.00    +0.000 A 
ATOM      6  C   UNL     1       3.771  15.820   0.506  0.00  0.00    +0.000 A 
ENDROOT
BRANCH   1   8
ATOM      7  C   UNL     1       5.932  18.234  -0.605  0.00  0.00    +0.000 C 
ATOM      8  O   UNL     1       5.043  17.780   0.408  0.00  0.00    +0.000 OA
ENDBRANCH   1   8
BRANCH   6   9
ATOM      9  O   UNL     1       4.703  15.314   1.373  0.00  0.00    +0.000 OA
ATOM     10  H   UNL     1       4.425  15.636   2.252  0.00  0.00    +0.000 HD
ENDBRANCH   6   9
TORSDOF 2
ENDMDL
MODEL 6
REMARK VINA RESULT:    -2.937      3.410      4.578
REMARK INTER + INTRA:          -3.241
REMARK INTER:                  -3.198
REMARK INTRA:                  -0.042
REMARK UNBOUND:                -0.046
REMARK  Name = 
REMARK  3 active torsions:
REMARK  status: ('A' for Active; 'I' for Inactive)
REMARK    1  A    between atoms: C_1  and  O_2
REMARK    2  A    between atoms: O_2  and  C_3
REMARK    3  A    between atoms: C_8  and  O_9
REMARK                            x       y       z     vdW  Elec       q    Type
REMARK                         _______ _______ _______ _____ _____    ______ ____
ROOT
ATOM      1  C   UNL     1       6.905  13.967   6.678  0.00  0.00    +0.000 A 
ATOM      2  C   UNL     1       6.406  15.225   7.011  0.00  0.00    +0.000 A 
ATOM      3  C   UNL     1       6.109  16.149   6.002  0.00  0.00    +0.000 A 
ATOM      4  C   UNL     1       6.310  15.821   4.660  0.00  0.00    +0.000 A 
ATOM      5  C   UNL     1       6.808  14.565   4.319  0.00  0.00    +0.000 A 
ATOM      6  C   UNL     1       7.100  13.655   5.327  0.00  0.00    +0.000 A 
ENDROOT
BRANCH   1   8
ATOM      7  C   UNL     1       7.774  13.378   8.810  0.00  0.00    +0.000 C 
ATOM      8  O   UNL     1       7.238  12.968   7.558  0.00  0.00    +0.000 OA
ENDBRANCH   1   8
BRANCH   6   9
ATOM      9  O   UNL     1       7.589  12.427   4.968  0.00  0.00    +0.000 OA
ATOM     10  H   UNL     1       7.894  12.027   5.804  0.00  0.00    +0.000 HD
ENDBRANCH   6   9
TORSDOF 2
ENDMDL
MODEL 7
REMARK VINA RESULT:    -2.907     19.055     19.367
REMARK INTER + INTRA:          -3.208
REMARK INTER:                  -3.155
REMARK INTRA:                  -0.053
REMARK UNBOUND:                -0.046
REMARK  Name = 
REMARK  3 active torsions:
REMARK  status: ('A' for Active; 'I' for Inactive)
REMARK    1  A    between atoms: C_1  and  O_2
REMARK    2  A    between atoms: O_2  and  C_3
REMARK    3  A    between atoms: C_8  and  O_9
REMARK                            x       y       z     vdW  Elec       q    Type
REMARK                         _______ _______ _______ _____ _____    ______ ____
ROOT
ATOM      1  C   UNL     1       5.380  18.453  -8.399  0.00  0.00    +0.000 A 
ATOM      2  C   UNL     1       4.248  19.175  -8.022  0.00  0.00    +0.000 A 
ATOM      3  C   UNL     1       2.980  18.591  -8.126  0.00  0.00    +0.000 A 
ATOM      4  C   UNL     1       2.837  17.288  -8.607  0.00  0.00    +0.000 A 
ATOM      5  C   UNL     1       3.963  16.560  -8.985  0.00  0.00    +0.000 A 
ATOM      6  C   UNL     1       5.218  17.148  -8.879  0.00  0.00    +0.000 A 
ENDROOT
BRANCH   1   8
ATOM      7  C   UNL     1       7.017  19.962  -9.231  0.00  0.00    +0.000 C 
ATOM      8  O   UNL     1       6.678  18.896  -8.352  0.00  0.00    +0.000 OA
ENDBRANCH   1   8
BRANCH   6   9
ATOM      9  O   UNL     1       6.310  16.413  -9.257  0.00  0.00    +0.000 OA
ATOM     10  H   UNL     1       6.191  16.266 -10.215  0.00  0.00    +0.000 HD
ENDBRANCH   6   9
TORSDOF 2
ENDMDL
MODEL 8
REMARK VINA RESULT:    -2.822      4.129      5.314
REMARK INTER + INTRA:          -3.115
REMARK INTER:                  -3.073
REMARK INTRA:                  -0.043
REMARK UNBOUND:                -0.046
REMARK  Name = 
REMARK  3 active torsions:
REMARK  status: ('A' for Active; 'I' for Inactive)
REMARK    1  A    between atoms: C_1  and  O_2
REMARK    2  A    between atoms: O_2  and  C_3
REMARK    3  A    between atoms: C_8  and  O_9
REMARK                            x       y       z     vdW  Elec       q    Type
REMARK                         _______ _______ _______ _____ _____    ______ ____
ROOT
ATOM      1  C   UNL     1       7.396  14.396   5.711  0.00  0.00    +0.000 A 
ATOM      2  C   UNL     1       8.232  15.284   6.387  0.00  0.00    +0.000 A 
ATOM      3  C   UNL     1       8.570  16.511   5.801  0.00  0.00    +0.000 A 
ATOM      4  C   UNL     1       8.075  16.854   4.541  0.00  0.00    +0.000 A 
ATOM      5  C   UNL     1       7.239  15.972   3.860  0.00  0.00    +0.000 A 
ATOM      6  C   UNL     1       6.910  14.758   4.448  0.00  0.00    +0.000 A 
ENDROOT
BRANCH   1   8
ATOM      7  C   UNL     1       6.746  13.050   7.558  0.00  0.00    +0.000 C 
ATOM      8  O   UNL     1       6.985  13.167   6.161  0.00  0.00    +0.000 OA
ENDBRANCH   1   8
BRANCH   6   9
ATOM      9  O   UNL     1       6.086  13.908   3.759  0.00  0.00    +0.000 OA
ATOM     10  H   UNL     1       6.690  13.282   3.316  0.00  0.00    +0.000 HD
ENDBRANCH   6   9
TORSDOF 2
ENDMDL
MODEL 9
REMARK VINA RESULT:    -2.797      3.863      5.624
REMARK INTER + INTRA:          -3.088
REMARK INTER:                  -3.047
REMARK INTRA:                  -0.040
REMARK UNBOUND:                -0.046
REMARK  Name = 
REMARK  3 active torsions:
REMARK  status: ('A' for Active; 'I' for Inactive)
REMARK    1  A    between atoms: C_1  and  O_2
REMARK    2  A    between atoms: O_2  and  C_3
REMARK    3  A    between atoms: C_8  and  O_9
REMARK                            x       y       z     vdW  Elec       q    Type
REMARK                         _______ _______ _______ _____ _____    ______ ____
ROOT
ATOM      1  C   UNL     1       6.790  14.792   5.210  0.00  0.00    +0.000 A 
ATOM      2  C   UNL     1       6.164  15.726   6.033  0.00  0.00    +0.000 A 
ATOM      3  C   UNL     1       5.930  15.426   7.381  0.00  0.00    +0.000 A 
ATOM      4  C   UNL     1       6.319  14.194   7.909  0.00  0.00    +0.000 A 
ATOM      5  C   UNL     1       6.946  13.255   7.093  0.00  0.00    +0.000 A 
ATOM      6  C   UNL     1       7.174  13.561   5.758  0.00  0.00    +0.000 A 
ENDROOT
BRANCH   1   8
ATOM      7  C   UNL     1       6.250  15.845   3.149  0.00  0.00    +0.000 C 
ATOM      8  O   UNL     1       7.081  14.949   3.878  0.00  0.00    +0.000 OA
ENDBRANCH   1   8
BRANCH   6   9
ATOM      9  O   UNL     1       7.791  12.622   4.975  0.00  0.00    +0.000 OA
ATOM     10  H   UNL     1       8.417  13.131   4.424  0.00  0.00    +0.000 HD
ENDBRANCH   6   9
TORSDOF 2
ENDMDL
