MODEL 1
REMARK VINA RESULT:    -5.574      0.000      0.000
REMARK INTER + INTRA:          -8.177
REMARK INTER:                  -7.529
REMARK INTRA:                  -0.648
REMARK UNBOUND:                -0.648
REMARK  Name = 
REMARK  10 active torsions:
REMARK  status: ('A' for Active; 'I' for Inactive)
REMARK    1  A    between atoms: C_1  and  C_2
REMARK    2  A    between atoms: C_5  and  N_8
REMARK    3  A    between atoms: N_8  and  C_9
REMARK    4  A    between atoms: N_8  and  C_13
REMARK    5  A    between atoms: C_9  and  C_10
REMARK    6  A    between atoms: C_10  and  C_11
REMARK    7  A    between atoms: C_10  and  O_12
REMARK    8  A    between atoms: C_13  and  C_14
REMARK    9  A    between atoms: C_14  and  C_15
REMARK   10  A    between atoms: C_14  and  O_16
REMARK                            x       y       z     vdW  Elec       q    Type
REMARK                         _______ _______ _______ _____ _____    ______ ____
ROOT
ATOM      1  N   UNL     1       2.367  18.735   1.873  0.00  0.00    +0.000 N 
ENDROOT
BRANCH   1   6
ATOM      2  C   UNL     1      -1.458  18.151  -2.412  0.00  0.00    +0.000 C 
ATOM      3  C   UNL     1      -0.468  18.278  -1.294  0.00  0.00    +0.000 A 
ATOM      4  C   UNL     1      -0.876  18.649  -0.017  0.00  0.00    +0.000 A 
ATOM      5  C   UNL     1       0.060  18.796   1.019  0.00  0.00    +0.000 A 
ATOM      6  C   UNL     1       1.441  18.605   0.831  0.00  0.00    +0.000 A 
ATOM      7  C   UNL     1       1.817  18.230  -0.472  0.00  0.00    +0.000 A 
ATOM      8  C   UNL     1       0.891  18.077  -1.517  0.00  0.00    +0.000 A 
ENDBRANCH   1   6
BRANCH   1   9
ATOM      9  C   UNL     1       2.049  18.202   3.220  0.00  0.00    +0.000 C 
BRANCH   9  10
ATOM     10  C   UNL     1       2.635  16.789   3.460  0.00  0.00    +0.000 C 
ATOM     11  C   UNL     1       1.589  15.861   4.066  0.00  0.00    +0.000 C 
BRANCH  10  12
ATOM     12  O   UNL     1       3.088  16.204   2.231  0.00  0.00    +0.000 OA
ATOM     13  H   UNL     1       3.955  16.588   2.017  0.00  0.00    +0.000 HD
ENDBRANCH  10  12
ENDBRANCH   9  10
ENDBRANCH   1   9
BRANCH   1  14
ATOM     14  C   UNL     1       3.407  19.795   1.851  0.00  0.00    +0.000 C 
BRANCH  14  15
ATOM     15  C   UNL     1       4.831  19.213   1.686  0.00  0.00    +0.000 C 
ATOM     16  C   UNL     1       5.550  18.999   3.013  0.00  0.00    +0.000 C 
BRANCH  15  17
ATOM     17  O   UNL     1       4.814  17.969   0.987  0.00  0.00    +0.000 OA
ATOM     18  H   UNL     1       4.158  17.421   1.463  0.00  0.00    +0.000 HD
ENDBRANCH  15  17
ENDBRANCH  14  15
ENDBRANCH   1  14
TORSDOF 7
ENDMDL
MODEL 2
REMARK VINA RESULT:    -5.333      1.532      3.066
REMARK INTER + INTRA:          -7.851
REMARK INTER:                  -7.132
REMARK INTRA:                  -0.719
REMARK UNBOUND:                -0.648
REMARK  Name = 
REMARK  10 active torsions:
REMARK  status: ('A' for Active; 'I' for Inactive)
REMARK    1  A    between atoms: C_1  and  C_2
REMARK    2  A    between atoms: C_5  and  N_8
REMARK    3  A    between atoms: N_8  and  C_9
REMARK    4  A    between atoms: N_8  and  C_13
REMARK    5  A    between atoms: C_9  and  C_10
REMARK    6  A    between atoms: C_10  and  C_11
REMARK    7  A    between atoms: C_10  and  O_12
REMARK    8  A    between atoms: C_13  and  C_14
REMARK    9  A    between atoms: C_14  and  C_15
REMARK   10  A    between atoms: C_14  and  O_16
REMARK                            x       y       z     vdW  Elec       q    Type
REMARK                         _______ _______ _______ _____ _____    ______ ____
ROOT
ATOM      1  N   UNL     1       3.071  18.566   0.987  0.00  0.00    +0.000 N 
ENDROOT
BRANCH   1   6
ATOM      2  C   UNL     1      -2.119  18.495  -1.540  0.00  0.00    +0.000 C 
ATOM      3  C   UNL     1      -0.776  18.489  -0.877  0.00  0.00    +0.000 A 
ATOM      4  C   UNL     1      -0.630  18.895   0.445  0.00  0.00    +0.000 A 
ATOM      5  C   UNL     1       0.636  18.916   1.052  0.00  0.00    +0.000 A 
ATOM      6  C   UNL     1       1.814  18.560   0.370  0.00  0.00    +0.000 A 
ATOM      7  C   UNL     1       1.628  18.154  -0.965  0.00  0.00    +0.000 A 
ATOM      8  C   UNL     1       0.367  18.126  -1.583  0.00  0.00    +0.000 A 
ENDBRANCH   1   6
BRANCH   1   9
ATOM      9  C   UNL     1       4.077  19.590   0.616  0.00  0.00    +0.000 C 
BRANCH   9  10
ATOM     10  C   UNL     1       4.048  20.825   1.549  0.00  0.00    +0.000 C 
ATOM     11  C   UNL     1       3.006  21.835   1.083  0.00  0.00    +0.000 C 
BRANCH  10  12
ATOM     12  O   UNL     1       3.729  20.446   2.895  0.00  0.00    +0.000 OA
ATOM     13  H   UNL     1       4.543  20.497   3.423  0.00  0.00    +0.000 HD
ENDBRANCH  10  12
ENDBRANCH   9  10
ENDBRANCH   1   9
BRANCH   1  14
ATOM     14  C   UNL     1       3.630  17.335   1.602  0.00  0.00    +0.000 C 
BRANCH  14  15
ATOM     15  C   UNL     1       2.980  17.018   2.971  0.00  0.00    +0.000 C 
ATOM     16  C   UNL     1       2.958  15.529   3.294  0.00  0.00    +0.000 C 
BRANCH  15  17
ATOM     17  O   UNL     1       3.645  17.692   4.038  0.00  0.00    +0.000 OA
ATOM     18  H   UNL     1       3.977  18.524   3.644  0.00  0.00    +0.000 HD
ENDBRANCH  15  17
ENDBRANCH  14  15
ENDBRANCH   1  14
TORSDOF 7
ENDMDL
MODEL 3
REMARK VINA RESULT:    -5.317      1.067      1.609
REMARK INTER + INTRA:          -7.831
REMARK INTER:                  -7.469
REMARK INTRA:                  -0.361
REMARK UNBOUND:                -0.648
REMARK  Name = 
REMARK  10 active torsions:
REMARK  status: ('A' for Active; 'I' for Inactive)
REMARK    1  A    between atoms: C_1  and  C_2
REMARK    2  A    between atoms: C_5  and  N_8
REMARK    3  A    between atoms: N_8  and  C_9
REMARK    4  A    between atoms: N_8  and  C_13
REMARK    5  A    between atoms: C_9  and  C_10
REMARK    6  A    between atoms: C_10  and  C_11
REMARK    7  A    between atoms: C_10  and  O_12
REMARK    8  A    between atoms: C_13  and  C_14
REMARK    9  A    between atoms: C_14  and  C_15
REMARK   10  A    between atoms: C_14  and  O_16
REMARK                            x       y       z     vdW  Elec       q    Type
REMARK                         _______ _______ _______ _____ _____    ______ ____
ROOT
ATOM      1  N   UNL     1       2.317  18.593   1.628  0.00  0.00    +0.000 N 
ENDROOT
BRANCH   1   6
ATOM      2  C   UNL     1      -1.919  18.369  -2.288  0.00  0.00    +0.000 C 
ATOM      3  C   UNL     1      -0.816  18.451  -1.278  0.00  0.00    +0.000 A 
ATOM      4  C   UNL     1       0.488  18.101  -1.614  0.00  0.00    +0.000 A 
ATOM      5  C   UNL     1       1.513  18.151  -0.655  0.00  0.00    +0.000 A 
ATOM      6  C   UNL     1       1.287  18.526   0.681  0.00  0.00    +0.000 A 
ATOM      7  C   UNL     1      -0.042  18.875   0.985  0.00  0.00    +0.000 A 
ATOM      8  C   UNL     1      -1.076  18.832   0.035  0.00  0.00    +0.000 A 
ENDBRANCH   1   6
BRANCH   1   9
ATOM      9  C   UNL     1       2.062  18.196   3.033  0.00  0.00    +0.000 C 
BRANCH   9  10
ATOM     10  C   UNL     1       2.649  16.806   3.381  0.00  0.00    +0.000 C 
ATOM     11  C   UNL     1       1.606  15.930   4.067  0.00  0.00    +0.000 C 
BRANCH  10  12
ATOM     12  O   UNL     1       3.093  16.125   2.199  0.00  0.00    +0.000 OA
ATOM     13  H   UNL     1       2.694  16.565   1.430  0.00  0.00    +0.000 HD
ENDBRANCH  10  12
ENDBRANCH   9  10
ENDBRANCH   1   9
BRANCH   1  14
ATOM     14  C   UNL     1       3.481  19.495   1.435  0.00  0.00    +0.000 C 
BRANCH  14  15
ATOM     15  C   UNL     1       4.137  19.898   2.778  0.00  0.00    +0.000 C 
ATOM     16  C   UNL     1       5.552  19.356   2.940  0.00  0.00    +0.000 C 
BRANCH  15  17
ATOM     17  O   UNL     1       4.186  21.315   2.936  0.00  0.00    +0.000 OA
ATOM     18  H   UNL     1       4.887  21.614   2.323  0.00  0.00    +0.000 HD
ENDBRANCH  15  17
ENDBRANCH  14  15
ENDBRANCH   1  14
TORSDOF 7
ENDMDL
MODEL 4
REMARK VINA RESULT:    -5.135     15.261     17.347
REMARK INTER + INTRA:          -7.585
REMARK INTER:                  -7.126
REMARK INTRA:                  -0.459
REMARK UNBOUND:                -0.648
REMARK  Name = 
REMARK  10 active torsions:
REMARK  status: ('A' for Active; 'I' for Inactive)
REMARK    1  A    between atoms: C_1  and  C_2
REMARK    2  A    between atoms: C_5  and  N_8
REMARK    3  A    between atoms: N_8  and  C_9
REMARK    4  A    between atoms: N_8  and  C_13
REMARK    5  A    between atoms: C_9  and  C_10
REMARK    6  A    between atoms: C_10  and  C_11
REMARK    7  A    between atoms: C_10  and  O_12
REMARK    8  A    between atoms: C_13  and  C_14
REMARK    9  A    between atoms: C_14  and  C_15
REMARK   10  A    between atoms: C_14  and  O_16
REMARK                            x       y       z     vdW  Elec       q    Type
REMARK                         _______ _______ _______ _____ _____    ______ ____
ROOT
ATOM      1  N   UNL     1       2.760  15.083 -15.648  0.00  0.00    +0.000 N 
ENDROOT
BRANCH   1   6
ATOM      2  C   UNL     1      -1.668  11.576 -14.456  0.00  0.00    +0.000 C 
ATOM      3  C   UNL     1      -0.505  12.466 -14.771  0.00  0.00    +0.000 A 
ATOM      4  C   UNL     1       0.375  12.871 -13.773  0.00  0.00    +0.000 A 
ATOM      5  C   UNL     1       1.447  13.730 -14.068  0.00  0.00    +0.000 A 
ATOM      6  C   UNL     1       1.678  14.242 -15.357  0.00  0.00    +0.000 A 
ATOM      7  C   UNL     1       0.770  13.811 -16.341  0.00  0.00    +0.000 A 
ATOM      8  C   UNL     1      -0.304  12.950 -16.060  0.00  0.00    +0.000 A 
ENDBRANCH   1   6
BRANCH   1   9
ATOM      9  C   UNL     1       3.348  15.094 -17.009  0.00  0.00    +0.000 C 
BRANCH   9  10
ATOM     10  C   UNL     1       4.880  14.875 -17.003  0.00  0.00    +0.000 C 
ATOM     11  C   UNL     1       5.289  13.853 -18.057  0.00  0.00    +0.000 C 
BRANCH  10  12
ATOM     12  O   UNL     1       5.577  16.098 -17.276  0.00  0.00    +0.000 OA
ATOM     13  H   UNL     1       4.949  16.832 -17.171  0.00  0.00    +0.000 HD
ENDBRANCH  10  12
ENDBRANCH   9  10
ENDBRANCH   1   9
BRANCH   1  14
ATOM     14  C   UNL     1       3.661  15.576 -14.574  0.00  0.00    +0.000 C 
BRANCH  14  15
ATOM     15  C   UNL     1       3.789  17.118 -14.582  0.00  0.00    +0.000 C 
ATOM     16  C   UNL     1       2.973  17.793 -13.485  0.00  0.00    +0.000 C 
BRANCH  15  17
ATOM     17  O   UNL     1       5.147  17.535 -14.442  0.00  0.00    +0.000 OA
ATOM     18  H   UNL     1       5.366  17.970 -15.290  0.00  0.00    +0.000 HD
ENDBRANCH  15  17
ENDBRANCH  14  15
ENDBRANCH   1  14
TORSDOF 7
ENDMDL
MODEL 5
REMARK VINA RESULT:    -5.068      1.578      1.857
REMARK INTER + INTRA:          -7.494
REMARK INTER:                  -6.960
REMARK INTRA:                  -0.534
REMARK UNBOUND:                -0.648
REMARK  Name = 
REMARK  10 active torsions:
REMARK  status: ('A' for Active; 'I' for Inactive)
REMARK    1  A    between atoms: C_1  and  C_2
REMARK    2  A    between atoms: C_5  and  N_8
REMARK    3  A    between atoms: N_8  and  C_9
REMARK    4  A    between atoms: N_8  and  C_13
REMARK    5  A    between atoms: C_9  and  C_10
REMARK    6  A    between atoms: C_10  and  C_11
REMARK    7  A    between atoms: C_10  and  O_12
REMARK    8  A    between atoms: C_13  and  C_14
REMARK    9  A    between atoms: C_14  and  C_15
REMARK   10  A    between atoms: C_14  and  O_16
REMARK                            x       y       z     vdW  Elec       q    Type
REMARK                         _______ _______ _______ _____ _____    ______ ____
ROOT
ATOM      1  N   UNL     1       2.304  19.033   1.077  0.00  0.00    +0.000 N 
ENDROOT
BRANCH   1   6
ATOM      2  C   UNL     1       0.406  20.442  -4.189  0.00  0.00    +0.000 C 
ATOM      3  C   UNL     1       0.878  20.086  -2.813  0.00  0.00    +0.000 A 
ATOM      4  C   UNL     1       1.701  20.948  -2.095  0.00  0.00    +0.000 A 
ATOM      5  C   UNL     1       2.165  20.596  -0.817  0.00  0.00    +0.000 A 
ATOM      6  C   UNL     1       1.854  19.369  -0.205  0.00  0.00    +0.000 A 
ATOM      7  C   UNL     1       1.019  18.523  -0.959  0.00  0.00    +0.000 A 
ATOM      8  C   UNL     1       0.546  18.864  -2.237  0.00  0.00    +0.000 A 
ENDBRANCH   1   6
BRANCH   1   9
ATOM      9  C   UNL     1       1.506  18.119   1.930  0.00  0.00    +0.000 C 
BRANCH   9  10
ATOM     10  C   UNL     1       2.376  17.316   2.928  0.00  0.00    +0.000 C 
ATOM     11  C   UNL     1       1.528  16.758   4.064  0.00  0.00    +0.000 C 
BRANCH  10  12
ATOM     12  O   UNL     1       3.025  16.215   2.276  0.00  0.00    +0.000 OA
ATOM     13  H   UNL     1       2.348  15.553   2.058  0.00  0.00    +0.000 HD
ENDBRANCH  10  12
ENDBRANCH   9  10
ENDBRANCH   1   9
BRANCH   1  14
ATOM     14  C   UNL     1       3.247  19.911   1.816  0.00  0.00    +0.000 C 
BRANCH  14  15
ATOM     15  C   UNL     1       4.724  19.514   1.579  0.00  0.00    +0.000 C 
ATOM     16  C   UNL     1       5.501  19.297   2.872  0.00  0.00    +0.000 C 
BRANCH  15  17
ATOM     17  O   UNL     1       4.831  18.326   0.796  0.00  0.00    +0.000 OA
ATOM     18  H   UNL     1       4.805  18.633  -0.133  0.00  0.00    +0.000 HD
ENDBRANCH  15  17
ENDBRANCH  14  15
ENDBRANCH   1  14
TORSDOF 7
ENDMDL
MODEL 6
REMARK VINA RESULT:    -4.910     15.277     17.222
REMARK INTER + INTRA:          -7.280
REMARK INTER:                  -6.938
REMARK INTRA:                  -0.342
REMARK UNBOUND:                -0.648
REMARK  Name = 
REMARK  10 active torsions:
REMARK  status: ('A' for Active; 'I' for Inactive)
REMARK    1  A    between atoms: C_1  and  C_2
REMARK    2  A    between atoms: C_5  and  N_8
REMARK    3  A    between atoms: N_8  and  C_9
REMARK    4  A    between atoms: N_8  and  C_13
REMARK    5  A    between atoms: C_9  and  C_10
REMARK    6  A    between atoms: C_10  and  C_11
REMARK    7  A    between atoms: C_10  and  O_12
REMARK    8  A    between atoms: C_13  and  C_14
REMARK    9  A    between atoms: C_14  and  C_15
REMARK   10  A    between atoms: C_14  and  O_16
REMARK                            x       y       z     vdW  Elec       q    Type
REMARK                         _______ _______ _______ _____ _____    ______ ____
ROOT
ATOM      1  N   UNL     1       2.351  14.881 -15.592  0.00  0.00    +0.000 N 
ENDROOT
BRANCH   1   6
ATOM      2  C   UNL     1      -1.965  11.154 -14.693  0.00  0.00    +0.000 C 
ATOM      3  C   UNL     1      -0.860  12.140 -14.919  0.00  0.00    +0.000 A 
ATOM      4  C   UNL     1      -0.653  12.705 -16.173  0.00  0.00    +0.000 A 
ATOM      5  C   UNL     1       0.403  13.606 -16.387  0.00  0.00    +0.000 A 
ATOM      6  C   UNL     1       1.312  13.967 -15.377  0.00  0.00    +0.000 A 
ATOM      7  C   UNL     1       1.071  13.379 -14.121  0.00  0.00    +0.000 A 
ATOM      8  C   UNL     1       0.017  12.478 -13.893  0.00  0.00    +0.000 A 
ENDBRANCH   1   6
BRANCH   1   9
ATOM      9  C   UNL     1       2.515  16.047 -14.691  0.00  0.00    +0.000 C 
BRANCH   9  10
ATOM     10  C   UNL     1       3.736  15.911 -13.748  0.00  0.00    +0.000 C 
ATOM     11  C   UNL     1       4.446  17.249 -13.580  0.00  0.00    +0.000 C 
BRANCH  10  12
ATOM     12  O   UNL     1       3.335  15.454 -12.449  0.00  0.00    +0.000 OA
ATOM     13  H   UNL     1       2.388  15.237 -12.485  0.00  0.00    +0.000 HD
ENDBRANCH  10  12
ENDBRANCH   9  10
ENDBRANCH   1   9
BRANCH   1  14
ATOM     14  C   UNL     1       2.974  15.036 -16.932  0.00  0.00    +0.000 C 
BRANCH  14  15
ATOM     15  C   UNL     1       4.503  14.804 -16.895  0.00  0.00    +0.000 C 
ATOM     16  C   UNL     1       5.005  13.933 -18.041  0.00  0.00    +0.000 C 
BRANCH  15  17
ATOM     17  O   UNL     1       5.224  16.034 -16.928  0.00  0.00    +0.000 OA
ATOM     18  H   UNL     1       6.081  15.837 -16.498  0.00  0.00    +0.000 HD
ENDBRANCH  15  17
ENDBRANCH  14  15
ENDBRANCH   1  14
TORSDOF 7
ENDMDL
MODEL 7
REMARK VINA RESULT:    -4.829      2.351      5.138
REMARK INTER + INTRA:          -7.170
REMARK INTER:                  -6.589
REMARK INTRA:                  -0.581
REMARK UNBOUND:                -0.648
REMARK  Name = 
REMARK  10 active torsions:
REMARK  status: ('A' for Active; 'I' for Inactive)
REMARK    1  A    between atoms: C_1  and  C_2
REMARK    2  A    between atoms: C_5  and  N_8
REMARK    3  A    between atoms: N_8  and  C_9
REMARK    4  A    between atoms: N_8  and  C_13
REMARK    5  A    between atoms: C_9  and  C_10
REMARK    6  A    between atoms: C_10  and  C_11
REMARK    7  A    between atoms: C_10  and  O_12
REMARK    8  A    between atoms: C_13  and  C_14
REMARK    9  A    between atoms: C_14  and  C_15
REMARK   10  A    between atoms: C_14  and  O_16
REMARK                            x       y       z     vdW  Elec       q    Type
REMARK                         _______ _______ _______ _____ _____    ______ ____
ROOT
ATOM      1  N   UNL     1       2.251  19.990  -0.518  0.00  0.00    +0.000 N 
ENDROOT
BRANCH   1   6
ATOM      2  C   UNL     1       2.336  16.318   3.936  0.00  0.00    +0.000 C 
ATOM      3  C   UNL     1       2.329  17.287   2.793  0.00  0.00    +0.000 A 
ATOM      4  C   UNL     1       1.337  18.256   2.685  0.00  0.00    +0.000 A 
ATOM      5  C   UNL     1       1.318  19.142   1.595  0.00  0.00    +0.000 A 
ATOM      6  C   UNL     1       2.265  19.091   0.556  0.00  0.00    +0.000 A 
ATOM      7  C   UNL     1       3.253  18.100   0.699  0.00  0.00    +0.000 A 
ATOM      8  C   UNL     1       3.285  17.209   1.785  0.00  0.00    +0.000 A 
ENDBRANCH   1   6
BRANCH   1   9
ATOM      9  C   UNL     1       2.052  21.439  -0.272  0.00  0.00    +0.000 C 
BRANCH   9  10
ATOM     10  C   UNL     1       3.377  22.185   0.019  0.00  0.00    +0.000 C 
ATOM     11  C   UNL     1       3.683  22.191   1.512  0.00  0.00    +0.000 C 
BRANCH  10  12
ATOM     12  O   UNL     1       4.478  21.563  -0.657  0.00  0.00    +0.000 OA
ATOM     13  H   UNL     1       4.869  22.216  -1.262  0.00  0.00    +0.000 HD
ENDBRANCH  10  12
ENDBRANCH   9  10
ENDBRANCH   1   9
BRANCH   1  14
ATOM     14  C   UNL     1       1.920  19.540  -1.894  0.00  0.00    +0.000 C 
BRANCH  14  15
ATOM     15  C   UNL     1       0.726  18.555  -1.915  0.00  0.00    +0.000 C 
ATOM     16  C   UNL     1      -0.386  18.981  -2.866  0.00  0.00    +0.000 C 
BRANCH  15  17
ATOM     17  O   UNL     1       1.136  17.237  -2.277  0.00  0.00    +0.000 OA
ATOM     18  H   UNL     1       2.079  17.186  -2.019  0.00  0.00    +0.000 HD
ENDBRANCH  15  17
ENDBRANCH  14  15
ENDBRANCH   1  14
TORSDOF 7
ENDMDL
MODEL 8
REMARK VINA RESULT:    -4.812      2.765      5.739
REMARK INTER + INTRA:          -7.148
REMARK INTER:                  -6.627
REMARK INTRA:                  -0.521
REMARK UNBOUND:                -0.648
REMARK  Name = 
REMARK  10 active torsions:
REMARK  status: ('A' for Active; 'I' for Inactive)
REMARK    1  A    between atoms: C_1  and  C_2
REMARK    2  A    between atoms: C_5  and  N_8
REMARK    3  A    between atoms: N_8  and  C_9
REMARK    4  A    between atoms: N_8  and  C_13
REMARK    5  A    between atoms: C_9  and  C_10
REMARK    6  A    between atoms: C_10  and  C_11
REMARK    7  A    between atoms: C_10  and  O_12
REMARK    8  A    between atoms: C_13  and  C_14
REMARK    9  A    between atoms: C_14  and  C_15
REMARK   10  A    between atoms: C_14  and  O_16
REMARK                            x       y       z     vdW  Elec       q    Type
REMARK                         _______ _______ _______ _____ _____    ______ ____
ROOT
ATOM      1  N   UNL     1       0.067  18.644   0.067  0.00  0.00    +0.000 N 
ENDROOT
BRANCH   1   6
ATOM      2  C   UNL     1       5.234  17.776   2.492  0.00  0.00    +0.000 C 
ATOM      3  C   UNL     1       3.889  17.977   1.864  0.00  0.00    +0.000 A 
ATOM      4  C   UNL     1       3.736  17.959   0.482  0.00  0.00    +0.000 A 
ATOM      5  C   UNL     1       2.477  18.178  -0.102  0.00  0.00    +0.000 A 
ATOM      6  C   UNL     1       1.323  18.446   0.656  0.00  0.00    +0.000 A 
ATOM      7  C   UNL     1       1.515  18.455   2.049  0.00  0.00    +0.000 A 
ATOM      8  C   UNL     1       2.767  18.235   2.646  0.00  0.00    +0.000 A 
ENDBRANCH   1   6
BRANCH   1   9
ATOM      9  C   UNL     1      -0.044  18.846  -1.397  0.00  0.00    +0.000 C 
BRANCH   9  10
ATOM     10  C   UNL     1      -1.174  18.000  -2.035  0.00  0.00    +0.000 C 
ATOM     11  C   UNL     1      -2.299  18.892  -2.546  0.00  0.00    +0.000 C 
BRANCH  10  12
ATOM     12  O   UNL     1      -0.679  17.231  -3.140  0.00  0.00    +0.000 OA
ATOM     13  H   UNL     1      -0.645  16.299  -2.867  0.00  0.00    +0.000 HD
ENDBRANCH  10  12
ENDBRANCH   9  10
ENDBRANCH   1   9
BRANCH   1  14
ATOM     14  C   UNL     1      -1.079  19.162   0.858  0.00  0.00    +0.000 C 
BRANCH  14  15
ATOM     15  C   UNL     1      -1.221  20.699   0.744  0.00  0.00    +0.000 C 
ATOM     16  C   UNL     1      -2.669  21.171   0.774  0.00  0.00    +0.000 C 
BRANCH  15  17
ATOM     17  O   UNL     1      -0.515  21.372   1.785  0.00  0.00    +0.000 OA
ATOM     18  H   UNL     1      -0.432  20.711   2.502  0.00  0.00    +0.000 HD
ENDBRANCH  15  17
ENDBRANCH  14  15
ENDBRANCH   1  14
TORSDOF 7
ENDMDL
MODEL 9
REMARK VINA RESULT:    -4.799      3.492      6.030
REMARK INTER + INTRA:          -7.130
REMARK INTER:                  -6.805
REMARK INTRA:                  -0.325
REMARK UNBOUND:                -0.648
REMARK  Name = 
REMARK  10 active torsions:
REMARK  status: ('A' for Active; 'I' for Inactive)
REMARK    1  A    between atoms: C_1  and  C_2
REMARK    2  A    between atoms: C_5  and  N_8
REMARK    3  A    between atoms: N_8  and  C_9
REMARK    4  A    between atoms: N_8  and  C_13
REMARK    5  A    between atoms: C_9  and  C_10
REMARK    6  A    between atoms: C_10  and  C_11
REMARK    7  A    between atoms: C_10  and  O_12
REMARK    8  A    between atoms: C_13  and  C_14
REMARK    9  A    between atoms: C_14  and  C_15
REMARK   10  A    between atoms: C_14  and  O_16
REMARK                            x       y       z     vdW  Elec       q    Type
REMARK                         _______ _______ _______ _____ _____    ______ ____
ROOT
ATOM      1  N   UNL     1       0.603  19.325  -1.856  0.00  0.00    +0.000 N 
ENDROOT
BRANCH   1   6
ATOM      2  C   UNL     1       4.181  17.324   2.209  0.00  0.00    +0.000 C 
ATOM      3  C   UNL     1       3.247  17.820   1.148  0.00  0.00    +0.000 A 
ATOM      4  C   UNL     1       3.698  18.066  -0.144  0.00  0.00    +0.000 A 
ATOM      5  C   UNL     1       2.824  18.560  -1.127  0.00  0.00    +0.000 A 
ATOM      6  C   UNL     1       1.473  18.852  -0.866  0.00  0.00    +0.000 A 
ATOM      7  C   UNL     1       1.051  18.589   0.450  0.00  0.00    +0.000 A 
ATOM      8  C   UNL     1       1.914  18.093   1.441  0.00  0.00    +0.000 A 
ENDBRANCH   1   6
BRANCH   1   9
ATOM      9  C   UNL     1      -0.223  18.373  -2.637  0.00  0.00    +0.000 C 
BRANCH   9  10
ATOM     10  C   UNL     1      -1.601  18.098  -1.987  0.00  0.00    +0.000 C 
ATOM     11  C   UNL     1      -2.112  19.332  -1.252  0.00  0.00    +0.000 C 
BRANCH  10  12
ATOM     12  O   UNL     1      -2.574  17.736  -2.976  0.00  0.00    +0.000 OA
ATOM     13  H   UNL     1      -3.163  17.068  -2.588  0.00  0.00    +0.000 HD
ENDBRANCH  10  12
ENDBRANCH   9  10
ENDBRANCH   1   9
BRANCH   1  14
ATOM     14  C   UNL     1       0.822  20.642  -2.508  0.00  0.00    +0.000 C 
BRANCH  14  15
ATOM     15  C   UNL     1      -0.011  20.799  -3.802  0.00  0.00    +0.000 C 
ATOM     16  C   UNL     1      -0.753  22.128  -3.880  0.00  0.00    +0.000 C 
BRANCH  15  17
ATOM     17  O   UNL     1       0.800  20.677  -4.969  0.00  0.00    +0.000 OA
ATOM     18  H   UNL     1       1.613  20.226  -4.666  0.00  0.00    +0.000 HD
ENDBRANCH  15  17
ENDBRANCH  14  15
ENDBRANCH   1  14
TORSDOF 7
ENDMDL
