MODEL 1
REMARK VINA RESULT:    -4.681      0.000      0.000
REMARK INTER + INTRA:          -5.135
REMARK INTER:                  -5.092
REMARK INTRA:                  -0.043
REMARK UNBOUND:                -0.043
REMARK  Name = 
REMARK  3 active torsions:
REMARK  status: ('A' for Active; 'I' for Inactive)
REMARK    1  A    between atoms: C_1  and  O_2
REMARK    2  A    between atoms: O_2  and  C_3
REMARK    3  A    between atoms: C_8  and  O_9
REMARK                            x       y       z     vdW  Elec       q    Type
REMARK                         _______ _______ _______ _____ _____    ______ ____
ROOT
ATOM      1  C   UNL     1       3.042  13.938   1.297  0.00  0.00    +0.000 A 
ATOM      2  C   UNL     1       4.328  14.355   0.953  0.00  0.00    +0.000 A 
ATOM      3  C   UNL     1       4.551  15.680   0.556  0.00  0.00    +0.000 A 
ATOM      4  C   UNL     1       3.494  16.590   0.501  0.00  0.00    +0.000 A 
ATOM      5  C   UNL     1       2.207  16.181   0.843  0.00  0.00    +0.000 A 
ATOM      6  C   UNL     1       1.995  14.865   1.235  0.00  0.00    +0.000 A 
ENDROOT
BRANCH   1   8
ATOM      7  C   UNL     1       3.040  12.308   3.026  0.00  0.00    +0.000 C 
ATOM      8  O   UNL     1       2.679  12.679   1.700  0.00  0.00    +0.000 OA
ENDBRANCH   1   8
BRANCH   6   9
ATOM      9  O   UNL     1       0.721  14.487   1.567  0.00  0.00    +0.000 OA
ATOM     10  H   UNL     1       0.836  13.810   2.261  0.00  0.00    +0.000 HD
ENDBRANCH   6   9
TORSDOF 2
ENDMDL
MODEL 2
REMARK VINA RESULT:    -4.327      1.519      3.158
REMARK INTER + INTRA:          -4.749
REMARK INTER:                  -4.705
REMARK INTRA:                  -0.044
REMARK UNBOUND:                -0.043
REMARK  Name = 
REMARK  3 active torsions:
REMARK  status: ('A' for Active; 'I' for Inactive)
REMARK    1  A    between atoms: C_1  and  O_2
REMARK    2  A    between atoms: O_2  and  C_3
REMARK    3  A    between atoms: C_8  and  O_9
REMARK                            x       y       z     vdW  Elec       q    Type
REMARK                         _______ _______ _______ _____ _____    ______ ____
ROOT
ATOM      1  C   UNL     1       2.856  15.158   0.987  0.00  0.00    +0.000 A 
ATOM      2  C   UNL     1       3.955  14.360   0.671  0.00  0.00    +0.000 A 
ATOM      3  C   UNL     1       4.009  13.034   1.118  0.00  0.00    +0.000 A 
ATOM      4  C   UNL     1       2.968  12.501   1.881  0.00  0.00    +0.000 A 
ATOM      5  C   UNL     1       1.866  13.292   2.200  0.00  0.00    +0.000 A 
ATOM      6  C   UNL     1       1.822  14.606   1.753  0.00  0.00    +0.000 A 
ENDROOT
BRANCH   1   8
ATOM      7  C   UNL     1       3.088  16.822  -0.693  0.00  0.00    +0.000 C 
ATOM      8  O   UNL     1       2.672  16.466   0.620  0.00  0.00    +0.000 OA
ENDBRANCH   1   8
BRANCH   6   9
ATOM      9  O   UNL     1       0.729  15.364   2.081  0.00  0.00    +0.000 OA
ATOM     10  H   UNL     1       0.927  15.714   2.970  0.00  0.00    +0.000 HD
ENDBRANCH   6   9
TORSDOF 2
ENDMDL
MODEL 3
REMARK VINA RESULT:    -4.056      1.114      2.685
REMARK INTER + INTRA:          -4.455
REMARK INTER:                  -4.415
REMARK INTRA:                  -0.040
REMARK UNBOUND:                -0.043
REMARK  Name = 
REMARK  3 active torsions:
REMARK  status: ('A' for Active; 'I' for Inactive)
REMARK    1  A    between atoms: C_1  and  O_2
REMARK    2  A    between atoms: O_2  and  C_3
REMARK    3  A    between atoms: C_8  and  O_9
REMARK                            x       y       z     vdW  Elec       q    Type
REMARK                         _______ _______ _______ _____ _____    ______ ____
ROOT
ATOM      1  C   UNL     1       1.694  14.925   1.600  0.00  0.00    +0.000 A 
ATOM      2  C   UNL     1       2.238  16.067   1.014  0.00  0.00    +0.000 A 
ATOM      3  C   UNL     1       3.559  16.052   0.550  0.00  0.00    +0.000 A 
ATOM      4  C   UNL     1       4.340  14.901   0.671  0.00  0.00    +0.000 A 
ATOM      5  C   UNL     1       3.803  13.756   1.255  0.00  0.00    +0.000 A 
ATOM      6  C   UNL     1       2.491  13.780   1.713  0.00  0.00    +0.000 A 
ENDROOT
BRANCH   1   8
ATOM      7  C   UNL     1      -0.219  15.995   2.519  0.00  0.00    +0.000 C 
ATOM      8  O   UNL     1       0.421  14.797   2.097  0.00  0.00    +0.000 OA
ENDBRANCH   1   8
BRANCH   6   9
ATOM      9  O   UNL     1       1.986  12.642   2.284  0.00  0.00    +0.000 OA
ATOM     10  H   UNL     1       1.896  12.859   3.232  0.00  0.00    +0.000 HD
ENDBRANCH   6   9
TORSDOF 2
ENDMDL
MODEL 4
REMARK VINA RESULT:    -3.945      1.907      3.836
REMARK INTER + INTRA:          -4.334
REMARK INTER:                  -4.390
REMARK INTRA:                   0.056
REMARK UNBOUND:                -0.043
REMARK  Name = 
REMARK  3 active torsions:
REMARK  status: ('A' for Active; 'I' for Inactive)
REMARK    1  A    between atoms: C_1  and  O_2
REMARK    2  A    between atoms: O_2  and  C_3
REMARK    3  A    between atoms: C_8  and  O_9
REMARK                            x       y       z     vdW  Elec       q    Type
REMARK                         _______ _______ _______ _____ _____    ______ ____
ROOT
ATOM      1  C   UNL     1       2.803  15.403   1.064  0.00  0.00    +0.000 A 
ATOM      2  C   UNL     1       1.594  14.870   1.509  0.00  0.00    +0.000 A 
ATOM      3  C   UNL     1       1.552  13.571   2.032  0.00  0.00    +0.000 A 
ATOM      4  C   UNL     1       2.715  12.802   2.110  0.00  0.00    +0.000 A 
ATOM      5  C   UNL     1       3.927  13.328   1.668  0.00  0.00    +0.000 A 
ATOM      6  C   UNL     1       3.959  14.616   1.151  0.00  0.00    +0.000 A 
ENDROOT
BRANCH   1   8
ATOM      7  C   UNL     1       2.854  16.769  -0.880  0.00  0.00    +0.000 C 
ATOM      8  O   UNL     1       2.991  16.653   0.531  0.00  0.00    +0.000 OA
ENDBRANCH   1   8
BRANCH   6   9
ATOM      9  O   UNL     1       5.162  15.111   0.722  0.00  0.00    +0.000 OA
ATOM     10  H   UNL     1       5.815  14.434   0.981  0.00  0.00    +0.000 HD
ENDBRANCH   6   9
TORSDOF 2
ENDMDL
MODEL 5
REMARK VINA RESULT:    -3.718      1.520      2.404
REMARK INTER + INTRA:          -4.087
REMARK INTER:                  -4.045
REMARK INTRA:                  -0.042
REMARK UNBOUND:                -0.043
REMARK  Name = 
REMARK  3 active torsions:
REMARK  status: ('A' for Active; 'I' for Inactive)
REMARK    1  A    between atoms: C_1  and  O_2
REMARK    2  A    between atoms: O_2  and  C_3
REMARK    3  A    between atoms: C_8  and  O_9
REMARK                            x       y       z     vdW  Elec       q    Type
REMARK                         _______ _______ _______ _____ _____    ______ ____
ROOT
ATOM      1  C   UNL     1       3.177  13.779   1.384  0.00  0.00    +0.000 A 
ATOM      2  C   UNL     1       1.818  13.801   1.693  0.00  0.00    +0.000 A 
ATOM      3  C   UNL     1       1.098  14.998   1.597  0.00  0.00    +0.000 A 
ATOM      4  C   UNL     1       1.731  16.175   1.194  0.00  0.00    +0.000 A 
ATOM      5  C   UNL     1       3.089  16.161   0.882  0.00  0.00    +0.000 A 
ATOM      6  C   UNL     1       3.796  14.969   0.981  0.00  0.00    +0.000 A 
ENDROOT
BRANCH   1   8
ATOM      7  C   UNL     1       3.699  11.705   2.419  0.00  0.00    +0.000 C 
ATOM      8  O   UNL     1       4.002  12.684   1.434  0.00  0.00    +0.000 OA
ENDBRANCH   1   8
BRANCH   6   9
ATOM      9  O   UNL     1       5.129  14.980   0.670  0.00  0.00    +0.000 OA
ATOM     10  H   UNL     1       5.581  15.135   1.521  0.00  0.00    +0.000 HD
ENDBRANCH   6   9
TORSDOF 2
ENDMDL
MODEL 6
REMARK VINA RESULT:    -3.554      1.442      2.592
REMARK INTER + INTRA:          -3.908
REMARK INTER:                  -3.979
REMARK INTRA:                   0.071
REMARK UNBOUND:                -0.043
REMARK  Name = 
REMARK  3 active torsions:
REMARK  status: ('A' for Active; 'I' for Inactive)
REMARK    1  A    between atoms: C_1  and  O_2
REMARK    2  A    between atoms: O_2  and  C_3
REMARK    3  A    between atoms: C_8  and  O_9
REMARK                            x       y       z     vdW  Elec       q    Type
REMARK                         _______ _______ _______ _____ _____    ______ ____
ROOT
ATOM      1  C   UNL     1       1.810  15.071   1.241  0.00  0.00    +0.000 A 
ATOM      2  C   UNL     1       2.610  13.975   1.559  0.00  0.00    +0.000 A 
ATOM      3  C   UNL     1       3.990  14.025   1.328  0.00  0.00    +0.000 A 
ATOM      4  C   UNL     1       4.575  15.168   0.779  0.00  0.00    +0.000 A 
ATOM      5  C   UNL     1       3.783  16.268   0.459  0.00  0.00    +0.000 A 
ATOM      6  C   UNL     1       2.415  16.209   0.691  0.00  0.00    +0.000 A 
ENDROOT
BRANCH   1   8
ATOM      7  C   UNL     1       0.002  15.704   2.647  0.00  0.00    +0.000 C 
ATOM      8  O   UNL     1       0.452  15.161   1.411  0.00  0.00    +0.000 OA
ENDBRANCH   1   8
BRANCH   6   9
ATOM      9  O   UNL     1       1.656  17.303   0.368  0.00  0.00    +0.000 OA
ATOM     10  H   UNL     1       0.806  17.160   0.826  0.00  0.00    +0.000 HD
ENDBRANCH   6   9
TORSDOF 2
ENDMDL
MODEL 7
REMARK VINA RESULT:    -3.313     12.136     12.823
REMARK INTER + INTRA:          -3.647
REMARK INTER:                  -3.595
REMARK INTRA:                  -0.052
REMARK UNBOUND:                -0.043
REMARK  Name = 
REMARK  3 active torsions:
REMARK  status: ('A' for Active; 'I' for Inactive)
REMARK    1  A    between atoms: C_1  and  O_2
REMARK    2  A    between atoms: O_2  and  C_3
REMARK    3  A    between atoms: C_8  and  O_9
REMARK                            x       y       z     vdW  Elec       q    Type
REMARK                         _______ _______ _______ _____ _____    ______ ____
ROOT
ATOM      1  C   UNL     1      -1.257  15.101 -10.510  0.00  0.00    +0.000 A 
ATOM      2  C   UNL     1      -2.136  15.600  -9.550  0.00  0.00    +0.000 A 
ATOM      3  C   UNL     1      -1.978  16.907  -9.070  0.00  0.00    +0.000 A 
ATOM      4  C   UNL     1      -0.945  17.716  -9.546  0.00  0.00    +0.000 A 
ATOM      5  C   UNL     1      -0.063  17.224 -10.506  0.00  0.00    +0.000 A 
ATOM      6  C   UNL     1      -0.226  15.927 -10.976  0.00  0.00    +0.000 A 
ENDROOT
BRANCH   1   8
ATOM      7  C   UNL     1      -2.375  13.571 -11.945  0.00  0.00    +0.000 C 
ATOM      8  O   UNL     1      -1.291  13.847 -11.067  0.00  0.00    +0.000 OA
ENDBRANCH   1   8
BRANCH   6   9
ATOM      9  O   UNL     1       0.653  15.466 -11.918  0.00  0.00    +0.000 OA
ATOM     10  H   UNL     1       0.303  14.592 -12.179  0.00  0.00    +0.000 HD
ENDBRANCH   6   9
TORSDOF 2
ENDMDL
MODEL 8
REMARK VINA RESULT:    -3.292     10.315     11.642
REMARK INTER + INTRA:          -3.624
REMARK INTER:                  -3.582
REMARK INTRA:                  -0.042
REMARK UNBOUND:                -0.043
REMARK  Name = 
REMARK  3 active torsions:
REMARK  status: ('A' for Active; 'I' for Inactive)
REMARK    1  A    between atoms: C_1  and  O_2
REMARK    2  A    between atoms: O_2  and  C_3
REMARK    3  A    between atoms: C_8  and  O_9
REMARK                            x       y       z     vdW  Elec       q    Type
REMARK                         _______ _______ _______ _____ _____    ______ ____
ROOT
ATOM      1  C   UNL     1      11.584  21.356  -2.796  0.00  0.00    +0.000 A 
ATOM      2  C   UNL     1      11.594  22.518  -3.567  0.00  0.00    +0.000 A 
ATOM      3  C   UNL     1      10.386  23.131  -3.924  0.00  0.00    +0.000 A 
ATOM      4  C   UNL     1       9.168  22.586  -3.514  0.00  0.00    +0.000 A 
ATOM      5  C   UNL     1       9.150  21.426  -2.743  0.00  0.00    +0.000 A 
ATOM      6  C   UNL     1      10.353  20.825  -2.394  0.00  0.00    +0.000 A 
ENDROOT
BRANCH   1   8
ATOM      7  C   UNL     1      13.804  20.642  -3.253  0.00  0.00    +0.000 C 
ATOM      8  O   UNL     1      12.684  20.653  -2.376  0.00  0.00    +0.000 OA
ENDBRANCH   1   8
BRANCH   6   9
ATOM      9  O   UNL     1      10.310  19.685  -1.636  0.00  0.00    +0.000 OA
ATOM     10  H   UNL     1       9.382  19.385  -1.692  0.00  0.00    +0.000 HD
ENDBRANCH   6   9
TORSDOF 2
ENDMDL
MODEL 9
REMARK VINA RESULT:    -3.282      9.981     11.415
REMARK INTER + INTRA:          -3.613
REMARK INTER:                  -3.561
REMARK INTRA:                  -0.052
REMARK UNBOUND:                -0.043
REMARK  Name = 
REMARK  3 active torsions:
REMARK  status: ('A' for Active; 'I' for Inactive)
REMARK    1  A    between atoms: C_1  and  O_2
REMARK    2  A    between atoms: O_2  and  C_3
REMARK    3  A    between atoms: C_8  and  O_9
REMARK                            x       y       z     vdW  Elec       q    Type
REMARK                         _______ _______ _______ _____ _____    ______ ____
ROOT
ATOM      1  C   UNL     1       9.883  21.585  -3.181  0.00  0.00    +0.000 A 
ATOM      2  C   UNL     1      10.447  22.574  -3.986  0.00  0.00    +0.000 A 
ATOM      3  C   UNL     1      11.838  22.731  -4.031  0.00  0.00    +0.000 A 
ATOM      4  C   UNL     1      12.668  21.902  -3.274  0.00  0.00    +0.000 A 
ATOM      5  C   UNL     1      12.112  20.912  -2.468  0.00  0.00    +0.000 A 
ATOM      6  C   UNL     1      10.732  20.764  -2.429  0.00  0.00    +0.000 A 
ENDROOT
BRANCH   1   8
ATOM      7  C   UNL     1       7.768  22.310  -2.376  0.00  0.00    +0.000 C 
ATOM      8  O   UNL     1       8.544  21.320  -3.040  0.00  0.00    +0.000 OA
ENDBRANCH   1   8
BRANCH   6   9
ATOM      9  O   UNL     1      10.209  19.783  -1.629  0.00  0.00    +0.000 OA
ATOM     10  H   UNL     1      10.451  18.947  -2.071  0.00  0.00    +0.000 HD
ENDBRANCH   6   9
TORSDOF 2
ENDMDL
