MODEL 1
REMARK VINA RESULT:    -3.784      0.000      0.000
REMARK INTER + INTRA:          -5.798
REMARK INTER:                  -5.112
REMARK INTRA:                  -0.686
REMARK UNBOUND:                -0.686
REMARK  Name = 
REMARK  10 active torsions:
REMARK  status: ('A' for Active; 'I' for Inactive)
REMARK    1  A    between atoms: C_1  and  C_2
REMARK    2  A    between atoms: C_5  and  N_8
REMARK    3  A    between atoms: N_8  and  C_9
REMARK    4  A    between atoms: N_8  and  C_13
REMARK    5  A    between atoms: C_9  and  C_10
REMARK    6  A    between atoms: C_10  and  C_11
REMARK    7  A    between atoms: C_10  and  O_12
REMARK    8  A    between atoms: C_13  and  C_14
REMARK    9  A    between atoms: C_14  and  C_15
REMARK   10  A    between atoms: C_14  and  O_16
REMARK                            x       y       z     vdW  Elec       q    Type
REMARK                         _______ _______ _______ _____ _____    ______ ____
ROOT
ATOM      1  N   UNL     1      21.467  10.911   4.241  0.00  0.00    +0.000 N 
ENDROOT
BRANCH   1   6
ATOM      2  C   UNL     1      17.144   7.419   5.805  0.00  0.00    +0.000 C 
ATOM      3  C   UNL     1      18.266   8.315   5.376  0.00  0.00    +0.000 A 
ATOM      4  C   UNL     1      19.592   7.944   5.575  0.00  0.00    +0.000 A 
ATOM      5  C   UNL     1      20.639   8.801   5.199  0.00  0.00    +0.000 A 
ATOM      6  C   UNL     1      20.418  10.069   4.632  0.00  0.00    +0.000 A 
ATOM      7  C   UNL     1      19.066  10.410   4.443  0.00  0.00    +0.000 A 
ATOM      8  C   UNL     1      18.009   9.561   4.813  0.00  0.00    +0.000 A 
ENDBRANCH   1   6
BRANCH   1   9
ATOM      9  C   UNL     1      22.664  10.345   3.572  0.00  0.00    +0.000 C 
BRANCH   9  10
ATOM     10  C   UNL     1      22.487  10.207   2.040  0.00  0.00    +0.000 C 
ATOM     11  C   UNL     1      22.430   8.741   1.628  0.00  0.00    +0.000 C 
BRANCH  10  12
ATOM     12  O   UNL     1      21.276  10.839   1.603  0.00  0.00    +0.000 OA
ATOM     13  H   UNL     1      21.502  11.470   0.900  0.00  0.00    +0.000 HD
ENDBRANCH  10  12
ENDBRANCH   9  10
ENDBRANCH   1   9
BRANCH   1  14
ATOM     14  C   UNL     1      21.681  12.228   4.893  0.00  0.00    +0.000 C 
BRANCH  14  15
ATOM     15  C   UNL     1      20.908  13.364   4.182  0.00  0.00    +0.000 C 
ATOM     16  C   UNL     1      21.206  14.744   4.757  0.00  0.00    +0.000 C 
BRANCH  15  17
ATOM     17  O   UNL     1      21.189  13.398   2.784  0.00  0.00    +0.000 OA
ATOM     18  H   UNL     1      21.983  12.839   2.672  0.00  0.00    +0.000 HD
ENDBRANCH  15  17
ENDBRANCH  14  15
ENDBRANCH   1  14
TORSDOF 7
ENDMDL
MODEL 2
REMARK VINA RESULT:    -3.596      8.532     10.464
REMARK INTER + INTRA:          -5.543
REMARK INTER:                  -5.049
REMARK INTRA:                  -0.495
REMARK UNBOUND:                -0.686
REMARK  Name = 
REMARK  10 active torsions:
REMARK  status: ('A' for Active; 'I' for Inactive)
REMARK    1  A    between atoms: C_1  and  C_2
REMARK    2  A    between atoms: C_5  and  N_8
REMARK    3  A    between atoms: N_8  and  C_9
REMARK    4  A    between atoms: N_8  and  C_13
REMARK    5  A    between atoms: C_9  and  C_10
REMARK    6  A    between atoms: C_10  and  C_11
REMARK    7  A    between atoms: C_10  and  O_12
REMARK    8  A    between atoms: C_13  and  C_14
REMARK    9  A    between atoms: C_14  and  C_15
REMARK   10  A    between atoms: C_14  and  O_16
REMARK                            x       y       z     vdW  Elec       q    Type
REMARK                         _______ _______ _______ _____ _____    ______ ____
ROOT
ATOM      1  N   UNL     1      19.799  15.805  -2.801  0.00  0.00    +0.000 N 
ENDROOT
BRANCH   1   6
ATOM      2  C   UNL     1      17.536  16.309  -8.088  0.00  0.00    +0.000 C 
ATOM      3  C   UNL     1      18.141  16.194  -6.722  0.00  0.00    +0.000 A 
ATOM      4  C   UNL     1      19.064  15.195  -6.432  0.00  0.00    +0.000 A 
ATOM      5  C   UNL     1      19.606  15.073  -5.142  0.00  0.00    +0.000 A 
ATOM      6  C   UNL     1      19.240  15.920  -4.080  0.00  0.00    +0.000 A 
ATOM      7  C   UNL     1      18.307  16.920  -4.410  0.00  0.00    +0.000 A 
ATOM      8  C   UNL     1      17.759  17.053  -5.697  0.00  0.00    +0.000 A 
ENDBRANCH   1   6
BRANCH   1   9
ATOM      9  C   UNL     1      19.864  16.988  -1.909  0.00  0.00    +0.000 C 
BRANCH   9  10
ATOM     10  C   UNL     1      18.989  16.834  -0.641  0.00  0.00    +0.000 C 
ATOM     11  C   UNL     1      17.783  15.944  -0.917  0.00  0.00    +0.000 C 
BRANCH  10  12
ATOM     12  O   UNL     1      19.738  16.247   0.432  0.00  0.00    +0.000 OA
ATOM     13  H   UNL     1      19.661  15.281   0.361  0.00  0.00    +0.000 HD
ENDBRANCH  10  12
ENDBRANCH   9  10
ENDBRANCH   1   9
BRANCH   1  14
ATOM     14  C   UNL     1      20.768  14.727  -2.479  0.00  0.00    +0.000 C 
BRANCH  14  15
ATOM     15  C   UNL     1      22.171  15.284  -2.139  0.00  0.00    +0.000 C 
ATOM     16  C   UNL     1      23.032  14.302  -1.353  0.00  0.00    +0.000 C 
BRANCH  15  17
ATOM     17  O   UNL     1      22.888  15.658  -3.314  0.00  0.00    +0.000 OA
ATOM     18  H   UNL     1      23.249  16.546  -3.118  0.00  0.00    +0.000 HD
ENDBRANCH  15  17
ENDBRANCH  14  15
ENDBRANCH   1  14
TORSDOF 7
ENDMDL
MODEL 3
REMARK VINA RESULT:    -3.551      9.792     11.652
REMARK INTER + INTRA:          -5.483
REMARK INTER:                  -5.271
REMARK INTRA:                  -0.212
REMARK UNBOUND:                -0.686
REMARK  Name = 
REMARK  10 active torsions:
REMARK  status: ('A' for Active; 'I' for Inactive)
REMARK    1  A    between atoms: C_1  and  C_2
REMARK    2  A    between atoms: C_5  and  N_8
REMARK    3  A    between atoms: N_8  and  C_9
REMARK    4  A    between atoms: N_8  and  C_13
REMARK    5  A    between atoms: C_9  and  C_10
REMARK    6  A    between atoms: C_10  and  C_11
REMARK    7  A    between atoms: C_10  and  O_12
REMARK    8  A    between atoms: C_13  and  C_14
REMARK    9  A    between atoms: C_14  and  C_15
REMARK   10  A    between atoms: C_14  and  O_16
REMARK                            x       y       z     vdW  Elec       q    Type
REMARK                         _______ _______ _______ _____ _____    ______ ____
ROOT
ATOM      1  N   UNL     1      20.679  16.203  -4.622  0.00  0.00    +0.000 N 
ENDROOT
BRANCH   1   6
ATOM      2  C   UNL     1      16.519  16.590  -8.606  0.00  0.00    +0.000 C 
ATOM      3  C   UNL     1      17.588  16.468  -7.564  0.00  0.00    +0.000 A 
ATOM      4  C   UNL     1      17.438  17.058  -6.314  0.00  0.00    +0.000 A 
ATOM      5  C   UNL     1      18.456  16.966  -5.352  0.00  0.00    +0.000 A 
ATOM      6  C   UNL     1      19.675  16.307  -5.594  0.00  0.00    +0.000 A 
ATOM      7  C   UNL     1      19.792  15.721  -6.867  0.00  0.00    +0.000 A 
ATOM      8  C   UNL     1      18.780  15.803  -7.838  0.00  0.00    +0.000 A 
ENDBRANCH   1   6
BRANCH   1   9
ATOM      9  C   UNL     1      20.423  16.663  -3.236  0.00  0.00    +0.000 C 
BRANCH   9  10
ATOM     10  C   UNL     1      19.698  15.599  -2.375  0.00  0.00    +0.000 C 
ATOM     11  C   UNL     1      20.539  15.212  -1.165  0.00  0.00    +0.000 C 
BRANCH  10  12
ATOM     12  O   UNL     1      18.438  16.093  -1.900  0.00  0.00    +0.000 OA
ATOM     13  H   UNL     1      18.351  17.019  -2.183  0.00  0.00    +0.000 HD
ENDBRANCH  10  12
ENDBRANCH   9  10
ENDBRANCH   1   9
BRANCH   1  14
ATOM     14  C   UNL     1      22.113  16.136  -5.003  0.00  0.00    +0.000 C 
BRANCH  14  15
ATOM     15  C   UNL     1      22.631  14.679  -5.075  0.00  0.00    +0.000 C 
ATOM     16  C   UNL     1      21.690  13.675  -4.420  0.00  0.00    +0.000 C 
BRANCH  15  17
ATOM     17  O   UNL     1      22.852  14.264  -6.422  0.00  0.00    +0.000 OA
ATOM     18  H   UNL     1      22.468  14.977  -6.972  0.00  0.00    +0.000 HD
ENDBRANCH  15  17
ENDBRANCH  14  15
ENDBRANCH   1  14
TORSDOF 7
ENDMDL
MODEL 4
REMARK VINA RESULT:    -3.342      2.085      4.551
REMARK INTER + INTRA:          -5.200
REMARK INTER:                  -4.761
REMARK INTRA:                  -0.439
REMARK UNBOUND:                -0.686
REMARK  Name = 
REMARK  10 active torsions:
REMARK  status: ('A' for Active; 'I' for Inactive)
REMARK    1  A    between atoms: C_1  and  C_2
REMARK    2  A    between atoms: C_5  and  N_8
REMARK    3  A    between atoms: N_8  and  C_9
REMARK    4  A    between atoms: N_8  and  C_13
REMARK    5  A    between atoms: C_9  and  C_10
REMARK    6  A    between atoms: C_10  and  C_11
REMARK    7  A    between atoms: C_10  and  O_12
REMARK    8  A    between atoms: C_13  and  C_14
REMARK    9  A    between atoms: C_14  and  C_15
REMARK   10  A    between atoms: C_14  and  O_16
REMARK                            x       y       z     vdW  Elec       q    Type
REMARK                         _______ _______ _______ _____ _____    ______ ____
ROOT
ATOM      1  N   UNL     1      20.832  10.146   4.525  0.00  0.00    +0.000 N 
ENDROOT
BRANCH   1   6
ATOM      2  C   UNL     1      18.765  15.428   5.601  0.00  0.00    +0.000 C 
ATOM      3  C   UNL     1      19.307  14.055   5.346  0.00  0.00    +0.000 A 
ATOM      4  C   UNL     1      20.632  13.870   4.963  0.00  0.00    +0.000 A 
ATOM      5  C   UNL     1      21.126  12.583   4.696  0.00  0.00    +0.000 A 
ATOM      6  C   UNL     1      20.327  11.428   4.774  0.00  0.00    +0.000 A 
ATOM      7  C   UNL     1      18.994  11.653   5.166  0.00  0.00    +0.000 A 
ATOM      8  C   UNL     1      18.487  12.934   5.438  0.00  0.00    +0.000 A 
ENDBRANCH   1   6
BRANCH   1   9
ATOM      9  C   UNL     1      20.785   9.581   3.155  0.00  0.00    +0.000 C 
BRANCH   9  10
ATOM     10  C   UNL     1      21.926  10.107   2.250  0.00  0.00    +0.000 C 
ATOM     11  C   UNL     1      22.604   8.963   1.506  0.00  0.00    +0.000 C 
BRANCH  10  12
ATOM     12  O   UNL     1      21.424  11.034   1.277  0.00  0.00    +0.000 OA
ATOM     13  H   UNL     1      22.047  11.055   0.531  0.00  0.00    +0.000 HD
ENDBRANCH  10  12
ENDBRANCH   9  10
ENDBRANCH   1   9
BRANCH   1  14
ATOM     14  C   UNL     1      20.943   9.139   5.612  0.00  0.00    +0.000 C 
BRANCH  14  15
ATOM     15  C   UNL     1      20.971   7.691   5.066  0.00  0.00    +0.000 C 
ATOM     16  C   UNL     1      22.261   6.950   5.399  0.00  0.00    +0.000 C 
BRANCH  15  17
ATOM     17  O   UNL     1      19.878   6.919   5.561  0.00  0.00    +0.000 OA
ATOM     18  H   UNL     1      20.213   6.504   6.382  0.00  0.00    +0.000 HD
ENDBRANCH  15  17
ENDBRANCH  14  15
ENDBRANCH   1  14
TORSDOF 7
ENDMDL
MODEL 5
REMARK VINA RESULT:    -3.328      9.940     11.340
REMARK INTER + INTRA:          -5.181
REMARK INTER:                  -4.633
REMARK INTRA:                  -0.548
REMARK UNBOUND:                -0.686
REMARK  Name = 
REMARK  10 active torsions:
REMARK  status: ('A' for Active; 'I' for Inactive)
REMARK    1  A    between atoms: C_1  and  C_2
REMARK    2  A    between atoms: C_5  and  N_8
REMARK    3  A    between atoms: N_8  and  C_9
REMARK    4  A    between atoms: N_8  and  C_13
REMARK    5  A    between atoms: C_9  and  C_10
REMARK    6  A    between atoms: C_10  and  C_11
REMARK    7  A    between atoms: C_10  and  O_12
REMARK    8  A    between atoms: C_13  and  C_14
REMARK    9  A    between atoms: C_14  and  C_15
REMARK   10  A    between atoms: C_14  and  O_16
REMARK                            x       y       z     vdW  Elec       q    Type
REMARK                         _______ _______ _______ _____ _____    ______ ____
ROOT
ATOM      1  N   UNL     1      19.101  15.918  -5.603  0.00  0.00    +0.000 N 
ENDROOT
BRANCH   1   6
ATOM      2  C   UNL     1      18.886  16.591   0.127  0.00  0.00    +0.000 C 
ATOM      3  C   UNL     1      18.926  16.397  -1.358  0.00  0.00    +0.000 A 
ATOM      4  C   UNL     1      19.894  15.591  -1.948  0.00  0.00    +0.000 A 
ATOM      5  C   UNL     1      19.946  15.437  -3.343  0.00  0.00    +0.000 A 
ATOM      6  C   UNL     1      19.056  16.092  -4.214  0.00  0.00    +0.000 A 
ATOM      7  C   UNL     1      18.090  16.897  -3.583  0.00  0.00    +0.000 A 
ATOM      8  C   UNL     1      18.026  17.058  -2.190  0.00  0.00    +0.000 A 
ENDBRANCH   1   6
BRANCH   1   9
ATOM      9  C   UNL     1      20.216  15.162  -6.222  0.00  0.00    +0.000 C 
BRANCH   9  10
ATOM     10  C   UNL     1      21.346  16.082  -6.747  0.00  0.00    +0.000 C 
ATOM     11  C   UNL     1      22.711  15.432  -6.553  0.00  0.00    +0.000 C 
BRANCH  10  12
ATOM     12  O   UNL     1      21.180  16.356  -8.145  0.00  0.00    +0.000 OA
ATOM     13  H   UNL     1      21.198  15.510  -8.622  0.00  0.00    +0.000 HD
ENDBRANCH  10  12
ENDBRANCH   9  10
ENDBRANCH   1   9
BRANCH   1  14
ATOM     14  C   UNL     1      18.397  16.853  -6.518  0.00  0.00    +0.000 C 
BRANCH  14  15
ATOM     15  C   UNL     1      17.690  16.113  -7.679  0.00  0.00    +0.000 C 
ATOM     16  C   UNL     1      16.308  16.672  -7.994  0.00  0.00    +0.000 C 
BRANCH  15  17
ATOM     17  O   UNL     1      18.466  16.150  -8.877  0.00  0.00    +0.000 OA
ATOM     18  H   UNL     1      19.196  15.517  -8.724  0.00  0.00    +0.000 HD
ENDBRANCH  15  17
ENDBRANCH  14  15
ENDBRANCH   1  14
TORSDOF 7
ENDMDL
MODEL 6
REMARK VINA RESULT:    -3.260      2.064      5.090
REMARK INTER + INTRA:          -5.090
REMARK INTER:                  -4.714
REMARK INTRA:                  -0.376
REMARK UNBOUND:                -0.686
REMARK  Name = 
REMARK  10 active torsions:
REMARK  status: ('A' for Active; 'I' for Inactive)
REMARK    1  A    between atoms: C_1  and  C_2
REMARK    2  A    between atoms: C_5  and  N_8
REMARK    3  A    between atoms: N_8  and  C_9
REMARK    4  A    between atoms: N_8  and  C_13
REMARK    5  A    between atoms: C_9  and  C_10
REMARK    6  A    between atoms: C_10  and  C_11
REMARK    7  A    between atoms: C_10  and  O_12
REMARK    8  A    between atoms: C_13  and  C_14
REMARK    9  A    between atoms: C_14  and  C_15
REMARK   10  A    between atoms: C_14  and  O_16
REMARK                            x       y       z     vdW  Elec       q    Type
REMARK                         _______ _______ _______ _____ _____    ______ ____
ROOT
ATOM      1  N   UNL     1      19.769  10.892   4.817  0.00  0.00    +0.000 N 
ENDROOT
BRANCH   1   6
ATOM      2  C   UNL     1      20.317  16.604   5.455  0.00  0.00    +0.000 C 
ATOM      3  C   UNL     1      20.169  15.125   5.266  0.00  0.00    +0.000 A 
ATOM      4  C   UNL     1      18.960  14.489   5.529  0.00  0.00    +0.000 A 
ATOM      5  C   UNL     1      18.835  13.098   5.379  0.00  0.00    +0.000 A 
ATOM      6  C   UNL     1      19.906  12.276   4.984  0.00  0.00    +0.000 A 
ATOM      7  C   UNL     1      21.112  12.953   4.724  0.00  0.00    +0.000 A 
ATOM      8  C   UNL     1      21.250  14.343   4.869  0.00  0.00    +0.000 A 
ENDBRANCH   1   6
BRANCH   1   9
ATOM      9  C   UNL     1      19.951  10.283   3.477  0.00  0.00    +0.000 C 
BRANCH   9  10
ATOM     10  C   UNL     1      21.427   9.928   3.175  0.00  0.00    +0.000 C 
ATOM     11  C   UNL     1      21.891   8.753   4.028  0.00  0.00    +0.000 C 
BRANCH  10  12
ATOM     12  O   UNL     1      21.598   9.570   1.796  0.00  0.00    +0.000 OA
ATOM     13  H   UNL     1      22.517   9.278   1.672  0.00  0.00    +0.000 HD
ENDBRANCH  10  12
ENDBRANCH   9  10
ENDBRANCH   1   9
BRANCH   1  14
ATOM     14  C   UNL     1      18.972  10.078   5.770  0.00  0.00    +0.000 C 
BRANCH  14  15
ATOM     15  C   UNL     1      17.780   9.371   5.080  0.00  0.00    +0.000 C 
ATOM     16  C   UNL     1      17.330   8.109   5.806  0.00  0.00    +0.000 C 
BRANCH  15  17
ATOM     17  O   UNL     1      16.653  10.237   4.959  0.00  0.00    +0.000 OA
ATOM     18  H   UNL     1      16.100  10.044   5.743  0.00  0.00    +0.000 HD
ENDBRANCH  15  17
ENDBRANCH  14  15
ENDBRANCH   1  14
TORSDOF 7
ENDMDL
MODEL 7
REMARK VINA RESULT:    -3.168      9.123     11.024
REMARK INTER + INTRA:          -4.965
REMARK INTER:                  -4.349
REMARK INTRA:                  -0.616
REMARK UNBOUND:                -0.686
REMARK  Name = 
REMARK  10 active torsions:
REMARK  status: ('A' for Active; 'I' for Inactive)
REMARK    1  A    between atoms: C_1  and  C_2
REMARK    2  A    between atoms: C_5  and  N_8
REMARK    3  A    between atoms: N_8  and  C_9
REMARK    4  A    between atoms: N_8  and  C_13
REMARK    5  A    between atoms: C_9  and  C_10
REMARK    6  A    between atoms: C_10  and  C_11
REMARK    7  A    between atoms: C_10  and  O_12
REMARK    8  A    between atoms: C_13  and  C_14
REMARK    9  A    between atoms: C_14  and  C_15
REMARK   10  A    between atoms: C_14  and  O_16
REMARK                            x       y       z     vdW  Elec       q    Type
REMARK                         _______ _______ _______ _____ _____    ______ ____
ROOT
ATOM      1  N   UNL     1      19.588  16.325  -3.501  0.00  0.00    +0.000 N 
ENDROOT
BRANCH   1   6
ATOM      2  C   UNL     1      19.812  16.906  -9.240  0.00  0.00    +0.000 C 
ATOM      3  C   UNL     1      19.759  16.731  -7.753  0.00  0.00    +0.000 A 
ATOM      4  C   UNL     1      18.554  16.473  -7.107  0.00  0.00    +0.000 A 
ATOM      5  C   UNL     1      18.505  16.340  -5.710  0.00  0.00    +0.000 A 
ATOM      6  C   UNL     1      19.641  16.479  -4.892  0.00  0.00    +0.000 A 
ATOM      7  C   UNL     1      20.841  16.737  -5.579  0.00  0.00    +0.000 A 
ATOM      8  C   UNL     1      20.905  16.871  -6.976  0.00  0.00    +0.000 A 
ENDBRANCH   1   6
BRANCH   1   9
ATOM      9  C   UNL     1      20.821  16.008  -2.740  0.00  0.00    +0.000 C 
BRANCH   9  10
ATOM     10  C   UNL     1      21.138  14.492  -2.717  0.00  0.00    +0.000 C 
ATOM     11  C   UNL     1      22.508  14.213  -3.322  0.00  0.00    +0.000 C 
BRANCH  10  12
ATOM     12  O   UNL     1      21.134  13.987  -1.374  0.00  0.00    +0.000 OA
ATOM     13  H   UNL     1      21.897  14.366  -0.907  0.00  0.00    +0.000 HD
ENDBRANCH  10  12
ENDBRANCH   9  10
ENDBRANCH   1   9
BRANCH   1  14
ATOM     14  C   UNL     1      18.321  15.964  -2.814  0.00  0.00    +0.000 C 
BRANCH  14  15
ATOM     15  C   UNL     1      18.430  16.101  -1.277  0.00  0.00    +0.000 C 
ATOM     16  C   UNL     1      17.402  17.058  -0.686  0.00  0.00    +0.000 C 
BRANCH  15  17
ATOM     17  O   UNL     1      18.286  14.840  -0.624  0.00  0.00    +0.000 OA
ATOM     18  H   UNL     1      17.324  14.663  -0.625  0.00  0.00    +0.000 HD
ENDBRANCH  15  17
ENDBRANCH  14  15
ENDBRANCH   1  14
TORSDOF 7
ENDMDL
MODEL 8
REMARK VINA RESULT:    -1.954      2.287      5.129
REMARK INTER + INTRA:          -3.326
REMARK INTER:                  -2.807
REMARK INTRA:                  -0.519
REMARK UNBOUND:                -0.686
REMARK  Name = 
REMARK  10 active torsions:
REMARK  status: ('A' for Active; 'I' for Inactive)
REMARK    1  A    between atoms: C_1  and  C_2
REMARK    2  A    between atoms: C_5  and  N_8
REMARK    3  A    between atoms: N_8  and  C_9
REMARK    4  A    between atoms: N_8  and  C_13
REMARK    5  A    between atoms: C_9  and  C_10
REMARK    6  A    between atoms: C_10  and  C_11
REMARK    7  A    between atoms: C_10  and  O_12
REMARK    8  A    between atoms: C_13  and  C_14
REMARK    9  A    between atoms: C_14  and  C_15
REMARK   10  A    between atoms: C_14  and  O_16
REMARK                            x       y       z     vdW  Elec       q    Type
REMARK                         _______ _______ _______ _____ _____    ______ ____
ROOT
ATOM      1  N   UNL     1      20.264  10.434   4.940  0.00  0.00    +0.000 N 
ENDROOT
BRANCH   1   6
ATOM      2  C   UNL     1      21.869  15.625   2.989  0.00  0.00    +0.000 C 
ATOM      3  C   UNL     1      21.472  14.278   3.511  0.00  0.00    +0.000 A 
ATOM      4  C   UNL     1      21.933  13.113   2.907  0.00  0.00    +0.000 A 
ATOM      5  C   UNL     1      21.534  11.853   3.382  0.00  0.00    +0.000 A 
ATOM      6  C   UNL     1      20.643  11.693   4.459  0.00  0.00    +0.000 A 
ATOM      7  C   UNL     1      20.198  12.892   5.047  0.00  0.00    +0.000 A 
ATOM      8  C   UNL     1      20.592  14.158   4.583  0.00  0.00    +0.000 A 
ENDBRANCH   1   6
BRANCH   1   9
ATOM      9  C   UNL     1      20.688   9.206   4.225  0.00  0.00    +0.000 C 
BRANCH   9  10
ATOM     10  C   UNL     1      21.472   8.225   5.131  0.00  0.00    +0.000 C 
ATOM     11  C   UNL     1      20.651   6.972   5.415  0.00  0.00    +0.000 C 
BRANCH  10  12
ATOM     12  O   UNL     1      22.699   7.819   4.510  0.00  0.00    +0.000 OA
ATOM     13  H   UNL     1      23.165   7.225   5.122  0.00  0.00    +0.000 HD
ENDBRANCH  10  12
ENDBRANCH   9  10
ENDBRANCH   1   9
BRANCH   1  14
ATOM     14  C   UNL     1      19.068  10.269   5.807  0.00  0.00    +0.000 C 
BRANCH  14  15
ATOM     15  C   UNL     1      17.817   9.844   5.001  0.00  0.00    +0.000 C 
ATOM     16  C   UNL     1      17.227   8.518   5.467  0.00  0.00    +0.000 C 
BRANCH  15  17
ATOM     17  O   UNL     1      16.789  10.831   5.064  0.00  0.00    +0.000 OA
ATOM     18  H   UNL     1      15.964  10.350   4.852  0.00  0.00    +0.000 HD
ENDBRANCH  15  17
ENDBRANCH  14  15
ENDBRANCH   1  14
TORSDOF 7
ENDMDL
MODEL 9
REMARK VINA RESULT:    -0.996      9.143     10.754
REMARK INTER + INTRA:          -2.032
REMARK INTER:                  -1.562
REMARK INTRA:                  -0.470
REMARK UNBOUND:                -0.686
REMARK  Name = 
REMARK  10 active torsions:
REMARK  status: ('A' for Active; 'I' for Inactive)
REMARK    1  A    between atoms: C_1  and  C_2
REMARK    2  A    between atoms: C_5  and  N_8
REMARK    3  A    between atoms: N_8  and  C_9
REMARK    4  A    between atoms: N_8  and  C_13
REMARK    5  A    between atoms: C_9  and  C_10
REMARK    6  A    between atoms: C_10  and  C_11
REMARK    7  A    between atoms: C_10  and  O_12
REMARK    8  A    between atoms: C_13  and  C_14
REMARK    9  A    between atoms: C_14  and  C_15
REMARK   10  A    between atoms: C_14  and  O_16
REMARK                            x       y       z     vdW  Elec       q    Type
REMARK                         _______ _______ _______ _____ _____    ______ ____
ROOT
ATOM      1  N   UNL     1      19.501  15.980  -3.514  0.00  0.00    +0.000 N 
ENDROOT
BRANCH   1   6
ATOM      2  C   UNL     1      17.231  16.223  -8.817  0.00  0.00    +0.000 C 
ATOM      3  C   UNL     1      17.838  16.176  -7.448  0.00  0.00    +0.000 A 
ATOM      4  C   UNL     1      18.792  15.219  -7.122  0.00  0.00    +0.000 A 
ATOM      5  C   UNL     1      19.336  15.160  -5.828  0.00  0.00    +0.000 A 
ATOM      6  C   UNL     1      18.941  16.031  -4.797  0.00  0.00    +0.000 A 
ATOM      7  C   UNL     1      17.976  16.988  -5.163  0.00  0.00    +0.000 A 
ATOM      8  C   UNL     1      17.426  17.058  -6.453  0.00  0.00    +0.000 A 
ENDBRANCH   1   6
BRANCH   1   9
ATOM      9  C   UNL     1      20.332  14.820  -3.112  0.00  0.00    +0.000 C 
BRANCH   9  10
ATOM     10  C   UNL     1      21.848  15.133  -3.128  0.00  0.00    +0.000 C 
ATOM     11  C   UNL     1      22.601  14.140  -4.005  0.00  0.00    +0.000 C 
BRANCH  10  12
ATOM     12  O   UNL     1      22.096  16.451  -3.635  0.00  0.00    +0.000 OA
ATOM     13  H   UNL     1      22.991  16.715  -3.364  0.00  0.00    +0.000 HD
ENDBRANCH  10  12
ENDBRANCH   9  10
ENDBRANCH   1   9
BRANCH   1  14
ATOM     14  C   UNL     1      18.913  16.748  -2.387  0.00  0.00    +0.000 C 
BRANCH  14  15
ATOM     15  C   UNL     1      18.989  15.973  -1.050  0.00  0.00    +0.000 C 
ATOM     16  C   UNL     1      19.828  16.681   0.007  0.00  0.00    +0.000 C 
BRANCH  15  17
ATOM     17  O   UNL     1      17.693  15.739  -0.501  0.00  0.00    +0.000 OA
ATOM     18  H   UNL     1      17.850  15.185   0.290  0.00  0.00    +0.000 HD
ENDBRANCH  15  17
ENDBRANCH  14  15
ENDBRANCH   1  14
TORSDOF 7
ENDMDL
