MODEL 1
REMARK VINA RESULT:    -3.589      0.000      0.000
REMARK INTER + INTRA:          -3.943
REMARK INTER:                  -3.904
REMARK INTRA:                  -0.040
REMARK UNBOUND:                -0.040
REMARK  Name = 
REMARK  3 active torsions:
REMARK  status: ('A' for Active; 'I' for Inactive)
REMARK    1  A    between atoms: C_1  and  O_2
REMARK    2  A    between atoms: O_2  and  C_3
REMARK    3  A    between atoms: C_8  and  O_9
REMARK                            x       y       z     vdW  Elec       q    Type
REMARK                         _______ _______ _______ _____ _____    ______ ____
ROOT
ATOM      1  C   UNL     1       6.844  13.493   5.459  0.00  0.00    +0.000 A 
ATOM      2  C   UNL     1       5.699  12.699   5.458  0.00  0.00    +0.000 A 
ATOM      3  C   UNL     1       5.780  11.354   5.076  0.00  0.00    +0.000 A 
ATOM      4  C   UNL     1       7.003  10.799   4.694  0.00  0.00    +0.000 A 
ATOM      5  C   UNL     1       8.152  11.587   4.692  0.00  0.00    +0.000 A 
ATOM      6  C   UNL     1       8.062  12.920   5.072  0.00  0.00    +0.000 A 
ENDROOT
BRANCH   1   8
ATOM      7  C   UNL     1       5.710  15.569   5.684  0.00  0.00    +0.000 C 
ATOM      8  O   UNL     1       6.912  14.818   5.806  0.00  0.00    +0.000 OA
ENDBRANCH   1   8
BRANCH   6   9
ATOM      9  O   UNL     1       9.205  13.673   5.063  0.00  0.00    +0.000 OA
ATOM     10  H   UNL     1       9.560  13.575   4.158  0.00  0.00    +0.000 HD
ENDBRANCH   6   9
TORSDOF 2
ENDMDL
MODEL 2
REMARK VINA RESULT:    -3.515     12.183     13.726
REMARK INTER + INTRA:          -3.863
REMARK INTER:                  -3.819
REMARK INTRA:                  -0.044
REMARK UNBOUND:                -0.040
REMARK  Name = 
REMARK  3 active torsions:
REMARK  status: ('A' for Active; 'I' for Inactive)
REMARK    1  A    between atoms: C_1  and  O_2
REMARK    2  A    between atoms: O_2  and  C_3
REMARK    3  A    between atoms: C_8  and  O_9
REMARK                            x       y       z     vdW  Elec       q    Type
REMARK                         _______ _______ _______ _____ _____    ______ ____
ROOT
ATOM      1  C   UNL     1      19.489   9.209   4.666  0.00  0.00    +0.000 A 
ATOM      2  C   UNL     1      19.661   8.127   5.527  0.00  0.00    +0.000 A 
ATOM      3  C   UNL     1      20.866   7.413   5.522  0.00  0.00    +0.000 A 
ATOM      4  C   UNL     1      21.900   7.776   4.658  0.00  0.00    +0.000 A 
ATOM      5  C   UNL     1      21.736   8.856   3.794  0.00  0.00    +0.000 A 
ATOM      6  C   UNL     1      20.537   9.559   3.806  0.00  0.00    +0.000 A 
ENDROOT
BRANCH   1   8
ATOM      7  C   UNL     1      17.115   9.328   4.669  0.00  0.00    +0.000 C 
ATOM      8  O   UNL     1      18.368   9.994   4.563  0.00  0.00    +0.000 OA
ENDBRANCH   1   8
BRANCH   6   9
ATOM      9  O   UNL     1      20.399  10.617   2.947  0.00  0.00    +0.000 OA
ATOM     10  H   UNL     1      19.493  10.534   2.595  0.00  0.00    +0.000 HD
ENDBRANCH   6   9
TORSDOF 2
ENDMDL
MODEL 3
REMARK VINA RESULT:    -3.401     17.155     18.179
REMARK INTER + INTRA:          -3.739
REMARK INTER:                  -3.689
REMARK INTRA:                  -0.049
REMARK UNBOUND:                -0.040
REMARK  Name = 
REMARK  3 active torsions:
REMARK  status: ('A' for Active; 'I' for Inactive)
REMARK    1  A    between atoms: C_1  and  O_2
REMARK    2  A    between atoms: O_2  and  C_3
REMARK    3  A    between atoms: C_8  and  O_9
REMARK                            x       y       z     vdW  Elec       q    Type
REMARK                         _______ _______ _______ _____ _____    ______ ____
ROOT
ATOM      1  C   UNL     1      18.798  15.879  -7.861  0.00  0.00    +0.000 A 
ATOM      2  C   UNL     1      18.683  15.197  -6.650  0.00  0.00    +0.000 A 
ATOM      3  C   UNL     1      19.808  15.027  -5.833  0.00  0.00    +0.000 A 
ATOM      4  C   UNL     1      21.048  15.535  -6.222  0.00  0.00    +0.000 A 
ATOM      5  C   UNL     1      21.172  16.218  -7.430  0.00  0.00    +0.000 A 
ATOM      6  C   UNL     1      20.051  16.382  -8.234  0.00  0.00    +0.000 A 
ENDROOT
BRANCH   1   8
ATOM      7  C   UNL     1      16.616  16.739  -8.240  0.00  0.00    +0.000 C 
ATOM      8  O   UNL     1      17.787  16.119  -8.757  0.00  0.00    +0.000 OA
ENDBRANCH   1   8
BRANCH   6   9
ATOM      9  O   UNL     1      20.197  17.057  -9.417  0.00  0.00    +0.000 OA
ATOM     10  H   UNL     1      20.763  17.822  -9.198  0.00  0.00    +0.000 HD
ENDBRANCH   6   9
TORSDOF 2
ENDMDL
MODEL 4
REMARK VINA RESULT:    -3.328     17.094     18.303
REMARK INTER + INTRA:          -3.659
REMARK INTER:                  -3.618
REMARK INTRA:                  -0.041
REMARK UNBOUND:                -0.040
REMARK  Name = 
REMARK  3 active torsions:
REMARK  status: ('A' for Active; 'I' for Inactive)
REMARK    1  A    between atoms: C_1  and  O_2
REMARK    2  A    between atoms: O_2  and  C_3
REMARK    3  A    between atoms: C_8  and  O_9
REMARK                            x       y       z     vdW  Elec       q    Type
REMARK                         _______ _______ _______ _____ _____    ______ ____
ROOT
ATOM      1  C   UNL     1      20.321  15.811  -6.969  0.00  0.00    +0.000 A 
ATOM      2  C   UNL     1      20.439  16.694  -8.041  0.00  0.00    +0.000 A 
ATOM      3  C   UNL     1      19.303  17.058  -8.775  0.00  0.00    +0.000 A 
ATOM      4  C   UNL     1      18.049  16.542  -8.442  0.00  0.00    +0.000 A 
ATOM      5  C   UNL     1      17.924  15.659  -7.372  0.00  0.00    +0.000 A 
ATOM      6  C   UNL     1      19.056  15.303  -6.650  0.00  0.00    +0.000 A 
ENDROOT
BRANCH   1   8
ATOM      7  C   UNL     1      22.632  15.294  -6.764  0.00  0.00    +0.000 C 
ATOM      8  O   UNL     1      21.343  15.369  -6.167  0.00  0.00    +0.000 OA
ENDBRANCH   1   8
BRANCH   6   9
ATOM      9  O   UNL     1      18.908  14.433  -5.602  0.00  0.00    +0.000 OA
ATOM     10  H   UNL     1      18.908  15.000  -4.807  0.00  0.00    +0.000 HD
ENDBRANCH   6   9
TORSDOF 2
ENDMDL
MODEL 5
REMARK VINA RESULT:    -3.312     17.483     18.591
REMARK INTER + INTRA:          -3.642
REMARK INTER:                  -3.602
REMARK INTRA:                  -0.039
REMARK UNBOUND:                -0.040
REMARK  Name = 
REMARK  3 active torsions:
REMARK  status: ('A' for Active; 'I' for Inactive)
REMARK    1  A    between atoms: C_1  and  O_2
REMARK    2  A    between atoms: O_2  and  C_3
REMARK    3  A    between atoms: C_8  and  O_9
REMARK                            x       y       z     vdW  Elec       q    Type
REMARK                         _______ _______ _______ _____ _____    ______ ____
ROOT
ATOM      1  C   UNL     1      20.036  16.501  -7.507  0.00  0.00    +0.000 A 
ATOM      2  C   UNL     1      19.144  16.494  -6.435  0.00  0.00    +0.000 A 
ATOM      3  C   UNL     1      17.788  16.768  -6.651  0.00  0.00    +0.000 A 
ATOM      4  C   UNL     1      17.319  17.049  -7.936  0.00  0.00    +0.000 A 
ATOM      5  C   UNL     1      18.203  17.057  -9.012  0.00  0.00    +0.000 A 
ATOM      6  C   UNL     1      19.547  16.785  -8.788  0.00  0.00    +0.000 A 
ENDROOT
BRANCH   1   8
ATOM      7  C   UNL     1      21.838  15.501  -6.324  0.00  0.00    +0.000 C 
ATOM      8  O   UNL     1      21.384  16.253  -7.443  0.00  0.00    +0.000 OA
ENDBRANCH   1   8
BRANCH   6   9
ATOM      9  O   UNL     1      20.397  16.799  -9.862  0.00  0.00    +0.000 OA
ATOM     10  H   UNL     1      21.290  16.737  -9.472  0.00  0.00    +0.000 HD
ENDBRANCH   6   9
TORSDOF 2
ENDMDL
MODEL 6
REMARK VINA RESULT:    -3.262     16.422     17.473
REMARK INTER + INTRA:          -3.588
REMARK INTER:                  -3.536
REMARK INTRA:                  -0.053
REMARK UNBOUND:                -0.040
REMARK  Name = 
REMARK  3 active torsions:
REMARK  status: ('A' for Active; 'I' for Inactive)
REMARK    1  A    between atoms: C_1  and  O_2
REMARK    2  A    between atoms: O_2  and  C_3
REMARK    3  A    between atoms: C_8  and  O_9
REMARK                            x       y       z     vdW  Elec       q    Type
REMARK                         _______ _______ _______ _____ _____    ______ ____
ROOT
ATOM      1  C   UNL     1      18.851  15.818  -6.279  0.00  0.00    +0.000 A 
ATOM      2  C   UNL     1      17.721  16.453  -6.794  0.00  0.00    +0.000 A 
ATOM      3  C   UNL     1      17.772  17.057  -8.057  0.00  0.00    +0.000 A 
ATOM      4  C   UNL     1      18.949  17.029  -8.808  0.00  0.00    +0.000 A 
ATOM      5  C   UNL     1      20.081  16.396  -8.301  0.00  0.00    +0.000 A 
ATOM      6  C   UNL     1      20.022  15.800  -7.047  0.00  0.00    +0.000 A 
ENDROOT
BRANCH   1   8
ATOM      7  C   UNL     1      18.787  16.009  -3.912  0.00  0.00    +0.000 C 
ATOM      8  O   UNL     1      18.945  15.190  -5.064  0.00  0.00    +0.000 OA
ENDBRANCH   1   8
BRANCH   6   9
ATOM      9  O   UNL     1      21.148  15.184  -6.570  0.00  0.00    +0.000 OA
ATOM     10  H   UNL     1      21.692  15.013  -7.362  0.00  0.00    +0.000 HD
ENDBRANCH   6   9
TORSDOF 2
ENDMDL
MODEL 7
REMARK VINA RESULT:    -3.257     12.762     14.499
REMARK INTER + INTRA:          -3.583
REMARK INTER:                  -3.533
REMARK INTRA:                  -0.050
REMARK UNBOUND:                -0.040
REMARK  Name = 
REMARK  3 active torsions:
REMARK  status: ('A' for Active; 'I' for Inactive)
REMARK    1  A    between atoms: C_1  and  O_2
REMARK    2  A    between atoms: O_2  and  C_3
REMARK    3  A    between atoms: C_8  and  O_9
REMARK                            x       y       z     vdW  Elec       q    Type
REMARK                         _______ _______ _______ _____ _____    ______ ____
ROOT
ATOM      1  C   UNL     1      21.209   8.825   4.305  0.00  0.00    +0.000 A 
ATOM      2  C   UNL     1      20.952   7.830   5.247  0.00  0.00    +0.000 A 
ATOM      3  C   UNL     1      19.674   7.709   5.806  0.00  0.00    +0.000 A 
ATOM      4  C   UNL     1      18.650   8.580   5.428  0.00  0.00    +0.000 A 
ATOM      5  C   UNL     1      18.899   9.576   4.486  0.00  0.00    +0.000 A 
ATOM      6  C   UNL     1      20.170   9.689   3.937  0.00  0.00    +0.000 A 
ENDROOT
BRANCH   1   8
ATOM      7  C   UNL     1      23.002   7.952   3.012  0.00  0.00    +0.000 C 
ATOM      8  O   UNL     1      22.407   9.059   3.679  0.00  0.00    +0.000 OA
ENDBRANCH   1   8
BRANCH   6   9
ATOM      9  O   UNL     1      20.390  10.676   3.014  0.00  0.00    +0.000 OA
ATOM     10  H   UNL     1      19.933  10.369   2.208  0.00  0.00    +0.000 HD
ENDBRANCH   6   9
TORSDOF 2
ENDMDL
