MODEL 1
REMARK VINA RESULT:    -5.812      0.000      0.000
REMARK INTER + INTRA:          -8.258
REMARK INTER:                  -7.850
REMARK INTRA:                  -0.407
REMARK UNBOUND:                -0.407
REMARK  Name = 
REMARK  10 active torsions:
REMARK  status: ('A' for Active; 'I' for Inactive)
REMARK    1  A    between atoms: C_1  and  C_2
REMARK    2  A    between atoms: C_5  and  N_8
REMARK    3  A    between atoms: N_8  and  C_9
REMARK    4  A    between atoms: N_8  and  C_13
REMARK    5  A    between atoms: C_9  and  C_10
REMARK    6  A    between atoms: C_10  and  C_11
REMARK    7  A    between atoms: C_10  and  O_12
REMARK    8  A    between atoms: C_13  and  C_14
REMARK    9  A    between atoms: C_14  and  C_15
REMARK   10  A    between atoms: C_14  and  O_16
REMARK                            x       y       z     vdW  Elec       q    Type
REMARK                         _______ _______ _______ _____ _____    ______ ____
ROOT
ATOM      1  N   UNL     1       2.386  18.442   1.667  0.00  0.00    +0.000 N 
ENDROOT
BRANCH   1   6
ATOM      2  C   UNL     1      -1.921  18.415  -2.177  0.00  0.00    +0.000 C 
ATOM      3  C   UNL     1      -0.799  18.446  -1.185  0.00  0.00    +0.000 A 
ATOM      4  C   UNL     1       0.493  18.090  -1.556  0.00  0.00    +0.000 A 
ATOM      5  C   UNL     1       1.535  18.092  -0.615  0.00  0.00    +0.000 A 
ATOM      6  C   UNL     1       1.338  18.424   0.738  0.00  0.00    +0.000 A 
ATOM      7  C   UNL     1       0.020  18.780   1.077  0.00  0.00    +0.000 A 
ATOM      8  C   UNL     1      -1.031  18.785   0.145  0.00  0.00    +0.000 A 
ENDBRANCH   1   6
BRANCH   1   9
ATOM      9  C   UNL     1       2.136  18.057   3.077  0.00  0.00    +0.000 C 
BRANCH   9  10
ATOM     10  C   UNL     1       2.695  16.656   3.424  0.00  0.00    +0.000 C 
ATOM     11  C   UNL     1       1.621  15.784   4.065  0.00  0.00    +0.000 C 
BRANCH  10  12
ATOM     12  O   UNL     1       3.169  15.985   2.249  0.00  0.00    +0.000 OA
ATOM     13  H   UNL     1       3.116  16.607   1.505  0.00  0.00    +0.000 HD
ENDBRANCH  10  12
ENDBRANCH   9  10
ENDBRANCH   1   9
BRANCH   1  14
ATOM     14  C   UNL     1       3.586  19.291   1.455  0.00  0.00    +0.000 C 
BRANCH  14  15
ATOM     15  C   UNL     1       4.127  19.880   2.780  0.00  0.00    +0.000 C 
ATOM     16  C   UNL     1       5.570  19.482   3.068  0.00  0.00    +0.000 C 
BRANCH  15  17
ATOM     17  O   UNL     1       4.050  21.304   2.794  0.00  0.00    +0.000 OA
ATOM     18  H   UNL     1       4.618  21.595   2.053  0.00  0.00    +0.000 HD
ENDBRANCH  15  17
ENDBRANCH  14  15
ENDBRANCH   1  14
TORSDOF 7
ENDMDL
MODEL 2
REMARK VINA RESULT:    -5.737      0.165      1.201
REMARK INTER + INTRA:          -8.157
REMARK INTER:                  -7.738
REMARK INTRA:                  -0.419
REMARK UNBOUND:                -0.407
REMARK  Name = 
REMARK  10 active torsions:
REMARK  status: ('A' for Active; 'I' for Inactive)
REMARK    1  A    between atoms: C_1  and  C_2
REMARK    2  A    between atoms: C_5  and  N_8
REMARK    3  A    between atoms: N_8  and  C_9
REMARK    4  A    between atoms: N_8  and  C_13
REMARK    5  A    between atoms: C_9  and  C_10
REMARK    6  A    between atoms: C_10  and  C_11
REMARK    7  A    between atoms: C_10  and  O_12
REMARK    8  A    between atoms: C_13  and  C_14
REMARK    9  A    between atoms: C_14  and  C_15
REMARK   10  A    between atoms: C_14  and  O_16
REMARK                            x       y       z     vdW  Elec       q    Type
REMARK                         _______ _______ _______ _____ _____    ______ ____
ROOT
ATOM      1  N   UNL     1       2.380  18.540   1.548  0.00  0.00    +0.000 N 
ENDROOT
BRANCH   1   6
ATOM      2  C   UNL     1      -1.928  18.418  -2.293  0.00  0.00    +0.000 C 
ATOM      3  C   UNL     1      -0.815  18.426  -1.290  0.00  0.00    +0.000 A 
ATOM      4  C   UNL     1      -1.039  18.824   0.023  0.00  0.00    +0.000 A 
ATOM      5  C   UNL     1       0.014  18.858   0.951  0.00  0.00    +0.000 A 
ATOM      6  C   UNL     1       1.338  18.522   0.613  0.00  0.00    +0.000 A 
ATOM      7  C   UNL     1       1.527  18.123  -0.723  0.00  0.00    +0.000 A 
ATOM      8  C   UNL     1       0.482  18.082  -1.660  0.00  0.00    +0.000 A 
ENDBRANCH   1   6
BRANCH   1   9
ATOM      9  C   UNL     1       2.110  18.209   2.968  0.00  0.00    +0.000 C 
BRANCH   9  10
ATOM     10  C   UNL     1       2.626  16.804   3.366  0.00  0.00    +0.000 C 
ATOM     11  C   UNL     1       1.536  16.001   4.066  0.00  0.00    +0.000 C 
BRANCH  10  12
ATOM     12  O   UNL     1       3.050  16.066   2.212  0.00  0.00    +0.000 OA
ATOM     13  H   UNL     1       4.020  16.006   2.232  0.00  0.00    +0.000 HD
ENDBRANCH  10  12
ENDBRANCH   9  10
ENDBRANCH   1   9
BRANCH   1  14
ATOM     14  C   UNL     1       3.608  19.344   1.317  0.00  0.00    +0.000 C 
BRANCH  14  15
ATOM     15  C   UNL     1       4.134  19.994   2.619  0.00  0.00    +0.000 C 
ATOM     16  C   UNL     1       5.574  19.612   2.940  0.00  0.00    +0.000 C 
BRANCH  15  17
ATOM     17  O   UNL     1       4.056  21.418   2.566  0.00  0.00    +0.000 OA
ATOM     18  H   UNL     1       3.099  21.618   2.557  0.00  0.00    +0.000 HD
ENDBRANCH  15  17
ENDBRANCH  14  15
ENDBRANCH   1  14
TORSDOF 7
ENDMDL
MODEL 3
REMARK VINA RESULT:    -5.579      0.616      3.337
REMARK INTER + INTRA:          -7.943
REMARK INTER:                  -7.901
REMARK INTRA:                  -0.043
REMARK UNBOUND:                -0.407
REMARK  Name = 
REMARK  10 active torsions:
REMARK  status: ('A' for Active; 'I' for Inactive)
REMARK    1  A    between atoms: C_1  and  C_2
REMARK    2  A    between atoms: C_5  and  N_8
REMARK    3  A    between atoms: N_8  and  C_9
REMARK    4  A    between atoms: N_8  and  C_13
REMARK    5  A    between atoms: C_9  and  C_10
REMARK    6  A    between atoms: C_10  and  C_11
REMARK    7  A    between atoms: C_10  and  O_12
REMARK    8  A    between atoms: C_13  and  C_14
REMARK    9  A    between atoms: C_14  and  C_15
REMARK   10  A    between atoms: C_14  and  O_16
REMARK                            x       y       z     vdW  Elec       q    Type
REMARK                         _______ _______ _______ _____ _____    ______ ____
ROOT
ATOM      1  N   UNL     1       2.144  18.903   1.558  0.00  0.00    +0.000 N 
ENDROOT
BRANCH   1   6
ATOM      2  C   UNL     1      -1.073  17.911  -3.132  0.00  0.00    +0.000 C 
ATOM      3  C   UNL     1      -0.240  18.144  -1.909  0.00  0.00    +0.000 A 
ATOM      4  C   UNL     1      -0.828  18.501  -0.701  0.00  0.00    +0.000 A 
ATOM      5  C   UNL     1      -0.039  18.748   0.435  0.00  0.00    +0.000 A 
ATOM      6  C   UNL     1       1.365  18.674   0.417  0.00  0.00    +0.000 A 
ATOM      7  C   UNL     1       1.926  18.308  -0.821  0.00  0.00    +0.000 A 
ATOM      8  C   UNL     1       1.149  18.056  -1.963  0.00  0.00    +0.000 A 
ENDBRANCH   1   6
BRANCH   1   9
ATOM      9  C   UNL     1       3.528  19.417   1.422  0.00  0.00    +0.000 C 
BRANCH   9  10
ATOM     10  C   UNL     1       4.042  20.105   2.711  0.00  0.00    +0.000 C 
ATOM     11  C   UNL     1       5.489  19.719   2.995  0.00  0.00    +0.000 C 
BRANCH  10  12
ATOM     12  O   UNL     1       3.978  21.533   2.593  0.00  0.00    +0.000 OA
ATOM     13  H   UNL     1       4.003  21.759   1.648  0.00  0.00    +0.000 HD
ENDBRANCH  10  12
ENDBRANCH   9  10
ENDBRANCH   1   9
BRANCH   1  14
ATOM     14  C   UNL     1       1.863  18.198   2.835  0.00  0.00    +0.000 C 
BRANCH  14  15
ATOM     15  C   UNL     1       2.810  16.995   3.060  0.00  0.00    +0.000 C 
ATOM     16  C   UNL     1       2.269  15.986   4.066  0.00  0.00    +0.000 C 
BRANCH  15  17
ATOM     17  O   UNL     1       3.083  16.304   1.842  0.00  0.00    +0.000 OA
ATOM     18  H   UNL     1       2.831  15.374   2.018  0.00  0.00    +0.000 HD
ENDBRANCH  15  17
ENDBRANCH  14  15
ENDBRANCH   1  14
TORSDOF 7
ENDMDL
MODEL 4
REMARK VINA RESULT:    -5.402     15.464     17.422
REMARK INTER + INTRA:          -7.705
REMARK INTER:                  -7.228
REMARK INTRA:                  -0.476
REMARK UNBOUND:                -0.407
REMARK  Name = 
REMARK  10 active torsions:
REMARK  status: ('A' for Active; 'I' for Inactive)
REMARK    1  A    between atoms: C_1  and  C_2
REMARK    2  A    between atoms: C_5  and  N_8
REMARK    3  A    between atoms: N_8  and  C_9
REMARK    4  A    between atoms: N_8  and  C_13
REMARK    5  A    between atoms: C_9  and  C_10
REMARK    6  A    between atoms: C_10  and  C_11
REMARK    7  A    between atoms: C_10  and  O_12
REMARK    8  A    between atoms: C_13  and  C_14
REMARK    9  A    between atoms: C_14  and  C_15
REMARK   10  A    between atoms: C_14  and  O_16
REMARK                            x       y       z     vdW  Elec       q    Type
REMARK                         _______ _______ _______ _____ _____    ______ ____
ROOT
ATOM      1  N   UNL     1       3.039  15.117 -15.621  0.00  0.00    +0.000 N 
ENDROOT
BRANCH   1   6
ATOM      2  C   UNL     1      -1.363  11.713 -14.084  0.00  0.00    +0.000 C 
ATOM      3  C   UNL     1      -0.236  12.617 -14.481  0.00  0.00    +0.000 A 
ATOM      4  C   UNL     1       0.017  12.898 -15.819  0.00  0.00    +0.000 A 
ATOM      5  C   UNL     1       1.094  13.721 -16.187  0.00  0.00    +0.000 A 
ATOM      6  C   UNL     1       1.979  14.281 -15.249  0.00  0.00    +0.000 A 
ATOM      7  C   UNL     1       1.692  13.978 -13.905  0.00  0.00    +0.000 A 
ATOM      8  C   UNL     1       0.618  13.157 -13.523  0.00  0.00    +0.000 A 
ENDBRANCH   1   6
BRANCH   1   9
ATOM      9  C   UNL     1       3.565  15.077 -17.007  0.00  0.00    +0.000 C 
BRANCH   9  10
ATOM     10  C   UNL     1       5.107  14.939 -17.060  0.00  0.00    +0.000 C 
ATOM     11  C   UNL     1       5.524  13.866 -18.058  0.00  0.00    +0.000 C 
BRANCH  10  12
ATOM     12  O   UNL     1       5.721  16.175 -17.452  0.00  0.00    +0.000 OA
ATOM     13  H   UNL     1       6.378  16.412 -16.777  0.00  0.00    +0.000 HD
ENDBRANCH  10  12
ENDBRANCH   9  10
ENDBRANCH   1   9
BRANCH   1  14
ATOM     14  C   UNL     1       3.983  15.660 -14.611  0.00  0.00    +0.000 C 
BRANCH  14  15
ATOM     15  C   UNL     1       3.920  17.204 -14.522  0.00  0.00    +0.000 C 
ATOM     16  C   UNL     1       2.866  17.706 -13.542  0.00  0.00    +0.000 C 
BRANCH  15  17
ATOM     17  O   UNL     1       5.177  17.762 -14.143  0.00  0.00    +0.000 OA
ATOM     18  H   UNL     1       5.696  17.802 -14.971  0.00  0.00    +0.000 HD
ENDBRANCH  15  17
ENDBRANCH  14  15
ENDBRANCH   1  14
TORSDOF 7
ENDMDL
MODEL 5
REMARK VINA RESULT:    -5.348      1.515      3.268
REMARK INTER + INTRA:          -7.632
REMARK INTER:                  -6.898
REMARK INTRA:                  -0.734
REMARK UNBOUND:                -0.407
REMARK  Name = 
REMARK  10 active torsions:
REMARK  status: ('A' for Active; 'I' for Inactive)
REMARK    1  A    between atoms: C_1  and  C_2
REMARK    2  A    between atoms: C_5  and  N_8
REMARK    3  A    between atoms: N_8  and  C_9
REMARK    4  A    between atoms: N_8  and  C_13
REMARK    5  A    between atoms: C_9  and  C_10
REMARK    6  A    between atoms: C_10  and  C_11
REMARK    7  A    between atoms: C_10  and  O_12
REMARK    8  A    between atoms: C_13  and  C_14
REMARK    9  A    between atoms: C_14  and  C_15
REMARK   10  A    between atoms: C_14  and  O_16
REMARK                            x       y       z     vdW  Elec       q    Type
REMARK                         _______ _______ _______ _____ _____    ______ ____
ROOT
ATOM      1  N   UNL     1       2.680  18.489   0.639  0.00  0.00    +0.000 N 
ENDROOT
BRANCH   1   6
ATOM      2  C   UNL     1      -2.048  18.229  -2.663  0.00  0.00    +0.000 C 
ATOM      3  C   UNL     1      -0.818  18.320  -1.813  0.00  0.00    +0.000 A 
ATOM      4  C   UNL     1       0.434  18.004  -2.330  0.00  0.00    +0.000 A 
ATOM      5  C   UNL     1       1.579  18.063  -1.519  0.00  0.00    +0.000 A 
ATOM      6  C   UNL     1       1.531  18.413  -0.158  0.00  0.00    +0.000 A 
ATOM      7  C   UNL     1       0.250  18.728   0.331  0.00  0.00    +0.000 A 
ATOM      8  C   UNL     1      -0.903  18.676  -0.470  0.00  0.00    +0.000 A 
ENDBRANCH   1   6
BRANCH   1   9
ATOM      9  C   UNL     1       3.843  19.294   0.194  0.00  0.00    +0.000 C 
BRANCH   9  10
ATOM     10  C   UNL     1       3.749  20.776   0.633  0.00  0.00    +0.000 C 
ATOM     11  C   UNL     1       3.196  21.644  -0.492  0.00  0.00    +0.000 C 
BRANCH  10  12
ATOM     12  O   UNL     1       2.889  20.923   1.771  0.00  0.00    +0.000 OA
ATOM     13  H   UNL     1       2.318  20.138   1.821  0.00  0.00    +0.000 HD
ENDBRANCH  10  12
ENDBRANCH   9  10
ENDBRANCH   1   9
BRANCH   1  14
ATOM     14  C   UNL     1       2.997  17.431   1.633  0.00  0.00    +0.000 C 
BRANCH  14  15
ATOM     15  C   UNL     1       2.129  17.548   2.908  0.00  0.00    +0.000 C 
ATOM     16  C   UNL     1       2.241  16.334   3.823  0.00  0.00    +0.000 C 
BRANCH  15  17
ATOM     17  O   UNL     1       2.465  18.707   3.670  0.00  0.00    +0.000 OA
ATOM     18  H   UNL     1       1.888  18.667   4.459  0.00  0.00    +0.000 HD
ENDBRANCH  15  17
ENDBRANCH  14  15
ENDBRANCH   1  14
TORSDOF 7
ENDMDL
MODEL 6
REMARK VINA RESULT:    -5.084     15.477     17.417
REMARK INTER + INTRA:          -7.275
REMARK INTER:                  -6.929
REMARK INTRA:                  -0.346
REMARK UNBOUND:                -0.407
REMARK  Name = 
REMARK  10 active torsions:
REMARK  status: ('A' for Active; 'I' for Inactive)
REMARK    1  A    between atoms: C_1  and  C_2
REMARK    2  A    between atoms: C_5  and  N_8
REMARK    3  A    between atoms: N_8  and  C_9
REMARK    4  A    between atoms: N_8  and  C_13
REMARK    5  A    between atoms: C_9  and  C_10
REMARK    6  A    between atoms: C_10  and  C_11
REMARK    7  A    between atoms: C_10  and  O_12
REMARK    8  A    between atoms: C_13  and  C_14
REMARK    9  A    between atoms: C_14  and  C_15
REMARK   10  A    between atoms: C_14  and  O_16
REMARK                            x       y       z     vdW  Elec       q    Type
REMARK                         _______ _______ _______ _____ _____    ______ ____
ROOT
ATOM      1  N   UNL     1       2.340  14.884 -15.575  0.00  0.00    +0.000 N 
ENDROOT
BRANCH   1   6
ATOM      2  C   UNL     1      -1.967  11.143 -14.692  0.00  0.00    +0.000 C 
ATOM      3  C   UNL     1      -0.865  12.132 -14.914  0.00  0.00    +0.000 A 
ATOM      4  C   UNL     1      -0.661  12.706 -16.165  0.00  0.00    +0.000 A 
ATOM      5  C   UNL     1       0.393  13.610 -16.375  0.00  0.00    +0.000 A 
ATOM      6  C   UNL     1       1.303  13.967 -15.363  0.00  0.00    +0.000 A 
ATOM      7  C   UNL     1       1.066  13.369 -14.112  0.00  0.00    +0.000 A 
ATOM      8  C   UNL     1       0.014  12.465 -13.887  0.00  0.00    +0.000 A 
ENDBRANCH   1   6
BRANCH   1   9
ATOM      9  C   UNL     1       2.501  16.046 -14.667  0.00  0.00    +0.000 C 
BRANCH   9  10
ATOM     10  C   UNL     1       3.729  15.911 -13.733  0.00  0.00    +0.000 C 
ATOM     11  C   UNL     1       4.424  17.255 -13.550  0.00  0.00    +0.000 C 
BRANCH  10  12
ATOM     12  O   UNL     1       3.340  15.432 -12.438  0.00  0.00    +0.000 OA
ATOM     13  H   UNL     1       3.774  15.987 -11.769  0.00  0.00    +0.000 HD
ENDBRANCH  10  12
ENDBRANCH   9  10
ENDBRANCH   1   9
BRANCH   1  14
ATOM     14  C   UNL     1       2.962  15.047 -16.914  0.00  0.00    +0.000 C 
BRANCH  14  15
ATOM     15  C   UNL     1       4.488  14.796 -16.884  0.00  0.00    +0.000 C 
ATOM     16  C   UNL     1       4.976  13.924 -18.035  0.00  0.00    +0.000 C 
BRANCH  15  17
ATOM     17  O   UNL     1       5.224  16.019 -16.914  0.00  0.00    +0.000 OA
ATOM     18  H   UNL     1       4.544  16.722 -16.926  0.00  0.00    +0.000 HD
ENDBRANCH  15  17
ENDBRANCH  14  15
ENDBRANCH   1  14
TORSDOF 7
ENDMDL
MODEL 7
REMARK VINA RESULT:    -5.058     15.470     17.753
REMARK INTER + INTRA:          -7.239
REMARK INTER:                  -6.906
REMARK INTRA:                  -0.334
REMARK UNBOUND:                -0.407
REMARK  Name = 
REMARK  10 active torsions:
REMARK  status: ('A' for Active; 'I' for Inactive)
REMARK    1  A    between atoms: C_1  and  C_2
REMARK    2  A    between atoms: C_5  and  N_8
REMARK    3  A    between atoms: N_8  and  C_9
REMARK    4  A    between atoms: N_8  and  C_13
REMARK    5  A    between atoms: C_9  and  C_10
REMARK    6  A    between atoms: C_10  and  C_11
REMARK    7  A    between atoms: C_10  and  O_12
REMARK    8  A    between atoms: C_13  and  C_14
REMARK    9  A    between atoms: C_14  and  C_15
REMARK   10  A    between atoms: C_14  and  O_16
REMARK                            x       y       z     vdW  Elec       q    Type
REMARK                         _______ _______ _______ _____ _____    ______ ____
ROOT
ATOM      1  N   UNL     1       0.952  13.312 -15.588  0.00  0.00    +0.000 N 
ENDROOT
BRANCH   1   6
ATOM      2  C   UNL     1       4.699  17.054 -13.289  0.00  0.00    +0.000 C 
ATOM      3  C   UNL     1       3.745  16.065 -13.886  0.00  0.00    +0.000 A 
ATOM      4  C   UNL     1       3.572  15.982 -15.264  0.00  0.00    +0.000 A 
ATOM      5  C   UNL     1       2.654  15.074 -15.817  0.00  0.00    +0.000 A 
ATOM      6  C   UNL     1       1.852  14.228 -15.030  0.00  0.00    +0.000 A 
ATOM      7  C   UNL     1       2.055  14.338 -13.642  0.00  0.00    +0.000 A 
ATOM      8  C   UNL     1       2.971  15.240 -13.076  0.00  0.00    +0.000 A 
ENDBRANCH   1   6
BRANCH   1   9
ATOM      9  C   UNL     1       0.563  12.097 -14.833  0.00  0.00    +0.000 C 
BRANCH   9  10
ATOM     10  C   UNL     1      -0.898  12.149 -14.324  0.00  0.00    +0.000 C 
ATOM     11  C   UNL     1      -1.825  11.366 -15.246  0.00  0.00    +0.000 C 
BRANCH  10  12
ATOM     12  O   UNL     1      -1.005  11.589 -13.007  0.00  0.00    +0.000 OA
ATOM     13  H   UNL     1      -0.158  11.164 -12.791  0.00  0.00    +0.000 HD
ENDBRANCH  10  12
ENDBRANCH   9  10
ENDBRANCH   1   9
BRANCH   1  14
ATOM     14  C   UNL     1       0.762  13.220 -17.059  0.00  0.00    +0.000 C 
BRANCH  14  15
ATOM     15  C   UNL     1      -0.365  14.154 -17.561  0.00  0.00    +0.000 C 
ATOM     16  C   UNL     1      -1.596  13.400 -18.050  0.00  0.00    +0.000 C 
BRANCH  15  17
ATOM     17  O   UNL     1      -0.781  15.070 -16.549  0.00  0.00    +0.000 OA
ATOM     18  H   UNL     1       0.022  15.239 -16.016  0.00  0.00    +0.000 HD
ENDBRANCH  15  17
ENDBRANCH  14  15
ENDBRANCH   1  14
TORSDOF 7
ENDMDL
MODEL 8
REMARK VINA RESULT:    -4.960      3.235      6.423
REMARK INTER + INTRA:          -7.107
REMARK INTER:                  -6.623
REMARK INTRA:                  -0.485
REMARK UNBOUND:                -0.407
REMARK  Name = 
REMARK  10 active torsions:
REMARK  status: ('A' for Active; 'I' for Inactive)
REMARK    1  A    between atoms: C_1  and  C_2
REMARK    2  A    between atoms: C_5  and  N_8
REMARK    3  A    between atoms: N_8  and  C_9
REMARK    4  A    between atoms: N_8  and  C_13
REMARK    5  A    between atoms: C_9  and  C_10
REMARK    6  A    between atoms: C_10  and  C_11
REMARK    7  A    between atoms: C_10  and  O_12
REMARK    8  A    between atoms: C_13  and  C_14
REMARK    9  A    between atoms: C_14  and  C_15
REMARK   10  A    between atoms: C_14  and  O_16
REMARK                            x       y       z     vdW  Elec       q    Type
REMARK                         _______ _______ _______ _____ _____    ______ ____
ROOT
ATOM      1  N   UNL     1       0.417  19.315  -1.309  0.00  0.00    +0.000 N 
ENDROOT
BRANCH   1   6
ATOM      2  C   UNL     1       4.628  17.530   2.213  0.00  0.00    +0.000 C 
ATOM      3  C   UNL     1       3.527  17.969   1.297  0.00  0.00    +0.000 A 
ATOM      4  C   UNL     1       3.734  18.061  -0.076  0.00  0.00    +0.000 A 
ATOM      5  C   UNL     1       2.707  18.502  -0.926  0.00  0.00    +0.000 A 
ATOM      6  C   UNL     1       1.442  18.894  -0.453  0.00  0.00    +0.000 A 
ATOM      7  C   UNL     1       1.268  18.787   0.939  0.00  0.00    +0.000 A 
ATOM      8  C   UNL     1       2.286  18.345   1.801  0.00  0.00    +0.000 A 
ENDBRANCH   1   6
BRANCH   1   9
ATOM      9  C   UNL     1       0.368  20.721  -1.775  0.00  0.00    +0.000 C 
BRANCH   9  10
ATOM     10  C   UNL     1       1.298  20.986  -2.984  0.00  0.00    +0.000 C 
ATOM     11  C   UNL     1       0.489  21.325  -4.231  0.00  0.00    +0.000 C 
BRANCH  10  12
ATOM     12  O   UNL     1       2.187  22.080  -2.720  0.00  0.00    +0.000 OA
ATOM     13  H   UNL     1       1.754  22.898  -3.016  0.00  0.00    +0.000 HD
ENDBRANCH  10  12
ENDBRANCH   9  10
ENDBRANCH   1   9
BRANCH   1  14
ATOM     14  C   UNL     1      -0.879  18.591  -1.371  0.00  0.00    +0.000 C 
BRANCH  14  15
ATOM     15  C   UNL     1      -1.417  18.477  -2.818  0.00  0.00    +0.000 C 
ATOM     16  C   UNL     1      -0.455  17.761  -3.759  0.00  0.00    +0.000 C 
BRANCH  15  17
ATOM     17  O   UNL     1      -2.669  17.794  -2.863  0.00  0.00    +0.000 OA
ATOM     18  H   UNL     1      -2.594  17.179  -3.619  0.00  0.00    +0.000 HD
ENDBRANCH  15  17
ENDBRANCH  14  15
ENDBRANCH   1  14
TORSDOF 7
ENDMDL
MODEL 9
REMARK VINA RESULT:    -4.938      2.590      5.886
REMARK INTER + INTRA:          -7.078
REMARK INTER:                  -6.663
REMARK INTRA:                  -0.415
REMARK UNBOUND:                -0.407
REMARK  Name = 
REMARK  10 active torsions:
REMARK  status: ('A' for Active; 'I' for Inactive)
REMARK    1  A    between atoms: C_1  and  C_2
REMARK    2  A    between atoms: C_5  and  N_8
REMARK    3  A    between atoms: N_8  and  C_9
REMARK    4  A    between atoms: N_8  and  C_13
REMARK    5  A    between atoms: C_9  and  C_10
REMARK    6  A    between atoms: C_10  and  C_11
REMARK    7  A    between atoms: C_10  and  O_12
REMARK    8  A    between atoms: C_13  and  C_14
REMARK    9  A    between atoms: C_14  and  C_15
REMARK   10  A    between atoms: C_14  and  O_16
REMARK                            x       y       z     vdW  Elec       q    Type
REMARK                         _______ _______ _______ _____ _____    ______ ____
ROOT
ATOM      1  N   UNL     1       1.023  18.742  -0.473  0.00  0.00    +0.000 N 
ENDROOT
BRANCH   1   6
ATOM      2  C   UNL     1       5.662  18.553   2.958  0.00  0.00    +0.000 C 
ATOM      3  C   UNL     1       4.448  18.620   2.082  0.00  0.00    +0.000 A 
ATOM      4  C   UNL     1       3.352  17.797   2.317  0.00  0.00    +0.000 A 
ATOM      5  C   UNL     1       2.229  17.843   1.474  0.00  0.00    +0.000 A 
ATOM      6  C   UNL     1       2.154  18.687   0.352  0.00  0.00    +0.000 A 
ATOM      7  C   UNL     1       3.279  19.506   0.146  0.00  0.00    +0.000 A 
ATOM      8  C   UNL     1       4.408  19.472   0.982  0.00  0.00    +0.000 A 
ENDBRANCH   1   6
BRANCH   1   9
ATOM      9  C   UNL     1       1.032  18.067  -1.793  0.00  0.00    +0.000 C 
BRANCH   9  10
ATOM     10  C   UNL     1      -0.240  18.360  -2.626  0.00  0.00    +0.000 C 
ATOM     11  C   UNL     1       0.088  19.225  -3.837  0.00  0.00    +0.000 C 
BRANCH  10  12
ATOM     12  O   UNL     1      -0.838  17.144  -3.097  0.00  0.00    +0.000 OA
ATOM     13  H   UNL     1      -0.125  16.513  -3.289  0.00  0.00    +0.000 HD
ENDBRANCH  10  12
ENDBRANCH   9  10
ENDBRANCH   1   9
BRANCH   1  14
ATOM     14  C   UNL     1       0.023  19.832  -0.336  0.00  0.00    +0.000 C 
BRANCH  14  15
ATOM     15  C   UNL     1      -1.008  19.543   0.781  0.00  0.00    +0.000 C 
ATOM     16  C   UNL     1      -2.283  20.367   0.648  0.00  0.00    +0.000 C 
BRANCH  15  17
ATOM     17  O   UNL     1      -1.374  18.165   0.816  0.00  0.00    +0.000 OA
ATOM     18  H   UNL     1      -2.337  18.154   0.646  0.00  0.00    +0.000 HD
ENDBRANCH  15  17
ENDBRANCH  14  15
ENDBRANCH   1  14
TORSDOF 7
ENDMDL
