MODEL 1
REMARK VINA RESULT:    -3.779      0.000      0.000
REMARK INTER + INTRA:          -4.158
REMARK INTER:                  -4.111
REMARK INTRA:                  -0.048
REMARK UNBOUND:                -0.048
REMARK  Name = 
REMARK  3 active torsions:
REMARK  status: ('A' for Active; 'I' for Inactive)
REMARK    1  A    between atoms: C_1  and  O_2
REMARK    2  A    between atoms: O_2  and  C_3
REMARK    3  A    between atoms: C_8  and  O_9
REMARK                            x       y       z     vdW  Elec       q    Type
REMARK                         _______ _______ _______ _____ _____    ______ ____
ROOT
ATOM      1  C   UNL     1      18.231   9.278   5.173  0.00  0.00    +0.000 A 
ATOM      2  C   UNL     1      19.619   9.263   5.053  0.00  0.00    +0.000 A 
ATOM      3  C   UNL     1      20.331   8.084   5.308  0.00  0.00    +0.000 A 
ATOM      4  C   UNL     1      19.659   6.919   5.685  0.00  0.00    +0.000 A 
ATOM      5  C   UNL     1      18.271   6.927   5.806  0.00  0.00    +0.000 A 
ATOM      6  C   UNL     1      17.574   8.101   5.551  0.00  0.00    +0.000 A 
ENDROOT
BRANCH   1   8
ATOM      7  C   UNL     1      17.792  11.579   5.571  0.00  0.00    +0.000 C 
ATOM      8  O   UNL     1      17.410  10.356   4.956  0.00  0.00    +0.000 OA
ENDBRANCH   1   8
BRANCH   6   9
ATOM      9  O   UNL     1      16.211   8.083   5.678  0.00  0.00    +0.000 OA
ATOM     10  H   UNL     1      16.009   7.214   6.074  0.00  0.00    +0.000 HD
ENDBRANCH   6   9
TORSDOF 2
ENDMDL
MODEL 2
REMARK VINA RESULT:    -3.512      1.751      3.051
REMARK INTER + INTRA:          -3.867
REMARK INTER:                  -3.823
REMARK INTRA:                  -0.044
REMARK UNBOUND:                -0.048
REMARK  Name = 
REMARK  3 active torsions:
REMARK  status: ('A' for Active; 'I' for Inactive)
REMARK    1  A    between atoms: C_1  and  O_2
REMARK    2  A    between atoms: O_2  and  C_3
REMARK    3  A    between atoms: C_8  and  O_9
REMARK                            x       y       z     vdW  Elec       q    Type
REMARK                         _______ _______ _______ _____ _____    ______ ____
ROOT
ATOM      1  C   UNL     1      19.490   9.209   4.662  0.00  0.00    +0.000 A 
ATOM      2  C   UNL     1      19.667   8.132   5.530  0.00  0.00    +0.000 A 
ATOM      3  C   UNL     1      20.874   7.423   5.529  0.00  0.00    +0.000 A 
ATOM      4  C   UNL     1      21.906   7.785   4.661  0.00  0.00    +0.000 A 
ATOM      5  C   UNL     1      21.738   8.860   3.791  0.00  0.00    +0.000 A 
ATOM      6  C   UNL     1      20.537   9.557   3.800  0.00  0.00    +0.000 A 
ENDROOT
BRANCH   1   8
ATOM      7  C   UNL     1      17.116   9.320   4.670  0.00  0.00    +0.000 C 
ATOM      8  O   UNL     1      18.367   9.989   4.556  0.00  0.00    +0.000 OA
ENDBRANCH   1   8
BRANCH   6   9
ATOM      9  O   UNL     1      20.395  10.610   2.936  0.00  0.00    +0.000 OA
ATOM     10  H   UNL     1      19.478  10.919   3.069  0.00  0.00    +0.000 HD
ENDBRANCH   6   9
TORSDOF 2
ENDMDL
MODEL 3
REMARK VINA RESULT:    -3.451      1.239      1.712
REMARK INTER + INTRA:          -3.801
REMARK INTER:                  -3.763
REMARK INTRA:                  -0.038
REMARK UNBOUND:                -0.048
REMARK  Name = 
REMARK  3 active torsions:
REMARK  status: ('A' for Active; 'I' for Inactive)
REMARK    1  A    between atoms: C_1  and  O_2
REMARK    2  A    between atoms: O_2  and  C_3
REMARK    3  A    between atoms: C_8  and  O_9
REMARK                            x       y       z     vdW  Elec       q    Type
REMARK                         _______ _______ _______ _____ _____    ______ ____
ROOT
ATOM      1  C   UNL     1      19.242   9.736   4.792  0.00  0.00    +0.000 A 
ATOM      2  C   UNL     1      20.312   8.852   4.930  0.00  0.00    +0.000 A 
ATOM      3  C   UNL     1      20.095   7.564   5.436  0.00  0.00    +0.000 A 
ATOM      4  C   UNL     1      18.812   7.156   5.806  0.00  0.00    +0.000 A 
ATOM      5  C   UNL     1      17.738   8.034   5.672  0.00  0.00    +0.000 A 
ATOM      6  C   UNL     1      17.963   9.309   5.169  0.00  0.00    +0.000 A 
ENDROOT
BRANCH   1   8
ATOM      7  C   UNL     1      20.606  11.524   4.023  0.00  0.00    +0.000 C 
ATOM      8  O   UNL     1      19.308  11.020   4.314  0.00  0.00    +0.000 OA
ENDBRANCH   1   8
BRANCH   6   9
ATOM      9  O   UNL     1      16.892  10.153   5.046  0.00  0.00    +0.000 OA
ATOM     10  H   UNL     1      16.213   9.781   5.641  0.00  0.00    +0.000 HD
ENDBRANCH   6   9
TORSDOF 2
ENDMDL
MODEL 4
REMARK VINA RESULT:    -3.415     14.450     15.730
REMARK INTER + INTRA:          -3.762
REMARK INTER:                  -3.725
REMARK INTRA:                  -0.037
REMARK UNBOUND:                -0.048
REMARK  Name = 
REMARK  3 active torsions:
REMARK  status: ('A' for Active; 'I' for Inactive)
REMARK    1  A    between atoms: C_1  and  O_2
REMARK    2  A    between atoms: O_2  and  C_3
REMARK    3  A    between atoms: C_8  and  O_9
REMARK                            x       y       z     vdW  Elec       q    Type
REMARK                         _______ _______ _______ _____ _____    ______ ____
ROOT
ATOM      1  C   UNL     1      20.035  16.302  -7.595  0.00  0.00    +0.000 A 
ATOM      2  C   UNL     1      19.217  16.211  -6.470  0.00  0.00    +0.000 A 
ATOM      3  C   UNL     1      17.860  16.543  -6.563  0.00  0.00    +0.000 A 
ATOM      4  C   UNL     1      17.316  16.965  -7.778  0.00  0.00    +0.000 A 
ATOM      5  C   UNL     1      18.127  17.058  -8.907  0.00  0.00    +0.000 A 
ATOM      6  C   UNL     1      19.472  16.727  -8.805  0.00  0.00    +0.000 A 
ENDROOT
BRANCH   1   8
ATOM      7  C   UNL     1      21.967  15.518  -6.454  0.00  0.00    +0.000 C 
ATOM      8  O   UNL     1      21.375  16.012  -7.650  0.00  0.00    +0.000 OA
ENDBRANCH   1   8
BRANCH   6   9
ATOM      9  O   UNL     1      20.249  16.826  -9.928  0.00  0.00    +0.000 OA
ATOM     10  H   UNL     1      19.644  16.625 -10.667  0.00  0.00    +0.000 HD
ENDBRANCH   6   9
TORSDOF 2
ENDMDL
MODEL 5
REMARK VINA RESULT:    -3.364     14.131     15.211
REMARK INTER + INTRA:          -3.707
REMARK INTER:                  -3.660
REMARK INTRA:                  -0.046
REMARK UNBOUND:                -0.048
REMARK  Name = 
REMARK  3 active torsions:
REMARK  status: ('A' for Active; 'I' for Inactive)
REMARK    1  A    between atoms: C_1  and  O_2
REMARK    2  A    between atoms: O_2  and  C_3
REMARK    3  A    between atoms: C_8  and  O_9
REMARK                            x       y       z     vdW  Elec       q    Type
REMARK                         _______ _______ _______ _____ _____    ______ ____
ROOT
ATOM      1  C   UNL     1      18.740  15.938  -7.885  0.00  0.00    +0.000 A 
ATOM      2  C   UNL     1      18.570  15.281  -6.667  0.00  0.00    +0.000 A 
ATOM      3  C   UNL     1      19.664  15.102  -5.811  0.00  0.00    +0.000 A 
ATOM      4  C   UNL     1      20.928  15.577  -6.168  0.00  0.00    +0.000 A 
ATOM      5  C   UNL     1      21.104  16.235  -7.383  0.00  0.00    +0.000 A 
ATOM      6  C   UNL     1      20.014  16.408  -8.226  0.00  0.00    +0.000 A 
ENDROOT
BRANCH   1   8
ATOM      7  C   UNL     1      16.526  16.682  -8.325  0.00  0.00    +0.000 C 
ATOM      8  O   UNL     1      17.763  16.183  -8.818  0.00  0.00    +0.000 OA
ENDBRANCH   1   8
BRANCH   6   9
ATOM      9  O   UNL     1      20.213  17.058  -9.415  0.00  0.00    +0.000 OA
ATOM     10  H   UNL     1      19.929  16.420 -10.097  0.00  0.00    +0.000 HD
ENDBRANCH   6   9
TORSDOF 2
ENDMDL
MODEL 6
REMARK VINA RESULT:    -3.320     13.697     14.828
REMARK INTER + INTRA:          -3.658
REMARK INTER:                  -3.618
REMARK INTRA:                  -0.040
REMARK UNBOUND:                -0.048
REMARK  Name = 
REMARK  3 active torsions:
REMARK  status: ('A' for Active; 'I' for Inactive)
REMARK    1  A    between atoms: C_1  and  O_2
REMARK    2  A    between atoms: O_2  and  C_3
REMARK    3  A    between atoms: C_8  and  O_9
REMARK                            x       y       z     vdW  Elec       q    Type
REMARK                         _______ _______ _______ _____ _____    ______ ____
ROOT
ATOM      1  C   UNL     1      20.318  15.799  -6.982  0.00  0.00    +0.000 A 
ATOM      2  C   UNL     1      20.430  16.683  -8.054  0.00  0.00    +0.000 A 
ATOM      3  C   UNL     1      19.289  17.058  -8.773  0.00  0.00    +0.000 A 
ATOM      4  C   UNL     1      18.035  16.552  -8.426  0.00  0.00    +0.000 A 
ATOM      5  C   UNL     1      17.915  15.668  -7.356  0.00  0.00    +0.000 A 
ATOM      6  C   UNL     1      19.053  15.301  -6.648  0.00  0.00    +0.000 A 
ENDROOT
BRANCH   1   8
ATOM      7  C   UNL     1      22.630  15.281  -6.800  0.00  0.00    +0.000 C 
ATOM      8  O   UNL     1      21.346  15.346  -6.193  0.00  0.00    +0.000 OA
ENDBRANCH   1   8
BRANCH   6   9
ATOM      9  O   UNL     1      18.909  14.431  -5.601  0.00  0.00    +0.000 OA
ATOM     10  H   UNL     1      17.969  14.172  -5.620  0.00  0.00    +0.000 HD
ENDBRANCH   6   9
TORSDOF 2
ENDMDL
MODEL 7
REMARK VINA RESULT:    -3.280      2.934      3.677
REMARK INTER + INTRA:          -3.615
REMARK INTER:                  -3.569
REMARK INTRA:                  -0.047
REMARK UNBOUND:                -0.048
REMARK  Name = 
REMARK  3 active torsions:
REMARK  status: ('A' for Active; 'I' for Inactive)
REMARK    1  A    between atoms: C_1  and  O_2
REMARK    2  A    between atoms: O_2  and  C_3
REMARK    3  A    between atoms: C_8  and  O_9
REMARK                            x       y       z     vdW  Elec       q    Type
REMARK                         _______ _______ _______ _____ _____    ______ ____
ROOT
ATOM      1  C   UNL     1      20.966   8.686   4.425  0.00  0.00    +0.000 A 
ATOM      2  C   UNL     1      19.863   9.531   4.536  0.00  0.00    +0.000 A 
ATOM      3  C   UNL     1      18.722   9.105   5.227  0.00  0.00    +0.000 A 
ATOM      4  C   UNL     1      18.678   7.836   5.806  0.00  0.00    +0.000 A 
ATOM      5  C   UNL     1      19.776   6.985   5.700  0.00  0.00    +0.000 A 
ATOM      6  C   UNL     1      20.903   7.416   5.013  0.00  0.00    +0.000 A 
ENDROOT
BRANCH   1   8
ATOM      7  C   UNL     1      22.035   9.561   2.491  0.00  0.00    +0.000 C 
ATOM      8  O   UNL     1      22.143   8.969   3.780  0.00  0.00    +0.000 OA
ENDBRANCH   1   8
BRANCH   6   9
ATOM      9  O   UNL     1      21.970   6.562   4.921  0.00  0.00    +0.000 OA
ATOM     10  H   UNL     1      22.627   7.042   4.381  0.00  0.00    +0.000 HD
ENDBRANCH   6   9
TORSDOF 2
ENDMDL
MODEL 8
REMARK VINA RESULT:    -3.255     13.405     14.692
REMARK INTER + INTRA:          -3.588
REMARK INTER:                  -3.537
REMARK INTRA:                  -0.052
REMARK UNBOUND:                -0.048
REMARK  Name = 
REMARK  3 active torsions:
REMARK  status: ('A' for Active; 'I' for Inactive)
REMARK    1  A    between atoms: C_1  and  O_2
REMARK    2  A    between atoms: O_2  and  C_3
REMARK    3  A    between atoms: C_8  and  O_9
REMARK                            x       y       z     vdW  Elec       q    Type
REMARK                         _______ _______ _______ _____ _____    ______ ____
ROOT
ATOM      1  C   UNL     1      18.867  15.797  -6.377  0.00  0.00    +0.000 A 
ATOM      2  C   UNL     1      17.754  16.430  -6.928  0.00  0.00    +0.000 A 
ATOM      3  C   UNL     1      17.853  17.058  -8.176  0.00  0.00    +0.000 A 
ATOM      4  C   UNL     1      19.061  17.057  -8.875  0.00  0.00    +0.000 A 
ATOM      5  C   UNL     1      20.178  16.426  -8.331  0.00  0.00    +0.000 A 
ATOM      6  C   UNL     1      20.071  15.806  -7.093  0.00  0.00    +0.000 A 
ENDROOT
BRANCH   1   8
ATOM      7  C   UNL     1      18.829  15.960  -4.006  0.00  0.00    +0.000 C 
ATOM      8  O   UNL     1      18.916  15.146  -5.170  0.00  0.00    +0.000 OA
ENDBRANCH   1   8
BRANCH   6   9
ATOM      9  O   UNL     1      21.182  15.193  -6.579  0.00  0.00    +0.000 OA
ATOM     10  H   UNL     1      21.634  14.808  -7.354  0.00  0.00    +0.000 HD
ENDBRANCH   6   9
TORSDOF 2
ENDMDL
