MODEL 1
REMARK VINA RESULT:    -6.505      0.000      0.000
REMARK INTER + INTRA:          -8.977
REMARK INTER:                  -8.787
REMARK INTRA:                  -0.190
REMARK UNBOUND:                -0.190
REMARK  Name = 
REMARK  10 active torsions:
REMARK  status: ('A' for Active; 'I' for Inactive)
REMARK    1  A    between atoms: C_1  and  C_2
REMARK    2  A    between atoms: C_5  and  N_8
REMARK    3  A    between atoms: N_8  and  C_9
REMARK    4  A    between atoms: N_8  and  C_13
REMARK    5  A    between atoms: C_9  and  C_10
REMARK    6  A    between atoms: C_10  and  C_11
REMARK    7  A    between atoms: C_10  and  O_12
REMARK    8  A    between atoms: C_13  and  C_14
REMARK    9  A    between atoms: C_14  and  C_15
REMARK   10  A    between atoms: C_14  and  O_16
REMARK                            x       y       z     vdW  Elec       q    Type
REMARK                         _______ _______ _______ _____ _____    ______ ____
ROOT
ATOM      1  N   UNL     1       9.396   9.806   4.342  0.00  0.00    +0.000 N 
ENDROOT
BRANCH   1   6
ATOM      2  C   UNL     1       9.263  12.757   9.302  0.00  0.00    +0.000 C 
ATOM      3  C   UNL     1       9.297  11.970   8.028  0.00  0.00    +0.000 A 
ATOM      4  C   UNL     1      10.506  11.612   7.441  0.00  0.00    +0.000 A 
ATOM      5  C   UNL     1      10.532  10.900   6.231  0.00  0.00    +0.000 A 
ATOM      6  C   UNL     1       9.364  10.533   5.539  0.00  0.00    +0.000 A 
ATOM      7  C   UNL     1       8.160  10.910   6.162  0.00  0.00    +0.000 A 
ATOM      8  C   UNL     1       8.120  11.620   7.373  0.00  0.00    +0.000 A 
ENDBRANCH   1   6
BRANCH   1   9
ATOM      9  C   UNL     1       8.405   8.731   4.098  0.00  0.00    +0.000 C 
BRANCH   9  10
ATOM     10  C   UNL     1       8.788   7.821   2.905  0.00  0.00    +0.000 C 
ATOM     11  C   UNL     1       8.485   6.360   3.215  0.00  0.00    +0.000 C 
BRANCH  10  12
ATOM     12  O   UNL     1       8.059   8.186   1.725  0.00  0.00    +0.000 OA
ATOM     13  H   UNL     1       7.666   9.062   1.873  0.00  0.00    +0.000 HD
ENDBRANCH  10  12
ENDBRANCH   9  10
ENDBRANCH   1   9
BRANCH   1  14
ATOM     14  C   UNL     1      10.642   9.700   3.540  0.00  0.00    +0.000 C 
BRANCH  14  15
ATOM     15  C   UNL     1      10.557  10.502   2.219  0.00  0.00    +0.000 C 
ATOM     16  C   UNL     1       9.576  11.667   2.287  0.00  0.00    +0.000 C 
BRANCH  15  17
ATOM     17  O   UNL     1      11.830  11.018   1.832  0.00  0.00    +0.000 OA
ATOM     18  H   UNL     1      11.915  11.866   2.313  0.00  0.00    +0.000 HD
ENDBRANCH  15  17
ENDBRANCH  14  15
ENDBRANCH   1  14
TORSDOF 7
ENDMDL
MODEL 2
REMARK VINA RESULT:    -6.174      2.761      5.663
REMARK INTER + INTRA:          -8.529
REMARK INTER:                  -8.328
REMARK INTRA:                  -0.201
REMARK UNBOUND:                -0.190
REMARK  Name = 
REMARK  10 active torsions:
REMARK  status: ('A' for Active; 'I' for Inactive)
REMARK    1  A    between atoms: C_1  and  C_2
REMARK    2  A    between atoms: C_5  and  N_8
REMARK    3  A    between atoms: N_8  and  C_9
REMARK    4  A    between atoms: N_8  and  C_13
REMARK    5  A    between atoms: C_9  and  C_10
REMARK    6  A    between atoms: C_10  and  C_11
REMARK    7  A    between atoms: C_10  and  O_12
REMARK    8  A    between atoms: C_13  and  C_14
REMARK    9  A    between atoms: C_14  and  C_15
REMARK   10  A    between atoms: C_14  and  O_16
REMARK                            x       y       z     vdW  Elec       q    Type
REMARK                         _______ _______ _______ _____ _____    ______ ____
ROOT
ATOM      1  N   UNL     1       9.603  10.725   6.479  0.00  0.00    +0.000 N 
ENDROOT
BRANCH   1   6
ATOM      2  C   UNL     1       8.733   7.462   1.796  0.00  0.00    +0.000 C 
ATOM      3  C   UNL     1       8.975   8.292   3.020  0.00  0.00    +0.000 A 
ATOM      4  C   UNL     1       8.166   8.159   4.144  0.00  0.00    +0.000 A 
ATOM      5  C   UNL     1       8.379   8.960   5.278  0.00  0.00    +0.000 A 
ATOM      6  C   UNL     1       9.384   9.942   5.338  0.00  0.00    +0.000 A 
ATOM      7  C   UNL     1      10.183  10.048   4.185  0.00  0.00    +0.000 A 
ATOM      8  C   UNL     1       9.983   9.251   3.045  0.00  0.00    +0.000 A 
ENDBRANCH   1   6
BRANCH   1   9
ATOM      9  C   UNL     1       8.479  11.470   7.096  0.00  0.00    +0.000 C 
BRANCH   9  10
ATOM     10  C   UNL     1       7.615  10.588   8.031  0.00  0.00    +0.000 C 
ATOM     11  C   UNL     1       7.865  10.936   9.493  0.00  0.00    +0.000 C 
BRANCH  10  12
ATOM     12  O   UNL     1       6.218  10.770   7.763  0.00  0.00    +0.000 OA
ATOM     13  H   UNL     1       5.769  10.941   8.608  0.00  0.00    +0.000 HD
ENDBRANCH  10  12
ENDBRANCH   9  10
ENDBRANCH   1   9
BRANCH   1  14
ATOM     14  C   UNL     1      10.953  11.251   6.803  0.00  0.00    +0.000 C 
BRANCH  14  15
ATOM     15  C   UNL     1      11.034  11.805   8.246  0.00  0.00    +0.000 C 
ATOM     16  C   UNL     1      11.761  10.872   9.207  0.00  0.00    +0.000 C 
BRANCH  15  17
ATOM     17  O   UNL     1      11.682  13.075   8.288  0.00  0.00    +0.000 OA
ATOM     18  H   UNL     1      10.979  13.725   8.085  0.00  0.00    +0.000 HD
ENDBRANCH  15  17
ENDBRANCH  14  15
ENDBRANCH   1  14
TORSDOF 7
ENDMDL
MODEL 3
REMARK VINA RESULT:    -6.166      2.738      6.142
REMARK INTER + INTRA:          -8.518
REMARK INTER:                  -8.697
REMARK INTRA:                   0.179
REMARK UNBOUND:                -0.190
REMARK  Name = 
REMARK  10 active torsions:
REMARK  status: ('A' for Active; 'I' for Inactive)
REMARK    1  A    between atoms: C_1  and  C_2
REMARK    2  A    between atoms: C_5  and  N_8
REMARK    3  A    between atoms: N_8  and  C_9
REMARK    4  A    between atoms: N_8  and  C_13
REMARK    5  A    between atoms: C_9  and  C_10
REMARK    6  A    between atoms: C_10  and  C_11
REMARK    7  A    between atoms: C_10  and  O_12
REMARK    8  A    between atoms: C_13  and  C_14
REMARK    9  A    between atoms: C_14  and  C_15
REMARK   10  A    between atoms: C_14  and  O_16
REMARK                            x       y       z     vdW  Elec       q    Type
REMARK                         _______ _______ _______ _____ _____    ______ ____
ROOT
ATOM      1  N   UNL     1       9.663  11.105   6.448  0.00  0.00    +0.000 N 
ENDROOT
BRANCH   1   6
ATOM      2  C   UNL     1       8.806   7.527   1.999  0.00  0.00    +0.000 C 
ATOM      3  C   UNL     1       9.044   8.439   3.164  0.00  0.00    +0.000 A 
ATOM      4  C   UNL     1       8.204   8.415   4.272  0.00  0.00    +0.000 A 
ATOM      5  C   UNL     1       8.414   9.293   5.349  0.00  0.00    +0.000 A 
ATOM      6  C   UNL     1       9.448  10.246   5.363  0.00  0.00    +0.000 A 
ATOM      7  C   UNL     1      10.278  10.241   4.227  0.00  0.00    +0.000 A 
ATOM      8  C   UNL     1      10.081   9.367   3.145  0.00  0.00    +0.000 A 
ENDBRANCH   1   6
BRANCH   1   9
ATOM      9  C   UNL     1      10.976  11.118   7.137  0.00  0.00    +0.000 C 
BRANCH   9  10
ATOM     10  C   UNL     1      10.997  12.053   8.371  0.00  0.00    +0.000 C 
ATOM     11  C   UNL     1      11.444  11.300   9.618  0.00  0.00    +0.000 C 
BRANCH  10  12
ATOM     12  O   UNL     1      11.896  13.152   8.169  0.00  0.00    +0.000 OA
ATOM     13  H   UNL     1      11.533  13.712   7.463  0.00  0.00    +0.000 HD
ENDBRANCH  10  12
ENDBRANCH   9  10
ENDBRANCH   1   9
BRANCH   1  14
ATOM     14  C   UNL     1       8.529  11.622   7.256  0.00  0.00    +0.000 C 
BRANCH  14  15
ATOM     15  C   UNL     1       7.657  10.483   7.836  0.00  0.00    +0.000 C 
ATOM     16  C   UNL     1       8.006  10.137   9.279  0.00  0.00    +0.000 C 
BRANCH  15  17
ATOM     17  O   UNL     1       6.268  10.802   7.782  0.00  0.00    +0.000 OA
ATOM     18  H   UNL     1       5.809   9.979   8.047  0.00  0.00    +0.000 HD
ENDBRANCH  15  17
ENDBRANCH  14  15
ENDBRANCH   1  14
TORSDOF 7
ENDMDL
MODEL 4
REMARK VINA RESULT:    -6.140      0.368      3.215
REMARK INTER + INTRA:          -8.484
REMARK INTER:                  -8.485
REMARK INTRA:                   0.001
REMARK UNBOUND:                -0.190
REMARK  Name = 
REMARK  10 active torsions:
REMARK  status: ('A' for Active; 'I' for Inactive)
REMARK    1  A    between atoms: C_1  and  C_2
REMARK    2  A    between atoms: C_5  and  N_8
REMARK    3  A    between atoms: N_8  and  C_9
REMARK    4  A    between atoms: N_8  and  C_13
REMARK    5  A    between atoms: C_9  and  C_10
REMARK    6  A    between atoms: C_10  and  C_11
REMARK    7  A    between atoms: C_10  and  O_12
REMARK    8  A    between atoms: C_13  and  C_14
REMARK    9  A    between atoms: C_14  and  C_15
REMARK   10  A    between atoms: C_14  and  O_16
REMARK                            x       y       z     vdW  Elec       q    Type
REMARK                         _______ _______ _______ _____ _____    ______ ____
ROOT
ATOM      1  N   UNL     1       9.477   9.476   4.352  0.00  0.00    +0.000 N 
ENDROOT
BRANCH   1   6
ATOM      2  C   UNL     1       8.775  12.567   9.177  0.00  0.00    +0.000 C 
ATOM      3  C   UNL     1       8.954  11.786   7.912  0.00  0.00    +0.000 A 
ATOM      4  C   UNL     1       7.871  11.170   7.293  0.00  0.00    +0.000 A 
ATOM      5  C   UNL     1       8.049  10.414   6.123  0.00  0.00    +0.000 A 
ATOM      6  C   UNL     1       9.309  10.215   5.530  0.00  0.00    +0.000 A 
ATOM      7  C   UNL     1      10.380  10.854   6.181  0.00  0.00    +0.000 A 
ATOM      8  C   UNL     1      10.216  11.615   7.350  0.00  0.00    +0.000 A 
ENDBRANCH   1   6
BRANCH   1   9
ATOM      9  C   UNL     1      10.666   9.702   3.496  0.00  0.00    +0.000 C 
BRANCH   9  10
ATOM     10  C   UNL     1      10.357  10.584   2.261  0.00  0.00    +0.000 C 
ATOM     11  C   UNL     1       9.518  11.794   2.653  0.00  0.00    +0.000 C 
BRANCH  10  12
ATOM     12  O   UNL     1      11.566  11.060   1.654  0.00  0.00    +0.000 OA
ATOM     13  H   UNL     1      11.984  10.315   1.191  0.00  0.00    +0.000 HD
ENDBRANCH  10  12
ENDBRANCH   9  10
ENDBRANCH   1   9
BRANCH   1  14
ATOM     14  C   UNL     1       8.316   8.859   3.660  0.00  0.00    +0.000 C 
BRANCH  14  15
ATOM     15  C   UNL     1       8.740   7.692   2.736  0.00  0.00    +0.000 C 
ATOM     16  C   UNL     1       8.480   6.320   3.346  0.00  0.00    +0.000 C 
BRANCH  15  17
ATOM     17  O   UNL     1       8.074   7.749   1.475  0.00  0.00    +0.000 OA
ATOM     18  H   UNL     1       8.775   7.965   0.828  0.00  0.00    +0.000 HD
ENDBRANCH  15  17
ENDBRANCH  14  15
ENDBRANCH   1  14
TORSDOF 7
ENDMDL
MODEL 5
REMARK VINA RESULT:    -5.483      3.226      6.312
REMARK INTER + INTRA:          -7.596
REMARK INTER:                  -7.215
REMARK INTRA:                  -0.380
REMARK UNBOUND:                -0.190
REMARK  Name = 
REMARK  10 active torsions:
REMARK  status: ('A' for Active; 'I' for Inactive)
REMARK    1  A    between atoms: C_1  and  C_2
REMARK    2  A    between atoms: C_5  and  N_8
REMARK    3  A    between atoms: N_8  and  C_9
REMARK    4  A    between atoms: N_8  and  C_13
REMARK    5  A    between atoms: C_9  and  C_10
REMARK    6  A    between atoms: C_10  and  C_11
REMARK    7  A    between atoms: C_10  and  O_12
REMARK    8  A    between atoms: C_13  and  C_14
REMARK    9  A    between atoms: C_14  and  C_15
REMARK   10  A    between atoms: C_14  and  O_16
REMARK                            x       y       z     vdW  Elec       q    Type
REMARK                         _______ _______ _______ _____ _____    ______ ____
ROOT
ATOM      1  N   UNL     1       9.622  11.923   7.540  0.00  0.00    +0.000 N 
ENDROOT
BRANCH   1   6
ATOM      2  C   UNL     1       9.933  10.245   2.025  0.00  0.00    +0.000 C 
ATOM      3  C   UNL     1       9.870  10.697   3.452  0.00  0.00    +0.000 A 
ATOM      4  C   UNL     1      10.640  10.079   4.432  0.00  0.00    +0.000 A 
ATOM      5  C   UNL     1      10.554  10.487   5.773  0.00  0.00    +0.000 A 
ATOM      6  C   UNL     1       9.687  11.508   6.204  0.00  0.00    +0.000 A 
ATOM      7  C   UNL     1       8.927  12.112   5.186  0.00  0.00    +0.000 A 
ATOM      8  C   UNL     1       9.004  11.714   3.841  0.00  0.00    +0.000 A 
ENDBRANCH   1   6
BRANCH   1   9
ATOM      9  C   UNL     1      10.839  11.900   8.386  0.00  0.00    +0.000 C 
BRANCH   9  10
ATOM     10  C   UNL     1      10.991  13.175   9.253  0.00  0.00    +0.000 C 
ATOM     11  C   UNL     1      12.445  13.391   9.653  0.00  0.00    +0.000 C 
BRANCH  10  12
ATOM     12  O   UNL     1      10.548  14.338   8.540  0.00  0.00    +0.000 OA
ATOM     13  H   UNL     1      10.032  14.042   7.772  0.00  0.00    +0.000 HD
ENDBRANCH  10  12
ENDBRANCH   9  10
ENDBRANCH   1   9
BRANCH   1  14
ATOM     14  C   UNL     1       8.339  11.901   8.289  0.00  0.00    +0.000 C 
BRANCH  14  15
ATOM     15  C   UNL     1       7.666  10.508   8.255  0.00  0.00    +0.000 C 
ATOM     16  C   UNL     1       7.773   9.758   9.578  0.00  0.00    +0.000 C 
BRANCH  15  17
ATOM     17  O   UNL     1       6.285  10.598   7.909  0.00  0.00    +0.000 OA
ATOM     18  H   UNL     1       6.215  11.402   7.355  0.00  0.00    +0.000 HD
ENDBRANCH  15  17
ENDBRANCH  14  15
ENDBRANCH   1  14
TORSDOF 7
ENDMDL
MODEL 6
REMARK VINA RESULT:    -4.963     12.304     13.472
REMARK INTER + INTRA:          -6.894
REMARK INTER:                  -6.461
REMARK INTRA:                  -0.433
REMARK UNBOUND:                -0.190
REMARK  Name = 
REMARK  10 active torsions:
REMARK  status: ('A' for Active; 'I' for Inactive)
REMARK    1  A    between atoms: C_1  and  C_2
REMARK    2  A    between atoms: C_5  and  N_8
REMARK    3  A    between atoms: N_8  and  C_9
REMARK    4  A    between atoms: N_8  and  C_13
REMARK    5  A    between atoms: C_9  and  C_10
REMARK    6  A    between atoms: C_10  and  C_11
REMARK    7  A    between atoms: C_10  and  O_12
REMARK    8  A    between atoms: C_13  and  C_14
REMARK    9  A    between atoms: C_14  and  C_15
REMARK   10  A    between atoms: C_14  and  O_16
REMARK                            x       y       z     vdW  Elec       q    Type
REMARK                         _______ _______ _______ _____ _____    ______ ____
ROOT
ATOM      1  N   UNL     1      20.339  14.329   0.776  0.00  0.00    +0.000 N 
ENDROOT
BRANCH   1   6
ATOM      2  C   UNL     1      23.376  14.982   5.642  0.00  0.00    +0.000 C 
ATOM      3  C   UNL     1      22.587  14.838   4.377  0.00  0.00    +0.000 A 
ATOM      4  C   UNL     1      21.199  14.757   4.406  0.00  0.00    +0.000 A 
ATOM      5  C   UNL     1      20.466  14.591   3.219  0.00  0.00    +0.000 A 
ATOM      6  C   UNL     1      21.077  14.474   1.957  0.00  0.00    +0.000 A 
ATOM      7  C   UNL     1      22.481  14.563   1.966  0.00  0.00    +0.000 A 
ATOM      8  C   UNL     1      23.226  14.731   3.145  0.00  0.00    +0.000 A 
ENDBRANCH   1   6
BRANCH   1   9
ATOM      9  C   UNL     1      20.874  13.509  -0.338  0.00  0.00    +0.000 C 
BRANCH   9  10
ATOM     10  C   UNL     1      21.561  14.361  -1.434  0.00  0.00    +0.000 C 
ATOM     11  C   UNL     1      22.976  13.863  -1.704  0.00  0.00    +0.000 C 
BRANCH  10  12
ATOM     12  O   UNL     1      20.827  14.305  -2.665  0.00  0.00    +0.000 OA
ATOM     13  H   UNL     1      20.006  13.811  -2.504  0.00  0.00    +0.000 HD
ENDBRANCH  10  12
ENDBRANCH   9  10
ENDBRANCH   1   9
BRANCH   1  14
ATOM     14  C   UNL     1      19.317  15.331   0.379  0.00  0.00    +0.000 C 
BRANCH  14  15
ATOM     15  C   UNL     1      19.880  16.772   0.383  0.00  0.00    +0.000 C 
ATOM     16  C   UNL     1      19.533  17.555  -0.878  0.00  0.00    +0.000 C 
BRANCH  15  17
ATOM     17  O   UNL     1      19.414  17.517   1.507  0.00  0.00    +0.000 OA
ATOM     18  H   UNL     1      19.059  18.348   1.130  0.00  0.00    +0.000 HD
ENDBRANCH  15  17
ENDBRANCH  14  15
ENDBRANCH   1  14
TORSDOF 7
ENDMDL
MODEL 7
REMARK VINA RESULT:    -4.905      3.295      5.182
REMARK INTER + INTRA:          -6.815
REMARK INTER:                  -6.295
REMARK INTRA:                  -0.520
REMARK UNBOUND:                -0.190
REMARK  Name = 
REMARK  10 active torsions:
REMARK  status: ('A' for Active; 'I' for Inactive)
REMARK    1  A    between atoms: C_1  and  C_2
REMARK    2  A    between atoms: C_5  and  N_8
REMARK    3  A    between atoms: N_8  and  C_9
REMARK    4  A    between atoms: N_8  and  C_13
REMARK    5  A    between atoms: C_9  and  C_10
REMARK    6  A    between atoms: C_10  and  C_11
REMARK    7  A    between atoms: C_10  and  O_12
REMARK    8  A    between atoms: C_13  and  C_14
REMARK    9  A    between atoms: C_14  and  C_15
REMARK   10  A    between atoms: C_14  and  O_16
REMARK                            x       y       z     vdW  Elec       q    Type
REMARK                         _______ _______ _______ _____ _____    ______ ____
ROOT
ATOM      1  N   UNL     1       9.757  11.510   7.557  0.00  0.00    +0.000 N 
ENDROOT
BRANCH   1   6
ATOM      2  C   UNL     1      15.126  12.600   9.377  0.00  0.00    +0.000 C 
ATOM      3  C   UNL     1      13.738  12.327   8.883  0.00  0.00    +0.000 A 
ATOM      4  C   UNL     1      12.723  13.262   9.051  0.00  0.00    +0.000 A 
ATOM      5  C   UNL     1      11.417  12.988   8.612  0.00  0.00    +0.000 A 
ATOM      6  C   UNL     1      11.057  11.769   8.010  0.00  0.00    +0.000 A 
ATOM      7  C   UNL     1      12.109  10.848   7.855  0.00  0.00    +0.000 A 
ATOM      8  C   UNL     1      13.419  11.110   8.287  0.00  0.00    +0.000 A 
ENDBRANCH   1   6
BRANCH   1   9
ATOM      9  C   UNL     1       9.447  11.576   6.109  0.00  0.00    +0.000 C 
BRANCH   9  10
ATOM     10  C   UNL     1       9.516  10.192   5.417  0.00  0.00    +0.000 C 
ATOM     11  C   UNL     1       8.190   9.850   4.749  0.00  0.00    +0.000 C 
BRANCH  10  12
ATOM     12  O   UNL     1      10.539  10.170   4.411  0.00  0.00    +0.000 OA
ATOM     13  H   UNL     1      11.253  10.765   4.695  0.00  0.00    +0.000 HD
ENDBRANCH  10  12
ENDBRANCH   9  10
ENDBRANCH   1   9
BRANCH   1  14
ATOM     14  C   UNL     1       8.584  11.671   8.454  0.00  0.00    +0.000 C 
BRANCH  14  15
ATOM     15  C   UNL     1       7.858  10.328   8.714  0.00  0.00    +0.000 C 
ATOM     16  C   UNL     1       8.728   9.306   9.435  0.00  0.00    +0.000 C 
BRANCH  15  17
ATOM     17  O   UNL     1       6.667  10.512   9.477  0.00  0.00    +0.000 OA
ATOM     18  H   UNL     1       6.789   9.956  10.273  0.00  0.00    +0.000 HD
ENDBRANCH  15  17
ENDBRANCH  14  15
ENDBRANCH   1  14
TORSDOF 7
ENDMDL
MODEL 8
REMARK VINA RESULT:    -4.797     12.662     14.028
REMARK INTER + INTRA:          -6.670
REMARK INTER:                  -6.112
REMARK INTRA:                  -0.558
REMARK UNBOUND:                -0.190
REMARK  Name = 
REMARK  10 active torsions:
REMARK  status: ('A' for Active; 'I' for Inactive)
REMARK    1  A    between atoms: C_1  and  C_2
REMARK    2  A    between atoms: C_5  and  N_8
REMARK    3  A    between atoms: N_8  and  C_9
REMARK    4  A    between atoms: N_8  and  C_13
REMARK    5  A    between atoms: C_9  and  C_10
REMARK    6  A    between atoms: C_10  and  C_11
REMARK    7  A    between atoms: C_10  and  O_12
REMARK    8  A    between atoms: C_13  and  C_14
REMARK    9  A    between atoms: C_14  and  C_15
REMARK   10  A    between atoms: C_14  and  O_16
REMARK                            x       y       z     vdW  Elec       q    Type
REMARK                         _______ _______ _______ _____ _____    ______ ____
ROOT
ATOM      1  N   UNL     1      20.907  14.956  -0.699  0.00  0.00    +0.000 N 
ENDROOT
BRANCH   1   6
ATOM      2  C   UNL     1      21.650  14.942   5.026  0.00  0.00    +0.000 C 
ATOM      3  C   UNL     1      21.441  14.964   3.542  0.00  0.00    +0.000 A 
ATOM      4  C   UNL     1      20.486  14.149   2.943  0.00  0.00    +0.000 A 
ATOM      5  C   UNL     1      20.315  14.152   1.549  0.00  0.00    +0.000 A 
ATOM      6  C   UNL     1      21.096  14.944   0.688  0.00  0.00    +0.000 A 
ATOM      7  C   UNL     1      22.050  15.756   1.329  0.00  0.00    +0.000 A 
ATOM      8  C   UNL     1      22.230  15.764   2.722  0.00  0.00    +0.000 A 
ENDBRANCH   1   6
BRANCH   1   9
ATOM      9  C   UNL     1      19.674  15.543  -1.276  0.00  0.00    +0.000 C 
BRANCH   9  10
ATOM     10  C   UNL     1      19.813  17.056  -1.577  0.00  0.00    +0.000 C 
ATOM     11  C   UNL     1      19.335  17.893  -0.396  0.00  0.00    +0.000 C 
BRANCH  10  12
ATOM     12  O   UNL     1      21.178  17.404  -1.845  0.00  0.00    +0.000 OA
ATOM     13  H   UNL     1      21.747  16.822  -1.314  0.00  0.00    +0.000 HD
ENDBRANCH  10  12
ENDBRANCH   9  10
ENDBRANCH   1   9
BRANCH   1  14
ATOM     14  C   UNL     1      21.608  13.987  -1.580  0.00  0.00    +0.000 C 
BRANCH  14  15
ATOM     15  C   UNL     1      23.147  14.098  -1.462  0.00  0.00    +0.000 C 
ATOM     16  C   UNL     1      23.776  12.934  -0.706  0.00  0.00    +0.000 C 
BRANCH  15  17
ATOM     17  O   UNL     1      23.769  14.179  -2.744  0.00  0.00    +0.000 OA
ATOM     18  H   UNL     1      23.606  13.309  -3.160  0.00  0.00    +0.000 HD
ENDBRANCH  15  17
ENDBRANCH  14  15
ENDBRANCH   1  14
TORSDOF 7
ENDMDL
MODEL 9
REMARK VINA RESULT:    -4.760     12.440     13.636
REMARK INTER + INTRA:          -6.620
REMARK INTER:                  -6.112
REMARK INTRA:                  -0.507
REMARK UNBOUND:                -0.190
REMARK  Name = 
REMARK  10 active torsions:
REMARK  status: ('A' for Active; 'I' for Inactive)
REMARK    1  A    between atoms: C_1  and  C_2
REMARK    2  A    between atoms: C_5  and  N_8
REMARK    3  A    between atoms: N_8  and  C_9
REMARK    4  A    between atoms: N_8  and  C_13
REMARK    5  A    between atoms: C_9  and  C_10
REMARK    6  A    between atoms: C_10  and  C_11
REMARK    7  A    between atoms: C_10  and  O_12
REMARK    8  A    between atoms: C_13  and  C_14
REMARK    9  A    between atoms: C_14  and  C_15
REMARK   10  A    between atoms: C_14  and  O_16
REMARK                            x       y       z     vdW  Elec       q    Type
REMARK                         _______ _______ _______ _____ _____    ______ ____
ROOT
ATOM      1  N   UNL     1      20.692  14.921   0.741  0.00  0.00    +0.000 N 
ENDROOT
BRANCH   1   6
ATOM      2  C   UNL     1      23.068  14.893   6.003  0.00  0.00    +0.000 C 
ATOM      3  C   UNL     1      22.452  14.875   4.637  0.00  0.00    +0.000 A 
ATOM      4  C   UNL     1      23.243  14.964   3.496  0.00  0.00    +0.000 A 
ATOM      5  C   UNL     1      22.658  14.977   2.219  0.00  0.00    +0.000 A 
ATOM      6  C   UNL     1      21.267  14.927   2.018  0.00  0.00    +0.000 A 
ATOM      7  C   UNL     1      20.499  14.836   3.194  0.00  0.00    +0.000 A 
ATOM      8  C   UNL     1      21.071  14.820   4.476  0.00  0.00    +0.000 A 
ENDBRANCH   1   6
BRANCH   1   9
ATOM      9  C   UNL     1      19.434  15.665   0.489  0.00  0.00    +0.000 C 
BRANCH   9  10
ATOM     10  C   UNL     1      19.643  17.198   0.441  0.00  0.00    +0.000 C 
ATOM     11  C   UNL     1      20.919  17.551  -0.315  0.00  0.00    +0.000 C 
BRANCH  10  12
ATOM     12  O   UNL     1      18.545  17.847  -0.214  0.00  0.00    +0.000 OA
ATOM     13  H   UNL     1      18.857  18.705  -0.547  0.00  0.00    +0.000 HD
ENDBRANCH  10  12
ENDBRANCH   9  10
ENDBRANCH   1   9
BRANCH   1  14
ATOM     14  C   UNL     1      20.977  13.829  -0.225  0.00  0.00    +0.000 C 
BRANCH  14  15
ATOM     15  C   UNL     1      21.808  14.321  -1.434  0.00  0.00    +0.000 C 
ATOM     16  C   UNL     1      23.113  13.555  -1.617  0.00  0.00    +0.000 C 
BRANCH  15  17
ATOM     17  O   UNL     1      21.070  14.232  -2.652  0.00  0.00    +0.000 OA
ATOM     18  H   UNL     1      21.071  15.141  -3.016  0.00  0.00    +0.000 HD
ENDBRANCH  15  17
ENDBRANCH  14  15
ENDBRANCH   1  14
TORSDOF 7
ENDMDL
