MODEL 1
REMARK VINA RESULT:    -3.845      0.000      0.000
REMARK INTER + INTRA:          -5.677
REMARK INTER:                  -5.194
REMARK INTRA:                  -0.483
REMARK UNBOUND:                -0.483
REMARK  Name = 
REMARK  10 active torsions:
REMARK  status: ('A' for Active; 'I' for Inactive)
REMARK    1  A    between atoms: C_1  and  C_2
REMARK    2  A    between atoms: C_5  and  N_8
REMARK    3  A    between atoms: N_8  and  C_9
REMARK    4  A    between atoms: N_8  and  C_13
REMARK    5  A    between atoms: C_9  and  C_10
REMARK    6  A    between atoms: C_10  and  C_11
REMARK    7  A    between atoms: C_10  and  O_12
REMARK    8  A    between atoms: C_13  and  C_14
REMARK    9  A    between atoms: C_14  and  C_15
REMARK   10  A    between atoms: C_14  and  O_16
REMARK                            x       y       z     vdW  Elec       q    Type
REMARK                         _______ _______ _______ _____ _____    ______ ____
ROOT
ATOM      1  N   UNL     1      20.091   9.979   4.583  0.00  0.00    +0.000 N 
ENDROOT
BRANCH   1   6
ATOM      2  C   UNL     1      23.031  13.773   1.376  0.00  0.00    +0.000 C 
ATOM      3  C   UNL     1      22.248  12.792   2.194  0.00  0.00    +0.000 A 
ATOM      4  C   UNL     1      21.561  13.199   3.332  0.00  0.00    +0.000 A 
ATOM      5  C   UNL     1      20.853  12.270   4.112  0.00  0.00    +0.000 A 
ATOM      6  C   UNL     1      20.814  10.897   3.812  0.00  0.00    +0.000 A 
ATOM      7  C   UNL     1      21.519  10.521   2.653  0.00  0.00    +0.000 A 
ATOM      8  C   UNL     1      22.229  11.440   1.863  0.00  0.00    +0.000 A 
ENDBRANCH   1   6
BRANCH   1   9
ATOM      9  C   UNL     1      20.798   9.072   5.519  0.00  0.00    +0.000 C 
BRANCH   9  10
ATOM     10  C   UNL     1      20.879   7.616   4.999  0.00  0.00    +0.000 C 
ATOM     11  C   UNL     1      22.259   7.022   5.254  0.00  0.00    +0.000 C 
BRANCH  10  12
ATOM     12  O   UNL     1      19.909   6.783   5.649  0.00  0.00    +0.000 OA
ATOM     13  H   UNL     1      19.129   6.723   5.074  0.00  0.00    +0.000 HD
ENDBRANCH  10  12
ENDBRANCH   9  10
ENDBRANCH   1   9
BRANCH   1  14
ATOM     14  C   UNL     1      18.744   9.513   4.162  0.00  0.00    +0.000 C 
BRANCH  14  15
ATOM     15  C   UNL     1      17.677   9.743   5.259  0.00  0.00    +0.000 C 
ATOM     16  C   UNL     1      17.449  11.216   5.575  0.00  0.00    +0.000 C 
BRANCH  15  17
ATOM     17  O   UNL     1      16.421   9.169   4.901  0.00  0.00    +0.000 OA
ATOM     18  H   UNL     1      15.844   9.932   4.693  0.00  0.00    +0.000 HD
ENDBRANCH  15  17
ENDBRANCH  14  15
ENDBRANCH   1  14
TORSDOF 7
ENDMDL
MODEL 2
REMARK VINA RESULT:    -3.509      1.662      2.387
REMARK INTER + INTRA:          -5.223
REMARK INTER:                  -4.702
REMARK INTRA:                  -0.521
REMARK UNBOUND:                -0.483
REMARK  Name = 
REMARK  10 active torsions:
REMARK  status: ('A' for Active; 'I' for Inactive)
REMARK    1  A    between atoms: C_1  and  C_2
REMARK    2  A    between atoms: C_5  and  N_8
REMARK    3  A    between atoms: N_8  and  C_9
REMARK    4  A    between atoms: N_8  and  C_13
REMARK    5  A    between atoms: C_9  and  C_10
REMARK    6  A    between atoms: C_10  and  C_11
REMARK    7  A    between atoms: C_10  and  O_12
REMARK    8  A    between atoms: C_13  and  C_14
REMARK    9  A    between atoms: C_14  and  C_15
REMARK   10  A    between atoms: C_14  and  O_16
REMARK                            x       y       z     vdW  Elec       q    Type
REMARK                         _______ _______ _______ _____ _____    ______ ____
ROOT
ATOM      1  N   UNL     1      20.147  10.618   4.843  0.00  0.00    +0.000 N 
ENDROOT
BRANCH   1   6
ATOM      2  C   UNL     1      21.560  16.035   3.434  0.00  0.00    +0.000 C 
ATOM      3  C   UNL     1      21.212  14.629   3.817  0.00  0.00    +0.000 A 
ATOM      4  C   UNL     1      21.761  13.547   3.137  0.00  0.00    +0.000 A 
ATOM      5  C   UNL     1      21.408  12.232   3.480  0.00  0.00    +0.000 A 
ATOM      6  C   UNL     1      20.480  11.933   4.494  0.00  0.00    +0.000 A 
ATOM      7  C   UNL     1      19.946  13.051   5.161  0.00  0.00    +0.000 A 
ATOM      8  C   UNL     1      20.292  14.371   4.829  0.00  0.00    +0.000 A 
ENDBRANCH   1   6
BRANCH   1   9
ATOM      9  C   UNL     1      20.502   9.496   3.942  0.00  0.00    +0.000 C 
BRANCH   9  10
ATOM     10  C   UNL     1      21.606   8.582   4.527  0.00  0.00    +0.000 C 
ATOM     11  C   UNL     1      21.004   7.318   5.131  0.00  0.00    +0.000 C 
BRANCH  10  12
ATOM     12  O   UNL     1      22.541   8.188   3.513  0.00  0.00    +0.000 OA
ATOM     13  H   UNL     1      22.912   8.994   3.116  0.00  0.00    +0.000 HD
ENDBRANCH  10  12
ENDBRANCH   9  10
ENDBRANCH   1   9
BRANCH   1  14
ATOM     14  C   UNL     1      19.038  10.331   5.790  0.00  0.00    +0.000 C 
BRANCH  14  15
ATOM     15  C   UNL     1      17.800   9.738   5.076  0.00  0.00    +0.000 C 
ATOM     16  C   UNL     1      17.347   8.408   5.667  0.00  0.00    +0.000 C 
BRANCH  15  17
ATOM     17  O   UNL     1      16.692  10.636   5.109  0.00  0.00    +0.000 OA
ATOM     18  H   UNL     1      16.820  11.224   4.338  0.00  0.00    +0.000 HD
ENDBRANCH  15  17
ENDBRANCH  14  15
ENDBRANCH   1  14
TORSDOF 7
ENDMDL
MODEL 3
REMARK VINA RESULT:    -3.450      2.289      4.078
REMARK INTER + INTRA:          -5.144
REMARK INTER:                  -4.697
REMARK INTRA:                  -0.447
REMARK UNBOUND:                -0.483
REMARK  Name = 
REMARK  10 active torsions:
REMARK  status: ('A' for Active; 'I' for Inactive)
REMARK    1  A    between atoms: C_1  and  C_2
REMARK    2  A    between atoms: C_5  and  N_8
REMARK    3  A    between atoms: N_8  and  C_9
REMARK    4  A    between atoms: N_8  and  C_13
REMARK    5  A    between atoms: C_9  and  C_10
REMARK    6  A    between atoms: C_10  and  C_11
REMARK    7  A    between atoms: C_10  and  O_12
REMARK    8  A    between atoms: C_13  and  C_14
REMARK    9  A    between atoms: C_14  and  C_15
REMARK   10  A    between atoms: C_14  and  O_16
REMARK                            x       y       z     vdW  Elec       q    Type
REMARK                         _______ _______ _______ _____ _____    ______ ____
ROOT
ATOM      1  N   UNL     1      20.897  10.180   4.498  0.00  0.00    +0.000 N 
ENDROOT
BRANCH   1   6
ATOM      2  C   UNL     1      18.782  15.449   5.546  0.00  0.00    +0.000 C 
ATOM      3  C   UNL     1      19.338  14.080   5.298  0.00  0.00    +0.000 A 
ATOM      4  C   UNL     1      20.652  13.908   4.877  0.00  0.00    +0.000 A 
ATOM      5  C   UNL     1      21.159  12.624   4.617  0.00  0.00    +0.000 A 
ATOM      6  C   UNL     1      20.380  11.459   4.740  0.00  0.00    +0.000 A 
ATOM      7  C   UNL     1      19.057  11.670   5.169  0.00  0.00    +0.000 A 
ATOM      8  C   UNL     1      18.538  12.949   5.435  0.00  0.00    +0.000 A 
ENDBRANCH   1   6
BRANCH   1   9
ATOM      9  C   UNL     1      20.828   9.595   3.138  0.00  0.00    +0.000 C 
BRANCH   9  10
ATOM     10  C   UNL     1      21.984  10.067   2.222  0.00  0.00    +0.000 C 
ATOM     11  C   UNL     1      22.554   8.902   1.421  0.00  0.00    +0.000 C 
BRANCH  10  12
ATOM     12  O   UNL     1      21.533  11.065   1.296  0.00  0.00    +0.000 OA
ATOM     13  H   UNL     1      21.145  11.795   1.806  0.00  0.00    +0.000 HD
ENDBRANCH  10  12
ENDBRANCH   9  10
ENDBRANCH   1   9
BRANCH   1  14
ATOM     14  C   UNL     1      21.047   9.191   5.596  0.00  0.00    +0.000 C 
BRANCH  14  15
ATOM     15  C   UNL     1      20.968   7.733   5.084  0.00  0.00    +0.000 C 
ATOM     16  C   UNL     1      22.218   6.919   5.397  0.00  0.00    +0.000 C 
BRANCH  15  17
ATOM     17  O   UNL     1      19.844   7.043   5.627  0.00  0.00    +0.000 OA
ATOM     18  H   UNL     1      19.063   7.500   5.255  0.00  0.00    +0.000 HD
ENDBRANCH  15  17
ENDBRANCH  14  15
ENDBRANCH   1  14
TORSDOF 7
ENDMDL
MODEL 4
REMARK VINA RESULT:    -3.352      8.934     10.901
REMARK INTER + INTRA:          -5.011
REMARK INTER:                  -4.692
REMARK INTRA:                  -0.318
REMARK UNBOUND:                -0.483
REMARK  Name = 
REMARK  10 active torsions:
REMARK  status: ('A' for Active; 'I' for Inactive)
REMARK    1  A    between atoms: C_1  and  C_2
REMARK    2  A    between atoms: C_5  and  N_8
REMARK    3  A    between atoms: N_8  and  C_9
REMARK    4  A    between atoms: N_8  and  C_13
REMARK    5  A    between atoms: C_9  and  C_10
REMARK    6  A    between atoms: C_10  and  C_11
REMARK    7  A    between atoms: C_10  and  O_12
REMARK    8  A    between atoms: C_13  and  C_14
REMARK    9  A    between atoms: C_14  and  C_15
REMARK   10  A    between atoms: C_14  and  O_16
REMARK                            x       y       z     vdW  Elec       q    Type
REMARK                         _______ _______ _______ _____ _____    ______ ____
ROOT
ATOM      1  N   UNL     1      19.977  15.603  -4.590  0.00  0.00    +0.000 N 
ENDROOT
BRANCH   1   6
ATOM      2  C   UNL     1      17.850  16.920   0.612  0.00  0.00    +0.000 C 
ATOM      3  C   UNL     1      18.416  16.599  -0.737  0.00  0.00    +0.000 A 
ATOM      4  C   UNL     1      17.801  17.056  -1.897  0.00  0.00    +0.000 A 
ATOM      5  C   UNL     1      18.319  16.726  -3.160  0.00  0.00    +0.000 A 
ATOM      6  C   UNL     1      19.454  15.911  -3.328  0.00  0.00    +0.000 A 
ATOM      7  C   UNL     1      20.051  15.469  -2.134  0.00  0.00    +0.000 A 
ATOM      8  C   UNL     1      19.544  15.793  -0.864  0.00  0.00    +0.000 A 
ENDBRANCH   1   6
BRANCH   1   9
ATOM      9  C   UNL     1      21.297  16.139  -5.000  0.00  0.00    +0.000 C 
BRANCH   9  10
ATOM     10  C   UNL     1      22.296  15.029  -5.408  0.00  0.00    +0.000 C 
ATOM     11  C   UNL     1      22.018  13.739  -4.645  0.00  0.00    +0.000 C 
BRANCH  10  12
ATOM     12  O   UNL     1      22.204  14.744  -6.810  0.00  0.00    +0.000 OA
ATOM     13  H   UNL     1      21.307  14.416  -6.993  0.00  0.00    +0.000 HD
ENDBRANCH  10  12
ENDBRANCH   9  10
ENDBRANCH   1   9
BRANCH   1  14
ATOM     14  C   UNL     1      19.090  15.202  -5.713  0.00  0.00    +0.000 C 
BRANCH  14  15
ATOM     15  C   UNL     1      18.789  16.382  -6.669  0.00  0.00    +0.000 C 
ATOM     16  C   UNL     1      18.891  16.002  -8.141  0.00  0.00    +0.000 C 
BRANCH  15  17
ATOM     17  O   UNL     1      17.489  16.925  -6.442  0.00  0.00    +0.000 OA
ATOM     18  H   UNL     1      17.648  17.842  -6.139  0.00  0.00    +0.000 HD
ENDBRANCH  15  17
ENDBRANCH  14  15
ENDBRANCH   1  14
TORSDOF 7
ENDMDL
MODEL 5
REMARK VINA RESULT:    -3.290      2.618      5.862
REMARK INTER + INTRA:          -4.928
REMARK INTER:                  -4.377
REMARK INTRA:                  -0.550
REMARK UNBOUND:                -0.483
REMARK  Name = 
REMARK  10 active torsions:
REMARK  status: ('A' for Active; 'I' for Inactive)
REMARK    1  A    between atoms: C_1  and  C_2
REMARK    2  A    between atoms: C_5  and  N_8
REMARK    3  A    between atoms: N_8  and  C_9
REMARK    4  A    between atoms: N_8  and  C_13
REMARK    5  A    between atoms: C_9  and  C_10
REMARK    6  A    between atoms: C_10  and  C_11
REMARK    7  A    between atoms: C_10  and  O_12
REMARK    8  A    between atoms: C_13  and  C_14
REMARK    9  A    between atoms: C_14  and  C_15
REMARK   10  A    between atoms: C_14  and  O_16
REMARK                            x       y       z     vdW  Elec       q    Type
REMARK                         _______ _______ _______ _____ _____    ______ ____
ROOT
ATOM      1  N   UNL     1      20.984  11.285   4.471  0.00  0.00    +0.000 N 
ENDROOT
BRANCH   1   6
ATOM      2  C   UNL     1      16.985   7.342   5.806  0.00  0.00    +0.000 C 
ATOM      3  C   UNL     1      18.021   8.359   5.436  0.00  0.00    +0.000 A 
ATOM      4  C   UNL     1      19.374   8.035   5.439  0.00  0.00    +0.000 A 
ATOM      5  C   UNL     1      20.342   9.001   5.120  0.00  0.00    +0.000 A 
ATOM      6  C   UNL     1      20.015  10.332   4.807  0.00  0.00    +0.000 A 
ATOM      7  C   UNL     1      18.638  10.623   4.811  0.00  0.00    +0.000 A 
ATOM      8  C   UNL     1      17.659   9.667   5.126  0.00  0.00    +0.000 A 
ENDBRANCH   1   6
BRANCH   1   9
ATOM      9  C   UNL     1      20.641  12.728   4.470  0.00  0.00    +0.000 C 
BRANCH   9  10
ATOM     10  C   UNL     1      21.890  13.643   4.452  0.00  0.00    +0.000 C 
ATOM     11  C   UNL     1      21.806  14.657   3.317  0.00  0.00    +0.000 C 
BRANCH  10  12
ATOM     12  O   UNL     1      22.017  14.365   5.685  0.00  0.00    +0.000 OA
ATOM     13  H   UNL     1      22.626  13.873   6.260  0.00  0.00    +0.000 HD
ENDBRANCH  10  12
ENDBRANCH   9  10
ENDBRANCH   1   9
BRANCH   1  14
ATOM     14  C   UNL     1      22.162  10.924   3.641  0.00  0.00    +0.000 C 
BRANCH  14  15
ATOM     15  C   UNL     1      21.812  10.836   2.136  0.00  0.00    +0.000 C 
ATOM     16  C   UNL     1      22.829  11.536   1.242  0.00  0.00    +0.000 C 
BRANCH  15  17
ATOM     17  O   UNL     1      21.697   9.483   1.700  0.00  0.00    +0.000 OA
ATOM     18  H   UNL     1      22.314   8.980   2.269  0.00  0.00    +0.000 HD
ENDBRANCH  15  17
ENDBRANCH  14  15
ENDBRANCH   1  14
TORSDOF 7
ENDMDL
MODEL 6
REMARK VINA RESULT:    -3.217      9.097     11.586
REMARK INTER + INTRA:          -4.829
REMARK INTER:                  -4.280
REMARK INTRA:                  -0.548
REMARK UNBOUND:                -0.483
REMARK  Name = 
REMARK  10 active torsions:
REMARK  status: ('A' for Active; 'I' for Inactive)
REMARK    1  A    between atoms: C_1  and  C_2
REMARK    2  A    between atoms: C_5  and  N_8
REMARK    3  A    between atoms: N_8  and  C_9
REMARK    4  A    between atoms: N_8  and  C_13
REMARK    5  A    between atoms: C_9  and  C_10
REMARK    6  A    between atoms: C_10  and  C_11
REMARK    7  A    between atoms: C_10  and  O_12
REMARK    8  A    between atoms: C_13  and  C_14
REMARK    9  A    between atoms: C_14  and  C_15
REMARK   10  A    between atoms: C_14  and  O_16
REMARK                            x       y       z     vdW  Elec       q    Type
REMARK                         _______ _______ _______ _____ _____    ______ ____
ROOT
ATOM      1  N   UNL     1      19.724  15.999  -4.948  0.00  0.00    +0.000 N 
ENDROOT
BRANCH   1   6
ATOM      2  C   UNL     1      18.092  16.672   0.549  0.00  0.00    +0.000 C 
ATOM      3  C   UNL     1      18.501  16.476  -0.879  0.00  0.00    +0.000 A 
ATOM      4  C   UNL     1      19.643  15.751  -1.202  0.00  0.00    +0.000 A 
ATOM      5  C   UNL     1      20.038  15.596  -2.541  0.00  0.00    +0.000 A 
ATOM      6  C   UNL     1      19.335  16.173  -3.614  0.00  0.00    +0.000 A 
ATOM      7  C   UNL     1      18.185  16.898  -3.250  0.00  0.00    +0.000 A 
ATOM      8  C   UNL     1      17.777  17.058  -1.916  0.00  0.00    +0.000 A 
ENDBRANCH   1   6
BRANCH   1   9
ATOM      9  C   UNL     1      18.988  16.692  -6.033  0.00  0.00    +0.000 C 
BRANCH   9  10
ATOM     10  C   UNL     1      19.070  15.943  -7.386  0.00  0.00    +0.000 C 
ATOM     11  C   UNL     1      17.707  15.895  -8.066  0.00  0.00    +0.000 C 
BRANCH  10  12
ATOM     12  O   UNL     1      19.988  16.591  -8.278  0.00  0.00    +0.000 OA
ATOM     13  H   UNL     1      19.500  16.850  -9.077  0.00  0.00    +0.000 HD
ENDBRANCH  10  12
ENDBRANCH   9  10
ENDBRANCH   1   9
BRANCH   1  14
ATOM     14  C   UNL     1      20.482  14.796  -5.377  0.00  0.00    +0.000 C 
BRANCH  14  15
ATOM     15  C   UNL     1      21.984  15.099  -5.594  0.00  0.00    +0.000 C 
ATOM     16  C   UNL     1      22.894  14.341  -4.636  0.00  0.00    +0.000 C 
BRANCH  15  17
ATOM     17  O   UNL     1      22.396  14.797  -6.927  0.00  0.00    +0.000 OA
ATOM     18  H   UNL     1      21.864  15.389  -7.496  0.00  0.00    +0.000 HD
ENDBRANCH  15  17
ENDBRANCH  14  15
ENDBRANCH   1  14
TORSDOF 7
ENDMDL
MODEL 7
REMARK VINA RESULT:    -3.205      8.192     10.437
REMARK INTER + INTRA:          -4.812
REMARK INTER:                  -4.152
REMARK INTRA:                  -0.660
REMARK UNBOUND:                -0.483
REMARK  Name = 
REMARK  10 active torsions:
REMARK  status: ('A' for Active; 'I' for Inactive)
REMARK    1  A    between atoms: C_1  and  C_2
REMARK    2  A    between atoms: C_5  and  N_8
REMARK    3  A    between atoms: N_8  and  C_9
REMARK    4  A    between atoms: N_8  and  C_13
REMARK    5  A    between atoms: C_9  and  C_10
REMARK    6  A    between atoms: C_10  and  C_11
REMARK    7  A    between atoms: C_10  and  O_12
REMARK    8  A    between atoms: C_13  and  C_14
REMARK    9  A    between atoms: C_14  and  C_15
REMARK   10  A    between atoms: C_14  and  O_16
REMARK                            x       y       z     vdW  Elec       q    Type
REMARK                         _______ _______ _______ _____ _____    ______ ____
ROOT
ATOM      1  N   UNL     1      20.543  16.149  -3.584  0.00  0.00    +0.000 N 
ENDROOT
BRANCH   1   6
ATOM      2  C   UNL     1      18.241  17.058  -8.800  0.00  0.00    +0.000 C 
ATOM      3  C   UNL     1      18.840  16.798  -7.452  0.00  0.00    +0.000 A 
ATOM      4  C   UNL     1      18.032  16.552  -6.347  0.00  0.00    +0.000 A 
ATOM      5  C   UNL     1      18.598  16.338  -5.079  0.00  0.00    +0.000 A 
ATOM      6  C   UNL     1      19.985  16.382  -4.847  0.00  0.00    +0.000 A 
ATOM      7  C   UNL     1      20.771  16.631  -5.987  0.00  0.00    +0.000 A 
ATOM      8  C   UNL     1      20.218  16.845  -7.261  0.00  0.00    +0.000 A 
ENDBRANCH   1   6
BRANCH   1   9
ATOM      9  C   UNL     1      21.880  15.518  -3.468  0.00  0.00    +0.000 C 
BRANCH   9  10
ATOM     10  C   UNL     1      21.837  13.981  -3.650  0.00  0.00    +0.000 C 
ATOM     11  C   UNL     1      22.653  13.553  -4.864  0.00  0.00    +0.000 C 
BRANCH  10  12
ATOM     12  O   UNL     1      22.368  13.311  -2.499  0.00  0.00    +0.000 OA
ATOM     13  H   UNL     1      21.756  13.454  -1.758  0.00  0.00    +0.000 HD
ENDBRANCH  10  12
ENDBRANCH   9  10
ENDBRANCH   1   9
BRANCH   1  14
ATOM     14  C   UNL     1      19.688  16.027  -2.376  0.00  0.00    +0.000 C 
BRANCH  14  15
ATOM     15  C   UNL     1      20.520  16.007  -1.071  0.00  0.00    +0.000 C 
ATOM     16  C   UNL     1      20.049  17.029  -0.044  0.00  0.00    +0.000 C 
BRANCH  15  17
ATOM     17  O   UNL     1      20.501  14.720  -0.454  0.00  0.00    +0.000 OA
ATOM     18  H   UNL     1      20.718  14.092  -1.173  0.00  0.00    +0.000 HD
ENDBRANCH  15  17
ENDBRANCH  14  15
ENDBRANCH   1  14
TORSDOF 7
ENDMDL
