MODEL 1
REMARK VINA RESULT:    -6.491      0.000      0.000
REMARK INTER + INTRA:          -8.968
REMARK INTER:                  -8.768
REMARK INTRA:                  -0.200
REMARK UNBOUND:                -0.200
REMARK  Name = 
REMARK  10 active torsions:
REMARK  status: ('A' for Active; 'I' for Inactive)
REMARK    1  A    between atoms: C_1  and  C_2
REMARK    2  A    between atoms: C_5  and  N_8
REMARK    3  A    between atoms: N_8  and  C_9
REMARK    4  A    between atoms: N_8  and  C_13
REMARK    5  A    between atoms: C_9  and  C_10
REMARK    6  A    between atoms: C_10  and  C_11
REMARK    7  A    between atoms: C_10  and  O_12
REMARK    8  A    between atoms: C_13  and  C_14
REMARK    9  A    between atoms: C_14  and  C_15
REMARK   10  A    between atoms: C_14  and  O_16
REMARK                            x       y       z     vdW  Elec       q    Type
REMARK                         _______ _______ _______ _____ _____    ______ ____
ROOT
ATOM      1  N   UNL     1       9.392   9.816   4.332  0.00  0.00    +0.000 N 
ENDROOT
BRANCH   1   6
ATOM      2  C   UNL     1       9.223  12.756   9.297  0.00  0.00    +0.000 C 
ATOM      3  C   UNL     1       9.266  11.972   8.021  0.00  0.00    +0.000 A 
ATOM      4  C   UNL     1      10.480  11.621   7.439  0.00  0.00    +0.000 A 
ATOM      5  C   UNL     1      10.514  10.912   6.227  0.00  0.00    +0.000 A 
ATOM      6  C   UNL     1       9.351  10.540   5.530  0.00  0.00    +0.000 A 
ATOM      7  C   UNL     1       8.142  10.909   6.148  0.00  0.00    +0.000 A 
ATOM      8  C   UNL     1       8.094  11.617   7.361  0.00  0.00    +0.000 A 
ENDBRANCH   1   6
BRANCH   1   9
ATOM      9  C   UNL     1       8.397   8.747   4.074  0.00  0.00    +0.000 C 
BRANCH   9  10
ATOM     10  C   UNL     1       8.786   7.839   2.882  0.00  0.00    +0.000 C 
ATOM     11  C   UNL     1       8.481   6.378   3.187  0.00  0.00    +0.000 C 
BRANCH  10  12
ATOM     12  O   UNL     1       8.064   8.206   1.698  0.00  0.00    +0.000 OA
ATOM     13  H   UNL     1       7.448   7.486   1.486  0.00  0.00    +0.000 HD
ENDBRANCH  10  12
ENDBRANCH   9  10
ENDBRANCH   1   9
BRANCH   1  14
ATOM     14  C   UNL     1      10.646   9.704   3.544  0.00  0.00    +0.000 C 
BRANCH  14  15
ATOM     15  C   UNL     1      10.581  10.509   2.224  0.00  0.00    +0.000 C 
ATOM     16  C   UNL     1       9.645  11.710   2.300  0.00  0.00    +0.000 C 
BRANCH  15  17
ATOM     17  O   UNL     1      11.869  10.978   1.828  0.00  0.00    +0.000 OA
ATOM     18  H   UNL     1      11.918  11.896   2.163  0.00  0.00    +0.000 HD
ENDBRANCH  15  17
ENDBRANCH  14  15
ENDBRANCH   1  14
TORSDOF 7
ENDMDL
MODEL 2
REMARK VINA RESULT:    -6.184      2.722      5.632
REMARK INTER + INTRA:          -8.553
REMARK INTER:                  -8.338
REMARK INTRA:                  -0.216
REMARK UNBOUND:                -0.200
REMARK  Name = 
REMARK  10 active torsions:
REMARK  status: ('A' for Active; 'I' for Inactive)
REMARK    1  A    between atoms: C_1  and  C_2
REMARK    2  A    between atoms: C_5  and  N_8
REMARK    3  A    between atoms: N_8  and  C_9
REMARK    4  A    between atoms: N_8  and  C_13
REMARK    5  A    between atoms: C_9  and  C_10
REMARK    6  A    between atoms: C_10  and  C_11
REMARK    7  A    between atoms: C_10  and  O_12
REMARK    8  A    between atoms: C_13  and  C_14
REMARK    9  A    between atoms: C_14  and  C_15
REMARK   10  A    between atoms: C_14  and  O_16
REMARK                            x       y       z     vdW  Elec       q    Type
REMARK                         _______ _______ _______ _____ _____    ______ ____
ROOT
ATOM      1  N   UNL     1       9.620  10.696   6.376  0.00  0.00    +0.000 N 
ENDROOT
BRANCH   1   6
ATOM      2  C   UNL     1       8.636   7.376   1.756  0.00  0.00    +0.000 C 
ATOM      3  C   UNL     1       8.907   8.221   2.964  0.00  0.00    +0.000 A 
ATOM      4  C   UNL     1       8.109   8.121   4.099  0.00  0.00    +0.000 A 
ATOM      5  C   UNL     1       8.350   8.936   5.217  0.00  0.00    +0.000 A 
ATOM      6  C   UNL     1       9.374   9.900   5.250  0.00  0.00    +0.000 A 
ATOM      7  C   UNL     1      10.162   9.971   4.087  0.00  0.00    +0.000 A 
ATOM      8  C   UNL     1       9.934   9.161   2.963  0.00  0.00    +0.000 A 
ENDBRANCH   1   6
BRANCH   1   9
ATOM      9  C   UNL     1       8.515  11.462   7.001  0.00  0.00    +0.000 C 
BRANCH   9  10
ATOM     10  C   UNL     1       7.631  10.593   7.928  0.00  0.00    +0.000 C 
ATOM     11  C   UNL     1       7.873  10.938   9.393  0.00  0.00    +0.000 C 
BRANCH  10  12
ATOM     12  O   UNL     1       6.239  10.793   7.648  0.00  0.00    +0.000 OA
ATOM     13  H   UNL     1       6.162  11.522   7.010  0.00  0.00    +0.000 HD
ENDBRANCH  10  12
ENDBRANCH   9  10
ENDBRANCH   1   9
BRANCH   1  14
ATOM     14  C   UNL     1      10.982  11.212   6.670  0.00  0.00    +0.000 C 
BRANCH  14  15
ATOM     15  C   UNL     1      11.105  11.742   8.119  0.00  0.00    +0.000 C 
ATOM     16  C   UNL     1      11.710  10.726   9.080  0.00  0.00    +0.000 C 
BRANCH  15  17
ATOM     17  O   UNL     1      11.892  12.931   8.179  0.00  0.00    +0.000 OA
ATOM     18  H   UNL     1      11.382  13.543   8.747  0.00  0.00    +0.000 HD
ENDBRANCH  15  17
ENDBRANCH  14  15
ENDBRANCH   1  14
TORSDOF 7
ENDMDL
MODEL 3
REMARK VINA RESULT:    -6.151      0.377      3.226
REMARK INTER + INTRA:          -8.509
REMARK INTER:                  -8.518
REMARK INTRA:                   0.008
REMARK UNBOUND:                -0.200
REMARK  Name = 
REMARK  10 active torsions:
REMARK  status: ('A' for Active; 'I' for Inactive)
REMARK    1  A    between atoms: C_1  and  C_2
REMARK    2  A    between atoms: C_5  and  N_8
REMARK    3  A    between atoms: N_8  and  C_9
REMARK    4  A    between atoms: N_8  and  C_13
REMARK    5  A    between atoms: C_9  and  C_10
REMARK    6  A    between atoms: C_10  and  C_11
REMARK    7  A    between atoms: C_10  and  O_12
REMARK    8  A    between atoms: C_13  and  C_14
REMARK    9  A    between atoms: C_14  and  C_15
REMARK   10  A    between atoms: C_14  and  O_16
REMARK                            x       y       z     vdW  Elec       q    Type
REMARK                         _______ _______ _______ _____ _____    ______ ____
ROOT
ATOM      1  N   UNL     1       9.491   9.479   4.317  0.00  0.00    +0.000 N 
ENDROOT
BRANCH   1   6
ATOM      2  C   UNL     1       8.833  12.469   9.211  0.00  0.00    +0.000 C 
ATOM      3  C   UNL     1       9.000  11.714   7.928  0.00  0.00    +0.000 A 
ATOM      4  C   UNL     1       7.915  11.091   7.320  0.00  0.00    +0.000 A 
ATOM      5  C   UNL     1       8.083  10.359   6.133  0.00  0.00    +0.000 A 
ATOM      6  C   UNL     1       9.334  10.194   5.511  0.00  0.00    +0.000 A 
ATOM      7  C   UNL     1      10.407  10.839   6.152  0.00  0.00    +0.000 A 
ATOM      8  C   UNL     1      10.253  11.576   7.338  0.00  0.00    +0.000 A 
ENDBRANCH   1   6
BRANCH   1   9
ATOM      9  C   UNL     1      10.679   9.712   3.461  0.00  0.00    +0.000 C 
BRANCH   9  10
ATOM     10  C   UNL     1      10.370  10.604   2.234  0.00  0.00    +0.000 C 
ATOM     11  C   UNL     1       9.510  11.799   2.631  0.00  0.00    +0.000 C 
BRANCH  10  12
ATOM     12  O   UNL     1      11.578  11.103   1.643  0.00  0.00    +0.000 OA
ATOM     13  H   UNL     1      12.284  10.458   1.811  0.00  0.00    +0.000 HD
ENDBRANCH  10  12
ENDBRANCH   9  10
ENDBRANCH   1   9
BRANCH   1  14
ATOM     14  C   UNL     1       8.322   8.890   3.614  0.00  0.00    +0.000 C 
BRANCH  14  15
ATOM     15  C   UNL     1       8.724   7.699   2.711  0.00  0.00    +0.000 C 
ATOM     16  C   UNL     1       8.466   6.343   3.357  0.00  0.00    +0.000 C 
BRANCH  15  17
ATOM     17  O   UNL     1       8.036   7.730   1.461  0.00  0.00    +0.000 OA
ATOM     18  H   UNL     1       8.663   7.342   0.818  0.00  0.00    +0.000 HD
ENDBRANCH  15  17
ENDBRANCH  14  15
ENDBRANCH   1  14
TORSDOF 7
ENDMDL
MODEL 4
REMARK VINA RESULT:    -6.141      2.737      6.134
REMARK INTER + INTRA:          -8.495
REMARK INTER:                  -8.691
REMARK INTRA:                   0.196
REMARK UNBOUND:                -0.200
REMARK  Name = 
REMARK  10 active torsions:
REMARK  status: ('A' for Active; 'I' for Inactive)
REMARK    1  A    between atoms: C_1  and  C_2
REMARK    2  A    between atoms: C_5  and  N_8
REMARK    3  A    between atoms: N_8  and  C_9
REMARK    4  A    between atoms: N_8  and  C_13
REMARK    5  A    between atoms: C_9  and  C_10
REMARK    6  A    between atoms: C_10  and  C_11
REMARK    7  A    between atoms: C_10  and  O_12
REMARK    8  A    between atoms: C_13  and  C_14
REMARK    9  A    between atoms: C_14  and  C_15
REMARK   10  A    between atoms: C_14  and  O_16
REMARK                            x       y       z     vdW  Elec       q    Type
REMARK                         _______ _______ _______ _____ _____    ______ ____
ROOT
ATOM      1  N   UNL     1       9.669  11.078   6.403  0.00  0.00    +0.000 N 
ENDROOT
BRANCH   1   6
ATOM      2  C   UNL     1       8.782   7.492   1.966  0.00  0.00    +0.000 C 
ATOM      3  C   UNL     1       9.027   8.406   3.128  0.00  0.00    +0.000 A 
ATOM      4  C   UNL     1       8.201   8.378   4.246  0.00  0.00    +0.000 A 
ATOM      5  C   UNL     1       8.418   9.258   5.319  0.00  0.00    +0.000 A 
ATOM      6  C   UNL     1       9.446  10.217   5.321  0.00  0.00    +0.000 A 
ATOM      7  C   UNL     1      10.264  10.215   4.176  0.00  0.00    +0.000 A 
ATOM      8  C   UNL     1      10.059   9.339   3.096  0.00  0.00    +0.000 A 
ENDBRANCH   1   6
BRANCH   1   9
ATOM      9  C   UNL     1      10.984  11.087   7.087  0.00  0.00    +0.000 C 
BRANCH   9  10
ATOM     10  C   UNL     1      11.004  12.001   8.337  0.00  0.00    +0.000 C 
ATOM     11  C   UNL     1      11.458  11.229   9.570  0.00  0.00    +0.000 C 
BRANCH  10  12
ATOM     12  O   UNL     1      11.899  13.107   8.151  0.00  0.00    +0.000 OA
ATOM     13  H   UNL     1      11.394  13.927   8.279  0.00  0.00    +0.000 HD
ENDBRANCH  10  12
ENDBRANCH   9  10
ENDBRANCH   1   9
BRANCH   1  14
ATOM     14  C   UNL     1       8.540  11.602   7.213  0.00  0.00    +0.000 C 
BRANCH  14  15
ATOM     15  C   UNL     1       7.658  10.469   7.790  0.00  0.00    +0.000 C 
ATOM     16  C   UNL     1       8.029  10.089   9.219  0.00  0.00    +0.000 C 
BRANCH  15  17
ATOM     17  O   UNL     1       6.274  10.815   7.770  0.00  0.00    +0.000 OA
ATOM     18  H   UNL     1       5.874  10.299   8.499  0.00  0.00    +0.000 HD
ENDBRANCH  15  17
ENDBRANCH  14  15
ENDBRANCH   1  14
TORSDOF 7
ENDMDL
MODEL 5
REMARK VINA RESULT:    -4.955     12.314     13.482
REMARK INTER + INTRA:          -6.893
REMARK INTER:                  -6.455
REMARK INTRA:                  -0.438
REMARK UNBOUND:                -0.200
REMARK  Name = 
REMARK  10 active torsions:
REMARK  status: ('A' for Active; 'I' for Inactive)
REMARK    1  A    between atoms: C_1  and  C_2
REMARK    2  A    between atoms: C_5  and  N_8
REMARK    3  A    between atoms: N_8  and  C_9
REMARK    4  A    between atoms: N_8  and  C_13
REMARK    5  A    between atoms: C_9  and  C_10
REMARK    6  A    between atoms: C_10  and  C_11
REMARK    7  A    between atoms: C_10  and  O_12
REMARK    8  A    between atoms: C_13  and  C_14
REMARK    9  A    between atoms: C_14  and  C_15
REMARK   10  A    between atoms: C_14  and  O_16
REMARK                            x       y       z     vdW  Elec       q    Type
REMARK                         _______ _______ _______ _____ _____    ______ ____
ROOT
ATOM      1  N   UNL     1      20.350  14.342   0.741  0.00  0.00    +0.000 N 
ENDROOT
BRANCH   1   6
ATOM      2  C   UNL     1      23.322  14.992   5.647  0.00  0.00    +0.000 C 
ATOM      3  C   UNL     1      22.550  14.848   4.371  0.00  0.00    +0.000 A 
ATOM      4  C   UNL     1      21.161  14.766   4.382  0.00  0.00    +0.000 A 
ATOM      5  C   UNL     1      20.445  14.601   3.186  0.00  0.00    +0.000 A 
ATOM      6  C   UNL     1      21.072  14.487   1.932  0.00  0.00    +0.000 A 
ATOM      7  C   UNL     1      22.476  14.576   1.959  0.00  0.00    +0.000 A 
ATOM      8  C   UNL     1      23.205  14.744   3.148  0.00  0.00    +0.000 A 
ENDBRANCH   1   6
BRANCH   1   9
ATOM      9  C   UNL     1      20.896  13.518  -0.364  0.00  0.00    +0.000 C 
BRANCH   9  10
ATOM     10  C   UNL     1      21.602  14.365  -1.451  0.00  0.00    +0.000 C 
ATOM     11  C   UNL     1      23.004  13.834  -1.730  0.00  0.00    +0.000 C 
BRANCH  10  12
ATOM     12  O   UNL     1      20.865  14.341  -2.682  0.00  0.00    +0.000 OA
ATOM     13  H   UNL     1      21.439  13.964  -3.369  0.00  0.00    +0.000 HD
ENDBRANCH  10  12
ENDBRANCH   9  10
ENDBRANCH   1   9
BRANCH   1  14
ATOM     14  C   UNL     1      19.337  15.348   0.328  0.00  0.00    +0.000 C 
BRANCH  14  15
ATOM     15  C   UNL     1      19.901  16.789   0.356  0.00  0.00    +0.000 C 
ATOM     16  C   UNL     1      19.604  17.573  -0.917  0.00  0.00    +0.000 C 
BRANCH  15  17
ATOM     17  O   UNL     1      19.391  17.533   1.462  0.00  0.00    +0.000 OA
ATOM     18  H   UNL     1      18.441  17.303   1.505  0.00  0.00    +0.000 HD
ENDBRANCH  15  17
ENDBRANCH  14  15
ENDBRANCH   1  14
TORSDOF 7
ENDMDL
MODEL 6
REMARK VINA RESULT:    -4.947     12.322     13.448
REMARK INTER + INTRA:          -6.882
REMARK INTER:                  -6.436
REMARK INTRA:                  -0.446
REMARK UNBOUND:                -0.200
REMARK  Name = 
REMARK  10 active torsions:
REMARK  status: ('A' for Active; 'I' for Inactive)
REMARK    1  A    between atoms: C_1  and  C_2
REMARK    2  A    between atoms: C_5  and  N_8
REMARK    3  A    between atoms: N_8  and  C_9
REMARK    4  A    between atoms: N_8  and  C_13
REMARK    5  A    between atoms: C_9  and  C_10
REMARK    6  A    between atoms: C_10  and  C_11
REMARK    7  A    between atoms: C_10  and  O_12
REMARK    8  A    between atoms: C_13  and  C_14
REMARK    9  A    between atoms: C_14  and  C_15
REMARK   10  A    between atoms: C_14  and  O_16
REMARK                            x       y       z     vdW  Elec       q    Type
REMARK                         _______ _______ _______ _____ _____    ______ ____
ROOT
ATOM      1  N   UNL     1      20.355  14.367   0.739  0.00  0.00    +0.000 N 
ENDROOT
BRANCH   1   6
ATOM      2  C   UNL     1      23.356  15.024   5.627  0.00  0.00    +0.000 C 
ATOM      3  C   UNL     1      22.579  14.829   4.361  0.00  0.00    +0.000 A 
ATOM      4  C   UNL     1      23.223  14.751   3.132  0.00  0.00    +0.000 A 
ATOM      5  C   UNL     1      22.487  14.598   1.945  0.00  0.00    +0.000 A 
ATOM      6  C   UNL     1      21.082  14.539   1.924  0.00  0.00    +0.000 A 
ATOM      7  C   UNL     1      20.464  14.619   3.185  0.00  0.00    +0.000 A 
ATOM      8  C   UNL     1      21.188  14.770   4.379  0.00  0.00    +0.000 A 
ENDBRANCH   1   6
BRANCH   1   9
ATOM      9  C   UNL     1      20.904  13.531  -0.355  0.00  0.00    +0.000 C 
BRANCH   9  10
ATOM     10  C   UNL     1      21.606  14.365  -1.455  0.00  0.00    +0.000 C 
ATOM     11  C   UNL     1      23.005  13.831  -1.735  0.00  0.00    +0.000 C 
BRANCH  10  12
ATOM     12  O   UNL     1      20.862  14.330  -2.681  0.00  0.00    +0.000 OA
ATOM     13  H   UNL     1      21.462  14.579  -3.404  0.00  0.00    +0.000 HD
ENDBRANCH  10  12
ENDBRANCH   9  10
ENDBRANCH   1   9
BRANCH   1  14
ATOM     14  C   UNL     1      19.331  15.356   0.315  0.00  0.00    +0.000 C 
BRANCH  14  15
ATOM     15  C   UNL     1      19.869  16.806   0.349  0.00  0.00    +0.000 C 
ATOM     16  C   UNL     1      19.560  17.590  -0.922  0.00  0.00    +0.000 C 
BRANCH  15  17
ATOM     17  O   UNL     1      19.347  17.537   1.457  0.00  0.00    +0.000 OA
ATOM     18  H   UNL     1      20.091  18.091   1.768  0.00  0.00    +0.000 HD
ENDBRANCH  15  17
ENDBRANCH  14  15
ENDBRANCH   1  14
TORSDOF 7
ENDMDL
MODEL 7
REMARK VINA RESULT:    -4.770     12.621     13.681
REMARK INTER + INTRA:          -6.643
REMARK INTER:                  -6.090
REMARK INTRA:                  -0.553
REMARK UNBOUND:                -0.200
REMARK  Name = 
REMARK  10 active torsions:
REMARK  status: ('A' for Active; 'I' for Inactive)
REMARK    1  A    between atoms: C_1  and  C_2
REMARK    2  A    between atoms: C_5  and  N_8
REMARK    3  A    between atoms: N_8  and  C_9
REMARK    4  A    between atoms: N_8  and  C_13
REMARK    5  A    between atoms: C_9  and  C_10
REMARK    6  A    between atoms: C_10  and  C_11
REMARK    7  A    between atoms: C_10  and  O_12
REMARK    8  A    between atoms: C_13  and  C_14
REMARK    9  A    between atoms: C_14  and  C_15
REMARK   10  A    between atoms: C_14  and  O_16
REMARK                            x       y       z     vdW  Elec       q    Type
REMARK                         _______ _______ _______ _____ _____    ______ ____
ROOT
ATOM      1  N   UNL     1      20.854  14.910   0.681  0.00  0.00    +0.000 N 
ENDROOT
BRANCH   1   6
ATOM      2  C   UNL     1      23.003  14.950   6.039  0.00  0.00    +0.000 C 
ATOM      3  C   UNL     1      22.440  14.915   4.652  0.00  0.00    +0.000 A 
ATOM      4  C   UNL     1      23.250  14.629   3.558  0.00  0.00    +0.000 A 
ATOM      5  C   UNL     1      22.723  14.627   2.257  0.00  0.00    +0.000 A 
ATOM      6  C   UNL     1      21.378  14.932   1.980  0.00  0.00    +0.000 A 
ATOM      7  C   UNL     1      20.587  15.215   3.109  0.00  0.00    +0.000 A 
ATOM      8  C   UNL     1      21.102  15.218   4.416  0.00  0.00    +0.000 A 
ENDBRANCH   1   6
BRANCH   1   9
ATOM      9  C   UNL     1      19.598  15.636   0.373  0.00  0.00    +0.000 C 
BRANCH   9  10
ATOM     10  C   UNL     1      19.842  17.112  -0.028  0.00  0.00    +0.000 C 
ATOM     11  C   UNL     1      19.694  17.298  -1.534  0.00  0.00    +0.000 C 
BRANCH  10  12
ATOM     12  O   UNL     1      18.905  17.983   0.621  0.00  0.00    +0.000 OA
ATOM     13  H   UNL     1      18.322  17.439   1.176  0.00  0.00    +0.000 HD
ENDBRANCH  10  12
ENDBRANCH   9  10
ENDBRANCH   1   9
BRANCH   1  14
ATOM     14  C   UNL     1      21.190  13.815  -0.265  0.00  0.00    +0.000 C 
BRANCH  14  15
ATOM     15  C   UNL     1      21.969  14.328  -1.499  0.00  0.00    +0.000 C 
ATOM     16  C   UNL     1      23.280  13.586  -1.732  0.00  0.00    +0.000 C 
BRANCH  15  17
ATOM     17  O   UNL     1      21.191  14.234  -2.691  0.00  0.00    +0.000 OA
ATOM     18  H   UNL     1      20.681  15.068  -2.727  0.00  0.00    +0.000 HD
ENDBRANCH  15  17
ENDBRANCH  14  15
ENDBRANCH   1  14
TORSDOF 7
ENDMDL
MODEL 8
REMARK VINA RESULT:    -4.724     12.520     13.972
REMARK INTER + INTRA:          -6.582
REMARK INTER:                  -6.260
REMARK INTRA:                  -0.321
REMARK UNBOUND:                -0.200
REMARK  Name = 
REMARK  10 active torsions:
REMARK  status: ('A' for Active; 'I' for Inactive)
REMARK    1  A    between atoms: C_1  and  C_2
REMARK    2  A    between atoms: C_5  and  N_8
REMARK    3  A    between atoms: N_8  and  C_9
REMARK    4  A    between atoms: N_8  and  C_13
REMARK    5  A    between atoms: C_9  and  C_10
REMARK    6  A    between atoms: C_10  and  C_11
REMARK    7  A    between atoms: C_10  and  O_12
REMARK    8  A    between atoms: C_13  and  C_14
REMARK    9  A    between atoms: C_14  and  C_15
REMARK   10  A    between atoms: C_14  and  O_16
REMARK                            x       y       z     vdW  Elec       q    Type
REMARK                         _______ _______ _______ _____ _____    ______ ____
ROOT
ATOM      1  N   UNL     1      20.971  15.100  -0.068  0.00  0.00    +0.000 N 
ENDROOT
BRANCH   1   6
ATOM      2  C   UNL     1      22.237  15.038   5.564  0.00  0.00    +0.000 C 
ATOM      3  C   UNL     1      21.899  15.077   4.105  0.00  0.00    +0.000 A 
ATOM      4  C   UNL     1      20.678  14.599   3.642  0.00  0.00    +0.000 A 
ATOM      5  C   UNL     1      20.379  14.610   2.269  0.00  0.00    +0.000 A 
ATOM      6  C   UNL     1      21.284  15.073   1.297  0.00  0.00    +0.000 A 
ATOM      7  C   UNL     1      22.507  15.551   1.802  0.00  0.00    +0.000 A 
ATOM      8  C   UNL     1      22.818  15.547   3.172  0.00  0.00    +0.000 A 
ENDBRANCH   1   6
BRANCH   1   9
ATOM      9  C   UNL     1      19.764  15.820  -0.540  0.00  0.00    +0.000 C 
BRANCH   9  10
ATOM     10  C   UNL     1      19.938  17.359  -0.523  0.00  0.00    +0.000 C 
ATOM     11  C   UNL     1      19.809  17.938  -1.927  0.00  0.00    +0.000 C 
BRANCH  10  12
ATOM     12  O   UNL     1      18.947  17.980   0.306  0.00  0.00    +0.000 OA
ATOM     13  H   UNL     1      18.103  17.520   0.163  0.00  0.00    +0.000 HD
ENDBRANCH  10  12
ENDBRANCH   9  10
ENDBRANCH   1   9
BRANCH   1  14
ATOM     14  C   UNL     1      21.475  14.052  -0.993  0.00  0.00    +0.000 C 
BRANCH  14  15
ATOM     15  C   UNL     1      23.008  14.130  -1.185  0.00  0.00    +0.000 C 
ATOM     16  C   UNL     1      23.749  12.942  -0.584  0.00  0.00    +0.000 C 
BRANCH  15  17
ATOM     17  O   UNL     1      23.363  14.221  -2.564  0.00  0.00    +0.000 OA
ATOM     18  H   UNL     1      23.444  13.294  -2.866  0.00  0.00    +0.000 HD
ENDBRANCH  15  17
ENDBRANCH  14  15
ENDBRANCH   1  14
TORSDOF 7
ENDMDL
