MODEL 1
REMARK VINA RESULT:    -3.175      0.000      0.000
REMARK INTER + INTRA:          -3.503
REMARK INTER:                  -3.453
REMARK INTRA:                  -0.050
REMARK UNBOUND:                -0.050
REMARK  Name = 
REMARK  3 active torsions:
REMARK  status: ('A' for Active; 'I' for Inactive)
REMARK    1  A    between atoms: C_1  and  O_2
REMARK    2  A    between atoms: O_2  and  C_3
REMARK    3  A    between atoms: C_8  and  O_9
REMARK                            x       y       z     vdW  Elec       q    Type
REMARK                         _______ _______ _______ _____ _____    ______ ____
ROOT
ATOM      1  C   UNL     1      19.682  18.934  -6.369  0.00  0.00    +0.000 A 
ATOM      2  C   UNL     1      20.872  19.484  -6.845  0.00  0.00    +0.000 A 
ATOM      3  C   UNL     1      20.875  20.769  -7.402  0.00  0.00    +0.000 A 
ATOM      4  C   UNL     1      19.693  21.507  -7.487  0.00  0.00    +0.000 A 
ATOM      5  C   UNL     1      18.500  20.965  -7.013  0.00  0.00    +0.000 A 
ATOM      6  C   UNL     1      18.506  19.689  -6.462  0.00  0.00    +0.000 A 
ENDROOT
BRANCH   1   8
ATOM      7  C   UNL     1      20.031  16.591  -6.549  0.00  0.00    +0.000 C 
ATOM      8  O   UNL     1      19.531  17.694  -5.803  0.00  0.00    +0.000 OA
ENDBRANCH   1   8
BRANCH   6   9
ATOM      9  O   UNL     1      17.322  19.177  -6.004  0.00  0.00    +0.000 OA
ATOM     10  H   UNL     1      17.336  18.239  -6.273  0.00  0.00    +0.000 HD
ENDBRANCH   6   9
TORSDOF 2
ENDMDL
MODEL 2
REMARK VINA RESULT:    -3.043     21.665     22.575
REMARK INTER + INTRA:          -3.360
REMARK INTER:                  -3.314
REMARK INTRA:                  -0.046
REMARK UNBOUND:                -0.050
REMARK  Name = 
REMARK  3 active torsions:
REMARK  status: ('A' for Active; 'I' for Inactive)
REMARK    1  A    between atoms: C_1  and  O_2
REMARK    2  A    between atoms: O_2  and  C_3
REMARK    3  A    between atoms: C_8  and  O_9
REMARK                            x       y       z     vdW  Elec       q    Type
REMARK                         _______ _______ _______ _____ _____    ______ ____
ROOT
ATOM      1  C   UNL     1       5.162  12.266   9.981  0.00  0.00    +0.000 A 
ATOM      2  C   UNL     1       6.334  12.667  10.620  0.00  0.00    +0.000 A 
ATOM      3  C   UNL     1       7.442  13.065   9.863  0.00  0.00    +0.000 A 
ATOM      4  C   UNL     1       7.384  13.064   8.468  0.00  0.00    +0.000 A 
ATOM      5  C   UNL     1       6.216  12.665   7.822  0.00  0.00    +0.000 A 
ATOM      6  C   UNL     1       5.122  12.271   8.581  0.00  0.00    +0.000 A 
ENDROOT
BRANCH   1   8
ATOM      7  C   UNL     1       4.153  10.972  11.700  0.00  0.00    +0.000 C 
ATOM      8  O   UNL     1       4.005  11.852  10.593  0.00  0.00    +0.000 OA
ENDBRANCH   1   8
BRANCH   6   9
ATOM      9  O   UNL     1       3.985  11.883   7.924  0.00  0.00    +0.000 OA
ATOM     10  H   UNL     1       3.960  10.912   8.023  0.00  0.00    +0.000 HD
ENDBRANCH   6   9
TORSDOF 2
ENDMDL
MODEL 3
REMARK VINA RESULT:    -2.994     20.490     21.473
REMARK INTER + INTRA:          -3.306
REMARK INTER:                  -3.258
REMARK INTRA:                  -0.048
REMARK UNBOUND:                -0.050
REMARK  Name = 
REMARK  3 active torsions:
REMARK  status: ('A' for Active; 'I' for Inactive)
REMARK    1  A    between atoms: C_1  and  O_2
REMARK    2  A    between atoms: O_2  and  C_3
REMARK    3  A    between atoms: C_8  and  O_9
REMARK                            x       y       z     vdW  Elec       q    Type
REMARK                         _______ _______ _______ _____ _____    ______ ____
ROOT
ATOM      1  C   UNL     1       6.511  12.689   8.044  0.00  0.00    +0.000 A 
ATOM      2  C   UNL     1       7.422  13.128   9.004  0.00  0.00    +0.000 A 
ATOM      3  C   UNL     1       7.101  13.038  10.365  0.00  0.00    +0.000 A 
ATOM      4  C   UNL     1       5.873  12.512  10.769  0.00  0.00    +0.000 A 
ATOM      5  C   UNL     1       4.958  12.071   9.816  0.00  0.00    +0.000 A 
ATOM      6  C   UNL     1       5.284  12.164   8.469  0.00  0.00    +0.000 A 
ENDROOT
BRANCH   1   8
ATOM      7  C   UNL     1       7.137  13.948   6.128  0.00  0.00    +0.000 C 
ATOM      8  O   UNL     1       6.690  12.717   6.684  0.00  0.00    +0.000 OA
ENDBRANCH   1   8
BRANCH   6   9
ATOM      9  O   UNL     1       4.369  11.725   7.550  0.00  0.00    +0.000 OA
ATOM     10  H   UNL     1       4.902  11.446   6.782  0.00  0.00    +0.000 HD
ENDBRANCH   6   9
TORSDOF 2
ENDMDL
MODEL 4
REMARK VINA RESULT:    -2.981     16.204     17.478
REMARK INTER + INTRA:          -3.293
REMARK INTER:                  -3.246
REMARK INTRA:                  -0.047
REMARK UNBOUND:                -0.050
REMARK  Name = 
REMARK  3 active torsions:
REMARK  status: ('A' for Active; 'I' for Inactive)
REMARK    1  A    between atoms: C_1  and  O_2
REMARK    2  A    between atoms: O_2  and  C_3
REMARK    3  A    between atoms: C_8  and  O_9
REMARK                            x       y       z     vdW  Elec       q    Type
REMARK                         _______ _______ _______ _____ _____    ______ ____
ROOT
ATOM      1  C   UNL     1       3.133  16.783  -0.140  0.00  0.00    +0.000 A 
ATOM      2  C   UNL     1       3.800  17.942  -0.532  0.00  0.00    +0.000 A 
ATOM      3  C   UNL     1       5.189  18.036  -0.377  0.00  0.00    +0.000 A 
ATOM      4  C   UNL     1       5.914  16.976   0.169  0.00  0.00    +0.000 A 
ATOM      5  C   UNL     1       5.254  15.814   0.563  0.00  0.00    +0.000 A 
ATOM      6  C   UNL     1       3.877  15.729   0.406  0.00  0.00    +0.000 A 
ENDROOT
BRANCH   1   8
ATOM      7  C   UNL     1       1.266  16.319  -1.535  0.00  0.00    +0.000 C 
ATOM      8  O   UNL     1       1.783  16.553  -0.231  0.00  0.00    +0.000 OA
ENDBRANCH   1   8
BRANCH   6   9
ATOM      9  O   UNL     1       3.251  14.577   0.801  0.00  0.00    +0.000 OA
ATOM     10  H   UNL     1       2.940  14.166  -0.028  0.00  0.00    +0.000 HD
ENDBRANCH   6   9
TORSDOF 2
ENDMDL
MODEL 5
REMARK VINA RESULT:    -2.927     17.813     18.793
REMARK INTER + INTRA:          -3.233
REMARK INTER:                  -3.187
REMARK INTRA:                  -0.046
REMARK UNBOUND:                -0.050
REMARK  Name = 
REMARK  3 active torsions:
REMARK  status: ('A' for Active; 'I' for Inactive)
REMARK    1  A    between atoms: C_1  and  O_2
REMARK    2  A    between atoms: O_2  and  C_3
REMARK    3  A    between atoms: C_8  and  O_9
REMARK                            x       y       z     vdW  Elec       q    Type
REMARK                         _______ _______ _______ _____ _____    ______ ____
ROOT
ATOM      1  C   UNL     1       6.831  14.000   6.677  0.00  0.00    +0.000 A 
ATOM      2  C   UNL     1       6.298  15.252   6.982  0.00  0.00    +0.000 A 
ATOM      3  C   UNL     1       6.032  16.168   5.956  0.00  0.00    +0.000 A 
ATOM      4  C   UNL     1       6.299  15.838   4.626  0.00  0.00    +0.000 A 
ATOM      5  C   UNL     1       6.831  14.589   4.314  0.00  0.00    +0.000 A 
ATOM      6  C   UNL     1       7.092  13.687   5.337  0.00  0.00    +0.000 A 
ENDROOT
BRANCH   1   8
ATOM      7  C   UNL     1       7.814  13.415   8.760  0.00  0.00    +0.000 C 
ATOM      8  O   UNL     1       7.140  13.010   7.575  0.00  0.00    +0.000 OA
ENDBRANCH   1   8
BRANCH   6   9
ATOM      9  O   UNL     1       7.615  12.466   5.006  0.00  0.00    +0.000 OA
ATOM     10  H   UNL     1       8.469  12.670   4.578  0.00  0.00    +0.000 HD
ENDBRANCH   6   9
TORSDOF 2
ENDMDL
MODEL 6
REMARK VINA RESULT:    -2.924     16.379     17.712
REMARK INTER + INTRA:          -3.230
REMARK INTER:                  -3.179
REMARK INTRA:                  -0.051
REMARK UNBOUND:                -0.050
REMARK  Name = 
REMARK  3 active torsions:
REMARK  status: ('A' for Active; 'I' for Inactive)
REMARK    1  A    between atoms: C_1  and  O_2
REMARK    2  A    between atoms: O_2  and  C_3
REMARK    3  A    between atoms: C_8  and  O_9
REMARK                            x       y       z     vdW  Elec       q    Type
REMARK                         _______ _______ _______ _____ _____    ______ ____
ROOT
ATOM      1  C   UNL     1       3.837  17.109  -0.023  0.00  0.00    +0.000 A 
ATOM      2  C   UNL     1       2.872  17.588  -0.908  0.00  0.00    +0.000 A 
ATOM      3  C   UNL     1       1.796  16.772  -1.279  0.00  0.00    +0.000 A 
ATOM      4  C   UNL     1       1.680  15.478  -0.769  0.00  0.00    +0.000 A 
ATOM      5  C   UNL     1       2.640  14.992   0.117  0.00  0.00    +0.000 A 
ATOM      6  C   UNL     1       3.704  15.808   0.479  0.00  0.00    +0.000 A 
ENDROOT
BRANCH   1   8
ATOM      7  C   UNL     1       5.831  18.279  -0.571  0.00  0.00    +0.000 C 
ATOM      8  O   UNL     1       4.938  17.794   0.425  0.00  0.00    +0.000 OA
ENDBRANCH   1   8
BRANCH   6   9
ATOM      9  O   UNL     1       4.634  15.309   1.350  0.00  0.00    +0.000 OA
ATOM     10  H   UNL     1       4.205  14.530   1.753  0.00  0.00    +0.000 HD
ENDBRANCH   6   9
TORSDOF 2
ENDMDL
MODEL 7
REMARK VINA RESULT:    -2.814     15.564     16.600
REMARK INTER + INTRA:          -3.111
REMARK INTER:                  -3.070
REMARK INTRA:                  -0.041
REMARK UNBOUND:                -0.050
REMARK  Name = 
REMARK  3 active torsions:
REMARK  status: ('A' for Active; 'I' for Inactive)
REMARK    1  A    between atoms: C_1  and  O_2
REMARK    2  A    between atoms: O_2  and  C_3
REMARK    3  A    between atoms: C_8  and  O_9
REMARK                            x       y       z     vdW  Elec       q    Type
REMARK                         _______ _______ _______ _____ _____    ______ ____
ROOT
ATOM      1  C   UNL     1       7.522  15.502   4.367  0.00  0.00    +0.000 A 
ATOM      2  C   UNL     1       6.245  15.902   4.758  0.00  0.00    +0.000 A 
ATOM      3  C   UNL     1       5.711  17.104   4.276  0.00  0.00    +0.000 A 
ATOM      4  C   UNL     1       6.449  17.909   3.406  0.00  0.00    +0.000 A 
ATOM      5  C   UNL     1       7.725  17.515   3.011  0.00  0.00    +0.000 A 
ATOM      6  C   UNL     1       8.247  16.322   3.493  0.00  0.00    +0.000 A 
ENDROOT
BRANCH   1   8
ATOM      7  C   UNL     1       7.347  13.234   5.054  0.00  0.00    +0.000 C 
ATOM      8  O   UNL     1       8.168  14.357   4.758  0.00  0.00    +0.000 OA
ENDBRANCH   1   8
BRANCH   6   9
ATOM      9  O   UNL     1       9.504  15.957   3.091  0.00  0.00    +0.000 OA
ATOM     10  H   UNL     1       9.564  15.004   3.297  0.00  0.00    +0.000 HD
ENDBRANCH   6   9
TORSDOF 2
ENDMDL
MODEL 8
REMARK VINA RESULT:    -2.803     16.595     17.533
REMARK INTER + INTRA:          -3.099
REMARK INTER:                  -3.056
REMARK INTRA:                  -0.043
REMARK UNBOUND:                -0.050
REMARK  Name = 
REMARK  3 active torsions:
REMARK  status: ('A' for Active; 'I' for Inactive)
REMARK    1  A    between atoms: C_1  and  O_2
REMARK    2  A    between atoms: O_2  and  C_3
REMARK    3  A    between atoms: C_8  and  O_9
REMARK                            x       y       z     vdW  Elec       q    Type
REMARK                         _______ _______ _______ _____ _____    ______ ____
ROOT
ATOM      1  C   UNL     1       7.434  14.550   5.533  0.00  0.00    +0.000 A 
ATOM      2  C   UNL     1       8.306  15.431   6.172  0.00  0.00    +0.000 A 
ATOM      3  C   UNL     1       8.613  16.663   5.582  0.00  0.00    +0.000 A 
ATOM      4  C   UNL     1       8.053  17.019   4.354  0.00  0.00    +0.000 A 
ATOM      5  C   UNL     1       7.182  16.144   3.709  0.00  0.00    +0.000 A 
ATOM      6  C   UNL     1       6.883  14.924   4.301  0.00  0.00    +0.000 A 
ENDROOT
BRANCH   1   8
ATOM      7  C   UNL     1       6.866  13.190   7.396  0.00  0.00    +0.000 C 
ATOM      8  O   UNL     1       7.047  13.317   5.991  0.00  0.00    +0.000 OA
ENDBRANCH   1   8
BRANCH   6   9
ATOM      9  O   UNL     1       6.024  14.081   3.648  0.00  0.00    +0.000 OA
ATOM     10  H   UNL     1       5.971  13.290   4.217  0.00  0.00    +0.000 HD
ENDBRANCH   6   9
TORSDOF 2
ENDMDL
MODEL 9
REMARK VINA RESULT:    -2.756     15.559     16.390
REMARK INTER + INTRA:          -3.047
REMARK INTER:                  -2.995
REMARK INTRA:                  -0.052
REMARK UNBOUND:                -0.050
REMARK  Name = 
REMARK  3 active torsions:
REMARK  status: ('A' for Active; 'I' for Inactive)
REMARK    1  A    between atoms: C_1  and  O_2
REMARK    2  A    between atoms: O_2  and  C_3
REMARK    3  A    between atoms: C_8  and  O_9
REMARK                            x       y       z     vdW  Elec       q    Type
REMARK                         _______ _______ _______ _____ _____    ______ ____
ROOT
ATOM      1  C   UNL     1       6.338  16.400   2.608  0.00  0.00    +0.000 A 
ATOM      2  C   UNL     1       7.139  17.536   2.495  0.00  0.00    +0.000 A 
ATOM      3  C   UNL     1       8.289  17.662   3.284  0.00  0.00    +0.000 A 
ATOM      4  C   UNL     1       8.641  16.658   4.187  0.00  0.00    +0.000 A 
ATOM      5  C   UNL     1       7.846  15.520   4.306  0.00  0.00    +0.000 A 
ATOM      6  C   UNL     1       6.707  15.403   3.519  0.00  0.00    +0.000 A 
ENDROOT
BRANCH   1   8
ATOM      7  C   UNL     1       5.342  15.887   0.512  0.00  0.00    +0.000 C 
ATOM      8  O   UNL     1       5.189  16.145   1.903  0.00  0.00    +0.000 OA
ENDBRANCH   1   8
BRANCH   6   9
ATOM      9  O   UNL     1       5.942  14.276   3.654  0.00  0.00    +0.000 OA
ATOM     10  H   UNL     1       6.564  13.536   3.523  0.00  0.00    +0.000 HD
ENDBRANCH   6   9
TORSDOF 2
ENDMDL
