MODEL 1
REMARK VINA RESULT:    -3.063      0.000      0.000
REMARK INTER + INTRA:          -3.376
REMARK INTER:                  -3.331
REMARK INTRA:                  -0.044
REMARK UNBOUND:                -0.044
REMARK  Name = 
REMARK  3 active torsions:
REMARK  status: ('A' for Active; 'I' for Inactive)
REMARK    1  A    between atoms: C_1  and  O_2
REMARK    2  A    between atoms: O_2  and  C_3
REMARK    3  A    between atoms: C_8  and  O_9
REMARK                            x       y       z     vdW  Elec       q    Type
REMARK                         _______ _______ _______ _____ _____    ______ ____
ROOT
ATOM      1  C   UNL     1       5.170  12.225   9.997  0.00  0.00    +0.000 A 
ATOM      2  C   UNL     1       6.348  12.619  10.631  0.00  0.00    +0.000 A 
ATOM      3  C   UNL     1       7.450  13.027   9.869  0.00  0.00    +0.000 A 
ATOM      4  C   UNL     1       7.379  13.043   8.475  0.00  0.00    +0.000 A 
ATOM      5  C   UNL     1       6.206  12.652   7.834  0.00  0.00    +0.000 A 
ATOM      6  C   UNL     1       5.118  12.248   8.598  0.00  0.00    +0.000 A 
ENDROOT
BRANCH   1   8
ATOM      7  C   UNL     1       4.179  10.962  11.749  0.00  0.00    +0.000 C 
ATOM      8  O   UNL     1       4.019  11.804  10.613  0.00  0.00    +0.000 OA
ENDBRANCH   1   8
BRANCH   6   9
ATOM      9  O   UNL     1       3.976  11.868   7.945  0.00  0.00    +0.000 OA
ATOM     10  H   UNL     1       3.282  11.881   8.632  0.00  0.00    +0.000 HD
ENDBRANCH   6   9
TORSDOF 2
ENDMDL
MODEL 2
REMARK VINA RESULT:    -2.975      1.470      3.364
REMARK INTER + INTRA:          -3.281
REMARK INTER:                  -3.236
REMARK INTRA:                  -0.045
REMARK UNBOUND:                -0.044
REMARK  Name = 
REMARK  3 active torsions:
REMARK  status: ('A' for Active; 'I' for Inactive)
REMARK    1  A    between atoms: C_1  and  O_2
REMARK    2  A    between atoms: O_2  and  C_3
REMARK    3  A    between atoms: C_8  and  O_9
REMARK                            x       y       z     vdW  Elec       q    Type
REMARK                         _______ _______ _______ _____ _____    ______ ____
ROOT
ATOM      1  C   UNL     1       6.596  12.723   7.893  0.00  0.00    +0.000 A 
ATOM      2  C   UNL     1       7.436  13.243   8.877  0.00  0.00    +0.000 A 
ATOM      3  C   UNL     1       7.088  13.122  10.228  0.00  0.00    +0.000 A 
ATOM      4  C   UNL     1       5.903  12.485  10.600  0.00  0.00    +0.000 A 
ATOM      5  C   UNL     1       5.059  11.963   9.622  0.00  0.00    +0.000 A 
ATOM      6  C   UNL     1       5.412  12.087   8.285  0.00  0.00    +0.000 A 
ENDROOT
BRANCH   1   8
ATOM      7  C   UNL     1       7.313  13.992   6.016  0.00  0.00    +0.000 C 
ATOM      8  O   UNL     1       6.809  12.769   6.538  0.00  0.00    +0.000 OA
ENDBRANCH   1   8
BRANCH   6   9
ATOM      9  O   UNL     1       4.566  11.566   7.342  0.00  0.00    +0.000 OA
ATOM     10  H   UNL     1       3.684  11.909   7.583  0.00  0.00    +0.000 HD
ENDBRANCH   6   9
TORSDOF 2
ENDMDL
MODEL 3
REMARK VINA RESULT:    -2.961      9.653     10.855
REMARK INTER + INTRA:          -3.265
REMARK INTER:                  -3.218
REMARK INTRA:                  -0.047
REMARK UNBOUND:                -0.044
REMARK  Name = 
REMARK  3 active torsions:
REMARK  status: ('A' for Active; 'I' for Inactive)
REMARK    1  A    between atoms: C_1  and  O_2
REMARK    2  A    between atoms: O_2  and  C_3
REMARK    3  A    between atoms: C_8  and  O_9
REMARK                            x       y       z     vdW  Elec       q    Type
REMARK                         _______ _______ _______ _____ _____    ______ ____
ROOT
ATOM      1  C   UNL     1       3.192  16.811  -0.075  0.00  0.00    +0.000 A 
ATOM      2  C   UNL     1       3.920  17.947  -0.427  0.00  0.00    +0.000 A 
ATOM      3  C   UNL     1       5.313  17.957  -0.286  0.00  0.00    +0.000 A 
ATOM      4  C   UNL     1       5.983  16.836   0.207  0.00  0.00    +0.000 A 
ATOM      5  C   UNL     1       5.263  15.697   0.561  0.00  0.00    +0.000 A 
ATOM      6  C   UNL     1       3.881  15.696   0.418  0.00  0.00    +0.000 A 
ENDROOT
BRANCH   1   8
ATOM      7  C   UNL     1       1.289  16.509  -1.466  0.00  0.00    +0.000 C 
ATOM      8  O   UNL     1       1.831  16.661  -0.159  0.00  0.00    +0.000 OA
ENDBRANCH   1   8
BRANCH   6   9
ATOM      9  O   UNL     1       3.196  14.564   0.772  0.00  0.00    +0.000 OA
ATOM     10  H   UNL     1       3.820  14.059   1.327  0.00  0.00    +0.000 HD
ENDBRANCH   6   9
TORSDOF 2
ENDMDL
MODEL 4
REMARK VINA RESULT:    -2.952      9.822     11.269
REMARK INTER + INTRA:          -3.256
REMARK INTER:                  -3.204
REMARK INTRA:                  -0.051
REMARK UNBOUND:                -0.044
REMARK  Name = 
REMARK  3 active torsions:
REMARK  status: ('A' for Active; 'I' for Inactive)
REMARK    1  A    between atoms: C_1  and  O_2
REMARK    2  A    between atoms: O_2  and  C_3
REMARK    3  A    between atoms: C_8  and  O_9
REMARK                            x       y       z     vdW  Elec       q    Type
REMARK                         _______ _______ _______ _____ _____    ______ ____
ROOT
ATOM      1  C   UNL     1       3.927  17.099   0.009  0.00  0.00    +0.000 A 
ATOM      2  C   UNL     1       2.959  17.590  -0.867  0.00  0.00    +0.000 A 
ATOM      3  C   UNL     1       1.865  16.790  -1.221  0.00  0.00    +0.000 A 
ATOM      4  C   UNL     1       1.735  15.500  -0.703  0.00  0.00    +0.000 A 
ATOM      5  C   UNL     1       2.698  15.002   0.173  0.00  0.00    +0.000 A 
ATOM      6  C   UNL     1       3.779  15.803   0.518  0.00  0.00    +0.000 A 
ENDROOT
BRANCH   1   8
ATOM      7  C   UNL     1       5.945  18.213  -0.567  0.00  0.00    +0.000 C 
ATOM      8  O   UNL     1       5.045  17.767   0.440  0.00  0.00    +0.000 OA
ENDBRANCH   1   8
BRANCH   6   9
ATOM      9  O   UNL     1       4.712  15.292   1.380  0.00  0.00    +0.000 OA
ATOM     10  H   UNL     1       5.126  16.075   1.791  0.00  0.00    +0.000 HD
ENDBRANCH   6   9
TORSDOF 2
ENDMDL
MODEL 5
REMARK VINA RESULT:    -2.934      3.424      4.609
REMARK INTER + INTRA:          -3.235
REMARK INTER:                  -3.191
REMARK INTRA:                  -0.045
REMARK UNBOUND:                -0.044
REMARK  Name = 
REMARK  3 active torsions:
REMARK  status: ('A' for Active; 'I' for Inactive)
REMARK    1  A    between atoms: C_1  and  O_2
REMARK    2  A    between atoms: O_2  and  C_3
REMARK    3  A    between atoms: C_8  and  O_9
REMARK                            x       y       z     vdW  Elec       q    Type
REMARK                         _______ _______ _______ _____ _____    ______ ____
ROOT
ATOM      1  C   UNL     1       6.876  13.974   6.692  0.00  0.00    +0.000 A 
ATOM      2  C   UNL     1       6.335  15.220   7.006  0.00  0.00    +0.000 A 
ATOM      3  C   UNL     1       6.041  16.132   5.985  0.00  0.00    +0.000 A 
ATOM      4  C   UNL     1       6.286  15.804   4.650  0.00  0.00    +0.000 A 
ATOM      5  C   UNL     1       6.825  14.560   4.329  0.00  0.00    +0.000 A 
ATOM      6  C   UNL     1       7.114  13.662   5.348  0.00  0.00    +0.000 A 
ENDROOT
BRANCH   1   8
ATOM      7  C   UNL     1       7.844  13.408   8.787  0.00  0.00    +0.000 C 
ATOM      8  O   UNL     1       7.212  12.987   7.585  0.00  0.00    +0.000 OA
ENDBRANCH   1   8
BRANCH   6   9
ATOM      9  O   UNL     1       7.644  12.446   5.007  0.00  0.00    +0.000 OA
ATOM     10  H   UNL     1       7.129  12.160   4.228  0.00  0.00    +0.000 HD
ENDBRANCH   6   9
TORSDOF 2
ENDMDL
MODEL 6
REMARK VINA RESULT:    -2.787      3.733      5.469
REMARK INTER + INTRA:          -3.075
REMARK INTER:                  -3.023
REMARK INTRA:                  -0.053
REMARK UNBOUND:                -0.044
REMARK  Name = 
REMARK  3 active torsions:
REMARK  status: ('A' for Active; 'I' for Inactive)
REMARK    1  A    between atoms: C_1  and  O_2
REMARK    2  A    between atoms: O_2  and  C_3
REMARK    3  A    between atoms: C_8  and  O_9
REMARK                            x       y       z     vdW  Elec       q    Type
REMARK                         _______ _______ _______ _____ _____    ______ ____
ROOT
ATOM      1  C   UNL     1       6.926  14.865   5.529  0.00  0.00    +0.000 A 
ATOM      2  C   UNL     1       6.277  15.699   6.438  0.00  0.00    +0.000 A 
ATOM      3  C   UNL     1       5.890  15.203   7.689  0.00  0.00    +0.000 A 
ATOM      4  C   UNL     1       6.148  13.876   8.035  0.00  0.00    +0.000 A 
ATOM      5  C   UNL     1       6.796  13.036   7.132  0.00  0.00    +0.000 A 
ATOM      6  C   UNL     1       7.177  13.536   5.894  0.00  0.00    +0.000 A 
ENDROOT
BRANCH   1   8
ATOM      7  C   UNL     1       6.353  15.545   3.325  0.00  0.00    +0.000 C 
ATOM      8  O   UNL     1       7.359  15.213   4.274  0.00  0.00    +0.000 OA
ENDBRANCH   1   8
BRANCH   6   9
ATOM      9  O   UNL     1       7.812  12.692   5.023  0.00  0.00    +0.000 OA
ATOM     10  H   UNL     1       8.238  12.023   5.592  0.00  0.00    +0.000 HD
ENDBRANCH   6   9
TORSDOF 2
ENDMDL
MODEL 7
REMARK VINA RESULT:    -2.772     18.938     19.491
REMARK INTER + INTRA:          -3.060
REMARK INTER:                  -3.007
REMARK INTRA:                  -0.052
REMARK UNBOUND:                -0.044
REMARK  Name = 
REMARK  3 active torsions:
REMARK  status: ('A' for Active; 'I' for Inactive)
REMARK    1  A    between atoms: C_1  and  O_2
REMARK    2  A    between atoms: O_2  and  C_3
REMARK    3  A    between atoms: C_8  and  O_9
REMARK                            x       y       z     vdW  Elec       q    Type
REMARK                         _______ _______ _______ _____ _____    ______ ____
ROOT
ATOM      1  C   UNL     1       3.129  18.040  -8.653  0.00  0.00    +0.000 A 
ATOM      2  C   UNL     1       3.617  19.280  -9.063  0.00  0.00    +0.000 A 
ATOM      3  C   UNL     1       4.895  19.377  -9.627  0.00  0.00    +0.000 A 
ATOM      4  C   UNL     1       5.689  18.239  -9.782  0.00  0.00    +0.000 A 
ATOM      5  C   UNL     1       5.208  16.997  -9.375  0.00  0.00    +0.000 A 
ATOM      6  C   UNL     1       3.939  16.910  -8.817  0.00  0.00    +0.000 A 
ENDROOT
BRANCH   1   8
ATOM      7  C   UNL     1       0.770  17.972  -8.929  0.00  0.00    +0.000 C 
ATOM      8  O   UNL     1       1.903  17.797  -8.087  0.00  0.00    +0.000 OA
ENDBRANCH   1   8
BRANCH   6   9
ATOM      9  O   UNL     1       3.489  15.677  -8.425  0.00  0.00    +0.000 OA
ATOM     10  H   UNL     1       3.323  15.767  -7.467  0.00  0.00    +0.000 HD
ENDBRANCH   6   9
TORSDOF 2
ENDMDL
MODEL 8
REMARK VINA RESULT:    -2.769     19.084     19.565
REMARK INTER + INTRA:          -3.056
REMARK INTER:                  -3.003
REMARK INTRA:                  -0.053
REMARK UNBOUND:                -0.044
REMARK  Name = 
REMARK  3 active torsions:
REMARK  status: ('A' for Active; 'I' for Inactive)
REMARK    1  A    between atoms: C_1  and  O_2
REMARK    2  A    between atoms: O_2  and  C_3
REMARK    3  A    between atoms: C_8  and  O_9
REMARK                            x       y       z     vdW  Elec       q    Type
REMARK                         _______ _______ _______ _____ _____    ______ ____
ROOT
ATOM      1  C   UNL     1       5.263  18.569  -9.032  0.00  0.00    +0.000 A 
ATOM      2  C   UNL     1       4.090  19.300  -8.849  0.00  0.00    +0.000 A 
ATOM      3  C   UNL     1       2.874  18.634  -8.652  0.00  0.00    +0.000 A 
ATOM      4  C   UNL     1       2.825  17.239  -8.639  0.00  0.00    +0.000 A 
ATOM      5  C   UNL     1       3.992  16.501  -8.821  0.00  0.00    +0.000 A 
ATOM      6  C   UNL     1       5.194  17.170  -9.016  0.00  0.00    +0.000 A 
ENDROOT
BRANCH   1   8
ATOM      7  C   UNL     1       7.097  19.792  -8.146  0.00  0.00    +0.000 C 
ATOM      8  O   UNL     1       6.517  19.085  -9.236  0.00  0.00    +0.000 OA
ENDBRANCH   1   8
BRANCH   6   9
ATOM      9  O   UNL     1       6.328  16.423  -9.193  0.00  0.00    +0.000 OA
ATOM     10  H   UNL     1       7.036  17.079  -9.342  0.00  0.00    +0.000 HD
ENDBRANCH   6   9
TORSDOF 2
ENDMDL
MODEL 9
REMARK VINA RESULT:    -2.724      5.935      7.398
REMARK INTER + INTRA:          -3.008
REMARK INTER:                  -2.955
REMARK INTRA:                  -0.053
REMARK UNBOUND:                -0.044
REMARK  Name = 
REMARK  3 active torsions:
REMARK  status: ('A' for Active; 'I' for Inactive)
REMARK    1  A    between atoms: C_1  and  O_2
REMARK    2  A    between atoms: O_2  and  C_3
REMARK    3  A    between atoms: C_8  and  O_9
REMARK                            x       y       z     vdW  Elec       q    Type
REMARK                         _______ _______ _______ _____ _____    ______ ____
ROOT
ATOM      1  C   UNL     1       7.839  15.780   4.082  0.00  0.00    +0.000 A 
ATOM      2  C   UNL     1       8.409  16.947   3.575  0.00  0.00    +0.000 A 
ATOM      3  C   UNL     1       7.786  17.630   2.522  0.00  0.00    +0.000 A 
ATOM      4  C   UNL     1       6.596  17.149   1.973  0.00  0.00    +0.000 A 
ATOM      5  C   UNL     1       6.020  15.985   2.475  0.00  0.00    +0.000 A 
ATOM      6  C   UNL     1       6.645  15.314   3.519  0.00  0.00    +0.000 A 
ENDROOT
BRANCH   1   8
ATOM      7  C   UNL     1       8.380  15.620   6.390  0.00  0.00    +0.000 C 
ATOM      8  O   UNL     1       8.337  15.013   5.105  0.00  0.00    +0.000 OA
ENDBRANCH   1   8
BRANCH   6   9
ATOM      9  O   UNL     1       6.060  14.171   3.996  0.00  0.00    +0.000 OA
ATOM     10  H   UNL     1       6.634  13.448   3.679  0.00  0.00    +0.000 HD
ENDBRANCH   6   9
TORSDOF 2
ENDMDL
