MODEL 1
REMARK VINA RESULT:    -5.288      0.000      0.000
REMARK INTER + INTRA:          -5.798
REMARK INTER:                  -5.752
REMARK INTRA:                  -0.046
REMARK UNBOUND:                -0.046
REMARK  Name = 
REMARK  3 active torsions:
REMARK  status: ('A' for Active; 'I' for Inactive)
REMARK    1  A    between atoms: C_1  and  O_2
REMARK    2  A    between atoms: O_2  and  C_3
REMARK    3  A    between atoms: C_8  and  O_9
REMARK                            x       y       z     vdW  Elec       q    Type
REMARK                         _______ _______ _______ _____ _____    ______ ____
ROOT
ATOM      1  C   UNL     1       8.977   9.438   4.757  0.00  0.00    +0.000 A 
ATOM      2  C   UNL     1      10.110  10.199   4.475  0.00  0.00    +0.000 A 
ATOM      3  C   UNL     1      10.777  10.034   3.254  0.00  0.00    +0.000 A 
ATOM      4  C   UNL     1      10.315   9.111   2.314  0.00  0.00    +0.000 A 
ATOM      5  C   UNL     1       9.182   8.348   2.589  0.00  0.00    +0.000 A 
ATOM      6  C   UNL     1       8.528   8.517   3.802  0.00  0.00    +0.000 A 
ENDROOT
BRANCH   1   8
ATOM      7  C   UNL     1       7.899  10.790   6.387  0.00  0.00    +0.000 C 
ATOM      8  O   UNL     1       8.229   9.493   5.906  0.00  0.00    +0.000 OA
ENDBRANCH   1   8
BRANCH   6   9
ATOM      9  O   UNL     1       7.417   7.756   4.049  0.00  0.00    +0.000 OA
ATOM     10  H   UNL     1       7.759   6.848   4.162  0.00  0.00    +0.000 HD
ENDBRANCH   6   9
TORSDOF 2
ENDMDL
MODEL 2
REMARK VINA RESULT:    -5.113      2.077      3.572
REMARK INTER + INTRA:          -5.608
REMARK INTER:                  -5.569
REMARK INTRA:                  -0.039
REMARK UNBOUND:                -0.046
REMARK  Name = 
REMARK  3 active torsions:
REMARK  status: ('A' for Active; 'I' for Inactive)
REMARK    1  A    between atoms: C_1  and  O_2
REMARK    2  A    between atoms: O_2  and  C_3
REMARK    3  A    between atoms: C_8  and  O_9
REMARK                            x       y       z     vdW  Elec       q    Type
REMARK                         _______ _______ _______ _____ _____    ______ ____
ROOT
ATOM      1  C   UNL     1       8.979   9.243   3.400  0.00  0.00    +0.000 A 
ATOM      2  C   UNL     1       8.540   8.960   4.693  0.00  0.00    +0.000 A 
ATOM      3  C   UNL     1       8.407   9.994   5.628  0.00  0.00    +0.000 A 
ATOM      4  C   UNL     1       8.713  11.310   5.277  0.00  0.00    +0.000 A 
ATOM      5  C   UNL     1       9.152  11.601   3.987  0.00  0.00    +0.000 A 
ATOM      6  C   UNL     1       9.281  10.569   3.066  0.00  0.00    +0.000 A 
ENDROOT
BRANCH   1   8
ATOM      7  C   UNL     1       8.445   7.108   2.504  0.00  0.00    +0.000 C 
ATOM      8  O   UNL     1       9.155   8.335   2.387  0.00  0.00    +0.000 OA
ENDBRANCH   1   8
BRANCH   6   9
ATOM      9  O   UNL     1       9.714  10.879   1.804  0.00  0.00    +0.000 OA
ATOM     10  H   UNL     1      10.617  10.512   1.755  0.00  0.00    +0.000 HD
ENDBRANCH   6   9
TORSDOF 2
ENDMDL
MODEL 3
REMARK VINA RESULT:    -5.072      2.059      2.596
REMARK INTER + INTRA:          -5.564
REMARK INTER:                  -5.525
REMARK INTRA:                  -0.039
REMARK UNBOUND:                -0.046
REMARK  Name = 
REMARK  3 active torsions:
REMARK  status: ('A' for Active; 'I' for Inactive)
REMARK    1  A    between atoms: C_1  and  O_2
REMARK    2  A    between atoms: O_2  and  C_3
REMARK    3  A    between atoms: C_8  and  O_9
REMARK                            x       y       z     vdW  Elec       q    Type
REMARK                         _______ _______ _______ _____ _____    ______ ____
ROOT
ATOM      1  C   UNL     1       8.981  10.145   3.738  0.00  0.00    +0.000 A 
ATOM      2  C   UNL     1       8.289   9.216   4.513  0.00  0.00    +0.000 A 
ATOM      3  C   UNL     1       8.205   7.881   4.097  0.00  0.00    +0.000 A 
ATOM      4  C   UNL     1       8.811   7.472   2.907  0.00  0.00    +0.000 A 
ATOM      5  C   UNL     1       9.504   8.394   2.127  0.00  0.00    +0.000 A 
ATOM      6  C   UNL     1       9.582   9.716   2.548  0.00  0.00    +0.000 A 
ENDROOT
BRANCH   1   8
ATOM      7  C   UNL     1       8.990  11.860   5.383  0.00  0.00    +0.000 C 
ATOM      8  O   UNL     1       9.142  11.478   4.021  0.00  0.00    +0.000 OA
ENDBRANCH   1   8
BRANCH   6   9
ATOM      9  O   UNL     1      10.268  10.605   1.765  0.00  0.00    +0.000 OA
ATOM     10  H   UNL     1      10.320  10.176   0.889  0.00  0.00    +0.000 HD
ENDBRANCH   6   9
TORSDOF 2
ENDMDL
MODEL 4
REMARK VINA RESULT:    -4.980      2.145      3.250
REMARK INTER + INTRA:          -5.463
REMARK INTER:                  -5.416
REMARK INTRA:                  -0.047
REMARK UNBOUND:                -0.046
REMARK  Name = 
REMARK  3 active torsions:
REMARK  status: ('A' for Active; 'I' for Inactive)
REMARK    1  A    between atoms: C_1  and  O_2
REMARK    2  A    between atoms: O_2  and  C_3
REMARK    3  A    between atoms: C_8  and  O_9
REMARK                            x       y       z     vdW  Elec       q    Type
REMARK                         _______ _______ _______ _____ _____    ______ ____
ROOT
ATOM      1  C   UNL     1       9.657   9.750   2.860  0.00  0.00    +0.000 A 
ATOM      2  C   UNL     1       9.294  10.358   4.061  0.00  0.00    +0.000 A 
ATOM      3  C   UNL     1       8.545   9.647   5.007  0.00  0.00    +0.000 A 
ATOM      4  C   UNL     1       8.157   8.330   4.757  0.00  0.00    +0.000 A 
ATOM      5  C   UNL     1       8.517   7.715   3.560  0.00  0.00    +0.000 A 
ATOM      6  C   UNL     1       9.259   8.428   2.627  0.00  0.00    +0.000 A 
ENDROOT
BRANCH   1   8
ATOM      7  C   UNL     1      11.775  10.504   2.089  0.00  0.00    +0.000 C 
ATOM      8  O   UNL     1      10.385  10.323   1.848  0.00  0.00    +0.000 OA
ENDBRANCH   1   8
BRANCH   6   9
ATOM      9  O   UNL     1       9.600   7.802   1.458  0.00  0.00    +0.000 OA
ATOM     10  H   UNL     1       9.862   6.900   1.726  0.00  0.00    +0.000 HD
ENDBRANCH   6   9
TORSDOF 2
ENDMDL
MODEL 5
REMARK VINA RESULT:    -4.933      1.362      2.066
REMARK INTER + INTRA:          -5.412
REMARK INTER:                  -5.428
REMARK INTRA:                   0.016
REMARK UNBOUND:                -0.046
REMARK  Name = 
REMARK  3 active torsions:
REMARK  status: ('A' for Active; 'I' for Inactive)
REMARK    1  A    between atoms: C_1  and  O_2
REMARK    2  A    between atoms: O_2  and  C_3
REMARK    3  A    between atoms: C_8  and  O_9
REMARK                            x       y       z     vdW  Elec       q    Type
REMARK                         _______ _______ _______ _____ _____    ______ ____
ROOT
ATOM      1  C   UNL     1       9.490   9.767   3.994  0.00  0.00    +0.000 A 
ATOM      2  C   UNL     1      10.055   9.404   2.772  0.00  0.00    +0.000 A 
ATOM      3  C   UNL     1       9.642   8.229   2.131  0.00  0.00    +0.000 A 
ATOM      4  C   UNL     1       8.666   7.414   2.708  0.00  0.00    +0.000 A 
ATOM      5  C   UNL     1       8.097   7.770   3.929  0.00  0.00    +0.000 A 
ATOM      6  C   UNL     1       8.513   8.937   4.557  0.00  0.00    +0.000 A 
ENDROOT
BRANCH   1   8
ATOM      7  C   UNL     1       9.101  12.077   4.393  0.00  0.00    +0.000 C 
ATOM      8  O   UNL     1       9.797  10.883   4.730  0.00  0.00    +0.000 OA
ENDBRANCH   1   8
BRANCH   6   9
ATOM      9  O   UNL     1       7.939   9.265   5.756  0.00  0.00    +0.000 OA
ATOM     10  H   UNL     1       6.991   9.381   5.554  0.00  0.00    +0.000 HD
ENDBRANCH   6   9
TORSDOF 2
ENDMDL
MODEL 6
REMARK VINA RESULT:    -4.763      1.435      3.011
REMARK INTER + INTRA:          -5.228
REMARK INTER:                  -5.189
REMARK INTRA:                  -0.039
REMARK UNBOUND:                -0.046
REMARK  Name = 
REMARK  3 active torsions:
REMARK  status: ('A' for Active; 'I' for Inactive)
REMARK    1  A    between atoms: C_1  and  O_2
REMARK    2  A    between atoms: O_2  and  C_3
REMARK    3  A    between atoms: C_8  and  O_9
REMARK                            x       y       z     vdW  Elec       q    Type
REMARK                         _______ _______ _______ _____ _____    ______ ____
ROOT
ATOM      1  C   UNL     1       8.431   9.301   4.027  0.00  0.00    +0.000 A 
ATOM      2  C   UNL     1       8.804   9.925   2.838  0.00  0.00    +0.000 A 
ATOM      3  C   UNL     1       9.174  11.276   2.842  0.00  0.00    +0.000 A 
ATOM      4  C   UNL     1       9.171  12.006   4.032  0.00  0.00    +0.000 A 
ATOM      5  C   UNL     1       8.799  11.390   5.224  0.00  0.00    +0.000 A 
ATOM      6  C   UNL     1       8.434  10.050   5.211  0.00  0.00    +0.000 A 
ENDROOT
BRANCH   1   8
ATOM      7  C   UNL     1       8.432   7.100   3.132  0.00  0.00    +0.000 C 
ATOM      8  O   UNL     1       8.047   7.992   4.171  0.00  0.00    +0.000 OA
ENDBRANCH   1   8
BRANCH   6   9
ATOM      9  O   UNL     1       8.073   9.466   6.395  0.00  0.00    +0.000 OA
ATOM     10  H   UNL     1       7.097   9.478   6.391  0.00  0.00    +0.000 HD
ENDBRANCH   6   9
TORSDOF 2
ENDMDL
MODEL 7
REMARK VINA RESULT:    -4.627      1.474      2.404
REMARK INTER + INTRA:          -5.079
REMARK INTER:                  -5.033
REMARK INTRA:                  -0.047
REMARK UNBOUND:                -0.046
REMARK  Name = 
REMARK  3 active torsions:
REMARK  status: ('A' for Active; 'I' for Inactive)
REMARK    1  A    between atoms: C_1  and  O_2
REMARK    2  A    between atoms: O_2  and  C_3
REMARK    3  A    between atoms: C_8  and  O_9
REMARK                            x       y       z     vdW  Elec       q    Type
REMARK                         _______ _______ _______ _____ _____    ______ ____
ROOT
ATOM      1  C   UNL     1       8.408  10.062   4.950  0.00  0.00    +0.000 A 
ATOM      2  C   UNL     1       8.410   8.760   4.453  0.00  0.00    +0.000 A 
ATOM      3  C   UNL     1       9.155   8.449   3.308  0.00  0.00    +0.000 A 
ATOM      4  C   UNL     1       9.897   9.436   2.657  0.00  0.00    +0.000 A 
ATOM      5  C   UNL     1       9.900  10.740   3.148  0.00  0.00    +0.000 A 
ATOM      6  C   UNL     1       9.158  11.039   4.284  0.00  0.00    +0.000 A 
ENDROOT
BRANCH   1   8
ATOM      7  C   UNL     1       8.243  10.109   7.320  0.00  0.00    +0.000 C 
ATOM      8  O   UNL     1       7.728  10.507   6.055  0.00  0.00    +0.000 OA
ENDBRANCH   1   8
BRANCH   6   9
ATOM      9  O   UNL     1       9.176  12.327   4.747  0.00  0.00    +0.000 OA
ATOM     10  H   UNL     1       8.547  12.806   4.174  0.00  0.00    +0.000 HD
ENDBRANCH   6   9
TORSDOF 2
ENDMDL
MODEL 8
REMARK VINA RESULT:    -4.582      1.417      3.274
REMARK INTER + INTRA:          -5.030
REMARK INTER:                  -4.981
REMARK INTRA:                  -0.050
REMARK UNBOUND:                -0.046
REMARK  Name = 
REMARK  3 active torsions:
REMARK  status: ('A' for Active; 'I' for Inactive)
REMARK    1  A    between atoms: C_1  and  O_2
REMARK    2  A    between atoms: O_2  and  C_3
REMARK    3  A    between atoms: C_8  and  O_9
REMARK                            x       y       z     vdW  Elec       q    Type
REMARK                         _______ _______ _______ _____ _____    ______ ____
ROOT
ATOM      1  C   UNL     1       8.990  10.134   3.882  0.00  0.00    +0.000 A 
ATOM      2  C   UNL     1       9.265  11.464   4.194  0.00  0.00    +0.000 A 
ATOM      3  C   UNL     1       8.910  11.976   5.449  0.00  0.00    +0.000 A 
ATOM      4  C   UNL     1       8.280  11.163   6.393  0.00  0.00    +0.000 A 
ATOM      5  C   UNL     1       8.003   9.832   6.089  0.00  0.00    +0.000 A 
ATOM      6  C   UNL     1       8.359   9.333   4.842  0.00  0.00    +0.000 A 
ENDROOT
BRANCH   1   8
ATOM      7  C   UNL     1      10.629   9.574   2.255  0.00  0.00    +0.000 C 
ATOM      8  O   UNL     1       9.279   9.502   2.699  0.00  0.00    +0.000 OA
ENDBRANCH   1   8
BRANCH   6   9
ATOM      9  O   UNL     1       8.076   8.022   4.566  0.00  0.00    +0.000 OA
ATOM     10  H   UNL     1       7.101   7.975   4.554  0.00  0.00    +0.000 HD
ENDBRANCH   6   9
TORSDOF 2
ENDMDL
MODEL 9
REMARK VINA RESULT:    -4.486      2.197      3.811
REMARK INTER + INTRA:          -4.926
REMARK INTER:                  -4.874
REMARK INTRA:                  -0.052
REMARK UNBOUND:                -0.046
REMARK  Name = 
REMARK  3 active torsions:
REMARK  status: ('A' for Active; 'I' for Inactive)
REMARK    1  A    between atoms: C_1  and  O_2
REMARK    2  A    between atoms: O_2  and  C_3
REMARK    3  A    between atoms: C_8  and  O_9
REMARK                            x       y       z     vdW  Elec       q    Type
REMARK                         _______ _______ _______ _____ _____    ______ ____
ROOT
ATOM      1  C   UNL     1       9.460  10.321   3.390  0.00  0.00    +0.000 A 
ATOM      2  C   UNL     1       9.186   8.962   3.531  0.00  0.00    +0.000 A 
ATOM      3  C   UNL     1       8.522   8.497   4.674  0.00  0.00    +0.000 A 
ATOM      4  C   UNL     1       8.133   9.387   5.677  0.00  0.00    +0.000 A 
ATOM      5  C   UNL     1       8.403  10.747   5.543  0.00  0.00    +0.000 A 
ATOM      6  C   UNL     1       9.062  11.199   4.406  0.00  0.00    +0.000 A 
ENDROOT
BRANCH   1   8
ATOM      7  C   UNL     1      11.431  10.484   2.073  0.00  0.00    +0.000 C 
ATOM      8  O   UNL     1      10.100  10.914   2.331  0.00  0.00    +0.000 OA
ENDBRANCH   1   8
BRANCH   6   9
ATOM      9  O   UNL     1       9.317  12.540   4.297  0.00  0.00    +0.000 OA
ATOM     10  H   UNL     1       8.884  12.808   3.464  0.00  0.00    +0.000 HD
ENDBRANCH   6   9
TORSDOF 2
ENDMDL
