MODEL 1
REMARK VINA RESULT:    -4.208      0.000      0.000
REMARK INTER + INTRA:          -6.296
REMARK INTER:                  -5.684
REMARK INTRA:                  -0.612
REMARK UNBOUND:                -0.612
REMARK  Name = 
REMARK  10 active torsions:
REMARK  status: ('A' for Active; 'I' for Inactive)
REMARK    1  A    between atoms: C_1  and  C_2
REMARK    2  A    between atoms: C_5  and  N_8
REMARK    3  A    between atoms: N_8  and  C_9
REMARK    4  A    between atoms: N_8  and  C_13
REMARK    5  A    between atoms: C_9  and  C_10
REMARK    6  A    between atoms: C_10  and  C_11
REMARK    7  A    between atoms: C_10  and  O_12
REMARK    8  A    between atoms: C_13  and  C_14
REMARK    9  A    between atoms: C_14  and  C_15
REMARK   10  A    between atoms: C_14  and  O_16
REMARK                            x       y       z     vdW  Elec       q    Type
REMARK                         _______ _______ _______ _____ _____    ______ ____
ROOT
ATOM      1  N   UNL     1       0.077  19.143  -8.825  0.00  0.00    +0.000 N 
ENDROOT
BRANCH   1   6
ATOM      2  C   UNL     1      -2.094  14.322 -11.144  0.00  0.00    +0.000 C 
ATOM      3  C   UNL     1      -1.515  15.559 -10.529  0.00  0.00    +0.000 A 
ATOM      4  C   UNL     1      -2.057  16.101  -9.369  0.00  0.00    +0.000 A 
ATOM      5  C   UNL     1      -1.529  17.278  -8.814  0.00  0.00    +0.000 A 
ATOM      6  C   UNL     1      -0.458  17.980  -9.395  0.00  0.00    +0.000 A 
ATOM      7  C   UNL     1       0.067  17.402 -10.566  0.00  0.00    +0.000 A 
ATOM      8  C   UNL     1      -0.451  16.225 -11.130  0.00  0.00    +0.000 A 
ENDBRANCH   1   6
BRANCH   1   9
ATOM      9  C   UNL     1      -0.824  20.174  -8.257  0.00  0.00    +0.000 C 
BRANCH   9  10
ATOM     10  C   UNL     1      -0.226  20.873  -7.011  0.00  0.00    +0.000 C 
ATOM     11  C   UNL     1      -1.191  21.912  -6.454  0.00  0.00    +0.000 C 
BRANCH  10  12
ATOM     12  O   UNL     1       0.053  19.923  -5.973  0.00  0.00    +0.000 OA
ATOM     13  H   UNL     1      -0.543  19.165  -6.090  0.00  0.00    +0.000 HD
ENDBRANCH  10  12
ENDBRANCH   9  10
ENDBRANCH   1   9
BRANCH   1  14
ATOM     14  C   UNL     1       1.427  19.633  -9.202  0.00  0.00    +0.000 C 
BRANCH  14  15
ATOM     15  C   UNL     1       2.555  18.768  -8.588  0.00  0.00    +0.000 C 
ATOM     16  C   UNL     1       3.950  19.218  -9.006  0.00  0.00    +0.000 C 
BRANCH  15  17
ATOM     17  O   UNL     1       2.500  18.765  -7.163  0.00  0.00    +0.000 OA
ATOM     18  H   UNL     1       1.556  18.907  -6.946  0.00  0.00    +0.000 HD
ENDBRANCH  15  17
ENDBRANCH  14  15
ENDBRANCH   1  14
TORSDOF 7
ENDMDL
MODEL 2
REMARK VINA RESULT:    -4.181      2.024      2.535
REMARK INTER + INTRA:          -6.259
REMARK INTER:                  -5.586
REMARK INTRA:                  -0.673
REMARK UNBOUND:                -0.612
REMARK  Name = 
REMARK  10 active torsions:
REMARK  status: ('A' for Active; 'I' for Inactive)
REMARK    1  A    between atoms: C_1  and  C_2
REMARK    2  A    between atoms: C_5  and  N_8
REMARK    3  A    between atoms: N_8  and  C_9
REMARK    4  A    between atoms: N_8  and  C_13
REMARK    5  A    between atoms: C_9  and  C_10
REMARK    6  A    between atoms: C_10  and  C_11
REMARK    7  A    between atoms: C_10  and  O_12
REMARK    8  A    between atoms: C_13  and  C_14
REMARK    9  A    between atoms: C_14  and  C_15
REMARK   10  A    between atoms: C_14  and  O_16
REMARK                            x       y       z     vdW  Elec       q    Type
REMARK                         _______ _______ _______ _____ _____    ______ ____
ROOT
ATOM      1  N   UNL     1       0.971  18.746 -10.378  0.00  0.00    +0.000 N 
ENDROOT
BRANCH   1   6
ATOM      2  C   UNL     1      -2.358  14.029 -10.441  0.00  0.00    +0.000 C 
ATOM      3  C   UNL     1      -1.479  15.242 -10.408  0.00  0.00    +0.000 A 
ATOM      4  C   UNL     1      -1.741  16.290  -9.532  0.00  0.00    +0.000 A 
ATOM      5  C   UNL     1      -0.931  17.438  -9.526  0.00  0.00    +0.000 A 
ATOM      6  C   UNL     1       0.156  17.607 -10.402  0.00  0.00    +0.000 A 
ATOM      7  C   UNL     1       0.393  16.527 -11.272  0.00  0.00    +0.000 A 
ATOM      8  C   UNL     1      -0.408  15.372 -11.287  0.00  0.00    +0.000 A 
ENDBRANCH   1   6
BRANCH   1   9
ATOM      9  C   UNL     1       0.858  19.717  -9.263  0.00  0.00    +0.000 C 
BRANCH   9  10
ATOM     10  C   UNL     1       1.811  19.394  -8.086  0.00  0.00    +0.000 C 
ATOM     11  C   UNL     1       1.034  18.876  -6.882  0.00  0.00    +0.000 C 
BRANCH  10  12
ATOM     12  O   UNL     1       2.769  18.394  -8.460  0.00  0.00    +0.000 OA
ATOM     13  H   UNL     1       2.414  17.526  -8.206  0.00  0.00    +0.000 HD
ENDBRANCH  10  12
ENDBRANCH   9  10
ENDBRANCH   1   9
BRANCH   1  14
ATOM     14  C   UNL     1       1.566  19.292 -11.624  0.00  0.00    +0.000 C 
BRANCH  14  15
ATOM     15  C   UNL     1       3.035  18.844 -11.816  0.00  0.00    +0.000 C 
ATOM     16  C   UNL     1       3.520  18.978 -13.254  0.00  0.00    +0.000 C 
BRANCH  15  17
ATOM     17  O   UNL     1       3.925  19.581 -10.979  0.00  0.00    +0.000 OA
ATOM     18  H   UNL     1       3.351  20.197 -10.481  0.00  0.00    +0.000 HD
ENDBRANCH  15  17
ENDBRANCH  14  15
ENDBRANCH   1  14
TORSDOF 7
ENDMDL
MODEL 3
REMARK VINA RESULT:    -4.099      0.424      3.152
REMARK INTER + INTRA:          -6.149
REMARK INTER:                  -5.691
REMARK INTRA:                  -0.458
REMARK UNBOUND:                -0.612
REMARK  Name = 
REMARK  10 active torsions:
REMARK  status: ('A' for Active; 'I' for Inactive)
REMARK    1  A    between atoms: C_1  and  C_2
REMARK    2  A    between atoms: C_5  and  N_8
REMARK    3  A    between atoms: N_8  and  C_9
REMARK    4  A    between atoms: N_8  and  C_13
REMARK    5  A    between atoms: C_9  and  C_10
REMARK    6  A    between atoms: C_10  and  C_11
REMARK    7  A    between atoms: C_10  and  O_12
REMARK    8  A    between atoms: C_13  and  C_14
REMARK    9  A    between atoms: C_14  and  C_15
REMARK   10  A    between atoms: C_14  and  O_16
REMARK                            x       y       z     vdW  Elec       q    Type
REMARK                         _______ _______ _______ _____ _____    ______ ____
ROOT
ATOM      1  N   UNL     1       0.013  19.600  -9.126  0.00  0.00    +0.000 N 
ENDROOT
BRANCH   1   6
ATOM      2  C   UNL     1      -1.557  14.343 -10.922  0.00  0.00    +0.000 C 
ATOM      3  C   UNL     1      -1.167  15.717 -10.470  0.00  0.00    +0.000 A 
ATOM      4  C   UNL     1      -0.184  16.437 -11.140  0.00  0.00    +0.000 A 
ATOM      5  C   UNL     1       0.199  17.713 -10.694  0.00  0.00    +0.000 A 
ATOM      6  C   UNL     1      -0.359  18.319  -9.554  0.00  0.00    +0.000 A 
ATOM      7  C   UNL     1      -1.352  17.563  -8.903  0.00  0.00    +0.000 A 
ATOM      8  C   UNL     1      -1.745  16.288  -9.340  0.00  0.00    +0.000 A 
ENDBRANCH   1   6
BRANCH   1   9
ATOM      9  C   UNL     1       1.447  19.968  -9.040  0.00  0.00    +0.000 C 
BRANCH   9  10
ATOM     10  C   UNL     1       2.329  18.820  -8.491  0.00  0.00    +0.000 C 
ATOM     11  C   UNL     1       3.798  19.054  -8.823  0.00  0.00    +0.000 C 
BRANCH  10  12
ATOM     12  O   UNL     1       2.207  18.713  -7.066  0.00  0.00    +0.000 OA
ATOM     13  H   UNL     1       1.336  19.060  -6.811  0.00  0.00    +0.000 HD
ENDBRANCH  10  12
ENDBRANCH   9  10
ENDBRANCH   1   9
BRANCH   1  14
ATOM     14  C   UNL     1      -0.894  20.424  -8.286  0.00  0.00    +0.000 C 
BRANCH  14  15
ATOM     15  C   UNL     1      -0.145  21.117  -7.122  0.00  0.00    +0.000 C 
ATOM     16  C   UNL     1      -0.701  22.495  -6.788  0.00  0.00    +0.000 C 
BRANCH  15  17
ATOM     17  O   UNL     1      -0.173  20.328  -5.934  0.00  0.00    +0.000 OA
ATOM     18  H   UNL     1      -0.161  19.401  -6.245  0.00  0.00    +0.000 HD
ENDBRANCH  15  17
ENDBRANCH  14  15
ENDBRANCH   1  14
TORSDOF 7
ENDMDL
MODEL 4
REMARK VINA RESULT:    -3.983     13.121     16.071
REMARK INTER + INTRA:          -5.992
REMARK INTER:                  -5.430
REMARK INTRA:                  -0.563
REMARK UNBOUND:                -0.612
REMARK  Name = 
REMARK  10 active torsions:
REMARK  status: ('A' for Active; 'I' for Inactive)
REMARK    1  A    between atoms: C_1  and  C_2
REMARK    2  A    between atoms: C_5  and  N_8
REMARK    3  A    between atoms: N_8  and  C_9
REMARK    4  A    between atoms: N_8  and  C_13
REMARK    5  A    between atoms: C_9  and  C_10
REMARK    6  A    between atoms: C_10  and  C_11
REMARK    7  A    between atoms: C_10  and  O_12
REMARK    8  A    between atoms: C_13  and  C_14
REMARK    9  A    between atoms: C_14  and  C_15
REMARK   10  A    between atoms: C_14  and  O_16
REMARK                            x       y       z     vdW  Elec       q    Type
REMARK                         _______ _______ _______ _____ _____    ______ ____
ROOT
ATOM      1  N   UNL     1      15.125  20.801  -3.296  0.00  0.00    +0.000 N 
ENDROOT
BRANCH   1   6
ATOM      2  C   UNL     1       9.644  22.572  -3.690  0.00  0.00    +0.000 C 
ATOM      3  C   UNL     1      11.071  22.132  -3.573  0.00  0.00    +0.000 A 
ATOM      4  C   UNL     1      12.022  22.538  -4.503  0.00  0.00    +0.000 A 
ATOM      5  C   UNL     1      13.353  22.098  -4.406  0.00  0.00    +0.000 A 
ATOM      6  C   UNL     1      13.792  21.220  -3.399  0.00  0.00    +0.000 A 
ATOM      7  C   UNL     1      12.804  20.832  -2.475  0.00  0.00    +0.000 A 
ATOM      8  C   UNL     1      11.471  21.266  -2.560  0.00  0.00    +0.000 A 
ENDBRANCH   1   6
BRANCH   1   9
ATOM      9  C   UNL     1      16.227  21.779  -3.465  0.00  0.00    +0.000 C 
BRANCH   9  10
ATOM     10  C   UNL     1      16.662  22.429  -2.128  0.00  0.00    +0.000 C 
ATOM     11  C   UNL     1      15.961  23.765  -1.918  0.00  0.00    +0.000 C 
BRANCH  10  12
ATOM     12  O   UNL     1      16.344  21.580  -1.016  0.00  0.00    +0.000 OA
ATOM     13  H   UNL     1      16.159  20.690  -1.359  0.00  0.00    +0.000 HD
ENDBRANCH  10  12
ENDBRANCH   9  10
ENDBRANCH   1   9
BRANCH   1  14
ATOM     14  C   UNL     1      15.505  19.385  -3.531  0.00  0.00    +0.000 C 
BRANCH  14  15
ATOM     15  C   UNL     1      16.734  19.257  -4.464  0.00  0.00    +0.000 C 
ATOM     16  C   UNL     1      17.875  18.459  -3.846  0.00  0.00    +0.000 C 
BRANCH  15  17
ATOM     17  O   UNL     1      16.390  18.647  -5.707  0.00  0.00    +0.000 OA
ATOM     18  H   UNL     1      16.963  17.855  -5.767  0.00  0.00    +0.000 HD
ENDBRANCH  15  17
ENDBRANCH  14  15
ENDBRANCH   1  14
TORSDOF 7
ENDMDL
MODEL 5
REMARK VINA RESULT:    -3.889     12.541     14.455
REMARK INTER + INTRA:          -5.865
REMARK INTER:                  -5.350
REMARK INTRA:                  -0.515
REMARK UNBOUND:                -0.612
REMARK  Name = 
REMARK  10 active torsions:
REMARK  status: ('A' for Active; 'I' for Inactive)
REMARK    1  A    between atoms: C_1  and  C_2
REMARK    2  A    between atoms: C_5  and  N_8
REMARK    3  A    between atoms: N_8  and  C_9
REMARK    4  A    between atoms: N_8  and  C_13
REMARK    5  A    between atoms: C_9  and  C_10
REMARK    6  A    between atoms: C_10  and  C_11
REMARK    7  A    between atoms: C_10  and  O_12
REMARK    8  A    between atoms: C_13  and  C_14
REMARK    9  A    between atoms: C_14  and  C_15
REMARK   10  A    between atoms: C_14  and  O_16
REMARK                            x       y       z     vdW  Elec       q    Type
REMARK                         _______ _______ _______ _____ _____    ______ ____
ROOT
ATOM      1  N   UNL     1      13.072  22.188  -2.848  0.00  0.00    +0.000 N 
ENDROOT
BRANCH   1   6
ATOM      2  C   UNL     1       7.571  22.288  -1.101  0.00  0.00    +0.000 C 
ATOM      3  C   UNL     1       8.991  22.268  -1.578  0.00  0.00    +0.000 A 
ATOM      4  C   UNL     1       9.573  21.092  -2.038  0.00  0.00    +0.000 A 
ATOM      5  C   UNL     1      10.914  21.073  -2.456  0.00  0.00    +0.000 A 
ATOM      6  C   UNL     1      11.742  22.210  -2.412  0.00  0.00    +0.000 A 
ATOM      7  C   UNL     1      11.119  23.381  -1.943  0.00  0.00    +0.000 A 
ATOM      8  C   UNL     1       9.779  23.415  -1.525  0.00  0.00    +0.000 A 
ENDBRANCH   1   6
BRANCH   1   9
ATOM      9  C   UNL     1      13.482  22.989  -4.026  0.00  0.00    +0.000 C 
BRANCH   9  10
ATOM     10  C   UNL     1      12.629  22.689  -5.283  0.00  0.00    +0.000 C 
ATOM     11  C   UNL     1      11.699  23.854  -5.601  0.00  0.00    +0.000 C 
BRANCH  10  12
ATOM     12  O   UNL     1      13.462  22.460  -6.428  0.00  0.00    +0.000 OA
ATOM     13  H   UNL     1      13.113  22.989  -7.164  0.00  0.00    +0.000 HD
ENDBRANCH  10  12
ENDBRANCH   9  10
ENDBRANCH   1   9
BRANCH   1  14
ATOM     14  C   UNL     1      13.968  21.046  -2.528  0.00  0.00    +0.000 C 
BRANCH  14  15
ATOM     15  C   UNL     1      15.128  20.911  -3.542  0.00  0.00    +0.000 C 
ATOM     16  C   UNL     1      16.505  20.999  -2.894  0.00  0.00    +0.000 C 
BRANCH  15  17
ATOM     17  O   UNL     1      15.058  19.683  -4.264  0.00  0.00    +0.000 OA
ATOM     18  H   UNL     1      14.941  19.945  -5.199  0.00  0.00    +0.000 HD
ENDBRANCH  15  17
ENDBRANCH  14  15
ENDBRANCH   1  14
TORSDOF 7
ENDMDL
MODEL 6
REMARK VINA RESULT:    -3.846     12.435     15.589
REMARK INTER + INTRA:          -5.807
REMARK INTER:                  -5.217
REMARK INTRA:                  -0.590
REMARK UNBOUND:                -0.612
REMARK  Name = 
REMARK  10 active torsions:
REMARK  status: ('A' for Active; 'I' for Inactive)
REMARK    1  A    between atoms: C_1  and  C_2
REMARK    2  A    between atoms: C_5  and  N_8
REMARK    3  A    between atoms: N_8  and  C_9
REMARK    4  A    between atoms: N_8  and  C_13
REMARK    5  A    between atoms: C_9  and  C_10
REMARK    6  A    between atoms: C_10  and  C_11
REMARK    7  A    between atoms: C_10  and  O_12
REMARK    8  A    between atoms: C_13  and  C_14
REMARK    9  A    between atoms: C_14  and  C_15
REMARK   10  A    between atoms: C_14  and  O_16
REMARK                            x       y       z     vdW  Elec       q    Type
REMARK                         _______ _______ _______ _____ _____    ______ ____
ROOT
ATOM      1  N   UNL     1      14.550  22.081  -3.481  0.00  0.00    +0.000 N 
ENDROOT
BRANCH   1   6
ATOM      2  C   UNL     1       8.823  21.493  -3.044  0.00  0.00    +0.000 C 
ATOM      3  C   UNL     1      10.308  21.663  -3.140  0.00  0.00    +0.000 A 
ATOM      4  C   UNL     1      10.869  22.548  -4.056  0.00  0.00    +0.000 A 
ATOM      5  C   UNL     1      12.263  22.681  -4.162  0.00  0.00    +0.000 A 
ATOM      6  C   UNL     1      13.161  21.929  -3.384  0.00  0.00    +0.000 A 
ATOM      7  C   UNL     1      12.559  21.046  -2.467  0.00  0.00    +0.000 A 
ATOM      8  C   UNL     1      11.167  20.905  -2.350  0.00  0.00    +0.000 A 
ENDBRANCH   1   6
BRANCH   1   9
ATOM      9  C   UNL     1      15.452  21.132  -2.786  0.00  0.00    +0.000 C 
BRANCH   9  10
ATOM     10  C   UNL     1      15.957  19.997  -3.711  0.00  0.00    +0.000 C 
ATOM     11  C   UNL     1      17.409  19.650  -3.405  0.00  0.00    +0.000 C 
BRANCH  10  12
ATOM     12  O   UNL     1      15.171  18.809  -3.544  0.00  0.00    +0.000 OA
ATOM     13  H   UNL     1      14.446  18.833  -4.190  0.00  0.00    +0.000 HD
ENDBRANCH  10  12
ENDBRANCH   9  10
ENDBRANCH   1   9
BRANCH   1  14
ATOM     14  C   UNL     1      15.158  23.396  -3.806  0.00  0.00    +0.000 C 
BRANCH  14  15
ATOM     15  C   UNL     1      15.792  23.414  -5.218  0.00  0.00    +0.000 C 
ATOM     16  C   UNL     1      17.299  23.186  -5.201  0.00  0.00    +0.000 C 
BRANCH  15  17
ATOM     17  O   UNL     1      15.206  22.432  -6.071  0.00  0.00    +0.000 OA
ATOM     18  H   UNL     1      14.449  22.884  -6.494  0.00  0.00    +0.000 HD
ENDBRANCH  15  17
ENDBRANCH  14  15
ENDBRANCH   1  14
TORSDOF 7
ENDMDL
MODEL 7
REMARK VINA RESULT:    -3.845     11.755     14.360
REMARK INTER + INTRA:          -5.806
REMARK INTER:                  -5.236
REMARK INTRA:                  -0.570
REMARK UNBOUND:                -0.612
REMARK  Name = 
REMARK  10 active torsions:
REMARK  status: ('A' for Active; 'I' for Inactive)
REMARK    1  A    between atoms: C_1  and  C_2
REMARK    2  A    between atoms: C_5  and  N_8
REMARK    3  A    between atoms: N_8  and  C_9
REMARK    4  A    between atoms: N_8  and  C_13
REMARK    5  A    between atoms: C_9  and  C_10
REMARK    6  A    between atoms: C_10  and  C_11
REMARK    7  A    between atoms: C_10  and  O_12
REMARK    8  A    between atoms: C_13  and  C_14
REMARK    9  A    between atoms: C_14  and  C_15
REMARK   10  A    between atoms: C_14  and  O_16
REMARK                            x       y       z     vdW  Elec       q    Type
REMARK                         _______ _______ _______ _____ _____    ______ ____
ROOT
ATOM      1  N   UNL     1      12.885  21.997  -3.817  0.00  0.00    +0.000 N 
ENDROOT
BRANCH   1   6
ATOM      2  C   UNL     1       7.367  22.007  -2.120  0.00  0.00    +0.000 C 
ATOM      3  C   UNL     1       8.793  21.989  -2.579  0.00  0.00    +0.000 A 
ATOM      4  C   UNL     1       9.702  21.079  -2.050  0.00  0.00    +0.000 A 
ATOM      5  C   UNL     1      11.044  21.086  -2.462  0.00  0.00    +0.000 A 
ATOM      6  C   UNL     1      11.549  22.008  -3.396  0.00  0.00    +0.000 A 
ATOM      7  C   UNL     1      10.602  22.912  -3.912  0.00  0.00    +0.000 A 
ATOM      8  C   UNL     1       9.256  22.914  -3.510  0.00  0.00    +0.000 A 
ENDBRANCH   1   6
BRANCH   1   9
ATOM      9  C   UNL     1      13.773  20.870  -3.442  0.00  0.00    +0.000 C 
BRANCH   9  10
ATOM     10  C   UNL     1      14.971  21.315  -2.568  0.00  0.00    +0.000 C 
ATOM     11  C   UNL     1      14.535  21.555  -1.128  0.00  0.00    +0.000 C 
BRANCH  10  12
ATOM     12  O   UNL     1      16.001  20.317  -2.560  0.00  0.00    +0.000 OA
ATOM     13  H   UNL     1      16.816  20.723  -2.899  0.00  0.00    +0.000 HD
ENDBRANCH  10  12
ENDBRANCH   9  10
ENDBRANCH   1   9
BRANCH   1  14
ATOM     14  C   UNL     1      13.589  23.255  -4.173  0.00  0.00    +0.000 C 
BRANCH  14  15
ATOM     15  C   UNL     1      13.882  23.352  -5.690  0.00  0.00    +0.000 C 
ATOM     16  C   UNL     1      15.337  23.066  -6.039  0.00  0.00    +0.000 C 
BRANCH  15  17
ATOM     17  O   UNL     1      13.063  22.459  -6.443  0.00  0.00    +0.000 OA
ATOM     18  H   UNL     1      13.690  21.929  -6.974  0.00  0.00    +0.000 HD
ENDBRANCH  15  17
ENDBRANCH  14  15
ENDBRANCH   1  14
TORSDOF 7
ENDMDL
MODEL 8
REMARK VINA RESULT:    -3.815      1.735      3.408
REMARK INTER + INTRA:          -5.764
REMARK INTER:                  -5.212
REMARK INTRA:                  -0.553
REMARK UNBOUND:                -0.612
REMARK  Name = 
REMARK  10 active torsions:
REMARK  status: ('A' for Active; 'I' for Inactive)
REMARK    1  A    between atoms: C_1  and  C_2
REMARK    2  A    between atoms: C_5  and  N_8
REMARK    3  A    between atoms: N_8  and  C_9
REMARK    4  A    between atoms: N_8  and  C_13
REMARK    5  A    between atoms: C_9  and  C_10
REMARK    6  A    between atoms: C_10  and  C_11
REMARK    7  A    between atoms: C_10  and  O_12
REMARK    8  A    between atoms: C_13  and  C_14
REMARK    9  A    between atoms: C_14  and  C_15
REMARK   10  A    between atoms: C_14  and  O_16
REMARK                            x       y       z     vdW  Elec       q    Type
REMARK                         _______ _______ _______ _____ _____    ______ ____
ROOT
ATOM      1  N   UNL     1      -0.179  19.402  -9.614  0.00  0.00    +0.000 N 
ENDROOT
BRANCH   1   6
ATOM      2  C   UNL     1      -1.665  13.918 -10.635  0.00  0.00    +0.000 C 
ATOM      3  C   UNL     1      -1.264  15.333 -10.352  0.00  0.00    +0.000 A 
ATOM      4  C   UNL     1      -1.981  16.112  -9.451  0.00  0.00    +0.000 A 
ATOM      5  C   UNL     1      -1.619  17.448  -9.212  0.00  0.00    +0.000 A 
ATOM      6  C   UNL     1      -0.547  18.076  -9.871  0.00  0.00    +0.000 A 
ATOM      7  C   UNL     1       0.158  17.257 -10.774  0.00  0.00    +0.000 A 
ATOM      8  C   UNL     1      -0.193  15.920 -11.020  0.00  0.00    +0.000 A 
ENDBRANCH   1   6
BRANCH   1   9
ATOM      9  C   UNL     1       1.252  19.763  -9.475  0.00  0.00    +0.000 C 
BRANCH   9  10
ATOM     10  C   UNL     1       1.850  19.334  -8.113  0.00  0.00    +0.000 C 
ATOM     11  C   UNL     1       3.274  18.817  -8.280  0.00  0.00    +0.000 C 
BRANCH  10  12
ATOM     12  O   UNL     1       1.882  20.436  -7.195  0.00  0.00    +0.000 OA
ATOM     13  H   UNL     1       1.083  20.970  -7.337  0.00  0.00    +0.000 HD
ENDBRANCH  10  12
ENDBRANCH   9  10
ENDBRANCH   1   9
BRANCH   1  14
ATOM     14  C   UNL     1      -1.127  20.354  -8.980  0.00  0.00    +0.000 C 
BRANCH  14  15
ATOM     15  C   UNL     1      -1.892  21.201 -10.026  0.00  0.00    +0.000 C 
ATOM     16  C   UNL     1      -3.270  20.641 -10.358  0.00  0.00    +0.000 C 
BRANCH  15  17
ATOM     17  O   UNL     1      -2.055  22.550  -9.593  0.00  0.00    +0.000 OA
ATOM     18  H   UNL     1      -2.332  23.040 -10.394  0.00  0.00    +0.000 HD
ENDBRANCH  15  17
ENDBRANCH  14  15
ENDBRANCH   1  14
TORSDOF 7
ENDMDL
MODEL 9
REMARK VINA RESULT:    -3.809      1.796      2.460
REMARK INTER + INTRA:          -5.757
REMARK INTER:                  -5.204
REMARK INTRA:                  -0.553
REMARK UNBOUND:                -0.612
REMARK  Name = 
REMARK  10 active torsions:
REMARK  status: ('A' for Active; 'I' for Inactive)
REMARK    1  A    between atoms: C_1  and  C_2
REMARK    2  A    between atoms: C_5  and  N_8
REMARK    3  A    between atoms: N_8  and  C_9
REMARK    4  A    between atoms: N_8  and  C_13
REMARK    5  A    between atoms: C_9  and  C_10
REMARK    6  A    between atoms: C_10  and  C_11
REMARK    7  A    between atoms: C_10  and  O_12
REMARK    8  A    between atoms: C_13  and  C_14
REMARK    9  A    between atoms: C_14  and  C_15
REMARK   10  A    between atoms: C_14  and  O_16
REMARK                            x       y       z     vdW  Elec       q    Type
REMARK                         _______ _______ _______ _____ _____    ______ ____
ROOT
ATOM      1  N   UNL     1      -0.307  19.141  -9.226  0.00  0.00    +0.000 N 
ENDROOT
BRANCH   1   6
ATOM      2  C   UNL     1      -1.551  13.798 -11.026  0.00  0.00    +0.000 C 
ATOM      3  C   UNL     1      -1.243  15.194 -10.576  0.00  0.00    +0.000 A 
ATOM      4  C   UNL     1      -0.164  15.893 -11.105  0.00  0.00    +0.000 A 
ATOM      5  C   UNL     1       0.138  17.190 -10.658  0.00  0.00    +0.000 A 
ATOM      6  C   UNL     1      -0.601  17.840  -9.653  0.00  0.00    +0.000 A 
ATOM      7  C   UNL     1      -1.687  17.104  -9.143  0.00  0.00    +0.000 A 
ATOM      8  C   UNL     1      -2.000  15.807  -9.582  0.00  0.00    +0.000 A 
ENDBRANCH   1   6
BRANCH   1   9
ATOM      9  C   UNL     1      -1.393  20.140  -9.082  0.00  0.00    +0.000 C 
BRANCH   9  10
ATOM     10  C   UNL     1      -1.640  20.949 -10.379  0.00  0.00    +0.000 C 
ATOM     11  C   UNL     1      -2.747  20.316 -11.214  0.00  0.00    +0.000 C 
BRANCH  10  12
ATOM     12  O   UNL     1      -2.026  22.297 -10.078  0.00  0.00    +0.000 OA
ATOM     13  H   UNL     1      -2.794  22.266  -9.484  0.00  0.00    +0.000 HD
ENDBRANCH  10  12
ENDBRANCH   9  10
ENDBRANCH   1   9
BRANCH   1  14
ATOM     14  C   UNL     1       1.052  19.716  -9.394  0.00  0.00    +0.000 C 
BRANCH  14  15
ATOM     15  C   UNL     1       2.002  19.318  -8.239  0.00  0.00    +0.000 C 
ATOM     16  C   UNL     1       3.448  19.139  -8.687  0.00  0.00    +0.000 C 
BRANCH  15  17
ATOM     17  O   UNL     1       1.982  20.279  -7.185  0.00  0.00    +0.000 OA
ATOM     18  H   UNL     1       1.573  21.077  -7.578  0.00  0.00    +0.000 HD
ENDBRANCH  15  17
ENDBRANCH  14  15
ENDBRANCH   1  14
TORSDOF 7
ENDMDL
