MODEL 1
REMARK VINA RESULT:    -4.227      0.000      0.000
REMARK INTER + INTRA:          -4.637
REMARK INTER:                  -4.598
REMARK INTRA:                  -0.039
REMARK UNBOUND:                -0.039
REMARK  Name = 
REMARK  3 active torsions:
REMARK  status: ('A' for Active; 'I' for Inactive)
REMARK    1  A    between atoms: C_1  and  O_2
REMARK    2  A    between atoms: O_2  and  C_3
REMARK    3  A    between atoms: C_8  and  O_9
REMARK                            x       y       z     vdW  Elec       q    Type
REMARK                         _______ _______ _______ _____ _____    ______ ____
ROOT
ATOM      1  C   UNL     1       2.919  15.858 -13.730  0.00  0.00    +0.000 A 
ATOM      2  C   UNL     1       2.253  16.227 -14.898  0.00  0.00    +0.000 A 
ATOM      3  C   UNL     1       1.327  15.352 -15.481  0.00  0.00    +0.000 A 
ATOM      4  C   UNL     1       1.064  14.110 -14.900  0.00  0.00    +0.000 A 
ATOM      5  C   UNL     1       1.725  13.735 -13.733  0.00  0.00    +0.000 A 
ATOM      6  C   UNL     1       2.642  14.608 -13.162  0.00  0.00    +0.000 A 
ENDROOT
BRANCH   1   8
ATOM      7  C   UNL     1       4.503  17.628 -13.799  0.00  0.00    +0.000 C 
ATOM      8  O   UNL     1       3.847  16.609 -13.054  0.00  0.00    +0.000 OA
ENDBRANCH   1   8
BRANCH   6   9
ATOM      9  O   UNL     1       3.280  14.217 -12.015  0.00  0.00    +0.000 OA
ATOM     10  H   UNL     1       3.269  13.241 -12.046  0.00  0.00    +0.000 HD
ENDBRANCH   6   9
TORSDOF 2
ENDMDL
MODEL 2
REMARK VINA RESULT:    -4.180      2.161      3.511
REMARK INTER + INTRA:          -4.585
REMARK INTER:                  -4.547
REMARK INTRA:                  -0.038
REMARK UNBOUND:                -0.039
REMARK  Name = 
REMARK  3 active torsions:
REMARK  status: ('A' for Active; 'I' for Inactive)
REMARK    1  A    between atoms: C_1  and  O_2
REMARK    2  A    between atoms: O_2  and  C_3
REMARK    3  A    between atoms: C_8  and  O_9
REMARK                            x       y       z     vdW  Elec       q    Type
REMARK                         _______ _______ _______ _____ _____    ______ ____
ROOT
ATOM      1  C   UNL     1       1.476  14.207 -15.108  0.00  0.00    +0.000 A 
ATOM      2  C   UNL     1       2.348  15.169 -15.618  0.00  0.00    +0.000 A 
ATOM      3  C   UNL     1       3.280  15.785 -14.773  0.00  0.00    +0.000 A 
ATOM      4  C   UNL     1       3.344  15.444 -13.421  0.00  0.00    +0.000 A 
ATOM      5  C   UNL     1       2.477  14.484 -12.905  0.00  0.00    +0.000 A 
ATOM      6  C   UNL     1       1.556  13.878 -13.749  0.00  0.00    +0.000 A 
ENDROOT
BRANCH   1   8
ATOM      7  C   UNL     1       0.977  12.478 -16.660  0.00  0.00    +0.000 C 
ATOM      8  O   UNL     1       0.518  13.526 -15.815  0.00  0.00    +0.000 OA
ENDBRANCH   1   8
BRANCH   6   9
ATOM      9  O   UNL     1       0.714  12.937 -13.219  0.00  0.00    +0.000 OA
ATOM     10  H   UNL     1       0.817  12.157 -13.797  0.00  0.00    +0.000 HD
ENDBRANCH   6   9
TORSDOF 2
ENDMDL
MODEL 3
REMARK VINA RESULT:    -4.156     16.015     17.056
REMARK INTER + INTRA:          -4.559
REMARK INTER:                  -4.508
REMARK INTRA:                  -0.051
REMARK UNBOUND:                -0.039
REMARK  Name = 
REMARK  3 active torsions:
REMARK  status: ('A' for Active; 'I' for Inactive)
REMARK    1  A    between atoms: C_1  and  O_2
REMARK    2  A    between atoms: O_2  and  C_3
REMARK    3  A    between atoms: C_8  and  O_9
REMARK                            x       y       z     vdW  Elec       q    Type
REMARK                         _______ _______ _______ _____ _____    ______ ____
ROOT
ATOM      1  C   UNL     1       3.143  17.869   3.006  0.00  0.00    +0.000 A 
ATOM      2  C   UNL     1       3.659  18.856   3.845  0.00  0.00    +0.000 A 
ATOM      3  C   UNL     1       4.462  19.874   3.316  0.00  0.00    +0.000 A 
ATOM      4  C   UNL     1       4.752  19.910   1.950  0.00  0.00    +0.000 A 
ATOM      5  C   UNL     1       4.239  18.928   1.106  0.00  0.00    +0.000 A 
ATOM      6  C   UNL     1       3.443  17.922   1.639  0.00  0.00    +0.000 A 
ENDROOT
BRANCH   1   8
ATOM      7  C   UNL     1       1.142  17.147   4.066  0.00  0.00    +0.000 C 
ATOM      8  O   UNL     1       2.347  16.818   3.384  0.00  0.00    +0.000 OA
ENDBRANCH   1   8
BRANCH   6   9
ATOM      9  O   UNL     1       2.951  16.968   0.789  0.00  0.00    +0.000 OA
ATOM     10  H   UNL     1       3.739  16.492   0.466  0.00  0.00    +0.000 HD
ENDBRANCH   6   9
TORSDOF 2
ENDMDL
MODEL 4
REMARK VINA RESULT:    -4.117     15.567     16.404
REMARK INTER + INTRA:          -4.517
REMARK INTER:                  -4.465
REMARK INTRA:                  -0.052
REMARK UNBOUND:                -0.039
REMARK  Name = 
REMARK  3 active torsions:
REMARK  status: ('A' for Active; 'I' for Inactive)
REMARK    1  A    between atoms: C_1  and  O_2
REMARK    2  A    between atoms: O_2  and  C_3
REMARK    3  A    between atoms: C_8  and  O_9
REMARK                            x       y       z     vdW  Elec       q    Type
REMARK                         _______ _______ _______ _____ _____    ______ ____
ROOT
ATOM      1  C   UNL     1       3.981  18.899   1.671  0.00  0.00    +0.000 A 
ATOM      2  C   UNL     1       4.241  19.484   2.910  0.00  0.00    +0.000 A 
ATOM      3  C   UNL     1       3.633  18.976   4.065  0.00  0.00    +0.000 A 
ATOM      4  C   UNL     1       2.765  17.885   3.986  0.00  0.00    +0.000 A 
ATOM      5  C   UNL     1       2.501  17.294   2.753  0.00  0.00    +0.000 A 
ATOM      6  C   UNL     1       3.108  17.805   1.612  0.00  0.00    +0.000 A 
ENDROOT
BRANCH   1   8
ATOM      7  C   UNL     1       4.203  20.615   0.043  0.00  0.00    +0.000 C 
ATOM      8  O   UNL     1       4.503  19.290   0.464  0.00  0.00    +0.000 OA
ENDBRANCH   1   8
BRANCH   6   9
ATOM      9  O   UNL     1       2.833  17.208   0.411  0.00  0.00    +0.000 OA
ATOM     10  H   UNL     1       3.479  16.479   0.343  0.00  0.00    +0.000 HD
ENDBRANCH   6   9
TORSDOF 2
ENDMDL
MODEL 5
REMARK VINA RESULT:    -4.103      3.206      4.385
REMARK INTER + INTRA:          -4.502
REMARK INTER:                  -4.462
REMARK INTRA:                  -0.040
REMARK UNBOUND:                -0.039
REMARK  Name = 
REMARK  3 active torsions:
REMARK  status: ('A' for Active; 'I' for Inactive)
REMARK    1  A    between atoms: C_1  and  O_2
REMARK    2  A    between atoms: O_2  and  C_3
REMARK    3  A    between atoms: C_8  and  O_9
REMARK                            x       y       z     vdW  Elec       q    Type
REMARK                         _______ _______ _______ _____ _____    ______ ____
ROOT
ATOM      1  C   UNL     1       0.384  12.613 -14.622  0.00  0.00    +0.000 A 
ATOM      2  C   UNL     1       1.043  12.453 -15.840  0.00  0.00    +0.000 A 
ATOM      3  C   UNL     1       0.415  11.774 -16.891  0.00  0.00    +0.000 A 
ATOM      4  C   UNL     1      -0.870  11.254 -16.730  0.00  0.00    +0.000 A 
ATOM      5  C   UNL     1      -1.536  11.410 -15.517  0.00  0.00    +0.000 A 
ATOM      6  C   UNL     1      -0.905  12.085 -14.479  0.00  0.00    +0.000 A 
ENDROOT
BRANCH   1   8
ATOM      7  C   UNL     1       1.861  14.252 -13.739  0.00  0.00    +0.000 C 
ATOM      8  O   UNL     1       0.876  13.251 -13.511  0.00  0.00    +0.000 OA
ENDBRANCH   1   8
BRANCH   6   9
ATOM      9  O   UNL     1      -1.579  12.226 -13.295  0.00  0.00    +0.000 OA
ATOM     10  H   UNL     1      -2.517  12.084 -13.525  0.00  0.00    +0.000 HD
ENDBRANCH   6   9
TORSDOF 2
ENDMDL
MODEL 6
REMARK VINA RESULT:    -4.074     15.136     16.056
REMARK INTER + INTRA:          -4.471
REMARK INTER:                  -4.418
REMARK INTRA:                  -0.053
REMARK UNBOUND:                -0.039
REMARK  Name = 
REMARK  3 active torsions:
REMARK  status: ('A' for Active; 'I' for Inactive)
REMARK    1  A    between atoms: C_1  and  O_2
REMARK    2  A    between atoms: O_2  and  C_3
REMARK    3  A    between atoms: C_8  and  O_9
REMARK                            x       y       z     vdW  Elec       q    Type
REMARK                         _______ _______ _______ _____ _____    ______ ____
ROOT
ATOM      1  C   UNL     1       3.994  18.590   0.944  0.00  0.00    +0.000 A 
ATOM      2  C   UNL     1       4.448  19.871   1.251  0.00  0.00    +0.000 A 
ATOM      3  C   UNL     1       4.507  20.292   2.586  0.00  0.00    +0.000 A 
ATOM      4  C   UNL     1       4.113  19.435   3.616  0.00  0.00    +0.000 A 
ATOM      5  C   UNL     1       3.658  18.153   3.317  0.00  0.00    +0.000 A 
ATOM      6  C   UNL     1       3.602  17.745   1.990  0.00  0.00    +0.000 A 
ENDROOT
BRANCH   1   8
ATOM      7  C   UNL     1       2.889  18.610  -1.160  0.00  0.00    +0.000 C 
ATOM      8  O   UNL     1       3.883  18.048  -0.312  0.00  0.00    +0.000 OA
ENDBRANCH   1   8
BRANCH   6   9
ATOM      9  O   UNL     1       3.152  16.480   1.721  0.00  0.00    +0.000 OA
ATOM     10  H   UNL     1       3.949  15.918   1.762  0.00  0.00    +0.000 HD
ENDBRANCH   6   9
TORSDOF 2
ENDMDL
MODEL 7
REMARK VINA RESULT:    -3.938     15.613     16.424
REMARK INTER + INTRA:          -4.322
REMARK INTER:                  -4.272
REMARK INTRA:                  -0.051
REMARK UNBOUND:                -0.039
REMARK  Name = 
REMARK  3 active torsions:
REMARK  status: ('A' for Active; 'I' for Inactive)
REMARK    1  A    between atoms: C_1  and  O_2
REMARK    2  A    between atoms: O_2  and  C_3
REMARK    3  A    between atoms: C_8  and  O_9
REMARK                            x       y       z     vdW  Elec       q    Type
REMARK                         _______ _______ _______ _____ _____    ______ ____
ROOT
ATOM      1  C   UNL     1       4.110  19.241   1.362  0.00  0.00    +0.000 A 
ATOM      2  C   UNL     1       3.808  17.909   1.079  0.00  0.00    +0.000 A 
ATOM      3  C   UNL     1       3.342  17.066   2.095  0.00  0.00    +0.000 A 
ATOM      4  C   UNL     1       3.177  17.549   3.395  0.00  0.00    +0.000 A 
ATOM      5  C   UNL     1       3.476  18.878   3.686  0.00  0.00    +0.000 A 
ATOM      6  C   UNL     1       3.938  19.707   2.672  0.00  0.00    +0.000 A 
ENDROOT
BRANCH   1   8
ATOM      7  C   UNL     1       3.776  20.399  -0.685  0.00  0.00    +0.000 C 
ATOM      8  O   UNL     1       4.574  20.175   0.471  0.00  0.00    +0.000 OA
ENDBRANCH   1   8
BRANCH   6   9
ATOM      9  O   UNL     1       4.225  21.009   2.982  0.00  0.00    +0.000 OA
ATOM     10  H   UNL     1       3.391  21.491   2.827  0.00  0.00    +0.000 HD
ENDBRANCH   6   9
TORSDOF 2
ENDMDL
MODEL 8
REMARK VINA RESULT:    -3.912     15.131     16.023
REMARK INTER + INTRA:          -4.294
REMARK INTER:                  -4.246
REMARK INTRA:                  -0.049
REMARK UNBOUND:                -0.039
REMARK  Name = 
REMARK  3 active torsions:
REMARK  status: ('A' for Active; 'I' for Inactive)
REMARK    1  A    between atoms: C_1  and  O_2
REMARK    2  A    between atoms: O_2  and  C_3
REMARK    3  A    between atoms: C_8  and  O_9
REMARK                            x       y       z     vdW  Elec       q    Type
REMARK                         _______ _______ _______ _____ _____    ______ ____
ROOT
ATOM      1  C   UNL     1       1.881  18.301   1.375  0.00  0.00    +0.000 A 
ATOM      2  C   UNL     1       1.064  18.422   2.498  0.00  0.00    +0.000 A 
ATOM      3  C   UNL     1       1.377  17.722   3.671  0.00  0.00    +0.000 A 
ATOM      4  C   UNL     1       2.504  16.900   3.724  0.00  0.00    +0.000 A 
ATOM      5  C   UNL     1       3.326  16.775   2.607  0.00  0.00    +0.000 A 
ATOM      6  C   UNL     1       3.007  17.472   1.448  0.00  0.00    +0.000 A 
ENDROOT
BRANCH   1   8
ATOM      7  C   UNL     1       0.624  18.445  -0.636  0.00  0.00    +0.000 C 
ATOM      8  O   UNL     1       1.696  18.924   0.167  0.00  0.00    +0.000 OA
ENDBRANCH   1   8
BRANCH   6   9
ATOM      9  O   UNL     1       3.830  17.332   0.363  0.00  0.00    +0.000 OA
ATOM     10  H   UNL     1       3.758  16.390   0.117  0.00  0.00    +0.000 HD
ENDBRANCH   6   9
TORSDOF 2
ENDMDL
MODEL 9
REMARK VINA RESULT:    -3.904     14.170     14.990
REMARK INTER + INTRA:          -4.285
REMARK INTER:                  -4.232
REMARK INTRA:                  -0.053
REMARK UNBOUND:                -0.039
REMARK  Name = 
REMARK  3 active torsions:
REMARK  status: ('A' for Active; 'I' for Inactive)
REMARK    1  A    between atoms: C_1  and  O_2
REMARK    2  A    between atoms: O_2  and  C_3
REMARK    3  A    between atoms: C_8  and  O_9
REMARK                            x       y       z     vdW  Elec       q    Type
REMARK                         _______ _______ _______ _____ _____    ______ ____
ROOT
ATOM      1  C   UNL     1       4.064  19.144   0.910  0.00  0.00    +0.000 A 
ATOM      2  C   UNL     1       4.288  20.374   0.293  0.00  0.00    +0.000 A 
ATOM      3  C   UNL     1       3.667  20.669  -0.927  0.00  0.00    +0.000 A 
ATOM      4  C   UNL     1       2.823  19.739  -1.534  0.00  0.00    +0.000 A 
ATOM      5  C   UNL     1       2.593  18.507  -0.925  0.00  0.00    +0.000 A 
ATOM      6  C   UNL     1       3.213  18.223   0.285  0.00  0.00    +0.000 A 
ENDROOT
BRANCH   1   8
ATOM      7  C   UNL     1       4.209  19.437   3.263  0.00  0.00    +0.000 C 
ATOM      8  O   UNL     1       4.603  18.722   2.099  0.00  0.00    +0.000 OA
ENDBRANCH   1   8
BRANCH   6   9
ATOM      9  O   UNL     1       2.972  17.006   0.865  0.00  0.00    +0.000 OA
ATOM     10  H   UNL     1       2.267  16.607   0.321  0.00  0.00    +0.000 HD
ENDBRANCH   6   9
TORSDOF 2
ENDMDL
