MODEL 1
REMARK VINA RESULT:    -3.490      0.000      0.000
REMARK INTER + INTRA:          -3.837
REMARK INTER:                  -3.796
REMARK INTRA:                  -0.042
REMARK UNBOUND:                -0.042
REMARK  Name = 
REMARK  3 active torsions:
REMARK  status: ('A' for Active; 'I' for Inactive)
REMARK    1  A    between atoms: C_1  and  O_2
REMARK    2  A    between atoms: O_2  and  C_3
REMARK    3  A    between atoms: C_8  and  O_9
REMARK                            x       y       z     vdW  Elec       q    Type
REMARK                         _______ _______ _______ _____ _____    ______ ____
ROOT
ATOM      1  C   UNL     1      15.784  -6.342  43.761  0.00  0.00    +0.000 A 
ATOM      2  C   UNL     1      15.112  -7.523  43.449  0.00  0.00    +0.000 A 
ATOM      3  C   UNL     1      13.853  -7.471  42.837  0.00  0.00    +0.000 A 
ATOM      4  C   UNL     1      13.263  -6.242  42.537  0.00  0.00    +0.000 A 
ATOM      5  C   UNL     1      13.928  -5.058  42.845  0.00  0.00    +0.000 A 
ATOM      6  C   UNL     1      15.176  -5.119  43.452  0.00  0.00    +0.000 A 
ENDROOT
BRANCH   1   8
ATOM      7  C   UNL     1      17.942  -7.284  44.078  0.00  0.00    +0.000 C 
ATOM      8  O   UNL     1      17.015  -6.243  44.358  0.00  0.00    +0.000 OA
ENDBRANCH   1   8
BRANCH   6   9
ATOM      9  O   UNL     1      15.811  -3.941  43.746  0.00  0.00    +0.000 OA
ATOM     10  H   UNL     1      16.697  -4.208  44.055  0.00  0.00    +0.000 HD
ENDBRANCH   6   9
TORSDOF 2
ENDMDL
MODEL 2
REMARK VINA RESULT:    -3.489      5.026      6.288
REMARK INTER + INTRA:          -3.836
REMARK INTER:                  -3.789
REMARK INTRA:                  -0.047
REMARK UNBOUND:                -0.042
REMARK  Name = 
REMARK  3 active torsions:
REMARK  status: ('A' for Active; 'I' for Inactive)
REMARK    1  A    between atoms: C_1  and  O_2
REMARK    2  A    between atoms: O_2  and  C_3
REMARK    3  A    between atoms: C_8  and  O_9
REMARK                            x       y       z     vdW  Elec       q    Type
REMARK                         _______ _______ _______ _____ _____    ______ ____
ROOT
ATOM      1  C   UNL     1      10.445  -3.335  43.574  0.00  0.00    +0.000 A 
ATOM      2  C   UNL     1      10.238  -4.361  44.496  0.00  0.00    +0.000 A 
ATOM      3  C   UNL     1       9.665  -4.076  45.742  0.00  0.00    +0.000 A 
ATOM      4  C   UNL     1       9.299  -2.770  46.071  0.00  0.00    +0.000 A 
ATOM      5  C   UNL     1       9.502  -1.740  45.155  0.00  0.00    +0.000 A 
ATOM      6  C   UNL     1      10.071  -2.031  43.922  0.00  0.00    +0.000 A 
ENDROOT
BRANCH   1   8
ATOM      7  C   UNL     1      12.194  -4.225  42.234  0.00  0.00    +0.000 C 
ATOM      8  O   UNL     1      10.993  -3.467  42.323  0.00  0.00    +0.000 OA
ENDBRANCH   1   8
BRANCH   6   9
ATOM      9  O   UNL     1      10.261  -1.002  43.038  0.00  0.00    +0.000 OA
ATOM     10  H   UNL     1       9.366  -0.787  42.712  0.00  0.00    +0.000 HD
ENDBRANCH   6   9
TORSDOF 2
ENDMDL
MODEL 3
REMARK VINA RESULT:    -3.434      1.605      3.216
REMARK INTER + INTRA:          -3.777
REMARK INTER:                  -3.724
REMARK INTRA:                  -0.053
REMARK UNBOUND:                -0.042
REMARK  Name = 
REMARK  3 active torsions:
REMARK  status: ('A' for Active; 'I' for Inactive)
REMARK    1  A    between atoms: C_1  and  O_2
REMARK    2  A    between atoms: O_2  and  C_3
REMARK    3  A    between atoms: C_8  and  O_9
REMARK                            x       y       z     vdW  Elec       q    Type
REMARK                         _______ _______ _______ _____ _____    ______ ____
ROOT
ATOM      1  C   UNL     1      15.508  -7.071  43.632  0.00  0.00    +0.000 A 
ATOM      2  C   UNL     1      14.542  -7.990  43.226  0.00  0.00    +0.000 A 
ATOM      3  C   UNL     1      14.545  -9.288  43.754  0.00  0.00    +0.000 A 
ATOM      4  C   UNL     1      15.512  -9.671  44.685  0.00  0.00    +0.000 A 
ATOM      5  C   UNL     1      16.480  -8.758  45.097  0.00  0.00    +0.000 A 
ATOM      6  C   UNL     1      16.469  -7.473  44.568  0.00  0.00    +0.000 A 
ENDROOT
BRANCH   1   8
ATOM      7  C   UNL     1      14.570  -4.889  43.559  0.00  0.00    +0.000 C 
ATOM      8  O   UNL     1      15.625  -5.774  43.201  0.00  0.00    +0.000 OA
ENDBRANCH   1   8
BRANCH   6   9
ATOM      9  O   UNL     1      17.431  -6.593  44.987  0.00  0.00    +0.000 OA
ATOM     10  H   UNL     1      16.954  -5.755  45.136  0.00  0.00    +0.000 HD
ENDBRANCH   6   9
TORSDOF 2
ENDMDL
MODEL 4
REMARK VINA RESULT:    -3.416      6.593      7.949
REMARK INTER + INTRA:          -3.757
REMARK INTER:                  -3.710
REMARK INTRA:                  -0.047
REMARK UNBOUND:                -0.042
REMARK  Name = 
REMARK  3 active torsions:
REMARK  status: ('A' for Active; 'I' for Inactive)
REMARK    1  A    between atoms: C_1  and  O_2
REMARK    2  A    between atoms: O_2  and  C_3
REMARK    3  A    between atoms: C_8  and  O_9
REMARK                            x       y       z     vdW  Elec       q    Type
REMARK                         _______ _______ _______ _____ _____    ______ ____
ROOT
ATOM      1  C   UNL     1       9.368  -1.035  45.179  0.00  0.00    +0.000 A 
ATOM      2  C   UNL     1       9.058  -1.952  46.182  0.00  0.00    +0.000 A 
ATOM      3  C   UNL     1       9.313  -3.315  45.987  0.00  0.00    +0.000 A 
ATOM      4  C   UNL     1       9.876  -3.766  44.792  0.00  0.00    +0.000 A 
ATOM      5  C   UNL     1      10.190  -2.855  43.785  0.00  0.00    +0.000 A 
ATOM      6  C   UNL     1       9.933  -1.505  43.987  0.00  0.00    +0.000 A 
ENDROOT
BRANCH   1   8
ATOM      7  C   UNL     1       9.609   0.980  46.416  0.00  0.00    +0.000 C 
ATOM      8  O   UNL     1       9.173   0.322  45.232  0.00  0.00    +0.000 OA
ENDBRANCH   1   8
BRANCH   6   9
ATOM      9  O   UNL     1      10.249  -0.629  42.983  0.00  0.00    +0.000 OA
ATOM     10  H   UNL     1       9.490  -0.018  42.939  0.00  0.00    +0.000 HD
ENDBRANCH   6   9
TORSDOF 2
ENDMDL
MODEL 5
REMARK VINA RESULT:    -3.339      1.327      3.110
REMARK INTER + INTRA:          -3.673
REMARK INTER:                  -3.625
REMARK INTRA:                  -0.049
REMARK UNBOUND:                -0.042
REMARK  Name = 
REMARK  3 active torsions:
REMARK  status: ('A' for Active; 'I' for Inactive)
REMARK    1  A    between atoms: C_1  and  O_2
REMARK    2  A    between atoms: O_2  and  C_3
REMARK    3  A    between atoms: C_8  and  O_9
REMARK                            x       y       z     vdW  Elec       q    Type
REMARK                         _______ _______ _______ _____ _____    ______ ____
ROOT
ATOM      1  C   UNL     1      14.861  -6.317  43.174  0.00  0.00    +0.000 A 
ATOM      2  C   UNL     1      14.904  -7.696  43.379  0.00  0.00    +0.000 A 
ATOM      3  C   UNL     1      15.936  -8.257  44.143  0.00  0.00    +0.000 A 
ATOM      4  C   UNL     1      16.925  -7.446  44.701  0.00  0.00    +0.000 A 
ATOM      5  C   UNL     1      16.888  -6.068  44.501  0.00  0.00    +0.000 A 
ATOM      6  C   UNL     1      15.862  -5.519  43.742  0.00  0.00    +0.000 A 
ENDROOT
BRANCH   1   8
ATOM      7  C   UNL     1      12.556  -5.898  42.776  0.00  0.00    +0.000 C 
ATOM      8  O   UNL     1      13.916  -5.634  42.451  0.00  0.00    +0.000 OA
ENDBRANCH   1   8
BRANCH   6   9
ATOM      9  O   UNL     1      15.847  -4.162  43.559  0.00  0.00    +0.000 OA
ATOM     10  H   UNL     1      16.742  -3.867  43.815  0.00  0.00    +0.000 HD
ENDBRANCH   6   9
TORSDOF 2
ENDMDL
MODEL 6
REMARK VINA RESULT:    -3.328      7.710      9.057
REMARK INTER + INTRA:          -3.661
REMARK INTER:                  -3.610
REMARK INTRA:                  -0.051
REMARK UNBOUND:                -0.042
REMARK  Name = 
REMARK  3 active torsions:
REMARK  status: ('A' for Active; 'I' for Inactive)
REMARK    1  A    between atoms: C_1  and  O_2
REMARK    2  A    between atoms: O_2  and  C_3
REMARK    3  A    between atoms: C_8  and  O_9
REMARK                            x       y       z     vdW  Elec       q    Type
REMARK                         _______ _______ _______ _____ _____    ______ ____
ROOT
ATOM      1  C   UNL     1       8.921  -1.260  46.230  0.00  0.00    +0.000 A 
ATOM      2  C   UNL     1       8.693  -1.283  47.606  0.00  0.00    +0.000 A 
ATOM      3  C   UNL     1       8.993  -0.157  48.383  0.00  0.00    +0.000 A 
ATOM      4  C   UNL     1       9.520   0.992  47.792  0.00  0.00    +0.000 A 
ATOM      5  C   UNL     1       9.750   1.023  46.418  0.00  0.00    +0.000 A 
ATOM      6  C   UNL     1       9.451  -0.098  45.655  0.00  0.00    +0.000 A 
ENDROOT
BRANCH   1   8
ATOM      7  C   UNL     1       9.332  -3.518  45.616  0.00  0.00    +0.000 C 
ATOM      8  O   UNL     1       8.677  -2.284  45.351  0.00  0.00    +0.000 OA
ENDBRANCH   1   8
BRANCH   6   9
ATOM      9  O   UNL     1       9.685  -0.044  44.307  0.00  0.00    +0.000 OA
ATOM     10  H   UNL     1       9.819   0.904  44.116  0.00  0.00    +0.000 HD
ENDBRANCH   6   9
TORSDOF 2
ENDMDL
MODEL 7
REMARK VINA RESULT:    -3.315      2.067      3.839
REMARK INTER + INTRA:          -3.647
REMARK INTER:                  -3.598
REMARK INTRA:                  -0.050
REMARK UNBOUND:                -0.042
REMARK  Name = 
REMARK  3 active torsions:
REMARK  status: ('A' for Active; 'I' for Inactive)
REMARK    1  A    between atoms: C_1  and  O_2
REMARK    2  A    between atoms: O_2  and  C_3
REMARK    3  A    between atoms: C_8  and  O_9
REMARK                            x       y       z     vdW  Elec       q    Type
REMARK                         _______ _______ _______ _____ _____    ______ ____
ROOT
ATOM      1  C   UNL     1      16.633  -7.365  43.941  0.00  0.00    +0.000 A 
ATOM      2  C   UNL     1      16.272  -8.153  45.033  0.00  0.00    +0.000 A 
ATOM      3  C   UNL     1      16.639  -9.504  45.073  0.00  0.00    +0.000 A 
ATOM      4  C   UNL     1      17.365 -10.072  44.024  0.00  0.00    +0.000 A 
ATOM      5  C   UNL     1      17.730  -9.291  42.930  0.00  0.00    +0.000 A 
ATOM      6  C   UNL     1      17.361  -7.952  42.898  0.00  0.00    +0.000 A 
ENDROOT
BRANCH   1   8
ATOM      7  C   UNL     1      14.984  -5.714  43.491  0.00  0.00    +0.000 C 
ATOM      8  O   UNL     1      16.342  -6.036  43.768  0.00  0.00    +0.000 OA
ENDBRANCH   1   8
BRANCH   6   9
ATOM      9  O   UNL     1      17.731  -7.205  41.812  0.00  0.00    +0.000 OA
ATOM     10  H   UNL     1      18.402  -7.747  41.355  0.00  0.00    +0.000 HD
ENDBRANCH   6   9
TORSDOF 2
ENDMDL
MODEL 8
REMARK VINA RESULT:    -3.291     12.330     13.360
REMARK INTER + INTRA:          -3.622
REMARK INTER:                  -3.663
REMARK INTRA:                   0.041
REMARK UNBOUND:                -0.042
REMARK  Name = 
REMARK  3 active torsions:
REMARK  status: ('A' for Active; 'I' for Inactive)
REMARK    1  A    between atoms: C_1  and  O_2
REMARK    2  A    between atoms: O_2  and  C_3
REMARK    3  A    between atoms: C_8  and  O_9
REMARK                            x       y       z     vdW  Elec       q    Type
REMARK                         _______ _______ _______ _____ _____    ______ ____
ROOT
ATOM      1  C   UNL     1      22.353  -6.126  54.029  0.00  0.00    +0.000 A 
ATOM      2  C   UNL     1      22.275  -6.294  55.411  0.00  0.00    +0.000 A 
ATOM      3  C   UNL     1      22.860  -7.415  56.013  0.00  0.00    +0.000 A 
ATOM      4  C   UNL     1      23.522  -8.370  55.239  0.00  0.00    +0.000 A 
ATOM      5  C   UNL     1      23.604  -8.209  53.858  0.00  0.00    +0.000 A 
ATOM      6  C   UNL     1      23.021  -7.094  53.269  0.00  0.00    +0.000 A 
ENDROOT
BRANCH   1   8
ATOM      7  C   UNL     1      22.662  -3.943  53.143  0.00  0.00    +0.000 C 
ATOM      8  O   UNL     1      21.828  -5.083  53.308  0.00  0.00    +0.000 OA
ENDBRANCH   1   8
BRANCH   6   9
ATOM      9  O   UNL     1      23.114  -6.958  51.910  0.00  0.00    +0.000 OA
ATOM     10  H   UNL     1      23.917  -7.456  51.665  0.00  0.00    +0.000 HD
ENDBRANCH   6   9
TORSDOF 2
ENDMDL
MODEL 9
REMARK VINA RESULT:    -3.171      2.138      2.654
REMARK INTER + INTRA:          -3.490
REMARK INTER:                  -3.450
REMARK INTRA:                  -0.040
REMARK UNBOUND:                -0.042
REMARK  Name = 
REMARK  3 active torsions:
REMARK  status: ('A' for Active; 'I' for Inactive)
REMARK    1  A    between atoms: C_1  and  O_2
REMARK    2  A    between atoms: O_2  and  C_3
REMARK    3  A    between atoms: C_8  and  O_9
REMARK                            x       y       z     vdW  Elec       q    Type
REMARK                         _______ _______ _______ _____ _____    ______ ____
ROOT
ATOM      1  C   UNL     1      17.011  -7.892  43.993  0.00  0.00    +0.000 A 
ATOM      2  C   UNL     1      16.609  -8.859  44.914  0.00  0.00    +0.000 A 
ATOM      3  C   UNL     1      15.335  -9.433  44.814  0.00  0.00    +0.000 A 
ATOM      4  C   UNL     1      14.461  -9.044  43.797  0.00  0.00    +0.000 A 
ATOM      5  C   UNL     1      14.856  -8.079  42.873  0.00  0.00    +0.000 A 
ATOM      6  C   UNL     1      16.121  -7.515  42.980  0.00  0.00    +0.000 A 
ENDROOT
BRANCH   1   8
ATOM      7  C   UNL     1      19.331  -7.999  43.488  0.00  0.00    +0.000 C 
ATOM      8  O   UNL     1      18.223  -7.248  43.970  0.00  0.00    +0.000 OA
ENDBRANCH   1   8
BRANCH   6   9
ATOM      9  O   UNL     1      16.487  -6.569  42.060  0.00  0.00    +0.000 OA
ATOM     10  H   UNL     1      17.336  -6.888  41.700  0.00  0.00    +0.000 HD
ENDBRANCH   6   9
TORSDOF 2
ENDMDL
