MODEL 1
REMARK VINA RESULT:    -4.655      0.000      0.000
REMARK INTER + INTRA:          -6.699
REMARK INTER:                  -6.288
REMARK INTRA:                  -0.411
REMARK UNBOUND:                -0.411
REMARK  Name = 
REMARK  10 active torsions:
REMARK  status: ('A' for Active; 'I' for Inactive)
REMARK    1  A    between atoms: C_1  and  C_2
REMARK    2  A    between atoms: C_5  and  N_8
REMARK    3  A    between atoms: N_8  and  C_9
REMARK    4  A    between atoms: N_8  and  C_13
REMARK    5  A    between atoms: C_9  and  C_10
REMARK    6  A    between atoms: C_10  and  C_11
REMARK    7  A    between atoms: C_10  and  O_12
REMARK    8  A    between atoms: C_13  and  C_14
REMARK    9  A    between atoms: C_14  and  C_15
REMARK   10  A    between atoms: C_14  and  O_16
REMARK                            x       y       z     vdW  Elec       q    Type
REMARK                         _______ _______ _______ _____ _____    ______ ____
ROOT
ATOM      1  N   UNL     1       8.784  -1.858  44.672  0.00  0.00    +0.000 N 
ENDROOT
BRANCH   1   6
ATOM      2  C   UNL     1       9.647   1.430  49.339  0.00  0.00    +0.000 C 
ATOM      3  C   UNL     1       9.399   0.586  48.126  0.00  0.00    +0.000 A 
ATOM      4  C   UNL     1       8.924  -0.715  48.246  0.00  0.00    +0.000 A 
ATOM      5  C   UNL     1       8.723  -1.512  47.108  0.00  0.00    +0.000 A 
ATOM      6  C   UNL     1       9.005  -1.064  45.805  0.00  0.00    +0.000 A 
ATOM      7  C   UNL     1       9.483   0.257  45.721  0.00  0.00    +0.000 A 
ATOM      8  C   UNL     1       9.686   1.066  46.851  0.00  0.00    +0.000 A 
ENDBRANCH   1   6
BRANCH   1   9
ATOM      9  C   UNL     1       7.936  -3.070  44.769  0.00  0.00    +0.000 C 
BRANCH   9  10
ATOM     10  C   UNL     1       8.701  -4.367  44.404  0.00  0.00    +0.000 C 
ATOM     11  C   UNL     1       9.298  -5.015  45.647  0.00  0.00    +0.000 C 
BRANCH  10  12
ATOM     12  O   UNL     1       7.829  -5.320  43.781  0.00  0.00    +0.000 OA
ATOM     13  H   UNL     1       6.926  -5.155  44.099  0.00  0.00    +0.000 HD
ENDBRANCH  10  12
ENDBRANCH   9  10
ENDBRANCH   1   9
BRANCH   1  14
ATOM     14  C   UNL     1       9.732  -1.848  43.529  0.00  0.00    +0.000 C 
BRANCH  14  15
ATOM     15  C   UNL     1       9.259  -0.919  42.385  0.00  0.00    +0.000 C 
ATOM     16  C   UNL     1       7.791  -0.525  42.501  0.00  0.00    +0.000 C 
BRANCH  15  17
ATOM     17  O   UNL     1      10.034   0.277  42.322  0.00  0.00    +0.000 OA
ATOM     18  H   UNL     1       9.389   0.986  42.126  0.00  0.00    +0.000 HD
ENDBRANCH  15  17
ENDBRANCH  14  15
ENDBRANCH   1  14
TORSDOF 7
ENDMDL
MODEL 2
REMARK VINA RESULT:    -4.564      0.890      3.384
REMARK INTER + INTRA:          -6.576
REMARK INTER:                  -6.163
REMARK INTRA:                  -0.413
REMARK UNBOUND:                -0.411
REMARK  Name = 
REMARK  10 active torsions:
REMARK  status: ('A' for Active; 'I' for Inactive)
REMARK    1  A    between atoms: C_1  and  C_2
REMARK    2  A    between atoms: C_5  and  N_8
REMARK    3  A    between atoms: N_8  and  C_9
REMARK    4  A    between atoms: N_8  and  C_13
REMARK    5  A    between atoms: C_9  and  C_10
REMARK    6  A    between atoms: C_10  and  C_11
REMARK    7  A    between atoms: C_10  and  O_12
REMARK    8  A    between atoms: C_13  and  C_14
REMARK    9  A    between atoms: C_14  and  C_15
REMARK   10  A    between atoms: C_14  and  O_16
REMARK                            x       y       z     vdW  Elec       q    Type
REMARK                         _______ _______ _______ _____ _____    ______ ____
ROOT
ATOM      1  N   UNL     1       8.587  -1.583  44.635  0.00  0.00    +0.000 N 
ENDROOT
BRANCH   1   6
ATOM      2  C   UNL     1       9.806   1.384  49.435  0.00  0.00    +0.000 C 
ATOM      3  C   UNL     1       9.468   0.625  48.188  0.00  0.00    +0.000 A 
ATOM      4  C   UNL     1       8.888  -0.638  48.256  0.00  0.00    +0.000 A 
ATOM      5  C   UNL     1       8.600  -1.357  47.085  0.00  0.00    +0.000 A 
ATOM      6  C   UNL     1       8.895  -0.869  45.799  0.00  0.00    +0.000 A 
ATOM      7  C   UNL     1       9.479   0.411  45.769  0.00  0.00    +0.000 A 
ATOM      8  C   UNL     1       9.770   1.142  46.932  0.00  0.00    +0.000 A 
ENDBRANCH   1   6
BRANCH   1   9
ATOM      9  C   UNL     1       7.912  -0.905  43.503  0.00  0.00    +0.000 C 
BRANCH   9  10
ATOM     10  C   UNL     1       8.829  -0.746  42.265  0.00  0.00    +0.000 C 
ATOM     11  C   UNL     1       8.125   0.035  41.161  0.00  0.00    +0.000 C 
BRANCH  10  12
ATOM     12  O   UNL     1      10.035  -0.047  42.604  0.00  0.00    +0.000 OA
ATOM     13  H   UNL     1       9.802   0.873  42.809  0.00  0.00    +0.000 HD
ENDBRANCH  10  12
ENDBRANCH   9  10
ENDBRANCH   1   9
BRANCH   1  14
ATOM     14  C   UNL     1       8.436  -3.061  44.657  0.00  0.00    +0.000 C 
BRANCH  14  15
ATOM     15  C   UNL     1       9.792  -3.789  44.493  0.00  0.00    +0.000 C 
ATOM     16  C   UNL     1      10.380  -4.267  45.815  0.00  0.00    +0.000 C 
BRANCH  15  17
ATOM     17  O   UNL     1       9.683  -4.917  43.625  0.00  0.00    +0.000 OA
ATOM     18  H   UNL     1       9.360  -4.552  42.777  0.00  0.00    +0.000 HD
ENDBRANCH  15  17
ENDBRANCH  14  15
ENDBRANCH   1  14
TORSDOF 7
ENDMDL
MODEL 3
REMARK VINA RESULT:    -4.516      7.807     10.392
REMARK INTER + INTRA:          -6.511
REMARK INTER:                  -5.730
REMARK INTRA:                  -0.781
REMARK UNBOUND:                -0.411
REMARK  Name = 
REMARK  10 active torsions:
REMARK  status: ('A' for Active; 'I' for Inactive)
REMARK    1  A    between atoms: C_1  and  C_2
REMARK    2  A    between atoms: C_5  and  N_8
REMARK    3  A    between atoms: N_8  and  C_9
REMARK    4  A    between atoms: N_8  and  C_13
REMARK    5  A    between atoms: C_9  and  C_10
REMARK    6  A    between atoms: C_10  and  C_11
REMARK    7  A    between atoms: C_10  and  O_12
REMARK    8  A    between atoms: C_13  and  C_14
REMARK    9  A    between atoms: C_14  and  C_15
REMARK   10  A    between atoms: C_14  and  O_16
REMARK                            x       y       z     vdW  Elec       q    Type
REMARK                         _______ _______ _______ _____ _____    ______ ____
ROOT
ATOM      1  N   UNL     1      14.984  -7.339  43.190  0.00  0.00    +0.000 N 
ENDROOT
BRANCH   1   6
ATOM      2  C   UNL     1      13.104 -12.734  42.358  0.00  0.00    +0.000 C 
ATOM      3  C   UNL     1      13.615 -11.341  42.569  0.00  0.00    +0.000 A 
ATOM      4  C   UNL     1      13.975 -10.897  43.837  0.00  0.00    +0.000 A 
ATOM      5  C   UNL     1      14.425  -9.582  44.034  0.00  0.00    +0.000 A 
ATOM      6  C   UNL     1      14.516  -8.644  42.990  0.00  0.00    +0.000 A 
ATOM      7  C   UNL     1      14.146  -9.128  41.722  0.00  0.00    +0.000 A 
ATOM      8  C   UNL     1      13.696 -10.442  41.511  0.00  0.00    +0.000 A 
ENDBRANCH   1   6
BRANCH   1   9
ATOM      9  C   UNL     1      16.143  -7.094  44.082  0.00  0.00    +0.000 C 
BRANCH   9  10
ATOM     10  C   UNL     1      17.502  -7.264  43.360  0.00  0.00    +0.000 C 
ATOM     11  C   UNL     1      18.082  -8.652  43.609  0.00  0.00    +0.000 C 
BRANCH  10  12
ATOM     12  O   UNL     1      17.359  -7.089  41.944  0.00  0.00    +0.000 OA
ATOM     13  H   UNL     1      17.621  -6.180  41.724  0.00  0.00    +0.000 HD
ENDBRANCH  10  12
ENDBRANCH   9  10
ENDBRANCH   1   9
BRANCH   1  14
ATOM     14  C   UNL     1      14.101  -6.164  42.976  0.00  0.00    +0.000 C 
BRANCH  14  15
ATOM     15  C   UNL     1      14.356  -5.482  41.610  0.00  0.00    +0.000 C 
ATOM     16  C   UNL     1      13.173  -4.654  41.123  0.00  0.00    +0.000 C 
BRANCH  15  17
ATOM     17  O   UNL     1      15.502  -4.634  41.651  0.00  0.00    +0.000 OA
ATOM     18  H   UNL     1      15.711  -4.535  42.601  0.00  0.00    +0.000 HD
ENDBRANCH  15  17
ENDBRANCH  14  15
ENDBRANCH   1  14
TORSDOF 7
ENDMDL
MODEL 4
REMARK VINA RESULT:    -4.321      2.145      2.849
REMARK INTER + INTRA:          -6.248
REMARK INTER:                  -5.546
REMARK INTRA:                  -0.703
REMARK UNBOUND:                -0.411
REMARK  Name = 
REMARK  10 active torsions:
REMARK  status: ('A' for Active; 'I' for Inactive)
REMARK    1  A    between atoms: C_1  and  C_2
REMARK    2  A    between atoms: C_5  and  N_8
REMARK    3  A    between atoms: N_8  and  C_9
REMARK    4  A    between atoms: N_8  and  C_13
REMARK    5  A    between atoms: C_9  and  C_10
REMARK    6  A    between atoms: C_10  and  C_11
REMARK    7  A    between atoms: C_10  and  O_12
REMARK    8  A    between atoms: C_13  and  C_14
REMARK    9  A    between atoms: C_14  and  C_15
REMARK   10  A    between atoms: C_14  and  O_16
REMARK                            x       y       z     vdW  Elec       q    Type
REMARK                         _______ _______ _______ _____ _____    ______ ____
ROOT
ATOM      1  N   UNL     1       9.463  -2.852  43.592  0.00  0.00    +0.000 N 
ENDROOT
BRANCH   1   6
ATOM      2  C   UNL     1       8.960   0.634  48.166  0.00  0.00    +0.000 C 
ATOM      3  C   UNL     1       9.066  -0.266  46.973  0.00  0.00    +0.000 A 
ATOM      4  C   UNL     1       8.827  -1.631  47.085  0.00  0.00    +0.000 A 
ATOM      5  C   UNL     1       8.958  -2.475  45.970  0.00  0.00    +0.000 A 
ATOM      6  C   UNL     1       9.353  -2.008  44.704  0.00  0.00    +0.000 A 
ATOM      7  C   UNL     1       9.584  -0.622  44.627  0.00  0.00    +0.000 A 
ATOM      8  C   UNL     1       9.455   0.234  45.734  0.00  0.00    +0.000 A 
ENDBRANCH   1   6
BRANCH   1   9
ATOM      9  C   UNL     1      10.800  -3.246  43.087  0.00  0.00    +0.000 C 
BRANCH   9  10
ATOM     10  C   UNL     1      11.001  -4.781  43.056  0.00  0.00    +0.000 C 
ATOM     11  C   UNL     1      12.482  -5.137  43.019  0.00  0.00    +0.000 C 
BRANCH  10  12
ATOM     12  O   UNL     1      10.425  -5.399  44.215  0.00  0.00    +0.000 OA
ATOM     13  H   UNL     1      11.131  -5.870  44.688  0.00  0.00    +0.000 HD
ENDBRANCH  10  12
ENDBRANCH   9  10
ENDBRANCH   1   9
BRANCH   1  14
ATOM     14  C   UNL     1       8.363  -2.963  42.600  0.00  0.00    +0.000 C 
BRANCH  14  15
ATOM     15  C   UNL     1       7.204  -3.854  43.109  0.00  0.00    +0.000 C 
ATOM     16  C   UNL     1       6.206  -4.221  42.017  0.00  0.00    +0.000 C 
BRANCH  15  17
ATOM     17  O   UNL     1       7.686  -5.063  43.692  0.00  0.00    +0.000 OA
ATOM     18  H   UNL     1       7.171  -5.170  44.516  0.00  0.00    +0.000 HD
ENDBRANCH  15  17
ENDBRANCH  14  15
ENDBRANCH   1  14
TORSDOF 7
ENDMDL
MODEL 5
REMARK VINA RESULT:    -4.314     17.092     18.777
REMARK INTER + INTRA:          -6.238
REMARK INTER:                  -5.713
REMARK INTRA:                  -0.525
REMARK UNBOUND:                -0.411
REMARK  Name = 
REMARK  10 active torsions:
REMARK  status: ('A' for Active; 'I' for Inactive)
REMARK    1  A    between atoms: C_1  and  C_2
REMARK    2  A    between atoms: C_5  and  N_8
REMARK    3  A    between atoms: N_8  and  C_9
REMARK    4  A    between atoms: N_8  and  C_13
REMARK    5  A    between atoms: C_9  and  C_10
REMARK    6  A    between atoms: C_10  and  C_11
REMARK    7  A    between atoms: C_10  and  O_12
REMARK    8  A    between atoms: C_13  and  C_14
REMARK    9  A    between atoms: C_14  and  C_15
REMARK   10  A    between atoms: C_14  and  O_16
REMARK                            x       y       z     vdW  Elec       q    Type
REMARK                         _______ _______ _______ _____ _____    ______ ____
ROOT
ATOM      1  N   UNL     1      21.457  -6.917  58.071  0.00  0.00    +0.000 N 
ENDROOT
BRANCH   1   6
ATOM      2  C   UNL     1      23.252  -6.986  52.585  0.00  0.00    +0.000 C 
ATOM      3  C   UNL     1      22.768  -6.984  54.002  0.00  0.00    +0.000 A 
ATOM      4  C   UNL     1      21.872  -6.018  54.449  0.00  0.00    +0.000 A 
ATOM      5  C   UNL     1      21.445  -6.003  55.787  0.00  0.00    +0.000 A 
ATOM      6  C   UNL     1      21.903  -6.927  56.743  0.00  0.00    +0.000 A 
ATOM      7  C   UNL     1      22.805  -7.889  56.256  0.00  0.00    +0.000 A 
ATOM      8  C   UNL     1      23.239  -7.918  54.920  0.00  0.00    +0.000 A 
ENDBRANCH   1   6
BRANCH   1   9
ATOM      9  C   UNL     1      21.067  -5.640  58.715  0.00  0.00    +0.000 C 
BRANCH   9  10
ATOM     10  C   UNL     1      19.559  -5.579  59.063  0.00  0.00    +0.000 C 
ATOM     11  C   UNL     1      19.353  -5.402  60.563  0.00  0.00    +0.000 C 
BRANCH  10  12
ATOM     12  O   UNL     1      18.920  -4.484  58.394  0.00  0.00    +0.000 OA
ATOM     13  H   UNL     1      17.961  -4.573  58.518  0.00  0.00    +0.000 HD
ENDBRANCH  10  12
ENDBRANCH   9  10
ENDBRANCH   1   9
BRANCH   1  14
ATOM     14  C   UNL     1      21.825  -8.005  59.013  0.00  0.00    +0.000 C 
BRANCH  14  15
ATOM     15  C   UNL     1      20.718  -9.080  59.126  0.00  0.00    +0.000 C 
ATOM     16  C   UNL     1      19.969  -9.033  60.453  0.00  0.00    +0.000 C 
BRANCH  15  17
ATOM     17  O   UNL     1      19.761  -8.964  58.074  0.00  0.00    +0.000 OA
ATOM     18  H   UNL     1      20.232  -9.261  57.270  0.00  0.00    +0.000 HD
ENDBRANCH  15  17
ENDBRANCH  14  15
ENDBRANCH   1  14
TORSDOF 7
ENDMDL
MODEL 6
REMARK VINA RESULT:    -4.228      9.016     10.823
REMARK INTER + INTRA:          -6.122
REMARK INTER:                  -5.582
REMARK INTRA:                  -0.541
REMARK UNBOUND:                -0.411
REMARK  Name = 
REMARK  10 active torsions:
REMARK  status: ('A' for Active; 'I' for Inactive)
REMARK    1  A    between atoms: C_1  and  C_2
REMARK    2  A    between atoms: C_5  and  N_8
REMARK    3  A    between atoms: N_8  and  C_9
REMARK    4  A    between atoms: N_8  and  C_13
REMARK    5  A    between atoms: C_9  and  C_10
REMARK    6  A    between atoms: C_10  and  C_11
REMARK    7  A    between atoms: C_10  and  O_12
REMARK    8  A    between atoms: C_13  and  C_14
REMARK    9  A    between atoms: C_14  and  C_15
REMARK   10  A    between atoms: C_14  and  O_16
REMARK                            x       y       z     vdW  Elec       q    Type
REMARK                         _______ _______ _______ _____ _____    ______ ____
ROOT
ATOM      1  N   UNL     1      16.064  -7.134  43.560  0.00  0.00    +0.000 N 
ENDROOT
BRANCH   1   6
ATOM      2  C   UNL     1      21.534  -8.235  42.077  0.00  0.00    +0.000 C 
ATOM      3  C   UNL     1      20.113  -7.973  42.470  0.00  0.00    +0.000 A 
ATOM      4  C   UNL     1      19.076  -8.151  41.561  0.00  0.00    +0.000 A 
ATOM      5  C   UNL     1      17.748  -7.875  41.925  0.00  0.00    +0.000 A 
ATOM      6  C   UNL     1      17.393  -7.389  43.197  0.00  0.00    +0.000 A 
ATOM      7  C   UNL     1      18.466  -7.223  44.091  0.00  0.00    +0.000 A 
ATOM      8  C   UNL     1      19.798  -7.497  43.740  0.00  0.00    +0.000 A 
ENDBRANCH   1   6
BRANCH   1   9
ATOM      9  C   UNL     1      15.030  -8.182  43.379  0.00  0.00    +0.000 C 
BRANCH   9  10
ATOM     10  C   UNL     1      15.020  -9.219  44.528  0.00  0.00    +0.000 C 
ATOM     11  C   UNL     1      15.740 -10.498  44.115  0.00  0.00    +0.000 C 
BRANCH  10  12
ATOM     12  O   UNL     1      15.671  -8.700  45.696  0.00  0.00    +0.000 OA
ATOM     13  H   UNL     1      16.624  -8.865  45.608  0.00  0.00    +0.000 HD
ENDBRANCH  10  12
ENDBRANCH   9  10
ENDBRANCH   1   9
BRANCH   1  14
ATOM     14  C   UNL     1      15.541  -5.746  43.636  0.00  0.00    +0.000 C 
BRANCH  14  15
ATOM     15  C   UNL     1      14.684  -5.377  42.401  0.00  0.00    +0.000 C 
ATOM     16  C   UNL     1      13.340  -4.758  42.767  0.00  0.00    +0.000 C 
BRANCH  15  17
ATOM     17  O   UNL     1      15.368  -4.470  41.537  0.00  0.00    +0.000 OA
ATOM     18  H   UNL     1      15.865  -5.039  40.916  0.00  0.00    +0.000 HD
ENDBRANCH  15  17
ENDBRANCH  14  15
ENDBRANCH   1  14
TORSDOF 7
ENDMDL
MODEL 7
REMARK VINA RESULT:    -4.226      1.733      3.203
REMARK INTER + INTRA:          -6.119
REMARK INTER:                  -5.353
REMARK INTRA:                  -0.766
REMARK UNBOUND:                -0.411
REMARK  Name = 
REMARK  10 active torsions:
REMARK  status: ('A' for Active; 'I' for Inactive)
REMARK    1  A    between atoms: C_1  and  C_2
REMARK    2  A    between atoms: C_5  and  N_8
REMARK    3  A    between atoms: N_8  and  C_9
REMARK    4  A    between atoms: N_8  and  C_13
REMARK    5  A    between atoms: C_9  and  C_10
REMARK    6  A    between atoms: C_10  and  C_11
REMARK    7  A    between atoms: C_10  and  O_12
REMARK    8  A    between atoms: C_13  and  C_14
REMARK    9  A    between atoms: C_14  and  C_15
REMARK   10  A    between atoms: C_14  and  O_16
REMARK                            x       y       z     vdW  Elec       q    Type
REMARK                         _______ _______ _______ _____ _____    ______ ____
ROOT
ATOM      1  N   UNL     1       8.191  -1.414  44.587  0.00  0.00    +0.000 N 
ENDROOT
BRANCH   1   6
ATOM      2  C   UNL     1       9.867   1.226  49.440  0.00  0.00    +0.000 C 
ATOM      3  C   UNL     1       9.454   0.529  48.180  0.00  0.00    +0.000 A 
ATOM      4  C   UNL     1       9.643   1.128  46.939  0.00  0.00    +0.000 A 
ATOM      5  C   UNL     1       9.227   0.484  45.762  0.00  0.00    +0.000 A 
ATOM      6  C   UNL     1       8.586  -0.768  45.766  0.00  0.00    +0.000 A 
ATOM      7  C   UNL     1       8.413  -1.345  47.038  0.00  0.00    +0.000 A 
ATOM      8  C   UNL     1       8.827  -0.712  48.222  0.00  0.00    +0.000 A 
ENDBRANCH   1   6
BRANCH   1   9
ATOM      9  C   UNL     1       6.820  -1.220  44.057  0.00  0.00    +0.000 C 
BRANCH   9  10
ATOM     10  C   UNL     1       6.734  -0.074  43.020  0.00  0.00    +0.000 C 
ATOM     11  C   UNL     1       6.210   1.205  43.663  0.00  0.00    +0.000 C 
BRANCH  10  12
ATOM     12  O   UNL     1       8.022   0.208  42.456  0.00  0.00    +0.000 OA
ATOM     13  H   UNL     1       8.166  -0.401  41.713  0.00  0.00    +0.000 HD
ENDBRANCH  10  12
ENDBRANCH   9  10
ENDBRANCH   1   9
BRANCH   1  14
ATOM     14  C   UNL     1       8.871  -2.650  44.123  0.00  0.00    +0.000 C 
BRANCH  14  15
ATOM     15  C   UNL     1      10.299  -2.369  43.596  0.00  0.00    +0.000 C 
ATOM     16  C   UNL     1      10.804  -3.437  42.633  0.00  0.00    +0.000 C 
BRANCH  15  17
ATOM     17  O   UNL     1      10.377  -1.106  42.935  0.00  0.00    +0.000 OA
ATOM     18  H   UNL     1       9.497  -0.699  43.063  0.00  0.00    +0.000 HD
ENDBRANCH  15  17
ENDBRANCH  14  15
ENDBRANCH   1  14
TORSDOF 7
ENDMDL
MODEL 8
REMARK VINA RESULT:    -4.221      2.466      4.011
REMARK INTER + INTRA:          -6.113
REMARK INTER:                  -5.477
REMARK INTRA:                  -0.636
REMARK UNBOUND:                -0.411
REMARK  Name = 
REMARK  10 active torsions:
REMARK  status: ('A' for Active; 'I' for Inactive)
REMARK    1  A    between atoms: C_1  and  C_2
REMARK    2  A    between atoms: C_5  and  N_8
REMARK    3  A    between atoms: N_8  and  C_9
REMARK    4  A    between atoms: N_8  and  C_13
REMARK    5  A    between atoms: C_9  and  C_10
REMARK    6  A    between atoms: C_10  and  C_11
REMARK    7  A    between atoms: C_10  and  O_12
REMARK    8  A    between atoms: C_13  and  C_14
REMARK    9  A    between atoms: C_14  and  C_15
REMARK   10  A    between atoms: C_14  and  O_16
REMARK                            x       y       z     vdW  Elec       q    Type
REMARK                         _______ _______ _______ _____ _____    ______ ____
ROOT
ATOM      1  N   UNL     1       8.627  -0.809  45.963  0.00  0.00    +0.000 N 
ENDROOT
BRANCH   1   6
ATOM      2  C   UNL     1       4.629   1.258  49.579  0.00  0.00    +0.000 C 
ATOM      3  C   UNL     1       5.652   0.728  48.621  0.00  0.00    +0.000 A 
ATOM      4  C   UNL     1       5.631  -0.602  48.216  0.00  0.00    +0.000 A 
ATOM      5  C   UNL     1       6.610  -1.100  47.342  0.00  0.00    +0.000 A 
ATOM      6  C   UNL     1       7.665  -0.310  46.850  0.00  0.00    +0.000 A 
ATOM      7  C   UNL     1       7.654   1.030  47.279  0.00  0.00    +0.000 A 
ATOM      8  C   UNL     1       6.679   1.542  48.151  0.00  0.00    +0.000 A 
ENDBRANCH   1   6
BRANCH   1   9
ATOM      9  C   UNL     1       9.418   0.123  45.124  0.00  0.00    +0.000 C 
BRANCH   9  10
ATOM     10  C   UNL     1       8.922   0.180  43.658  0.00  0.00    +0.000 C 
ATOM     11  C   UNL     1       8.268   1.522  43.356  0.00  0.00    +0.000 C 
BRANCH  10  12
ATOM     12  O   UNL     1      10.009  -0.002  42.740  0.00  0.00    +0.000 OA
ATOM     13  H   UNL     1      10.080   0.800  42.195  0.00  0.00    +0.000 HD
ENDBRANCH  10  12
ENDBRANCH   9  10
ENDBRANCH   1   9
BRANCH   1  14
ATOM     14  C   UNL     1       8.551  -2.200  45.449  0.00  0.00    +0.000 C 
BRANCH  14  15
ATOM     15  C   UNL     1       9.952  -2.833  45.267  0.00  0.00    +0.000 C 
ATOM     16  C   UNL     1      10.102  -4.173  45.977  0.00  0.00    +0.000 C 
BRANCH  15  17
ATOM     17  O   UNL     1      10.268  -3.025  43.889  0.00  0.00    +0.000 OA
ATOM     18  H   UNL     1       9.875  -3.891  43.658  0.00  0.00    +0.000 HD
ENDBRANCH  15  17
ENDBRANCH  14  15
ENDBRANCH   1  14
TORSDOF 7
ENDMDL
MODEL 9
REMARK VINA RESULT:    -4.208      2.477      4.670
REMARK INTER + INTRA:          -6.095
REMARK INTER:                  -5.559
REMARK INTRA:                  -0.536
REMARK UNBOUND:                -0.411
REMARK  Name = 
REMARK  10 active torsions:
REMARK  status: ('A' for Active; 'I' for Inactive)
REMARK    1  A    between atoms: C_1  and  C_2
REMARK    2  A    between atoms: C_5  and  N_8
REMARK    3  A    between atoms: N_8  and  C_9
REMARK    4  A    between atoms: N_8  and  C_13
REMARK    5  A    between atoms: C_9  and  C_10
REMARK    6  A    between atoms: C_10  and  C_11
REMARK    7  A    between atoms: C_10  and  O_12
REMARK    8  A    between atoms: C_13  and  C_14
REMARK    9  A    between atoms: C_14  and  C_15
REMARK   10  A    between atoms: C_14  and  O_16
REMARK                            x       y       z     vdW  Elec       q    Type
REMARK                         _______ _______ _______ _____ _____    ______ ____
ROOT
ATOM      1  N   UNL     1       8.963  -0.941  45.559  0.00  0.00    +0.000 N 
ENDROOT
BRANCH   1   6
ATOM      2  C   UNL     1      11.721  -5.350  43.053  0.00  0.00    +0.000 C 
ATOM      3  C   UNL     1      11.027  -4.196  43.710  0.00  0.00    +0.000 A 
ATOM      4  C   UNL     1      10.623  -4.268  45.038  0.00  0.00    +0.000 A 
ATOM      5  C   UNL     1       9.946  -3.195  45.640  0.00  0.00    +0.000 A 
ATOM      6  C   UNL     1       9.621  -2.015  44.947  0.00  0.00    +0.000 A 
ATOM      7  C   UNL     1      10.046  -1.976  43.606  0.00  0.00    +0.000 A 
ATOM      8  C   UNL     1      10.725  -3.042  42.993  0.00  0.00    +0.000 A 
ENDBRANCH   1   6
BRANCH   1   9
ATOM      9  C   UNL     1       7.619  -1.134  46.155  0.00  0.00    +0.000 C 
BRANCH   9  10
ATOM     10  C   UNL     1       7.560  -0.722  47.647  0.00  0.00    +0.000 C 
ATOM     11  C   UNL     1       6.357  -1.354  48.339  0.00  0.00    +0.000 C 
BRANCH  10  12
ATOM     12  O   UNL     1       8.742  -1.139  48.343  0.00  0.00    +0.000 OA
ATOM     13  H   UNL     1       8.742  -2.110  48.384  0.00  0.00    +0.000 HD
ENDBRANCH  10  12
ENDBRANCH   9  10
ENDBRANCH   1   9
BRANCH   1  14
ATOM     14  C   UNL     1       9.294   0.464  45.208  0.00  0.00    +0.000 C 
BRANCH  14  15
ATOM     15  C   UNL     1       8.182   1.133  44.365  0.00  0.00    +0.000 C 
ATOM     16  C   UNL     1       7.679   2.441  44.966  0.00  0.00    +0.000 C 
BRANCH  15  17
ATOM     17  O   UNL     1       8.618   1.399  43.032  0.00  0.00    +0.000 OA
ATOM     18  H   UNL     1       7.834   1.770  42.579  0.00  0.00    +0.000 HD
ENDBRANCH  15  17
ENDBRANCH  14  15
ENDBRANCH   1  14
TORSDOF 7
ENDMDL
