MODEL 1
REMARK VINA RESULT:    -3.687      0.000      0.000
REMARK INTER + INTRA:          -4.053
REMARK INTER:                  -4.010
REMARK INTRA:                  -0.043
REMARK UNBOUND:                -0.043
REMARK  Name = 
REMARK  3 active torsions:
REMARK  status: ('A' for Active; 'I' for Inactive)
REMARK    1  A    between atoms: C_1  and  O_2
REMARK    2  A    between atoms: O_2  and  C_3
REMARK    3  A    between atoms: C_8  and  O_9
REMARK                            x       y       z     vdW  Elec       q    Type
REMARK                         _______ _______ _______ _____ _____    ______ ____
ROOT
ATOM      1  C   UNL     1      18.347   9.447   5.254  0.00  0.00    +0.000 A 
ATOM      2  C   UNL     1      19.731   9.403   5.096  0.00  0.00    +0.000 A 
ATOM      3  C   UNL     1      20.420   8.199   5.292  0.00  0.00    +0.000 A 
ATOM      4  C   UNL     1      19.729   7.039   5.647  0.00  0.00    +0.000 A 
ATOM      5  C   UNL     1      18.346   7.075   5.806  0.00  0.00    +0.000 A 
ATOM      6  C   UNL     1      17.671   8.273   5.610  0.00  0.00    +0.000 A 
ENDROOT
BRANCH   1   8
ATOM      7  C   UNL     1      18.101  11.798   5.494  0.00  0.00    +0.000 C 
ATOM      8  O   UNL     1      17.547  10.550   5.096  0.00  0.00    +0.000 OA
ENDBRANCH   1   8
BRANCH   6   9
ATOM      9  O   UNL     1      16.312   8.283   5.773  0.00  0.00    +0.000 OA
ATOM     10  H   UNL     1      16.037   7.358   5.627  0.00  0.00    +0.000 HD
ENDBRANCH   6   9
TORSDOF 2
ENDMDL
MODEL 2
REMARK VINA RESULT:    -3.626     15.800     16.778
REMARK INTER + INTRA:          -3.987
REMARK INTER:                  -3.945
REMARK INTRA:                  -0.042
REMARK UNBOUND:                -0.043
REMARK  Name = 
REMARK  3 active torsions:
REMARK  status: ('A' for Active; 'I' for Inactive)
REMARK    1  A    between atoms: C_1  and  O_2
REMARK    2  A    between atoms: O_2  and  C_3
REMARK    3  A    between atoms: C_8  and  O_9
REMARK                            x       y       z     vdW  Elec       q    Type
REMARK                         _______ _______ _______ _____ _____    ______ ____
ROOT
ATOM      1  C   UNL     1       4.611  16.707  -0.612  0.00  0.00    +0.000 A 
ATOM      2  C   UNL     1       5.777  17.044   0.075  0.00  0.00    +0.000 A 
ATOM      3  C   UNL     1       7.025  16.667  -0.436  0.00  0.00    +0.000 A 
ATOM      4  C   UNL     1       7.113  15.952  -1.632  0.00  0.00    +0.000 A 
ATOM      5  C   UNL     1       5.953  15.612  -2.325  0.00  0.00    +0.000 A 
ATOM      6  C   UNL     1       4.720  15.990  -1.811  0.00  0.00    +0.000 A 
ENDROOT
BRANCH   1   8
ATOM      7  C   UNL     1       3.077  17.054   1.168  0.00  0.00    +0.000 C 
ATOM      8  O   UNL     1       3.329  17.009  -0.231  0.00  0.00    +0.000 OA
ENDBRANCH   1   8
BRANCH   6   9
ATOM      9  O   UNL     1       3.594  15.644  -2.509  0.00  0.00    +0.000 OA
ATOM     10  H   UNL     1       3.457  16.378  -3.138  0.00  0.00    +0.000 HD
ENDBRANCH   6   9
TORSDOF 2
ENDMDL
MODEL 3
REMARK VINA RESULT:    -3.517      1.763      3.033
REMARK INTER + INTRA:          -3.868
REMARK INTER:                  -3.825
REMARK INTRA:                  -0.044
REMARK UNBOUND:                -0.043
REMARK  Name = 
REMARK  3 active torsions:
REMARK  status: ('A' for Active; 'I' for Inactive)
REMARK    1  A    between atoms: C_1  and  O_2
REMARK    2  A    between atoms: O_2  and  C_3
REMARK    3  A    between atoms: C_8  and  O_9
REMARK                            x       y       z     vdW  Elec       q    Type
REMARK                         _______ _______ _______ _____ _____    ______ ____
ROOT
ATOM      1  C   UNL     1      19.519   9.219   4.635  0.00  0.00    +0.000 A 
ATOM      2  C   UNL     1      19.698   8.154   5.516  0.00  0.00    +0.000 A 
ATOM      3  C   UNL     1      20.903   7.441   5.517  0.00  0.00    +0.000 A 
ATOM      4  C   UNL     1      21.932   7.789   4.639  0.00  0.00    +0.000 A 
ATOM      5  C   UNL     1      21.760   8.853   3.755  0.00  0.00    +0.000 A 
ATOM      6  C   UNL     1      20.561   9.554   3.761  0.00  0.00    +0.000 A 
ENDROOT
BRANCH   1   8
ATOM      7  C   UNL     1      17.146   9.339   4.669  0.00  0.00    +0.000 C 
ATOM      8  O   UNL     1      18.396  10.000   4.524  0.00  0.00    +0.000 OA
ENDBRANCH   1   8
BRANCH   6   9
ATOM      9  O   UNL     1      20.416  10.595   2.884  0.00  0.00    +0.000 OA
ATOM     10  H   UNL     1      20.178  11.359   3.443  0.00  0.00    +0.000 HD
ENDBRANCH   6   9
TORSDOF 2
ENDMDL
MODEL 4
REMARK VINA RESULT:    -3.358     13.953     15.098
REMARK INTER + INTRA:          -3.695
REMARK INTER:                  -3.650
REMARK INTRA:                  -0.045
REMARK UNBOUND:                -0.043
REMARK  Name = 
REMARK  3 active torsions:
REMARK  status: ('A' for Active; 'I' for Inactive)
REMARK    1  A    between atoms: C_1  and  O_2
REMARK    2  A    between atoms: O_2  and  C_3
REMARK    3  A    between atoms: C_8  and  O_9
REMARK                            x       y       z     vdW  Elec       q    Type
REMARK                         _______ _______ _______ _____ _____    ______ ____
ROOT
ATOM      1  C   UNL     1      18.820  15.928  -7.839  0.00  0.00    +0.000 A 
ATOM      2  C   UNL     1      18.614  15.243  -6.642  0.00  0.00    +0.000 A 
ATOM      3  C   UNL     1      19.688  15.020  -5.770  0.00  0.00    +0.000 A 
ATOM      4  C   UNL     1      20.967  15.480  -6.091  0.00  0.00    +0.000 A 
ATOM      5  C   UNL     1      21.180  16.166  -7.284  0.00  0.00    +0.000 A 
ATOM      6  C   UNL     1      20.109  16.382  -8.143  0.00  0.00    +0.000 A 
ENDROOT
BRANCH   1   8
ATOM      7  C   UNL     1      16.612  16.678  -8.297  0.00  0.00    +0.000 C 
ATOM      8  O   UNL     1      17.866  16.216  -8.783  0.00  0.00    +0.000 OA
ENDBRANCH   1   8
BRANCH   6   9
ATOM      9  O   UNL     1      20.343  17.058  -9.310  0.00  0.00    +0.000 OA
ATOM     10  H   UNL     1      19.862  16.552  -9.992  0.00  0.00    +0.000 HD
ENDBRANCH   6   9
TORSDOF 2
ENDMDL
MODEL 5
REMARK VINA RESULT:    -3.345     13.584     14.752
REMARK INTER + INTRA:          -3.681
REMARK INTER:                  -3.640
REMARK INTRA:                  -0.041
REMARK UNBOUND:                -0.043
REMARK  Name = 
REMARK  3 active torsions:
REMARK  status: ('A' for Active; 'I' for Inactive)
REMARK    1  A    between atoms: C_1  and  O_2
REMARK    2  A    between atoms: O_2  and  C_3
REMARK    3  A    between atoms: C_8  and  O_9
REMARK                            x       y       z     vdW  Elec       q    Type
REMARK                         _______ _______ _______ _____ _____    ______ ____
ROOT
ATOM      1  C   UNL     1      20.397  15.787  -6.941  0.00  0.00    +0.000 A 
ATOM      2  C   UNL     1      20.571  16.670  -8.006  0.00  0.00    +0.000 A 
ATOM      3  C   UNL     1      19.470  17.058  -8.780  0.00  0.00    +0.000 A 
ATOM      4  C   UNL     1      18.195  16.566  -8.494  0.00  0.00    +0.000 A 
ATOM      5  C   UNL     1      18.013  15.684  -7.432  0.00  0.00    +0.000 A 
ATOM      6  C   UNL     1      19.111  15.304  -6.670  0.00  0.00    +0.000 A 
ENDROOT
BRANCH   1   8
ATOM      7  C   UNL     1      22.685  15.209  -6.658  0.00  0.00    +0.000 C 
ATOM      8  O   UNL     1      21.379  15.322  -6.104  0.00  0.00    +0.000 OA
ENDBRANCH   1   8
BRANCH   6   9
ATOM      9  O   UNL     1      18.907  14.435  -5.631  0.00  0.00    +0.000 OA
ATOM     10  H   UNL     1      17.984  14.592  -5.354  0.00  0.00    +0.000 HD
ENDBRANCH   6   9
TORSDOF 2
ENDMDL
MODEL 6
REMARK VINA RESULT:    -3.290     11.364     12.809
REMARK INTER + INTRA:          -3.621
REMARK INTER:                  -3.579
REMARK INTRA:                  -0.042
REMARK UNBOUND:                -0.043
REMARK  Name = 
REMARK  3 active torsions:
REMARK  status: ('A' for Active; 'I' for Inactive)
REMARK    1  A    between atoms: C_1  and  O_2
REMARK    2  A    between atoms: O_2  and  C_3
REMARK    3  A    between atoms: C_8  and  O_9
REMARK                            x       y       z     vdW  Elec       q    Type
REMARK                         _______ _______ _______ _____ _____    ______ ____
ROOT
ATOM      1  C   UNL     1      18.877  16.103  -4.291  0.00  0.00    +0.000 A 
ATOM      2  C   UNL     1      18.005  17.058  -4.810  0.00  0.00    +0.000 A 
ATOM      3  C   UNL     1      17.700  17.058  -6.177  0.00  0.00    +0.000 A 
ATOM      4  C   UNL     1      18.266  16.107  -7.028  0.00  0.00    +0.000 A 
ATOM      5  C   UNL     1      19.138  15.149  -6.517  0.00  0.00    +0.000 A 
ATOM      6  C   UNL     1      19.434  15.157  -5.160  0.00  0.00    +0.000 A 
ENDROOT
BRANCH   1   8
ATOM      7  C   UNL     1      18.295  16.336  -1.999  0.00  0.00    +0.000 C 
ATOM      8  O   UNL     1      19.263  15.985  -2.980  0.00  0.00    +0.000 OA
ENDBRANCH   1   8
BRANCH   6   9
ATOM      9  O   UNL     1      20.295  14.205  -4.680  0.00  0.00    +0.000 OA
ATOM     10  H   UNL     1      20.062  13.392  -5.168  0.00  0.00    +0.000 HD
ENDBRANCH   6   9
TORSDOF 2
ENDMDL
MODEL 7
REMARK VINA RESULT:    -3.243      2.617      3.993
REMARK INTER + INTRA:          -3.570
REMARK INTER:                  -3.517
REMARK INTRA:                  -0.053
REMARK UNBOUND:                -0.043
REMARK  Name = 
REMARK  3 active torsions:
REMARK  status: ('A' for Active; 'I' for Inactive)
REMARK    1  A    between atoms: C_1  and  O_2
REMARK    2  A    between atoms: O_2  and  C_3
REMARK    3  A    between atoms: C_8  and  O_9
REMARK                            x       y       z     vdW  Elec       q    Type
REMARK                         _______ _______ _______ _____ _____    ______ ____
ROOT
ATOM      1  C   UNL     1      21.241   8.985   4.257  0.00  0.00    +0.000 A 
ATOM      2  C   UNL     1      20.972   8.078   5.282  0.00  0.00    +0.000 A 
ATOM      3  C   UNL     1      19.678   7.980   5.806  0.00  0.00    +0.000 A 
ATOM      4  C   UNL     1      18.650   8.785   5.312  0.00  0.00    +0.000 A 
ATOM      5  C   UNL     1      18.911   9.693   4.288  0.00  0.00    +0.000 A 
ATOM      6  C   UNL     1      20.198   9.784   3.774  0.00  0.00    +0.000 A 
ENDROOT
BRANCH   1   8
ATOM      7  C   UNL     1      22.955   8.119   2.857  0.00  0.00    +0.000 C 
ATOM      8  O   UNL     1      22.456   9.188   3.652  0.00  0.00    +0.000 OA
ENDBRANCH   1   8
BRANCH   6   9
ATOM      9  O   UNL     1      20.430  10.685   2.768  0.00  0.00    +0.000 OA
ATOM     10  H   UNL     1      19.686  10.561   2.148  0.00  0.00    +0.000 HD
ENDBRANCH   6   9
TORSDOF 2
ENDMDL
MODEL 8
REMARK VINA RESULT:    -1.656     11.243     12.373
REMARK INTER + INTRA:          -1.844
REMARK INTER:                  -1.805
REMARK INTRA:                  -0.039
REMARK UNBOUND:                -0.043
REMARK  Name = 
REMARK  3 active torsions:
REMARK  status: ('A' for Active; 'I' for Inactive)
REMARK    1  A    between atoms: C_1  and  O_2
REMARK    2  A    between atoms: O_2  and  C_3
REMARK    3  A    between atoms: C_8  and  O_9
REMARK                            x       y       z     vdW  Elec       q    Type
REMARK                         _______ _______ _______ _____ _____    ______ ____
ROOT
ATOM      1  C   UNL     1       6.849  13.495   5.481  0.00  0.00    +0.000 A 
ATOM      2  C   UNL     1       5.680  12.736   5.462  0.00  0.00    +0.000 A 
ATOM      3  C   UNL     1       5.730  11.382   5.107  0.00  0.00    +0.000 A 
ATOM      4  C   UNL     1       6.945  10.783   4.770  0.00  0.00    +0.000 A 
ATOM      5  C   UNL     1       8.118  11.535   4.787  0.00  0.00    +0.000 A 
ATOM      6  C   UNL     1       8.059  12.877   5.140  0.00  0.00    +0.000 A 
ENDROOT
BRANCH   1   8
ATOM      7  C   UNL     1       5.748  15.584   5.744  0.00  0.00    +0.000 C 
ATOM      8  O   UNL     1       6.948  14.824   5.807  0.00  0.00    +0.000 OA
ENDBRANCH   1   8
BRANCH   6   9
ATOM      9  O   UNL     1       9.225  13.595   5.149  0.00  0.00    +0.000 OA
ATOM     10  H   UNL     1       9.928  12.929   5.024  0.00  0.00    +0.000 HD
ENDBRANCH   6   9
TORSDOF 2
ENDMDL
MODEL 9
REMARK VINA RESULT:    -1.303     14.423     15.690
REMARK INTER + INTRA:          -1.460
REMARK INTER:                  -1.423
REMARK INTRA:                  -0.037
REMARK UNBOUND:                -0.043
REMARK  Name = 
REMARK  3 active torsions:
REMARK  status: ('A' for Active; 'I' for Inactive)
REMARK    1  A    between atoms: C_1  and  O_2
REMARK    2  A    between atoms: O_2  and  C_3
REMARK    3  A    between atoms: C_8  and  O_9
REMARK                            x       y       z     vdW  Elec       q    Type
REMARK                         _______ _______ _______ _____ _____    ______ ____
ROOT
ATOM      1  C   UNL     1      20.184  16.325  -7.590  0.00  0.00    +0.000 A 
ATOM      2  C   UNL     1      19.365  16.282  -6.463  0.00  0.00    +0.000 A 
ATOM      3  C   UNL     1      18.011  16.625  -6.568  0.00  0.00    +0.000 A 
ATOM      4  C   UNL     1      17.473  17.013  -7.797  0.00  0.00    +0.000 A 
ATOM      5  C   UNL     1      18.285  17.058  -8.928  0.00  0.00    +0.000 A 
ATOM      6  C   UNL     1      19.626  16.716  -8.814  0.00  0.00    +0.000 A 
ENDROOT
BRANCH   1   8
ATOM      7  C   UNL     1      22.139  15.699  -6.393  0.00  0.00    +0.000 C 
ATOM      8  O   UNL     1      21.520  16.018  -7.634  0.00  0.00    +0.000 OA
ENDBRANCH   1   8
BRANCH   6   9
ATOM      9  O   UNL     1      20.405  16.769  -9.939  0.00  0.00    +0.000 OA
ATOM     10  H   UNL     1      20.689  17.701 -10.002  0.00  0.00    +0.000 HD
ENDBRANCH   6   9
TORSDOF 2
ENDMDL
