MODEL 1
REMARK VINA RESULT:    -4.252      0.000      0.000
REMARK INTER + INTRA:          -4.664
REMARK INTER:                  -4.625
REMARK INTRA:                  -0.038
REMARK UNBOUND:                -0.038
REMARK  Name = 
REMARK  3 active torsions:
REMARK  status: ('A' for Active; 'I' for Inactive)
REMARK    1  A    between atoms: C_1  and  O_2
REMARK    2  A    between atoms: O_2  and  C_3
REMARK    3  A    between atoms: C_8  and  O_9
REMARK                            x       y       z     vdW  Elec       q    Type
REMARK                         _______ _______ _______ _____ _____    ______ ____
ROOT
ATOM      1  C   UNL     1       2.973  15.858 -13.694  0.00  0.00    +0.000 A 
ATOM      2  C   UNL     1       2.305  16.208 -14.867  0.00  0.00    +0.000 A 
ATOM      3  C   UNL     1       1.372  15.329 -15.430  0.00  0.00    +0.000 A 
ATOM      4  C   UNL     1       1.103  14.100 -14.825  0.00  0.00    +0.000 A 
ATOM      5  C   UNL     1       1.765  13.743 -13.653  0.00  0.00    +0.000 A 
ATOM      6  C   UNL     1       2.690  14.620 -13.102  0.00  0.00    +0.000 A 
ENDROOT
BRANCH   1   8
ATOM      7  C   UNL     1       4.489  17.686 -13.770  0.00  0.00    +0.000 C 
ATOM      8  O   UNL     1       3.908  16.615 -13.035  0.00  0.00    +0.000 OA
ENDBRANCH   1   8
BRANCH   6   9
ATOM      9  O   UNL     1       3.328  14.247 -11.950  0.00  0.00    +0.000 OA
ATOM     10  H   UNL     1       4.181  13.876 -12.247  0.00  0.00    +0.000 HD
ENDBRANCH   6   9
TORSDOF 2
ENDMDL
MODEL 2
REMARK VINA RESULT:    -4.193      2.174      3.543
REMARK INTER + INTRA:          -4.599
REMARK INTER:                  -4.565
REMARK INTRA:                  -0.034
REMARK UNBOUND:                -0.038
REMARK  Name = 
REMARK  3 active torsions:
REMARK  status: ('A' for Active; 'I' for Inactive)
REMARK    1  A    between atoms: C_1  and  O_2
REMARK    2  A    between atoms: O_2  and  C_3
REMARK    3  A    between atoms: C_8  and  O_9
REMARK                            x       y       z     vdW  Elec       q    Type
REMARK                         _______ _______ _______ _____ _____    ______ ____
ROOT
ATOM      1  C   UNL     1       1.514  14.184 -15.106  0.00  0.00    +0.000 A 
ATOM      2  C   UNL     1       2.415  15.088 -15.667  0.00  0.00    +0.000 A 
ATOM      3  C   UNL     1       3.390  15.693 -14.864  0.00  0.00    +0.000 A 
ATOM      4  C   UNL     1       3.467  15.400 -13.501  0.00  0.00    +0.000 A 
ATOM      5  C   UNL     1       2.570  14.498 -12.933  0.00  0.00    +0.000 A 
ATOM      6  C   UNL     1       1.606  13.902 -13.737  0.00  0.00    +0.000 A 
ENDROOT
BRANCH   1   8
ATOM      7  C   UNL     1       0.905  12.404 -16.557  0.00  0.00    +0.000 C 
ATOM      8  O   UNL     1       0.512  13.521 -15.768  0.00  0.00    +0.000 OA
ENDBRANCH   1   8
BRANCH   6   9
ATOM      9  O   UNL     1       0.735  13.019 -13.157  0.00  0.00    +0.000 OA
ATOM     10  H   UNL     1       1.306  12.358 -12.720  0.00  0.00    +0.000 HD
ENDBRANCH   6   9
TORSDOF 2
ENDMDL
MODEL 3
REMARK VINA RESULT:    -4.155     15.976     17.022
REMARK INTER + INTRA:          -4.558
REMARK INTER:                  -4.506
REMARK INTRA:                  -0.052
REMARK UNBOUND:                -0.038
REMARK  Name = 
REMARK  3 active torsions:
REMARK  status: ('A' for Active; 'I' for Inactive)
REMARK    1  A    between atoms: C_1  and  O_2
REMARK    2  A    between atoms: O_2  and  C_3
REMARK    3  A    between atoms: C_8  and  O_9
REMARK                            x       y       z     vdW  Elec       q    Type
REMARK                         _______ _______ _______ _____ _____    ______ ____
ROOT
ATOM      1  C   UNL     1       3.179  17.873   3.034  0.00  0.00    +0.000 A 
ATOM      2  C   UNL     1       3.704  18.866   3.859  0.00  0.00    +0.000 A 
ATOM      3  C   UNL     1       4.489  19.889   3.312  0.00  0.00    +0.000 A 
ATOM      4  C   UNL     1       4.753  19.922   1.941  0.00  0.00    +0.000 A 
ATOM      5  C   UNL     1       4.231  18.933   1.110  0.00  0.00    +0.000 A 
ATOM      6  C   UNL     1       3.454  17.923   1.661  0.00  0.00    +0.000 A 
ENDROOT
BRANCH   1   8
ATOM      7  C   UNL     1       1.168  17.141   4.066  0.00  0.00    +0.000 C 
ATOM      8  O   UNL     1       2.398  16.817   3.430  0.00  0.00    +0.000 OA
ENDBRANCH   1   8
BRANCH   6   9
ATOM      9  O   UNL     1       2.953  16.963   0.824  0.00  0.00    +0.000 OA
ATOM     10  H   UNL     1       3.339  16.126   1.146  0.00  0.00    +0.000 HD
ENDBRANCH   6   9
TORSDOF 2
ENDMDL
MODEL 4
REMARK VINA RESULT:    -4.064     15.154     16.074
REMARK INTER + INTRA:          -4.459
REMARK INTER:                  -4.407
REMARK INTRA:                  -0.052
REMARK UNBOUND:                -0.038
REMARK  Name = 
REMARK  3 active torsions:
REMARK  status: ('A' for Active; 'I' for Inactive)
REMARK    1  A    between atoms: C_1  and  O_2
REMARK    2  A    between atoms: O_2  and  C_3
REMARK    3  A    between atoms: C_8  and  O_9
REMARK                            x       y       z     vdW  Elec       q    Type
REMARK                         _______ _______ _______ _____ _____    ______ ____
ROOT
ATOM      1  C   UNL     1       3.962  18.502   1.049  0.00  0.00    +0.000 A 
ATOM      2  C   UNL     1       4.385  19.793   1.365  0.00  0.00    +0.000 A 
ATOM      3  C   UNL     1       4.419  20.211   2.701  0.00  0.00    +0.000 A 
ATOM      4  C   UNL     1       4.030  19.344   3.724  0.00  0.00    +0.000 A 
ATOM      5  C   UNL     1       3.607  18.053   3.417  0.00  0.00    +0.000 A 
ATOM      6  C   UNL     1       3.576  17.647   2.089  0.00  0.00    +0.000 A 
ENDROOT
BRANCH   1   8
ATOM      7  C   UNL     1       3.006  18.615  -1.123  0.00  0.00    +0.000 C 
ATOM      8  O   UNL     1       3.878  17.961  -0.209  0.00  0.00    +0.000 OA
ENDBRANCH   1   8
BRANCH   6   9
ATOM      9  O   UNL     1       3.156  16.373   1.811  0.00  0.00    +0.000 OA
ATOM     10  H   UNL     1       2.951  15.984   2.683  0.00  0.00    +0.000 HD
ENDBRANCH   6   9
TORSDOF 2
ENDMDL
MODEL 5
REMARK VINA RESULT:    -4.030     15.500     16.343
REMARK INTER + INTRA:          -4.422
REMARK INTER:                  -4.370
REMARK INTRA:                  -0.052
REMARK UNBOUND:                -0.038
REMARK  Name = 
REMARK  3 active torsions:
REMARK  status: ('A' for Active; 'I' for Inactive)
REMARK    1  A    between atoms: C_1  and  O_2
REMARK    2  A    between atoms: O_2  and  C_3
REMARK    3  A    between atoms: C_8  and  O_9
REMARK                            x       y       z     vdW  Elec       q    Type
REMARK                         _______ _______ _______ _____ _____    ______ ____
ROOT
ATOM      1  C   UNL     1       3.976  18.961   1.663  0.00  0.00    +0.000 A 
ATOM      2  C   UNL     1       4.265  19.462   2.932  0.00  0.00    +0.000 A 
ATOM      3  C   UNL     1       3.712  18.854   4.066  0.00  0.00    +0.000 A 
ATOM      4  C   UNL     1       2.870  17.748   3.938  0.00  0.00    +0.000 A 
ATOM      5  C   UNL     1       2.578  17.241   2.673  0.00  0.00    +0.000 A 
ATOM      6  C   UNL     1       3.130  17.850   1.554  0.00  0.00    +0.000 A 
ENDROOT
BRANCH   1   8
ATOM      7  C   UNL     1       4.075  20.789   0.148  0.00  0.00    +0.000 C 
ATOM      8  O   UNL     1       4.444  19.453   0.471  0.00  0.00    +0.000 OA
ENDBRANCH   1   8
BRANCH   6   9
ATOM      9  O   UNL     1       2.828  17.335   0.322  0.00  0.00    +0.000 OA
ATOM     10  H   UNL     1       3.683  17.030  -0.037  0.00  0.00    +0.000 HD
ENDBRANCH   6   9
TORSDOF 2
ENDMDL
MODEL 6
REMARK VINA RESULT:    -3.956      1.962      2.468
REMARK INTER + INTRA:          -4.341
REMARK INTER:                  -4.310
REMARK INTRA:                  -0.031
REMARK UNBOUND:                -0.038
REMARK  Name = 
REMARK  3 active torsions:
REMARK  status: ('A' for Active; 'I' for Inactive)
REMARK    1  A    between atoms: C_1  and  O_2
REMARK    2  A    between atoms: O_2  and  C_3
REMARK    3  A    between atoms: C_8  and  O_9
REMARK                            x       y       z     vdW  Elec       q    Type
REMARK                         _______ _______ _______ _____ _____    ______ ____
ROOT
ATOM      1  C   UNL     1       1.834  14.466 -14.866  0.00  0.00    +0.000 A 
ATOM      2  C   UNL     1       2.216  14.580 -16.201  0.00  0.00    +0.000 A 
ATOM      3  C   UNL     1       1.904  13.560 -17.108  0.00  0.00    +0.000 A 
ATOM      4  C   UNL     1       1.210  12.424 -16.685  0.00  0.00    +0.000 A 
ATOM      5  C   UNL     1       0.824  12.303 -15.352  0.00  0.00    +0.000 A 
ATOM      6  C   UNL     1       1.139  13.320 -14.459  0.00  0.00    +0.000 A 
ENDROOT
BRANCH   1   8
ATOM      7  C   UNL     1       3.386  15.400 -13.328  0.00  0.00    +0.000 C 
ATOM      8  O   UNL     1       2.072  15.382 -13.872  0.00  0.00    +0.000 OA
ENDBRANCH   1   8
BRANCH   6   9
ATOM      9  O   UNL     1       0.749  13.178 -13.154  0.00  0.00    +0.000 OA
ATOM     10  H   UNL     1       1.437  13.640 -12.638  0.00  0.00    +0.000 HD
ENDBRANCH   6   9
TORSDOF 2
ENDMDL
MODEL 7
REMARK VINA RESULT:    -3.925     15.085     15.988
REMARK INTER + INTRA:          -4.308
REMARK INTER:                  -4.263
REMARK INTRA:                  -0.045
REMARK UNBOUND:                -0.038
REMARK  Name = 
REMARK  3 active torsions:
REMARK  status: ('A' for Active; 'I' for Inactive)
REMARK    1  A    between atoms: C_1  and  O_2
REMARK    2  A    between atoms: O_2  and  C_3
REMARK    3  A    between atoms: C_8  and  O_9
REMARK                            x       y       z     vdW  Elec       q    Type
REMARK                         _______ _______ _______ _____ _____    ______ ____
ROOT
ATOM      1  C   UNL     1       1.911  18.311   1.397  0.00  0.00    +0.000 A 
ATOM      2  C   UNL     1       1.102  18.439   2.526  0.00  0.00    +0.000 A 
ATOM      3  C   UNL     1       1.412  17.730   3.693  0.00  0.00    +0.000 A 
ATOM      4  C   UNL     1       2.529  16.892   3.736  0.00  0.00    +0.000 A 
ATOM      5  C   UNL     1       3.342  16.760   2.613  0.00  0.00    +0.000 A 
ATOM      6  C   UNL     1       3.026  17.467   1.460  0.00  0.00    +0.000 A 
ENDROOT
BRANCH   1   8
ATOM      7  C   UNL     1       0.668  18.456  -0.623  0.00  0.00    +0.000 C 
ATOM      8  O   UNL     1       1.728  18.942   0.192  0.00  0.00    +0.000 OA
ENDBRANCH   1   8
BRANCH   6   9
ATOM      9  O   UNL     1       3.840  17.320   0.368  0.00  0.00    +0.000 OA
ATOM     10  H   UNL     1       4.688  17.724   0.635  0.00  0.00    +0.000 HD
ENDBRANCH   6   9
TORSDOF 2
ENDMDL
MODEL 8
REMARK VINA RESULT:    -3.909     15.572     16.387
REMARK INTER + INTRA:          -4.291
REMARK INTER:                  -4.239
REMARK INTRA:                  -0.052
REMARK UNBOUND:                -0.038
REMARK  Name = 
REMARK  3 active torsions:
REMARK  status: ('A' for Active; 'I' for Inactive)
REMARK    1  A    between atoms: C_1  and  O_2
REMARK    2  A    between atoms: O_2  and  C_3
REMARK    3  A    between atoms: C_8  and  O_9
REMARK                            x       y       z     vdW  Elec       q    Type
REMARK                         _______ _______ _______ _____ _____    ______ ____
ROOT
ATOM      1  C   UNL     1       4.045  19.147   1.384  0.00  0.00    +0.000 A 
ATOM      2  C   UNL     1       3.778  17.797   1.161  0.00  0.00    +0.000 A 
ATOM      3  C   UNL     1       3.329  16.989   2.213  0.00  0.00    +0.000 A 
ATOM      4  C   UNL     1       3.146  17.525   3.489  0.00  0.00    +0.000 A 
ATOM      5  C   UNL     1       3.409  18.874   3.720  0.00  0.00    +0.000 A 
ATOM      6  C   UNL     1       3.855  19.667   2.671  0.00  0.00    +0.000 A 
ENDROOT
BRANCH   1   8
ATOM      7  C   UNL     1       3.647  20.266  -0.674  0.00  0.00    +0.000 C 
ATOM      8  O   UNL     1       4.488  20.051   0.453  0.00  0.00    +0.000 OA
ENDBRANCH   1   8
BRANCH   6   9
ATOM      9  O   UNL     1       4.108  20.989   2.922  0.00  0.00    +0.000 OA
ATOM     10  H   UNL     1       4.810  20.984   3.600  0.00  0.00    +0.000 HD
ENDBRANCH   6   9
TORSDOF 2
ENDMDL
MODEL 9
REMARK VINA RESULT:    -3.899     14.183     15.010
REMARK INTER + INTRA:          -4.280
REMARK INTER:                  -4.227
REMARK INTRA:                  -0.053
REMARK UNBOUND:                -0.038
REMARK  Name = 
REMARK  3 active torsions:
REMARK  status: ('A' for Active; 'I' for Inactive)
REMARK    1  A    between atoms: C_1  and  O_2
REMARK    2  A    between atoms: O_2  and  C_3
REMARK    3  A    between atoms: C_8  and  O_9
REMARK                            x       y       z     vdW  Elec       q    Type
REMARK                         _______ _______ _______ _____ _____    ______ ____
ROOT
ATOM      1  C   UNL     1       4.115  19.104   0.988  0.00  0.00    +0.000 A 
ATOM      2  C   UNL     1       4.346  20.338   0.381  0.00  0.00    +0.000 A 
ATOM      3  C   UNL     1       3.733  20.642  -0.841  0.00  0.00    +0.000 A 
ATOM      4  C   UNL     1       2.889  19.717  -1.459  0.00  0.00    +0.000 A 
ATOM      5  C   UNL     1       2.653  18.482  -0.858  0.00  0.00    +0.000 A 
ATOM      6  C   UNL     1       3.266  18.189   0.353  0.00  0.00    +0.000 A 
ENDROOT
BRANCH   1   8
ATOM      7  C   UNL     1       4.219  19.359   3.349  0.00  0.00    +0.000 C 
ATOM      8  O   UNL     1       4.646  18.673   2.177  0.00  0.00    +0.000 OA
ENDBRANCH   1   8
BRANCH   6   9
ATOM      9  O   UNL     1       3.019  16.969   0.925  0.00  0.00    +0.000 OA
ATOM     10  H   UNL     1       2.048  16.871   0.889  0.00  0.00    +0.000 HD
ENDBRANCH   6   9
TORSDOF 2
ENDMDL
