MODEL 1
REMARK VINA RESULT:    -4.101      0.000      0.000
REMARK INTER + INTRA:          -6.006
REMARK INTER:                  -5.539
REMARK INTRA:                  -0.467
REMARK UNBOUND:                -0.467
REMARK  Name = 
REMARK  10 active torsions:
REMARK  status: ('A' for Active; 'I' for Inactive)
REMARK    1  A    between atoms: C_1  and  C_2
REMARK    2  A    between atoms: C_5  and  N_8
REMARK    3  A    between atoms: N_8  and  C_9
REMARK    4  A    between atoms: N_8  and  C_13
REMARK    5  A    between atoms: C_9  and  C_10
REMARK    6  A    between atoms: C_10  and  C_11
REMARK    7  A    between atoms: C_10  and  O_12
REMARK    8  A    between atoms: C_13  and  C_14
REMARK    9  A    between atoms: C_14  and  C_15
REMARK   10  A    between atoms: C_14  and  O_16
REMARK                            x       y       z     vdW  Elec       q    Type
REMARK                         _______ _______ _______ _____ _____    ______ ____
ROOT
ATOM      1  N   UNL     1       6.558  16.813   2.915  0.00  0.00    +0.000 N 
ENDROOT
BRANCH   1   6
ATOM      2  C   UNL     1       1.968  16.557  -0.576  0.00  0.00    +0.000 C 
ATOM      3  C   UNL     1       3.147  16.609   0.346  0.00  0.00    +0.000 A 
ATOM      4  C   UNL     1       3.273  17.624   1.288  0.00  0.00    +0.000 A 
ATOM      5  C   UNL     1       4.396  17.685   2.130  0.00  0.00    +0.000 A 
ATOM      6  C   UNL     1       5.451  16.757   2.059  0.00  0.00    +0.000 A 
ATOM      7  C   UNL     1       5.289  15.744   1.097  0.00  0.00    +0.000 A 
ATOM      8  C   UNL     1       4.171  15.670   0.250  0.00  0.00    +0.000 A 
ENDBRANCH   1   6
BRANCH   1   9
ATOM      9  C   UNL     1       6.489  16.196   4.262  0.00  0.00    +0.000 C 
BRANCH   9  10
ATOM     10  C   UNL     1       7.102  14.774   4.303  0.00  0.00    +0.000 C 
ATOM     11  C   UNL     1       7.604  14.438   5.702  0.00  0.00    +0.000 C 
BRANCH  10  12
ATOM     12  O   UNL     1       6.133  13.785   3.929  0.00  0.00    +0.000 OA
ATOM     13  H   UNL     1       6.570  13.140   3.348  0.00  0.00    +0.000 HD
ENDBRANCH  10  12
ENDBRANCH   9  10
ENDBRANCH   1   9
BRANCH   1  14
ATOM     14  C   UNL     1       7.595  17.865   2.764  0.00  0.00    +0.000 C 
BRANCH  14  15
ATOM     15  C   UNL     1       8.463  17.652   1.500  0.00  0.00    +0.000 C 
ATOM     16  C   UNL     1       9.225  18.903   1.078  0.00  0.00    +0.000 C 
BRANCH  15  17
ATOM     17  O   UNL     1       9.409  16.600   1.681  0.00  0.00    +0.000 OA
ATOM     18  H   UNL     1      10.228  16.919   1.252  0.00  0.00    +0.000 HD
ENDBRANCH  15  17
ENDBRANCH  14  15
ENDBRANCH   1  14
TORSDOF 7
ENDMDL
MODEL 2
REMARK VINA RESULT:    -4.065      1.774      5.019
REMARK INTER + INTRA:          -5.958
REMARK INTER:                  -5.447
REMARK INTRA:                  -0.511
REMARK UNBOUND:                -0.467
REMARK  Name = 
REMARK  10 active torsions:
REMARK  status: ('A' for Active; 'I' for Inactive)
REMARK    1  A    between atoms: C_1  and  C_2
REMARK    2  A    between atoms: C_5  and  N_8
REMARK    3  A    between atoms: N_8  and  C_9
REMARK    4  A    between atoms: N_8  and  C_13
REMARK    5  A    between atoms: C_9  and  C_10
REMARK    6  A    between atoms: C_10  and  C_11
REMARK    7  A    between atoms: C_10  and  O_12
REMARK    8  A    between atoms: C_13  and  C_14
REMARK    9  A    between atoms: C_14  and  C_15
REMARK   10  A    between atoms: C_14  and  O_16
REMARK                            x       y       z     vdW  Elec       q    Type
REMARK                         _______ _______ _______ _____ _____    ______ ____
ROOT
ATOM      1  N   UNL     1       6.184  16.527   1.293  0.00  0.00    +0.000 N 
ENDROOT
BRANCH   1   6
ATOM      2  C   UNL     1       9.855  20.503  -0.719  0.00  0.00    +0.000 C 
ATOM      3  C   UNL     1       8.884  19.487  -0.202  0.00  0.00    +0.000 A 
ATOM      4  C   UNL     1       8.541  19.447   1.145  0.00  0.00    +0.000 A 
ATOM      5  C   UNL     1       7.653  18.473   1.629  0.00  0.00    +0.000 A 
ATOM      6  C   UNL     1       7.085  17.484   0.806  0.00  0.00    +0.000 A 
ATOM      7  C   UNL     1       7.452  17.555  -0.550  0.00  0.00    +0.000 A 
ATOM      8  C   UNL     1       8.337  18.525  -1.048  0.00  0.00    +0.000 A 
ENDBRANCH   1   6
BRANCH   1   9
ATOM      9  C   UNL     1       5.334  15.761   0.351  0.00  0.00    +0.000 C 
BRANCH   9  10
ATOM     10  C   UNL     1       3.824  15.883   0.670  0.00  0.00    +0.000 C 
ATOM     11  C   UNL     1       3.124  16.780  -0.345  0.00  0.00    +0.000 C 
BRANCH  10  12
ATOM     12  O   UNL     1       3.186  14.599   0.642  0.00  0.00    +0.000 OA
ATOM     13  H   UNL     1       3.860  13.924   0.824  0.00  0.00    +0.000 HD
ENDBRANCH  10  12
ENDBRANCH   9  10
ENDBRANCH   1   9
BRANCH   1  14
ATOM     14  C   UNL     1       5.673  16.591   2.685  0.00  0.00    +0.000 C 
BRANCH  14  15
ATOM     15  C   UNL     1       6.433  15.632   3.632  0.00  0.00    +0.000 C 
ATOM     16  C   UNL     1       6.305  16.014   5.102  0.00  0.00    +0.000 C 
BRANCH  15  17
ATOM     17  O   UNL     1       5.990  14.284   3.485  0.00  0.00    +0.000 OA
ATOM     18  H   UNL     1       5.681  14.220   2.559  0.00  0.00    +0.000 HD
ENDBRANCH  15  17
ENDBRANCH  14  15
ENDBRANCH   1  14
TORSDOF 7
ENDMDL
MODEL 3
REMARK VINA RESULT:    -4.063      4.172      6.815
REMARK INTER + INTRA:          -5.955
REMARK INTER:                  -5.372
REMARK INTRA:                  -0.582
REMARK UNBOUND:                -0.467
REMARK  Name = 
REMARK  10 active torsions:
REMARK  status: ('A' for Active; 'I' for Inactive)
REMARK    1  A    between atoms: C_1  and  C_2
REMARK    2  A    between atoms: C_5  and  N_8
REMARK    3  A    between atoms: N_8  and  C_9
REMARK    4  A    between atoms: N_8  and  C_13
REMARK    5  A    between atoms: C_9  and  C_10
REMARK    6  A    between atoms: C_10  and  C_11
REMARK    7  A    between atoms: C_10  and  O_12
REMARK    8  A    between atoms: C_13  and  C_14
REMARK    9  A    between atoms: C_14  and  C_15
REMARK   10  A    between atoms: C_14  and  O_16
REMARK                            x       y       z     vdW  Elec       q    Type
REMARK                         _______ _______ _______ _____ _____    ______ ____
ROOT
ATOM      1  N   UNL     1       1.591  16.028  -0.404  0.00  0.00    +0.000 N 
ENDROOT
BRANCH   1   6
ATOM      2  C   UNL     1       7.063  17.565   0.605  0.00  0.00    +0.000 C 
ATOM      3  C   UNL     1       5.650  17.157   0.321  0.00  0.00    +0.000 A 
ATOM      4  C   UNL     1       4.755  18.045  -0.267  0.00  0.00    +0.000 A 
ATOM      5  C   UNL     1       3.423  17.667  -0.504  0.00  0.00    +0.000 A 
ATOM      6  C   UNL     1       2.915  16.405  -0.147  0.00  0.00    +0.000 A 
ATOM      7  C   UNL     1       3.848  15.533   0.443  0.00  0.00    +0.000 A 
ATOM      8  C   UNL     1       5.183  15.897   0.684  0.00  0.00    +0.000 A 
ENDBRANCH   1   6
BRANCH   1   9
ATOM      9  C   UNL     1       0.783  15.381   0.658  0.00  0.00    +0.000 C 
BRANCH   9  10
ATOM     10  C   UNL     1       0.425  16.348   1.813  0.00  0.00    +0.000 C 
ATOM     11  C   UNL     1      -0.220  17.621   1.278  0.00  0.00    +0.000 C 
BRANCH  10  12
ATOM     12  O   UNL     1      -0.492  15.737   2.731  0.00  0.00    +0.000 OA
ATOM     13  H   UNL     1      -0.403  16.184   3.589  0.00  0.00    +0.000 HD
ENDBRANCH  10  12
ENDBRANCH   9  10
ENDBRANCH   1   9
BRANCH   1  14
ATOM     14  C   UNL     1       1.118  15.775  -1.789  0.00  0.00    +0.000 C 
BRANCH  14  15
ATOM     15  C   UNL     1      -0.398  16.045  -1.947  0.00  0.00    +0.000 C 
ATOM     16  C   UNL     1      -0.707  17.448  -2.455  0.00  0.00    +0.000 C 
BRANCH  15  17
ATOM     17  O   UNL     1      -1.011  15.110  -2.833  0.00  0.00    +0.000 OA
ATOM     18  H   UNL     1      -0.318  14.891  -3.488  0.00  0.00    +0.000 HD
ENDBRANCH  15  17
ENDBRANCH  14  15
ENDBRANCH   1  14
TORSDOF 7
ENDMDL
MODEL 4
REMARK VINA RESULT:    -4.043      1.384      1.674
REMARK INTER + INTRA:          -5.928
REMARK INTER:                  -5.395
REMARK INTRA:                  -0.532
REMARK UNBOUND:                -0.467
REMARK  Name = 
REMARK  10 active torsions:
REMARK  status: ('A' for Active; 'I' for Inactive)
REMARK    1  A    between atoms: C_1  and  C_2
REMARK    2  A    between atoms: C_5  and  N_8
REMARK    3  A    between atoms: N_8  and  C_9
REMARK    4  A    between atoms: N_8  and  C_13
REMARK    5  A    between atoms: C_9  and  C_10
REMARK    6  A    between atoms: C_10  and  C_11
REMARK    7  A    between atoms: C_10  and  O_12
REMARK    8  A    between atoms: C_13  and  C_14
REMARK    9  A    between atoms: C_14  and  C_15
REMARK   10  A    between atoms: C_14  and  O_16
REMARK                            x       y       z     vdW  Elec       q    Type
REMARK                         _______ _______ _______ _____ _____    ______ ____
ROOT
ATOM      1  N   UNL     1       5.717  17.086   1.524  0.00  0.00    +0.000 N 
ENDROOT
BRANCH   1   6
ATOM      2  C   UNL     1       1.006  16.191  -1.690  0.00  0.00    +0.000 C 
ATOM      3  C   UNL     1       2.214  16.433  -0.838  0.00  0.00    +0.000 A 
ATOM      4  C   UNL     1       2.939  17.615  -0.946  0.00  0.00    +0.000 A 
ATOM      5  C   UNL     1       4.088  17.824  -0.166  0.00  0.00    +0.000 A 
ATOM      6  C   UNL     1       4.581  16.863   0.735  0.00  0.00    +0.000 A 
ATOM      7  C   UNL     1       3.822  15.682   0.820  0.00  0.00    +0.000 A 
ATOM      8  C   UNL     1       2.670  15.461   0.047  0.00  0.00    +0.000 A 
ENDBRANCH   1   6
BRANCH   1   9
ATOM      9  C   UNL     1       5.695  16.754   2.969  0.00  0.00    +0.000 C 
BRANCH   9  10
ATOM     10  C   UNL     1       6.670  15.609   3.336  0.00  0.00    +0.000 C 
ATOM     11  C   UNL     1       7.503  15.973   4.559  0.00  0.00    +0.000 C 
BRANCH  10  12
ATOM     12  O   UNL     1       5.957  14.399   3.628  0.00  0.00    +0.000 OA
ATOM     13  H   UNL     1       5.018  14.546   3.422  0.00  0.00    +0.000 HD
ENDBRANCH  10  12
ENDBRANCH   9  10
ENDBRANCH   1   9
BRANCH   1  14
ATOM     14  C   UNL     1       6.745  18.083   1.127  0.00  0.00    +0.000 C 
BRANCH  14  15
ATOM     15  C   UNL     1       7.875  17.450   0.280  0.00  0.00    +0.000 C 
ATOM     16  C   UNL     1       8.292  18.315  -0.904  0.00  0.00    +0.000 C 
BRANCH  15  17
ATOM     17  O   UNL     1       9.037  17.185   1.064  0.00  0.00    +0.000 OA
ATOM     18  H   UNL     1       9.430  18.064   1.239  0.00  0.00    +0.000 HD
ENDBRANCH  15  17
ENDBRANCH  14  15
ENDBRANCH   1  14
TORSDOF 7
ENDMDL
MODEL 5
REMARK VINA RESULT:    -3.899      1.889      4.739
REMARK INTER + INTRA:          -5.733
REMARK INTER:                  -5.192
REMARK INTRA:                  -0.541
REMARK UNBOUND:                -0.467
REMARK  Name = 
REMARK  10 active torsions:
REMARK  status: ('A' for Active; 'I' for Inactive)
REMARK    1  A    between atoms: C_1  and  C_2
REMARK    2  A    between atoms: C_5  and  N_8
REMARK    3  A    between atoms: N_8  and  C_9
REMARK    4  A    between atoms: N_8  and  C_13
REMARK    5  A    between atoms: C_9  and  C_10
REMARK    6  A    between atoms: C_10  and  C_11
REMARK    7  A    between atoms: C_10  and  O_12
REMARK    8  A    between atoms: C_13  and  C_14
REMARK    9  A    between atoms: C_14  and  C_15
REMARK   10  A    between atoms: C_14  and  O_16
REMARK                            x       y       z     vdW  Elec       q    Type
REMARK                         _______ _______ _______ _____ _____    ______ ____
ROOT
ATOM      1  N   UNL     1       5.776  16.830   1.355  0.00  0.00    +0.000 N 
ENDROOT
BRANCH   1   6
ATOM      2  C   UNL     1       9.834  20.303  -0.837  0.00  0.00    +0.000 C 
ATOM      3  C   UNL     1       8.799  19.388  -0.258  0.00  0.00    +0.000 A 
ATOM      4  C   UNL     1       8.318  18.303  -0.984  0.00  0.00    +0.000 A 
ATOM      5  C   UNL     1       7.326  17.466  -0.448  0.00  0.00    +0.000 A 
ATOM      6  C   UNL     1       6.752  17.680   0.819  0.00  0.00    +0.000 A 
ATOM      7  C   UNL     1       7.263  18.784   1.525  0.00  0.00    +0.000 A 
ATOM      8  C   UNL     1       8.257  19.628   1.001  0.00  0.00    +0.000 A 
ENDBRANCH   1   6
BRANCH   1   9
ATOM      9  C   UNL     1       5.675  16.648   2.823  0.00  0.00    +0.000 C 
BRANCH   9  10
ATOM     10  C   UNL     1       6.682  15.606   3.370  0.00  0.00    +0.000 C 
ATOM     11  C   UNL     1       7.399  16.138   4.605  0.00  0.00    +0.000 C 
BRANCH  10  12
ATOM     12  O   UNL     1       6.017  14.388   3.732  0.00  0.00    +0.000 OA
ATOM     13  H   UNL     1       5.237  14.617   4.264  0.00  0.00    +0.000 HD
ENDBRANCH  10  12
ENDBRANCH   9  10
ENDBRANCH   1   9
BRANCH   1  14
ATOM     14  C   UNL     1       5.185  15.732   0.547  0.00  0.00    +0.000 C 
BRANCH  14  15
ATOM     15  C   UNL     1       3.638  15.770   0.554  0.00  0.00    +0.000 C 
ATOM     16  C   UNL     1       3.059  16.787  -0.423  0.00  0.00    +0.000 C 
BRANCH  15  17
ATOM     17  O   UNL     1       3.077  14.495   0.247  0.00  0.00    +0.000 OA
ATOM     18  H   UNL     1       3.323  13.923   1.003  0.00  0.00    +0.000 HD
ENDBRANCH  15  17
ENDBRANCH  14  15
ENDBRANCH   1  14
TORSDOF 7
ENDMDL
MODEL 6
REMARK VINA RESULT:    -3.891      1.705      3.671
REMARK INTER + INTRA:          -5.722
REMARK INTER:                  -5.036
REMARK INTRA:                  -0.686
REMARK UNBOUND:                -0.467
REMARK  Name = 
REMARK  10 active torsions:
REMARK  status: ('A' for Active; 'I' for Inactive)
REMARK    1  A    between atoms: C_1  and  C_2
REMARK    2  A    between atoms: C_5  and  N_8
REMARK    3  A    between atoms: N_8  and  C_9
REMARK    4  A    between atoms: N_8  and  C_13
REMARK    5  A    between atoms: C_9  and  C_10
REMARK    6  A    between atoms: C_10  and  C_11
REMARK    7  A    between atoms: C_10  and  O_12
REMARK    8  A    between atoms: C_13  and  C_14
REMARK    9  A    between atoms: C_14  and  C_15
REMARK   10  A    between atoms: C_14  and  O_16
REMARK                            x       y       z     vdW  Elec       q    Type
REMARK                         _______ _______ _______ _____ _____    ______ ____
ROOT
ATOM      1  N   UNL     1       5.409  16.869   1.373  0.00  0.00    +0.000 N 
ENDROOT
BRANCH   1   6
ATOM      2  C   UNL     1       0.708  16.105  -1.891  0.00  0.00    +0.000 C 
ATOM      3  C   UNL     1       1.913  16.311  -1.025  0.00  0.00    +0.000 A 
ATOM      4  C   UNL     1       2.617  17.511  -1.054  0.00  0.00    +0.000 A 
ATOM      5  C   UNL     1       3.763  17.688  -0.263  0.00  0.00    +0.000 A 
ATOM      6  C   UNL     1       4.276  16.678   0.572  0.00  0.00    +0.000 A 
ATOM      7  C   UNL     1       3.538  15.480   0.577  0.00  0.00    +0.000 A 
ATOM      8  C   UNL     1       2.389  15.290  -0.207  0.00  0.00    +0.000 A 
ENDBRANCH   1   6
BRANCH   1   9
ATOM      9  C   UNL     1       6.413  17.896   1.007  0.00  0.00    +0.000 C 
BRANCH   9  10
ATOM     10  C   UNL     1       7.448  17.383  -0.024  0.00  0.00    +0.000 C 
ATOM     11  C   UNL     1       7.689  18.419  -1.116  0.00  0.00    +0.000 C 
BRANCH  10  12
ATOM     12  O   UNL     1       8.706  17.102   0.606  0.00  0.00    +0.000 OA
ATOM     13  H   UNL     1       8.759  16.143   0.758  0.00  0.00    +0.000 HD
ENDBRANCH  10  12
ENDBRANCH   9  10
ENDBRANCH   1   9
BRANCH   1  14
ATOM     14  C   UNL     1       5.914  15.789   2.259  0.00  0.00    +0.000 C 
BRANCH  14  15
ATOM     15  C   UNL     1       6.753  16.343   3.435  0.00  0.00    +0.000 C 
ATOM     16  C   UNL     1       6.297  15.825   4.794  0.00  0.00    +0.000 C 
BRANCH  15  17
ATOM     17  O   UNL     1       8.138  16.034   3.287  0.00  0.00    +0.000 OA
ATOM     18  H   UNL     1       8.184  15.455   2.500  0.00  0.00    +0.000 HD
ENDBRANCH  15  17
ENDBRANCH  14  15
ENDBRANCH   1  14
TORSDOF 7
ENDMDL
MODEL 7
REMARK VINA RESULT:    -3.867      1.491      5.139
REMARK INTER + INTRA:          -5.691
REMARK INTER:                  -5.196
REMARK INTRA:                  -0.495
REMARK UNBOUND:                -0.467
REMARK  Name = 
REMARK  10 active torsions:
REMARK  status: ('A' for Active; 'I' for Inactive)
REMARK    1  A    between atoms: C_1  and  C_2
REMARK    2  A    between atoms: C_5  and  N_8
REMARK    3  A    between atoms: N_8  and  C_9
REMARK    4  A    between atoms: N_8  and  C_13
REMARK    5  A    between atoms: C_9  and  C_10
REMARK    6  A    between atoms: C_10  and  C_11
REMARK    7  A    between atoms: C_10  and  O_12
REMARK    8  A    between atoms: C_13  and  C_14
REMARK    9  A    between atoms: C_14  and  C_15
REMARK   10  A    between atoms: C_14  and  O_16
REMARK                            x       y       z     vdW  Elec       q    Type
REMARK                         _______ _______ _______ _____ _____    ______ ____
ROOT
ATOM      1  N   UNL     1       6.366  16.693   3.246  0.00  0.00    +0.000 N 
ENDROOT
BRANCH   1   6
ATOM      2  C   UNL     1       6.923  13.127   7.751  0.00  0.00    +0.000 C 
ATOM      3  C   UNL     1       6.802  14.061   6.587  0.00  0.00    +0.000 A 
ATOM      4  C   UNL     1       6.247  15.327   6.741  0.00  0.00    +0.000 A 
ATOM      5  C   UNL     1       6.108  16.187   5.640  0.00  0.00    +0.000 A 
ATOM      6  C   UNL     1       6.490  15.822   4.336  0.00  0.00    +0.000 A 
ATOM      7  C   UNL     1       7.048  14.536   4.217  0.00  0.00    +0.000 A 
ATOM      8  C   UNL     1       7.195  13.667   5.311  0.00  0.00    +0.000 A 
ENDBRANCH   1   6
BRANCH   1   9
ATOM      9  C   UNL     1       7.415  17.707   2.981  0.00  0.00    +0.000 C 
BRANCH   9  10
ATOM     10  C   UNL     1       8.372  17.295   1.835  0.00  0.00    +0.000 C 
ATOM     11  C   UNL     1       9.060  18.516   1.235  0.00  0.00    +0.000 C 
BRANCH  10  12
ATOM     12  O   UNL     1       9.388  16.401   2.309  0.00  0.00    +0.000 OA
ATOM     13  H   UNL     1      10.240  16.867   2.274  0.00  0.00    +0.000 HD
ENDBRANCH  10  12
ENDBRANCH   9  10
ENDBRANCH   1   9
BRANCH   1  14
ATOM     14  C   UNL     1       5.039  16.998   2.652  0.00  0.00    +0.000 C 
BRANCH  14  15
ATOM     15  C   UNL     1       4.849  16.327   1.270  0.00  0.00    +0.000 C 
ATOM     16  C   UNL     1       5.149  17.261   0.104  0.00  0.00    +0.000 C 
BRANCH  15  17
ATOM     17  O   UNL     1       5.669  15.168   1.129  0.00  0.00    +0.000 OA
ATOM     18  H   UNL     1       6.339  15.245   1.838  0.00  0.00    +0.000 HD
ENDBRANCH  15  17
ENDBRANCH  14  15
ENDBRANCH   1  14
TORSDOF 7
ENDMDL
MODEL 8
REMARK VINA RESULT:    -3.843      0.901      3.726
REMARK INTER + INTRA:          -5.658
REMARK INTER:                  -5.222
REMARK INTRA:                  -0.437
REMARK UNBOUND:                -0.467
REMARK  Name = 
REMARK  10 active torsions:
REMARK  status: ('A' for Active; 'I' for Inactive)
REMARK    1  A    between atoms: C_1  and  C_2
REMARK    2  A    between atoms: C_5  and  N_8
REMARK    3  A    between atoms: N_8  and  C_9
REMARK    4  A    between atoms: N_8  and  C_13
REMARK    5  A    between atoms: C_9  and  C_10
REMARK    6  A    between atoms: C_10  and  C_11
REMARK    7  A    between atoms: C_10  and  O_12
REMARK    8  A    between atoms: C_13  and  C_14
REMARK    9  A    between atoms: C_14  and  C_15
REMARK   10  A    between atoms: C_14  and  O_16
REMARK                            x       y       z     vdW  Elec       q    Type
REMARK                         _______ _______ _______ _____ _____    ______ ____
ROOT
ATOM      1  N   UNL     1       6.670  16.423   3.628  0.00  0.00    +0.000 N 
ENDROOT
BRANCH   1   6
ATOM      2  C   UNL     1       2.652  17.015  -0.475  0.00  0.00    +0.000 C 
ATOM      3  C   UNL     1       3.709  16.877   0.577  0.00  0.00    +0.000 A 
ATOM      4  C   UNL     1       4.648  15.852   0.516  0.00  0.00    +0.000 A 
ATOM      5  C   UNL     1       5.619  15.710   1.521  0.00  0.00    +0.000 A 
ATOM      6  C   UNL     1       5.687  16.559   2.639  0.00  0.00    +0.000 A 
ATOM      7  C   UNL     1       4.724  17.585   2.667  0.00  0.00    +0.000 A 
ATOM      8  C   UNL     1       3.749  17.740   1.668  0.00  0.00    +0.000 A 
ENDBRANCH   1   6
BRANCH   1   9
ATOM      9  C   UNL     1       8.105  16.489   3.263  0.00  0.00    +0.000 C 
BRANCH   9  10
ATOM     10  C   UNL     1       8.419  17.630   2.264  0.00  0.00    +0.000 C 
ATOM     11  C   UNL     1       9.073  18.810   2.972  0.00  0.00    +0.000 C 
BRANCH  10  12
ATOM     12  O   UNL     1       9.309  17.181   1.233  0.00  0.00    +0.000 OA
ATOM     13  H   UNL     1      10.112  16.835   1.658  0.00  0.00    +0.000 HD
ENDBRANCH  10  12
ENDBRANCH   9  10
ENDBRANCH   1   9
BRANCH   1  14
ATOM     14  C   UNL     1       6.382  15.725   4.907  0.00  0.00    +0.000 C 
BRANCH  14  15
ATOM     15  C   UNL     1       7.051  14.331   4.974  0.00  0.00    +0.000 C 
ATOM     16  C   UNL     1       7.148  13.780   6.392  0.00  0.00    +0.000 C 
BRANCH  15  17
ATOM     17  O   UNL     1       6.357  13.373   4.176  0.00  0.00    +0.000 OA
ATOM     18  H   UNL     1       6.068  13.868   3.383  0.00  0.00    +0.000 HD
ENDBRANCH  15  17
ENDBRANCH  14  15
ENDBRANCH   1  14
TORSDOF 7
ENDMDL
MODEL 9
REMARK VINA RESULT:    -3.840      4.099      6.996
REMARK INTER + INTRA:          -5.654
REMARK INTER:                  -5.082
REMARK INTRA:                  -0.572
REMARK UNBOUND:                -0.467
REMARK  Name = 
REMARK  10 active torsions:
REMARK  status: ('A' for Active; 'I' for Inactive)
REMARK    1  A    between atoms: C_1  and  C_2
REMARK    2  A    between atoms: C_5  and  N_8
REMARK    3  A    between atoms: N_8  and  C_9
REMARK    4  A    between atoms: N_8  and  C_13
REMARK    5  A    between atoms: C_9  and  C_10
REMARK    6  A    between atoms: C_10  and  C_11
REMARK    7  A    between atoms: C_10  and  O_12
REMARK    8  A    between atoms: C_13  and  C_14
REMARK    9  A    between atoms: C_14  and  C_15
REMARK   10  A    between atoms: C_14  and  O_16
REMARK                            x       y       z     vdW  Elec       q    Type
REMARK                         _______ _______ _______ _____ _____    ______ ____
ROOT
ATOM      1  N   UNL     1       1.918  16.412  -0.130  0.00  0.00    +0.000 N 
ENDROOT
BRANCH   1   6
ATOM      2  C   UNL     1       7.586  17.469   0.176  0.00  0.00    +0.000 C 
ATOM      3  C   UNL     1       6.118  17.184   0.074  0.00  0.00    +0.000 A 
ATOM      4  C   UNL     1       5.243  18.127  -0.455  0.00  0.00    +0.000 A 
ATOM      5  C   UNL     1       3.864  17.866  -0.521  0.00  0.00    +0.000 A 
ATOM      6  C   UNL     1       3.292  16.673  -0.044  0.00  0.00    +0.000 A 
ATOM      7  C   UNL     1       4.206  15.743   0.482  0.00  0.00    +0.000 A 
ATOM      8  C   UNL     1       5.587  15.989   0.551  0.00  0.00    +0.000 A 
ENDBRANCH   1   6
BRANCH   1   9
ATOM      9  C   UNL     1       1.320  15.995  -1.421  0.00  0.00    +0.000 C 
BRANCH   9  10
ATOM     10  C   UNL     1      -0.142  16.474  -1.588  0.00  0.00    +0.000 C 
ATOM     11  C   UNL     1      -0.336  17.180  -2.925  0.00  0.00    +0.000 C 
BRANCH  10  12
ATOM     12  O   UNL     1      -1.056  15.369  -1.533  0.00  0.00    +0.000 OA
ATOM     13  H   UNL     1      -1.047  14.928  -2.399  0.00  0.00    +0.000 HD
ENDBRANCH  10  12
ENDBRANCH   9  10
ENDBRANCH   1   9
BRANCH   1  14
ATOM     14  C   UNL     1       0.961  17.005   0.839  0.00  0.00    +0.000 C 
BRANCH  14  15
ATOM     15  C   UNL     1       0.610  16.027   1.986  0.00  0.00    +0.000 C 
ATOM     16  C   UNL     1      -0.081  16.706   3.162  0.00  0.00    +0.000 C 
BRANCH  15  17
ATOM     17  O   UNL     1      -0.228  14.964   1.535  0.00  0.00    +0.000 OA
ATOM     18  H   UNL     1      -0.973  14.944   2.169  0.00  0.00    +0.000 HD
ENDBRANCH  15  17
ENDBRANCH  14  15
ENDBRANCH   1  14
TORSDOF 7
ENDMDL
