MODEL 1
REMARK VINA RESULT:    -4.241      0.000      0.000
REMARK INTER + INTRA:          -6.316
REMARK INTER:                  -5.728
REMARK INTRA:                  -0.588
REMARK UNBOUND:                -0.588
REMARK  Name = 
REMARK  10 active torsions:
REMARK  status: ('A' for Active; 'I' for Inactive)
REMARK    1  A    between atoms: C_1  and  C_2
REMARK    2  A    between atoms: C_5  and  N_8
REMARK    3  A    between atoms: N_8  and  C_9
REMARK    4  A    between atoms: N_8  and  C_13
REMARK    5  A    between atoms: C_9  and  C_10
REMARK    6  A    between atoms: C_10  and  C_11
REMARK    7  A    between atoms: C_10  and  O_12
REMARK    8  A    between atoms: C_13  and  C_14
REMARK    9  A    between atoms: C_14  and  C_15
REMARK   10  A    between atoms: C_14  and  O_16
REMARK                            x       y       z     vdW  Elec       q    Type
REMARK                         _______ _______ _______ _____ _____    ______ ____
ROOT
ATOM      1  N   UNL     1       0.060  19.128  -8.806  0.00  0.00    +0.000 N 
ENDROOT
BRANCH   1   6
ATOM      2  C   UNL     1      -2.114  14.214 -10.918  0.00  0.00    +0.000 C 
ATOM      3  C   UNL     1      -1.535  15.476 -10.355  0.00  0.00    +0.000 A 
ATOM      4  C   UNL     1      -2.121  16.106  -9.262  0.00  0.00    +0.000 A 
ATOM      5  C   UNL     1      -1.592  17.305  -8.758  0.00  0.00    +0.000 A 
ATOM      6  C   UNL     1      -0.475  17.942  -9.327  0.00  0.00    +0.000 A 
ATOM      7  C   UNL     1       0.094  17.277 -10.428  0.00  0.00    +0.000 A 
ATOM      8  C   UNL     1      -0.425  16.076 -10.942  0.00  0.00    +0.000 A 
ENDBRANCH   1   6
BRANCH   1   9
ATOM      9  C   UNL     1      -0.839  20.167  -8.249  0.00  0.00    +0.000 C 
BRANCH   9  10
ATOM     10  C   UNL     1      -0.243  20.873  -7.006  0.00  0.00    +0.000 C 
ATOM     11  C   UNL     1      -1.214  21.905  -6.447  0.00  0.00    +0.000 C 
BRANCH  10  12
ATOM     12  O   UNL     1       0.048  19.927  -5.967  0.00  0.00    +0.000 OA
ATOM     13  H   UNL     1      -0.721  19.885  -5.375  0.00  0.00    +0.000 HD
ENDBRANCH  10  12
ENDBRANCH   9  10
ENDBRANCH   1   9
BRANCH   1  14
ATOM     14  C   UNL     1       1.396  19.620  -9.230  0.00  0.00    +0.000 C 
BRANCH  14  15
ATOM     15  C   UNL     1       2.547  18.798  -8.603  0.00  0.00    +0.000 C 
ATOM     16  C   UNL     1       3.928  19.267  -9.046  0.00  0.00    +0.000 C 
BRANCH  15  17
ATOM     17  O   UNL     1       2.505  18.834  -7.178  0.00  0.00    +0.000 OA
ATOM     18  H   UNL     1       2.043  19.668  -6.959  0.00  0.00    +0.000 HD
ENDBRANCH  15  17
ENDBRANCH  14  15
ENDBRANCH   1  14
TORSDOF 7
ENDMDL
MODEL 2
REMARK VINA RESULT:    -4.191      2.018      2.782
REMARK INTER + INTRA:          -6.249
REMARK INTER:                  -5.575
REMARK INTRA:                  -0.674
REMARK UNBOUND:                -0.588
REMARK  Name = 
REMARK  10 active torsions:
REMARK  status: ('A' for Active; 'I' for Inactive)
REMARK    1  A    between atoms: C_1  and  C_2
REMARK    2  A    between atoms: C_5  and  N_8
REMARK    3  A    between atoms: N_8  and  C_9
REMARK    4  A    between atoms: N_8  and  C_13
REMARK    5  A    between atoms: C_9  and  C_10
REMARK    6  A    between atoms: C_10  and  C_11
REMARK    7  A    between atoms: C_10  and  O_12
REMARK    8  A    between atoms: C_13  and  C_14
REMARK    9  A    between atoms: C_14  and  C_15
REMARK   10  A    between atoms: C_14  and  O_16
REMARK                            x       y       z     vdW  Elec       q    Type
REMARK                         _______ _______ _______ _____ _____    ______ ____
ROOT
ATOM      1  N   UNL     1       0.974  18.741 -10.355  0.00  0.00    +0.000 N 
ENDROOT
BRANCH   1   6
ATOM      2  C   UNL     1      -2.388  14.048 -10.279  0.00  0.00    +0.000 C 
ATOM      3  C   UNL     1      -1.531  15.276 -10.316  0.00  0.00    +0.000 A 
ATOM      4  C   UNL     1      -0.430  15.353 -11.163  0.00  0.00    +0.000 A 
ATOM      5  C   UNL     1       0.388  16.495 -11.172  0.00  0.00    +0.000 A 
ATOM      6  C   UNL     1       0.166  17.597 -10.327  0.00  0.00    +0.000 A 
ATOM      7  C   UNL     1      -0.957  17.486  -9.486  0.00  0.00    +0.000 A 
ATOM      8  C   UNL     1      -1.784  16.351  -9.469  0.00  0.00    +0.000 A 
ENDBRANCH   1   6
BRANCH   1   9
ATOM      9  C   UNL     1       0.895  19.734  -9.257  0.00  0.00    +0.000 C 
BRANCH   9  10
ATOM     10  C   UNL     1       1.842  19.403  -8.078  0.00  0.00    +0.000 C 
ATOM     11  C   UNL     1       1.060  18.872  -6.883  0.00  0.00    +0.000 C 
BRANCH  10  12
ATOM     12  O   UNL     1       2.806  18.410  -8.456  0.00  0.00    +0.000 OA
ATOM     13  H   UNL     1       3.505  18.849  -8.969  0.00  0.00    +0.000 HD
ENDBRANCH  10  12
ENDBRANCH   9  10
ENDBRANCH   1   9
BRANCH   1  14
ATOM     14  C   UNL     1       1.522  19.264 -11.633  0.00  0.00    +0.000 C 
BRANCH  14  15
ATOM     15  C   UNL     1       2.992  18.835 -11.858  0.00  0.00    +0.000 C 
ATOM     16  C   UNL     1       3.453  19.008 -13.300  0.00  0.00    +0.000 C 
BRANCH  15  17
ATOM     17  O   UNL     1       3.887  19.562 -11.018  0.00  0.00    +0.000 OA
ATOM     18  H   UNL     1       4.740  19.087 -11.088  0.00  0.00    +0.000 HD
ENDBRANCH  15  17
ENDBRANCH  14  15
ENDBRANCH   1  14
TORSDOF 7
ENDMDL
MODEL 3
REMARK VINA RESULT:    -4.113      0.501      3.173
REMARK INTER + INTRA:          -6.144
REMARK INTER:                  -5.642
REMARK INTRA:                  -0.502
REMARK UNBOUND:                -0.588
REMARK  Name = 
REMARK  10 active torsions:
REMARK  status: ('A' for Active; 'I' for Inactive)
REMARK    1  A    between atoms: C_1  and  C_2
REMARK    2  A    between atoms: C_5  and  N_8
REMARK    3  A    between atoms: N_8  and  C_9
REMARK    4  A    between atoms: N_8  and  C_13
REMARK    5  A    between atoms: C_9  and  C_10
REMARK    6  A    between atoms: C_10  and  C_11
REMARK    7  A    between atoms: C_10  and  O_12
REMARK    8  A    between atoms: C_13  and  C_14
REMARK    9  A    between atoms: C_14  and  C_15
REMARK   10  A    between atoms: C_14  and  O_16
REMARK                            x       y       z     vdW  Elec       q    Type
REMARK                         _______ _______ _______ _____ _____    ______ ____
ROOT
ATOM      1  N   UNL     1       0.059  19.736  -9.121  0.00  0.00    +0.000 N 
ENDROOT
BRANCH   1   6
ATOM      2  C   UNL     1      -1.679  14.473 -10.737  0.00  0.00    +0.000 C 
ATOM      3  C   UNL     1      -1.246  15.849 -10.332  0.00  0.00    +0.000 A 
ATOM      4  C   UNL     1      -0.272  16.533 -11.051  0.00  0.00    +0.000 A 
ATOM      5  C   UNL     1       0.152  17.810 -10.649  0.00  0.00    +0.000 A 
ATOM      6  C   UNL     1      -0.354  18.454  -9.506  0.00  0.00    +0.000 A 
ATOM      7  C   UNL     1      -1.339  17.735  -8.804  0.00  0.00    +0.000 A 
ATOM      8  C   UNL     1      -1.773  16.458  -9.196  0.00  0.00    +0.000 A 
ENDBRANCH   1   6
BRANCH   1   9
ATOM      9  C   UNL     1       1.504  20.054  -9.025  0.00  0.00    +0.000 C 
BRANCH   9  10
ATOM     10  C   UNL     1       2.346  18.866  -8.501  0.00  0.00    +0.000 C 
ATOM     11  C   UNL     1       3.823  19.061  -8.824  0.00  0.00    +0.000 C 
BRANCH  10  12
ATOM     12  O   UNL     1       2.216  18.730  -7.079  0.00  0.00    +0.000 OA
ATOM     13  H   UNL     1       1.401  19.183  -6.807  0.00  0.00    +0.000 HD
ENDBRANCH  10  12
ENDBRANCH   9  10
ENDBRANCH   1   9
BRANCH   1  14
ATOM     14  C   UNL     1      -0.830  20.625  -8.330  0.00  0.00    +0.000 C 
BRANCH  14  15
ATOM     15  C   UNL     1      -0.119  21.203  -7.083  0.00  0.00    +0.000 C 
ATOM     16  C   UNL     1      -0.726  22.515  -6.600  0.00  0.00    +0.000 C 
BRANCH  15  17
ATOM     17  O   UNL     1      -0.134  20.282  -5.994  0.00  0.00    +0.000 OA
ATOM     18  H   UNL     1       0.433  20.691  -5.309  0.00  0.00    +0.000 HD
ENDBRANCH  15  17
ENDBRANCH  14  15
ENDBRANCH   1  14
TORSDOF 7
ENDMDL
MODEL 4
REMARK VINA RESULT:    -3.999     13.112     16.050
REMARK INTER + INTRA:          -5.990
REMARK INTER:                  -5.427
REMARK INTRA:                  -0.563
REMARK UNBOUND:                -0.588
REMARK  Name = 
REMARK  10 active torsions:
REMARK  status: ('A' for Active; 'I' for Inactive)
REMARK    1  A    between atoms: C_1  and  C_2
REMARK    2  A    between atoms: C_5  and  N_8
REMARK    3  A    between atoms: N_8  and  C_9
REMARK    4  A    between atoms: N_8  and  C_13
REMARK    5  A    between atoms: C_9  and  C_10
REMARK    6  A    between atoms: C_10  and  C_11
REMARK    7  A    between atoms: C_10  and  O_12
REMARK    8  A    between atoms: C_13  and  C_14
REMARK    9  A    between atoms: C_14  and  C_15
REMARK   10  A    between atoms: C_14  and  O_16
REMARK                            x       y       z     vdW  Elec       q    Type
REMARK                         _______ _______ _______ _____ _____    ______ ____
ROOT
ATOM      1  N   UNL     1      15.092  20.832  -3.314  0.00  0.00    +0.000 N 
ENDROOT
BRANCH   1   6
ATOM      2  C   UNL     1       9.616  22.622  -3.692  0.00  0.00    +0.000 C 
ATOM      3  C   UNL     1      11.042  22.177  -3.579  0.00  0.00    +0.000 A 
ATOM      4  C   UNL     1      11.995  22.590  -4.504  0.00  0.00    +0.000 A 
ATOM      5  C   UNL     1      13.324  22.146  -4.411  0.00  0.00    +0.000 A 
ATOM      6  C   UNL     1      13.760  21.256  -3.413  0.00  0.00    +0.000 A 
ATOM      7  C   UNL     1      12.771  20.860  -2.494  0.00  0.00    +0.000 A 
ATOM      8  C   UNL     1      11.439  21.298  -2.575  0.00  0.00    +0.000 A 
ENDBRANCH   1   6
BRANCH   1   9
ATOM      9  C   UNL     1      16.196  21.806  -3.487  0.00  0.00    +0.000 C 
BRANCH   9  10
ATOM     10  C   UNL     1      16.638  22.455  -2.152  0.00  0.00    +0.000 C 
ATOM     11  C   UNL     1      15.916  23.777  -1.924  0.00  0.00    +0.000 C 
BRANCH  10  12
ATOM     12  O   UNL     1      16.349  21.594  -1.041  0.00  0.00    +0.000 OA
ATOM     13  H   UNL     1      15.814  22.095  -0.403  0.00  0.00    +0.000 HD
ENDBRANCH  10  12
ENDBRANCH   9  10
ENDBRANCH   1   9
BRANCH   1  14
ATOM     14  C   UNL     1      15.467  19.414  -3.550  0.00  0.00    +0.000 C 
BRANCH  14  15
ATOM     15  C   UNL     1      16.711  19.283  -4.462  0.00  0.00    +0.000 C 
ATOM     16  C   UNL     1      17.843  18.490  -3.820  0.00  0.00    +0.000 C 
BRANCH  15  17
ATOM     17  O   UNL     1      16.389  18.664  -5.707  0.00  0.00    +0.000 OA
ATOM     18  H   UNL     1      15.440  18.857  -5.847  0.00  0.00    +0.000 HD
ENDBRANCH  15  17
ENDBRANCH  14  15
ENDBRANCH   1  14
TORSDOF 7
ENDMDL
MODEL 5
REMARK VINA RESULT:    -3.908     12.505     14.423
REMARK INTER + INTRA:          -5.867
REMARK INTER:                  -5.353
REMARK INTRA:                  -0.514
REMARK UNBOUND:                -0.588
REMARK  Name = 
REMARK  10 active torsions:
REMARK  status: ('A' for Active; 'I' for Inactive)
REMARK    1  A    between atoms: C_1  and  C_2
REMARK    2  A    between atoms: C_5  and  N_8
REMARK    3  A    between atoms: N_8  and  C_9
REMARK    4  A    between atoms: N_8  and  C_13
REMARK    5  A    between atoms: C_9  and  C_10
REMARK    6  A    between atoms: C_10  and  C_11
REMARK    7  A    between atoms: C_10  and  O_12
REMARK    8  A    between atoms: C_13  and  C_14
REMARK    9  A    between atoms: C_14  and  C_15
REMARK   10  A    between atoms: C_14  and  O_16
REMARK                            x       y       z     vdW  Elec       q    Type
REMARK                         _______ _______ _______ _____ _____    ______ ____
ROOT
ATOM      1  N   UNL     1      13.044  22.161  -2.865  0.00  0.00    +0.000 N 
ENDROOT
BRANCH   1   6
ATOM      2  C   UNL     1       7.549  22.290  -1.099  0.00  0.00    +0.000 C 
ATOM      3  C   UNL     1       8.967  22.263  -1.580  0.00  0.00    +0.000 A 
ATOM      4  C   UNL     1       9.547  21.080  -2.028  0.00  0.00    +0.000 A 
ATOM      5  C   UNL     1      10.886  21.054  -2.450  0.00  0.00    +0.000 A 
ATOM      6  C   UNL     1      11.715  22.190  -2.424  0.00  0.00    +0.000 A 
ATOM      7  C   UNL     1      11.095  23.368  -1.968  0.00  0.00    +0.000 A 
ATOM      8  C   UNL     1       9.756  23.409  -1.545  0.00  0.00    +0.000 A 
ENDBRANCH   1   6
BRANCH   1   9
ATOM      9  C   UNL     1      13.458  22.978  -4.031  0.00  0.00    +0.000 C 
BRANCH   9  10
ATOM     10  C   UNL     1      12.594  22.711  -5.288  0.00  0.00    +0.000 C 
ATOM     11  C   UNL     1      11.697  23.905  -5.595  0.00  0.00    +0.000 C 
BRANCH  10  12
ATOM     12  O   UNL     1      13.417  22.467  -6.437  0.00  0.00    +0.000 OA
ATOM     13  H   UNL     1      12.897  22.678  -7.230  0.00  0.00    +0.000 HD
ENDBRANCH  10  12
ENDBRANCH   9  10
ENDBRANCH   1   9
BRANCH   1  14
ATOM     14  C   UNL     1      13.928  21.006  -2.566  0.00  0.00    +0.000 C 
BRANCH  14  15
ATOM     15  C   UNL     1      15.105  20.896  -3.565  0.00  0.00    +0.000 C 
ATOM     16  C   UNL     1      16.470  21.031  -2.901  0.00  0.00    +0.000 C 
BRANCH  15  17
ATOM     17  O   UNL     1      15.079  19.659  -4.276  0.00  0.00    +0.000 OA
ATOM     18  H   UNL     1      15.890  19.665  -4.823  0.00  0.00    +0.000 HD
ENDBRANCH  15  17
ENDBRANCH  14  15
ENDBRANCH   1  14
TORSDOF 7
ENDMDL
MODEL 6
REMARK VINA RESULT:    -3.902      2.526      3.903
REMARK INTER + INTRA:          -5.858
REMARK INTER:                  -5.085
REMARK INTRA:                  -0.773
REMARK UNBOUND:                -0.588
REMARK  Name = 
REMARK  10 active torsions:
REMARK  status: ('A' for Active; 'I' for Inactive)
REMARK    1  A    between atoms: C_1  and  C_2
REMARK    2  A    between atoms: C_5  and  N_8
REMARK    3  A    between atoms: N_8  and  C_9
REMARK    4  A    between atoms: N_8  and  C_13
REMARK    5  A    between atoms: C_9  and  C_10
REMARK    6  A    between atoms: C_10  and  C_11
REMARK    7  A    between atoms: C_10  and  O_12
REMARK    8  A    between atoms: C_13  and  C_14
REMARK    9  A    between atoms: C_14  and  C_15
REMARK   10  A    between atoms: C_14  and  O_16
REMARK                            x       y       z     vdW  Elec       q    Type
REMARK                         _______ _______ _______ _____ _____    ______ ____
ROOT
ATOM      1  N   UNL     1       0.249  18.753 -10.325  0.00  0.00    +0.000 N 
ENDROOT
BRANCH   1   6
ATOM      2  C   UNL     1      -2.490  13.679 -10.054  0.00  0.00    +0.000 C 
ATOM      3  C   UNL     1      -1.795  15.003 -10.143  0.00  0.00    +0.000 A 
ATOM      4  C   UNL     1      -0.689  15.175 -10.969  0.00  0.00    +0.000 A 
ATOM      5  C   UNL     1      -0.023  16.410 -11.025  0.00  0.00    +0.000 A 
ATOM      6  C   UNL     1      -0.408  17.518 -10.249  0.00  0.00    +0.000 A 
ATOM      7  C   UNL     1      -1.531  17.309  -9.428  0.00  0.00    +0.000 A 
ATOM      8  C   UNL     1      -2.207  16.080  -9.364  0.00  0.00    +0.000 A 
ENDBRANCH   1   6
BRANCH   1   9
ATOM      9  C   UNL     1       1.292  19.102  -9.330  0.00  0.00    +0.000 C 
BRANCH   9  10
ATOM     10  C   UNL     1       2.658  19.429  -9.982  0.00  0.00    +0.000 C 
ATOM     11  C   UNL     1       3.801  19.181  -9.005  0.00  0.00    +0.000 C 
BRANCH  10  12
ATOM     12  O   UNL     1       2.882  18.616 -11.143  0.00  0.00    +0.000 OA
ATOM     13  H   UNL     1       2.050  18.568 -11.642  0.00  0.00    +0.000 HD
ENDBRANCH  10  12
ENDBRANCH   9  10
ENDBRANCH   1   9
BRANCH   1  14
ATOM     14  C   UNL     1      -0.372  19.914 -11.012  0.00  0.00    +0.000 C 
BRANCH  14  15
ATOM     15  C   UNL     1      -0.420  19.728 -12.548  0.00  0.00    +0.000 C 
ATOM     16  C   UNL     1      -0.874  20.979 -13.290  0.00  0.00    +0.000 C 
BRANCH  15  17
ATOM     17  O   UNL     1       0.850  19.340 -13.071  0.00  0.00    +0.000 OA
ATOM     18  H   UNL     1       0.676  19.102 -14.004  0.00  0.00    +0.000 HD
ENDBRANCH  15  17
ENDBRANCH  14  15
ENDBRANCH   1  14
TORSDOF 7
ENDMDL
MODEL 7
REMARK VINA RESULT:    -3.856     12.316     14.232
REMARK INTER + INTRA:          -5.797
REMARK INTER:                  -5.276
REMARK INTRA:                  -0.520
REMARK UNBOUND:                -0.588
REMARK  Name = 
REMARK  10 active torsions:
REMARK  status: ('A' for Active; 'I' for Inactive)
REMARK    1  A    between atoms: C_1  and  C_2
REMARK    2  A    between atoms: C_5  and  N_8
REMARK    3  A    between atoms: N_8  and  C_9
REMARK    4  A    between atoms: N_8  and  C_13
REMARK    5  A    between atoms: C_9  and  C_10
REMARK    6  A    between atoms: C_10  and  C_11
REMARK    7  A    between atoms: C_10  and  O_12
REMARK    8  A    between atoms: C_13  and  C_14
REMARK    9  A    between atoms: C_14  and  C_15
REMARK   10  A    between atoms: C_14  and  O_16
REMARK                            x       y       z     vdW  Elec       q    Type
REMARK                         _______ _______ _______ _____ _____    ______ ____
ROOT
ATOM      1  N   UNL     1      12.391  21.871  -3.332  0.00  0.00    +0.000 N 
ENDROOT
BRANCH   1   6
ATOM      2  C   UNL     1       7.301  22.822  -0.780  0.00  0.00    +0.000 C 
ATOM      3  C   UNL     1       8.614  22.588  -1.462  0.00  0.00    +0.000 A 
ATOM      4  C   UNL     1       8.840  21.428  -2.197  0.00  0.00    +0.000 A 
ATOM      5  C   UNL     1      10.083  21.200  -2.810  0.00  0.00    +0.000 A 
ATOM      6  C   UNL     1      11.161  22.096  -2.702  0.00  0.00    +0.000 A 
ATOM      7  C   UNL     1      10.896  23.258  -1.954  0.00  0.00    +0.000 A 
ATOM      8  C   UNL     1       9.658  23.500  -1.338  0.00  0.00    +0.000 A 
ENDBRANCH   1   6
BRANCH   1   9
ATOM      9  C   UNL     1      13.397  20.981  -2.703  0.00  0.00    +0.000 C 
BRANCH   9  10
ATOM     10  C   UNL     1      14.671  20.810  -3.566  0.00  0.00    +0.000 C 
ATOM     11  C   UNL     1      15.919  21.177  -2.773  0.00  0.00    +0.000 C 
BRANCH  10  12
ATOM     12  O   UNL     1      14.812  19.455  -4.014  0.00  0.00    +0.000 OA
ATOM     13  H   UNL     1      13.922  19.086  -4.141  0.00  0.00    +0.000 HD
ENDBRANCH  10  12
ENDBRANCH   9  10
ENDBRANCH   1   9
BRANCH   1  14
ATOM     14  C   UNL     1      12.943  22.842  -4.311  0.00  0.00    +0.000 C 
BRANCH  14  15
ATOM     15  C   UNL     1      12.195  22.796  -5.665  0.00  0.00    +0.000 C 
ATOM     16  C   UNL     1      11.355  24.040  -5.929  0.00  0.00    +0.000 C 
BRANCH  15  17
ATOM     17  O   UNL     1      13.096  22.631  -6.760  0.00  0.00    +0.000 OA
ATOM     18  H   UNL     1      13.806  22.051  -6.417  0.00  0.00    +0.000 HD
ENDBRANCH  15  17
ENDBRANCH  14  15
ENDBRANCH   1  14
TORSDOF 7
ENDMDL
MODEL 8
REMARK VINA RESULT:    -3.852     12.418     15.572
REMARK INTER + INTRA:          -5.791
REMARK INTER:                  -5.197
REMARK INTRA:                  -0.594
REMARK UNBOUND:                -0.588
REMARK  Name = 
REMARK  10 active torsions:
REMARK  status: ('A' for Active; 'I' for Inactive)
REMARK    1  A    between atoms: C_1  and  C_2
REMARK    2  A    between atoms: C_5  and  N_8
REMARK    3  A    between atoms: N_8  and  C_9
REMARK    4  A    between atoms: N_8  and  C_13
REMARK    5  A    between atoms: C_9  and  C_10
REMARK    6  A    between atoms: C_10  and  C_11
REMARK    7  A    between atoms: C_10  and  O_12
REMARK    8  A    between atoms: C_13  and  C_14
REMARK    9  A    between atoms: C_14  and  C_15
REMARK   10  A    between atoms: C_14  and  O_16
REMARK                            x       y       z     vdW  Elec       q    Type
REMARK                         _______ _______ _______ _____ _____    ______ ____
ROOT
ATOM      1  N   UNL     1      14.539  22.090  -3.485  0.00  0.00    +0.000 N 
ENDROOT
BRANCH   1   6
ATOM      2  C   UNL     1       8.815  21.476  -3.042  0.00  0.00    +0.000 C 
ATOM      3  C   UNL     1      10.300  21.653  -3.139  0.00  0.00    +0.000 A 
ATOM      4  C   UNL     1      10.855  22.543  -4.053  0.00  0.00    +0.000 A 
ATOM      5  C   UNL     1      12.248  22.683  -4.160  0.00  0.00    +0.000 A 
ATOM      6  C   UNL     1      13.151  21.932  -3.386  0.00  0.00    +0.000 A 
ATOM      7  C   UNL     1      12.554  21.043  -2.472  0.00  0.00    +0.000 A 
ATOM      8  C   UNL     1      11.163  20.895  -2.353  0.00  0.00    +0.000 A 
ENDBRANCH   1   6
BRANCH   1   9
ATOM      9  C   UNL     1      15.446  21.130  -2.812  0.00  0.00    +0.000 C 
BRANCH   9  10
ATOM     10  C   UNL     1      15.928  19.999  -3.754  0.00  0.00    +0.000 C 
ATOM     11  C   UNL     1      17.406  19.699  -3.534  0.00  0.00    +0.000 C 
BRANCH  10  12
ATOM     12  O   UNL     1      15.191  18.790  -3.524  0.00  0.00    +0.000 OA
ATOM     13  H   UNL     1      14.455  18.761  -4.158  0.00  0.00    +0.000 HD
ENDBRANCH  10  12
ENDBRANCH   9  10
ENDBRANCH   1   9
BRANCH   1  14
ATOM     14  C   UNL     1      15.142  23.414  -3.785  0.00  0.00    +0.000 C 
BRANCH  14  15
ATOM     15  C   UNL     1      15.765  23.464  -5.201  0.00  0.00    +0.000 C 
ATOM     16  C   UNL     1      17.268  23.216  -5.204  0.00  0.00    +0.000 C 
BRANCH  15  17
ATOM     17  O   UNL     1      15.159  22.516  -6.078  0.00  0.00    +0.000 OA
ATOM     18  H   UNL     1      15.797  21.776  -6.130  0.00  0.00    +0.000 HD
ENDBRANCH  15  17
ENDBRANCH  14  15
ENDBRANCH   1  14
TORSDOF 7
ENDMDL
MODEL 9
REMARK VINA RESULT:    -3.841      2.561      5.565
REMARK INTER + INTRA:          -5.776
REMARK INTER:                  -5.274
REMARK INTRA:                  -0.502
REMARK UNBOUND:                -0.588
REMARK  Name = 
REMARK  10 active torsions:
REMARK  status: ('A' for Active; 'I' for Inactive)
REMARK    1  A    between atoms: C_1  and  C_2
REMARK    2  A    between atoms: C_5  and  N_8
REMARK    3  A    between atoms: N_8  and  C_9
REMARK    4  A    between atoms: N_8  and  C_13
REMARK    5  A    between atoms: C_9  and  C_10
REMARK    6  A    between atoms: C_10  and  C_11
REMARK    7  A    between atoms: C_10  and  O_12
REMARK    8  A    between atoms: C_13  and  C_14
REMARK    9  A    between atoms: C_14  and  C_15
REMARK   10  A    between atoms: C_14  and  O_16
REMARK                            x       y       z     vdW  Elec       q    Type
REMARK                         _______ _______ _______ _____ _____    ______ ____
ROOT
ATOM      1  N   UNL     1       0.848  18.838 -11.094  0.00  0.00    +0.000 N 
ENDROOT
BRANCH   1   6
ATOM      2  C   UNL     1      -0.754  21.539  -6.250  0.00  0.00    +0.000 C 
ATOM      3  C   UNL     1      -0.351  20.818  -7.500  0.00  0.00    +0.000 A 
ATOM      4  C   UNL     1       0.824  20.076  -7.550  0.00  0.00    +0.000 A 
ATOM      5  C   UNL     1       1.212  19.427  -8.733  0.00  0.00    +0.000 A 
ATOM      6  C   UNL     1       0.466  19.504  -9.923  0.00  0.00    +0.000 A 
ATOM      7  C   UNL     1      -0.718  20.260  -9.836  0.00  0.00    +0.000 A 
ATOM      8  C   UNL     1      -1.118  20.913  -8.658  0.00  0.00    +0.000 A 
ENDBRANCH   1   6
BRANCH   1   9
ATOM      9  C   UNL     1       1.829  19.460 -12.017  0.00  0.00    +0.000 C 
BRANCH   9  10
ATOM     10  C   UNL     1       3.233  18.814 -11.924  0.00  0.00    +0.000 C 
ATOM     11  C   UNL     1       3.933  18.835 -13.278  0.00  0.00    +0.000 C 
BRANCH  10  12
ATOM     12  O   UNL     1       4.061  19.515 -10.985  0.00  0.00    +0.000 OA
ATOM     13  H   UNL     1       3.503  20.152 -10.509  0.00  0.00    +0.000 HD
ENDBRANCH  10  12
ENDBRANCH   9  10
ENDBRANCH   1   9
BRANCH   1  14
ATOM     14  C   UNL     1      -0.025  17.808 -11.713  0.00  0.00    +0.000 C 
BRANCH  14  15
ATOM     15  C   UNL     1       0.049  16.454 -10.967  0.00  0.00    +0.000 C 
ATOM     16  C   UNL     1      -1.311  15.956 -10.493  0.00  0.00    +0.000 C 
BRANCH  15  17
ATOM     17  O   UNL     1       0.635  15.437 -11.777  0.00  0.00    +0.000 OA
ATOM     18  H   UNL     1       1.585  15.445 -11.546  0.00  0.00    +0.000 HD
ENDBRANCH  15  17
ENDBRANCH  14  15
ENDBRANCH   1  14
TORSDOF 7
ENDMDL
