MODEL 1
REMARK VINA RESULT:    -4.689      0.000      0.000
REMARK INTER + INTRA:          -5.143
REMARK INTER:                  -5.100
REMARK INTRA:                  -0.043
REMARK UNBOUND:                -0.043
REMARK  Name = 
REMARK  3 active torsions:
REMARK  status: ('A' for Active; 'I' for Inactive)
REMARK    1  A    between atoms: C_1  and  O_2
REMARK    2  A    between atoms: O_2  and  C_3
REMARK    3  A    between atoms: C_8  and  O_9
REMARK                            x       y       z     vdW  Elec       q    Type
REMARK                         _______ _______ _______ _____ _____    ______ ____
ROOT
ATOM      1  C   UNL     1       3.055  13.922   1.309  0.00  0.00    +0.000 A 
ATOM      2  C   UNL     1       4.340  14.339   0.964  0.00  0.00    +0.000 A 
ATOM      3  C   UNL     1       4.564  15.663   0.568  0.00  0.00    +0.000 A 
ATOM      4  C   UNL     1       3.507  16.574   0.514  0.00  0.00    +0.000 A 
ATOM      5  C   UNL     1       2.220  16.166   0.858  0.00  0.00    +0.000 A 
ATOM      6  C   UNL     1       2.007  14.850   1.249  0.00  0.00    +0.000 A 
ENDROOT
BRANCH   1   8
ATOM      7  C   UNL     1       3.053  12.291   3.037  0.00  0.00    +0.000 C 
ATOM      8  O   UNL     1       2.691  12.662   1.712  0.00  0.00    +0.000 OA
ENDBRANCH   1   8
BRANCH   6   9
ATOM      9  O   UNL     1       0.734  14.472   1.581  0.00  0.00    +0.000 OA
ATOM     10  H   UNL     1       0.157  15.108   1.117  0.00  0.00    +0.000 HD
ENDBRANCH   6   9
TORSDOF 2
ENDMDL
MODEL 2
REMARK VINA RESULT:    -4.334      1.536      3.164
REMARK INTER + INTRA:          -4.757
REMARK INTER:                  -4.712
REMARK INTRA:                  -0.045
REMARK UNBOUND:                -0.043
REMARK  Name = 
REMARK  3 active torsions:
REMARK  status: ('A' for Active; 'I' for Inactive)
REMARK    1  A    between atoms: C_1  and  O_2
REMARK    2  A    between atoms: O_2  and  C_3
REMARK    3  A    between atoms: C_8  and  O_9
REMARK                            x       y       z     vdW  Elec       q    Type
REMARK                         _______ _______ _______ _____ _____    ______ ____
ROOT
ATOM      1  C   UNL     1       2.817  15.144   0.981  0.00  0.00    +0.000 A 
ATOM      2  C   UNL     1       3.912  14.346   0.653  0.00  0.00    +0.000 A 
ATOM      3  C   UNL     1       3.976  13.024   1.109  0.00  0.00    +0.000 A 
ATOM      4  C   UNL     1       2.949  12.496   1.894  0.00  0.00    +0.000 A 
ATOM      5  C   UNL     1       1.852  13.287   2.226  0.00  0.00    +0.000 A 
ATOM      6  C   UNL     1       1.797  14.597   1.769  0.00  0.00    +0.000 A 
ENDROOT
BRANCH   1   8
ATOM      7  C   UNL     1       2.973  16.784  -0.732  0.00  0.00    +0.000 C 
ATOM      8  O   UNL     1       2.624  16.450   0.606  0.00  0.00    +0.000 OA
ENDBRANCH   1   8
BRANCH   6   9
ATOM      9  O   UNL     1       0.708  15.355   2.108  0.00  0.00    +0.000 OA
ATOM     10  H   UNL     1       0.737  15.409   3.082  0.00  0.00    +0.000 HD
ENDBRANCH   6   9
TORSDOF 2
ENDMDL
MODEL 3
REMARK VINA RESULT:    -4.018      1.111      2.689
REMARK INTER + INTRA:          -4.414
REMARK INTER:                  -4.374
REMARK INTRA:                  -0.040
REMARK UNBOUND:                -0.043
REMARK  Name = 
REMARK  3 active torsions:
REMARK  status: ('A' for Active; 'I' for Inactive)
REMARK    1  A    between atoms: C_1  and  O_2
REMARK    2  A    between atoms: O_2  and  C_3
REMARK    3  A    between atoms: C_8  and  O_9
REMARK                            x       y       z     vdW  Elec       q    Type
REMARK                         _______ _______ _______ _____ _____    ______ ____
ROOT
ATOM      1  C   UNL     1       1.693  15.011   1.593  0.00  0.00    +0.000 A 
ATOM      2  C   UNL     1       2.200  16.166   0.998  0.00  0.00    +0.000 A 
ATOM      3  C   UNL     1       3.517  16.188   0.523  0.00  0.00    +0.000 A 
ATOM      4  C   UNL     1       4.331  15.059   0.641  0.00  0.00    +0.000 A 
ATOM      5  C   UNL     1       3.831  13.902   1.234  0.00  0.00    +0.000 A 
ATOM      6  C   UNL     1       2.524  13.889   1.702  0.00  0.00    +0.000 A 
ENDROOT
BRANCH   1   8
ATOM      7  C   UNL     1      -0.245  16.029   2.516  0.00  0.00    +0.000 C 
ATOM      8  O   UNL     1       0.429  14.848   2.100  0.00  0.00    +0.000 OA
ENDBRANCH   1   8
BRANCH   6   9
ATOM      9  O   UNL     1       2.055  12.740   2.281  0.00  0.00    +0.000 OA
ATOM     10  H   UNL     1       1.710  13.022   3.149  0.00  0.00    +0.000 HD
ENDBRANCH   6   9
TORSDOF 2
ENDMDL
MODEL 4
REMARK VINA RESULT:    -3.954      1.923      3.842
REMARK INTER + INTRA:          -4.343
REMARK INTER:                  -4.379
REMARK INTRA:                   0.036
REMARK UNBOUND:                -0.043
REMARK  Name = 
REMARK  3 active torsions:
REMARK  status: ('A' for Active; 'I' for Inactive)
REMARK    1  A    between atoms: C_1  and  O_2
REMARK    2  A    between atoms: O_2  and  C_3
REMARK    3  A    between atoms: C_8  and  O_9
REMARK                            x       y       z     vdW  Elec       q    Type
REMARK                         _______ _______ _______ _____ _____    ______ ____
ROOT
ATOM      1  C   UNL     1       2.826  15.442   1.038  0.00  0.00    +0.000 A 
ATOM      2  C   UNL     1       1.609  14.933   1.489  0.00  0.00    +0.000 A 
ATOM      3  C   UNL     1       1.548  13.643   2.031  0.00  0.00    +0.000 A 
ATOM      4  C   UNL     1       2.699  12.858   2.123  0.00  0.00    +0.000 A 
ATOM      5  C   UNL     1       3.919  13.360   1.674  0.00  0.00    +0.000 A 
ATOM      6  C   UNL     1       3.970  14.640   1.138  0.00  0.00    +0.000 A 
ENDROOT
BRANCH   1   8
ATOM      7  C   UNL     1       2.856  16.787  -0.921  0.00  0.00    +0.000 C 
ATOM      8  O   UNL     1       3.033  16.681   0.487  0.00  0.00    +0.000 OA
ENDBRANCH   1   8
BRANCH   6   9
ATOM      9  O   UNL     1       5.180  15.111   0.704  0.00  0.00    +0.000 OA
ATOM     10  H   UNL     1       5.505  15.673   1.434  0.00  0.00    +0.000 HD
ENDBRANCH   6   9
TORSDOF 2
ENDMDL
MODEL 5
REMARK VINA RESULT:    -3.718      1.520      2.404
REMARK INTER + INTRA:          -4.087
REMARK INTER:                  -4.046
REMARK INTRA:                  -0.041
REMARK UNBOUND:                -0.043
REMARK  Name = 
REMARK  3 active torsions:
REMARK  status: ('A' for Active; 'I' for Inactive)
REMARK    1  A    between atoms: C_1  and  O_2
REMARK    2  A    between atoms: O_2  and  C_3
REMARK    3  A    between atoms: C_8  and  O_9
REMARK                            x       y       z     vdW  Elec       q    Type
REMARK                         _______ _______ _______ _____ _____    ______ ____
ROOT
ATOM      1  C   UNL     1       3.210  13.794   1.383  0.00  0.00    +0.000 A 
ATOM      2  C   UNL     1       1.847  13.805   1.677  0.00  0.00    +0.000 A 
ATOM      3  C   UNL     1       1.119  14.997   1.575  0.00  0.00    +0.000 A 
ATOM      4  C   UNL     1       1.748  16.179   1.180  0.00  0.00    +0.000 A 
ATOM      5  C   UNL     1       3.109  16.176   0.884  0.00  0.00    +0.000 A 
ATOM      6  C   UNL     1       3.824  14.990   0.989  0.00  0.00    +0.000 A 
ENDROOT
BRANCH   1   8
ATOM      7  C   UNL     1       3.725  11.713   2.409  0.00  0.00    +0.000 C 
ATOM      8  O   UNL     1       4.044  12.706   1.441  0.00  0.00    +0.000 OA
ENDBRANCH   1   8
BRANCH   6   9
ATOM      9  O   UNL     1       5.160  15.012   0.693  0.00  0.00    +0.000 OA
ATOM     10  H   UNL     1       5.607  14.962   1.560  0.00  0.00    +0.000 HD
ENDBRANCH   6   9
TORSDOF 2
ENDMDL
MODEL 6
REMARK VINA RESULT:    -3.544      1.441      2.595
REMARK INTER + INTRA:          -3.898
REMARK INTER:                  -3.986
REMARK INTRA:                   0.088
REMARK UNBOUND:                -0.043
REMARK  Name = 
REMARK  3 active torsions:
REMARK  status: ('A' for Active; 'I' for Inactive)
REMARK    1  A    between atoms: C_1  and  O_2
REMARK    2  A    between atoms: O_2  and  C_3
REMARK    3  A    between atoms: C_8  and  O_9
REMARK                            x       y       z     vdW  Elec       q    Type
REMARK                         _______ _______ _______ _____ _____    ______ ____
ROOT
ATOM      1  C   UNL     1       1.808  15.031   1.242  0.00  0.00    +0.000 A 
ATOM      2  C   UNL     1       2.601  13.927   1.552  0.00  0.00    +0.000 A 
ATOM      3  C   UNL     1       3.980  13.968   1.315  0.00  0.00    +0.000 A 
ATOM      4  C   UNL     1       4.571  15.109   0.769  0.00  0.00    +0.000 A 
ATOM      5  C   UNL     1       3.786  16.216   0.457  0.00  0.00    +0.000 A 
ATOM      6  C   UNL     1       2.418  16.166   0.695  0.00  0.00    +0.000 A 
ENDROOT
BRANCH   1   8
ATOM      7  C   UNL     1       0.011  15.701   2.645  0.00  0.00    +0.000 C 
ATOM      8  O   UNL     1       0.451  15.130   1.419  0.00  0.00    +0.000 OA
ENDBRANCH   1   8
BRANCH   6   9
ATOM      9  O   UNL     1       1.667  17.267   0.381  0.00  0.00    +0.000 OA
ATOM     10  H   UNL     1       1.941  17.948   1.025  0.00  0.00    +0.000 HD
ENDBRANCH   6   9
TORSDOF 2
ENDMDL
MODEL 7
REMARK VINA RESULT:    -3.306     12.169     12.864
REMARK INTER + INTRA:          -3.639
REMARK INTER:                  -3.588
REMARK INTRA:                  -0.051
REMARK UNBOUND:                -0.043
REMARK  Name = 
REMARK  3 active torsions:
REMARK  status: ('A' for Active; 'I' for Inactive)
REMARK    1  A    between atoms: C_1  and  O_2
REMARK    2  A    between atoms: O_2  and  C_3
REMARK    3  A    between atoms: C_8  and  O_9
REMARK                            x       y       z     vdW  Elec       q    Type
REMARK                         _______ _______ _______ _____ _____    ______ ____
ROOT
ATOM      1  C   UNL     1      -1.257  15.088 -10.547  0.00  0.00    +0.000 A 
ATOM      2  C   UNL     1      -2.144  15.564  -9.582  0.00  0.00    +0.000 A 
ATOM      3  C   UNL     1      -1.993  16.860  -9.073  0.00  0.00    +0.000 A 
ATOM      4  C   UNL     1      -0.958  17.682  -9.523  0.00  0.00    +0.000 A 
ATOM      5  C   UNL     1      -0.069  17.213 -10.486  0.00  0.00    +0.000 A 
ATOM      6  C   UNL     1      -0.226  15.927 -10.986  0.00  0.00    +0.000 A 
ENDROOT
BRANCH   1   8
ATOM      7  C   UNL     1      -2.353  13.594 -12.035  0.00  0.00    +0.000 C 
ATOM      8  O   UNL     1      -1.284  13.847 -11.131  0.00  0.00    +0.000 OA
ENDBRANCH   1   8
BRANCH   6   9
ATOM      9  O   UNL     1       0.662  15.488 -11.933  0.00  0.00    +0.000 OA
ATOM     10  H   UNL     1       0.611  14.514 -11.888  0.00  0.00    +0.000 HD
ENDBRANCH   6   9
TORSDOF 2
ENDMDL
MODEL 8
REMARK VINA RESULT:    -3.280     10.343     11.669
REMARK INTER + INTRA:          -3.611
REMARK INTER:                  -3.569
REMARK INTRA:                  -0.042
REMARK UNBOUND:                -0.043
REMARK  Name = 
REMARK  3 active torsions:
REMARK  status: ('A' for Active; 'I' for Inactive)
REMARK    1  A    between atoms: C_1  and  O_2
REMARK    2  A    between atoms: O_2  and  C_3
REMARK    3  A    between atoms: C_8  and  O_9
REMARK                            x       y       z     vdW  Elec       q    Type
REMARK                         _______ _______ _______ _____ _____    ______ ____
ROOT
ATOM      1  C   UNL     1      11.600  21.368  -2.802  0.00  0.00    +0.000 A 
ATOM      2  C   UNL     1      11.614  22.527  -3.577  0.00  0.00    +0.000 A 
ATOM      3  C   UNL     1      10.409  23.143  -3.937  0.00  0.00    +0.000 A 
ATOM      4  C   UNL     1       9.188  22.604  -3.526  0.00  0.00    +0.000 A 
ATOM      5  C   UNL     1       9.166  21.446  -2.751  0.00  0.00    +0.000 A 
ATOM      6  C   UNL     1      10.366  20.842  -2.399  0.00  0.00    +0.000 A 
ENDROOT
BRANCH   1   8
ATOM      7  C   UNL     1      13.821  20.653  -3.250  0.00  0.00    +0.000 C 
ATOM      8  O   UNL     1      12.698  20.663  -2.378  0.00  0.00    +0.000 OA
ENDBRANCH   1   8
BRANCH   6   9
ATOM      9  O   UNL     1      10.319  19.705  -1.637  0.00  0.00    +0.000 OA
ATOM     10  H   UNL     1      10.799  19.935  -0.818  0.00  0.00    +0.000 HD
ENDBRANCH   6   9
TORSDOF 2
ENDMDL
MODEL 9
REMARK VINA RESULT:    -3.242     10.050     11.478
REMARK INTER + INTRA:          -3.569
REMARK INTER:                  -3.520
REMARK INTRA:                  -0.050
REMARK UNBOUND:                -0.043
REMARK  Name = 
REMARK  3 active torsions:
REMARK  status: ('A' for Active; 'I' for Inactive)
REMARK    1  A    between atoms: C_1  and  O_2
REMARK    2  A    between atoms: O_2  and  C_3
REMARK    3  A    between atoms: C_8  and  O_9
REMARK                            x       y       z     vdW  Elec       q    Type
REMARK                         _______ _______ _______ _____ _____    ______ ____
ROOT
ATOM      1  C   UNL     1       9.943  21.627  -3.183  0.00  0.00    +0.000 A 
ATOM      2  C   UNL     1      10.503  22.633  -3.969  0.00  0.00    +0.000 A 
ATOM      3  C   UNL     1      11.891  22.819  -3.982  0.00  0.00    +0.000 A 
ATOM      4  C   UNL     1      12.722  22.004  -3.212  0.00  0.00    +0.000 A 
ATOM      5  C   UNL     1      12.170  20.997  -2.424  0.00  0.00    +0.000 A 
ATOM      6  C   UNL     1      10.793  20.819  -2.416  0.00  0.00    +0.000 A 
ENDROOT
BRANCH   1   8
ATOM      7  C   UNL     1       7.808  22.268  -2.359  0.00  0.00    +0.000 C 
ATOM      8  O   UNL     1       8.608  21.332  -3.072  0.00  0.00    +0.000 OA
ENDBRANCH   1   8
BRANCH   6   9
ATOM      9  O   UNL     1      10.274  19.822  -1.634  0.00  0.00    +0.000 OA
ATOM     10  H   UNL     1      11.038  19.475  -1.135  0.00  0.00    +0.000 HD
ENDBRANCH   6   9
TORSDOF 2
ENDMDL
