MODEL 1
REMARK VINA RESULT:    -4.119      0.000      0.000
REMARK INTER + INTRA:          -6.002
REMARK INTER:                  -5.563
REMARK INTRA:                  -0.438
REMARK UNBOUND:                -0.438
REMARK  Name = 
REMARK  10 active torsions:
REMARK  status: ('A' for Active; 'I' for Inactive)
REMARK    1  A    between atoms: C_1  and  C_2
REMARK    2  A    between atoms: C_5  and  N_8
REMARK    3  A    between atoms: N_8  and  C_9
REMARK    4  A    between atoms: N_8  and  C_13
REMARK    5  A    between atoms: C_9  and  C_10
REMARK    6  A    between atoms: C_10  and  C_11
REMARK    7  A    between atoms: C_10  and  O_12
REMARK    8  A    between atoms: C_13  and  C_14
REMARK    9  A    between atoms: C_14  and  C_15
REMARK   10  A    between atoms: C_14  and  O_16
REMARK                            x       y       z     vdW  Elec       q    Type
REMARK                         _______ _______ _______ _____ _____    ______ ____
ROOT
ATOM      1  N   UNL     1       6.497  16.812   2.890  0.00  0.00    +0.000 N 
ENDROOT
BRANCH   1   6
ATOM      2  C   UNL     1       1.809  16.487  -0.463  0.00  0.00    +0.000 C 
ATOM      3  C   UNL     1       3.015  16.555   0.423  0.00  0.00    +0.000 A 
ATOM      4  C   UNL     1       3.130  17.541   1.397  0.00  0.00    +0.000 A 
ATOM      5  C   UNL     1       4.276  17.619   2.205  0.00  0.00    +0.000 A 
ATOM      6  C   UNL     1       5.366  16.740   2.068  0.00  0.00    +0.000 A 
ATOM      7  C   UNL     1       5.214  15.755   1.075  0.00  0.00    +0.000 A 
ATOM      8  C   UNL     1       4.072  15.665   0.261  0.00  0.00    +0.000 A 
ENDBRANCH   1   6
BRANCH   1   9
ATOM      9  C   UNL     1       6.457  16.249   4.261  0.00  0.00    +0.000 C 
BRANCH   9  10
ATOM     10  C   UNL     1       7.072  14.830   4.345  0.00  0.00    +0.000 C 
ATOM     11  C   UNL     1       7.493  14.503   5.773  0.00  0.00    +0.000 C 
BRANCH  10  12
ATOM     12  O   UNL     1       6.131  13.835   3.920  0.00  0.00    +0.000 OA
ATOM     13  H   UNL     1       6.230  13.717   2.961  0.00  0.00    +0.000 HD
ENDBRANCH  10  12
ENDBRANCH   9  10
ENDBRANCH   1   9
BRANCH   1  14
ATOM     14  C   UNL     1       7.545  17.842   2.668  0.00  0.00    +0.000 C 
BRANCH  14  15
ATOM     15  C   UNL     1       8.372  17.568   1.389  0.00  0.00    +0.000 C 
ATOM     16  C   UNL     1       8.990  18.828   0.794  0.00  0.00    +0.000 C 
BRANCH  15  17
ATOM     17  O   UNL     1       9.422  16.633   1.630  0.00  0.00    +0.000 OA
ATOM     18  H   UNL     1       9.045  15.762   1.391  0.00  0.00    +0.000 HD
ENDBRANCH  15  17
ENDBRANCH  14  15
ENDBRANCH   1  14
TORSDOF 7
ENDMDL
MODEL 2
REMARK VINA RESULT:    -4.100      1.655      5.120
REMARK INTER + INTRA:          -5.976
REMARK INTER:                  -5.483
REMARK INTRA:                  -0.493
REMARK UNBOUND:                -0.438
REMARK  Name = 
REMARK  10 active torsions:
REMARK  status: ('A' for Active; 'I' for Inactive)
REMARK    1  A    between atoms: C_1  and  C_2
REMARK    2  A    between atoms: C_5  and  N_8
REMARK    3  A    between atoms: N_8  and  C_9
REMARK    4  A    between atoms: N_8  and  C_13
REMARK    5  A    between atoms: C_9  and  C_10
REMARK    6  A    between atoms: C_10  and  C_11
REMARK    7  A    between atoms: C_10  and  O_12
REMARK    8  A    between atoms: C_13  and  C_14
REMARK    9  A    between atoms: C_14  and  C_15
REMARK   10  A    between atoms: C_14  and  O_16
REMARK                            x       y       z     vdW  Elec       q    Type
REMARK                         _______ _______ _______ _____ _____    ______ ____
ROOT
ATOM      1  N   UNL     1       6.207  16.500   1.345  0.00  0.00    +0.000 N 
ENDROOT
BRANCH   1   6
ATOM      2  C   UNL     1      10.059  20.352  -0.567  0.00  0.00    +0.000 C 
ATOM      3  C   UNL     1       9.041  19.370  -0.071  0.00  0.00    +0.000 A 
ATOM      4  C   UNL     1       8.850  19.167   1.291  0.00  0.00    +0.000 A 
ATOM      5  C   UNL     1       7.916  18.223   1.750  0.00  0.00    +0.000 A 
ATOM      6  C   UNL     1       7.150  17.426   0.881  0.00  0.00    +0.000 A 
ATOM      7  C   UNL     1       7.368  17.660  -0.489  0.00  0.00    +0.000 A 
ATOM      8  C   UNL     1       8.297  18.601  -0.961  0.00  0.00    +0.000 A 
ENDBRANCH   1   6
BRANCH   1   9
ATOM      9  C   UNL     1       5.355  15.761   0.383  0.00  0.00    +0.000 C 
BRANCH   9  10
ATOM     10  C   UNL     1       3.845  15.879   0.704  0.00  0.00    +0.000 C 
ATOM     11  C   UNL     1       3.146  16.796  -0.292  0.00  0.00    +0.000 C 
BRANCH  10  12
ATOM     12  O   UNL     1       3.205  14.596   0.650  0.00  0.00    +0.000 OA
ATOM     13  H   UNL     1       3.763  14.003   0.120  0.00  0.00    +0.000 HD
ENDBRANCH  10  12
ENDBRANCH   9  10
ENDBRANCH   1   9
BRANCH   1  14
ATOM     14  C   UNL     1       5.662  16.584   2.725  0.00  0.00    +0.000 C 
BRANCH  14  15
ATOM     15  C   UNL     1       6.383  15.619   3.697  0.00  0.00    +0.000 C 
ATOM     16  C   UNL     1       6.178  15.981   5.163  0.00  0.00    +0.000 C 
BRANCH  15  17
ATOM     17  O   UNL     1       5.959  14.269   3.511  0.00  0.00    +0.000 OA
ATOM     18  H   UNL     1       4.992  14.325   3.372  0.00  0.00    +0.000 HD
ENDBRANCH  15  17
ENDBRANCH  14  15
ENDBRANCH   1  14
TORSDOF 7
ENDMDL
MODEL 3
REMARK VINA RESULT:    -4.088      1.440      1.769
REMARK INTER + INTRA:          -5.961
REMARK INTER:                  -5.435
REMARK INTRA:                  -0.525
REMARK UNBOUND:                -0.438
REMARK  Name = 
REMARK  10 active torsions:
REMARK  status: ('A' for Active; 'I' for Inactive)
REMARK    1  A    between atoms: C_1  and  C_2
REMARK    2  A    between atoms: C_5  and  N_8
REMARK    3  A    between atoms: N_8  and  C_9
REMARK    4  A    between atoms: N_8  and  C_13
REMARK    5  A    between atoms: C_9  and  C_10
REMARK    6  A    between atoms: C_10  and  C_11
REMARK    7  A    between atoms: C_10  and  O_12
REMARK    8  A    between atoms: C_13  and  C_14
REMARK    9  A    between atoms: C_14  and  C_15
REMARK   10  A    between atoms: C_14  and  O_16
REMARK                            x       y       z     vdW  Elec       q    Type
REMARK                         _______ _______ _______ _____ _____    ______ ____
ROOT
ATOM      1  N   UNL     1       5.619  17.117   1.376  0.00  0.00    +0.000 N 
ENDROOT
BRANCH   1   6
ATOM      2  C   UNL     1       0.897  16.005  -1.755  0.00  0.00    +0.000 C 
ATOM      3  C   UNL     1       2.108  16.303  -0.924  0.00  0.00    +0.000 A 
ATOM      4  C   UNL     1       2.766  17.523  -1.032  0.00  0.00    +0.000 A 
ATOM      5  C   UNL     1       3.919  17.784  -0.273  0.00  0.00    +0.000 A 
ATOM      6  C   UNL     1       4.481  16.842   0.607  0.00  0.00    +0.000 A 
ATOM      7  C   UNL     1       3.787  15.621   0.693  0.00  0.00    +0.000 A 
ATOM      8  C   UNL     1       2.633  15.347  -0.059  0.00  0.00    +0.000 A 
ENDBRANCH   1   6
BRANCH   1   9
ATOM      9  C   UNL     1       5.626  16.814   2.827  0.00  0.00    +0.000 C 
BRANCH   9  10
ATOM     10  C   UNL     1       6.634  15.700   3.203  0.00  0.00    +0.000 C 
ATOM     11  C   UNL     1       7.546  16.150   4.338  0.00  0.00    +0.000 C 
BRANCH  10  12
ATOM     12  O   UNL     1       5.953  14.511   3.624  0.00  0.00    +0.000 OA
ATOM     13  H   UNL     1       5.935  13.892   2.875  0.00  0.00    +0.000 HD
ENDBRANCH  10  12
ENDBRANCH   9  10
ENDBRANCH   1   9
BRANCH   1  14
ATOM     14  C   UNL     1       6.609  18.137   0.945  0.00  0.00    +0.000 C 
BRANCH  14  15
ATOM     15  C   UNL     1       7.736  17.527   0.078  0.00  0.00    +0.000 C 
ATOM     16  C   UNL     1       8.249  18.480  -0.995  0.00  0.00    +0.000 C 
BRANCH  15  17
ATOM     17  O   UNL     1       8.848  17.116   0.872  0.00  0.00    +0.000 OA
ATOM     18  H   UNL     1       9.529  16.836   0.227  0.00  0.00    +0.000 HD
ENDBRANCH  15  17
ENDBRANCH  14  15
ENDBRANCH   1  14
TORSDOF 7
ENDMDL
MODEL 4
REMARK VINA RESULT:    -4.084      4.166      6.770
REMARK INTER + INTRA:          -5.955
REMARK INTER:                  -5.376
REMARK INTRA:                  -0.579
REMARK UNBOUND:                -0.438
REMARK  Name = 
REMARK  10 active torsions:
REMARK  status: ('A' for Active; 'I' for Inactive)
REMARK    1  A    between atoms: C_1  and  C_2
REMARK    2  A    between atoms: C_5  and  N_8
REMARK    3  A    between atoms: N_8  and  C_9
REMARK    4  A    between atoms: N_8  and  C_13
REMARK    5  A    between atoms: C_9  and  C_10
REMARK    6  A    between atoms: C_10  and  C_11
REMARK    7  A    between atoms: C_10  and  O_12
REMARK    8  A    between atoms: C_13  and  C_14
REMARK    9  A    between atoms: C_14  and  C_15
REMARK   10  A    between atoms: C_14  and  O_16
REMARK                            x       y       z     vdW  Elec       q    Type
REMARK                         _______ _______ _______ _____ _____    ______ ____
ROOT
ATOM      1  N   UNL     1       1.583  16.015  -0.406  0.00  0.00    +0.000 N 
ENDROOT
BRANCH   1   6
ATOM      2  C   UNL     1       7.049  17.589   0.581  0.00  0.00    +0.000 C 
ATOM      3  C   UNL     1       5.638  17.171   0.303  0.00  0.00    +0.000 A 
ATOM      4  C   UNL     1       4.744  18.040  -0.314  0.00  0.00    +0.000 A 
ATOM      5  C   UNL     1       3.413  17.654  -0.545  0.00  0.00    +0.000 A 
ATOM      6  C   UNL     1       2.906  16.401  -0.155  0.00  0.00    +0.000 A 
ATOM      7  C   UNL     1       3.838  15.548   0.464  0.00  0.00    +0.000 A 
ATOM      8  C   UNL     1       5.171  15.921   0.699  0.00  0.00    +0.000 A 
ENDBRANCH   1   6
BRANCH   1   9
ATOM      9  C   UNL     1       0.778  15.380   0.665  0.00  0.00    +0.000 C 
BRANCH   9  10
ATOM     10  C   UNL     1       0.415  16.362   1.806  0.00  0.00    +0.000 C 
ATOM     11  C   UNL     1      -0.221  17.631   1.251  0.00  0.00    +0.000 C 
BRANCH  10  12
ATOM     12  O   UNL     1      -0.512  15.765   2.724  0.00  0.00    +0.000 OA
ATOM     13  H   UNL     1      -0.827  14.933   2.335  0.00  0.00    +0.000 HD
ENDBRANCH  10  12
ENDBRANCH   9  10
ENDBRANCH   1   9
BRANCH   1  14
ATOM     14  C   UNL     1       1.111  15.741  -1.787  0.00  0.00    +0.000 C 
BRANCH  14  15
ATOM     15  C   UNL     1      -0.396  16.048  -1.961  0.00  0.00    +0.000 C 
ATOM     16  C   UNL     1      -0.664  17.445  -2.508  0.00  0.00    +0.000 C 
BRANCH  15  17
ATOM     17  O   UNL     1      -1.029  15.106  -2.826  0.00  0.00    +0.000 OA
ATOM     18  H   UNL     1      -1.774  14.745  -2.305  0.00  0.00    +0.000 HD
ENDBRANCH  15  17
ENDBRANCH  14  15
ENDBRANCH   1  14
TORSDOF 7
ENDMDL
MODEL 5
REMARK VINA RESULT:    -4.026      2.179      2.524
REMARK INTER + INTRA:          -5.877
REMARK INTER:                  -5.242
REMARK INTRA:                  -0.635
REMARK UNBOUND:                -0.438
REMARK  Name = 
REMARK  10 active torsions:
REMARK  status: ('A' for Active; 'I' for Inactive)
REMARK    1  A    between atoms: C_1  and  C_2
REMARK    2  A    between atoms: C_5  and  N_8
REMARK    3  A    between atoms: N_8  and  C_9
REMARK    4  A    between atoms: N_8  and  C_13
REMARK    5  A    between atoms: C_9  and  C_10
REMARK    6  A    between atoms: C_10  and  C_11
REMARK    7  A    between atoms: C_10  and  O_12
REMARK    8  A    between atoms: C_13  and  C_14
REMARK    9  A    between atoms: C_14  and  C_15
REMARK   10  A    between atoms: C_14  and  O_16
REMARK                            x       y       z     vdW  Elec       q    Type
REMARK                         _______ _______ _______ _____ _____    ______ ____
ROOT
ATOM      1  N   UNL     1       6.596  17.738   0.980  0.00  0.00    +0.000 N 
ENDROOT
BRANCH   1   6
ATOM      2  C   UNL     1       1.467  15.728  -0.747  0.00  0.00    +0.000 C 
ATOM      3  C   UNL     1       2.788  16.257  -0.277  0.00  0.00    +0.000 A 
ATOM      4  C   UNL     1       3.177  17.561  -0.561  0.00  0.00    +0.000 A 
ATOM      5  C   UNL     1       4.429  18.042  -0.144  0.00  0.00    +0.000 A 
ATOM      6  C   UNL     1       5.357  17.246   0.550  0.00  0.00    +0.000 A 
ATOM      7  C   UNL     1       4.930  15.933   0.821  0.00  0.00    +0.000 A 
ATOM      8  C   UNL     1       3.680  15.440   0.412  0.00  0.00    +0.000 A 
ENDBRANCH   1   6
BRANCH   1   9
ATOM      9  C   UNL     1       7.102  17.400   2.332  0.00  0.00    +0.000 C 
BRANCH   9  10
ATOM     10  C   UNL     1       8.628  17.617   2.473  0.00  0.00    +0.000 C 
ATOM     11  C   UNL     1       9.066  17.483   3.927  0.00  0.00    +0.000 C 
BRANCH  10  12
ATOM     12  O   UNL     1       9.358  16.654   1.700  0.00  0.00    +0.000 OA
ATOM     13  H   UNL     1      10.118  17.106   1.295  0.00  0.00    +0.000 HD
ENDBRANCH  10  12
ENDBRANCH   9  10
ENDBRANCH   1   9
BRANCH   1  14
ATOM     14  C   UNL     1       7.188  18.961   0.379  0.00  0.00    +0.000 C 
BRANCH  14  15
ATOM     15  C   UNL     1       7.939  18.660  -0.940  0.00  0.00    +0.000 C 
ATOM     16  C   UNL     1       9.156  19.552  -1.153  0.00  0.00    +0.000 C 
BRANCH  15  17
ATOM     17  O   UNL     1       8.369  17.302  -1.003  0.00  0.00    +0.000 OA
ATOM     18  H   UNL     1       8.443  17.104  -1.959  0.00  0.00    +0.000 HD
ENDBRANCH  15  17
ENDBRANCH  14  15
ENDBRANCH   1  14
TORSDOF 7
ENDMDL
MODEL 6
REMARK VINA RESULT:    -3.906      1.662      3.783
REMARK INTER + INTRA:          -5.715
REMARK INTER:                  -5.011
REMARK INTRA:                  -0.703
REMARK UNBOUND:                -0.438
REMARK  Name = 
REMARK  10 active torsions:
REMARK  status: ('A' for Active; 'I' for Inactive)
REMARK    1  A    between atoms: C_1  and  C_2
REMARK    2  A    between atoms: C_5  and  N_8
REMARK    3  A    between atoms: N_8  and  C_9
REMARK    4  A    between atoms: N_8  and  C_13
REMARK    5  A    between atoms: C_9  and  C_10
REMARK    6  A    between atoms: C_10  and  C_11
REMARK    7  A    between atoms: C_10  and  O_12
REMARK    8  A    between atoms: C_13  and  C_14
REMARK    9  A    between atoms: C_14  and  C_15
REMARK   10  A    between atoms: C_14  and  O_16
REMARK                            x       y       z     vdW  Elec       q    Type
REMARK                         _______ _______ _______ _____ _____    ______ ____
ROOT
ATOM      1  N   UNL     1       5.376  16.871   1.374  0.00  0.00    +0.000 N 
ENDROOT
BRANCH   1   6
ATOM      2  C   UNL     1       0.670  16.110  -1.883  0.00  0.00    +0.000 C 
ATOM      3  C   UNL     1       1.906  16.299  -1.057  0.00  0.00    +0.000 A 
ATOM      4  C   UNL     1       2.359  15.293  -0.210  0.00  0.00    +0.000 A 
ATOM      5  C   UNL     1       3.501  15.487   0.584  0.00  0.00    +0.000 A 
ATOM      6  C   UNL     1       4.227  16.691   0.593  0.00  0.00    +0.000 A 
ATOM      7  C   UNL     1       3.741  17.685  -0.276  0.00  0.00    +0.000 A 
ATOM      8  C   UNL     1       2.602  17.504  -1.078  0.00  0.00    +0.000 A 
ENDBRANCH   1   6
BRANCH   1   9
ATOM      9  C   UNL     1       6.374  17.902   1.002  0.00  0.00    +0.000 C 
BRANCH   9  10
ATOM     10  C   UNL     1       7.402  17.395  -0.039  0.00  0.00    +0.000 C 
ATOM     11  C   UNL     1       7.603  18.418  -1.150  0.00  0.00    +0.000 C 
BRANCH  10  12
ATOM     12  O   UNL     1       8.675  17.148   0.573  0.00  0.00    +0.000 OA
ATOM     13  H   UNL     1       8.696  16.220   0.862  0.00  0.00    +0.000 HD
ENDBRANCH  10  12
ENDBRANCH   9  10
ENDBRANCH   1   9
BRANCH   1  14
ATOM     14  C   UNL     1       5.898  15.780   2.236  0.00  0.00    +0.000 C 
BRANCH  14  15
ATOM     15  C   UNL     1       6.736  16.320   3.419  0.00  0.00    +0.000 C 
ATOM     16  C   UNL     1       6.256  15.815   4.775  0.00  0.00    +0.000 C 
BRANCH  15  17
ATOM     17  O   UNL     1       8.116  15.983   3.285  0.00  0.00    +0.000 OA
ATOM     18  H   UNL     1       8.147  15.009   3.370  0.00  0.00    +0.000 HD
ENDBRANCH  15  17
ENDBRANCH  14  15
ENDBRANCH   1  14
TORSDOF 7
ENDMDL
MODEL 7
REMARK VINA RESULT:    -3.886      1.456      5.131
REMARK INTER + INTRA:          -5.688
REMARK INTER:                  -5.219
REMARK INTRA:                  -0.469
REMARK UNBOUND:                -0.438
REMARK  Name = 
REMARK  10 active torsions:
REMARK  status: ('A' for Active; 'I' for Inactive)
REMARK    1  A    between atoms: C_1  and  C_2
REMARK    2  A    between atoms: C_5  and  N_8
REMARK    3  A    between atoms: N_8  and  C_9
REMARK    4  A    between atoms: N_8  and  C_13
REMARK    5  A    between atoms: C_9  and  C_10
REMARK    6  A    between atoms: C_10  and  C_11
REMARK    7  A    between atoms: C_10  and  O_12
REMARK    8  A    between atoms: C_13  and  C_14
REMARK    9  A    between atoms: C_14  and  C_15
REMARK   10  A    between atoms: C_14  and  O_16
REMARK                            x       y       z     vdW  Elec       q    Type
REMARK                         _______ _______ _______ _____ _____    ______ ____
ROOT
ATOM      1  N   UNL     1       6.377  16.747   3.051  0.00  0.00    +0.000 N 
ENDROOT
BRANCH   1   6
ATOM      2  C   UNL     1       7.025  13.317   7.649  0.00  0.00    +0.000 C 
ATOM      3  C   UNL     1       6.881  14.215   6.459  0.00  0.00    +0.000 A 
ATOM      4  C   UNL     1       6.386  15.507   6.595  0.00  0.00    +0.000 A 
ATOM      5  C   UNL     1       6.224  16.335   5.472  0.00  0.00    +0.000 A 
ATOM      6  C   UNL     1       6.522  15.910   4.165  0.00  0.00    +0.000 A 
ATOM      7  C   UNL     1       7.022  14.599   4.064  0.00  0.00    +0.000 A 
ATOM      8  C   UNL     1       7.191  13.762   5.180  0.00  0.00    +0.000 A 
ENDBRANCH   1   6
BRANCH   1   9
ATOM      9  C   UNL     1       7.432  17.734   2.720  0.00  0.00    +0.000 C 
BRANCH   9  10
ATOM     10  C   UNL     1       8.273  17.323   1.486  0.00  0.00    +0.000 C 
ATOM     11  C   UNL     1       8.743  18.550   0.714  0.00  0.00    +0.000 C 
BRANCH  10  12
ATOM     12  O   UNL     1       9.432  16.574   1.879  0.00  0.00    +0.000 OA
ATOM     13  H   UNL     1       9.812  16.168   1.083  0.00  0.00    +0.000 HD
ENDBRANCH  10  12
ENDBRANCH   9  10
ENDBRANCH   1   9
BRANCH   1  14
ATOM     14  C   UNL     1       5.036  17.055   2.491  0.00  0.00    +0.000 C 
BRANCH  14  15
ATOM     15  C   UNL     1       4.767  16.298   1.168  0.00  0.00    +0.000 C 
ATOM     16  C   UNL     1       4.945  17.170  -0.069  0.00  0.00    +0.000 C 
BRANCH  15  17
ATOM     17  O   UNL     1       5.615  15.158   1.031  0.00  0.00    +0.000 OA
ATOM     18  H   UNL     1       5.029  14.388   1.177  0.00  0.00    +0.000 HD
ENDBRANCH  15  17
ENDBRANCH  14  15
ENDBRANCH   1  14
TORSDOF 7
ENDMDL
MODEL 8
REMARK VINA RESULT:    -3.783      1.695      4.959
REMARK INTER + INTRA:          -5.548
REMARK INTER:                  -4.917
REMARK INTRA:                  -0.632
REMARK UNBOUND:                -0.438
REMARK  Name = 
REMARK  10 active torsions:
REMARK  status: ('A' for Active; 'I' for Inactive)
REMARK    1  A    between atoms: C_1  and  C_2
REMARK    2  A    between atoms: C_5  and  N_8
REMARK    3  A    between atoms: N_8  and  C_9
REMARK    4  A    between atoms: N_8  and  C_13
REMARK    5  A    between atoms: C_9  and  C_10
REMARK    6  A    between atoms: C_10  and  C_11
REMARK    7  A    between atoms: C_10  and  O_12
REMARK    8  A    between atoms: C_13  and  C_14
REMARK    9  A    between atoms: C_14  and  C_15
REMARK   10  A    between atoms: C_14  and  O_16
REMARK                            x       y       z     vdW  Elec       q    Type
REMARK                         _______ _______ _______ _____ _____    ______ ____
ROOT
ATOM      1  N   UNL     1       6.296  17.390   1.410  0.00  0.00    +0.000 N 
ENDROOT
BRANCH   1   6
ATOM      2  C   UNL     1      11.061  20.414   0.195  0.00  0.00    +0.000 C 
ATOM      3  C   UNL     1       9.811  19.651   0.510  0.00  0.00    +0.000 A 
ATOM      4  C   UNL     1       9.440  19.400   1.827  0.00  0.00    +0.000 A 
ATOM      5  C   UNL     1       8.283  18.658   2.116  0.00  0.00    +0.000 A 
ATOM      6  C   UNL     1       7.459  18.113   1.115  0.00  0.00    +0.000 A 
ATOM      7  C   UNL     1       7.863  18.387  -0.204  0.00  0.00    +0.000 A 
ATOM      8  C   UNL     1       9.017  19.130  -0.507  0.00  0.00    +0.000 A 
ENDBRANCH   1   6
BRANCH   1   9
ATOM      9  C   UNL     1       5.985  17.023   2.813  0.00  0.00    +0.000 C 
BRANCH   9  10
ATOM     10  C   UNL     1       6.714  15.738   3.273  0.00  0.00    +0.000 C 
ATOM     11  C   UNL     1       7.346  15.932   4.646  0.00  0.00    +0.000 C 
BRANCH  10  12
ATOM     12  O   UNL     1       5.805  14.631   3.355  0.00  0.00    +0.000 OA
ATOM     13  H   UNL     1       5.321  14.576   2.514  0.00  0.00    +0.000 HD
ENDBRANCH  10  12
ENDBRANCH   9  10
ENDBRANCH   1   9
BRANCH   1  14
ATOM     14  C   UNL     1       5.633  16.547   0.383  0.00  0.00    +0.000 C 
BRANCH  14  15
ATOM     15  C   UNL     1       4.140  16.298   0.705  0.00  0.00    +0.000 C 
ATOM     16  C   UNL     1       3.197  16.852  -0.357  0.00  0.00    +0.000 C 
BRANCH  15  17
ATOM     17  O   UNL     1       3.859  14.909   0.865  0.00  0.00    +0.000 OA
ATOM     18  H   UNL     1       4.722  14.462   0.753  0.00  0.00    +0.000 HD
ENDBRANCH  15  17
ENDBRANCH  14  15
ENDBRANCH   1  14
TORSDOF 7
ENDMDL
MODEL 9
REMARK VINA RESULT:    -3.783      0.915      3.326
REMARK INTER + INTRA:          -5.548
REMARK INTER:                  -5.138
REMARK INTRA:                  -0.410
REMARK UNBOUND:                -0.438
REMARK  Name = 
REMARK  10 active torsions:
REMARK  status: ('A' for Active; 'I' for Inactive)
REMARK    1  A    between atoms: C_1  and  C_2
REMARK    2  A    between atoms: C_5  and  N_8
REMARK    3  A    between atoms: N_8  and  C_9
REMARK    4  A    between atoms: N_8  and  C_13
REMARK    5  A    between atoms: C_9  and  C_10
REMARK    6  A    between atoms: C_10  and  C_11
REMARK    7  A    between atoms: C_10  and  O_12
REMARK    8  A    between atoms: C_13  and  C_14
REMARK    9  A    between atoms: C_14  and  C_15
REMARK   10  A    between atoms: C_14  and  O_16
REMARK                            x       y       z     vdW  Elec       q    Type
REMARK                         _______ _______ _______ _____ _____    ______ ____
ROOT
ATOM      1  N   UNL     1       5.976  17.520   2.566  0.00  0.00    +0.000 N 
ENDROOT
BRANCH   1   6
ATOM      2  C   UNL     1       1.826  16.554  -1.329  0.00  0.00    +0.000 C 
ATOM      3  C   UNL     1       2.886  16.802  -0.300  0.00  0.00    +0.000 A 
ATOM      4  C   UNL     1       3.180  18.093   0.125  0.00  0.00    +0.000 A 
ATOM      5  C   UNL     1       4.196  18.322   1.068  0.00  0.00    +0.000 A 
ATOM      6  C   UNL     1       4.978  17.287   1.611  0.00  0.00    +0.000 A 
ATOM      7  C   UNL     1       4.651  15.995   1.160  0.00  0.00    +0.000 A 
ATOM      8  C   UNL     1       3.636  15.752   0.220  0.00  0.00    +0.000 A 
ENDBRANCH   1   6
BRANCH   1   9
ATOM      9  C   UNL     1       7.257  18.148   2.163  0.00  0.00    +0.000 C 
BRANCH   9  10
ATOM     10  C   UNL     1       7.933  17.423   0.973  0.00  0.00    +0.000 C 
ATOM     11  C   UNL     1       8.119  18.368  -0.208  0.00  0.00    +0.000 C 
BRANCH  10  12
ATOM     12  O   UNL     1       9.223  16.916   1.344  0.00  0.00    +0.000 OA
ATOM     13  H   UNL     1       9.873  17.250   0.704  0.00  0.00    +0.000 HD
ENDBRANCH  10  12
ENDBRANCH   9  10
ENDBRANCH   1   9
BRANCH   1  14
ATOM     14  C   UNL     1       6.034  16.735   3.825  0.00  0.00    +0.000 C 
BRANCH  14  15
ATOM     15  C   UNL     1       6.892  15.456   3.677  0.00  0.00    +0.000 C 
ATOM     16  C   UNL     1       8.076  15.413   4.636  0.00  0.00    +0.000 C 
BRANCH  15  17
ATOM     17  O   UNL     1       6.117  14.275   3.880  0.00  0.00    +0.000 OA
ATOM     18  H   UNL     1       6.036  14.189   4.851  0.00  0.00    +0.000 HD
ENDBRANCH  15  17
ENDBRANCH  14  15
ENDBRANCH   1  14
TORSDOF 7
ENDMDL
