MODEL 1
REMARK VINA RESULT:    -5.246      0.000      0.000
REMARK INTER + INTRA:          -5.748
REMARK INTER:                  -5.706
REMARK INTRA:                  -0.042
REMARK UNBOUND:                -0.042
REMARK  Name = 
REMARK  3 active torsions:
REMARK  status: ('A' for Active; 'I' for Inactive)
REMARK    1  A    between atoms: C_1  and  O_2
REMARK    2  A    between atoms: O_2  and  C_3
REMARK    3  A    between atoms: C_8  and  O_9
REMARK                            x       y       z     vdW  Elec       q    Type
REMARK                         _______ _______ _______ _____ _____    ______ ____
ROOT
ATOM      1  C   UNL     1       8.857   9.480   4.813  0.00  0.00    +0.000 A 
ATOM      2  C   UNL     1       9.969  10.288   4.576  0.00  0.00    +0.000 A 
ATOM      3  C   UNL     1      10.701  10.138   3.391  0.00  0.00    +0.000 A 
ATOM      4  C   UNL     1      10.328   9.184   2.444  0.00  0.00    +0.000 A 
ATOM      5  C   UNL     1       9.218   8.374   2.674  0.00  0.00    +0.000 A 
ATOM      6  C   UNL     1       8.497   8.529   3.851  0.00  0.00    +0.000 A 
ENDROOT
BRANCH   1   8
ATOM      7  C   UNL     1       7.857  10.790   6.526  0.00  0.00    +0.000 C 
ATOM      8  O   UNL     1       8.051   9.516   5.923  0.00  0.00    +0.000 OA
ENDBRANCH   1   8
BRANCH   6   9
ATOM      9  O   UNL     1       7.411   7.721   4.055  0.00  0.00    +0.000 OA
ATOM     10  H   UNL     1       6.993   7.640   3.176  0.00  0.00    +0.000 HD
ENDBRANCH   6   9
TORSDOF 2
ENDMDL
MODEL 2
REMARK VINA RESULT:    -5.121      2.078      3.560
REMARK INTER + INTRA:          -5.612
REMARK INTER:                  -5.573
REMARK INTRA:                  -0.039
REMARK UNBOUND:                -0.042
REMARK  Name = 
REMARK  3 active torsions:
REMARK  status: ('A' for Active; 'I' for Inactive)
REMARK    1  A    between atoms: C_1  and  O_2
REMARK    2  A    between atoms: O_2  and  C_3
REMARK    3  A    between atoms: C_8  and  O_9
REMARK                            x       y       z     vdW  Elec       q    Type
REMARK                         _______ _______ _______ _____ _____    ______ ____
ROOT
ATOM      1  C   UNL     1       8.993   9.241   3.409  0.00  0.00    +0.000 A 
ATOM      2  C   UNL     1       8.555   8.970   4.704  0.00  0.00    +0.000 A 
ATOM      3  C   UNL     1       8.413  10.014   5.627  0.00  0.00    +0.000 A 
ATOM      4  C   UNL     1       8.708  11.328   5.261  0.00  0.00    +0.000 A 
ATOM      5  C   UNL     1       9.146  11.607   3.968  0.00  0.00    +0.000 A 
ATOM      6  C   UNL     1       9.284  10.565   3.059  0.00  0.00    +0.000 A 
ENDROOT
BRANCH   1   8
ATOM      7  C   UNL     1       8.485   7.087   2.542  0.00  0.00    +0.000 C 
ATOM      8  O   UNL     1       9.178   8.323   2.406  0.00  0.00    +0.000 OA
ENDBRANCH   1   8
BRANCH   6   9
ATOM      9  O   UNL     1       9.716  10.864   1.794  0.00  0.00    +0.000 OA
ATOM     10  H   UNL     1      10.612  10.480   1.741  0.00  0.00    +0.000 HD
ENDBRANCH   6   9
TORSDOF 2
ENDMDL
MODEL 3
REMARK VINA RESULT:    -5.074      2.081      2.623
REMARK INTER + INTRA:          -5.561
REMARK INTER:                  -5.521
REMARK INTRA:                  -0.040
REMARK UNBOUND:                -0.042
REMARK  Name = 
REMARK  3 active torsions:
REMARK  status: ('A' for Active; 'I' for Inactive)
REMARK    1  A    between atoms: C_1  and  O_2
REMARK    2  A    between atoms: O_2  and  C_3
REMARK    3  A    between atoms: C_8  and  O_9
REMARK                            x       y       z     vdW  Elec       q    Type
REMARK                         _______ _______ _______ _____ _____    ______ ____
ROOT
ATOM      1  C   UNL     1       8.983  10.122   3.734  0.00  0.00    +0.000 A 
ATOM      2  C   UNL     1       8.275   9.195   4.498  0.00  0.00    +0.000 A 
ATOM      3  C   UNL     1       8.177   7.865   4.071  0.00  0.00    +0.000 A 
ATOM      4  C   UNL     1       8.784   7.457   2.882  0.00  0.00    +0.000 A 
ATOM      5  C   UNL     1       9.493   8.377   2.113  0.00  0.00    +0.000 A 
ATOM      6  C   UNL     1       9.584   9.694   2.544  0.00  0.00    +0.000 A 
ENDROOT
BRANCH   1   8
ATOM      7  C   UNL     1       9.091  11.810   5.403  0.00  0.00    +0.000 C 
ATOM      8  O   UNL     1       9.159  11.450   4.028  0.00  0.00    +0.000 OA
ENDBRANCH   1   8
BRANCH   6   9
ATOM      9  O   UNL     1      10.286  10.580   1.771  0.00  0.00    +0.000 OA
ATOM     10  H   UNL     1      10.841  10.021   1.194  0.00  0.00    +0.000 HD
ENDBRANCH   6   9
TORSDOF 2
ENDMDL
MODEL 4
REMARK VINA RESULT:    -5.022      2.125      3.263
REMARK INTER + INTRA:          -5.504
REMARK INTER:                  -5.466
REMARK INTRA:                  -0.038
REMARK UNBOUND:                -0.042
REMARK  Name = 
REMARK  3 active torsions:
REMARK  status: ('A' for Active; 'I' for Inactive)
REMARK    1  A    between atoms: C_1  and  O_2
REMARK    2  A    between atoms: O_2  and  C_3
REMARK    3  A    between atoms: C_8  and  O_9
REMARK                            x       y       z     vdW  Elec       q    Type
REMARK                         _______ _______ _______ _____ _____    ______ ____
ROOT
ATOM      1  C   UNL     1       9.623   9.909   2.912  0.00  0.00    +0.000 A 
ATOM      2  C   UNL     1       9.264  10.596   4.071  0.00  0.00    +0.000 A 
ATOM      3  C   UNL     1       8.491   9.959   5.050  0.00  0.00    +0.000 A 
ATOM      4  C   UNL     1       8.074   8.638   4.874  0.00  0.00    +0.000 A 
ATOM      5  C   UNL     1       8.429   7.946   3.719  0.00  0.00    +0.000 A 
ATOM      6  C   UNL     1       9.195   8.585   2.753  0.00  0.00    +0.000 A 
ENDROOT
BRANCH   1   8
ATOM      7  C   UNL     1      11.774  10.502   2.094  0.00  0.00    +0.000 C 
ATOM      8  O   UNL     1      10.372  10.405   1.875  0.00  0.00    +0.000 OA
ENDBRANCH   1   8
BRANCH   6   9
ATOM      9  O   UNL     1       9.532   7.884   1.626  0.00  0.00    +0.000 OA
ATOM     10  H   UNL     1       8.715   7.866   1.092  0.00  0.00    +0.000 HD
ENDBRANCH   6   9
TORSDOF 2
ENDMDL
MODEL 5
REMARK VINA RESULT:    -4.945      1.446      2.240
REMARK INTER + INTRA:          -5.421
REMARK INTER:                  -5.419
REMARK INTRA:                  -0.002
REMARK UNBOUND:                -0.042
REMARK  Name = 
REMARK  3 active torsions:
REMARK  status: ('A' for Active; 'I' for Inactive)
REMARK    1  A    between atoms: C_1  and  O_2
REMARK    2  A    between atoms: O_2  and  C_3
REMARK    3  A    between atoms: C_8  and  O_9
REMARK                            x       y       z     vdW  Elec       q    Type
REMARK                         _______ _______ _______ _____ _____    ______ ____
ROOT
ATOM      1  C   UNL     1       9.485   9.628   3.860  0.00  0.00    +0.000 A 
ATOM      2  C   UNL     1       9.998   9.220   2.629  0.00  0.00    +0.000 A 
ATOM      3  C   UNL     1       9.543   8.032   2.042  0.00  0.00    +0.000 A 
ATOM      4  C   UNL     1       8.579   7.250   2.680  0.00  0.00    +0.000 A 
ATOM      5  C   UNL     1       8.062   7.652   3.910  0.00  0.00    +0.000 A 
ATOM      6  C   UNL     1       8.518   8.831   4.485  0.00  0.00    +0.000 A 
ENDROOT
BRANCH   1   8
ATOM      7  C   UNL     1       9.183  11.965   4.166  0.00  0.00    +0.000 C 
ATOM      8  O   UNL     1       9.837  10.761   4.549  0.00  0.00    +0.000 OA
ENDBRANCH   1   8
BRANCH   6   9
ATOM      9  O   UNL     1       7.996   9.205   5.695  0.00  0.00    +0.000 OA
ATOM     10  H   UNL     1       7.603  10.084   5.534  0.00  0.00    +0.000 HD
ENDBRANCH   6   9
TORSDOF 2
ENDMDL
MODEL 6
REMARK VINA RESULT:    -4.730      1.346      2.950
REMARK INTER + INTRA:          -5.187
REMARK INTER:                  -5.149
REMARK INTRA:                  -0.038
REMARK UNBOUND:                -0.042
REMARK  Name = 
REMARK  3 active torsions:
REMARK  status: ('A' for Active; 'I' for Inactive)
REMARK    1  A    between atoms: C_1  and  O_2
REMARK    2  A    between atoms: O_2  and  C_3
REMARK    3  A    between atoms: C_8  and  O_9
REMARK                            x       y       z     vdW  Elec       q    Type
REMARK                         _______ _______ _______ _____ _____    ______ ____
ROOT
ATOM      1  C   UNL     1       8.809   9.195   4.044  0.00  0.00    +0.000 A 
ATOM      2  C   UNL     1       9.265   9.792   2.870  0.00  0.00    +0.000 A 
ATOM      3  C   UNL     1       9.478  11.176   2.826  0.00  0.00    +0.000 A 
ATOM      4  C   UNL     1       9.234  11.966   3.951  0.00  0.00    +0.000 A 
ATOM      5  C   UNL     1       8.779  11.377   5.128  0.00  0.00    +0.000 A 
ATOM      6  C   UNL     1       8.570  10.004   5.163  0.00  0.00    +0.000 A 
ENDROOT
BRANCH   1   8
ATOM      7  C   UNL     1       8.433   7.067   3.055  0.00  0.00    +0.000 C 
ATOM      8  O   UNL     1       8.558   7.859   4.231  0.00  0.00    +0.000 OA
ENDBRANCH   1   8
BRANCH   6   9
ATOM      9  O   UNL     1       8.122   9.447   6.331  0.00  0.00    +0.000 OA
ATOM     10  H   UNL     1       8.744   8.718   6.514  0.00  0.00    +0.000 HD
ENDBRANCH   6   9
TORSDOF 2
ENDMDL
MODEL 7
REMARK VINA RESULT:    -4.638      1.419      2.382
REMARK INTER + INTRA:          -5.087
REMARK INTER:                  -5.044
REMARK INTRA:                  -0.043
REMARK UNBOUND:                -0.042
REMARK  Name = 
REMARK  3 active torsions:
REMARK  status: ('A' for Active; 'I' for Inactive)
REMARK    1  A    between atoms: C_1  and  O_2
REMARK    2  A    between atoms: O_2  and  C_3
REMARK    3  A    between atoms: C_8  and  O_9
REMARK                            x       y       z     vdW  Elec       q    Type
REMARK                         _______ _______ _______ _____ _____    ______ ____
ROOT
ATOM      1  C   UNL     1       8.386  10.058   4.941  0.00  0.00    +0.000 A 
ATOM      2  C   UNL     1       8.384   8.752   4.453  0.00  0.00    +0.000 A 
ATOM      3  C   UNL     1       9.140   8.428   3.319  0.00  0.00    +0.000 A 
ATOM      4  C   UNL     1       9.898   9.404   2.670  0.00  0.00    +0.000 A 
ATOM      5  C   UNL     1       9.906  10.711   3.152  0.00  0.00    +0.000 A 
ATOM      6  C   UNL     1       9.153  11.024   4.277  0.00  0.00    +0.000 A 
ENDROOT
BRANCH   1   8
ATOM      7  C   UNL     1       8.213  10.152   7.309  0.00  0.00    +0.000 C 
ATOM      8  O   UNL     1       7.697  10.517   6.035  0.00  0.00    +0.000 OA
ENDBRANCH   1   8
BRANCH   6   9
ATOM      9  O   UNL     1       9.176  12.316   4.732  0.00  0.00    +0.000 OA
ATOM     10  H   UNL     1      10.020  12.680   4.402  0.00  0.00    +0.000 HD
ENDBRANCH   6   9
TORSDOF 2
ENDMDL
MODEL 8
REMARK VINA RESULT:    -4.611      1.404      3.250
REMARK INTER + INTRA:          -5.057
REMARK INTER:                  -5.005
REMARK INTRA:                  -0.053
REMARK UNBOUND:                -0.042
REMARK  Name = 
REMARK  3 active torsions:
REMARK  status: ('A' for Active; 'I' for Inactive)
REMARK    1  A    between atoms: C_1  and  O_2
REMARK    2  A    between atoms: O_2  and  C_3
REMARK    3  A    between atoms: C_8  and  O_9
REMARK                            x       y       z     vdW  Elec       q    Type
REMARK                         _______ _______ _______ _____ _____    ______ ____
ROOT
ATOM      1  C   UNL     1       8.858  10.207   3.903  0.00  0.00    +0.000 A 
ATOM      2  C   UNL     1       9.233  11.509   4.232  0.00  0.00    +0.000 A 
ATOM      3  C   UNL     1       8.979  12.008   5.516  0.00  0.00    +0.000 A 
ATOM      4  C   UNL     1       8.351  11.209   6.473  0.00  0.00    +0.000 A 
ATOM      5  C   UNL     1       7.974   9.907   6.153  0.00  0.00    +0.000 A 
ATOM      6  C   UNL     1       8.230   9.421   4.877  0.00  0.00    +0.000 A 
ENDROOT
BRANCH   1   8
ATOM      7  C   UNL     1      10.389   9.348   2.301  0.00  0.00    +0.000 C 
ATOM      8  O   UNL     1       9.043   9.591   2.691  0.00  0.00    +0.000 OA
ENDBRANCH   1   8
BRANCH   6   9
ATOM      9  O   UNL     1       7.850   8.138   4.586  0.00  0.00    +0.000 OA
ATOM     10  H   UNL     1       7.224   8.227   3.842  0.00  0.00    +0.000 HD
ENDBRANCH   6   9
TORSDOF 2
ENDMDL
MODEL 9
REMARK VINA RESULT:    -4.190      2.052      4.392
REMARK INTER + INTRA:          -4.599
REMARK INTER:                  -4.553
REMARK INTRA:                  -0.047
REMARK UNBOUND:                -0.042
REMARK  Name = 
REMARK  3 active torsions:
REMARK  status: ('A' for Active; 'I' for Inactive)
REMARK    1  A    between atoms: C_1  and  O_2
REMARK    2  A    between atoms: O_2  and  C_3
REMARK    3  A    between atoms: C_8  and  O_9
REMARK                            x       y       z     vdW  Elec       q    Type
REMARK                         _______ _______ _______ _____ _____    ______ ____
ROOT
ATOM      1  C   UNL     1       8.534  10.714   6.476  0.00  0.00    +0.000 A 
ATOM      2  C   UNL     1       9.885  11.059   6.455  0.00  0.00    +0.000 A 
ATOM      3  C   UNL     1      10.482  11.618   7.592  0.00  0.00    +0.000 A 
ATOM      4  C   UNL     1       9.733  11.834   8.751  0.00  0.00    +0.000 A 
ATOM      5  C   UNL     1       8.384  11.491   8.780  0.00  0.00    +0.000 A 
ATOM      6  C   UNL     1       7.800  10.938   7.647  0.00  0.00    +0.000 A 
ENDROOT
BRANCH   1   8
ATOM      7  C   UNL     1       8.437   9.080   4.754  0.00  0.00    +0.000 C 
ATOM      8  O   UNL     1       7.822  10.162   5.442  0.00  0.00    +0.000 OA
ENDBRANCH   1   8
BRANCH   6   9
ATOM      9  O   UNL     1       6.471  10.609   7.700  0.00  0.00    +0.000 OA
ATOM     10  H   UNL     1       6.266  10.558   8.653  0.00  0.00    +0.000 HD
ENDBRANCH   6   9
TORSDOF 2
ENDMDL
