MODEL 1
REMARK VINA RESULT:    -6.483      0.000      0.000
REMARK INTER + INTRA:          -8.966
REMARK INTER:                  -8.757
REMARK INTRA:                  -0.209
REMARK UNBOUND:                -0.209
REMARK  Name = 
REMARK  10 active torsions:
REMARK  status: ('A' for Active; 'I' for Inactive)
REMARK    1  A    between atoms: C_1  and  C_2
REMARK    2  A    between atoms: C_5  and  N_8
REMARK    3  A    between atoms: N_8  and  C_9
REMARK    4  A    between atoms: N_8  and  C_13
REMARK    5  A    between atoms: C_9  and  C_10
REMARK    6  A    between atoms: C_10  and  C_11
REMARK    7  A    between atoms: C_10  and  O_12
REMARK    8  A    between atoms: C_13  and  C_14
REMARK    9  A    between atoms: C_14  and  C_15
REMARK   10  A    between atoms: C_14  and  O_16
REMARK                            x       y       z     vdW  Elec       q    Type
REMARK                         _______ _______ _______ _____ _____    ______ ____
ROOT
ATOM      1  N   UNL     1       9.394   9.777   4.328  0.00  0.00    +0.000 N 
ENDROOT
BRANCH   1   6
ATOM      2  C   UNL     1       9.243  12.747   9.277  0.00  0.00    +0.000 C 
ATOM      3  C   UNL     1       9.282  11.955   8.005  0.00  0.00    +0.000 A 
ATOM      4  C   UNL     1      10.493  11.587   7.429  0.00  0.00    +0.000 A 
ATOM      5  C   UNL     1      10.523  10.870   6.222  0.00  0.00    +0.000 A 
ATOM      6  C   UNL     1       9.357  10.509   5.522  0.00  0.00    +0.000 A 
ATOM      7  C   UNL     1       8.151  10.895   6.134  0.00  0.00    +0.000 A 
ATOM      8  C   UNL     1       8.107  11.610   7.343  0.00  0.00    +0.000 A 
ENDBRANCH   1   6
BRANCH   1   9
ATOM      9  C   UNL     1       8.411   8.693   4.090  0.00  0.00    +0.000 C 
BRANCH   9  10
ATOM     10  C   UNL     1       8.787   7.796   2.885  0.00  0.00    +0.000 C 
ATOM     11  C   UNL     1       8.486   6.332   3.181  0.00  0.00    +0.000 C 
BRANCH  10  12
ATOM     12  O   UNL     1       8.051   8.173   1.713  0.00  0.00    +0.000 OA
ATOM     13  H   UNL     1       8.657   8.643   1.116  0.00  0.00    +0.000 HD
ENDBRANCH  10  12
ENDBRANCH   9  10
ENDBRANCH   1   9
BRANCH   1  14
ATOM     14  C   UNL     1      10.640   9.678   3.525  0.00  0.00    +0.000 C 
BRANCH  14  15
ATOM     15  C   UNL     1      10.561  10.503   2.219  0.00  0.00    +0.000 C 
ATOM     16  C   UNL     1       9.607  11.688   2.315  0.00  0.00    +0.000 C 
BRANCH  15  17
ATOM     17  O   UNL     1      11.841  10.998   1.829  0.00  0.00    +0.000 OA
ATOM     18  H   UNL     1      11.651  11.753   1.237  0.00  0.00    +0.000 HD
ENDBRANCH  15  17
ENDBRANCH  14  15
ENDBRANCH   1  14
TORSDOF 7
ENDMDL
MODEL 2
REMARK VINA RESULT:    -6.164      2.758      5.651
REMARK INTER + INTRA:          -8.536
REMARK INTER:                  -8.335
REMARK INTRA:                  -0.201
REMARK UNBOUND:                -0.209
REMARK  Name = 
REMARK  10 active torsions:
REMARK  status: ('A' for Active; 'I' for Inactive)
REMARK    1  A    between atoms: C_1  and  C_2
REMARK    2  A    between atoms: C_5  and  N_8
REMARK    3  A    between atoms: N_8  and  C_9
REMARK    4  A    between atoms: N_8  and  C_13
REMARK    5  A    between atoms: C_9  and  C_10
REMARK    6  A    between atoms: C_10  and  C_11
REMARK    7  A    between atoms: C_10  and  O_12
REMARK    8  A    between atoms: C_13  and  C_14
REMARK    9  A    between atoms: C_14  and  C_15
REMARK   10  A    between atoms: C_14  and  O_16
REMARK                            x       y       z     vdW  Elec       q    Type
REMARK                         _______ _______ _______ _____ _____    ______ ____
ROOT
ATOM      1  N   UNL     1       9.614  10.712   6.461  0.00  0.00    +0.000 N 
ENDROOT
BRANCH   1   6
ATOM      2  C   UNL     1       8.728   7.464   1.771  0.00  0.00    +0.000 C 
ATOM      3  C   UNL     1       8.974   8.290   2.996  0.00  0.00    +0.000 A 
ATOM      4  C   UNL     1       8.163   8.160   4.119  0.00  0.00    +0.000 A 
ATOM      5  C   UNL     1       8.380   8.958   5.255  0.00  0.00    +0.000 A 
ATOM      6  C   UNL     1       9.391   9.933   5.318  0.00  0.00    +0.000 A 
ATOM      7  C   UNL     1      10.193  10.035   4.166  0.00  0.00    +0.000 A 
ATOM      8  C   UNL     1       9.988   9.242   3.025  0.00  0.00    +0.000 A 
ENDBRANCH   1   6
BRANCH   1   9
ATOM      9  C   UNL     1       8.489  11.445   7.091  0.00  0.00    +0.000 C 
BRANCH   9  10
ATOM     10  C   UNL     1       7.630  10.547   8.015  0.00  0.00    +0.000 C 
ATOM     11  C   UNL     1       7.887  10.870   9.482  0.00  0.00    +0.000 C 
BRANCH  10  12
ATOM     12  O   UNL     1       6.232  10.732   7.757  0.00  0.00    +0.000 OA
ATOM     13  H   UNL     1       6.061  10.489   6.832  0.00  0.00    +0.000 HD
ENDBRANCH  10  12
ENDBRANCH   9  10
ENDBRANCH   1   9
BRANCH   1  14
ATOM     14  C   UNL     1      10.963  11.248   6.776  0.00  0.00    +0.000 C 
BRANCH  14  15
ATOM     15  C   UNL     1      11.051  11.798   8.220  0.00  0.00    +0.000 C 
ATOM     16  C   UNL     1      11.769  10.855   9.178  0.00  0.00    +0.000 C 
BRANCH  15  17
ATOM     17  O   UNL     1      11.713  13.061   8.263  0.00  0.00    +0.000 OA
ATOM     18  H   UNL     1      12.636  12.853   8.512  0.00  0.00    +0.000 HD
ENDBRANCH  15  17
ENDBRANCH  14  15
ENDBRANCH   1  14
TORSDOF 7
ENDMDL
MODEL 3
REMARK VINA RESULT:    -6.128      0.351      3.221
REMARK INTER + INTRA:          -8.486
REMARK INTER:                  -8.502
REMARK INTRA:                   0.016
REMARK UNBOUND:                -0.209
REMARK  Name = 
REMARK  10 active torsions:
REMARK  status: ('A' for Active; 'I' for Inactive)
REMARK    1  A    between atoms: C_1  and  C_2
REMARK    2  A    between atoms: C_5  and  N_8
REMARK    3  A    between atoms: N_8  and  C_9
REMARK    4  A    between atoms: N_8  and  C_13
REMARK    5  A    between atoms: C_9  and  C_10
REMARK    6  A    between atoms: C_10  and  C_11
REMARK    7  A    between atoms: C_10  and  O_12
REMARK    8  A    between atoms: C_13  and  C_14
REMARK    9  A    between atoms: C_14  and  C_15
REMARK   10  A    between atoms: C_14  and  O_16
REMARK                            x       y       z     vdW  Elec       q    Type
REMARK                         _______ _______ _______ _____ _____    ______ ____
ROOT
ATOM      1  N   UNL     1       9.488   9.496   4.358  0.00  0.00    +0.000 N 
ENDROOT
BRANCH   1   6
ATOM      2  C   UNL     1       8.838  12.511   9.239  0.00  0.00    +0.000 C 
ATOM      3  C   UNL     1       9.002  11.749   7.959  0.00  0.00    +0.000 A 
ATOM      4  C   UNL     1       7.917  11.121   7.357  0.00  0.00    +0.000 A 
ATOM      5  C   UNL     1       8.083  10.383   6.173  0.00  0.00    +0.000 A 
ATOM      6  C   UNL     1       9.333  10.217   5.549  0.00  0.00    +0.000 A 
ATOM      7  C   UNL     1      10.407  10.867   6.184  0.00  0.00    +0.000 A 
ATOM      8  C   UNL     1      10.254  11.610   7.367  0.00  0.00    +0.000 A 
ENDBRANCH   1   6
BRANCH   1   9
ATOM      9  C   UNL     1      10.673   9.728   3.498  0.00  0.00    +0.000 C 
BRANCH   9  10
ATOM     10  C   UNL     1      10.356  10.610   2.266  0.00  0.00    +0.000 C 
ATOM     11  C   UNL     1       9.494  11.804   2.657  0.00  0.00    +0.000 C 
BRANCH  10  12
ATOM     12  O   UNL     1      11.560  11.109   1.666  0.00  0.00    +0.000 OA
ATOM     13  H   UNL     1      11.311  11.697   0.934  0.00  0.00    +0.000 HD
ENDBRANCH  10  12
ENDBRANCH   9  10
ENDBRANCH   1   9
BRANCH   1  14
ATOM     14  C   UNL     1       8.319   8.899   3.663  0.00  0.00    +0.000 C 
BRANCH  14  15
ATOM     15  C   UNL     1       8.723   7.717   2.749  0.00  0.00    +0.000 C 
ATOM     16  C   UNL     1       8.456   6.355   3.378  0.00  0.00    +0.000 C 
BRANCH  15  17
ATOM     17  O   UNL     1       8.046   7.765   1.495  0.00  0.00    +0.000 OA
ATOM     18  H   UNL     1       7.172   7.357   1.663  0.00  0.00    +0.000 HD
ENDBRANCH  15  17
ENDBRANCH  14  15
ENDBRANCH   1  14
TORSDOF 7
ENDMDL
MODEL 4
REMARK VINA RESULT:    -6.121      2.744      6.130
REMARK INTER + INTRA:          -8.477
REMARK INTER:                  -8.675
REMARK INTRA:                   0.198
REMARK UNBOUND:                -0.209
REMARK  Name = 
REMARK  10 active torsions:
REMARK  status: ('A' for Active; 'I' for Inactive)
REMARK    1  A    between atoms: C_1  and  C_2
REMARK    2  A    between atoms: C_5  and  N_8
REMARK    3  A    between atoms: N_8  and  C_9
REMARK    4  A    between atoms: N_8  and  C_13
REMARK    5  A    between atoms: C_9  and  C_10
REMARK    6  A    between atoms: C_10  and  C_11
REMARK    7  A    between atoms: C_10  and  O_12
REMARK    8  A    between atoms: C_13  and  C_14
REMARK    9  A    between atoms: C_14  and  C_15
REMARK   10  A    between atoms: C_14  and  O_16
REMARK                            x       y       z     vdW  Elec       q    Type
REMARK                         _______ _______ _______ _____ _____    ______ ____
ROOT
ATOM      1  N   UNL     1       9.708  11.082   6.411  0.00  0.00    +0.000 N 
ENDROOT
BRANCH   1   6
ATOM      2  C   UNL     1       8.771   7.510   1.974  0.00  0.00    +0.000 C 
ATOM      3  C   UNL     1       9.029   8.419   3.136  0.00  0.00    +0.000 A 
ATOM      4  C   UNL     1       8.174   8.436   4.233  0.00  0.00    +0.000 A 
ATOM      5  C   UNL     1       8.403   9.313   5.306  0.00  0.00    +0.000 A 
ATOM      6  C   UNL     1       9.474  10.224   5.329  0.00  0.00    +0.000 A 
ATOM      7  C   UNL     1      10.319  10.178   4.205  0.00  0.00    +0.000 A 
ATOM      8  C   UNL     1      10.102   9.305   3.126  0.00  0.00    +0.000 A 
ENDBRANCH   1   6
BRANCH   1   9
ATOM      9  C   UNL     1      11.028  11.083   7.086  0.00  0.00    +0.000 C 
BRANCH   9  10
ATOM     10  C   UNL     1      11.055  11.979   8.349  0.00  0.00    +0.000 C 
ATOM     11  C   UNL     1      11.557  11.201   9.559  0.00  0.00    +0.000 C 
BRANCH  10  12
ATOM     12  O   UNL     1      11.918  13.110   8.159  0.00  0.00    +0.000 OA
ATOM     13  H   UNL     1      11.516  13.873   8.606  0.00  0.00    +0.000 HD
ENDBRANCH  10  12
ENDBRANCH   9  10
ENDBRANCH   1   9
BRANCH   1  14
ATOM     14  C   UNL     1       8.587  11.609   7.231  0.00  0.00    +0.000 C 
BRANCH  14  15
ATOM     15  C   UNL     1       7.697  10.478   7.801  0.00  0.00    +0.000 C 
ATOM     16  C   UNL     1       8.062  10.090   9.229  0.00  0.00    +0.000 C 
BRANCH  15  17
ATOM     17  O   UNL     1       6.315  10.832   7.779  0.00  0.00    +0.000 OA
ATOM     18  H   UNL     1       6.023  10.652   6.862  0.00  0.00    +0.000 HD
ENDBRANCH  15  17
ENDBRANCH  14  15
ENDBRANCH   1  14
TORSDOF 7
ENDMDL
MODEL 5
REMARK VINA RESULT:    -5.474      3.195      5.608
REMARK INTER + INTRA:          -7.603
REMARK INTER:                  -7.558
REMARK INTRA:                  -0.045
REMARK UNBOUND:                -0.209
REMARK  Name = 
REMARK  10 active torsions:
REMARK  status: ('A' for Active; 'I' for Inactive)
REMARK    1  A    between atoms: C_1  and  C_2
REMARK    2  A    between atoms: C_5  and  N_8
REMARK    3  A    between atoms: N_8  and  C_9
REMARK    4  A    between atoms: N_8  and  C_13
REMARK    5  A    between atoms: C_9  and  C_10
REMARK    6  A    between atoms: C_10  and  C_11
REMARK    7  A    between atoms: C_10  and  O_12
REMARK    8  A    between atoms: C_13  and  C_14
REMARK    9  A    between atoms: C_14  and  C_15
REMARK   10  A    between atoms: C_14  and  O_16
REMARK                            x       y       z     vdW  Elec       q    Type
REMARK                         _______ _______ _______ _____ _____    ______ ____
ROOT
ATOM      1  N   UNL     1       9.587  10.865   6.923  0.00  0.00    +0.000 N 
ENDROOT
BRANCH   1   6
ATOM      2  C   UNL     1       8.912   7.914   2.007  0.00  0.00    +0.000 C 
ATOM      3  C   UNL     1       9.074   8.698   3.273  0.00  0.00    +0.000 A 
ATOM      4  C   UNL     1      10.162   9.545   3.455  0.00  0.00    +0.000 A 
ATOM      5  C   UNL     1      10.324  10.255   4.656  0.00  0.00    +0.000 A 
ATOM      6  C   UNL     1       9.430  10.139   5.735  0.00  0.00    +0.000 A 
ATOM      7  C   UNL     1       8.341   9.275   5.516  0.00  0.00    +0.000 A 
ATOM      8  C   UNL     1       8.166   8.561   4.319  0.00  0.00    +0.000 A 
ENDBRANCH   1   6
BRANCH   1   9
ATOM      9  C   UNL     1       8.396  11.341   7.666  0.00  0.00    +0.000 C 
BRANCH   9  10
ATOM     10  C   UNL     1       7.714  10.220   8.488  0.00  0.00    +0.000 C 
ATOM     11  C   UNL     1       8.726   9.494   9.366  0.00  0.00    +0.000 C 
BRANCH  10  12
ATOM     12  O   UNL     1       6.690  10.755   9.338  0.00  0.00    +0.000 OA
ATOM     13  H   UNL     1       7.071  11.496   9.837  0.00  0.00    +0.000 HD
ENDBRANCH  10  12
ENDBRANCH   9  10
ENDBRANCH   1   9
BRANCH   1  14
ATOM     14  C   UNL     1      10.841  11.609   7.208  0.00  0.00    +0.000 C 
BRANCH  14  15
ATOM     15  C   UNL     1      11.474  11.191   8.557  0.00  0.00    +0.000 C 
ATOM     16  C   UNL     1      12.885  10.633   8.409  0.00  0.00    +0.000 C 
BRANCH  15  17
ATOM     17  O   UNL     1      11.525  12.280   9.477  0.00  0.00    +0.000 OA
ATOM     18  H   UNL     1      12.185  12.897   9.102  0.00  0.00    +0.000 HD
ENDBRANCH  15  17
ENDBRANCH  14  15
ENDBRANCH   1  14
TORSDOF 7
ENDMDL
MODEL 6
REMARK VINA RESULT:    -4.959     12.313     13.441
REMARK INTER + INTRA:          -6.908
REMARK INTER:                  -6.470
REMARK INTRA:                  -0.438
REMARK UNBOUND:                -0.209
REMARK  Name = 
REMARK  10 active torsions:
REMARK  status: ('A' for Active; 'I' for Inactive)
REMARK    1  A    between atoms: C_1  and  C_2
REMARK    2  A    between atoms: C_5  and  N_8
REMARK    3  A    between atoms: N_8  and  C_9
REMARK    4  A    between atoms: N_8  and  C_13
REMARK    5  A    between atoms: C_9  and  C_10
REMARK    6  A    between atoms: C_10  and  C_11
REMARK    7  A    between atoms: C_10  and  O_12
REMARK    8  A    between atoms: C_13  and  C_14
REMARK    9  A    between atoms: C_14  and  C_15
REMARK   10  A    between atoms: C_14  and  O_16
REMARK                            x       y       z     vdW  Elec       q    Type
REMARK                         _______ _______ _______ _____ _____    ______ ____
ROOT
ATOM      1  N   UNL     1      20.344  14.369   0.712  0.00  0.00    +0.000 N 
ENDROOT
BRANCH   1   6
ATOM      2  C   UNL     1      23.297  15.053   5.625  0.00  0.00    +0.000 C 
ATOM      3  C   UNL     1      22.532  14.851   4.353  0.00  0.00    +0.000 A 
ATOM      4  C   UNL     1      23.186  14.802   3.127  0.00  0.00    +0.000 A 
ATOM      5  C   UNL     1      22.462  14.642   1.934  0.00  0.00    +0.000 A 
ATOM      6  C   UNL     1      21.059  14.548   1.903  0.00  0.00    +0.000 A 
ATOM      7  C   UNL     1      20.431  14.599   3.161  0.00  0.00    +0.000 A 
ATOM      8  C   UNL     1      21.143  14.756   4.361  0.00  0.00    +0.000 A 
ENDBRANCH   1   6
BRANCH   1   9
ATOM      9  C   UNL     1      20.908  13.535  -0.376  0.00  0.00    +0.000 C 
BRANCH   9  10
ATOM     10  C   UNL     1      21.609  14.373  -1.474  0.00  0.00    +0.000 C 
ATOM     11  C   UNL     1      23.012  13.847  -1.749  0.00  0.00    +0.000 C 
BRANCH  10  12
ATOM     12  O   UNL     1      20.870  14.332  -2.702  0.00  0.00    +0.000 OA
ATOM     13  H   UNL     1      21.194  13.578  -3.224  0.00  0.00    +0.000 HD
ENDBRANCH  10  12
ENDBRANCH   9  10
ENDBRANCH   1   9
BRANCH   1  14
ATOM     14  C   UNL     1      19.317  15.350   0.277  0.00  0.00    +0.000 C 
BRANCH  14  15
ATOM     15  C   UNL     1      19.844  16.805   0.317  0.00  0.00    +0.000 C 
ATOM     16  C   UNL     1      19.504  17.600  -0.938  0.00  0.00    +0.000 C 
BRANCH  15  17
ATOM     17  O   UNL     1      19.338  17.519   1.443  0.00  0.00    +0.000 OA
ATOM     18  H   UNL     1      19.976  17.341   2.163  0.00  0.00    +0.000 HD
ENDBRANCH  15  17
ENDBRANCH  14  15
ENDBRANCH   1  14
TORSDOF 7
ENDMDL
MODEL 7
REMARK VINA RESULT:    -4.793     12.614     13.712
REMARK INTER + INTRA:          -6.683
REMARK INTER:                  -6.146
REMARK INTRA:                  -0.537
REMARK UNBOUND:                -0.209
REMARK  Name = 
REMARK  10 active torsions:
REMARK  status: ('A' for Active; 'I' for Inactive)
REMARK    1  A    between atoms: C_1  and  C_2
REMARK    2  A    between atoms: C_5  and  N_8
REMARK    3  A    between atoms: N_8  and  C_9
REMARK    4  A    between atoms: N_8  and  C_13
REMARK    5  A    between atoms: C_9  and  C_10
REMARK    6  A    between atoms: C_10  and  C_11
REMARK    7  A    between atoms: C_10  and  O_12
REMARK    8  A    between atoms: C_13  and  C_14
REMARK    9  A    between atoms: C_14  and  C_15
REMARK   10  A    between atoms: C_14  and  O_16
REMARK                            x       y       z     vdW  Elec       q    Type
REMARK                         _______ _______ _______ _____ _____    ______ ____
ROOT
ATOM      1  N   UNL     1      20.911  14.876   0.689  0.00  0.00    +0.000 N 
ENDROOT
BRANCH   1   6
ATOM      2  C   UNL     1      23.015  14.819   6.065  0.00  0.00    +0.000 C 
ATOM      3  C   UNL     1      22.466  14.809   4.671  0.00  0.00    +0.000 A 
ATOM      4  C   UNL     1      23.313  14.717   3.571  0.00  0.00    +0.000 A 
ATOM      5  C   UNL     1      22.795  14.738   2.266  0.00  0.00    +0.000 A 
ATOM      6  C   UNL     1      21.422  14.875   1.993  0.00  0.00    +0.000 A 
ATOM      7  C   UNL     1      20.596  14.963   3.129  0.00  0.00    +0.000 A 
ATOM      8  C   UNL     1      21.100  14.941   4.440  0.00  0.00    +0.000 A 
ENDBRANCH   1   6
BRANCH   1   9
ATOM      9  C   UNL     1      19.657  15.605   0.383  0.00  0.00    +0.000 C 
BRANCH   9  10
ATOM     10  C   UNL     1      19.902  17.081  -0.014  0.00  0.00    +0.000 C 
ATOM     11  C   UNL     1      19.735  17.276  -1.517  0.00  0.00    +0.000 C 
BRANCH  10  12
ATOM     12  O   UNL     1      18.980  17.954   0.652  0.00  0.00    +0.000 OA
ATOM     13  H   UNL     1      18.209  17.428   0.922  0.00  0.00    +0.000 HD
ENDBRANCH  10  12
ENDBRANCH   9  10
ENDBRANCH   1   9
BRANCH   1  14
ATOM     14  C   UNL     1      21.259  13.799  -0.273  0.00  0.00    +0.000 C 
BRANCH  14  15
ATOM     15  C   UNL     1      22.032  14.340  -1.500  0.00  0.00    +0.000 C 
ATOM     16  C   UNL     1      23.315  13.570  -1.788  0.00  0.00    +0.000 C 
BRANCH  15  17
ATOM     17  O   UNL     1      21.230  14.318  -2.680  0.00  0.00    +0.000 OA
ATOM     18  H   UNL     1      20.306  14.345  -2.359  0.00  0.00    +0.000 HD
ENDBRANCH  15  17
ENDBRANCH  14  15
ENDBRANCH   1  14
TORSDOF 7
ENDMDL
MODEL 8
REMARK VINA RESULT:    -4.580     11.689     13.052
REMARK INTER + INTRA:          -6.396
REMARK INTER:                  -5.928
REMARK INTRA:                  -0.469
REMARK UNBOUND:                -0.209
REMARK  Name = 
REMARK  10 active torsions:
REMARK  status: ('A' for Active; 'I' for Inactive)
REMARK    1  A    between atoms: C_1  and  C_2
REMARK    2  A    between atoms: C_5  and  N_8
REMARK    3  A    between atoms: N_8  and  C_9
REMARK    4  A    between atoms: N_8  and  C_13
REMARK    5  A    between atoms: C_9  and  C_10
REMARK    6  A    between atoms: C_10  and  C_11
REMARK    7  A    between atoms: C_10  and  O_12
REMARK    8  A    between atoms: C_13  and  C_14
REMARK    9  A    between atoms: C_14  and  C_15
REMARK   10  A    between atoms: C_14  and  O_16
REMARK                            x       y       z     vdW  Elec       q    Type
REMARK                         _______ _______ _______ _____ _____    ______ ____
ROOT
ATOM      1  N   UNL     1      21.028  15.229   0.850  0.00  0.00    +0.000 N 
ENDROOT
BRANCH   1   6
ATOM      2  C   UNL     1      22.255  17.431   6.044  0.00  0.00    +0.000 C 
ATOM      3  C   UNL     1      21.925  16.840   4.707  0.00  0.00    +0.000 A 
ATOM      4  C   UNL     1      22.823  16.000   4.057  0.00  0.00    +0.000 A 
ATOM      5  C   UNL     1      22.521  15.473   2.790  0.00  0.00    +0.000 A 
ATOM      6  C   UNL     1      21.330  15.773   2.105  0.00  0.00    +0.000 A 
ATOM      7  C   UNL     1      20.446  16.624   2.793  0.00  0.00    +0.000 A 
ATOM      8  C   UNL     1      20.734  17.156   4.061  0.00  0.00    +0.000 A 
ENDBRANCH   1   6
BRANCH   1   9
ATOM      9  C   UNL     1      20.959  13.758   0.676  0.00  0.00    +0.000 C 
BRANCH   9  10
ATOM     10  C   UNL     1      19.595  13.165   1.106  0.00  0.00    +0.000 C 
ATOM     11  C   UNL     1      19.483  13.102   2.625  0.00  0.00    +0.000 C 
BRANCH  10  12
ATOM     12  O   UNL     1      18.509  13.962   0.614  0.00  0.00    +0.000 OA
ATOM     13  H   UNL     1      18.042  14.340   1.377  0.00  0.00    +0.000 HD
ENDBRANCH  10  12
ENDBRANCH   9  10
ENDBRANCH   1   9
BRANCH   1  14
ATOM     14  C   UNL     1      21.267  15.995  -0.399  0.00  0.00    +0.000 C 
BRANCH  14  15
ATOM     15  C   UNL     1      19.947  16.400  -1.098  0.00  0.00    +0.000 C 
ATOM     16  C   UNL     1      19.306  17.644  -0.495  0.00  0.00    +0.000 C 
BRANCH  15  17
ATOM     17  O   UNL     1      20.140  16.635  -2.492  0.00  0.00    +0.000 OA
ATOM     18  H   UNL     1      20.075  17.606  -2.597  0.00  0.00    +0.000 HD
ENDBRANCH  15  17
ENDBRANCH  14  15
ENDBRANCH   1  14
TORSDOF 7
ENDMDL
MODEL 9
REMARK VINA RESULT:    -4.232      3.352      6.024
REMARK INTER + INTRA:          -5.926
REMARK INTER:                  -5.806
REMARK INTRA:                  -0.120
REMARK UNBOUND:                -0.209
REMARK  Name = 
REMARK  10 active torsions:
REMARK  status: ('A' for Active; 'I' for Inactive)
REMARK    1  A    between atoms: C_1  and  C_2
REMARK    2  A    between atoms: C_5  and  N_8
REMARK    3  A    between atoms: N_8  and  C_9
REMARK    4  A    between atoms: N_8  and  C_13
REMARK    5  A    between atoms: C_9  and  C_10
REMARK    6  A    between atoms: C_10  and  C_11
REMARK    7  A    between atoms: C_10  and  O_12
REMARK    8  A    between atoms: C_13  and  C_14
REMARK    9  A    between atoms: C_14  and  C_15
REMARK   10  A    between atoms: C_14  and  O_16
REMARK                            x       y       z     vdW  Elec       q    Type
REMARK                         _______ _______ _______ _____ _____    ______ ____
ROOT
ATOM      1  N   UNL     1      10.287  11.059   7.117  0.00  0.00    +0.000 N 
ENDROOT
BRANCH   1   6
ATOM      2  C   UNL     1       8.887  11.147   1.517  0.00  0.00    +0.000 C 
ATOM      3  C   UNL     1       9.271  11.138   2.965  0.00  0.00    +0.000 A 
ATOM      4  C   UNL     1      10.046  10.110   3.492  0.00  0.00    +0.000 A 
ATOM      5  C   UNL     1      10.378  10.091   4.857  0.00  0.00    +0.000 A 
ATOM      6  C   UNL     1       9.937  11.074   5.761  0.00  0.00    +0.000 A 
ATOM      7  C   UNL     1       9.157  12.098   5.193  0.00  0.00    +0.000 A 
ATOM      8  C   UNL     1       8.820  12.131   3.830  0.00  0.00    +0.000 A 
ENDBRANCH   1   6
BRANCH   1   9
ATOM      9  C   UNL     1      11.716  11.054   7.515  0.00  0.00    +0.000 C 
BRANCH   9  10
ATOM     10  C   UNL     1      12.056  12.162   8.542  0.00  0.00    +0.000 C 
ATOM     11  C   UNL     1      13.479  12.670   8.344  0.00  0.00    +0.000 C 
BRANCH  10  12
ATOM     12  O   UNL     1      11.164  13.278   8.410  0.00  0.00    +0.000 OA
ATOM     13  H   UNL     1      10.525  13.240   9.141  0.00  0.00    +0.000 HD
ENDBRANCH  10  12
ENDBRANCH   9  10
ENDBRANCH   1   9
BRANCH   1  14
ATOM     14  C   UNL     1       9.350  10.545   8.148  0.00  0.00    +0.000 C 
BRANCH  14  15
ATOM     15  C   UNL     1       8.096  11.440   8.296  0.00  0.00    +0.000 C 
ATOM     16  C   UNL     1       6.894  10.922   7.516  0.00  0.00    +0.000 C 
BRANCH  15  17
ATOM     17  O   UNL     1       7.708  11.583   9.662  0.00  0.00    +0.000 OA
ATOM     18  H   UNL     1       8.462  12.035  10.092  0.00  0.00    +0.000 HD
ENDBRANCH  15  17
ENDBRANCH  14  15
ENDBRANCH   1  14
TORSDOF 7
ENDMDL
