MODEL 1
REMARK VINA RESULT:    -6.489      0.000      0.000
REMARK INTER + INTRA:          -8.961
REMARK INTER:                  -8.765
REMARK INTRA:                  -0.196
REMARK UNBOUND:                -0.196
REMARK  Name = 
REMARK  10 active torsions:
REMARK  status: ('A' for Active; 'I' for Inactive)
REMARK    1  A    between atoms: C_1  and  C_2
REMARK    2  A    between atoms: C_5  and  N_8
REMARK    3  A    between atoms: N_8  and  C_9
REMARK    4  A    between atoms: N_8  and  C_13
REMARK    5  A    between atoms: C_9  and  C_10
REMARK    6  A    between atoms: C_10  and  C_11
REMARK    7  A    between atoms: C_10  and  O_12
REMARK    8  A    between atoms: C_13  and  C_14
REMARK    9  A    between atoms: C_14  and  C_15
REMARK   10  A    between atoms: C_14  and  O_16
REMARK                            x       y       z     vdW  Elec       q    Type
REMARK                         _______ _______ _______ _____ _____    ______ ____
ROOT
ATOM      1  N   UNL     1       9.406   9.813   4.325  0.00  0.00    +0.000 N 
ENDROOT
BRANCH   1   6
ATOM      2  C   UNL     1       9.272  12.737   9.301  0.00  0.00    +0.000 C 
ATOM      3  C   UNL     1       9.305  11.956   8.023  0.00  0.00    +0.000 A 
ATOM      4  C   UNL     1      10.515  11.592   7.440  0.00  0.00    +0.000 A 
ATOM      5  C   UNL     1      10.541  10.887   6.226  0.00  0.00    +0.000 A 
ATOM      6  C   UNL     1       9.373  10.533   5.526  0.00  0.00    +0.000 A 
ATOM      7  C   UNL     1       8.169  10.915   6.145  0.00  0.00    +0.000 A 
ATOM      8  C   UNL     1       8.129  11.619   7.360  0.00  0.00    +0.000 A 
ENDBRANCH   1   6
BRANCH   1   9
ATOM      9  C   UNL     1       8.414   8.740   4.074  0.00  0.00    +0.000 C 
BRANCH   9  10
ATOM     10  C   UNL     1       8.795   7.838   2.875  0.00  0.00    +0.000 C 
ATOM     11  C   UNL     1       8.495   6.375   3.176  0.00  0.00    +0.000 C 
BRANCH  10  12
ATOM     12  O   UNL     1       8.062   8.209   1.699  0.00  0.00    +0.000 OA
ATOM     13  H   UNL     1       8.416   9.054   1.377  0.00  0.00    +0.000 HD
ENDBRANCH  10  12
ENDBRANCH   9  10
ENDBRANCH   1   9
BRANCH   1  14
ATOM     14  C   UNL     1      10.653   9.709   3.525  0.00  0.00    +0.000 C 
BRANCH  14  15
ATOM     15  C   UNL     1      10.574  10.523   2.211  0.00  0.00    +0.000 C 
ATOM     16  C   UNL     1       9.622  11.710   2.298  0.00  0.00    +0.000 C 
BRANCH  15  17
ATOM     17  O   UNL     1      11.854  11.011   1.814  0.00  0.00    +0.000 OA
ATOM     18  H   UNL     1      11.877  10.900   0.843  0.00  0.00    +0.000 HD
ENDBRANCH  15  17
ENDBRANCH  14  15
ENDBRANCH   1  14
TORSDOF 7
ENDMDL
MODEL 2
REMARK VINA RESULT:    -6.178      2.767      5.656
REMARK INTER + INTRA:          -8.541
REMARK INTER:                  -8.340
REMARK INTRA:                  -0.200
REMARK UNBOUND:                -0.196
REMARK  Name = 
REMARK  10 active torsions:
REMARK  status: ('A' for Active; 'I' for Inactive)
REMARK    1  A    between atoms: C_1  and  C_2
REMARK    2  A    between atoms: C_5  and  N_8
REMARK    3  A    between atoms: N_8  and  C_9
REMARK    4  A    between atoms: N_8  and  C_13
REMARK    5  A    between atoms: C_9  and  C_10
REMARK    6  A    between atoms: C_10  and  C_11
REMARK    7  A    between atoms: C_10  and  O_12
REMARK    8  A    between atoms: C_13  and  C_14
REMARK    9  A    between atoms: C_14  and  C_15
REMARK   10  A    between atoms: C_14  and  O_16
REMARK                            x       y       z     vdW  Elec       q    Type
REMARK                         _______ _______ _______ _____ _____    ______ ____
ROOT
ATOM      1  N   UNL     1       9.584  10.737   6.476  0.00  0.00    +0.000 N 
ENDROOT
BRANCH   1   6
ATOM      2  C   UNL     1       8.721   7.478   1.789  0.00  0.00    +0.000 C 
ATOM      3  C   UNL     1       8.961   8.306   3.014  0.00  0.00    +0.000 A 
ATOM      4  C   UNL     1       8.142   8.182   4.132  0.00  0.00    +0.000 A 
ATOM      5  C   UNL     1       8.353   8.983   5.267  0.00  0.00    +0.000 A 
ATOM      6  C   UNL     1       9.367   9.955   5.334  0.00  0.00    +0.000 A 
ATOM      7  C   UNL     1      10.177  10.052   4.187  0.00  0.00    +0.000 A 
ATOM      8  C   UNL     1       9.978   9.256   3.047  0.00  0.00    +0.000 A 
ENDBRANCH   1   6
BRANCH   1   9
ATOM      9  C   UNL     1       8.457  11.470   7.101  0.00  0.00    +0.000 C 
BRANCH   9  10
ATOM     10  C   UNL     1       7.579  10.566   8.001  0.00  0.00    +0.000 C 
ATOM     11  C   UNL     1       7.817  10.870   9.475  0.00  0.00    +0.000 C 
BRANCH  10  12
ATOM     12  O   UNL     1       6.185  10.765   7.726  0.00  0.00    +0.000 OA
ATOM     13  H   UNL     1       5.893  11.558   8.207  0.00  0.00    +0.000 HD
ENDBRANCH  10  12
ENDBRANCH   9  10
ENDBRANCH   1   9
BRANCH   1  14
ATOM     14  C   UNL     1      10.932  11.274   6.795  0.00  0.00    +0.000 C 
BRANCH  14  15
ATOM     15  C   UNL     1      11.026  11.787   8.252  0.00  0.00    +0.000 C 
ATOM     16  C   UNL     1      11.745  10.818   9.184  0.00  0.00    +0.000 C 
BRANCH  15  17
ATOM     17  O   UNL     1      11.692  13.047   8.326  0.00  0.00    +0.000 OA
ATOM     18  H   UNL     1      12.512  12.930   7.805  0.00  0.00    +0.000 HD
ENDBRANCH  15  17
ENDBRANCH  14  15
ENDBRANCH   1  14
TORSDOF 7
ENDMDL
MODEL 3
REMARK VINA RESULT:    -6.161      2.743      6.142
REMARK INTER + INTRA:          -8.518
REMARK INTER:                  -8.709
REMARK INTRA:                   0.191
REMARK UNBOUND:                -0.196
REMARK  Name = 
REMARK  10 active torsions:
REMARK  status: ('A' for Active; 'I' for Inactive)
REMARK    1  A    between atoms: C_1  and  C_2
REMARK    2  A    between atoms: C_5  and  N_8
REMARK    3  A    between atoms: N_8  and  C_9
REMARK    4  A    between atoms: N_8  and  C_13
REMARK    5  A    between atoms: C_9  and  C_10
REMARK    6  A    between atoms: C_10  and  C_11
REMARK    7  A    between atoms: C_10  and  O_12
REMARK    8  A    between atoms: C_13  and  C_14
REMARK    9  A    between atoms: C_14  and  C_15
REMARK   10  A    between atoms: C_14  and  O_16
REMARK                            x       y       z     vdW  Elec       q    Type
REMARK                         _______ _______ _______ _____ _____    ______ ____
ROOT
ATOM      1  N   UNL     1       9.665  11.094   6.430  0.00  0.00    +0.000 N 
ENDROOT
BRANCH   1   6
ATOM      2  C   UNL     1       8.825   7.503   1.989  0.00  0.00    +0.000 C 
ATOM      3  C   UNL     1       9.058   8.418   3.152  0.00  0.00    +0.000 A 
ATOM      4  C   UNL     1       8.216   8.395   4.259  0.00  0.00    +0.000 A 
ATOM      5  C   UNL     1       8.422   9.276   5.333  0.00  0.00    +0.000 A 
ATOM      6  C   UNL     1       9.454  10.232   5.347  0.00  0.00    +0.000 A 
ATOM      7  C   UNL     1      10.287  10.225   4.212  0.00  0.00    +0.000 A 
ATOM      8  C   UNL     1      10.093   9.348   3.132  0.00  0.00    +0.000 A 
ENDBRANCH   1   6
BRANCH   1   9
ATOM      9  C   UNL     1      10.975  11.109   7.124  0.00  0.00    +0.000 C 
BRANCH   9  10
ATOM     10  C   UNL     1      10.981  12.021   8.376  0.00  0.00    +0.000 C 
ATOM     11  C   UNL     1      11.451  11.254   9.606  0.00  0.00    +0.000 C 
BRANCH  10  12
ATOM     12  O   UNL     1      11.855  13.143   8.191  0.00  0.00    +0.000 OA
ATOM     13  H   UNL     1      11.349  13.952   8.375  0.00  0.00    +0.000 HD
ENDBRANCH  10  12
ENDBRANCH   9  10
ENDBRANCH   1   9
BRANCH   1  14
ATOM     14  C   UNL     1       8.528  11.614   7.231  0.00  0.00    +0.000 C 
BRANCH  14  15
ATOM     15  C   UNL     1       7.658  10.477   7.818  0.00  0.00    +0.000 C 
ATOM     16  C   UNL     1       8.019  10.126   9.256  0.00  0.00    +0.000 C 
BRANCH  15  17
ATOM     17  O   UNL     1       6.269  10.801   7.777  0.00  0.00    +0.000 OA
ATOM     18  H   UNL     1       5.918  10.313   7.005  0.00  0.00    +0.000 HD
ENDBRANCH  15  17
ENDBRANCH  14  15
ENDBRANCH   1  14
TORSDOF 7
ENDMDL
MODEL 4
REMARK VINA RESULT:    -6.145      0.374      3.221
REMARK INTER + INTRA:          -8.496
REMARK INTER:                  -8.490
REMARK INTRA:                  -0.006
REMARK UNBOUND:                -0.196
REMARK  Name = 
REMARK  10 active torsions:
REMARK  status: ('A' for Active; 'I' for Inactive)
REMARK    1  A    between atoms: C_1  and  C_2
REMARK    2  A    between atoms: C_5  and  N_8
REMARK    3  A    between atoms: N_8  and  C_9
REMARK    4  A    between atoms: N_8  and  C_13
REMARK    5  A    between atoms: C_9  and  C_10
REMARK    6  A    between atoms: C_10  and  C_11
REMARK    7  A    between atoms: C_10  and  O_12
REMARK    8  A    between atoms: C_13  and  C_14
REMARK    9  A    between atoms: C_14  and  C_15
REMARK   10  A    between atoms: C_14  and  O_16
REMARK                            x       y       z     vdW  Elec       q    Type
REMARK                         _______ _______ _______ _____ _____    ______ ____
ROOT
ATOM      1  N   UNL     1       9.479   9.483   4.360  0.00  0.00    +0.000 N 
ENDROOT
BRANCH   1   6
ATOM      2  C   UNL     1       8.804  12.535   9.214  0.00  0.00    +0.000 C 
ATOM      3  C   UNL     1       8.975  11.764   7.941  0.00  0.00    +0.000 A 
ATOM      4  C   UNL     1       7.897  11.113   7.350  0.00  0.00    +0.000 A 
ATOM      5  C   UNL     1       8.069  10.366   6.173  0.00  0.00    +0.000 A 
ATOM      6  C   UNL     1       9.318  10.213   5.545  0.00  0.00    +0.000 A 
ATOM      7  C   UNL     1      10.385  10.887   6.168  0.00  0.00    +0.000 A 
ATOM      8  C   UNL     1      10.226  11.638   7.344  0.00  0.00    +0.000 A 
ENDBRANCH   1   6
BRANCH   1   9
ATOM      9  C   UNL     1      10.667   9.711   3.502  0.00  0.00    +0.000 C 
BRANCH   9  10
ATOM     10  C   UNL     1      10.358  10.601   2.273  0.00  0.00    +0.000 C 
ATOM     11  C   UNL     1       9.526  11.813   2.674  0.00  0.00    +0.000 C 
BRANCH  10  12
ATOM     12  O   UNL     1      11.567  11.073   1.663  0.00  0.00    +0.000 OA
ATOM     13  H   UNL     1      12.318  10.706   2.159  0.00  0.00    +0.000 HD
ENDBRANCH  10  12
ENDBRANCH   9  10
ENDBRANCH   1   9
BRANCH   1  14
ATOM     14  C   UNL     1       8.314   8.879   3.665  0.00  0.00    +0.000 C 
BRANCH  14  15
ATOM     15  C   UNL     1       8.726   7.702   2.748  0.00  0.00    +0.000 C 
ATOM     16  C   UNL     1       8.466   6.336   3.372  0.00  0.00    +0.000 C 
BRANCH  15  17
ATOM     17  O   UNL     1       8.050   7.750   1.493  0.00  0.00    +0.000 OA
ATOM     18  H   UNL     1       8.128   6.845   1.129  0.00  0.00    +0.000 HD
ENDBRANCH  15  17
ENDBRANCH  14  15
ENDBRANCH   1  14
TORSDOF 7
ENDMDL
MODEL 5
REMARK VINA RESULT:    -6.120      2.732      6.038
REMARK INTER + INTRA:          -8.463
REMARK INTER:                  -8.688
REMARK INTRA:                   0.226
REMARK UNBOUND:                -0.196
REMARK  Name = 
REMARK  10 active torsions:
REMARK  status: ('A' for Active; 'I' for Inactive)
REMARK    1  A    between atoms: C_1  and  C_2
REMARK    2  A    between atoms: C_5  and  N_8
REMARK    3  A    between atoms: N_8  and  C_9
REMARK    4  A    between atoms: N_8  and  C_13
REMARK    5  A    between atoms: C_9  and  C_10
REMARK    6  A    between atoms: C_10  and  C_11
REMARK    7  A    between atoms: C_10  and  O_12
REMARK    8  A    between atoms: C_13  and  C_14
REMARK    9  A    between atoms: C_14  and  C_15
REMARK   10  A    between atoms: C_14  and  O_16
REMARK                            x       y       z     vdW  Elec       q    Type
REMARK                         _______ _______ _______ _____ _____    ______ ____
ROOT
ATOM      1  N   UNL     1       9.695  11.079   6.381  0.00  0.00    +0.000 N 
ENDROOT
BRANCH   1   6
ATOM      2  C   UNL     1       8.770   7.497   1.949  0.00  0.00    +0.000 C 
ATOM      3  C   UNL     1       8.995   8.443   3.088  0.00  0.00    +0.000 A 
ATOM      4  C   UNL     1      10.042   9.359   3.061  0.00  0.00    +0.000 A 
ATOM      5  C   UNL     1      10.265  10.223   4.146  0.00  0.00    +0.000 A 
ATOM      6  C   UNL     1       9.478  10.201   5.311  0.00  0.00    +0.000 A 
ATOM      7  C   UNL     1       8.428   9.265   5.303  0.00  0.00    +0.000 A 
ATOM      8  C   UNL     1       8.192   8.396   4.224  0.00  0.00    +0.000 A 
ENDBRANCH   1   6
BRANCH   1   9
ATOM      9  C   UNL     1      11.007  11.099   7.071  0.00  0.00    +0.000 C 
BRANCH   9  10
ATOM     10  C   UNL     1      10.999  11.975   8.349  0.00  0.00    +0.000 C 
ATOM     11  C   UNL     1      11.463  11.175   9.560  0.00  0.00    +0.000 C 
BRANCH  10  12
ATOM     12  O   UNL     1      11.870  13.105   8.203  0.00  0.00    +0.000 OA
ATOM     13  H   UNL     1      11.503  13.837   8.726  0.00  0.00    +0.000 HD
ENDBRANCH  10  12
ENDBRANCH   9  10
ENDBRANCH   1   9
BRANCH   1  14
ATOM     14  C   UNL     1       8.562  11.615   7.177  0.00  0.00    +0.000 C 
BRANCH  14  15
ATOM     15  C   UNL     1       7.676  10.490   7.765  0.00  0.00    +0.000 C 
ATOM     16  C   UNL     1       8.023  10.146   9.208  0.00  0.00    +0.000 C 
BRANCH  15  17
ATOM     17  O   UNL     1       6.291  10.828   7.712  0.00  0.00    +0.000 OA
ATOM     18  H   UNL     1       6.004  10.575   6.811  0.00  0.00    +0.000 HD
ENDBRANCH  15  17
ENDBRANCH  14  15
ENDBRANCH   1  14
TORSDOF 7
ENDMDL
MODEL 6
REMARK VINA RESULT:    -5.223      3.117      6.125
REMARK INTER + INTRA:          -7.251
REMARK INTER:                  -6.796
REMARK INTRA:                  -0.455
REMARK UNBOUND:                -0.196
REMARK  Name = 
REMARK  10 active torsions:
REMARK  status: ('A' for Active; 'I' for Inactive)
REMARK    1  A    between atoms: C_1  and  C_2
REMARK    2  A    between atoms: C_5  and  N_8
REMARK    3  A    between atoms: N_8  and  C_9
REMARK    4  A    between atoms: N_8  and  C_13
REMARK    5  A    between atoms: C_9  and  C_10
REMARK    6  A    between atoms: C_10  and  C_11
REMARK    7  A    between atoms: C_10  and  O_12
REMARK    8  A    between atoms: C_13  and  C_14
REMARK    9  A    between atoms: C_14  and  C_15
REMARK   10  A    between atoms: C_14  and  O_16
REMARK                            x       y       z     vdW  Elec       q    Type
REMARK                         _______ _______ _______ _____ _____    ______ ____
ROOT
ATOM      1  N   UNL     1       9.813  11.460   7.641  0.00  0.00    +0.000 N 
ENDROOT
BRANCH   1   6
ATOM      2  C   UNL     1       9.876  10.604   1.933  0.00  0.00    +0.000 C 
ATOM      3  C   UNL     1       9.878  10.843   3.411  0.00  0.00    +0.000 A 
ATOM      4  C   UNL     1      10.687  10.091   4.256  0.00  0.00    +0.000 A 
ATOM      5  C   UNL     1      10.662  10.299   5.645  0.00  0.00    +0.000 A 
ATOM      6  C   UNL     1       9.819  11.244   6.258  0.00  0.00    +0.000 A 
ATOM      7  C   UNL     1       9.016  11.988   5.373  0.00  0.00    +0.000 A 
ATOM      8  C   UNL     1       9.033  11.791   3.983  0.00  0.00    +0.000 A 
ENDBRANCH   1   6
BRANCH   1   9
ATOM      9  C   UNL     1      10.931  10.959   8.477  0.00  0.00    +0.000 C 
BRANCH   9  10
ATOM     10  C   UNL     1      11.766  12.099   9.109  0.00  0.00    +0.000 C 
ATOM     11  C   UNL     1      13.112  11.581   9.601  0.00  0.00    +0.000 C 
BRANCH  10  12
ATOM     12  O   UNL     1      12.013  13.145   8.158  0.00  0.00    +0.000 OA
ATOM     13  H   UNL     1      12.964  13.343   8.169  0.00  0.00    +0.000 HD
ENDBRANCH  10  12
ENDBRANCH   9  10
ENDBRANCH   1   9
BRANCH   1  14
ATOM     14  C   UNL     1       8.546  11.704   8.377  0.00  0.00    +0.000 C 
BRANCH  14  15
ATOM     15  C   UNL     1       7.588  10.490   8.310  0.00  0.00    +0.000 C 
ATOM     16  C   UNL     1       7.376   9.819   9.661  0.00  0.00    +0.000 C 
BRANCH  15  17
ATOM     17  O   UNL     1       6.310  10.854   7.792  0.00  0.00    +0.000 OA
ATOM     18  H   UNL     1       5.836  11.255   8.548  0.00  0.00    +0.000 HD
ENDBRANCH  15  17
ENDBRANCH  14  15
ENDBRANCH   1  14
TORSDOF 7
ENDMDL
MODEL 7
REMARK VINA RESULT:    -4.971     12.280     13.403
REMARK INTER + INTRA:          -6.910
REMARK INTER:                  -6.465
REMARK INTRA:                  -0.445
REMARK UNBOUND:                -0.196
REMARK  Name = 
REMARK  10 active torsions:
REMARK  status: ('A' for Active; 'I' for Inactive)
REMARK    1  A    between atoms: C_1  and  C_2
REMARK    2  A    between atoms: C_5  and  N_8
REMARK    3  A    between atoms: N_8  and  C_9
REMARK    4  A    between atoms: N_8  and  C_13
REMARK    5  A    between atoms: C_9  and  C_10
REMARK    6  A    between atoms: C_10  and  C_11
REMARK    7  A    between atoms: C_10  and  O_12
REMARK    8  A    between atoms: C_13  and  C_14
REMARK    9  A    between atoms: C_14  and  C_15
REMARK   10  A    between atoms: C_14  and  O_16
REMARK                            x       y       z     vdW  Elec       q    Type
REMARK                         _______ _______ _______ _____ _____    ______ ____
ROOT
ATOM      1  N   UNL     1      20.320  14.368   0.717  0.00  0.00    +0.000 N 
ENDROOT
BRANCH   1   6
ATOM      2  C   UNL     1      23.295  15.046   5.618  0.00  0.00    +0.000 C 
ATOM      3  C   UNL     1      22.525  14.845   4.349  0.00  0.00    +0.000 A 
ATOM      4  C   UNL     1      23.174  14.799   3.119  0.00  0.00    +0.000 A 
ATOM      5  C   UNL     1      22.444  14.641   1.930  0.00  0.00    +0.000 A 
ATOM      6  C   UNL     1      21.040  14.545   1.905  0.00  0.00    +0.000 A 
ATOM      7  C   UNL     1      20.418  14.593   3.166  0.00  0.00    +0.000 A 
ATOM      8  C   UNL     1      21.137  14.749   4.363  0.00  0.00    +0.000 A 
ENDBRANCH   1   6
BRANCH   1   9
ATOM      9  C   UNL     1      20.874  13.524  -0.369  0.00  0.00    +0.000 C 
BRANCH   9  10
ATOM     10  C   UNL     1      21.576  14.351  -1.474  0.00  0.00    +0.000 C 
ATOM     11  C   UNL     1      22.984  13.829  -1.735  0.00  0.00    +0.000 C 
BRANCH  10  12
ATOM     12  O   UNL     1      20.844  14.290  -2.706  0.00  0.00    +0.000 OA
ATOM     13  H   UNL     1      19.953  13.954  -2.511  0.00  0.00    +0.000 HD
ENDBRANCH  10  12
ENDBRANCH   9  10
ENDBRANCH   1   9
BRANCH   1  14
ATOM     14  C   UNL     1      19.301  15.357   0.281  0.00  0.00    +0.000 C 
BRANCH  14  15
ATOM     15  C   UNL     1      19.842  16.806   0.312  0.00  0.00    +0.000 C 
ATOM     16  C   UNL     1      19.509  17.597  -0.948  0.00  0.00    +0.000 C 
BRANCH  15  17
ATOM     17  O   UNL     1      19.342  17.532   1.434  0.00  0.00    +0.000 OA
ATOM     18  H   UNL     1      19.619  18.457   1.281  0.00  0.00    +0.000 HD
ENDBRANCH  15  17
ENDBRANCH  14  15
ENDBRANCH   1  14
TORSDOF 7
ENDMDL
MODEL 8
REMARK VINA RESULT:    -4.777     12.542     13.713
REMARK INTER + INTRA:          -6.649
REMARK INTER:                  -6.126
REMARK INTRA:                  -0.523
REMARK UNBOUND:                -0.196
REMARK  Name = 
REMARK  10 active torsions:
REMARK  status: ('A' for Active; 'I' for Inactive)
REMARK    1  A    between atoms: C_1  and  C_2
REMARK    2  A    between atoms: C_5  and  N_8
REMARK    3  A    between atoms: N_8  and  C_9
REMARK    4  A    between atoms: N_8  and  C_13
REMARK    5  A    between atoms: C_9  and  C_10
REMARK    6  A    between atoms: C_10  and  C_11
REMARK    7  A    between atoms: C_10  and  O_12
REMARK    8  A    between atoms: C_13  and  C_14
REMARK    9  A    between atoms: C_14  and  C_15
REMARK   10  A    between atoms: C_14  and  O_16
REMARK                            x       y       z     vdW  Elec       q    Type
REMARK                         _______ _______ _______ _____ _____    ______ ____
ROOT
ATOM      1  N   UNL     1      20.916  14.836   0.691  0.00  0.00    +0.000 N 
ENDROOT
BRANCH   1   6
ATOM      2  C   UNL     1      22.941  14.833   6.097  0.00  0.00    +0.000 C 
ATOM      3  C   UNL     1      22.416  14.859   4.695  0.00  0.00    +0.000 A 
ATOM      4  C   UNL     1      21.048  14.829   4.444  0.00  0.00    +0.000 A 
ATOM      5  C   UNL     1      20.562  14.823   3.126  0.00  0.00    +0.000 A 
ATOM      6  C   UNL     1      21.408  14.822   2.003  0.00  0.00    +0.000 A 
ATOM      7  C   UNL     1      22.784  14.854   2.294  0.00  0.00    +0.000 A 
ATOM      8  C   UNL     1      23.283  14.863   3.607  0.00  0.00    +0.000 A 
ENDBRANCH   1   6
BRANCH   1   9
ATOM      9  C   UNL     1      19.660  15.560   0.376  0.00  0.00    +0.000 C 
BRANCH   9  10
ATOM     10  C   UNL     1      19.901  17.043   0.002  0.00  0.00    +0.000 C 
ATOM     11  C   UNL     1      19.736  17.260  -1.498  0.00  0.00    +0.000 C 
BRANCH  10  12
ATOM     12  O   UNL     1      18.973  17.902   0.680  0.00  0.00    +0.000 OA
ATOM     13  H   UNL     1      18.075  17.655   0.401  0.00  0.00    +0.000 HD
ENDBRANCH  10  12
ENDBRANCH   9  10
ENDBRANCH   1   9
BRANCH   1  14
ATOM     14  C   UNL     1      21.285  13.775  -0.280  0.00  0.00    +0.000 C 
BRANCH  14  15
ATOM     15  C   UNL     1      22.039  14.342  -1.507  0.00  0.00    +0.000 C 
ATOM     16  C   UNL     1      23.331  13.596  -1.814  0.00  0.00    +0.000 C 
BRANCH  15  17
ATOM     17  O   UNL     1      21.227  14.321  -2.680  0.00  0.00    +0.000 OA
ATOM     18  H   UNL     1      21.495  15.113  -3.187  0.00  0.00    +0.000 HD
ENDBRANCH  15  17
ENDBRANCH  14  15
ENDBRANCH   1  14
TORSDOF 7
ENDMDL
MODEL 9
REMARK VINA RESULT:    -4.770      3.072      4.683
REMARK INTER + INTRA:          -6.639
REMARK INTER:                  -6.113
REMARK INTRA:                  -0.526
REMARK UNBOUND:                -0.196
REMARK  Name = 
REMARK  10 active torsions:
REMARK  status: ('A' for Active; 'I' for Inactive)
REMARK    1  A    between atoms: C_1  and  C_2
REMARK    2  A    between atoms: C_5  and  N_8
REMARK    3  A    between atoms: N_8  and  C_9
REMARK    4  A    between atoms: N_8  and  C_13
REMARK    5  A    between atoms: C_9  and  C_10
REMARK    6  A    between atoms: C_10  and  C_11
REMARK    7  A    between atoms: C_10  and  O_12
REMARK    8  A    between atoms: C_13  and  C_14
REMARK    9  A    between atoms: C_14  and  C_15
REMARK   10  A    between atoms: C_14  and  O_16
REMARK                            x       y       z     vdW  Elec       q    Type
REMARK                         _______ _______ _______ _____ _____    ______ ____
ROOT
ATOM      1  N   UNL     1       9.843  11.376   7.385  0.00  0.00    +0.000 N 
ENDROOT
BRANCH   1   6
ATOM      2  C   UNL     1      14.915  13.031   9.591  0.00  0.00    +0.000 C 
ATOM      3  C   UNL     1      13.605  12.613   8.997  0.00  0.00    +0.000 A 
ATOM      4  C   UNL     1      12.464  13.390   9.167  0.00  0.00    +0.000 A 
ATOM      5  C   UNL     1      11.231  12.979   8.634  0.00  0.00    +0.000 A 
ATOM      6  C   UNL     1      11.071  11.771   7.931  0.00  0.00    +0.000 A 
ATOM      7  C   UNL     1      12.246  11.012   7.777  0.00  0.00    +0.000 A 
ATOM      8  C   UNL     1      13.485  11.413   8.303  0.00  0.00    +0.000 A 
ENDBRANCH   1   6
BRANCH   1   9
ATOM      9  C   UNL     1       8.581  11.670   8.105  0.00  0.00    +0.000 C 
BRANCH   9  10
ATOM     10  C   UNL     1       7.651  10.437   8.216  0.00  0.00    +0.000 C 
ATOM     11  C   UNL     1       7.541   9.966   9.661  0.00  0.00    +0.000 C 
BRANCH  10  12
ATOM     12  O   UNL     1       6.331  10.743   7.746  0.00  0.00    +0.000 OA
ATOM     13  H   UNL     1       5.710  10.604   8.481  0.00  0.00    +0.000 HD
ENDBRANCH  10  12
ENDBRANCH   9  10
ENDBRANCH   1   9
BRANCH   1  14
ATOM     14  C   UNL     1       9.759  10.260   6.408  0.00  0.00    +0.000 C 
BRANCH  14  15
ATOM     15  C   UNL     1       9.636  10.767   4.951  0.00  0.00    +0.000 C 
ATOM     16  C   UNL     1      10.602  10.080   3.994  0.00  0.00    +0.000 C 
BRANCH  15  17
ATOM     17  O   UNL     1       8.314  10.596   4.444  0.00  0.00    +0.000 OA
ATOM     18  H   UNL     1       7.889   9.960   5.053  0.00  0.00    +0.000 HD
ENDBRANCH  15  17
ENDBRANCH  14  15
ENDBRANCH   1  14
TORSDOF 7
ENDMDL
