MODEL 1
REMARK VINA RESULT:    -4.261      0.000      0.000
REMARK INTER + INTRA:          -4.674
REMARK INTER:                  -4.635
REMARK INTRA:                  -0.039
REMARK UNBOUND:                -0.039
REMARK  Name = 
REMARK  3 active torsions:
REMARK  status: ('A' for Active; 'I' for Inactive)
REMARK    1  A    between atoms: C_1  and  O_2
REMARK    2  A    between atoms: O_2  and  C_3
REMARK    3  A    between atoms: C_8  and  O_9
REMARK                            x       y       z     vdW  Elec       q    Type
REMARK                         _______ _______ _______ _____ _____    ______ ____
ROOT
ATOM      1  C   UNL     1       2.976  15.890 -13.678  0.00  0.00    +0.000 A 
ATOM      2  C   UNL     1       2.312  16.264 -14.846  0.00  0.00    +0.000 A 
ATOM      3  C   UNL     1       1.387  15.392 -15.434  0.00  0.00    +0.000 A 
ATOM      4  C   UNL     1       1.123  14.147 -14.860  0.00  0.00    +0.000 A 
ATOM      5  C   UNL     1       1.782  13.767 -13.693  0.00  0.00    +0.000 A 
ATOM      6  C   UNL     1       2.698  14.638 -13.117  0.00  0.00    +0.000 A 
ENDROOT
BRANCH   1   8
ATOM      7  C   UNL     1       4.546  17.673 -13.732  0.00  0.00    +0.000 C 
ATOM      8  O   UNL     1       3.902  16.639 -12.998  0.00  0.00    +0.000 OA
ENDBRANCH   1   8
BRANCH   6   9
ATOM      9  O   UNL     1       3.334  14.242 -11.970  0.00  0.00    +0.000 OA
ATOM     10  H   UNL     1       2.710  13.626 -11.540  0.00  0.00    +0.000 HD
ENDBRANCH   6   9
TORSDOF 2
ENDMDL
MODEL 2
REMARK VINA RESULT:    -4.162      2.275      3.570
REMARK INTER + INTRA:          -4.566
REMARK INTER:                  -4.524
REMARK INTRA:                  -0.041
REMARK UNBOUND:                -0.039
REMARK  Name = 
REMARK  3 active torsions:
REMARK  status: ('A' for Active; 'I' for Inactive)
REMARK    1  A    between atoms: C_1  and  O_2
REMARK    2  A    between atoms: O_2  and  C_3
REMARK    3  A    between atoms: C_8  and  O_9
REMARK                            x       y       z     vdW  Elec       q    Type
REMARK                         _______ _______ _______ _____ _____    ______ ____
ROOT
ATOM      1  C   UNL     1       1.468  14.138 -15.047  0.00  0.00    +0.000 A 
ATOM      2  C   UNL     1       2.390  15.084 -15.494  0.00  0.00    +0.000 A 
ATOM      3  C   UNL     1       3.299  15.654 -14.595  0.00  0.00    +0.000 A 
ATOM      4  C   UNL     1       3.291  15.283 -13.249  0.00  0.00    +0.000 A 
ATOM      5  C   UNL     1       2.374  14.338 -12.795  0.00  0.00    +0.000 A 
ATOM      6  C   UNL     1       1.475  13.778 -13.694  0.00  0.00    +0.000 A 
ENDROOT
BRANCH   1   8
ATOM      7  C   UNL     1       0.993  12.469 -16.670  0.00  0.00    +0.000 C 
ATOM      8  O   UNL     1       0.524  13.502 -15.811  0.00  0.00    +0.000 OA
ENDBRANCH   1   8
BRANCH   6   9
ATOM      9  O   UNL     1       0.583  12.852 -13.224  0.00  0.00    +0.000 OA
ATOM     10  H   UNL     1       0.803  12.753 -12.278  0.00  0.00    +0.000 HD
ENDBRANCH   6   9
TORSDOF 2
ENDMDL
MODEL 3
REMARK VINA RESULT:    -4.128     15.981     17.023
REMARK INTER + INTRA:          -4.529
REMARK INTER:                  -4.477
REMARK INTRA:                  -0.052
REMARK UNBOUND:                -0.039
REMARK  Name = 
REMARK  3 active torsions:
REMARK  status: ('A' for Active; 'I' for Inactive)
REMARK    1  A    between atoms: C_1  and  O_2
REMARK    2  A    between atoms: O_2  and  C_3
REMARK    3  A    between atoms: C_8  and  O_9
REMARK                            x       y       z     vdW  Elec       q    Type
REMARK                         _______ _______ _______ _____ _____    ______ ____
ROOT
ATOM      1  C   UNL     1       3.216  17.859   3.053  0.00  0.00    +0.000 A 
ATOM      2  C   UNL     1       3.730  18.862   3.874  0.00  0.00    +0.000 A 
ATOM      3  C   UNL     1       4.457  19.920   3.314  0.00  0.00    +0.000 A 
ATOM      4  C   UNL     1       4.674  19.979   1.936  0.00  0.00    +0.000 A 
ATOM      5  C   UNL     1       4.163  18.981   1.109  0.00  0.00    +0.000 A 
ATOM      6  C   UNL     1       3.443  17.935   1.673  0.00  0.00    +0.000 A 
ENDROOT
BRANCH   1   8
ATOM      7  C   UNL     1       1.230  17.037   4.066  0.00  0.00    +0.000 C 
ATOM      8  O   UNL     1       2.489  16.770   3.462  0.00  0.00    +0.000 OA
ENDBRANCH   1   8
BRANCH   6   9
ATOM      9  O   UNL     1       2.952  16.966   0.840  0.00  0.00    +0.000 OA
ATOM     10  H   UNL     1       2.909  16.162   1.393  0.00  0.00    +0.000 HD
ENDBRANCH   6   9
TORSDOF 2
ENDMDL
MODEL 4
REMARK VINA RESULT:    -4.114     15.530     16.370
REMARK INTER + INTRA:          -4.513
REMARK INTER:                  -4.461
REMARK INTRA:                  -0.052
REMARK UNBOUND:                -0.039
REMARK  Name = 
REMARK  3 active torsions:
REMARK  status: ('A' for Active; 'I' for Inactive)
REMARK    1  A    between atoms: C_1  and  O_2
REMARK    2  A    between atoms: O_2  and  C_3
REMARK    3  A    between atoms: C_8  and  O_9
REMARK                            x       y       z     vdW  Elec       q    Type
REMARK                         _______ _______ _______ _____ _____    ______ ____
ROOT
ATOM      1  C   UNL     1       4.009  18.918   1.662  0.00  0.00    +0.000 A 
ATOM      2  C   UNL     1       4.299  19.539   2.876  0.00  0.00    +0.000 A 
ATOM      3  C   UNL     1       3.737  19.052   4.063  0.00  0.00    +0.000 A 
ATOM      4  C   UNL     1       2.886  17.946   4.042  0.00  0.00    +0.000 A 
ATOM      5  C   UNL     1       2.591  17.319   2.833  0.00  0.00    +0.000 A 
ATOM      6  C   UNL     1       3.153  17.809   1.660  0.00  0.00    +0.000 A 
ENDROOT
BRANCH   1   8
ATOM      7  C   UNL     1       4.167  20.601  -0.007  0.00  0.00    +0.000 C 
ATOM      8  O   UNL     1       4.484  19.285   0.429  0.00  0.00    +0.000 OA
ENDBRANCH   1   8
BRANCH   6   9
ATOM      9  O   UNL     1       2.848  17.177   0.484  0.00  0.00    +0.000 OA
ATOM     10  H   UNL     1       1.941  17.469   0.273  0.00  0.00    +0.000 HD
ENDBRANCH   6   9
TORSDOF 2
ENDMDL
MODEL 5
REMARK VINA RESULT:    -4.094      3.224      4.399
REMARK INTER + INTRA:          -4.492
REMARK INTER:                  -4.451
REMARK INTRA:                  -0.040
REMARK UNBOUND:                -0.039
REMARK  Name = 
REMARK  3 active torsions:
REMARK  status: ('A' for Active; 'I' for Inactive)
REMARK    1  A    between atoms: C_1  and  O_2
REMARK    2  A    between atoms: O_2  and  C_3
REMARK    3  A    between atoms: C_8  and  O_9
REMARK                            x       y       z     vdW  Elec       q    Type
REMARK                         _______ _______ _______ _____ _____    ______ ____
ROOT
ATOM      1  C   UNL     1       0.446  12.652 -14.658  0.00  0.00    +0.000 A 
ATOM      2  C   UNL     1       1.106  12.492 -15.875  0.00  0.00    +0.000 A 
ATOM      3  C   UNL     1       0.480  11.810 -16.927  0.00  0.00    +0.000 A 
ATOM      4  C   UNL     1      -0.804  11.286 -16.765  0.00  0.00    +0.000 A 
ATOM      5  C   UNL     1      -1.470  11.442 -15.552  0.00  0.00    +0.000 A 
ATOM      6  C   UNL     1      -0.841  12.119 -14.515  0.00  0.00    +0.000 A 
ENDROOT
BRANCH   1   8
ATOM      7  C   UNL     1       1.900  14.312 -13.778  0.00  0.00    +0.000 C 
ATOM      8  O   UNL     1       0.935  13.293 -13.548  0.00  0.00    +0.000 OA
ENDBRANCH   1   8
BRANCH   6   9
ATOM      9  O   UNL     1      -1.516  12.260 -13.332  0.00  0.00    +0.000 OA
ATOM     10  H   UNL     1      -2.460  12.254 -13.582  0.00  0.00    +0.000 HD
ENDBRANCH   6   9
TORSDOF 2
ENDMDL
MODEL 6
REMARK VINA RESULT:    -3.981     15.630     16.442
REMARK INTER + INTRA:          -4.369
REMARK INTER:                  -4.317
REMARK INTRA:                  -0.052
REMARK UNBOUND:                -0.039
REMARK  Name = 
REMARK  3 active torsions:
REMARK  status: ('A' for Active; 'I' for Inactive)
REMARK    1  A    between atoms: C_1  and  O_2
REMARK    2  A    between atoms: O_2  and  C_3
REMARK    3  A    between atoms: C_8  and  O_9
REMARK                            x       y       z     vdW  Elec       q    Type
REMARK                         _______ _______ _______ _____ _____    ______ ____
ROOT
ATOM      1  C   UNL     1       4.180  19.116   1.473  0.00  0.00    +0.000 A 
ATOM      2  C   UNL     1       3.889  17.781   1.197  0.00  0.00    +0.000 A 
ATOM      3  C   UNL     1       3.356  16.959   2.198  0.00  0.00    +0.000 A 
ATOM      4  C   UNL     1       3.113  17.467   3.476  0.00  0.00    +0.000 A 
ATOM      5  C   UNL     1       3.401  18.800   3.759  0.00  0.00    +0.000 A 
ATOM      6  C   UNL     1       3.929  19.608   2.760  0.00  0.00    +0.000 A 
ENDROOT
BRANCH   1   8
ATOM      7  C   UNL     1       3.896  20.365  -0.529  0.00  0.00    +0.000 C 
ATOM      8  O   UNL     1       4.702  20.031   0.595  0.00  0.00    +0.000 OA
ENDBRANCH   1   8
BRANCH   6   9
ATOM      9  O   UNL     1       4.204  20.915   3.063  0.00  0.00    +0.000 OA
ATOM     10  H   UNL     1       4.270  21.362   2.198  0.00  0.00    +0.000 HD
ENDBRANCH   6   9
TORSDOF 2
ENDMDL
MODEL 7
REMARK VINA RESULT:    -3.960     16.506     17.218
REMARK INTER + INTRA:          -4.347
REMARK INTER:                  -4.306
REMARK INTRA:                  -0.041
REMARK UNBOUND:                -0.039
REMARK  Name = 
REMARK  3 active torsions:
REMARK  status: ('A' for Active; 'I' for Inactive)
REMARK    1  A    between atoms: C_1  and  O_2
REMARK    2  A    between atoms: O_2  and  C_3
REMARK    3  A    between atoms: C_8  and  O_9
REMARK                            x       y       z     vdW  Elec       q    Type
REMARK                         _______ _______ _______ _____ _____    ______ ____
ROOT
ATOM      1  C   UNL     1       2.422  16.417   3.334  0.00  0.00    +0.000 A 
ATOM      2  C   UNL     1       3.568  16.771   2.622  0.00  0.00    +0.000 A 
ATOM      3  C   UNL     1       3.606  17.979   1.915  0.00  0.00    +0.000 A 
ATOM      4  C   UNL     1       2.503  18.835   1.915  0.00  0.00    +0.000 A 
ATOM      5  C   UNL     1       1.356  18.489   2.625  0.00  0.00    +0.000 A 
ATOM      6  C   UNL     1       1.326  17.289   3.323  0.00  0.00    +0.000 A 
ENDROOT
BRANCH   1   8
ATOM      7  C   UNL     1       2.974  14.126   3.641  0.00  0.00    +0.000 C 
ATOM      8  O   UNL     1       2.245  15.271   4.066  0.00  0.00    +0.000 OA
ENDBRANCH   1   8
BRANCH   6   9
ATOM      9  O   UNL     1       0.187  16.970   4.013  0.00  0.00    +0.000 OA
ATOM     10  H   UNL     1      -0.132  17.819   4.372  0.00  0.00    +0.000 HD
ENDBRANCH   6   9
TORSDOF 2
ENDMDL
MODEL 8
REMARK VINA RESULT:    -3.914     15.137     16.028
REMARK INTER + INTRA:          -4.296
REMARK INTER:                  -4.243
REMARK INTRA:                  -0.053
REMARK UNBOUND:                -0.039
REMARK  Name = 
REMARK  3 active torsions:
REMARK  status: ('A' for Active; 'I' for Inactive)
REMARK    1  A    between atoms: C_1  and  O_2
REMARK    2  A    between atoms: O_2  and  C_3
REMARK    3  A    between atoms: C_8  and  O_9
REMARK                            x       y       z     vdW  Elec       q    Type
REMARK                         _______ _______ _______ _____ _____    ______ ____
ROOT
ATOM      1  C   UNL     1       1.867  18.289   1.431  0.00  0.00    +0.000 A 
ATOM      2  C   UNL     1       1.076  18.420   2.571  0.00  0.00    +0.000 A 
ATOM      3  C   UNL     1       1.407  17.720   3.737  0.00  0.00    +0.000 A 
ATOM      4  C   UNL     1       2.528  16.888   3.769  0.00  0.00    +0.000 A 
ATOM      5  C   UNL     1       3.324  16.752   2.634  0.00  0.00    +0.000 A 
ATOM      6  C   UNL     1       2.987  17.450   1.481  0.00  0.00    +0.000 A 
ENDROOT
BRANCH   1   8
ATOM      7  C   UNL     1       0.514  18.507  -0.510  0.00  0.00    +0.000 C 
ATOM      8  O   UNL     1       1.663  18.911   0.225  0.00  0.00    +0.000 OA
ENDBRANCH   1   8
BRANCH   6   9
ATOM      9  O   UNL     1       3.785  17.300   0.378  0.00  0.00    +0.000 OA
ATOM     10  H   UNL     1       4.612  16.911   0.721  0.00  0.00    +0.000 HD
ENDBRANCH   6   9
TORSDOF 2
ENDMDL
MODEL 9
REMARK VINA RESULT:    -3.892     14.082     14.901
REMARK INTER + INTRA:          -4.272
REMARK INTER:                  -4.220
REMARK INTRA:                  -0.052
REMARK UNBOUND:                -0.039
REMARK  Name = 
REMARK  3 active torsions:
REMARK  status: ('A' for Active; 'I' for Inactive)
REMARK    1  A    between atoms: C_1  and  O_2
REMARK    2  A    between atoms: O_2  and  C_3
REMARK    3  A    between atoms: C_8  and  O_9
REMARK                            x       y       z     vdW  Elec       q    Type
REMARK                         _______ _______ _______ _____ _____    ______ ____
ROOT
ATOM      1  C   UNL     1       4.068  19.136   0.876  0.00  0.00    +0.000 A 
ATOM      2  C   UNL     1       4.284  20.359   0.243  0.00  0.00    +0.000 A 
ATOM      3  C   UNL     1       3.635  20.646  -0.965  0.00  0.00    +0.000 A 
ATOM      4  C   UNL     1       2.771  19.714  -1.543  0.00  0.00    +0.000 A 
ATOM      5  C   UNL     1       2.550  18.490  -0.916  0.00  0.00    +0.000 A 
ATOM      6  C   UNL     1       3.198  18.214   0.281  0.00  0.00    +0.000 A 
ENDROOT
BRANCH   1   8
ATOM      7  C   UNL     1       4.338  19.500   3.208  0.00  0.00    +0.000 C 
ATOM      8  O   UNL     1       4.634  18.722   2.055  0.00  0.00    +0.000 OA
ENDBRANCH   1   8
BRANCH   6   9
ATOM      9  O   UNL     1       2.965  17.003   0.878  0.00  0.00    +0.000 OA
ATOM     10  H   UNL     1       2.017  16.829   0.725  0.00  0.00    +0.000 HD
ENDBRANCH   6   9
TORSDOF 2
ENDMDL
