MODEL 1
REMARK VINA RESULT:    -4.684      0.000      0.000
REMARK INTER + INTRA:          -5.136
REMARK INTER:                  -5.095
REMARK INTRA:                  -0.041
REMARK UNBOUND:                -0.041
REMARK  Name = 
REMARK  3 active torsions:
REMARK  status: ('A' for Active; 'I' for Inactive)
REMARK    1  A    between atoms: C_1  and  O_2
REMARK    2  A    between atoms: O_2  and  C_3
REMARK    3  A    between atoms: C_8  and  O_9
REMARK                            x       y       z     vdW  Elec       q    Type
REMARK                         _______ _______ _______ _____ _____    ______ ____
ROOT
ATOM      1  C   UNL     1       3.056  13.918   1.284  0.00  0.00    +0.000 A 
ATOM      2  C   UNL     1       4.338  14.349   0.948  0.00  0.00    +0.000 A 
ATOM      3  C   UNL     1       4.551  15.678   0.561  0.00  0.00    +0.000 A 
ATOM      4  C   UNL     1       3.485  16.579   0.508  0.00  0.00    +0.000 A 
ATOM      5  C   UNL     1       2.201  16.156   0.842  0.00  0.00    +0.000 A 
ATOM      6  C   UNL     1       1.999  14.835   1.225  0.00  0.00    +0.000 A 
ENDROOT
BRANCH   1   8
ATOM      7  C   UNL     1       3.054  12.279   3.004  0.00  0.00    +0.000 C 
ATOM      8  O   UNL     1       2.703  12.652   1.678  0.00  0.00    +0.000 OA
ENDBRANCH   1   8
BRANCH   6   9
ATOM      9  O   UNL     1       0.728  14.443   1.549  0.00  0.00    +0.000 OA
ATOM     10  H   UNL     1       0.316  15.236   1.942  0.00  0.00    +0.000 HD
ENDBRANCH   6   9
TORSDOF 2
ENDMDL
MODEL 2
REMARK VINA RESULT:    -4.328      1.519      3.160
REMARK INTER + INTRA:          -4.749
REMARK INTER:                  -4.706
REMARK INTRA:                  -0.043
REMARK UNBOUND:                -0.041
REMARK  Name = 
REMARK  3 active torsions:
REMARK  status: ('A' for Active; 'I' for Inactive)
REMARK    1  A    between atoms: C_1  and  O_2
REMARK    2  A    between atoms: O_2  and  C_3
REMARK    3  A    between atoms: C_8  and  O_9
REMARK                            x       y       z     vdW  Elec       q    Type
REMARK                         _______ _______ _______ _____ _____    ______ ____
ROOT
ATOM      1  C   UNL     1       2.820  15.140   1.015  0.00  0.00    +0.000 A 
ATOM      2  C   UNL     1       3.926  14.366   0.666  0.00  0.00    +0.000 A 
ATOM      3  C   UNL     1       4.011  13.034   1.090  0.00  0.00    +0.000 A 
ATOM      4  C   UNL     1       2.994  12.472   1.864  0.00  0.00    +0.000 A 
ATOM      5  C   UNL     1       1.885  13.239   2.217  0.00  0.00    +0.000 A 
ATOM      6  C   UNL     1       1.810  14.559   1.792  0.00  0.00    +0.000 A 
ENDROOT
BRANCH   1   8
ATOM      7  C   UNL     1       3.018  16.840  -0.633  0.00  0.00    +0.000 C 
ATOM      8  O   UNL     1       2.606  16.451   0.672  0.00  0.00    +0.000 OA
ENDBRANCH   1   8
BRANCH   6   9
ATOM      9  O   UNL     1       0.711  15.293   2.151  0.00  0.00    +0.000 OA
ATOM     10  H   UNL     1       0.826  16.150   1.699  0.00  0.00    +0.000 HD
ENDBRANCH   6   9
TORSDOF 2
ENDMDL
MODEL 3
REMARK VINA RESULT:    -4.058      1.125      2.695
REMARK INTER + INTRA:          -4.455
REMARK INTER:                  -4.415
REMARK INTRA:                  -0.040
REMARK UNBOUND:                -0.041
REMARK  Name = 
REMARK  3 active torsions:
REMARK  status: ('A' for Active; 'I' for Inactive)
REMARK    1  A    between atoms: C_1  and  O_2
REMARK    2  A    between atoms: O_2  and  C_3
REMARK    3  A    between atoms: C_8  and  O_9
REMARK                            x       y       z     vdW  Elec       q    Type
REMARK                         _______ _______ _______ _____ _____    ______ ____
ROOT
ATOM      1  C   UNL     1       1.707  14.940   1.599  0.00  0.00    +0.000 A 
ATOM      2  C   UNL     1       2.257  16.073   1.001  0.00  0.00    +0.000 A 
ATOM      3  C   UNL     1       3.581  16.049   0.542  0.00  0.00    +0.000 A 
ATOM      4  C   UNL     1       4.357  14.896   0.680  0.00  0.00    +0.000 A 
ATOM      5  C   UNL     1       3.813  13.761   1.277  0.00  0.00    +0.000 A 
ATOM      6  C   UNL     1       2.500  13.794   1.729  0.00  0.00    +0.000 A 
ENDROOT
BRANCH   1   8
ATOM      7  C   UNL     1      -0.206  16.027   2.498  0.00  0.00    +0.000 C 
ATOM      8  O   UNL     1       0.432  14.822   2.092  0.00  0.00    +0.000 OA
ENDBRANCH   1   8
BRANCH   6   9
ATOM      9  O   UNL     1       1.988  12.665   2.311  0.00  0.00    +0.000 OA
ATOM     10  H   UNL     1       1.546  12.983   3.122  0.00  0.00    +0.000 HD
ENDBRANCH   6   9
TORSDOF 2
ENDMDL
MODEL 4
REMARK VINA RESULT:    -3.953      1.923      3.842
REMARK INTER + INTRA:          -4.341
REMARK INTER:                  -4.382
REMARK INTRA:                   0.041
REMARK UNBOUND:                -0.041
REMARK  Name = 
REMARK  3 active torsions:
REMARK  status: ('A' for Active; 'I' for Inactive)
REMARK    1  A    between atoms: C_1  and  O_2
REMARK    2  A    between atoms: O_2  and  C_3
REMARK    3  A    between atoms: C_8  and  O_9
REMARK                            x       y       z     vdW  Elec       q    Type
REMARK                         _______ _______ _______ _____ _____    ______ ____
ROOT
ATOM      1  C   UNL     1       2.829  15.455   1.079  0.00  0.00    +0.000 A 
ATOM      2  C   UNL     1       1.613  14.912   1.491  0.00  0.00    +0.000 A 
ATOM      3  C   UNL     1       1.566  13.613   2.011  0.00  0.00    +0.000 A 
ATOM      4  C   UNL     1       2.732  12.852   2.121  0.00  0.00    +0.000 A 
ATOM      5  C   UNL     1       3.951  13.387   1.712  0.00  0.00    +0.000 A 
ATOM      6  C   UNL     1       3.988  14.677   1.197  0.00  0.00    +0.000 A 
ENDROOT
BRANCH   1   8
ATOM      7  C   UNL     1       2.890  16.830  -0.858  0.00  0.00    +0.000 C 
ATOM      8  O   UNL     1       3.022  16.707   0.553  0.00  0.00    +0.000 OA
ENDBRANCH   1   8
BRANCH   6   9
ATOM      9  O   UNL     1       5.198  15.181   0.801  0.00  0.00    +0.000 OA
ATOM     10  H   UNL     1       5.496  14.582   0.090  0.00  0.00    +0.000 HD
ENDBRANCH   6   9
TORSDOF 2
ENDMDL
MODEL 5
REMARK VINA RESULT:    -3.716      1.517      2.403
REMARK INTER + INTRA:          -4.083
REMARK INTER:                  -4.041
REMARK INTRA:                  -0.042
REMARK UNBOUND:                -0.041
REMARK  Name = 
REMARK  3 active torsions:
REMARK  status: ('A' for Active; 'I' for Inactive)
REMARK    1  A    between atoms: C_1  and  O_2
REMARK    2  A    between atoms: O_2  and  C_3
REMARK    3  A    between atoms: C_8  and  O_9
REMARK                            x       y       z     vdW  Elec       q    Type
REMARK                         _______ _______ _______ _____ _____    ______ ____
ROOT
ATOM      1  C   UNL     1       3.178  13.754   1.402  0.00  0.00    +0.000 A 
ATOM      2  C   UNL     1       1.818  13.766   1.705  0.00  0.00    +0.000 A 
ATOM      3  C   UNL     1       1.090  14.959   1.609  0.00  0.00    +0.000 A 
ATOM      4  C   UNL     1       1.719  16.141   1.212  0.00  0.00    +0.000 A 
ATOM      5  C   UNL     1       3.078  16.137   0.907  0.00  0.00    +0.000 A 
ATOM      6  C   UNL     1       3.791  14.949   1.005  0.00  0.00    +0.000 A 
ENDROOT
BRANCH   1   8
ATOM      7  C   UNL     1       3.738  11.704   2.466  0.00  0.00    +0.000 C 
ATOM      8  O   UNL     1       4.011  12.664   1.452  0.00  0.00    +0.000 OA
ENDBRANCH   1   8
BRANCH   6   9
ATOM      9  O   UNL     1       5.126  14.969   0.700  0.00  0.00    +0.000 OA
ATOM     10  H   UNL     1       5.535  14.348   1.332  0.00  0.00    +0.000 HD
ENDBRANCH   6   9
TORSDOF 2
ENDMDL
MODEL 6
REMARK VINA RESULT:    -3.528      1.457      2.602
REMARK INTER + INTRA:          -3.879
REMARK INTER:                  -3.929
REMARK INTRA:                   0.050
REMARK UNBOUND:                -0.041
REMARK  Name = 
REMARK  3 active torsions:
REMARK  status: ('A' for Active; 'I' for Inactive)
REMARK    1  A    between atoms: C_1  and  O_2
REMARK    2  A    between atoms: O_2  and  C_3
REMARK    3  A    between atoms: C_8  and  O_9
REMARK                            x       y       z     vdW  Elec       q    Type
REMARK                         _______ _______ _______ _____ _____    ______ ____
ROOT
ATOM      1  C   UNL     1       1.821  15.107   1.237  0.00  0.00    +0.000 A 
ATOM      2  C   UNL     1       2.638  14.026   1.566  0.00  0.00    +0.000 A 
ATOM      3  C   UNL     1       4.019  14.101   1.349  0.00  0.00    +0.000 A 
ATOM      4  C   UNL     1       4.588  15.253   0.802  0.00  0.00    +0.000 A 
ATOM      5  C   UNL     1       3.778  16.337   0.471  0.00  0.00    +0.000 A 
ATOM      6  C   UNL     1       2.409  16.254   0.690  0.00  0.00    +0.000 A 
ENDROOT
BRANCH   1   8
ATOM      7  C   UNL     1      -0.013  15.665   2.641  0.00  0.00    +0.000 C 
ATOM      8  O   UNL     1       0.459  15.172   1.393  0.00  0.00    +0.000 OA
ENDBRANCH   1   8
BRANCH   6   9
ATOM      9  O   UNL     1       1.634  17.332   0.356  0.00  0.00    +0.000 OA
ATOM     10  H   UNL     1       1.953  18.054   0.930  0.00  0.00    +0.000 HD
ENDBRANCH   6   9
TORSDOF 2
ENDMDL
MODEL 7
REMARK VINA RESULT:    -3.300     12.151     12.828
REMARK INTER + INTRA:          -3.631
REMARK INTER:                  -3.579
REMARK INTRA:                  -0.051
REMARK UNBOUND:                -0.041
REMARK  Name = 
REMARK  3 active torsions:
REMARK  status: ('A' for Active; 'I' for Inactive)
REMARK    1  A    between atoms: C_1  and  O_2
REMARK    2  A    between atoms: O_2  and  C_3
REMARK    3  A    between atoms: C_8  and  O_9
REMARK                            x       y       z     vdW  Elec       q    Type
REMARK                         _______ _______ _______ _____ _____    ______ ____
ROOT
ATOM      1  C   UNL     1      -1.258  15.083 -10.524  0.00  0.00    +0.000 A 
ATOM      2  C   UNL     1      -2.151  15.572  -9.572  0.00  0.00    +0.000 A 
ATOM      3  C   UNL     1      -2.010  16.878  -9.086  0.00  0.00    +0.000 A 
ATOM      4  C   UNL     1      -0.978  17.697  -9.548  0.00  0.00    +0.000 A 
ATOM      5  C   UNL     1      -0.082  17.216 -10.499  0.00  0.00    +0.000 A 
ATOM      6  C   UNL     1      -0.230  15.919 -10.976  0.00  0.00    +0.000 A 
ENDROOT
BRANCH   1   8
ATOM      7  C   UNL     1      -2.347  13.550 -11.977  0.00  0.00    +0.000 C 
ATOM      8  O   UNL     1      -1.275  13.831 -11.085  0.00  0.00    +0.000 OA
ENDBRANCH   1   8
BRANCH   6   9
ATOM      9  O   UNL     1       0.663  15.469 -11.911  0.00  0.00    +0.000 OA
ATOM     10  H   UNL     1       0.490  14.510 -11.978  0.00  0.00    +0.000 HD
ENDBRANCH   6   9
TORSDOF 2
ENDMDL
MODEL 8
REMARK VINA RESULT:    -3.294     10.314     11.643
REMARK INTER + INTRA:          -3.623
REMARK INTER:                  -3.582
REMARK INTRA:                  -0.042
REMARK UNBOUND:                -0.041
REMARK  Name = 
REMARK  3 active torsions:
REMARK  status: ('A' for Active; 'I' for Inactive)
REMARK    1  A    between atoms: C_1  and  O_2
REMARK    2  A    between atoms: O_2  and  C_3
REMARK    3  A    between atoms: C_8  and  O_9
REMARK                            x       y       z     vdW  Elec       q    Type
REMARK                         _______ _______ _______ _____ _____    ______ ____
ROOT
ATOM      1  C   UNL     1      11.586  21.352  -2.793  0.00  0.00    +0.000 A 
ATOM      2  C   UNL     1      11.593  22.516  -3.560  0.00  0.00    +0.000 A 
ATOM      3  C   UNL     1      10.385  23.130  -3.913  0.00  0.00    +0.000 A 
ATOM      4  C   UNL     1       9.167  22.583  -3.503  0.00  0.00    +0.000 A 
ATOM      5  C   UNL     1       9.152  21.420  -2.736  0.00  0.00    +0.000 A 
ATOM      6  C   UNL     1      10.355  20.819  -2.390  0.00  0.00    +0.000 A 
ENDROOT
BRANCH   1   8
ATOM      7  C   UNL     1      13.807  20.645  -3.253  0.00  0.00    +0.000 C 
ATOM      8  O   UNL     1      12.687  20.648  -2.376  0.00  0.00    +0.000 OA
ENDBRANCH   1   8
BRANCH   6   9
ATOM      9  O   UNL     1      10.314  19.677  -1.636  0.00  0.00    +0.000 OA
ATOM     10  H   UNL     1      10.753  19.917  -0.798  0.00  0.00    +0.000 HD
ENDBRANCH   6   9
TORSDOF 2
ENDMDL
MODEL 9
REMARK VINA RESULT:    -3.292     10.014     11.445
REMARK INTER + INTRA:          -3.622
REMARK INTER:                  -3.572
REMARK INTRA:                  -0.050
REMARK UNBOUND:                -0.041
REMARK  Name = 
REMARK  3 active torsions:
REMARK  status: ('A' for Active; 'I' for Inactive)
REMARK    1  A    between atoms: C_1  and  O_2
REMARK    2  A    between atoms: O_2  and  C_3
REMARK    3  A    between atoms: C_8  and  O_9
REMARK                            x       y       z     vdW  Elec       q    Type
REMARK                         _______ _______ _______ _____ _____    ______ ____
ROOT
ATOM      1  C   UNL     1       9.893  21.604  -3.195  0.00  0.00    +0.000 A 
ATOM      2  C   UNL     1      10.445  22.587  -4.016  0.00  0.00    +0.000 A 
ATOM      3  C   UNL     1      11.834  22.758  -4.065  0.00  0.00    +0.000 A 
ATOM      4  C   UNL     1      12.675  21.952  -3.296  0.00  0.00    +0.000 A 
ATOM      5  C   UNL     1      12.131  20.967  -2.474  0.00  0.00    +0.000 A 
ATOM      6  C   UNL     1      10.752  20.804  -2.431  0.00  0.00    +0.000 A 
ENDROOT
BRANCH   1   8
ATOM      7  C   UNL     1       7.784  22.287  -2.339  0.00  0.00    +0.000 C 
ATOM      8  O   UNL     1       8.558  21.326  -3.048  0.00  0.00    +0.000 OA
ENDBRANCH   1   8
BRANCH   6   9
ATOM      9  O   UNL     1      10.241  19.830  -1.616  0.00  0.00    +0.000 OA
ATOM     10  H   UNL     1       9.324  19.704  -1.924  0.00  0.00    +0.000 HD
ENDBRANCH   6   9
TORSDOF 2
ENDMDL
