MODEL 1
REMARK VINA RESULT:    -3.081      0.000      0.000
REMARK INTER + INTRA:          -3.392
REMARK INTER:                  -3.351
REMARK INTRA:                  -0.041
REMARK UNBOUND:                -0.041
REMARK  Name = 
REMARK  3 active torsions:
REMARK  status: ('A' for Active; 'I' for Inactive)
REMARK    1  A    between atoms: C_1  and  O_2
REMARK    2  A    between atoms: O_2  and  C_3
REMARK    3  A    between atoms: C_8  and  O_9
REMARK                            x       y       z     vdW  Elec       q    Type
REMARK                         _______ _______ _______ _____ _____    ______ ____
ROOT
ATOM      1  C   UNL     1       5.171  12.179  10.005  0.00  0.00    +0.000 A 
ATOM      2  C   UNL     1       6.345  12.531  10.670  0.00  0.00    +0.000 A 
ATOM      3  C   UNL     1       7.454  12.980   9.941  0.00  0.00    +0.000 A 
ATOM      4  C   UNL     1       7.395  13.077   8.550  0.00  0.00    +0.000 A 
ATOM      5  C   UNL     1       6.225  12.728   7.878  0.00  0.00    +0.000 A 
ATOM      6  C   UNL     1       5.130  12.284   8.609  0.00  0.00    +0.000 A 
ENDROOT
BRANCH   1   8
ATOM      7  C   UNL     1       4.158  10.995  11.799  0.00  0.00    +0.000 C 
ATOM      8  O   UNL     1       4.015  11.726  10.587  0.00  0.00    +0.000 OA
ENDBRANCH   1   8
BRANCH   6   9
ATOM      9  O   UNL     1       3.992  11.946   7.927  0.00  0.00    +0.000 OA
ATOM     10  H   UNL     1       4.149  11.033   7.618  0.00  0.00    +0.000 HD
ENDBRANCH   6   9
TORSDOF 2
ENDMDL
MODEL 2
REMARK VINA RESULT:    -2.977      9.752     10.946
REMARK INTER + INTRA:          -3.280
REMARK INTER:                  -3.233
REMARK INTRA:                  -0.047
REMARK UNBOUND:                -0.041
REMARK  Name = 
REMARK  3 active torsions:
REMARK  status: ('A' for Active; 'I' for Inactive)
REMARK    1  A    between atoms: C_1  and  O_2
REMARK    2  A    between atoms: O_2  and  C_3
REMARK    3  A    between atoms: C_8  and  O_9
REMARK                            x       y       z     vdW  Elec       q    Type
REMARK                         _______ _______ _______ _____ _____    ______ ____
ROOT
ATOM      1  C   UNL     1       3.142  16.798  -0.131  0.00  0.00    +0.000 A 
ATOM      2  C   UNL     1       3.829  17.951  -0.510  0.00  0.00    +0.000 A 
ATOM      3  C   UNL     1       5.223  18.006  -0.389  0.00  0.00    +0.000 A 
ATOM      4  C   UNL     1       5.934  16.913   0.111  0.00  0.00    +0.000 A 
ATOM      5  C   UNL     1       5.255  15.758   0.492  0.00  0.00    +0.000 A 
ATOM      6  C   UNL     1       3.872  15.712   0.368  0.00  0.00    +0.000 A 
ENDROOT
BRANCH   1   8
ATOM      7  C   UNL     1       1.230  16.418  -1.490  0.00  0.00    +0.000 C 
ATOM      8  O   UNL     1       1.785  16.605  -0.194  0.00  0.00    +0.000 OA
ENDBRANCH   1   8
BRANCH   6   9
ATOM      9  O   UNL     1       3.227  14.566   0.749  0.00  0.00    +0.000 OA
ATOM     10  H   UNL     1       2.318  14.667   0.405  0.00  0.00    +0.000 HD
ENDBRANCH   6   9
TORSDOF 2
ENDMDL
MODEL 3
REMARK VINA RESULT:    -2.972      9.130     10.777
REMARK INTER + INTRA:          -3.273
REMARK INTER:                  -3.222
REMARK INTRA:                  -0.051
REMARK UNBOUND:                -0.041
REMARK  Name = 
REMARK  3 active torsions:
REMARK  status: ('A' for Active; 'I' for Inactive)
REMARK    1  A    between atoms: C_1  and  O_2
REMARK    2  A    between atoms: O_2  and  C_3
REMARK    3  A    between atoms: C_8  and  O_9
REMARK                            x       y       z     vdW  Elec       q    Type
REMARK                         _______ _______ _______ _____ _____    ______ ____
ROOT
ATOM      1  C   UNL     1       4.215  16.299   0.287  0.00  0.00    +0.000 A 
ATOM      2  C   UNL     1       4.252  17.553  -0.322  0.00  0.00    +0.000 A 
ATOM      3  C   UNL     1       3.133  18.025  -1.020  0.00  0.00    +0.000 A 
ATOM      4  C   UNL     1       1.977  17.248  -1.112  0.00  0.00    +0.000 A 
ATOM      5  C   UNL     1       1.932  15.995  -0.506  0.00  0.00    +0.000 A 
ATOM      6  C   UNL     1       3.046  15.534   0.184  0.00  0.00    +0.000 A 
ENDROOT
BRANCH   1   8
ATOM      7  C   UNL     1       5.719  16.436   2.122  0.00  0.00    +0.000 C 
ATOM      8  O   UNL     1       5.231  15.712   0.998  0.00  0.00    +0.000 OA
ENDBRANCH   1   8
BRANCH   6   9
ATOM      9  O   UNL     1       2.978  14.299   0.771  0.00  0.00    +0.000 OA
ATOM     10  H   UNL     1       3.327  14.433   1.673  0.00  0.00    +0.000 HD
ENDBRANCH   6   9
TORSDOF 2
ENDMDL
MODEL 4
REMARK VINA RESULT:    -2.954      9.861     11.318
REMARK INTER + INTRA:          -3.254
REMARK INTER:                  -3.204
REMARK INTRA:                  -0.051
REMARK UNBOUND:                -0.041
REMARK  Name = 
REMARK  3 active torsions:
REMARK  status: ('A' for Active; 'I' for Inactive)
REMARK    1  A    between atoms: C_1  and  O_2
REMARK    2  A    between atoms: O_2  and  C_3
REMARK    3  A    between atoms: C_8  and  O_9
REMARK                            x       y       z     vdW  Elec       q    Type
REMARK                         _______ _______ _______ _____ _____    ______ ____
ROOT
ATOM      1  C   UNL     1       3.920  17.104  -0.007  0.00  0.00    +0.000 A 
ATOM      2  C   UNL     1       2.946  17.587  -0.881  0.00  0.00    +0.000 A 
ATOM      3  C   UNL     1       1.854  16.781  -1.226  0.00  0.00    +0.000 A 
ATOM      4  C   UNL     1       1.732  15.493  -0.702  0.00  0.00    +0.000 A 
ATOM      5  C   UNL     1       2.700  15.003   0.171  0.00  0.00    +0.000 A 
ATOM      6  C   UNL     1       3.780  15.810   0.509  0.00  0.00    +0.000 A 
ENDROOT
BRANCH   1   8
ATOM      7  C   UNL     1       5.913  18.255  -0.599  0.00  0.00    +0.000 C 
ATOM      8  O   UNL     1       5.036  17.779   0.416  0.00  0.00    +0.000 OA
ENDBRANCH   1   8
BRANCH   6   9
ATOM      9  O   UNL     1       4.719  15.307   1.369  0.00  0.00    +0.000 OA
ATOM     10  H   UNL     1       4.715  14.345   1.205  0.00  0.00    +0.000 HD
ENDBRANCH   6   9
TORSDOF 2
ENDMDL
MODEL 5
REMARK VINA RESULT:    -2.936      3.413      4.650
REMARK INTER + INTRA:          -3.234
REMARK INTER:                  -3.190
REMARK INTRA:                  -0.044
REMARK UNBOUND:                -0.041
REMARK  Name = 
REMARK  3 active torsions:
REMARK  status: ('A' for Active; 'I' for Inactive)
REMARK    1  A    between atoms: C_1  and  O_2
REMARK    2  A    between atoms: O_2  and  C_3
REMARK    3  A    between atoms: C_8  and  O_9
REMARK                            x       y       z     vdW  Elec       q    Type
REMARK                         _______ _______ _______ _____ _____    ______ ____
ROOT
ATOM      1  C   UNL     1       6.890  14.004   6.682  0.00  0.00    +0.000 A 
ATOM      2  C   UNL     1       6.390  15.266   7.000  0.00  0.00    +0.000 A 
ATOM      3  C   UNL     1       6.101  16.181   5.979  0.00  0.00    +0.000 A 
ATOM      4  C   UNL     1       6.312  15.840   4.642  0.00  0.00    +0.000 A 
ATOM      5  C   UNL     1       6.810  14.580   4.317  0.00  0.00    +0.000 A 
ATOM      6  C   UNL     1       7.094  13.679   5.336  0.00  0.00    +0.000 A 
ENDROOT
BRANCH   1   8
ATOM      7  C   UNL     1       7.863  13.425   8.771  0.00  0.00    +0.000 C 
ATOM      8  O   UNL     1       7.215  13.013   7.574  0.00  0.00    +0.000 OA
ENDBRANCH   1   8
BRANCH   6   9
ATOM      9  O   UNL     1       7.583  12.447   4.991  0.00  0.00    +0.000 OA
ATOM     10  H   UNL     1       8.483  12.423   5.371  0.00  0.00    +0.000 HD
ENDBRANCH   6   9
TORSDOF 2
ENDMDL
MODEL 6
REMARK VINA RESULT:    -2.920      1.508      3.344
REMARK INTER + INTRA:          -3.217
REMARK INTER:                  -3.172
REMARK INTRA:                  -0.045
REMARK UNBOUND:                -0.041
REMARK  Name = 
REMARK  3 active torsions:
REMARK  status: ('A' for Active; 'I' for Inactive)
REMARK    1  A    between atoms: C_1  and  O_2
REMARK    2  A    between atoms: O_2  and  C_3
REMARK    3  A    between atoms: C_8  and  O_9
REMARK                            x       y       z     vdW  Elec       q    Type
REMARK                         _______ _______ _______ _____ _____    ______ ____
ROOT
ATOM      1  C   UNL     1       6.447  12.701   7.974  0.00  0.00    +0.000 A 
ATOM      2  C   UNL     1       7.147  13.327   9.004  0.00  0.00    +0.000 A 
ATOM      3  C   UNL     1       6.673  13.251  10.319  0.00  0.00    +0.000 A 
ATOM      4  C   UNL     1       5.501  12.551  10.610  0.00  0.00    +0.000 A 
ATOM      5  C   UNL     1       4.796  11.922   9.586  0.00  0.00    +0.000 A 
ATOM      6  C   UNL     1       5.273  12.004   8.284  0.00  0.00    +0.000 A 
ENDROOT
BRANCH   1   8
ATOM      7  C   UNL     1       7.258  13.923   6.104  0.00  0.00    +0.000 C 
ATOM      8  O   UNL     1       6.792  12.693   6.646  0.00  0.00    +0.000 OA
ENDBRANCH   1   8
BRANCH   6   9
ATOM      9  O   UNL     1       4.563  11.378   7.295  0.00  0.00    +0.000 OA
ATOM     10  H   UNL     1       4.750  11.895   6.488  0.00  0.00    +0.000 HD
ENDBRANCH   6   9
TORSDOF 2
ENDMDL
MODEL 7
REMARK VINA RESULT:    -2.815      3.892      5.650
REMARK INTER + INTRA:          -3.103
REMARK INTER:                  -3.056
REMARK INTRA:                  -0.047
REMARK UNBOUND:                -0.041
REMARK  Name = 
REMARK  3 active torsions:
REMARK  status: ('A' for Active; 'I' for Inactive)
REMARK    1  A    between atoms: C_1  and  O_2
REMARK    2  A    between atoms: O_2  and  C_3
REMARK    3  A    between atoms: C_8  and  O_9
REMARK                            x       y       z     vdW  Elec       q    Type
REMARK                         _______ _______ _______ _____ _____    ______ ____
ROOT
ATOM      1  C   UNL     1       6.899  14.886   5.314  0.00  0.00    +0.000 A 
ATOM      2  C   UNL     1       6.208  15.747   6.166  0.00  0.00    +0.000 A 
ATOM      3  C   UNL     1       5.890  15.337   7.467  0.00  0.00    +0.000 A 
ATOM      4  C   UNL     1       6.258  14.069   7.919  0.00  0.00    +0.000 A 
ATOM      5  C   UNL     1       6.949  13.203   7.074  0.00  0.00    +0.000 A 
ATOM      6  C   UNL     1       7.260  13.618   5.785  0.00  0.00    +0.000 A 
ENDROOT
BRANCH   1   8
ATOM      7  C   UNL     1       6.292  15.755   3.187  0.00  0.00    +0.000 C 
ATOM      8  O   UNL     1       7.274  15.153   4.021  0.00  0.00    +0.000 OA
ENDBRANCH   1   8
BRANCH   6   9
ATOM      9  O   UNL     1       7.938  12.750   4.972  0.00  0.00    +0.000 OA
ATOM     10  H   UNL     1       7.961  11.910   5.470  0.00  0.00    +0.000 HD
ENDBRANCH   6   9
TORSDOF 2
ENDMDL
MODEL 8
REMARK VINA RESULT:    -2.806      9.139     10.482
REMARK INTER + INTRA:          -3.093
REMARK INTER:                  -3.046
REMARK INTRA:                  -0.047
REMARK UNBOUND:                -0.041
REMARK  Name = 
REMARK  3 active torsions:
REMARK  status: ('A' for Active; 'I' for Inactive)
REMARK    1  A    between atoms: C_1  and  O_2
REMARK    2  A    between atoms: O_2  and  C_3
REMARK    3  A    between atoms: C_8  and  O_9
REMARK                            x       y       z     vdW  Elec       q    Type
REMARK                         _______ _______ _______ _____ _____    ______ ____
ROOT
ATOM      1  C   UNL     1       5.953  17.205   0.965  0.00  0.00    +0.000 A 
ATOM      2  C   UNL     1       5.414  18.171   0.117  0.00  0.00    +0.000 A 
ATOM      3  C   UNL     1       4.159  17.966  -0.470  0.00  0.00    +0.000 A 
ATOM      4  C   UNL     1       3.440  16.797  -0.213  0.00  0.00    +0.000 A 
ATOM      5  C   UNL     1       3.972  15.827   0.634  0.00  0.00    +0.000 A 
ATOM      6  C   UNL     1       5.218  16.039   1.211  0.00  0.00    +0.000 A 
ENDROOT
BRANCH   1   8
ATOM      7  C   UNL     1       8.280  17.660   0.812  0.00  0.00    +0.000 C 
ATOM      8  O   UNL     1       7.165  17.272   1.604  0.00  0.00    +0.000 OA
ENDBRANCH   1   8
BRANCH   6   9
ATOM      9  O   UNL     1       5.719  15.071   2.039  0.00  0.00    +0.000 OA
ATOM     10  H   UNL     1       5.204  14.270   1.826  0.00  0.00    +0.000 HD
ENDBRANCH   6   9
TORSDOF 2
ENDMDL
MODEL 9
REMARK VINA RESULT:    -2.743      5.993      7.506
REMARK INTER + INTRA:          -3.025
REMARK INTER:                  -2.973
REMARK INTRA:                  -0.052
REMARK UNBOUND:                -0.041
REMARK  Name = 
REMARK  3 active torsions:
REMARK  status: ('A' for Active; 'I' for Inactive)
REMARK    1  A    between atoms: C_1  and  O_2
REMARK    2  A    between atoms: O_2  and  C_3
REMARK    3  A    between atoms: C_8  and  O_9
REMARK                            x       y       z     vdW  Elec       q    Type
REMARK                         _______ _______ _______ _____ _____    ______ ____
ROOT
ATOM      1  C   UNL     1       7.864  15.798   3.989  0.00  0.00    +0.000 A 
ATOM      2  C   UNL     1       8.448  16.940   3.443  0.00  0.00    +0.000 A 
ATOM      3  C   UNL     1       7.811  17.621   2.398  0.00  0.00    +0.000 A 
ATOM      4  C   UNL     1       6.592  17.164   1.895  0.00  0.00    +0.000 A 
ATOM      5  C   UNL     1       6.001  16.024   2.436  0.00  0.00    +0.000 A 
ATOM      6  C   UNL     1       6.640  15.355   3.472  0.00  0.00    +0.000 A 
ENDROOT
BRANCH   1   8
ATOM      7  C   UNL     1       8.382  15.629   6.302  0.00  0.00    +0.000 C 
ATOM      8  O   UNL     1       8.373  15.035   5.009  0.00  0.00    +0.000 OA
ENDBRANCH   1   8
BRANCH   6   9
ATOM      9  O   UNL     1       6.040  14.237   3.986  0.00  0.00    +0.000 OA
ATOM     10  H   UNL     1       5.919  13.645   3.219  0.00  0.00    +0.000 HD
ENDBRANCH   6   9
TORSDOF 2
ENDMDL
