MODEL 1
REMARK VINA RESULT:    -3.515      0.000      0.000
REMARK INTER + INTRA:          -3.867
REMARK INTER:                  -3.823
REMARK INTRA:                  -0.044
REMARK UNBOUND:                -0.044
REMARK  Name = 
REMARK  3 active torsions:
REMARK  status: ('A' for Active; 'I' for Inactive)
REMARK    1  A    between atoms: C_1  and  O_2
REMARK    2  A    between atoms: O_2  and  C_3
REMARK    3  A    between atoms: C_8  and  O_9
REMARK                            x       y       z     vdW  Elec       q    Type
REMARK                         _______ _______ _______ _____ _____    ______ ____
ROOT
ATOM      1  C   UNL     1      19.492   9.248   4.652  0.00  0.00    +0.000 A 
ATOM      2  C   UNL     1      19.654   8.182   5.536  0.00  0.00    +0.000 A 
ATOM      3  C   UNL     1      20.851   7.455   5.543  0.00  0.00    +0.000 A 
ATOM      4  C   UNL     1      21.886   7.787   4.667  0.00  0.00    +0.000 A 
ATOM      5  C   UNL     1      21.732   8.851   3.781  0.00  0.00    +0.000 A 
ATOM      6  C   UNL     1      20.541   9.567   3.782  0.00  0.00    +0.000 A 
ENDROOT
BRANCH   1   8
ATOM      7  C   UNL     1      17.120   9.391   4.635  0.00  0.00    +0.000 C 
ATOM      8  O   UNL     1      18.380  10.043   4.536  0.00  0.00    +0.000 OA
ENDBRANCH   1   8
BRANCH   6   9
ATOM      9  O   UNL     1      20.413  10.608   2.901  0.00  0.00    +0.000 OA
ATOM     10  H   UNL     1      20.417  10.190   2.019  0.00  0.00    +0.000 HD
ENDBRANCH   6   9
TORSDOF 2
ENDMDL
MODEL 2
REMARK VINA RESULT:    -3.487      1.492      3.070
REMARK INTER + INTRA:          -3.837
REMARK INTER:                  -3.799
REMARK INTRA:                  -0.038
REMARK UNBOUND:                -0.044
REMARK  Name = 
REMARK  3 active torsions:
REMARK  status: ('A' for Active; 'I' for Inactive)
REMARK    1  A    between atoms: C_1  and  O_2
REMARK    2  A    between atoms: O_2  and  C_3
REMARK    3  A    between atoms: C_8  and  O_9
REMARK                            x       y       z     vdW  Elec       q    Type
REMARK                         _______ _______ _______ _____ _____    ______ ____
ROOT
ATOM      1  C   UNL     1      19.238   9.935   4.895  0.00  0.00    +0.000 A 
ATOM      2  C   UNL     1      20.164   8.905   5.052  0.00  0.00    +0.000 A 
ATOM      3  C   UNL     1      19.744   7.649   5.507  0.00  0.00    +0.000 A 
ATOM      4  C   UNL     1      18.400   7.419   5.806  0.00  0.00    +0.000 A 
ATOM      5  C   UNL     1      17.468   8.442   5.652  0.00  0.00    +0.000 A 
ATOM      6  C   UNL     1      17.894   9.685   5.200  0.00  0.00    +0.000 A 
ENDROOT
BRANCH   1   8
ATOM      7  C   UNL     1      20.808  11.439   3.934  0.00  0.00    +0.000 C 
ATOM      8  O   UNL     1      19.506  11.209   4.461  0.00  0.00    +0.000 OA
ENDBRANCH   1   8
BRANCH   6   9
ATOM      9  O   UNL     1      16.960  10.676   5.056  0.00  0.00    +0.000 OA
ATOM     10  H   UNL     1      16.110  10.250   5.278  0.00  0.00    +0.000 HD
ENDBRANCH   6   9
TORSDOF 2
ENDMDL
MODEL 3
REMARK VINA RESULT:    -3.443     13.414     14.725
REMARK INTER + INTRA:          -3.789
REMARK INTER:                  -3.751
REMARK INTRA:                  -0.037
REMARK UNBOUND:                -0.044
REMARK  Name = 
REMARK  3 active torsions:
REMARK  status: ('A' for Active; 'I' for Inactive)
REMARK    1  A    between atoms: C_1  and  O_2
REMARK    2  A    between atoms: O_2  and  C_3
REMARK    3  A    between atoms: C_8  and  O_9
REMARK                            x       y       z     vdW  Elec       q    Type
REMARK                         _______ _______ _______ _____ _____    ______ ____
ROOT
ATOM      1  C   UNL     1      20.075  16.282  -7.661  0.00  0.00    +0.000 A 
ATOM      2  C   UNL     1      19.243  16.155  -6.550  0.00  0.00    +0.000 A 
ATOM      3  C   UNL     1      17.884  16.478  -6.652  0.00  0.00    +0.000 A 
ATOM      4  C   UNL     1      17.353  16.929  -7.862  0.00  0.00    +0.000 A 
ATOM      5  C   UNL     1      18.178  17.058  -8.978  0.00  0.00    +0.000 A 
ATOM      6  C   UNL     1      19.525  16.736  -8.867  0.00  0.00    +0.000 A 
ENDROOT
BRANCH   1   8
ATOM      7  C   UNL     1      21.995  15.471  -6.520  0.00  0.00    +0.000 C 
ATOM      8  O   UNL     1      21.418  16.004  -7.705  0.00  0.00    +0.000 OA
ENDBRANCH   1   8
BRANCH   6   9
ATOM      9  O   UNL     1      20.315  16.871  -9.976  0.00  0.00    +0.000 OA
ATOM     10  H   UNL     1      20.965  16.145  -9.909  0.00  0.00    +0.000 HD
ENDBRANCH   6   9
TORSDOF 2
ENDMDL
MODEL 4
REMARK VINA RESULT:    -3.328     12.636     13.985
REMARK INTER + INTRA:          -3.664
REMARK INTER:                  -3.624
REMARK INTRA:                  -0.040
REMARK UNBOUND:                -0.044
REMARK  Name = 
REMARK  3 active torsions:
REMARK  status: ('A' for Active; 'I' for Inactive)
REMARK    1  A    between atoms: C_1  and  O_2
REMARK    2  A    between atoms: O_2  and  C_3
REMARK    3  A    between atoms: C_8  and  O_9
REMARK                            x       y       z     vdW  Elec       q    Type
REMARK                         _______ _______ _______ _____ _____    ______ ____
ROOT
ATOM      1  C   UNL     1      20.359  15.808  -6.942  0.00  0.00    +0.000 A 
ATOM      2  C   UNL     1      20.497  16.692  -8.011  0.00  0.00    +0.000 A 
ATOM      3  C   UNL     1      19.375  17.058  -8.765  0.00  0.00    +0.000 A 
ATOM      4  C   UNL     1      18.115  16.543  -8.455  0.00  0.00    +0.000 A 
ATOM      5  C   UNL     1      17.969  15.659  -7.388  0.00  0.00    +0.000 A 
ATOM      6  C   UNL     1      19.088  15.302  -6.646  0.00  0.00    +0.000 A 
ENDROOT
BRANCH   1   8
ATOM      7  C   UNL     1      22.672  15.327  -6.684  0.00  0.00    +0.000 C 
ATOM      8  O   UNL     1      21.366  15.364  -6.122  0.00  0.00    +0.000 OA
ENDBRANCH   1   8
BRANCH   6   9
ATOM      9  O   UNL     1      18.920  14.432  -5.602  0.00  0.00    +0.000 OA
ATOM     10  H   UNL     1      18.490  14.961  -4.903  0.00  0.00    +0.000 HD
ENDBRANCH   6   9
TORSDOF 2
ENDMDL
MODEL 5
REMARK VINA RESULT:    -3.246      2.020      3.518
REMARK INTER + INTRA:          -3.575
REMARK INTER:                  -3.528
REMARK INTRA:                  -0.047
REMARK UNBOUND:                -0.044
REMARK  Name = 
REMARK  3 active torsions:
REMARK  status: ('A' for Active; 'I' for Inactive)
REMARK    1  A    between atoms: C_1  and  O_2
REMARK    2  A    between atoms: O_2  and  C_3
REMARK    3  A    between atoms: C_8  and  O_9
REMARK                            x       y       z     vdW  Elec       q    Type
REMARK                         _______ _______ _______ _____ _____    ______ ____
ROOT
ATOM      1  C   UNL     1      20.961   8.707   4.438  0.00  0.00    +0.000 A 
ATOM      2  C   UNL     1      19.896   9.605   4.500  0.00  0.00    +0.000 A 
ATOM      3  C   UNL     1      18.725   9.255   5.184  0.00  0.00    +0.000 A 
ATOM      4  C   UNL     1      18.614   8.010   5.806  0.00  0.00    +0.000 A 
ATOM      5  C   UNL     1      19.675   7.108   5.750  0.00  0.00    +0.000 A 
ATOM      6  C   UNL     1      20.832   7.464   5.069  0.00  0.00    +0.000 A 
ENDROOT
BRANCH   1   8
ATOM      7  C   UNL     1      22.100   9.448   2.489  0.00  0.00    +0.000 C 
ATOM      8  O   UNL     1      22.161   8.915   3.806  0.00  0.00    +0.000 OA
ENDBRANCH   1   8
BRANCH   6   9
ATOM      9  O   UNL     1      21.860   6.561   5.027  0.00  0.00    +0.000 OA
ATOM     10  H   UNL     1      22.644   7.088   4.782  0.00  0.00    +0.000 HD
ENDBRANCH   6   9
TORSDOF 2
ENDMDL
MODEL 6
REMARK VINA RESULT:    -3.245     12.375     13.574
REMARK INTER + INTRA:          -3.574
REMARK INTER:                  -3.521
REMARK INTRA:                  -0.052
REMARK UNBOUND:                -0.044
REMARK  Name = 
REMARK  3 active torsions:
REMARK  status: ('A' for Active; 'I' for Inactive)
REMARK    1  A    between atoms: C_1  and  O_2
REMARK    2  A    between atoms: O_2  and  C_3
REMARK    3  A    between atoms: C_8  and  O_9
REMARK                            x       y       z     vdW  Elec       q    Type
REMARK                         _______ _______ _______ _____ _____    ______ ____
ROOT
ATOM      1  C   UNL     1      18.863  15.809  -6.274  0.00  0.00    +0.000 A 
ATOM      2  C   UNL     1      17.739  16.445  -6.799  0.00  0.00    +0.000 A 
ATOM      3  C   UNL     1      17.806  17.058  -8.057  0.00  0.00    +0.000 A 
ATOM      4  C   UNL     1      18.993  17.038  -8.792  0.00  0.00    +0.000 A 
ATOM      5  C   UNL     1      20.120  16.403  -8.274  0.00  0.00    +0.000 A 
ATOM      6  C   UNL     1      20.045  15.799  -7.025  0.00  0.00    +0.000 A 
ENDROOT
BRANCH   1   8
ATOM      7  C   UNL     1      18.864  15.997  -3.905  0.00  0.00    +0.000 C 
ATOM      8  O   UNL     1      18.942  15.172  -5.061  0.00  0.00    +0.000 OA
ENDBRANCH   1   8
BRANCH   6   9
ATOM      9  O   UNL     1      21.166  15.182  -6.537  0.00  0.00    +0.000 OA
ATOM     10  H   UNL     1      21.046  15.180  -5.568  0.00  0.00    +0.000 HD
ENDBRANCH   6   9
TORSDOF 2
ENDMDL
