MODEL 1
REMARK VINA RESULT:    -6.486      0.000      0.000
REMARK INTER + INTRA:          -8.972
REMARK INTER:                  -8.761
REMARK INTRA:                  -0.211
REMARK UNBOUND:                -0.211
REMARK  Name = 
REMARK  10 active torsions:
REMARK  status: ('A' for Active; 'I' for Inactive)
REMARK    1  A    between atoms: C_1  and  C_2
REMARK    2  A    between atoms: C_5  and  N_8
REMARK    3  A    between atoms: N_8  and  C_9
REMARK    4  A    between atoms: N_8  and  C_13
REMARK    5  A    between atoms: C_9  and  C_10
REMARK    6  A    between atoms: C_10  and  C_11
REMARK    7  A    between atoms: C_10  and  O_12
REMARK    8  A    between atoms: C_13  and  C_14
REMARK    9  A    between atoms: C_14  and  C_15
REMARK   10  A    between atoms: C_14  and  O_16
REMARK                            x       y       z     vdW  Elec       q    Type
REMARK                         _______ _______ _______ _____ _____    ______ ____
ROOT
ATOM      1  N   UNL     1       9.400   9.795   4.332  0.00  0.00    +0.000 N 
ENDROOT
BRANCH   1   6
ATOM      2  C   UNL     1       9.310  12.757   9.287  0.00  0.00    +0.000 C 
ATOM      3  C   UNL     1       9.332  11.967   8.014  0.00  0.00    +0.000 A 
ATOM      4  C   UNL     1      10.536  11.582   7.433  0.00  0.00    +0.000 A 
ATOM      5  C   UNL     1      10.551  10.868   6.224  0.00  0.00    +0.000 A 
ATOM      6  C   UNL     1       9.378  10.524   5.528  0.00  0.00    +0.000 A 
ATOM      7  C   UNL     1       8.180  10.927   6.145  0.00  0.00    +0.000 A 
ATOM      8  C   UNL     1       8.150  11.640   7.355  0.00  0.00    +0.000 A 
ENDBRANCH   1   6
BRANCH   1   9
ATOM      9  C   UNL     1       8.402   8.723   4.097  0.00  0.00    +0.000 C 
BRANCH   9  10
ATOM     10  C   UNL     1       8.777   7.805   2.908  0.00  0.00    +0.000 C 
ATOM     11  C   UNL     1       8.467   6.347   3.227  0.00  0.00    +0.000 C 
BRANCH  10  12
ATOM     12  O   UNL     1       8.047   8.167   1.728  0.00  0.00    +0.000 OA
ATOM     13  H   UNL     1       7.623   7.365   1.378  0.00  0.00    +0.000 HD
ENDBRANCH  10  12
ENDBRANCH   9  10
ENDBRANCH   1   9
BRANCH   1  14
ATOM     14  C   UNL     1      10.641   9.681   3.523  0.00  0.00    +0.000 C 
BRANCH  14  15
ATOM     15  C   UNL     1      10.562  10.503   2.215  0.00  0.00    +0.000 C 
ATOM     16  C   UNL     1       9.610  11.690   2.308  0.00  0.00    +0.000 C 
BRANCH  15  17
ATOM     17  O   UNL     1      11.843  10.995   1.823  0.00  0.00    +0.000 OA
ATOM     18  H   UNL     1      11.674  11.895   1.479  0.00  0.00    +0.000 HD
ENDBRANCH  15  17
ENDBRANCH  14  15
ENDBRANCH   1  14
TORSDOF 7
ENDMDL
MODEL 2
REMARK VINA RESULT:    -6.153      2.763      5.650
REMARK INTER + INTRA:          -8.523
REMARK INTER:                  -8.325
REMARK INTRA:                  -0.197
REMARK UNBOUND:                -0.211
REMARK  Name = 
REMARK  10 active torsions:
REMARK  status: ('A' for Active; 'I' for Inactive)
REMARK    1  A    between atoms: C_1  and  C_2
REMARK    2  A    between atoms: C_5  and  N_8
REMARK    3  A    between atoms: N_8  and  C_9
REMARK    4  A    between atoms: N_8  and  C_13
REMARK    5  A    between atoms: C_9  and  C_10
REMARK    6  A    between atoms: C_10  and  C_11
REMARK    7  A    between atoms: C_10  and  O_12
REMARK    8  A    between atoms: C_13  and  C_14
REMARK    9  A    between atoms: C_14  and  C_15
REMARK   10  A    between atoms: C_14  and  O_16
REMARK                            x       y       z     vdW  Elec       q    Type
REMARK                         _______ _______ _______ _____ _____    ______ ____
ROOT
ATOM      1  N   UNL     1       9.615  10.752   6.476  0.00  0.00    +0.000 N 
ENDROOT
BRANCH   1   6
ATOM      2  C   UNL     1       8.753   7.522   1.770  0.00  0.00    +0.000 C 
ATOM      3  C   UNL     1       8.992   8.343   3.000  0.00  0.00    +0.000 A 
ATOM      4  C   UNL     1       8.157   8.231   4.107  0.00  0.00    +0.000 A 
ATOM      5  C   UNL     1       8.368   9.024   5.246  0.00  0.00    +0.000 A 
ATOM      6  C   UNL     1       9.399   9.978   5.329  0.00  0.00    +0.000 A 
ATOM      7  C   UNL     1      10.224  10.063   4.193  0.00  0.00    +0.000 A 
ATOM      8  C   UNL     1      10.026   9.274   3.048  0.00  0.00    +0.000 A 
ENDBRANCH   1   6
BRANCH   1   9
ATOM      9  C   UNL     1       8.490  11.493   7.096  0.00  0.00    +0.000 C 
BRANCH   9  10
ATOM     10  C   UNL     1       7.595  10.593   7.983  0.00  0.00    +0.000 C 
ATOM     11  C   UNL     1       7.833  10.876   9.462  0.00  0.00    +0.000 C 
BRANCH  10  12
ATOM     12  O   UNL     1       6.206  10.817   7.706  0.00  0.00    +0.000 OA
ATOM     13  H   UNL     1       5.838   9.999   7.332  0.00  0.00    +0.000 HD
ENDBRANCH  10  12
ENDBRANCH   9  10
ENDBRANCH   1   9
BRANCH   1  14
ATOM     14  C   UNL     1      10.965  11.276   6.807  0.00  0.00    +0.000 C 
BRANCH  14  15
ATOM     15  C   UNL     1      11.043  11.819   8.254  0.00  0.00    +0.000 C 
ATOM     16  C   UNL     1      11.748  10.867   9.214  0.00  0.00    +0.000 C 
BRANCH  15  17
ATOM     17  O   UNL     1      11.711  13.078   8.310  0.00  0.00    +0.000 OA
ATOM     18  H   UNL     1      11.500  13.437   9.195  0.00  0.00    +0.000 HD
ENDBRANCH  15  17
ENDBRANCH  14  15
ENDBRANCH   1  14
TORSDOF 7
ENDMDL
MODEL 3
REMARK VINA RESULT:    -6.139      2.736      6.135
REMARK INTER + INTRA:          -8.503
REMARK INTER:                  -8.690
REMARK INTRA:                   0.187
REMARK UNBOUND:                -0.211
REMARK  Name = 
REMARK  10 active torsions:
REMARK  status: ('A' for Active; 'I' for Inactive)
REMARK    1  A    between atoms: C_1  and  C_2
REMARK    2  A    between atoms: C_5  and  N_8
REMARK    3  A    between atoms: N_8  and  C_9
REMARK    4  A    between atoms: N_8  and  C_13
REMARK    5  A    between atoms: C_9  and  C_10
REMARK    6  A    between atoms: C_10  and  C_11
REMARK    7  A    between atoms: C_10  and  O_12
REMARK    8  A    between atoms: C_13  and  C_14
REMARK    9  A    between atoms: C_14  and  C_15
REMARK   10  A    between atoms: C_14  and  O_16
REMARK                            x       y       z     vdW  Elec       q    Type
REMARK                         _______ _______ _______ _____ _____    ______ ____
ROOT
ATOM      1  N   UNL     1       9.656  11.103   6.447  0.00  0.00    +0.000 N 
ENDROOT
BRANCH   1   6
ATOM      2  C   UNL     1       8.812   7.487   2.027  0.00  0.00    +0.000 C 
ATOM      3  C   UNL     1       9.047   8.409   3.184  0.00  0.00    +0.000 A 
ATOM      4  C   UNL     1       8.248   8.347   4.321  0.00  0.00    +0.000 A 
ATOM      5  C   UNL     1       8.454   9.234   5.390  0.00  0.00    +0.000 A 
ATOM      6  C   UNL     1       9.443  10.234   5.369  0.00  0.00    +0.000 A 
ATOM      7  C   UNL     1      10.233  10.267   4.205  0.00  0.00    +0.000 A 
ATOM      8  C   UNL     1      10.039   9.384   3.130  0.00  0.00    +0.000 A 
ENDBRANCH   1   6
BRANCH   1   9
ATOM      9  C   UNL     1      10.970  11.128   7.134  0.00  0.00    +0.000 C 
BRANCH   9  10
ATOM     10  C   UNL     1      10.963  12.004   8.411  0.00  0.00    +0.000 C 
ATOM     11  C   UNL     1      11.486  11.222   9.610  0.00  0.00    +0.000 C 
BRANCH  10  12
ATOM     12  O   UNL     1      11.787  13.165   8.243  0.00  0.00    +0.000 OA
ATOM     13  H   UNL     1      12.092  13.188   7.321  0.00  0.00    +0.000 HD
ENDBRANCH  10  12
ENDBRANCH   9  10
ENDBRANCH   1   9
BRANCH   1  14
ATOM     14  C   UNL     1       8.520  11.620   7.253  0.00  0.00    +0.000 C 
BRANCH  14  15
ATOM     15  C   UNL     1       7.630  10.482   7.807  0.00  0.00    +0.000 C 
ATOM     16  C   UNL     1       7.931  10.140   9.262  0.00  0.00    +0.000 C 
BRANCH  15  17
ATOM     17  O   UNL     1       6.243  10.800   7.706  0.00  0.00    +0.000 OA
ATOM     18  H   UNL     1       5.872  10.125   7.104  0.00  0.00    +0.000 HD
ENDBRANCH  15  17
ENDBRANCH  14  15
ENDBRANCH   1  14
TORSDOF 7
ENDMDL
MODEL 4
REMARK VINA RESULT:    -6.131      0.331      3.221
REMARK INTER + INTRA:          -8.492
REMARK INTER:                  -8.513
REMARK INTRA:                   0.021
REMARK UNBOUND:                -0.211
REMARK  Name = 
REMARK  10 active torsions:
REMARK  status: ('A' for Active; 'I' for Inactive)
REMARK    1  A    between atoms: C_1  and  C_2
REMARK    2  A    between atoms: C_5  and  N_8
REMARK    3  A    between atoms: N_8  and  C_9
REMARK    4  A    between atoms: N_8  and  C_13
REMARK    5  A    between atoms: C_9  and  C_10
REMARK    6  A    between atoms: C_10  and  C_11
REMARK    7  A    between atoms: C_10  and  O_12
REMARK    8  A    between atoms: C_13  and  C_14
REMARK    9  A    between atoms: C_14  and  C_15
REMARK   10  A    between atoms: C_14  and  O_16
REMARK                            x       y       z     vdW  Elec       q    Type
REMARK                         _______ _______ _______ _____ _____    ______ ____
ROOT
ATOM      1  N   UNL     1       9.493   9.491   4.351  0.00  0.00    +0.000 N 
ENDROOT
BRANCH   1   6
ATOM      2  C   UNL     1       8.890  12.638   9.153  0.00  0.00    +0.000 C 
ATOM      3  C   UNL     1       9.044  11.842   7.893  0.00  0.00    +0.000 A 
ATOM      4  C   UNL     1       7.940  11.273   7.268  0.00  0.00    +0.000 A 
ATOM      5  C   UNL     1       8.094  10.503   6.104  0.00  0.00    +0.000 A 
ATOM      6  C   UNL     1       9.348  10.244   5.523  0.00  0.00    +0.000 A 
ATOM      7  C   UNL     1      10.442  10.837   6.180  0.00  0.00    +0.000 A 
ATOM      8  C   UNL     1      10.302  11.612   7.343  0.00  0.00    +0.000 A 
ENDBRANCH   1   6
BRANCH   1   9
ATOM      9  C   UNL     1      10.666   9.705   3.470  0.00  0.00    +0.000 C 
BRANCH   9  10
ATOM     10  C   UNL     1      10.346  10.606   2.252  0.00  0.00    +0.000 C 
ATOM     11  C   UNL     1       9.500  11.803   2.667  0.00  0.00    +0.000 C 
BRANCH  10  12
ATOM     12  O   UNL     1      11.549  11.100   1.647  0.00  0.00    +0.000 OA
ATOM     13  H   UNL     1      11.944  11.751   2.250  0.00  0.00    +0.000 HD
ENDBRANCH  10  12
ENDBRANCH   9  10
ENDBRANCH   1   9
BRANCH   1  14
ATOM     14  C   UNL     1       8.319   8.870   3.687  0.00  0.00    +0.000 C 
BRANCH  14  15
ATOM     15  C   UNL     1       8.725   7.708   2.748  0.00  0.00    +0.000 C 
ATOM     16  C   UNL     1       8.461   6.332   3.348  0.00  0.00    +0.000 C 
BRANCH  15  17
ATOM     17  O   UNL     1       8.047   7.781   1.495  0.00  0.00    +0.000 OA
ATOM     18  H   UNL     1       8.106   8.722   1.230  0.00  0.00    +0.000 HD
ENDBRANCH  15  17
ENDBRANCH  14  15
ENDBRANCH   1  14
TORSDOF 7
ENDMDL
MODEL 5
REMARK VINA RESULT:    -5.493      2.980      6.039
REMARK INTER + INTRA:          -7.630
REMARK INTER:                  -7.141
REMARK INTRA:                  -0.489
REMARK UNBOUND:                -0.211
REMARK  Name = 
REMARK  10 active torsions:
REMARK  status: ('A' for Active; 'I' for Inactive)
REMARK    1  A    between atoms: C_1  and  C_2
REMARK    2  A    between atoms: C_5  and  N_8
REMARK    3  A    between atoms: N_8  and  C_9
REMARK    4  A    between atoms: N_8  and  C_13
REMARK    5  A    between atoms: C_9  and  C_10
REMARK    6  A    between atoms: C_10  and  C_11
REMARK    7  A    between atoms: C_10  and  O_12
REMARK    8  A    between atoms: C_13  and  C_14
REMARK    9  A    between atoms: C_14  and  C_15
REMARK   10  A    between atoms: C_14  and  O_16
REMARK                            x       y       z     vdW  Elec       q    Type
REMARK                         _______ _______ _______ _____ _____    ______ ____
ROOT
ATOM      1  N   UNL     1      10.045  11.110   6.923  0.00  0.00    +0.000 N 
ENDROOT
BRANCH   1   6
ATOM      2  C   UNL     1       8.814   7.869   2.306  0.00  0.00    +0.000 C 
ATOM      3  C   UNL     1       9.120   8.729   3.494  0.00  0.00    +0.000 A 
ATOM      4  C   UNL     1      10.262   9.522   3.527  0.00  0.00    +0.000 A 
ATOM      5  C   UNL     1      10.559  10.303   4.656  0.00  0.00    +0.000 A 
ATOM      6  C   UNL     1       9.753  10.314   5.808  0.00  0.00    +0.000 A 
ATOM      7  C   UNL     1       8.606   9.502   5.739  0.00  0.00    +0.000 A 
ATOM      8  C   UNL     1       8.295   8.718   4.615  0.00  0.00    +0.000 A 
ENDBRANCH   1   6
BRANCH   1   9
ATOM      9  C   UNL     1      11.004  10.632   7.947  0.00  0.00    +0.000 C 
BRANCH   9  10
ATOM     10  C   UNL     1      12.436  11.179   7.730  0.00  0.00    +0.000 C 
ATOM     11  C   UNL     1      12.822  12.151   8.838  0.00  0.00    +0.000 C 
BRANCH  10  12
ATOM     12  O   UNL     1      13.398  10.115   7.717  0.00  0.00    +0.000 OA
ATOM     13  H   UNL     1      14.008  10.251   8.461  0.00  0.00    +0.000 HD
ENDBRANCH  10  12
ENDBRANCH   9  10
ENDBRANCH   1   9
BRANCH   1  14
ATOM     14  C   UNL     1       9.096  12.151   7.394  0.00  0.00    +0.000 C 
BRANCH  14  15
ATOM     15  C   UNL     1       9.132  12.321   8.932  0.00  0.00    +0.000 C 
ATOM     16  C   UNL     1       9.491  13.736   9.371  0.00  0.00    +0.000 C 
BRANCH  15  17
ATOM     17  O   UNL     1       7.883  11.977   9.530  0.00  0.00    +0.000 OA
ATOM     18  H   UNL     1       7.584  11.179   9.049  0.00  0.00    +0.000 HD
ENDBRANCH  15  17
ENDBRANCH  14  15
ENDBRANCH   1  14
TORSDOF 7
ENDMDL
MODEL 6
REMARK VINA RESULT:    -5.050      3.013      5.438
REMARK INTER + INTRA:          -7.032
REMARK INTER:                  -6.579
REMARK INTRA:                  -0.452
REMARK UNBOUND:                -0.211
REMARK  Name = 
REMARK  10 active torsions:
REMARK  status: ('A' for Active; 'I' for Inactive)
REMARK    1  A    between atoms: C_1  and  C_2
REMARK    2  A    between atoms: C_5  and  N_8
REMARK    3  A    between atoms: N_8  and  C_9
REMARK    4  A    between atoms: N_8  and  C_13
REMARK    5  A    between atoms: C_9  and  C_10
REMARK    6  A    between atoms: C_10  and  C_11
REMARK    7  A    between atoms: C_10  and  O_12
REMARK    8  A    between atoms: C_13  and  C_14
REMARK    9  A    between atoms: C_14  and  C_15
REMARK   10  A    between atoms: C_14  and  O_16
REMARK                            x       y       z     vdW  Elec       q    Type
REMARK                         _______ _______ _______ _____ _____    ______ ____
ROOT
ATOM      1  N   UNL     1       9.886  11.608   7.607  0.00  0.00    +0.000 N 
ENDROOT
BRANCH   1   6
ATOM      2  C   UNL     1       9.616  10.512   1.945  0.00  0.00    +0.000 C 
ATOM      3  C   UNL     1       9.667  10.781   3.418  0.00  0.00    +0.000 A 
ATOM      4  C   UNL     1       8.963  11.843   3.975  0.00  0.00    +0.000 A 
ATOM      5  C   UNL     1       9.038  12.108   5.352  0.00  0.00    +0.000 A 
ATOM      6  C   UNL     1       9.831  11.349   6.231  0.00  0.00    +0.000 A 
ATOM      7  C   UNL     1      10.528  10.283   5.634  0.00  0.00    +0.000 A 
ATOM      8  C   UNL     1      10.460  10.005   4.259  0.00  0.00    +0.000 A 
ENDBRANCH   1   6
BRANCH   1   9
ATOM      9  C   UNL     1       8.640  11.631   8.409  0.00  0.00    +0.000 C 
BRANCH   9  10
ATOM     10  C   UNL     1       7.821  10.323   8.285  0.00  0.00    +0.000 C 
ATOM     11  C   UNL     1       7.569   9.705   9.655  0.00  0.00    +0.000 C 
BRANCH  10  12
ATOM     12  O   UNL     1       6.550  10.568   7.667  0.00  0.00    +0.000 OA
ATOM     13  H   UNL     1       6.653  10.450   6.708  0.00  0.00    +0.000 HD
ENDBRANCH  10  12
ENDBRANCH   9  10
ENDBRANCH   1   9
BRANCH   1  14
ATOM     14  C   UNL     1      11.028  12.345   8.205  0.00  0.00    +0.000 C 
BRANCH  14  15
ATOM     15  C   UNL     1      12.035  11.398   8.902  0.00  0.00    +0.000 C 
ATOM     16  C   UNL     1      11.403  10.094   9.374  0.00  0.00    +0.000 C 
BRANCH  15  17
ATOM     17  O   UNL     1      13.131  11.074   8.048  0.00  0.00    +0.000 OA
ATOM     18  H   UNL     1      13.092  10.101   7.944  0.00  0.00    +0.000 HD
ENDBRANCH  15  17
ENDBRANCH  14  15
ENDBRANCH   1  14
TORSDOF 7
ENDMDL
MODEL 7
REMARK VINA RESULT:    -4.955     12.299     13.469
REMARK INTER + INTRA:          -6.904
REMARK INTER:                  -6.476
REMARK INTRA:                  -0.428
REMARK UNBOUND:                -0.211
REMARK  Name = 
REMARK  10 active torsions:
REMARK  status: ('A' for Active; 'I' for Inactive)
REMARK    1  A    between atoms: C_1  and  C_2
REMARK    2  A    between atoms: C_5  and  N_8
REMARK    3  A    between atoms: N_8  and  C_9
REMARK    4  A    between atoms: N_8  and  C_13
REMARK    5  A    between atoms: C_9  and  C_10
REMARK    6  A    between atoms: C_10  and  C_11
REMARK    7  A    between atoms: C_10  and  O_12
REMARK    8  A    between atoms: C_13  and  C_14
REMARK    9  A    between atoms: C_14  and  C_15
REMARK   10  A    between atoms: C_14  and  O_16
REMARK                            x       y       z     vdW  Elec       q    Type
REMARK                         _______ _______ _______ _____ _____    ______ ____
ROOT
ATOM      1  N   UNL     1      20.345  14.343   0.749  0.00  0.00    +0.000 N 
ENDROOT
BRANCH   1   6
ATOM      2  C   UNL     1      23.332  15.040   5.640  0.00  0.00    +0.000 C 
ATOM      3  C   UNL     1      22.556  14.884   4.368  0.00  0.00    +0.000 A 
ATOM      4  C   UNL     1      21.167  14.814   4.382  0.00  0.00    +0.000 A 
ATOM      5  C   UNL     1      20.447  14.638   3.189  0.00  0.00    +0.000 A 
ATOM      6  C   UNL     1      21.071  14.499   1.936  0.00  0.00    +0.000 A 
ATOM      7  C   UNL     1      22.475  14.577   1.959  0.00  0.00    +0.000 A 
ATOM      8  C   UNL     1      23.208  14.755   3.144  0.00  0.00    +0.000 A 
ENDBRANCH   1   6
BRANCH   1   9
ATOM      9  C   UNL     1      20.898  13.525  -0.358  0.00  0.00    +0.000 C 
BRANCH   9  10
ATOM     10  C   UNL     1      21.587  14.380  -1.449  0.00  0.00    +0.000 C 
ATOM     11  C   UNL     1      22.995  13.869  -1.733  0.00  0.00    +0.000 C 
BRANCH  10  12
ATOM     12  O   UNL     1      20.846  14.344  -2.676  0.00  0.00    +0.000 OA
ATOM     13  H   UNL     1      20.913  15.219  -3.095  0.00  0.00    +0.000 HD
ENDBRANCH  10  12
ENDBRANCH   9  10
ENDBRANCH   1   9
BRANCH   1  14
ATOM     14  C   UNL     1      19.317  15.334   0.339  0.00  0.00    +0.000 C 
BRANCH  14  15
ATOM     15  C   UNL     1      19.865  16.781   0.348  0.00  0.00    +0.000 C 
ATOM     16  C   UNL     1      19.536  17.555  -0.923  0.00  0.00    +0.000 C 
BRANCH  15  17
ATOM     17  O   UNL     1      19.368  17.526   1.459  0.00  0.00    +0.000 OA
ATOM     18  H   UNL     1      19.489  18.465   1.209  0.00  0.00    +0.000 HD
ENDBRANCH  15  17
ENDBRANCH  14  15
ENDBRANCH   1  14
TORSDOF 7
ENDMDL
MODEL 8
REMARK VINA RESULT:    -4.886      3.271      5.171
REMARK INTER + INTRA:          -6.811
REMARK INTER:                  -6.344
REMARK INTRA:                  -0.467
REMARK UNBOUND:                -0.211
REMARK  Name = 
REMARK  10 active torsions:
REMARK  status: ('A' for Active; 'I' for Inactive)
REMARK    1  A    between atoms: C_1  and  C_2
REMARK    2  A    between atoms: C_5  and  N_8
REMARK    3  A    between atoms: N_8  and  C_9
REMARK    4  A    between atoms: N_8  and  C_13
REMARK    5  A    between atoms: C_9  and  C_10
REMARK    6  A    between atoms: C_10  and  C_11
REMARK    7  A    between atoms: C_10  and  O_12
REMARK    8  A    between atoms: C_13  and  C_14
REMARK    9  A    between atoms: C_14  and  C_15
REMARK   10  A    between atoms: C_14  and  O_16
REMARK                            x       y       z     vdW  Elec       q    Type
REMARK                         _______ _______ _______ _____ _____    ______ ____
ROOT
ATOM      1  N   UNL     1       9.577  11.587   7.571  0.00  0.00    +0.000 N 
ENDROOT
BRANCH   1   6
ATOM      2  C   UNL     1      15.043  12.493   9.191  0.00  0.00    +0.000 C 
ATOM      3  C   UNL     1      13.630  12.267   8.748  0.00  0.00    +0.000 A 
ATOM      4  C   UNL     1      12.656  13.240   8.943  0.00  0.00    +0.000 A 
ATOM      5  C   UNL     1      11.326  13.011   8.553  0.00  0.00    +0.000 A 
ATOM      6  C   UNL     1      10.900  11.801   7.975  0.00  0.00    +0.000 A 
ATOM      7  C   UNL     1      11.912  10.841   7.791  0.00  0.00    +0.000 A 
ATOM      8  C   UNL     1      13.246  11.058   8.175  0.00  0.00    +0.000 A 
ENDBRANCH   1   6
BRANCH   1   9
ATOM      9  C   UNL     1       9.199  11.749   6.146  0.00  0.00    +0.000 C 
BRANCH   9  10
ATOM     10  C   UNL     1       9.566  10.516   5.284  0.00  0.00    +0.000 C 
ATOM     11  C   UNL     1       8.419   9.513   5.250  0.00  0.00    +0.000 C 
BRANCH  10  12
ATOM     12  O   UNL     1       9.860  10.900   3.934  0.00  0.00    +0.000 OA
ATOM     13  H   UNL     1      10.113  11.838   3.936  0.00  0.00    +0.000 HD
ENDBRANCH  10  12
ENDBRANCH   9  10
ENDBRANCH   1   9
BRANCH   1  14
ATOM     14  C   UNL     1       8.450  11.704   8.532  0.00  0.00    +0.000 C 
BRANCH  14  15
ATOM     15  C   UNL     1       7.766  10.342   8.798  0.00  0.00    +0.000 C 
ATOM     16  C   UNL     1       8.701   9.312   9.421  0.00  0.00    +0.000 C 
BRANCH  15  17
ATOM     17  O   UNL     1       6.630  10.480   9.651  0.00  0.00    +0.000 OA
ATOM     18  H   UNL     1       6.075  11.163   9.224  0.00  0.00    +0.000 HD
ENDBRANCH  15  17
ENDBRANCH  14  15
ENDBRANCH   1  14
TORSDOF 7
ENDMDL
MODEL 9
REMARK VINA RESULT:    -4.747     12.586     13.742
REMARK INTER + INTRA:          -6.623
REMARK INTER:                  -6.080
REMARK INTRA:                  -0.543
REMARK UNBOUND:                -0.211
REMARK  Name = 
REMARK  10 active torsions:
REMARK  status: ('A' for Active; 'I' for Inactive)
REMARK    1  A    between atoms: C_1  and  C_2
REMARK    2  A    between atoms: C_5  and  N_8
REMARK    3  A    between atoms: N_8  and  C_9
REMARK    4  A    between atoms: N_8  and  C_13
REMARK    5  A    between atoms: C_9  and  C_10
REMARK    6  A    between atoms: C_10  and  C_11
REMARK    7  A    between atoms: C_10  and  O_12
REMARK    8  A    between atoms: C_13  and  C_14
REMARK    9  A    between atoms: C_14  and  C_15
REMARK   10  A    between atoms: C_14  and  O_16
REMARK                            x       y       z     vdW  Elec       q    Type
REMARK                         _______ _______ _______ _____ _____    ______ ____
ROOT
ATOM      1  N   UNL     1      20.857  14.887   0.665  0.00  0.00    +0.000 N 
ENDROOT
BRANCH   1   6
ATOM      2  C   UNL     1      23.091  14.986   5.988  0.00  0.00    +0.000 C 
ATOM      3  C   UNL     1      22.511  14.985   4.606  0.00  0.00    +0.000 A 
ATOM      4  C   UNL     1      21.135  14.948   4.409  0.00  0.00    +0.000 A 
ATOM      5  C   UNL     1      20.598  14.918   3.112  0.00  0.00    +0.000 A 
ATOM      6  C   UNL     1      21.400  14.898   1.956  0.00  0.00    +0.000 A 
ATOM      7  C   UNL     1      22.786  14.938   2.193  0.00  0.00    +0.000 A 
ATOM      8  C   UNL     1      23.336  14.971   3.485  0.00  0.00    +0.000 A 
ENDBRANCH   1   6
BRANCH   1   9
ATOM      9  C   UNL     1      19.605  15.627   0.379  0.00  0.00    +0.000 C 
BRANCH   9  10
ATOM     10  C   UNL     1      19.857  17.099  -0.028  0.00  0.00    +0.000 C 
ATOM     11  C   UNL     1      19.665  17.291  -1.528  0.00  0.00    +0.000 C 
BRANCH  10  12
ATOM     12  O   UNL     1      18.955  17.983   0.652  0.00  0.00    +0.000 OA
ATOM     13  H   UNL     1      18.988  17.775   1.601  0.00  0.00    +0.000 HD
ENDBRANCH  10  12
ENDBRANCH   9  10
ENDBRANCH   1   9
BRANCH   1  14
ATOM     14  C   UNL     1      21.168  13.793  -0.290  0.00  0.00    +0.000 C 
BRANCH  14  15
ATOM     15  C   UNL     1      21.941  14.302  -1.531  0.00  0.00    +0.000 C 
ATOM     16  C   UNL     1      23.235  13.540  -1.786  0.00  0.00    +0.000 C 
BRANCH  15  17
ATOM     17  O   UNL     1      21.146  14.231  -2.713  0.00  0.00    +0.000 OA
ATOM     18  H   UNL     1      21.452  14.976  -3.269  0.00  0.00    +0.000 HD
ENDBRANCH  15  17
ENDBRANCH  14  15
ENDBRANCH   1  14
TORSDOF 7
ENDMDL
