MODEL 1
REMARK VINA RESULT:    -4.688      0.000      0.000
REMARK INTER + INTRA:          -5.142
REMARK INTER:                  -5.099
REMARK INTRA:                  -0.043
REMARK UNBOUND:                -0.043
REMARK  Name = 
REMARK  3 active torsions:
REMARK  status: ('A' for Active; 'I' for Inactive)
REMARK    1  A    between atoms: C_1  and  O_2
REMARK    2  A    between atoms: O_2  and  C_3
REMARK    3  A    between atoms: C_8  and  O_9
REMARK                            x       y       z     vdW  Elec       q    Type
REMARK                         _______ _______ _______ _____ _____    ______ ____
ROOT
ATOM      1  C   UNL     1       3.061  13.922   1.311  0.00  0.00    +0.000 A 
ATOM      2  C   UNL     1       4.346  14.342   0.971  0.00  0.00    +0.000 A 
ATOM      3  C   UNL     1       4.565  15.667   0.571  0.00  0.00    +0.000 A 
ATOM      4  C   UNL     1       3.505  16.572   0.509  0.00  0.00    +0.000 A 
ATOM      5  C   UNL     1       2.218  16.160   0.848  0.00  0.00    +0.000 A 
ATOM      6  C   UNL     1       2.010  14.845   1.243  0.00  0.00    +0.000 A 
ENDROOT
BRANCH   1   8
ATOM      7  C   UNL     1       3.058  12.296   3.045  0.00  0.00    +0.000 C 
ATOM      8  O   UNL     1       2.701  12.662   1.717  0.00  0.00    +0.000 OA
ENDBRANCH   1   8
BRANCH   6   9
ATOM      9  O   UNL     1       0.736  14.462   1.571  0.00  0.00    +0.000 OA
ATOM     10  H   UNL     1       0.220  14.591   0.753  0.00  0.00    +0.000 HD
ENDBRANCH   6   9
TORSDOF 2
ENDMDL
MODEL 2
REMARK VINA RESULT:    -4.343      1.538      3.164
REMARK INTER + INTRA:          -4.767
REMARK INTER:                  -4.723
REMARK INTRA:                  -0.044
REMARK UNBOUND:                -0.043
REMARK  Name = 
REMARK  3 active torsions:
REMARK  status: ('A' for Active; 'I' for Inactive)
REMARK    1  A    between atoms: C_1  and  O_2
REMARK    2  A    between atoms: O_2  and  C_3
REMARK    3  A    between atoms: C_8  and  O_9
REMARK                            x       y       z     vdW  Elec       q    Type
REMARK                         _______ _______ _______ _____ _____    ______ ____
ROOT
ATOM      1  C   UNL     1       2.807  15.112   1.000  0.00  0.00    +0.000 A 
ATOM      2  C   UNL     1       3.902  14.304   0.694  0.00  0.00    +0.000 A 
ATOM      3  C   UNL     1       3.964  12.994   1.186  0.00  0.00    +0.000 A 
ATOM      4  C   UNL     1       2.936  12.488   1.984  0.00  0.00    +0.000 A 
ATOM      5  C   UNL     1       1.839  13.289   2.293  0.00  0.00    +0.000 A 
ATOM      6  C   UNL     1       1.786  14.587   1.801  0.00  0.00    +0.000 A 
ENDROOT
BRANCH   1   8
ATOM      7  C   UNL     1       2.988  16.711  -0.749  0.00  0.00    +0.000 C 
ATOM      8  O   UNL     1       2.615  16.407   0.590  0.00  0.00    +0.000 OA
ENDBRANCH   1   8
BRANCH   6   9
ATOM      9  O   UNL     1       0.697  15.354   2.119  0.00  0.00    +0.000 OA
ATOM     10  H   UNL     1       0.100  15.269   1.352  0.00  0.00    +0.000 HD
ENDBRANCH   6   9
TORSDOF 2
ENDMDL
MODEL 3
REMARK VINA RESULT:    -4.064      1.123      2.692
REMARK INTER + INTRA:          -4.464
REMARK INTER:                  -4.424
REMARK INTRA:                  -0.040
REMARK UNBOUND:                -0.043
REMARK  Name = 
REMARK  3 active torsions:
REMARK  status: ('A' for Active; 'I' for Inactive)
REMARK    1  A    between atoms: C_1  and  O_2
REMARK    2  A    between atoms: O_2  and  C_3
REMARK    3  A    between atoms: C_8  and  O_9
REMARK                            x       y       z     vdW  Elec       q    Type
REMARK                         _______ _______ _______ _____ _____    ______ ____
ROOT
ATOM      1  C   UNL     1       1.706  14.934   1.619  0.00  0.00    +0.000 A 
ATOM      2  C   UNL     1       2.249  16.071   1.022  0.00  0.00    +0.000 A 
ATOM      3  C   UNL     1       3.570  16.053   0.557  0.00  0.00    +0.000 A 
ATOM      4  C   UNL     1       4.351  14.903   0.687  0.00  0.00    +0.000 A 
ATOM      5  C   UNL     1       3.816  13.763   1.282  0.00  0.00    +0.000 A 
ATOM      6  C   UNL     1       2.505  13.790   1.741  0.00  0.00    +0.000 A 
ENDROOT
BRANCH   1   8
ATOM      7  C   UNL     1      -0.213  16.012   2.514  0.00  0.00    +0.000 C 
ATOM      8  O   UNL     1       0.434  14.809   2.118  0.00  0.00    +0.000 OA
ENDBRANCH   1   8
BRANCH   6   9
ATOM      9  O   UNL     1       2.000  12.657   2.323  0.00  0.00    +0.000 OA
ATOM     10  H   UNL     1       1.303  12.978   2.926  0.00  0.00    +0.000 HD
ENDBRANCH   6   9
TORSDOF 2
ENDMDL
MODEL 4
REMARK VINA RESULT:    -3.922      1.910      3.834
REMARK INTER + INTRA:          -4.309
REMARK INTER:                  -4.425
REMARK INTRA:                   0.116
REMARK UNBOUND:                -0.043
REMARK  Name = 
REMARK  3 active torsions:
REMARK  status: ('A' for Active; 'I' for Inactive)
REMARK    1  A    between atoms: C_1  and  O_2
REMARK    2  A    between atoms: O_2  and  C_3
REMARK    3  A    between atoms: C_8  and  O_9
REMARK                            x       y       z     vdW  Elec       q    Type
REMARK                         _______ _______ _______ _____ _____    ______ ____
ROOT
ATOM      1  C   UNL     1       2.778  15.431   1.089  0.00  0.00    +0.000 A 
ATOM      2  C   UNL     1       1.581  14.866   1.527  0.00  0.00    +0.000 A 
ATOM      3  C   UNL     1       1.572  13.567   2.051  0.00  0.00    +0.000 A 
ATOM      4  C   UNL     1       2.754  12.830   2.138  0.00  0.00    +0.000 A 
ATOM      5  C   UNL     1       3.954  13.388   1.703  0.00  0.00    +0.000 A 
ATOM      6  C   UNL     1       3.954  14.677   1.184  0.00  0.00    +0.000 A 
ENDROOT
BRANCH   1   8
ATOM      7  C   UNL     1       2.917  16.779  -0.863  0.00  0.00    +0.000 C 
ATOM      8  O   UNL     1       2.935  16.686   0.556  0.00  0.00    +0.000 OA
ENDBRANCH   1   8
BRANCH   6   9
ATOM      9  O   UNL     1       5.146  15.204   0.762  0.00  0.00    +0.000 OA
ATOM     10  H   UNL     1       5.214  14.944  -0.176  0.00  0.00    +0.000 HD
ENDBRANCH   6   9
TORSDOF 2
ENDMDL
MODEL 5
REMARK VINA RESULT:    -3.716      1.508      2.399
REMARK INTER + INTRA:          -4.085
REMARK INTER:                  -4.042
REMARK INTRA:                  -0.042
REMARK UNBOUND:                -0.043
REMARK  Name = 
REMARK  3 active torsions:
REMARK  status: ('A' for Active; 'I' for Inactive)
REMARK    1  A    between atoms: C_1  and  O_2
REMARK    2  A    between atoms: O_2  and  C_3
REMARK    3  A    between atoms: C_8  and  O_9
REMARK                            x       y       z     vdW  Elec       q    Type
REMARK                         _______ _______ _______ _____ _____    ______ ____
ROOT
ATOM      1  C   UNL     1       3.169  13.779   1.401  0.00  0.00    +0.000 A 
ATOM      2  C   UNL     1       1.806  13.800   1.695  0.00  0.00    +0.000 A 
ATOM      3  C   UNL     1       1.086  14.997   1.588  0.00  0.00    +0.000 A 
ATOM      4  C   UNL     1       1.723  16.173   1.188  0.00  0.00    +0.000 A 
ATOM      5  C   UNL     1       3.084  16.160   0.892  0.00  0.00    +0.000 A 
ATOM      6  C   UNL     1       3.790  14.969   1.002  0.00  0.00    +0.000 A 
ENDROOT
BRANCH   1   8
ATOM      7  C   UNL     1       3.694  11.719   2.462  0.00  0.00    +0.000 C 
ATOM      8  O   UNL     1       3.995  12.686   1.463  0.00  0.00    +0.000 OA
ENDBRANCH   1   8
BRANCH   6   9
ATOM      9  O   UNL     1       5.127  14.980   0.705  0.00  0.00    +0.000 OA
ATOM     10  H   UNL     1       5.523  14.331   1.317  0.00  0.00    +0.000 HD
ENDBRANCH   6   9
TORSDOF 2
ENDMDL
MODEL 6
REMARK VINA RESULT:    -3.545      1.454      2.602
REMARK INTER + INTRA:          -3.899
REMARK INTER:                  -3.946
REMARK INTRA:                   0.047
REMARK UNBOUND:                -0.043
REMARK  Name = 
REMARK  3 active torsions:
REMARK  status: ('A' for Active; 'I' for Inactive)
REMARK    1  A    between atoms: C_1  and  O_2
REMARK    2  A    between atoms: O_2  and  C_3
REMARK    3  A    between atoms: C_8  and  O_9
REMARK                            x       y       z     vdW  Elec       q    Type
REMARK                         _______ _______ _______ _____ _____    ______ ____
ROOT
ATOM      1  C   UNL     1       1.816  15.090   1.242  0.00  0.00    +0.000 A 
ATOM      2  C   UNL     1       2.619  13.997   1.569  0.00  0.00    +0.000 A 
ATOM      3  C   UNL     1       3.999  14.049   1.338  0.00  0.00    +0.000 A 
ATOM      4  C   UNL     1       4.581  15.188   0.779  0.00  0.00    +0.000 A 
ATOM      5  C   UNL     1       3.786  16.284   0.450  0.00  0.00    +0.000 A 
ATOM      6  C   UNL     1       2.418  16.224   0.683  0.00  0.00    +0.000 A 
ENDROOT
BRANCH   1   8
ATOM      7  C   UNL     1       0.006  15.685   2.662  0.00  0.00    +0.000 C 
ATOM      8  O   UNL     1       0.458  15.178   1.412  0.00  0.00    +0.000 OA
ENDBRANCH   1   8
BRANCH   6   9
ATOM      9  O   UNL     1       1.657  17.313   0.351  0.00  0.00    +0.000 OA
ATOM     10  H   UNL     1       1.924  18.005   0.986  0.00  0.00    +0.000 HD
ENDBRANCH   6   9
TORSDOF 2
ENDMDL
MODEL 7
REMARK VINA RESULT:    -3.304     12.157     12.834
REMARK INTER + INTRA:          -3.637
REMARK INTER:                  -3.586
REMARK INTRA:                  -0.052
REMARK UNBOUND:                -0.043
REMARK  Name = 
REMARK  3 active torsions:
REMARK  status: ('A' for Active; 'I' for Inactive)
REMARK    1  A    between atoms: C_1  and  O_2
REMARK    2  A    between atoms: O_2  and  C_3
REMARK    3  A    between atoms: C_8  and  O_9
REMARK                            x       y       z     vdW  Elec       q    Type
REMARK                         _______ _______ _______ _____ _____    ______ ____
ROOT
ATOM      1  C   UNL     1      -1.272  15.083 -10.507  0.00  0.00    +0.000 A 
ATOM      2  C   UNL     1      -2.157  15.600  -9.563  0.00  0.00    +0.000 A 
ATOM      3  C   UNL     1      -1.981  16.903  -9.078  0.00  0.00    +0.000 A 
ATOM      4  C   UNL     1      -0.922  17.690  -9.533  0.00  0.00    +0.000 A 
ATOM      5  C   UNL     1      -0.034  17.181 -10.477  0.00  0.00    +0.000 A 
ATOM      6  C   UNL     1      -0.216  15.888 -10.952  0.00  0.00    +0.000 A 
ENDROOT
BRANCH   1   8
ATOM      7  C   UNL     1      -2.395  13.580 -11.965  0.00  0.00    +0.000 C 
ATOM      8  O   UNL     1      -1.322  13.831 -11.066  0.00  0.00    +0.000 OA
ENDBRANCH   1   8
BRANCH   6   9
ATOM      9  O   UNL     1       0.671  15.409 -11.880  0.00  0.00    +0.000 OA
ATOM     10  H   UNL     1       1.474  15.950 -11.758  0.00  0.00    +0.000 HD
ENDBRANCH   6   9
TORSDOF 2
ENDMDL
MODEL 8
REMARK VINA RESULT:    -3.294      9.992     11.420
REMARK INTER + INTRA:          -3.626
REMARK INTER:                  -3.577
REMARK INTRA:                  -0.049
REMARK UNBOUND:                -0.043
REMARK  Name = 
REMARK  3 active torsions:
REMARK  status: ('A' for Active; 'I' for Inactive)
REMARK    1  A    between atoms: C_1  and  O_2
REMARK    2  A    between atoms: O_2  and  C_3
REMARK    3  A    between atoms: C_8  and  O_9
REMARK                            x       y       z     vdW  Elec       q    Type
REMARK                         _______ _______ _______ _____ _____    ______ ____
ROOT
ATOM      1  C   UNL     1       9.851  21.605  -3.200  0.00  0.00    +0.000 A 
ATOM      2  C   UNL     1      10.394  22.590  -4.023  0.00  0.00    +0.000 A 
ATOM      3  C   UNL     1      11.782  22.771  -4.077  0.00  0.00    +0.000 A 
ATOM      4  C   UNL     1      12.630  21.971  -3.309  0.00  0.00    +0.000 A 
ATOM      5  C   UNL     1      12.095  20.984  -2.485  0.00  0.00    +0.000 A 
ATOM      6  C   UNL     1      10.718  20.812  -2.438  0.00  0.00    +0.000 A 
ENDROOT
BRANCH   1   8
ATOM      7  C   UNL     1       7.743  22.268  -2.328  0.00  0.00    +0.000 C 
ATOM      8  O   UNL     1       8.518  21.318  -3.049  0.00  0.00    +0.000 OA
ENDBRANCH   1   8
BRANCH   6   9
ATOM      9  O   UNL     1      10.216  19.835  -1.619  0.00  0.00    +0.000 OA
ATOM     10  H   UNL     1       9.851  19.164  -2.228  0.00  0.00    +0.000 HD
ENDBRANCH   6   9
TORSDOF 2
ENDMDL
MODEL 9
REMARK VINA RESULT:    -3.289     10.327     11.654
REMARK INTER + INTRA:          -3.621
REMARK INTER:                  -3.579
REMARK INTRA:                  -0.042
REMARK UNBOUND:                -0.043
REMARK  Name = 
REMARK  3 active torsions:
REMARK  status: ('A' for Active; 'I' for Inactive)
REMARK    1  A    between atoms: C_1  and  O_2
REMARK    2  A    between atoms: O_2  and  C_3
REMARK    3  A    between atoms: C_8  and  O_9
REMARK                            x       y       z     vdW  Elec       q    Type
REMARK                         _______ _______ _______ _____ _____    ______ ____
ROOT
ATOM      1  C   UNL     1      11.586  21.364  -2.801  0.00  0.00    +0.000 A 
ATOM      2  C   UNL     1      11.595  22.523  -3.577  0.00  0.00    +0.000 A 
ATOM      3  C   UNL     1      10.387  23.134  -3.936  0.00  0.00    +0.000 A 
ATOM      4  C   UNL     1       9.169  22.590  -3.523  0.00  0.00    +0.000 A 
ATOM      5  C   UNL     1       9.152  21.433  -2.748  0.00  0.00    +0.000 A 
ATOM      6  C   UNL     1      10.355  20.834  -2.397  0.00  0.00    +0.000 A 
ENDROOT
BRANCH   1   8
ATOM      7  C   UNL     1      13.812  20.662  -3.249  0.00  0.00    +0.000 C 
ATOM      8  O   UNL     1      12.687  20.663  -2.378  0.00  0.00    +0.000 OA
ENDBRANCH   1   8
BRANCH   6   9
ATOM      9  O   UNL     1      10.313  19.697  -1.634  0.00  0.00    +0.000 OA
ATOM     10  H   UNL     1      10.090  20.009  -0.736  0.00  0.00    +0.000 HD
ENDBRANCH   6   9
TORSDOF 2
ENDMDL
