MODEL 1
REMARK VINA RESULT:    -4.109      0.000      0.000
REMARK INTER + INTRA:          -5.866
REMARK INTER:                  -5.551
REMARK INTRA:                  -0.315
REMARK UNBOUND:                -0.315
REMARK  Name = 
REMARK  10 active torsions:
REMARK  status: ('A' for Active; 'I' for Inactive)
REMARK    1  A    between atoms: C_1  and  C_2
REMARK    2  A    between atoms: C_5  and  N_8
REMARK    3  A    between atoms: N_8  and  C_9
REMARK    4  A    between atoms: N_8  and  C_13
REMARK    5  A    between atoms: C_9  and  C_10
REMARK    6  A    between atoms: C_10  and  C_11
REMARK    7  A    between atoms: C_10  and  O_12
REMARK    8  A    between atoms: C_13  and  C_14
REMARK    9  A    between atoms: C_14  and  C_15
REMARK   10  A    between atoms: C_14  and  O_16
REMARK                            x       y       z     vdW  Elec       q    Type
REMARK                         _______ _______ _______ _____ _____    ______ ____
ROOT
ATOM      1  N   UNL     1      20.362   9.737   4.919  0.00  0.00    +0.000 N 
ENDROOT
BRANCH   1   6
ATOM      2  C   UNL     1      22.926  12.714   0.689  0.00  0.00    +0.000 C 
ATOM      3  C   UNL     1      22.239  11.948   1.777  0.00  0.00    +0.000 A 
ATOM      4  C   UNL     1      21.926  12.553   2.989  0.00  0.00    +0.000 A 
ATOM      5  C   UNL     1      21.309  11.822   4.017  0.00  0.00    +0.000 A 
ATOM      6  C   UNL     1      20.996  10.456   3.897  0.00  0.00    +0.000 A 
ATOM      7  C   UNL     1      21.324   9.877   2.657  0.00  0.00    +0.000 A 
ATOM      8  C   UNL     1      21.940  10.597   1.621  0.00  0.00    +0.000 A 
ENDBRANCH   1   6
BRANCH   1   9
ATOM      9  C   UNL     1      19.155  10.291   5.578  0.00  0.00    +0.000 C 
BRANCH   9  10
ATOM     10  C   UNL     1      17.839   9.838   4.899  0.00  0.00    +0.000 C 
ATOM     11  C   UNL     1      17.372   8.498   5.456  0.00  0.00    +0.000 C 
BRANCH  10  12
ATOM     12  O   UNL     1      16.794  10.796   5.111  0.00  0.00    +0.000 OA
ATOM     13  H   UNL     1      17.207  11.654   5.305  0.00  0.00    +0.000 HD
ENDBRANCH  10  12
ENDBRANCH   9  10
ENDBRANCH   1   9
BRANCH   1  14
ATOM     14  C   UNL     1      21.098   8.721   5.715  0.00  0.00    +0.000 C 
BRANCH  14  15
ATOM     15  C   UNL     1      21.312   7.406   4.928  0.00  0.00    +0.000 C 
ATOM     16  C   UNL     1      22.610   6.694   5.290  0.00  0.00    +0.000 C 
BRANCH  15  17
ATOM     17  O   UNL     1      20.236   6.491   5.129  0.00  0.00    +0.000 OA
ATOM     18  H   UNL     1      20.211   5.947   4.315  0.00  0.00    +0.000 HD
ENDBRANCH  15  17
ENDBRANCH  14  15
ENDBRANCH   1  14
TORSDOF 7
ENDMDL
MODEL 2
REMARK VINA RESULT:    -3.959      8.417     10.849
REMARK INTER + INTRA:          -5.663
REMARK INTER:                  -5.175
REMARK INTRA:                  -0.488
REMARK UNBOUND:                -0.315
REMARK  Name = 
REMARK  10 active torsions:
REMARK  status: ('A' for Active; 'I' for Inactive)
REMARK    1  A    between atoms: C_1  and  C_2
REMARK    2  A    between atoms: C_5  and  N_8
REMARK    3  A    between atoms: N_8  and  C_9
REMARK    4  A    between atoms: N_8  and  C_13
REMARK    5  A    between atoms: C_9  and  C_10
REMARK    6  A    between atoms: C_10  and  C_11
REMARK    7  A    between atoms: C_10  and  O_12
REMARK    8  A    between atoms: C_13  and  C_14
REMARK    9  A    between atoms: C_14  and  C_15
REMARK   10  A    between atoms: C_14  and  O_16
REMARK                            x       y       z     vdW  Elec       q    Type
REMARK                         _______ _______ _______ _____ _____    ______ ____
ROOT
ATOM      1  N   UNL     1      19.787  15.982  -3.318  0.00  0.00    +0.000 N 
ENDROOT
BRANCH   1   6
ATOM      2  C   UNL     1      17.248  16.189  -8.498  0.00  0.00    +0.000 C 
ATOM      3  C   UNL     1      17.889  16.120  -7.146  0.00  0.00    +0.000 A 
ATOM      4  C   UNL     1      17.562  17.036  -6.153  0.00  0.00    +0.000 A 
ATOM      5  C   UNL     1      18.188  16.984  -4.897  0.00  0.00    +0.000 A 
ATOM      6  C   UNL     1      19.180  16.040  -4.579  0.00  0.00    +0.000 A 
ATOM      7  C   UNL     1      19.485  15.128  -5.607  0.00  0.00    +0.000 A 
ATOM      8  C   UNL     1      18.864  15.167  -6.866  0.00  0.00    +0.000 A 
ENDBRANCH   1   6
BRANCH   1   9
ATOM      9  C   UNL     1      20.574  14.788  -2.925  0.00  0.00    +0.000 C 
BRANCH   9  10
ATOM     10  C   UNL     1      22.102  15.024  -3.005  0.00  0.00    +0.000 C 
ATOM     11  C   UNL     1      22.728  14.178  -4.107  0.00  0.00    +0.000 C 
BRANCH  10  12
ATOM     12  O   UNL     1      22.397  16.400  -3.279  0.00  0.00    +0.000 OA
ATOM     13  H   UNL     1      22.862  16.768  -2.509  0.00  0.00    +0.000 HD
ENDBRANCH  10  12
ENDBRANCH   9  10
ENDBRANCH   1   9
BRANCH   1  14
ATOM     14  C   UNL     1      19.282  16.797  -2.184  0.00  0.00    +0.000 C 
BRANCH  14  15
ATOM     15  C   UNL     1      19.204  15.984  -0.869  0.00  0.00    +0.000 C 
ATOM     16  C   UNL     1      19.742  16.744   0.338  0.00  0.00    +0.000 C 
BRANCH  15  17
ATOM     17  O   UNL     1      17.867  15.581  -0.577  0.00  0.00    +0.000 OA
ATOM     18  H   UNL     1      17.307  16.325  -0.877  0.00  0.00    +0.000 HD
ENDBRANCH  15  17
ENDBRANCH  14  15
ENDBRANCH   1  14
TORSDOF 7
ENDMDL
MODEL 3
REMARK VINA RESULT:    -3.902      8.069     10.123
REMARK INTER + INTRA:          -5.585
REMARK INTER:                  -5.289
REMARK INTRA:                  -0.296
REMARK UNBOUND:                -0.315
REMARK  Name = 
REMARK  10 active torsions:
REMARK  status: ('A' for Active; 'I' for Inactive)
REMARK    1  A    between atoms: C_1  and  C_2
REMARK    2  A    between atoms: C_5  and  N_8
REMARK    3  A    between atoms: N_8  and  C_9
REMARK    4  A    between atoms: N_8  and  C_13
REMARK    5  A    between atoms: C_9  and  C_10
REMARK    6  A    between atoms: C_10  and  C_11
REMARK    7  A    between atoms: C_10  and  O_12
REMARK    8  A    between atoms: C_13  and  C_14
REMARK    9  A    between atoms: C_14  and  C_15
REMARK   10  A    between atoms: C_14  and  O_16
REMARK                            x       y       z     vdW  Elec       q    Type
REMARK                         _______ _______ _______ _____ _____    ______ ____
ROOT
ATOM      1  N   UNL     1      19.718  16.010  -3.133  0.00  0.00    +0.000 N 
ENDROOT
BRANCH   1   6
ATOM      2  C   UNL     1      19.230  16.566  -8.859  0.00  0.00    +0.000 C 
ATOM      3  C   UNL     1      19.361  16.447  -7.371  0.00  0.00    +0.000 A 
ATOM      4  C   UNL     1      20.583  16.135  -6.785  0.00  0.00    +0.000 A 
ATOM      5  C   UNL     1      20.694  15.995  -5.392  0.00  0.00    +0.000 A 
ATOM      6  C   UNL     1      19.596  16.132  -4.523  0.00  0.00    +0.000 A 
ATOM      7  C   UNL     1      18.377  16.449  -5.151  0.00  0.00    +0.000 A 
ATOM      8  C   UNL     1      18.253  16.594  -6.542  0.00  0.00    +0.000 A 
ENDBRANCH   1   6
BRANCH   1   9
ATOM      9  C   UNL     1      18.736  16.670  -2.240  0.00  0.00    +0.000 C 
BRANCH   9  10
ATOM     10  C   UNL     1      18.683  16.032  -0.830  0.00  0.00    +0.000 C 
ATOM     11  C   UNL     1      19.016  17.058   0.246  0.00  0.00    +0.000 C 
BRANCH  10  12
ATOM     12  O   UNL     1      17.378  15.505  -0.553  0.00  0.00    +0.000 OA
ATOM     13  H   UNL     1      17.457  14.875   0.183  0.00  0.00    +0.000 HD
ENDBRANCH  10  12
ENDBRANCH   9  10
ENDBRANCH   1   9
BRANCH   1  14
ATOM     14  C   UNL     1      21.024  15.695  -2.501  0.00  0.00    +0.000 C 
BRANCH  14  15
ATOM     15  C   UNL     1      21.244  14.172  -2.339  0.00  0.00    +0.000 C 
ATOM     16  C   UNL     1      22.601  13.703  -2.851  0.00  0.00    +0.000 C 
BRANCH  15  17
ATOM     17  O   UNL     1      21.120  13.763  -0.978  0.00  0.00    +0.000 OA
ATOM     18  H   UNL     1      20.230  13.363  -0.914  0.00  0.00    +0.000 HD
ENDBRANCH  15  17
ENDBRANCH  14  15
ENDBRANCH   1  14
TORSDOF 7
ENDMDL
MODEL 4
REMARK VINA RESULT:    -3.852      8.905     11.509
REMARK INTER + INTRA:          -5.519
REMARK INTER:                  -5.322
REMARK INTRA:                  -0.197
REMARK UNBOUND:                -0.315
REMARK  Name = 
REMARK  10 active torsions:
REMARK  status: ('A' for Active; 'I' for Inactive)
REMARK    1  A    between atoms: C_1  and  C_2
REMARK    2  A    between atoms: C_5  and  N_8
REMARK    3  A    between atoms: N_8  and  C_9
REMARK    4  A    between atoms: N_8  and  C_13
REMARK    5  A    between atoms: C_9  and  C_10
REMARK    6  A    between atoms: C_10  and  C_11
REMARK    7  A    between atoms: C_10  and  O_12
REMARK    8  A    between atoms: C_13  and  C_14
REMARK    9  A    between atoms: C_14  and  C_15
REMARK   10  A    between atoms: C_14  and  O_16
REMARK                            x       y       z     vdW  Elec       q    Type
REMARK                         _______ _______ _______ _____ _____    ______ ____
ROOT
ATOM      1  N   UNL     1      20.673  16.233  -4.703  0.00  0.00    +0.000 N 
ENDROOT
BRANCH   1   6
ATOM      2  C   UNL     1      16.451  16.575  -8.625  0.00  0.00    +0.000 C 
ATOM      3  C   UNL     1      17.537  16.465  -7.599  0.00  0.00    +0.000 A 
ATOM      4  C   UNL     1      17.401  17.058  -6.348  0.00  0.00    +0.000 A 
ATOM      5  C   UNL     1      18.435  16.977  -5.401  0.00  0.00    +0.000 A 
ATOM      6  C   UNL     1      19.655  16.327  -5.659  0.00  0.00    +0.000 A 
ATOM      7  C   UNL     1      19.757  15.737  -6.932  0.00  0.00    +0.000 A 
ATOM      8  C   UNL     1      18.730  15.808  -7.888  0.00  0.00    +0.000 A 
ENDBRANCH   1   6
BRANCH   1   9
ATOM      9  C   UNL     1      20.428  16.676  -3.309  0.00  0.00    +0.000 C 
BRANCH   9  10
ATOM     10  C   UNL     1      19.686  15.612  -2.463  0.00  0.00    +0.000 C 
ATOM     11  C   UNL     1      20.525  15.188  -1.263  0.00  0.00    +0.000 C 
BRANCH  10  12
ATOM     12  O   UNL     1      18.437  16.122  -1.974  0.00  0.00    +0.000 OA
ATOM     13  H   UNL     1      17.785  16.060  -2.692  0.00  0.00    +0.000 HD
ENDBRANCH  10  12
ENDBRANCH   9  10
ENDBRANCH   1   9
BRANCH   1  14
ATOM     14  C   UNL     1      22.103  16.198  -5.103  0.00  0.00    +0.000 C 
BRANCH  14  15
ATOM     15  C   UNL     1      22.652  14.753  -5.181  0.00  0.00    +0.000 C 
ATOM     16  C   UNL     1      21.768  13.736  -4.468  0.00  0.00    +0.000 C 
BRANCH  15  17
ATOM     17  O   UNL     1      22.819  14.324  -6.531  0.00  0.00    +0.000 OA
ATOM     18  H   UNL     1      23.250  15.076  -6.984  0.00  0.00    +0.000 HD
ENDBRANCH  15  17
ENDBRANCH  14  15
ENDBRANCH   1  14
TORSDOF 7
ENDMDL
MODEL 5
REMARK VINA RESULT:    -3.473      8.107     10.729
REMARK INTER + INTRA:          -5.007
REMARK INTER:                  -4.359
REMARK INTRA:                  -0.647
REMARK UNBOUND:                -0.315
REMARK  Name = 
REMARK  10 active torsions:
REMARK  status: ('A' for Active; 'I' for Inactive)
REMARK    1  A    between atoms: C_1  and  C_2
REMARK    2  A    between atoms: C_5  and  N_8
REMARK    3  A    between atoms: N_8  and  C_9
REMARK    4  A    between atoms: N_8  and  C_13
REMARK    5  A    between atoms: C_9  and  C_10
REMARK    6  A    between atoms: C_10  and  C_11
REMARK    7  A    between atoms: C_10  and  O_12
REMARK    8  A    between atoms: C_13  and  C_14
REMARK    9  A    between atoms: C_14  and  C_15
REMARK   10  A    between atoms: C_14  and  O_16
REMARK                            x       y       z     vdW  Elec       q    Type
REMARK                         _______ _______ _______ _____ _____    ______ ____
ROOT
ATOM      1  N   UNL     1      20.807  15.549  -3.750  0.00  0.00    +0.000 N 
ENDROOT
BRANCH   1   6
ATOM      2  C   UNL     1      18.608  16.939  -8.904  0.00  0.00    +0.000 C 
ATOM      3  C   UNL     1      19.177  16.554  -7.572  0.00  0.00    +0.000 A 
ATOM      4  C   UNL     1      18.351  16.375  -6.468  0.00  0.00    +0.000 A 
ATOM      5  C   UNL     1      18.893  16.044  -5.215  0.00  0.00    +0.000 A 
ATOM      6  C   UNL     1      20.275  15.899  -4.998  0.00  0.00    +0.000 A 
ATOM      7  C   UNL     1      21.079  16.085  -6.137  0.00  0.00    +0.000 A 
ATOM      8  C   UNL     1      20.551  16.414  -7.396  0.00  0.00    +0.000 A 
ENDBRANCH   1   6
BRANCH   1   9
ATOM      9  C   UNL     1      22.187  15.016  -3.653  0.00  0.00    +0.000 C 
BRANCH   9  10
ATOM     10  C   UNL     1      22.240  13.470  -3.719  0.00  0.00    +0.000 C 
ATOM     11  C   UNL     1      23.032  13.003  -4.934  0.00  0.00    +0.000 C 
BRANCH  10  12
ATOM     12  O   UNL     1      22.862  12.926  -2.546  0.00  0.00    +0.000 OA
ATOM     13  H   UNL     1      23.408  12.170  -2.819  0.00  0.00    +0.000 HD
ENDBRANCH  10  12
ENDBRANCH   9  10
ENDBRANCH   1   9
BRANCH   1  14
ATOM     14  C   UNL     1      19.923  15.205  -2.607  0.00  0.00    +0.000 C 
BRANCH  14  15
ATOM     15  C   UNL     1      20.652  15.330  -1.247  0.00  0.00    +0.000 C 
ATOM     16  C   UNL     1      19.955  16.278  -0.278  0.00  0.00    +0.000 C 
BRANCH  15  17
ATOM     17  O   UNL     1      20.788  14.064  -0.604  0.00  0.00    +0.000 OA
ATOM     18  H   UNL     1      20.142  14.082   0.130  0.00  0.00    +0.000 HD
ENDBRANCH  15  17
ENDBRANCH  14  15
ENDBRANCH   1  14
TORSDOF 7
ENDMDL
MODEL 6
REMARK VINA RESULT:    -3.429      2.550      3.852
REMARK INTER + INTRA:          -4.947
REMARK INTER:                  -4.476
REMARK INTRA:                  -0.471
REMARK UNBOUND:                -0.315
REMARK  Name = 
REMARK  10 active torsions:
REMARK  status: ('A' for Active; 'I' for Inactive)
REMARK    1  A    between atoms: C_1  and  C_2
REMARK    2  A    between atoms: C_5  and  N_8
REMARK    3  A    between atoms: N_8  and  C_9
REMARK    4  A    between atoms: N_8  and  C_13
REMARK    5  A    between atoms: C_9  and  C_10
REMARK    6  A    between atoms: C_10  and  C_11
REMARK    7  A    between atoms: C_10  and  O_12
REMARK    8  A    between atoms: C_13  and  C_14
REMARK    9  A    between atoms: C_14  and  C_15
REMARK   10  A    between atoms: C_14  and  O_16
REMARK                            x       y       z     vdW  Elec       q    Type
REMARK                         _______ _______ _______ _____ _____    ______ ____
ROOT
ATOM      1  N   UNL     1      21.110  10.661   4.701  0.00  0.00    +0.000 N 
ENDROOT
BRANCH   1   6
ATOM      2  C   UNL     1      18.609  15.808   5.467  0.00  0.00    +0.000 C 
ATOM      3  C   UNL     1      19.264  14.472   5.292  0.00  0.00    +0.000 A 
ATOM      4  C   UNL     1      20.594  14.375   4.897  0.00  0.00    +0.000 A 
ATOM      5  C   UNL     1      21.195  13.120   4.706  0.00  0.00    +0.000 A 
ATOM      6  C   UNL     1      20.499  11.909   4.875  0.00  0.00    +0.000 A 
ATOM      7  C   UNL     1      19.158  12.045   5.276  0.00  0.00    +0.000 A 
ATOM      8  C   UNL     1      18.545  13.294   5.473  0.00  0.00    +0.000 A 
ENDBRANCH   1   6
BRANCH   1   9
ATOM      9  C   UNL     1      20.831   9.558   5.652  0.00  0.00    +0.000 C 
BRANCH   9  10
ATOM     10  C   UNL     1      19.962   8.437   5.032  0.00  0.00    +0.000 C 
ATOM     11  C   UNL     1      20.522   7.061   5.376  0.00  0.00    +0.000 C 
BRANCH  10  12
ATOM     12  O   UNL     1      18.614   8.502   5.518  0.00  0.00    +0.000 OA
ATOM     13  H   UNL     1      18.497   7.798   6.178  0.00  0.00    +0.000 HD
ENDBRANCH  10  12
ENDBRANCH   9  10
ENDBRANCH   1   9
BRANCH   1  14
ATOM     14  C   UNL     1      22.380  10.525   3.943  0.00  0.00    +0.000 C 
BRANCH  14  15
ATOM     15  C   UNL     1      22.137  10.237   2.442  0.00  0.00    +0.000 C 
ATOM     16  C   UNL     1      22.628   8.860   2.009  0.00  0.00    +0.000 C 
BRANCH  15  17
ATOM     17  O   UNL     1      20.755  10.340   2.103  0.00  0.00    +0.000 OA
ATOM     18  H   UNL     1      20.485  11.228   2.411  0.00  0.00    +0.000 HD
ENDBRANCH  15  17
ENDBRANCH  14  15
ENDBRANCH   1  14
TORSDOF 7
ENDMDL
MODEL 7
REMARK VINA RESULT:    -3.381      9.235     11.163
REMARK INTER + INTRA:          -4.882
REMARK INTER:                  -4.578
REMARK INTRA:                  -0.304
REMARK UNBOUND:                -0.315
REMARK  Name = 
REMARK  10 active torsions:
REMARK  status: ('A' for Active; 'I' for Inactive)
REMARK    1  A    between atoms: C_1  and  C_2
REMARK    2  A    between atoms: C_5  and  N_8
REMARK    3  A    between atoms: N_8  and  C_9
REMARK    4  A    between atoms: N_8  and  C_13
REMARK    5  A    between atoms: C_9  and  C_10
REMARK    6  A    between atoms: C_10  and  C_11
REMARK    7  A    between atoms: C_10  and  O_12
REMARK    8  A    between atoms: C_13  and  C_14
REMARK    9  A    between atoms: C_14  and  C_15
REMARK   10  A    between atoms: C_14  and  O_16
REMARK                            x       y       z     vdW  Elec       q    Type
REMARK                         _______ _______ _______ _____ _____    ______ ____
ROOT
ATOM      1  N   UNL     1      20.446  16.306  -4.437  0.00  0.00    +0.000 N 
ENDROOT
BRANCH   1   6
ATOM      2  C   UNL     1      17.826  17.058   0.652  0.00  0.00    +0.000 C 
ATOM      3  C   UNL     1      18.507  16.839  -0.664  0.00  0.00    +0.000 A 
ATOM      4  C   UNL     1      19.889  16.954  -0.781  0.00  0.00    +0.000 A 
ATOM      5  C   UNL     1      20.519  16.776  -2.023  0.00  0.00    +0.000 A 
ATOM      6  C   UNL     1      19.809  16.501  -3.205  0.00  0.00    +0.000 A 
ATOM      7  C   UNL     1      18.415  16.390  -3.050  0.00  0.00    +0.000 A 
ATOM      8  C   UNL     1      17.772  16.563  -1.813  0.00  0.00    +0.000 A 
ENDBRANCH   1   6
BRANCH   1   9
ATOM      9  C   UNL     1      21.924  16.198  -4.501  0.00  0.00    +0.000 C 
BRANCH   9  10
ATOM     10  C   UNL     1      22.405  14.783  -4.906  0.00  0.00    +0.000 C 
ATOM     11  C   UNL     1      21.886  13.731  -3.933  0.00  0.00    +0.000 C 
BRANCH  10  12
ATOM     12  O   UNL     1      21.942  14.439  -6.220  0.00  0.00    +0.000 OA
ATOM     13  H   UNL     1      21.692  15.260  -6.676  0.00  0.00    +0.000 HD
ENDBRANCH  10  12
ENDBRANCH   9  10
ENDBRANCH   1   9
BRANCH   1  14
ATOM     14  C   UNL     1      19.794  16.702  -5.712  0.00  0.00    +0.000 C 
BRANCH  14  15
ATOM     15  C   UNL     1      18.634  15.752  -6.094  0.00  0.00    +0.000 C 
ATOM     16  C   UNL     1      18.177  15.915  -7.539  0.00  0.00    +0.000 C 
BRANCH  15  17
ATOM     17  O   UNL     1      18.985  14.383  -5.894  0.00  0.00    +0.000 OA
ATOM     18  H   UNL     1      18.680  14.174  -4.988  0.00  0.00    +0.000 HD
ENDBRANCH  15  17
ENDBRANCH  14  15
ENDBRANCH   1  14
TORSDOF 7
ENDMDL
MODEL 8
REMARK VINA RESULT:    -3.380      9.681     11.433
REMARK INTER + INTRA:          -4.880
REMARK INTER:                  -4.351
REMARK INTRA:                  -0.530
REMARK UNBOUND:                -0.315
REMARK  Name = 
REMARK  10 active torsions:
REMARK  status: ('A' for Active; 'I' for Inactive)
REMARK    1  A    between atoms: C_1  and  C_2
REMARK    2  A    between atoms: C_5  and  N_8
REMARK    3  A    between atoms: N_8  and  C_9
REMARK    4  A    between atoms: N_8  and  C_13
REMARK    5  A    between atoms: C_9  and  C_10
REMARK    6  A    between atoms: C_10  and  C_11
REMARK    7  A    between atoms: C_10  and  O_12
REMARK    8  A    between atoms: C_13  and  C_14
REMARK    9  A    between atoms: C_14  and  C_15
REMARK   10  A    between atoms: C_14  and  O_16
REMARK                            x       y       z     vdW  Elec       q    Type
REMARK                         _______ _______ _______ _____ _____    ______ ____
ROOT
ATOM      1  N   UNL     1      19.877  16.227  -4.937  0.00  0.00    +0.000 N 
ENDROOT
BRANCH   1   6
ATOM      2  C   UNL     1      18.320  17.058   0.560  0.00  0.00    +0.000 C 
ATOM      3  C   UNL     1      18.728  16.818  -0.862  0.00  0.00    +0.000 A 
ATOM      4  C   UNL     1      20.050  16.981  -1.263  0.00  0.00    +0.000 A 
ATOM      5  C   UNL     1      20.421  16.784  -2.603  0.00  0.00    +0.000 A 
ATOM      6  C   UNL     1      19.497  16.441  -3.606  0.00  0.00    +0.000 A 
ATOM      7  C   UNL     1      18.170  16.282  -3.164  0.00  0.00    +0.000 A 
ATOM      8  C   UNL     1      17.786  16.474  -1.827  0.00  0.00    +0.000 A 
ENDBRANCH   1   6
BRANCH   1   9
ATOM      9  C   UNL     1      19.297  17.058  -6.019  0.00  0.00    +0.000 C 
BRANCH   9  10
ATOM     10  C   UNL     1      18.618  16.214  -7.125  0.00  0.00    +0.000 C 
ATOM     11  C   UNL     1      17.190  16.688  -7.373  0.00  0.00    +0.000 C 
BRANCH  10  12
ATOM     12  O   UNL     1      19.338  16.311  -8.362  0.00  0.00    +0.000 OA
ATOM     13  H   UNL     1      18.858  15.796  -9.031  0.00  0.00    +0.000 HD
ENDBRANCH  10  12
ENDBRANCH   9  10
ENDBRANCH   1   9
BRANCH   1  14
ATOM     14  C   UNL     1      20.423  14.918  -5.380  0.00  0.00    +0.000 C 
BRANCH  14  15
ATOM     15  C   UNL     1      21.963  14.948  -5.530  0.00  0.00    +0.000 C 
ATOM     16  C   UNL     1      22.664  13.847  -4.743  0.00  0.00    +0.000 C 
BRANCH  15  17
ATOM     17  O   UNL     1      22.361  14.837  -6.896  0.00  0.00    +0.000 OA
ATOM     18  H   UNL     1      23.285  15.158  -6.917  0.00  0.00    +0.000 HD
ENDBRANCH  15  17
ENDBRANCH  14  15
ENDBRANCH   1  14
TORSDOF 7
ENDMDL
