MODEL 1
REMARK VINA RESULT:    -4.687      0.000      0.000
REMARK INTER + INTRA:          -5.142
REMARK INTER:                  -5.098
REMARK INTRA:                  -0.045
REMARK UNBOUND:                -0.045
REMARK  Name = 
REMARK  3 active torsions:
REMARK  status: ('A' for Active; 'I' for Inactive)
REMARK    1  A    between atoms: C_1  and  O_2
REMARK    2  A    between atoms: O_2  and  C_3
REMARK    3  A    between atoms: C_8  and  O_9
REMARK                            x       y       z     vdW  Elec       q    Type
REMARK                         _______ _______ _______ _____ _____    ______ ____
ROOT
ATOM      1  C   UNL     1       3.061  13.927   1.314  0.00  0.00    +0.000 A 
ATOM      2  C   UNL     1       4.345  14.349   0.969  0.00  0.00    +0.000 A 
ATOM      3  C   UNL     1       4.562  15.672   0.566  0.00  0.00    +0.000 A 
ATOM      4  C   UNL     1       3.500  16.577   0.507  0.00  0.00    +0.000 A 
ATOM      5  C   UNL     1       2.215  16.164   0.851  0.00  0.00    +0.000 A 
ATOM      6  C   UNL     1       2.009  14.849   1.248  0.00  0.00    +0.000 A 
ENDROOT
BRANCH   1   8
ATOM      7  C   UNL     1       3.079  12.299   3.044  0.00  0.00    +0.000 C 
ATOM      8  O   UNL     1       2.704  12.667   1.722  0.00  0.00    +0.000 OA
ENDBRANCH   1   8
BRANCH   6   9
ATOM      9  O   UNL     1       0.737  14.466   1.581  0.00  0.00    +0.000 OA
ATOM     10  H   UNL     1       0.675  13.535   1.294  0.00  0.00    +0.000 HD
ENDBRANCH   6   9
TORSDOF 2
ENDMDL
MODEL 2
REMARK VINA RESULT:    -4.332      1.533      3.165
REMARK INTER + INTRA:          -4.757
REMARK INTER:                  -4.713
REMARK INTRA:                  -0.044
REMARK UNBOUND:                -0.045
REMARK  Name = 
REMARK  3 active torsions:
REMARK  status: ('A' for Active; 'I' for Inactive)
REMARK    1  A    between atoms: C_1  and  O_2
REMARK    2  A    between atoms: O_2  and  C_3
REMARK    3  A    between atoms: C_8  and  O_9
REMARK                            x       y       z     vdW  Elec       q    Type
REMARK                         _______ _______ _______ _____ _____    ______ ____
ROOT
ATOM      1  C   UNL     1       2.810  15.143   0.985  0.00  0.00    +0.000 A 
ATOM      2  C   UNL     1       3.907  14.351   0.651  0.00  0.00    +0.000 A 
ATOM      3  C   UNL     1       3.978  13.027   1.105  0.00  0.00    +0.000 A 
ATOM      4  C   UNL     1       2.956  12.493   1.892  0.00  0.00    +0.000 A 
ATOM      5  C   UNL     1       1.857  13.279   2.229  0.00  0.00    +0.000 A 
ATOM      6  C   UNL     1       1.795  14.590   1.775  0.00  0.00    +0.000 A 
ENDROOT
BRANCH   1   8
ATOM      7  C   UNL     1       3.003  16.800  -0.707  0.00  0.00    +0.000 C 
ATOM      8  O   UNL     1       2.609  16.449   0.613  0.00  0.00    +0.000 OA
ENDBRANCH   1   8
BRANCH   6   9
ATOM      9  O   UNL     1       0.704  15.343   2.120  0.00  0.00    +0.000 OA
ATOM     10  H   UNL     1       1.060  16.050   2.692  0.00  0.00    +0.000 HD
ENDBRANCH   6   9
TORSDOF 2
ENDMDL
MODEL 3
REMARK VINA RESULT:    -4.053      1.131      2.700
REMARK INTER + INTRA:          -4.453
REMARK INTER:                  -4.413
REMARK INTRA:                  -0.040
REMARK UNBOUND:                -0.045
REMARK  Name = 
REMARK  3 active torsions:
REMARK  status: ('A' for Active; 'I' for Inactive)
REMARK    1  A    between atoms: C_1  and  O_2
REMARK    2  A    between atoms: O_2  and  C_3
REMARK    3  A    between atoms: C_8  and  O_9
REMARK                            x       y       z     vdW  Elec       q    Type
REMARK                         _______ _______ _______ _____ _____    ______ ____
ROOT
ATOM      1  C   UNL     1       1.676  14.956   1.607  0.00  0.00    +0.000 A 
ATOM      2  C   UNL     1       2.209  16.090   0.997  0.00  0.00    +0.000 A 
ATOM      3  C   UNL     1       3.526  16.075   0.520  0.00  0.00    +0.000 A 
ATOM      4  C   UNL     1       4.313  14.929   0.652  0.00  0.00    +0.000 A 
ATOM      5  C   UNL     1       3.787  13.791   1.260  0.00  0.00    +0.000 A 
ATOM      6  C   UNL     1       2.480  13.816   1.730  0.00  0.00    +0.000 A 
ENDROOT
BRANCH   1   8
ATOM      7  C   UNL     1      -0.231  16.031   2.532  0.00  0.00    +0.000 C 
ATOM      8  O   UNL     1       0.409  14.830   2.118  0.00  0.00    +0.000 OA
ENDBRANCH   1   8
BRANCH   6   9
ATOM      9  O   UNL     1       1.985  12.686   2.324  0.00  0.00    +0.000 OA
ATOM     10  H   UNL     1       1.622  12.157   1.588  0.00  0.00    +0.000 HD
ENDBRANCH   6   9
TORSDOF 2
ENDMDL
MODEL 4
REMARK VINA RESULT:    -3.926      1.907      3.833
REMARK INTER + INTRA:          -4.315
REMARK INTER:                  -4.383
REMARK INTRA:                   0.068
REMARK UNBOUND:                -0.045
REMARK  Name = 
REMARK  3 active torsions:
REMARK  status: ('A' for Active; 'I' for Inactive)
REMARK    1  A    between atoms: C_1  and  O_2
REMARK    2  A    between atoms: O_2  and  C_3
REMARK    3  A    between atoms: C_8  and  O_9
REMARK                            x       y       z     vdW  Elec       q    Type
REMARK                         _______ _______ _______ _____ _____    ______ ____
ROOT
ATOM      1  C   UNL     1       2.792  15.374   1.045  0.00  0.00    +0.000 A 
ATOM      2  C   UNL     1       1.594  14.830   1.507  0.00  0.00    +0.000 A 
ATOM      3  C   UNL     1       1.576  13.541   2.054  0.00  0.00    +0.000 A 
ATOM      4  C   UNL     1       2.752  12.793   2.141  0.00  0.00    +0.000 A 
ATOM      5  C   UNL     1       3.952  13.329   1.681  0.00  0.00    +0.000 A 
ATOM      6  C   UNL     1       3.960  14.608   1.140  0.00  0.00    +0.000 A 
ENDROOT
BRANCH   1   8
ATOM      7  C   UNL     1       2.833  16.700  -0.927  0.00  0.00    +0.000 C 
ATOM      8  O   UNL     1       2.957  16.617   0.488  0.00  0.00    +0.000 OA
ENDBRANCH   1   8
BRANCH   6   9
ATOM      9  O   UNL     1       5.153  15.114   0.695  0.00  0.00    +0.000 OA
ATOM     10  H   UNL     1       5.830  14.674   1.244  0.00  0.00    +0.000 HD
ENDBRANCH   6   9
TORSDOF 2
ENDMDL
MODEL 5
REMARK VINA RESULT:    -3.720      1.524      2.405
REMARK INTER + INTRA:          -4.091
REMARK INTER:                  -4.049
REMARK INTRA:                  -0.042
REMARK UNBOUND:                -0.045
REMARK  Name = 
REMARK  3 active torsions:
REMARK  status: ('A' for Active; 'I' for Inactive)
REMARK    1  A    between atoms: C_1  and  O_2
REMARK    2  A    between atoms: O_2  and  C_3
REMARK    3  A    between atoms: C_8  and  O_9
REMARK                            x       y       z     vdW  Elec       q    Type
REMARK                         _______ _______ _______ _____ _____    ______ ____
ROOT
ATOM      1  C   UNL     1       3.173  13.742   1.432  0.00  0.00    +0.000 A 
ATOM      2  C   UNL     1       1.815  13.756   1.746  0.00  0.00    +0.000 A 
ATOM      3  C   UNL     1       1.084  14.946   1.642  0.00  0.00    +0.000 A 
ATOM      4  C   UNL     1       1.707  16.124   1.224  0.00  0.00    +0.000 A 
ATOM      5  C   UNL     1       3.063  16.118   0.908  0.00  0.00    +0.000 A 
ATOM      6  C   UNL     1       3.780  14.933   1.015  0.00  0.00    +0.000 A 
ENDROOT
BRANCH   1   8
ATOM      7  C   UNL     1       3.727  11.692   2.497  0.00  0.00    +0.000 C 
ATOM      8  O   UNL     1       4.008  12.655   1.488  0.00  0.00    +0.000 OA
ENDBRANCH   1   8
BRANCH   6   9
ATOM      9  O   UNL     1       5.112  14.953   0.699  0.00  0.00    +0.000 OA
ATOM     10  H   UNL     1       5.552  14.510   1.449  0.00  0.00    +0.000 HD
ENDBRANCH   6   9
TORSDOF 2
ENDMDL
MODEL 6
REMARK VINA RESULT:    -3.299     12.176     12.854
REMARK INTER + INTRA:          -3.632
REMARK INTER:                  -3.583
REMARK INTRA:                  -0.050
REMARK UNBOUND:                -0.045
REMARK  Name = 
REMARK  3 active torsions:
REMARK  status: ('A' for Active; 'I' for Inactive)
REMARK    1  A    between atoms: C_1  and  O_2
REMARK    2  A    between atoms: O_2  and  C_3
REMARK    3  A    between atoms: C_8  and  O_9
REMARK                            x       y       z     vdW  Elec       q    Type
REMARK                         _______ _______ _______ _____ _____    ______ ____
ROOT
ATOM      1  C   UNL     1      -1.254  15.093 -10.523  0.00  0.00    +0.000 A 
ATOM      2  C   UNL     1      -2.147  15.585  -9.573  0.00  0.00    +0.000 A 
ATOM      3  C   UNL     1      -2.004  16.891  -9.088  0.00  0.00    +0.000 A 
ATOM      4  C   UNL     1      -0.970  17.708  -9.550  0.00  0.00    +0.000 A 
ATOM      5  C   UNL     1      -0.074  17.223 -10.500  0.00  0.00    +0.000 A 
ATOM      6  C   UNL     1      -0.223  15.926 -10.974  0.00  0.00    +0.000 A 
ENDROOT
BRANCH   1   8
ATOM      7  C   UNL     1      -2.325  13.572 -12.002  0.00  0.00    +0.000 C 
ATOM      8  O   UNL     1      -1.273  13.840 -11.082  0.00  0.00    +0.000 OA
ENDBRANCH   1   8
BRANCH   6   9
ATOM      9  O   UNL     1       0.670  15.472 -11.908  0.00  0.00    +0.000 OA
ATOM     10  H   UNL     1       1.218  16.250 -12.126  0.00  0.00    +0.000 HD
ENDBRANCH   6   9
TORSDOF 2
ENDMDL
MODEL 7
REMARK VINA RESULT:    -3.283     10.281     11.608
REMARK INTER + INTRA:          -3.616
REMARK INTER:                  -3.574
REMARK INTRA:                  -0.042
REMARK UNBOUND:                -0.045
REMARK  Name = 
REMARK  3 active torsions:
REMARK  status: ('A' for Active; 'I' for Inactive)
REMARK    1  A    between atoms: C_1  and  O_2
REMARK    2  A    between atoms: O_2  and  C_3
REMARK    3  A    between atoms: C_8  and  O_9
REMARK                            x       y       z     vdW  Elec       q    Type
REMARK                         _______ _______ _______ _____ _____    ______ ____
ROOT
ATOM      1  C   UNL     1      11.554  21.330  -2.812  0.00  0.00    +0.000 A 
ATOM      2  C   UNL     1      11.553  22.483  -3.596  0.00  0.00    +0.000 A 
ATOM      3  C   UNL     1      10.340  23.086  -3.952  0.00  0.00    +0.000 A 
ATOM      4  C   UNL     1       9.127  22.540  -3.527  0.00  0.00    +0.000 A 
ATOM      5  C   UNL     1       9.120  21.389  -2.743  0.00  0.00    +0.000 A 
ATOM      6  C   UNL     1      10.327  20.798  -2.395  0.00  0.00    +0.000 A 
ENDROOT
BRANCH   1   8
ATOM      7  C   UNL     1      13.773  20.619  -3.276  0.00  0.00    +0.000 C 
ATOM      8  O   UNL     1      12.660  20.637  -2.390  0.00  0.00    +0.000 OA
ENDBRANCH   1   8
BRANCH   6   9
ATOM      9  O   UNL     1      10.295  19.667  -1.624  0.00  0.00    +0.000 OA
ATOM     10  H   UNL     1      10.168  19.991  -0.712  0.00  0.00    +0.000 HD
ENDBRANCH   6   9
TORSDOF 2
ENDMDL
MODEL 8
REMARK VINA RESULT:    -3.255     10.108     11.535
REMARK INTER + INTRA:          -3.585
REMARK INTER:                  -3.535
REMARK INTRA:                  -0.051
REMARK UNBOUND:                -0.045
REMARK  Name = 
REMARK  3 active torsions:
REMARK  status: ('A' for Active; 'I' for Inactive)
REMARK    1  A    between atoms: C_1  and  O_2
REMARK    2  A    between atoms: O_2  and  C_3
REMARK    3  A    between atoms: C_8  and  O_9
REMARK                            x       y       z     vdW  Elec       q    Type
REMARK                         _______ _______ _______ _____ _____    ______ ____
ROOT
ATOM      1  C   UNL     1       9.946  21.667  -3.242  0.00  0.00    +0.000 A 
ATOM      2  C   UNL     1      10.483  22.667  -4.052  0.00  0.00    +0.000 A 
ATOM      3  C   UNL     1      11.870  22.857  -4.100  0.00  0.00    +0.000 A 
ATOM      4  C   UNL     1      12.722  22.053  -3.341  0.00  0.00    +0.000 A 
ATOM      5  C   UNL     1      12.192  21.052  -2.530  0.00  0.00    +0.000 A 
ATOM      6  C   UNL     1      10.816  20.870  -2.488  0.00  0.00    +0.000 A 
ENDROOT
BRANCH   1   8
ATOM      7  C   UNL     1       7.825  22.321  -2.392  0.00  0.00    +0.000 C 
ATOM      8  O   UNL     1       8.614  21.370  -3.097  0.00  0.00    +0.000 OA
ENDBRANCH   1   8
BRANCH   6   9
ATOM      9  O   UNL     1      10.319  19.880  -1.683  0.00  0.00    +0.000 OA
ATOM     10  H   UNL     1      10.939  19.135  -1.794  0.00  0.00    +0.000 HD
ENDBRANCH   6   9
TORSDOF 2
ENDMDL
MODEL 9
REMARK VINA RESULT:    -3.255     11.594     12.726
REMARK INTER + INTRA:          -3.585
REMARK INTER:                  -3.535
REMARK INTRA:                  -0.050
REMARK UNBOUND:                -0.045
REMARK  Name = 
REMARK  3 active torsions:
REMARK  status: ('A' for Active; 'I' for Inactive)
REMARK    1  A    between atoms: C_1  and  O_2
REMARK    2  A    between atoms: O_2  and  C_3
REMARK    3  A    between atoms: C_8  and  O_9
REMARK                            x       y       z     vdW  Elec       q    Type
REMARK                         _______ _______ _______ _____ _____    ______ ____
ROOT
ATOM      1  C   UNL     1       1.868  19.183 -10.536  0.00  0.00    +0.000 A 
ATOM      2  C   UNL     1       1.011  19.067  -9.442  0.00  0.00    +0.000 A 
ATOM      3  C   UNL     1       1.536  19.018  -8.145  0.00  0.00    +0.000 A 
ATOM      4  C   UNL     1       2.915  19.084  -7.936  0.00  0.00    +0.000 A 
ATOM      5  C   UNL     1       3.777  19.201  -9.024  0.00  0.00    +0.000 A 
ATOM      6  C   UNL     1       3.248  19.248 -10.307  0.00  0.00    +0.000 A 
ENDROOT
BRANCH   1   8
ATOM      7  C   UNL     1       0.998  18.038 -12.428  0.00  0.00    +0.000 C 
ATOM      8  O   UNL     1       1.495  19.242 -11.855  0.00  0.00    +0.000 OA
ENDBRANCH   1   8
BRANCH   6   9
ATOM      9  O   UNL     1       4.115  19.363 -11.361  0.00  0.00    +0.000 OA
ATOM     10  H   UNL     1       3.779  18.736 -12.029  0.00  0.00    +0.000 HD
ENDBRANCH   6   9
TORSDOF 2
ENDMDL
