MODEL 1
REMARK VINA RESULT:    -4.260      0.000      0.000
REMARK INTER + INTRA:          -4.673
REMARK INTER:                  -4.634
REMARK INTRA:                  -0.039
REMARK UNBOUND:                -0.039
REMARK  Name = 
REMARK  3 active torsions:
REMARK  status: ('A' for Active; 'I' for Inactive)
REMARK    1  A    between atoms: C_1  and  O_2
REMARK    2  A    between atoms: O_2  and  C_3
REMARK    3  A    between atoms: C_8  and  O_9
REMARK                            x       y       z     vdW  Elec       q    Type
REMARK                         _______ _______ _______ _____ _____    ______ ____
ROOT
ATOM      1  C   UNL     1       2.992  15.912 -13.673  0.00  0.00    +0.000 A 
ATOM      2  C   UNL     1       2.329  16.302 -14.836  0.00  0.00    +0.000 A 
ATOM      3  C   UNL     1       1.399  15.441 -15.433  0.00  0.00    +0.000 A 
ATOM      4  C   UNL     1       1.130  14.191 -14.872  0.00  0.00    +0.000 A 
ATOM      5  C   UNL     1       1.789  13.795 -13.710  0.00  0.00    +0.000 A 
ATOM      6  C   UNL     1       2.709  14.655 -13.125  0.00  0.00    +0.000 A 
ENDROOT
BRANCH   1   8
ATOM      7  C   UNL     1       4.584  17.676 -13.713  0.00  0.00    +0.000 C 
ATOM      8  O   UNL     1       3.922  16.649 -12.985  0.00  0.00    +0.000 OA
ENDBRANCH   1   8
BRANCH   6   9
ATOM      9  O   UNL     1       3.344  14.244 -11.983  0.00  0.00    +0.000 OA
ATOM     10  H   UNL     1       4.180  14.747 -11.968  0.00  0.00    +0.000 HD
ENDBRANCH   6   9
TORSDOF 2
ENDMDL
MODEL 2
REMARK VINA RESULT:    -4.214      2.192      3.575
REMARK INTER + INTRA:          -4.623
REMARK INTER:                  -4.583
REMARK INTRA:                  -0.040
REMARK UNBOUND:                -0.039
REMARK  Name = 
REMARK  3 active torsions:
REMARK  status: ('A' for Active; 'I' for Inactive)
REMARK    1  A    between atoms: C_1  and  O_2
REMARK    2  A    between atoms: O_2  and  C_3
REMARK    3  A    between atoms: C_8  and  O_9
REMARK                            x       y       z     vdW  Elec       q    Type
REMARK                         _______ _______ _______ _____ _____    ______ ____
ROOT
ATOM      1  C   UNL     1       1.550  14.155 -15.147  0.00  0.00    +0.000 A 
ATOM      2  C   UNL     1       2.453  15.065 -15.694  0.00  0.00    +0.000 A 
ATOM      3  C   UNL     1       3.377  15.718 -14.867  0.00  0.00    +0.000 A 
ATOM      4  C   UNL     1       3.400  15.464 -13.494  0.00  0.00    +0.000 A 
ATOM      5  C   UNL     1       2.501  14.555 -12.941  0.00  0.00    +0.000 A 
ATOM      6  C   UNL     1       1.589  13.913 -13.768  0.00  0.00    +0.000 A 
ENDROOT
BRANCH   1   8
ATOM      7  C   UNL     1       1.056  12.345 -16.606  0.00  0.00    +0.000 C 
ATOM      8  O   UNL     1       0.596  13.447 -15.833  0.00  0.00    +0.000 OA
ENDBRANCH   1   8
BRANCH   6   9
ATOM      9  O   UNL     1       0.715  13.024 -13.201  0.00  0.00    +0.000 OA
ATOM     10  H   UNL     1       0.923  13.046 -12.247  0.00  0.00    +0.000 HD
ENDBRANCH   6   9
TORSDOF 2
ENDMDL
MODEL 3
REMARK VINA RESULT:    -4.149     15.959     16.997
REMARK INTER + INTRA:          -4.552
REMARK INTER:                  -4.501
REMARK INTRA:                  -0.051
REMARK UNBOUND:                -0.039
REMARK  Name = 
REMARK  3 active torsions:
REMARK  status: ('A' for Active; 'I' for Inactive)
REMARK    1  A    between atoms: C_1  and  O_2
REMARK    2  A    between atoms: O_2  and  C_3
REMARK    3  A    between atoms: C_8  and  O_9
REMARK                            x       y       z     vdW  Elec       q    Type
REMARK                         _______ _______ _______ _____ _____    ______ ____
ROOT
ATOM      1  C   UNL     1       3.180  17.863   3.015  0.00  0.00    +0.000 A 
ATOM      2  C   UNL     1       3.710  18.847   3.849  0.00  0.00    +0.000 A 
ATOM      3  C   UNL     1       4.507  19.865   3.311  0.00  0.00    +0.000 A 
ATOM      4  C   UNL     1       4.777  19.904   1.941  0.00  0.00    +0.000 A 
ATOM      5  C   UNL     1       4.250  18.925   1.102  0.00  0.00    +0.000 A 
ATOM      6  C   UNL     1       3.461  17.919   1.644  0.00  0.00    +0.000 A 
ENDROOT
BRANCH   1   8
ATOM      7  C   UNL     1       1.174  17.143   4.066  0.00  0.00    +0.000 C 
ATOM      8  O   UNL     1       2.388  16.812   3.403  0.00  0.00    +0.000 OA
ENDBRANCH   1   8
BRANCH   6   9
ATOM      9  O   UNL     1       2.955  16.967   0.799  0.00  0.00    +0.000 OA
ATOM     10  H   UNL     1       1.987  17.087   0.843  0.00  0.00    +0.000 HD
ENDBRANCH   6   9
TORSDOF 2
ENDMDL
MODEL 4
REMARK VINA RESULT:    -4.102      3.267      4.459
REMARK INTER + INTRA:          -4.500
REMARK INTER:                  -4.460
REMARK INTRA:                  -0.040
REMARK UNBOUND:                -0.039
REMARK  Name = 
REMARK  3 active torsions:
REMARK  status: ('A' for Active; 'I' for Inactive)
REMARK    1  A    between atoms: C_1  and  O_2
REMARK    2  A    between atoms: O_2  and  C_3
REMARK    3  A    between atoms: C_8  and  O_9
REMARK                            x       y       z     vdW  Elec       q    Type
REMARK                         _______ _______ _______ _____ _____    ______ ____
ROOT
ATOM      1  C   UNL     1       0.419  12.624 -14.635  0.00  0.00    +0.000 A 
ATOM      2  C   UNL     1       1.108  12.465 -15.836  0.00  0.00    +0.000 A 
ATOM      3  C   UNL     1       0.502  11.799 -16.909  0.00  0.00    +0.000 A 
ATOM      4  C   UNL     1      -0.792  11.290 -16.785  0.00  0.00    +0.000 A 
ATOM      5  C   UNL     1      -1.488  11.445 -15.588  0.00  0.00    +0.000 A 
ATOM      6  C   UNL     1      -0.878  12.106 -14.529  0.00  0.00    +0.000 A 
ENDROOT
BRANCH   1   8
ATOM      7  C   UNL     1       1.878  14.251 -13.703  0.00  0.00    +0.000 C 
ATOM      8  O   UNL     1       0.887  13.250 -13.507  0.00  0.00    +0.000 OA
ENDBRANCH   1   8
BRANCH   6   9
ATOM      9  O   UNL     1      -1.582  12.246 -13.363  0.00  0.00    +0.000 OA
ATOM     10  H   UNL     1      -2.510  12.076 -13.611  0.00  0.00    +0.000 HD
ENDBRANCH   6   9
TORSDOF 2
ENDMDL
MODEL 5
REMARK VINA RESULT:    -4.077     15.115     16.027
REMARK INTER + INTRA:          -4.473
REMARK INTER:                  -4.422
REMARK INTRA:                  -0.052
REMARK UNBOUND:                -0.039
REMARK  Name = 
REMARK  3 active torsions:
REMARK  status: ('A' for Active; 'I' for Inactive)
REMARK    1  A    between atoms: C_1  and  O_2
REMARK    2  A    between atoms: O_2  and  C_3
REMARK    3  A    between atoms: C_8  and  O_9
REMARK                            x       y       z     vdW  Elec       q    Type
REMARK                         _______ _______ _______ _____ _____    ______ ____
ROOT
ATOM      1  C   UNL     1       3.997  18.600   0.990  0.00  0.00    +0.000 A 
ATOM      2  C   UNL     1       4.441  19.875   1.339  0.00  0.00    +0.000 A 
ATOM      3  C   UNL     1       4.461  20.264   2.685  0.00  0.00    +0.000 A 
ATOM      4  C   UNL     1       4.039  19.384   3.683  0.00  0.00    +0.000 A 
ATOM      5  C   UNL     1       3.595  18.108   3.341  0.00  0.00    +0.000 A 
ATOM      6  C   UNL     1       3.578  17.731   2.005  0.00  0.00    +0.000 A 
ENDROOT
BRANCH   1   8
ATOM      7  C   UNL     1       2.927  18.641  -1.131  0.00  0.00    +0.000 C 
ATOM      8  O   UNL     1       3.923  18.087  -0.280  0.00  0.00    +0.000 OA
ENDBRANCH   1   8
BRANCH   6   9
ATOM      9  O   UNL     1       3.137  16.472   1.694  0.00  0.00    +0.000 OA
ATOM     10  H   UNL     1       3.932  15.908   1.754  0.00  0.00    +0.000 HD
ENDBRANCH   6   9
TORSDOF 2
ENDMDL
MODEL 6
REMARK VINA RESULT:    -4.073     15.534     16.367
REMARK INTER + INTRA:          -4.469
REMARK INTER:                  -4.418
REMARK INTRA:                  -0.052
REMARK UNBOUND:                -0.039
REMARK  Name = 
REMARK  3 active torsions:
REMARK  status: ('A' for Active; 'I' for Inactive)
REMARK    1  A    between atoms: C_1  and  O_2
REMARK    2  A    between atoms: O_2  and  C_3
REMARK    3  A    between atoms: C_8  and  O_9
REMARK                            x       y       z     vdW  Elec       q    Type
REMARK                         _______ _______ _______ _____ _____    ______ ____
ROOT
ATOM      1  C   UNL     1       3.986  19.006   1.658  0.00  0.00    +0.000 A 
ATOM      2  C   UNL     1       4.234  19.630   2.880  0.00  0.00    +0.000 A 
ATOM      3  C   UNL     1       3.697  19.097   4.059  0.00  0.00    +0.000 A 
ATOM      4  C   UNL     1       2.912  17.943   4.021  0.00  0.00    +0.000 A 
ATOM      5  C   UNL     1       2.660  17.314   2.804  0.00  0.00    +0.000 A 
ATOM      6  C   UNL     1       3.196  17.850   1.640  0.00  0.00    +0.000 A 
ENDROOT
BRANCH   1   8
ATOM      7  C   UNL     1       4.070  20.724   0.018  0.00  0.00    +0.000 C 
ATOM      8  O   UNL     1       4.444  19.415   0.432  0.00  0.00    +0.000 OA
ENDBRANCH   1   8
BRANCH   6   9
ATOM      9  O   UNL     1       2.935  17.214   0.456  0.00  0.00    +0.000 OA
ATOM     10  H   UNL     1       3.601  17.564  -0.166  0.00  0.00    +0.000 HD
ENDBRANCH   6   9
TORSDOF 2
ENDMDL
MODEL 7
REMARK VINA RESULT:    -3.979     15.816     16.628
REMARK INTER + INTRA:          -4.367
REMARK INTER:                  -4.315
REMARK INTRA:                  -0.053
REMARK UNBOUND:                -0.039
REMARK  Name = 
REMARK  3 active torsions:
REMARK  status: ('A' for Active; 'I' for Inactive)
REMARK    1  A    between atoms: C_1  and  O_2
REMARK    2  A    between atoms: O_2  and  C_3
REMARK    3  A    between atoms: C_8  and  O_9
REMARK                            x       y       z     vdW  Elec       q    Type
REMARK                         _______ _______ _______ _____ _____    ______ ____
ROOT
ATOM      1  C   UNL     1       4.140  18.912   1.691  0.00  0.00    +0.000 A 
ATOM      2  C   UNL     1       3.792  17.576   1.502  0.00  0.00    +0.000 A 
ATOM      3  C   UNL     1       3.220  16.847   2.552  0.00  0.00    +0.000 A 
ATOM      4  C   UNL     1       2.994  17.449   3.792  0.00  0.00    +0.000 A 
ATOM      5  C   UNL     1       3.339  18.784   3.988  0.00  0.00    +0.000 A 
ATOM      6  C   UNL     1       3.906  19.499   2.941  0.00  0.00    +0.000 A 
ENDROOT
BRANCH   1   8
ATOM      7  C   UNL     1       3.897  20.087  -0.360  0.00  0.00    +0.000 C 
ATOM      8  O   UNL     1       4.707  19.743   0.758  0.00  0.00    +0.000 OA
ENDBRANCH   1   8
BRANCH   6   9
ATOM      9  O   UNL     1       4.237  20.810   3.158  0.00  0.00    +0.000 OA
ATOM     10  H   UNL     1       3.401  21.300   3.039  0.00  0.00    +0.000 HD
ENDBRANCH   6   9
TORSDOF 2
ENDMDL
MODEL 8
REMARK VINA RESULT:    -3.925     15.105     15.983
REMARK INTER + INTRA:          -4.309
REMARK INTER:                  -4.262
REMARK INTRA:                  -0.047
REMARK UNBOUND:                -0.039
REMARK  Name = 
REMARK  3 active torsions:
REMARK  status: ('A' for Active; 'I' for Inactive)
REMARK    1  A    between atoms: C_1  and  O_2
REMARK    2  A    between atoms: O_2  and  C_3
REMARK    3  A    between atoms: C_8  and  O_9
REMARK                            x       y       z     vdW  Elec       q    Type
REMARK                         _______ _______ _______ _____ _____    ______ ____
ROOT
ATOM      1  C   UNL     1       1.916  18.285   1.384  0.00  0.00    +0.000 A 
ATOM      2  C   UNL     1       1.064  18.438   2.477  0.00  0.00    +0.000 A 
ATOM      3  C   UNL     1       1.322  17.747   3.667  0.00  0.00    +0.000 A 
ATOM      4  C   UNL     1       2.428  16.902   3.769  0.00  0.00    +0.000 A 
ATOM      5  C   UNL     1       3.285  16.744   2.682  0.00  0.00    +0.000 A 
ATOM      6  C   UNL     1       3.021  17.434   1.505  0.00  0.00    +0.000 A 
ENDROOT
BRANCH   1   8
ATOM      7  C   UNL     1       0.746  18.416  -0.680  0.00  0.00    +0.000 C 
ATOM      8  O   UNL     1       1.786  18.897   0.162  0.00  0.00    +0.000 OA
ENDBRANCH   1   8
BRANCH   6   9
ATOM      9  O   UNL     1       3.877  17.263   0.450  0.00  0.00    +0.000 OA
ATOM     10  H   UNL     1       3.617  17.948  -0.194  0.00  0.00    +0.000 HD
ENDBRANCH   6   9
TORSDOF 2
ENDMDL
MODEL 9
REMARK VINA RESULT:    -3.868     14.054     14.855
REMARK INTER + INTRA:          -4.246
REMARK INTER:                  -4.194
REMARK INTRA:                  -0.052
REMARK UNBOUND:                -0.039
REMARK  Name = 
REMARK  3 active torsions:
REMARK  status: ('A' for Active; 'I' for Inactive)
REMARK    1  A    between atoms: C_1  and  O_2
REMARK    2  A    between atoms: O_2  and  C_3
REMARK    3  A    between atoms: C_8  and  O_9
REMARK                            x       y       z     vdW  Elec       q    Type
REMARK                         _______ _______ _______ _____ _____    ______ ____
ROOT
ATOM      1  C   UNL     1       4.005  19.117   0.851  0.00  0.00    +0.000 A 
ATOM      2  C   UNL     1       4.194  20.323   0.177  0.00  0.00    +0.000 A 
ATOM      3  C   UNL     1       3.524  20.563  -1.028  0.00  0.00    +0.000 A 
ATOM      4  C   UNL     1       2.665  19.602  -1.565  0.00  0.00    +0.000 A 
ATOM      5  C   UNL     1       2.470  18.395  -0.898  0.00  0.00    +0.000 A 
ATOM      6  C   UNL     1       3.139  18.165   0.297  0.00  0.00    +0.000 A 
ENDROOT
BRANCH   1   8
ATOM      7  C   UNL     1       4.298  19.553   3.168  0.00  0.00    +0.000 C 
ATOM      8  O   UNL     1       4.593  18.747   2.034  0.00  0.00    +0.000 OA
ENDBRANCH   1   8
BRANCH   6   9
ATOM      9  O   UNL     1       2.932  16.971   0.935  0.00  0.00    +0.000 OA
ATOM     10  H   UNL     1       2.193  17.142   1.549  0.00  0.00    +0.000 HD
ENDBRANCH   6   9
TORSDOF 2
ENDMDL
