MODEL 1
REMARK VINA RESULT:    -5.303      0.000      0.000
REMARK INTER + INTRA:          -5.816
REMARK INTER:                  -5.768
REMARK INTRA:                  -0.048
REMARK UNBOUND:                -0.048
REMARK  Name = 
REMARK  3 active torsions:
REMARK  status: ('A' for Active; 'I' for Inactive)
REMARK    1  A    between atoms: C_1  and  O_2
REMARK    2  A    between atoms: O_2  and  C_3
REMARK    3  A    between atoms: C_8  and  O_9
REMARK                            x       y       z     vdW  Elec       q    Type
REMARK                         _______ _______ _______ _____ _____    ______ ____
ROOT
ATOM      1  C   UNL     1       9.001   9.423   4.787  0.00  0.00    +0.000 A 
ATOM      2  C   UNL     1      10.139  10.179   4.508  0.00  0.00    +0.000 A 
ATOM      3  C   UNL     1      10.796  10.028   3.281  0.00  0.00    +0.000 A 
ATOM      4  C   UNL     1      10.320   9.123   2.330  0.00  0.00    +0.000 A 
ATOM      5  C   UNL     1       9.184   8.365   2.601  0.00  0.00    +0.000 A 
ATOM      6  C   UNL     1       8.539   8.521   3.821  0.00  0.00    +0.000 A 
ENDROOT
BRANCH   1   8
ATOM      7  C   UNL     1       7.896  10.758   6.413  0.00  0.00    +0.000 C 
ATOM      8  O   UNL     1       8.261   9.467   5.941  0.00  0.00    +0.000 OA
ENDBRANCH   1   8
BRANCH   6   9
ATOM      9  O   UNL     1       7.423   7.764   4.064  0.00  0.00    +0.000 OA
ATOM     10  H   UNL     1       7.720   6.841   3.951  0.00  0.00    +0.000 HD
ENDBRANCH   6   9
TORSDOF 2
ENDMDL
MODEL 2
REMARK VINA RESULT:    -5.120      2.094      3.568
REMARK INTER + INTRA:          -5.616
REMARK INTER:                  -5.577
REMARK INTRA:                  -0.039
REMARK UNBOUND:                -0.048
REMARK  Name = 
REMARK  3 active torsions:
REMARK  status: ('A' for Active; 'I' for Inactive)
REMARK    1  A    between atoms: C_1  and  O_2
REMARK    2  A    between atoms: O_2  and  C_3
REMARK    3  A    between atoms: C_8  and  O_9
REMARK                            x       y       z     vdW  Elec       q    Type
REMARK                         _______ _______ _______ _____ _____    ______ ____
ROOT
ATOM      1  C   UNL     1       8.989   9.250   3.386  0.00  0.00    +0.000 A 
ATOM      2  C   UNL     1       8.548   8.978   4.680  0.00  0.00    +0.000 A 
ATOM      3  C   UNL     1       8.425  10.018   5.611  0.00  0.00    +0.000 A 
ATOM      4  C   UNL     1       8.742  11.330   5.252  0.00  0.00    +0.000 A 
ATOM      5  C   UNL     1       9.182  11.610   3.961  0.00  0.00    +0.000 A 
ATOM      6  C   UNL     1       9.302  10.572   3.045  0.00  0.00    +0.000 A 
ENDROOT
BRANCH   1   8
ATOM      7  C   UNL     1       8.451   7.108   2.510  0.00  0.00    +0.000 C 
ATOM      8  O   UNL     1       9.157   8.336   2.377  0.00  0.00    +0.000 OA
ENDBRANCH   1   8
BRANCH   6   9
ATOM      9  O   UNL     1       9.738  10.872   1.782  0.00  0.00    +0.000 OA
ATOM     10  H   UNL     1       9.498  10.093   1.245  0.00  0.00    +0.000 HD
ENDBRANCH   6   9
TORSDOF 2
ENDMDL
MODEL 3
REMARK VINA RESULT:    -5.085      2.086      2.622
REMARK INTER + INTRA:          -5.579
REMARK INTER:                  -5.540
REMARK INTRA:                  -0.039
REMARK UNBOUND:                -0.048
REMARK  Name = 
REMARK  3 active torsions:
REMARK  status: ('A' for Active; 'I' for Inactive)
REMARK    1  A    between atoms: C_1  and  O_2
REMARK    2  A    between atoms: O_2  and  C_3
REMARK    3  A    between atoms: C_8  and  O_9
REMARK                            x       y       z     vdW  Elec       q    Type
REMARK                         _______ _______ _______ _____ _____    ______ ____
ROOT
ATOM      1  C   UNL     1       8.976  10.194   3.741  0.00  0.00    +0.000 A 
ATOM      2  C   UNL     1       8.251   9.284   4.510  0.00  0.00    +0.000 A 
ATOM      3  C   UNL     1       8.145   7.950   4.099  0.00  0.00    +0.000 A 
ATOM      4  C   UNL     1       8.761   7.520   2.921  0.00  0.00    +0.000 A 
ATOM      5  C   UNL     1       9.487   8.423   2.149  0.00  0.00    +0.000 A 
ATOM      6  C   UNL     1       9.587   9.745   2.564  0.00  0.00    +0.000 A 
ENDROOT
BRANCH   1   8
ATOM      7  C   UNL     1       9.005  11.916   5.379  0.00  0.00    +0.000 C 
ATOM      8  O   UNL     1       9.162  11.524   4.020  0.00  0.00    +0.000 OA
ENDBRANCH   1   8
BRANCH   6   9
ATOM      9  O   UNL     1      10.306  10.614   1.787  0.00  0.00    +0.000 OA
ATOM     10  H   UNL     1      10.836  10.042   1.200  0.00  0.00    +0.000 HD
ENDBRANCH   6   9
TORSDOF 2
ENDMDL
MODEL 4
REMARK VINA RESULT:    -4.997      2.094      3.246
REMARK INTER + INTRA:          -5.483
REMARK INTER:                  -5.457
REMARK INTRA:                  -0.026
REMARK UNBOUND:                -0.048
REMARK  Name = 
REMARK  3 active torsions:
REMARK  status: ('A' for Active; 'I' for Inactive)
REMARK    1  A    between atoms: C_1  and  O_2
REMARK    2  A    between atoms: O_2  and  C_3
REMARK    3  A    between atoms: C_8  and  O_9
REMARK                            x       y       z     vdW  Elec       q    Type
REMARK                         _______ _______ _______ _____ _____    ______ ____
ROOT
ATOM      1  C   UNL     1       9.679   9.988   2.973  0.00  0.00    +0.000 A 
ATOM      2  C   UNL     1       9.382  10.666   4.155  0.00  0.00    +0.000 A 
ATOM      3  C   UNL     1       8.646  10.029   5.161  0.00  0.00    +0.000 A 
ATOM      4  C   UNL     1       8.204   8.715   4.991  0.00  0.00    +0.000 A 
ATOM      5  C   UNL     1       8.497   8.031   3.813  0.00  0.00    +0.000 A 
ATOM      6  C   UNL     1       9.228   8.671   2.820  0.00  0.00    +0.000 A 
ENDROOT
BRANCH   1   8
ATOM      7  C   UNL     1      11.803  10.504   2.041  0.00  0.00    +0.000 C 
ATOM      8  O   UNL     1      10.387  10.486   1.908  0.00  0.00    +0.000 OA
ENDBRANCH   1   8
BRANCH   6   9
ATOM      9  O   UNL     1       9.503   7.979   1.672  0.00  0.00    +0.000 OA
ATOM     10  H   UNL     1       9.659   7.061   1.966  0.00  0.00    +0.000 HD
ENDBRANCH   6   9
TORSDOF 2
ENDMDL
MODEL 5
REMARK VINA RESULT:    -4.932      1.351      2.064
REMARK INTER + INTRA:          -5.412
REMARK INTER:                  -5.453
REMARK INTRA:                   0.041
REMARK UNBOUND:                -0.048
REMARK  Name = 
REMARK  3 active torsions:
REMARK  status: ('A' for Active; 'I' for Inactive)
REMARK    1  A    between atoms: C_1  and  O_2
REMARK    2  A    between atoms: O_2  and  C_3
REMARK    3  A    between atoms: C_8  and  O_9
REMARK                            x       y       z     vdW  Elec       q    Type
REMARK                         _______ _______ _______ _____ _____    ______ ____
ROOT
ATOM      1  C   UNL     1       9.514   9.740   4.054  0.00  0.00    +0.000 A 
ATOM      2  C   UNL     1      10.059   9.387   2.820  0.00  0.00    +0.000 A 
ATOM      3  C   UNL     1       9.605   8.239   2.158  0.00  0.00    +0.000 A 
ATOM      4  C   UNL     1       8.609   7.442   2.725  0.00  0.00    +0.000 A 
ATOM      5  C   UNL     1       8.060   7.788   3.958  0.00  0.00    +0.000 A 
ATOM      6  C   UNL     1       8.517   8.928   4.608  0.00  0.00    +0.000 A 
ENDROOT
BRANCH   1   8
ATOM      7  C   UNL     1       9.153  12.036   4.550  0.00  0.00    +0.000 C 
ATOM      8  O   UNL     1       9.861  10.830   4.812  0.00  0.00    +0.000 OA
ENDBRANCH   1   8
BRANCH   6   9
ATOM      9  O   UNL     1       7.962   9.247   5.818  0.00  0.00    +0.000 OA
ATOM     10  H   UNL     1       8.699   9.181   6.454  0.00  0.00    +0.000 HD
ENDBRANCH   6   9
TORSDOF 2
ENDMDL
MODEL 6
REMARK VINA RESULT:    -4.897      1.212      1.863
REMARK INTER + INTRA:          -5.374
REMARK INTER:                  -5.397
REMARK INTRA:                   0.023
REMARK UNBOUND:                -0.048
REMARK  Name = 
REMARK  3 active torsions:
REMARK  status: ('A' for Active; 'I' for Inactive)
REMARK    1  A    between atoms: C_1  and  O_2
REMARK    2  A    between atoms: O_2  and  C_3
REMARK    3  A    between atoms: C_8  and  O_9
REMARK                            x       y       z     vdW  Elec       q    Type
REMARK                         _______ _______ _______ _____ _____    ______ ____
ROOT
ATOM      1  C   UNL     1       9.585  10.372   4.671  0.00  0.00    +0.000 A 
ATOM      2  C   UNL     1      10.416  10.193   3.567  0.00  0.00    +0.000 A 
ATOM      3  C   UNL     1      10.201   9.116   2.697  0.00  0.00    +0.000 A 
ATOM      4  C   UNL     1       9.158   8.217   2.927  0.00  0.00    +0.000 A 
ATOM      5  C   UNL     1       8.323   8.390   4.029  0.00  0.00    +0.000 A 
ATOM      6  C   UNL     1       8.544   9.460   4.886  0.00  0.00    +0.000 A 
ENDROOT
BRANCH   1   8
ATOM      7  C   UNL     1      10.556  11.145   6.698  0.00  0.00    +0.000 C 
ATOM      8  O   UNL     1       9.678  11.375   5.602  0.00  0.00    +0.000 OA
ENDBRANCH   1   8
BRANCH   6   9
ATOM      9  O   UNL     1       7.710   9.609   5.962  0.00  0.00    +0.000 OA
ATOM     10  H   UNL     1       8.287   9.496   6.741  0.00  0.00    +0.000 HD
ENDBRANCH   6   9
TORSDOF 2
ENDMDL
MODEL 7
REMARK VINA RESULT:    -4.700      1.393      2.960
REMARK INTER + INTRA:          -5.160
REMARK INTER:                  -5.122
REMARK INTRA:                  -0.037
REMARK UNBOUND:                -0.048
REMARK  Name = 
REMARK  3 active torsions:
REMARK  status: ('A' for Active; 'I' for Inactive)
REMARK    1  A    between atoms: C_1  and  O_2
REMARK    2  A    between atoms: O_2  and  C_3
REMARK    3  A    between atoms: C_8  and  O_9
REMARK                            x       y       z     vdW  Elec       q    Type
REMARK                         _______ _______ _______ _____ _____    ______ ____
ROOT
ATOM      1  C   UNL     1       8.713   9.228   3.920  0.00  0.00    +0.000 A 
ATOM      2  C   UNL     1       9.199   9.816   2.753  0.00  0.00    +0.000 A 
ATOM      3  C   UNL     1       9.470  11.190   2.723  0.00  0.00    +0.000 A 
ATOM      4  C   UNL     1       9.256  11.979   3.855  0.00  0.00    +0.000 A 
ATOM      5  C   UNL     1       8.771  11.398   5.024  0.00  0.00    +0.000 A 
ATOM      6  C   UNL     1       8.504  10.035   5.045  0.00  0.00    +0.000 A 
ENDROOT
BRANCH   1   8
ATOM      7  C   UNL     1       8.503   7.073   2.941  0.00  0.00    +0.000 C 
ATOM      8  O   UNL     1       8.404   7.902   4.092  0.00  0.00    +0.000 OA
ENDBRANCH   1   8
BRANCH   6   9
ATOM      9  O   UNL     1       8.028   9.487   6.206  0.00  0.00    +0.000 OA
ATOM     10  H   UNL     1       7.918   8.538   6.006  0.00  0.00    +0.000 HD
ENDBRANCH   6   9
TORSDOF 2
ENDMDL
MODEL 8
REMARK VINA RESULT:    -4.639      1.475      2.398
REMARK INTER + INTRA:          -5.093
REMARK INTER:                  -5.050
REMARK INTRA:                  -0.044
REMARK UNBOUND:                -0.048
REMARK  Name = 
REMARK  3 active torsions:
REMARK  status: ('A' for Active; 'I' for Inactive)
REMARK    1  A    between atoms: C_1  and  O_2
REMARK    2  A    between atoms: O_2  and  C_3
REMARK    3  A    between atoms: C_8  and  O_9
REMARK                            x       y       z     vdW  Elec       q    Type
REMARK                         _______ _______ _______ _____ _____    ______ ____
ROOT
ATOM      1  C   UNL     1       8.380  10.058   4.933  0.00  0.00    +0.000 A 
ATOM      2  C   UNL     1       8.379   8.755   4.438  0.00  0.00    +0.000 A 
ATOM      3  C   UNL     1       9.118   8.442   3.290  0.00  0.00    +0.000 A 
ATOM      4  C   UNL     1       9.858   9.428   2.634  0.00  0.00    +0.000 A 
ATOM      5  C   UNL     1       9.864  10.732   3.123  0.00  0.00    +0.000 A 
ATOM      6  C   UNL     1       9.128  11.033   4.262  0.00  0.00    +0.000 A 
ENDROOT
BRANCH   1   8
ATOM      7  C   UNL     1       8.242  10.130   7.305  0.00  0.00    +0.000 C 
ATOM      8  O   UNL     1       7.706  10.505   6.041  0.00  0.00    +0.000 OA
ENDBRANCH   1   8
BRANCH   6   9
ATOM      9  O   UNL     1       9.150  12.322   4.724  0.00  0.00    +0.000 OA
ATOM     10  H   UNL     1      10.095  12.519   4.867  0.00  0.00    +0.000 HD
ENDBRANCH   6   9
TORSDOF 2
ENDMDL
MODEL 9
REMARK VINA RESULT:    -4.611      1.424      3.283
REMARK INTER + INTRA:          -5.063
REMARK INTER:                  -5.010
REMARK INTRA:                  -0.053
REMARK UNBOUND:                -0.048
REMARK  Name = 
REMARK  3 active torsions:
REMARK  status: ('A' for Active; 'I' for Inactive)
REMARK    1  A    between atoms: C_1  and  O_2
REMARK    2  A    between atoms: O_2  and  C_3
REMARK    3  A    between atoms: C_8  and  O_9
REMARK                            x       y       z     vdW  Elec       q    Type
REMARK                         _______ _______ _______ _____ _____    ______ ____
ROOT
ATOM      1  C   UNL     1       8.870  10.081   3.865  0.00  0.00    +0.000 A 
ATOM      2  C   UNL     1       9.120  11.446   4.003  0.00  0.00    +0.000 A 
ATOM      3  C   UNL     1       8.904  12.076   5.235  0.00  0.00    +0.000 A 
ATOM      4  C   UNL     1       8.439  11.346   6.331  0.00  0.00    +0.000 A 
ATOM      5  C   UNL     1       8.188   9.982   6.201  0.00  0.00    +0.000 A 
ATOM      6  C   UNL     1       8.404   9.366   4.975  0.00  0.00    +0.000 A 
ENDROOT
BRANCH   1   8
ATOM      7  C   UNL     1      10.372   9.160   2.271  0.00  0.00    +0.000 C 
ATOM      8  O   UNL     1       9.035   9.338   2.724  0.00  0.00    +0.000 OA
ENDBRANCH   1   8
BRANCH   6   9
ATOM      9  O   UNL     1       8.150   8.025   4.872  0.00  0.00    +0.000 OA
ATOM     10  H   UNL     1       7.196   7.937   5.060  0.00  0.00    +0.000 HD
ENDBRANCH   6   9
TORSDOF 2
ENDMDL
