MODEL 1
REMARK VINA RESULT:    -3.983      0.000      0.000
REMARK INTER + INTRA:          -5.964
REMARK INTER:                  -5.380
REMARK INTRA:                  -0.584
REMARK UNBOUND:                -0.584
REMARK  Name = 
REMARK  10 active torsions:
REMARK  status: ('A' for Active; 'I' for Inactive)
REMARK    1  A    between atoms: C_1  and  C_2
REMARK    2  A    between atoms: C_5  and  N_8
REMARK    3  A    between atoms: N_8  and  C_9
REMARK    4  A    between atoms: N_8  and  C_13
REMARK    5  A    between atoms: C_9  and  C_10
REMARK    6  A    between atoms: C_10  and  C_11
REMARK    7  A    between atoms: C_10  and  O_12
REMARK    8  A    between atoms: C_13  and  C_14
REMARK    9  A    between atoms: C_14  and  C_15
REMARK   10  A    between atoms: C_14  and  O_16
REMARK                            x       y       z     vdW  Elec       q    Type
REMARK                         _______ _______ _______ _____ _____    ______ ____
ROOT
ATOM      1  N   UNL     1       1.582  16.028  -0.395  0.00  0.00    +0.000 N 
ENDROOT
BRANCH   1   6
ATOM      2  C   UNL     1       7.052  17.531   0.675  0.00  0.00    +0.000 C 
ATOM      3  C   UNL     1       5.640  17.132   0.375  0.00  0.00    +0.000 A 
ATOM      4  C   UNL     1       4.754  18.029  -0.212  0.00  0.00    +0.000 A 
ATOM      5  C   UNL     1       3.422  17.660  -0.463  0.00  0.00    +0.000 A 
ATOM      6  C   UNL     1       2.906  16.396  -0.123  0.00  0.00    +0.000 A 
ATOM      7  C   UNL     1       3.830  15.515   0.466  0.00  0.00    +0.000 A 
ATOM      8  C   UNL     1       5.165  15.871   0.721  0.00  0.00    +0.000 A 
ENDBRANCH   1   6
BRANCH   1   9
ATOM      9  C   UNL     1       0.767  15.361   0.650  0.00  0.00    +0.000 C 
BRANCH   9  10
ATOM     10  C   UNL     1       0.406  16.306   1.822  0.00  0.00    +0.000 C 
ATOM     11  C   UNL     1      -0.237  17.589   1.311  0.00  0.00    +0.000 C 
BRANCH  10  12
ATOM     12  O   UNL     1      -0.514  15.677   2.725  0.00  0.00    +0.000 OA
ATOM     13  H   UNL     1      -0.398  14.715   2.652  0.00  0.00    +0.000 HD
ENDBRANCH  10  12
ENDBRANCH   9  10
ENDBRANCH   1   9
BRANCH   1  14
ATOM     14  C   UNL     1       1.116  15.804  -1.787  0.00  0.00    +0.000 C 
BRANCH  14  15
ATOM     15  C   UNL     1      -0.401  16.063  -1.944  0.00  0.00    +0.000 C 
ATOM     16  C   UNL     1      -0.723  17.472  -2.428  0.00  0.00    +0.000 C 
BRANCH  15  17
ATOM     17  O   UNL     1      -1.003  15.138  -2.848  0.00  0.00    +0.000 OA
ATOM     18  H   UNL     1      -1.964  15.311  -2.785  0.00  0.00    +0.000 HD
ENDBRANCH  15  17
ENDBRANCH  14  15
ENDBRANCH   1  14
TORSDOF 7
ENDMDL
MODEL 2
REMARK VINA RESULT:    -3.974      4.164      6.888
REMARK INTER + INTRA:          -5.952
REMARK INTER:                  -5.471
REMARK INTRA:                  -0.480
REMARK UNBOUND:                -0.584
REMARK  Name = 
REMARK  10 active torsions:
REMARK  status: ('A' for Active; 'I' for Inactive)
REMARK    1  A    between atoms: C_1  and  C_2
REMARK    2  A    between atoms: C_5  and  N_8
REMARK    3  A    between atoms: N_8  and  C_9
REMARK    4  A    between atoms: N_8  and  C_13
REMARK    5  A    between atoms: C_9  and  C_10
REMARK    6  A    between atoms: C_10  and  C_11
REMARK    7  A    between atoms: C_10  and  O_12
REMARK    8  A    between atoms: C_13  and  C_14
REMARK    9  A    between atoms: C_14  and  C_15
REMARK   10  A    between atoms: C_14  and  O_16
REMARK                            x       y       z     vdW  Elec       q    Type
REMARK                         _______ _______ _______ _____ _____    ______ ____
ROOT
ATOM      1  N   UNL     1       6.594  16.842   2.928  0.00  0.00    +0.000 N 
ENDROOT
BRANCH   1   6
ATOM      2  C   UNL     1       2.189  16.924  -0.803  0.00  0.00    +0.000 C 
ATOM      3  C   UNL     1       3.347  16.913   0.148  0.00  0.00    +0.000 A 
ATOM      4  C   UNL     1       4.172  15.799   0.255  0.00  0.00    +0.000 A 
ATOM      5  C   UNL     1       5.238  15.782   1.169  0.00  0.00    +0.000 A 
ATOM      6  C   UNL     1       5.518  16.857   2.032  0.00  0.00    +0.000 A 
ATOM      7  C   UNL     1       4.665  17.968   1.895  0.00  0.00    +0.000 A 
ATOM      8  C   UNL     1       3.596  17.998   0.983  0.00  0.00    +0.000 A 
ENDBRANCH   1   6
BRANCH   1   9
ATOM      9  C   UNL     1       6.450  16.190   4.252  0.00  0.00    +0.000 C 
BRANCH   9  10
ATOM     10  C   UNL     1       7.071  14.773   4.294  0.00  0.00    +0.000 C 
ATOM     11  C   UNL     1       7.587  14.445   5.690  0.00  0.00    +0.000 C 
BRANCH  10  12
ATOM     12  O   UNL     1       6.105  13.776   3.931  0.00  0.00    +0.000 OA
ATOM     13  H   UNL     1       5.901  13.884   2.988  0.00  0.00    +0.000 HD
ENDBRANCH  10  12
ENDBRANCH   9  10
ENDBRANCH   1   9
BRANCH   1  14
ATOM     14  C   UNL     1       7.679  17.854   2.844  0.00  0.00    +0.000 C 
BRANCH  14  15
ATOM     15  C   UNL     1       8.514  17.709   1.550  0.00  0.00    +0.000 C 
ATOM     16  C   UNL     1       9.339  18.950   1.227  0.00  0.00    +0.000 C 
BRANCH  15  17
ATOM     17  O   UNL     1       9.402  16.594   1.617  0.00  0.00    +0.000 OA
ATOM     18  H   UNL     1       9.242  16.196   2.497  0.00  0.00    +0.000 HD
ENDBRANCH  15  17
ENDBRANCH  14  15
ENDBRANCH   1  14
TORSDOF 7
ENDMDL
MODEL 3
REMARK VINA RESULT:    -3.962      3.240      5.870
REMARK INTER + INTRA:          -5.936
REMARK INTER:                  -5.426
REMARK INTRA:                  -0.509
REMARK UNBOUND:                -0.584
REMARK  Name = 
REMARK  10 active torsions:
REMARK  status: ('A' for Active; 'I' for Inactive)
REMARK    1  A    between atoms: C_1  and  C_2
REMARK    2  A    between atoms: C_5  and  N_8
REMARK    3  A    between atoms: N_8  and  C_9
REMARK    4  A    between atoms: N_8  and  C_13
REMARK    5  A    between atoms: C_9  and  C_10
REMARK    6  A    between atoms: C_10  and  C_11
REMARK    7  A    between atoms: C_10  and  O_12
REMARK    8  A    between atoms: C_13  and  C_14
REMARK    9  A    between atoms: C_14  and  C_15
REMARK   10  A    between atoms: C_14  and  O_16
REMARK                            x       y       z     vdW  Elec       q    Type
REMARK                         _______ _______ _______ _____ _____    ______ ____
ROOT
ATOM      1  N   UNL     1       6.205  16.545   1.294  0.00  0.00    +0.000 N 
ENDROOT
BRANCH   1   6
ATOM      2  C   UNL     1       9.891  20.552  -0.626  0.00  0.00    +0.000 C 
ATOM      3  C   UNL     1       8.915  19.528  -0.133  0.00  0.00    +0.000 A 
ATOM      4  C   UNL     1       8.557  19.471   1.210  0.00  0.00    +0.000 A 
ATOM      5  C   UNL     1       7.665  18.489   1.672  0.00  0.00    +0.000 A 
ATOM      6  C   UNL     1       7.109  17.509   0.830  0.00  0.00    +0.000 A 
ATOM      7  C   UNL     1       7.492  17.598  -0.521  0.00  0.00    +0.000 A 
ATOM      8  C   UNL     1       8.381  18.576  -0.997  0.00  0.00    +0.000 A 
ENDBRANCH   1   6
BRANCH   1   9
ATOM      9  C   UNL     1       5.347  15.809   0.335  0.00  0.00    +0.000 C 
BRANCH   9  10
ATOM     10  C   UNL     1       3.839  15.923   0.669  0.00  0.00    +0.000 C 
ATOM     11  C   UNL     1       3.124  16.813  -0.341  0.00  0.00    +0.000 C 
BRANCH  10  12
ATOM     12  O   UNL     1       3.208  14.635   0.651  0.00  0.00    +0.000 OA
ATOM     13  H   UNL     1       2.249  14.768   0.729  0.00  0.00    +0.000 HD
ENDBRANCH  10  12
ENDBRANCH   9  10
ENDBRANCH   1   9
BRANCH   1  14
ATOM     14  C   UNL     1       5.698  16.575   2.690  0.00  0.00    +0.000 C 
BRANCH  14  15
ATOM     15  C   UNL     1       6.498  15.633   3.622  0.00  0.00    +0.000 C 
ATOM     16  C   UNL     1       6.501  16.088   5.076  0.00  0.00    +0.000 C 
BRANCH  15  17
ATOM     17  O   UNL     1       5.996  14.298   3.578  0.00  0.00    +0.000 OA
ATOM     18  H   UNL     1       5.830  14.121   2.630  0.00  0.00    +0.000 HD
ENDBRANCH  15  17
ENDBRANCH  14  15
ENDBRANCH   1  14
TORSDOF 7
ENDMDL
MODEL 4
REMARK VINA RESULT:    -3.945      3.610      6.222
REMARK INTER + INTRA:          -5.913
REMARK INTER:                  -5.380
REMARK INTRA:                  -0.533
REMARK UNBOUND:                -0.584
REMARK  Name = 
REMARK  10 active torsions:
REMARK  status: ('A' for Active; 'I' for Inactive)
REMARK    1  A    between atoms: C_1  and  C_2
REMARK    2  A    between atoms: C_5  and  N_8
REMARK    3  A    between atoms: N_8  and  C_9
REMARK    4  A    between atoms: N_8  and  C_13
REMARK    5  A    between atoms: C_9  and  C_10
REMARK    6  A    between atoms: C_10  and  C_11
REMARK    7  A    between atoms: C_10  and  O_12
REMARK    8  A    between atoms: C_13  and  C_14
REMARK    9  A    between atoms: C_14  and  C_15
REMARK   10  A    between atoms: C_14  and  O_16
REMARK                            x       y       z     vdW  Elec       q    Type
REMARK                         _______ _______ _______ _____ _____    ______ ____
ROOT
ATOM      1  N   UNL     1       5.785  17.131   1.530  0.00  0.00    +0.000 N 
ENDROOT
BRANCH   1   6
ATOM      2  C   UNL     1       1.105  16.176  -1.712  0.00  0.00    +0.000 C 
ATOM      3  C   UNL     1       2.305  16.434  -0.853  0.00  0.00    +0.000 A 
ATOM      4  C   UNL     1       3.027  17.617  -0.970  0.00  0.00    +0.000 A 
ATOM      5  C   UNL     1       4.168  17.840  -0.183  0.00  0.00    +0.000 A 
ATOM      6  C   UNL     1       4.657  16.893   0.735  0.00  0.00    +0.000 A 
ATOM      7  C   UNL     1       3.902  15.710   0.828  0.00  0.00    +0.000 A 
ATOM      8  C   UNL     1       2.757  15.475   0.049  0.00  0.00    +0.000 A 
ENDBRANCH   1   6
BRANCH   1   9
ATOM      9  C   UNL     1       5.759  16.799   2.975  0.00  0.00    +0.000 C 
BRANCH   9  10
ATOM     10  C   UNL     1       6.734  15.654   3.346  0.00  0.00    +0.000 C 
ATOM     11  C   UNL     1       7.563  16.019   4.571  0.00  0.00    +0.000 C 
BRANCH  10  12
ATOM     12  O   UNL     1       6.019  14.445   3.637  0.00  0.00    +0.000 OA
ATOM     13  H   UNL     1       5.599  14.546   4.507  0.00  0.00    +0.000 HD
ENDBRANCH  10  12
ENDBRANCH   9  10
ENDBRANCH   1   9
BRANCH   1  14
ATOM     14  C   UNL     1       6.803  18.139   1.139  0.00  0.00    +0.000 C 
BRANCH  14  15
ATOM     15  C   UNL     1       7.945  17.522   0.297  0.00  0.00    +0.000 C 
ATOM     16  C   UNL     1       8.422  18.434  -0.827  0.00  0.00    +0.000 C 
BRANCH  15  17
ATOM     17  O   UNL     1       9.073  17.186   1.103  0.00  0.00    +0.000 OA
ATOM     18  H   UNL     1       8.743  17.214   2.023  0.00  0.00    +0.000 HD
ENDBRANCH  15  17
ENDBRANCH  14  15
ENDBRANCH   1  14
TORSDOF 7
ENDMDL
MODEL 5
REMARK VINA RESULT:    -3.945      4.040      6.775
REMARK INTER + INTRA:          -5.912
REMARK INTER:                  -5.295
REMARK INTRA:                  -0.617
REMARK UNBOUND:                -0.584
REMARK  Name = 
REMARK  10 active torsions:
REMARK  status: ('A' for Active; 'I' for Inactive)
REMARK    1  A    between atoms: C_1  and  C_2
REMARK    2  A    between atoms: C_5  and  N_8
REMARK    3  A    between atoms: N_8  and  C_9
REMARK    4  A    between atoms: N_8  and  C_13
REMARK    5  A    between atoms: C_9  and  C_10
REMARK    6  A    between atoms: C_10  and  C_11
REMARK    7  A    between atoms: C_10  and  O_12
REMARK    8  A    between atoms: C_13  and  C_14
REMARK    9  A    between atoms: C_14  and  C_15
REMARK   10  A    between atoms: C_14  and  O_16
REMARK                            x       y       z     vdW  Elec       q    Type
REMARK                         _______ _______ _______ _____ _____    ______ ____
ROOT
ATOM      1  N   UNL     1       6.467  17.550   0.859  0.00  0.00    +0.000 N 
ENDROOT
BRANCH   1   6
ATOM      2  C   UNL     1       1.218  15.831  -0.821  0.00  0.00    +0.000 C 
ATOM      3  C   UNL     1       2.589  16.269  -0.406  0.00  0.00    +0.000 A 
ATOM      4  C   UNL     1       3.408  15.433   0.346  0.00  0.00    +0.000 A 
ATOM      5  C   UNL     1       4.682  15.860   0.757  0.00  0.00    +0.000 A 
ATOM      6  C   UNL     1       5.188  17.138   0.462  0.00  0.00    +0.000 A 
ATOM      7  C   UNL     1       4.334  17.955  -0.302  0.00  0.00    +0.000 A 
ATOM      8  C   UNL     1       3.060  17.540  -0.721  0.00  0.00    +0.000 A 
ENDBRANCH   1   6
BRANCH   1   9
ATOM      9  C   UNL     1       7.019  17.108   2.162  0.00  0.00    +0.000 C 
BRANCH   9  10
ATOM     10  C   UNL     1       8.500  17.516   2.355  0.00  0.00    +0.000 C 
ATOM     11  C   UNL     1       8.877  17.516   3.832  0.00  0.00    +0.000 C 
BRANCH  10  12
ATOM     12  O   UNL     1       9.377  16.608   1.673  0.00  0.00    +0.000 OA
ATOM     13  H   UNL     1       9.893  17.117   1.026  0.00  0.00    +0.000 HD
ENDBRANCH  10  12
ENDBRANCH   9  10
ENDBRANCH   1   9
BRANCH   1  14
ATOM     14  C   UNL     1       7.084  18.783   0.305  0.00  0.00    +0.000 C 
BRANCH  14  15
ATOM     15  C   UNL     1       7.853  18.511  -1.010  0.00  0.00    +0.000 C 
ATOM     16  C   UNL     1       9.070  19.410  -1.190  0.00  0.00    +0.000 C 
BRANCH  15  17
ATOM     17  O   UNL     1       8.290  17.155  -1.095  0.00  0.00    +0.000 OA
ATOM     18  H   UNL     1       7.968  16.734  -0.272  0.00  0.00    +0.000 HD
ENDBRANCH  15  17
ENDBRANCH  14  15
ENDBRANCH   1  14
TORSDOF 7
ENDMDL
MODEL 6
REMARK VINA RESULT:    -3.814      3.862      6.593
REMARK INTER + INTRA:          -5.736
REMARK INTER:                  -5.032
REMARK INTRA:                  -0.704
REMARK UNBOUND:                -0.584
REMARK  Name = 
REMARK  10 active torsions:
REMARK  status: ('A' for Active; 'I' for Inactive)
REMARK    1  A    between atoms: C_1  and  C_2
REMARK    2  A    between atoms: C_5  and  N_8
REMARK    3  A    between atoms: N_8  and  C_9
REMARK    4  A    between atoms: N_8  and  C_13
REMARK    5  A    between atoms: C_9  and  C_10
REMARK    6  A    between atoms: C_10  and  C_11
REMARK    7  A    between atoms: C_10  and  O_12
REMARK    8  A    between atoms: C_13  and  C_14
REMARK    9  A    between atoms: C_14  and  C_15
REMARK   10  A    between atoms: C_14  and  O_16
REMARK                            x       y       z     vdW  Elec       q    Type
REMARK                         _______ _______ _______ _____ _____    ______ ____
ROOT
ATOM      1  N   UNL     1       5.367  16.861   1.350  0.00  0.00    +0.000 N 
ENDROOT
BRANCH   1   6
ATOM      2  C   UNL     1       0.669  16.040  -1.902  0.00  0.00    +0.000 C 
ATOM      3  C   UNL     1       1.873  16.261  -1.040  0.00  0.00    +0.000 A 
ATOM      4  C   UNL     1       2.568  17.465  -1.079  0.00  0.00    +0.000 A 
ATOM      5  C   UNL     1       3.714  17.657  -0.290  0.00  0.00    +0.000 A 
ATOM      6  C   UNL     1       4.235  16.657   0.552  0.00  0.00    +0.000 A 
ATOM      7  C   UNL     1       3.506  15.454   0.567  0.00  0.00    +0.000 A 
ATOM      8  C   UNL     1       2.357  15.250  -0.215  0.00  0.00    +0.000 A 
ENDBRANCH   1   6
BRANCH   1   9
ATOM      9  C   UNL     1       6.354  17.906   0.986  0.00  0.00    +0.000 C 
BRANCH   9  10
ATOM     10  C   UNL     1       7.394  17.415  -0.051  0.00  0.00    +0.000 C 
ATOM     11  C   UNL     1       7.594  18.448  -1.154  0.00  0.00    +0.000 C 
BRANCH  10  12
ATOM     12  O   UNL     1       8.665  17.176   0.569  0.00  0.00    +0.000 OA
ATOM     13  H   UNL     1       8.710  17.707   1.381  0.00  0.00    +0.000 HD
ENDBRANCH  10  12
ENDBRANCH   9  10
ENDBRANCH   1   9
BRANCH   1  14
ATOM     14  C   UNL     1       5.892  15.786   2.229  0.00  0.00    +0.000 C 
BRANCH  14  15
ATOM     15  C   UNL     1       6.729  16.347   3.403  0.00  0.00    +0.000 C 
ATOM     16  C   UNL     1       6.239  15.879   4.768  0.00  0.00    +0.000 C 
BRANCH  15  17
ATOM     17  O   UNL     1       8.107  15.995   3.285  0.00  0.00    +0.000 OA
ATOM     18  H   UNL     1       8.105  15.049   3.038  0.00  0.00    +0.000 HD
ENDBRANCH  15  17
ENDBRANCH  14  15
ENDBRANCH   1  14
TORSDOF 7
ENDMDL
MODEL 7
REMARK VINA RESULT:    -3.803      5.184      7.269
REMARK INTER + INTRA:          -5.720
REMARK INTER:                  -5.245
REMARK INTRA:                  -0.475
REMARK UNBOUND:                -0.584
REMARK  Name = 
REMARK  10 active torsions:
REMARK  status: ('A' for Active; 'I' for Inactive)
REMARK    1  A    between atoms: C_1  and  C_2
REMARK    2  A    between atoms: C_5  and  N_8
REMARK    3  A    between atoms: N_8  and  C_9
REMARK    4  A    between atoms: N_8  and  C_13
REMARK    5  A    between atoms: C_9  and  C_10
REMARK    6  A    between atoms: C_10  and  C_11
REMARK    7  A    between atoms: C_10  and  O_12
REMARK    8  A    between atoms: C_13  and  C_14
REMARK    9  A    between atoms: C_14  and  C_15
REMARK   10  A    between atoms: C_14  and  O_16
REMARK                            x       y       z     vdW  Elec       q    Type
REMARK                         _______ _______ _______ _____ _____    ______ ____
ROOT
ATOM      1  N   UNL     1       6.573  16.858   3.254  0.00  0.00    +0.000 N 
ENDROOT
BRANCH   1   6
ATOM      2  C   UNL     1       7.094  13.325   7.790  0.00  0.00    +0.000 C 
ATOM      3  C   UNL     1       6.978  14.255   6.621  0.00  0.00    +0.000 A 
ATOM      4  C   UNL     1       6.156  15.375   6.678  0.00  0.00    +0.000 A 
ATOM      5  C   UNL     1       6.029  16.227   5.569  0.00  0.00    +0.000 A 
ATOM      6  C   UNL     1       6.690  15.994   4.349  0.00  0.00    +0.000 A 
ATOM      7  C   UNL     1       7.514  14.853   4.328  0.00  0.00    +0.000 A 
ATOM      8  C   UNL     1       7.652  13.994   5.431  0.00  0.00    +0.000 A 
ENDBRANCH   1   6
BRANCH   1   9
ATOM      9  C   UNL     1       7.659  17.820   2.947  0.00  0.00    +0.000 C 
BRANCH   9  10
ATOM     10  C   UNL     1       8.378  17.507   1.612  0.00  0.00    +0.000 C 
ATOM     11  C   UNL     1       8.998  18.766   1.018  0.00  0.00    +0.000 C 
BRANCH  10  12
ATOM     12  O   UNL     1       9.425  16.545   1.805  0.00  0.00    +0.000 OA
ATOM     13  H   UNL     1      10.161  16.779   1.215  0.00  0.00    +0.000 HD
ENDBRANCH  10  12
ENDBRANCH   9  10
ENDBRANCH   1   9
BRANCH   1  14
ATOM     14  C   UNL     1       5.244  17.218   2.696  0.00  0.00    +0.000 C 
BRANCH  14  15
ATOM     15  C   UNL     1       4.907  16.410   1.420  0.00  0.00    +0.000 C 
ATOM     16  C   UNL     1       5.040  17.227   0.141  0.00  0.00    +0.000 C 
BRANCH  15  17
ATOM     17  O   UNL     1       5.734  15.254   1.295  0.00  0.00    +0.000 OA
ATOM     18  H   UNL     1       6.189  15.173   2.157  0.00  0.00    +0.000 HD
ENDBRANCH  15  17
ENDBRANCH  14  15
ENDBRANCH   1  14
TORSDOF 7
ENDMDL
MODEL 8
REMARK VINA RESULT:    -3.756      3.266      5.393
REMARK INTER + INTRA:          -5.657
REMARK INTER:                  -5.129
REMARK INTRA:                  -0.528
REMARK UNBOUND:                -0.584
REMARK  Name = 
REMARK  10 active torsions:
REMARK  status: ('A' for Active; 'I' for Inactive)
REMARK    1  A    between atoms: C_1  and  C_2
REMARK    2  A    between atoms: C_5  and  N_8
REMARK    3  A    between atoms: N_8  and  C_9
REMARK    4  A    between atoms: N_8  and  C_13
REMARK    5  A    between atoms: C_9  and  C_10
REMARK    6  A    between atoms: C_10  and  C_11
REMARK    7  A    between atoms: C_10  and  O_12
REMARK    8  A    between atoms: C_13  and  C_14
REMARK    9  A    between atoms: C_14  and  C_15
REMARK   10  A    between atoms: C_14  and  O_16
REMARK                            x       y       z     vdW  Elec       q    Type
REMARK                         _______ _______ _______ _____ _____    ______ ____
ROOT
ATOM      1  N   UNL     1       6.038  16.772   1.626  0.00  0.00    +0.000 N 
ENDROOT
BRANCH   1   6
ATOM      2  C   UNL     1      10.182  20.156  -0.541  0.00  0.00    +0.000 C 
ATOM      3  C   UNL     1       9.123  19.259   0.024  0.00  0.00    +0.000 A 
ATOM      4  C   UNL     1       8.335  18.473  -0.808  0.00  0.00    +0.000 A 
ATOM      5  C   UNL     1       7.324  17.657  -0.276  0.00  0.00    +0.000 A 
ATOM      6  C   UNL     1       7.035  17.602   1.100  0.00  0.00    +0.000 A 
ATOM      7  C   UNL     1       7.853  18.409   1.912  0.00  0.00    +0.000 A 
ATOM      8  C   UNL     1       8.869  19.228   1.392  0.00  0.00    +0.000 A 
ENDBRANCH   1   6
BRANCH   1   9
ATOM      9  C   UNL     1       5.953  16.547   3.090  0.00  0.00    +0.000 C 
BRANCH   9  10
ATOM     10  C   UNL     1       6.827  15.361   3.566  0.00  0.00    +0.000 C 
ATOM     11  C   UNL     1       7.669  15.755   4.774  0.00  0.00    +0.000 C 
BRANCH  10  12
ATOM     12  O   UNL     1       6.014  14.239   3.938  0.00  0.00    +0.000 OA
ATOM     13  H   UNL     1       6.400  13.442   3.539  0.00  0.00    +0.000 HD
ENDBRANCH  10  12
ENDBRANCH   9  10
ENDBRANCH   1   9
BRANCH   1  14
ATOM     14  C   UNL     1       5.393  15.722   0.795  0.00  0.00    +0.000 C 
BRANCH  14  15
ATOM     15  C   UNL     1       3.852  15.857   0.777  0.00  0.00    +0.000 C 
ATOM     16  C   UNL     1       3.348  16.837  -0.276  0.00  0.00    +0.000 C 
BRANCH  15  17
ATOM     17  O   UNL     1       3.215  14.600   0.551  0.00  0.00    +0.000 OA
ATOM     18  H   UNL     1       2.695  14.431   1.361  0.00  0.00    +0.000 HD
ENDBRANCH  15  17
ENDBRANCH  14  15
ENDBRANCH   1  14
TORSDOF 7
ENDMDL
MODEL 9
REMARK VINA RESULT:    -3.722      4.310      6.260
REMARK INTER + INTRA:          -5.612
REMARK INTER:                  -5.045
REMARK INTRA:                  -0.566
REMARK UNBOUND:                -0.584
REMARK  Name = 
REMARK  10 active torsions:
REMARK  status: ('A' for Active; 'I' for Inactive)
REMARK    1  A    between atoms: C_1  and  C_2
REMARK    2  A    between atoms: C_5  and  N_8
REMARK    3  A    between atoms: N_8  and  C_9
REMARK    4  A    between atoms: N_8  and  C_13
REMARK    5  A    between atoms: C_9  and  C_10
REMARK    6  A    between atoms: C_10  and  C_11
REMARK    7  A    between atoms: C_10  and  O_12
REMARK    8  A    between atoms: C_13  and  C_14
REMARK    9  A    between atoms: C_14  and  C_15
REMARK   10  A    between atoms: C_14  and  O_16
REMARK                            x       y       z     vdW  Elec       q    Type
REMARK                         _______ _______ _______ _____ _____    ______ ____
ROOT
ATOM      1  N   UNL     1       6.440  16.830   1.568  0.00  0.00    +0.000 N 
ENDROOT
BRANCH   1   6
ATOM      2  C   UNL     1       5.577  15.822   7.186  0.00  0.00    +0.000 C 
ATOM      3  C   UNL     1       5.823  16.094   5.734  0.00  0.00    +0.000 A 
ATOM      4  C   UNL     1       5.356  17.260   5.136  0.00  0.00    +0.000 A 
ATOM      5  C   UNL     1       5.563  17.496   3.768  0.00  0.00    +0.000 A 
ATOM      6  C   UNL     1       6.220  16.579   2.928  0.00  0.00    +0.000 A 
ATOM      7  C   UNL     1       6.680  15.413   3.566  0.00  0.00    +0.000 A 
ATOM      8  C   UNL     1       6.482  15.165   4.934  0.00  0.00    +0.000 A 
ENDBRANCH   1   6
BRANCH   1   9
ATOM      9  C   UNL     1       7.005  18.130   1.133  0.00  0.00    +0.000 C 
BRANCH   9  10
ATOM     10  C   UNL     1       8.549  18.178   1.237  0.00  0.00    +0.000 C 
ATOM     11  C   UNL     1       8.988  18.942   2.480  0.00  0.00    +0.000 C 
BRANCH  10  12
ATOM     12  O   UNL     1       9.101  16.856   1.308  0.00  0.00    +0.000 OA
ATOM     13  H   UNL     1       8.483  16.247   0.873  0.00  0.00    +0.000 HD
ENDBRANCH  10  12
ENDBRANCH   9  10
ENDBRANCH   1   9
BRANCH   1  14
ATOM     14  C   UNL     1       5.688  16.094   0.519  0.00  0.00    +0.000 C 
BRANCH  14  15
ATOM     15  C   UNL     1       4.160  16.133   0.759  0.00  0.00    +0.000 C 
ATOM     16  C   UNL     1       3.416  17.001  -0.250  0.00  0.00    +0.000 C 
BRANCH  15  17
ATOM     17  O   UNL     1       3.587  14.827   0.725  0.00  0.00    +0.000 OA
ATOM     18  H   UNL     1       3.857  14.410   1.568  0.00  0.00    +0.000 HD
ENDBRANCH  15  17
ENDBRANCH  14  15
ENDBRANCH   1  14
TORSDOF 7
ENDMDL
