MODEL 1
REMARK VINA RESULT:    -5.622      0.000      0.000
REMARK INTER + INTRA:          -8.211
REMARK INTER:                  -7.594
REMARK INTRA:                  -0.617
REMARK UNBOUND:                -0.617
REMARK  Name = 
REMARK  10 active torsions:
REMARK  status: ('A' for Active; 'I' for Inactive)
REMARK    1  A    between atoms: C_1  and  C_2
REMARK    2  A    between atoms: C_5  and  N_8
REMARK    3  A    between atoms: N_8  and  C_9
REMARK    4  A    between atoms: N_8  and  C_13
REMARK    5  A    between atoms: C_9  and  C_10
REMARK    6  A    between atoms: C_10  and  C_11
REMARK    7  A    between atoms: C_10  and  O_12
REMARK    8  A    between atoms: C_13  and  C_14
REMARK    9  A    between atoms: C_14  and  C_15
REMARK   10  A    between atoms: C_14  and  O_16
REMARK                            x       y       z     vdW  Elec       q    Type
REMARK                         _______ _______ _______ _____ _____    ______ ____
ROOT
ATOM      1  N   UNL     1       2.310  18.710   1.754  0.00  0.00    +0.000 N 
ENDROOT
BRANCH   1   6
ATOM      2  C   UNL     1      -1.152  18.051  -2.819  0.00  0.00    +0.000 C 
ATOM      3  C   UNL     1      -0.250  18.246  -1.639  0.00  0.00    +0.000 A 
ATOM      4  C   UNL     1       1.115  17.995  -1.733  0.00  0.00    +0.000 A 
ATOM      5  C   UNL     1       1.950  18.150  -0.615  0.00  0.00    +0.000 A 
ATOM      6  C   UNL     1       1.468  18.538   0.648  0.00  0.00    +0.000 A 
ATOM      7  C   UNL     1       0.084  18.785   0.706  0.00  0.00    +0.000 A 
ATOM      8  C   UNL     1      -0.763  18.635  -0.405  0.00  0.00    +0.000 A 
ENDBRANCH   1   6
BRANCH   1   9
ATOM      9  C   UNL     1       1.949  18.114   3.063  0.00  0.00    +0.000 C 
BRANCH   9  10
ATOM     10  C   UNL     1       2.703  16.793   3.349  0.00  0.00    +0.000 C 
ATOM     11  C   UNL     1       1.798  15.791   4.057  0.00  0.00    +0.000 C 
BRANCH  10  12
ATOM     12  O   UNL     1       3.166  16.190   2.133  0.00  0.00    +0.000 OA
ATOM     13  H   UNL     1       2.638  15.390   1.973  0.00  0.00    +0.000 HD
ENDBRANCH  10  12
ENDBRANCH   9  10
ENDBRANCH   1   9
BRANCH   1  14
ATOM     14  C   UNL     1       3.260  19.850   1.827  0.00  0.00    +0.000 C 
BRANCH  14  15
ATOM     15  C   UNL     1       4.731  19.395   1.673  0.00  0.00    +0.000 C 
ATOM     16  C   UNL     1       5.459  19.258   3.006  0.00  0.00    +0.000 C 
BRANCH  15  17
ATOM     17  O   UNL     1       4.828  18.147   0.987  0.00  0.00    +0.000 OA
ATOM     18  H   UNL     1       4.317  18.272   0.163  0.00  0.00    +0.000 HD
ENDBRANCH  15  17
ENDBRANCH  14  15
ENDBRANCH   1  14
TORSDOF 7
ENDMDL
MODEL 2
REMARK VINA RESULT:    -5.369      1.499      3.314
REMARK INTER + INTRA:          -7.869
REMARK INTER:                  -7.142
REMARK INTRA:                  -0.727
REMARK UNBOUND:                -0.617
REMARK  Name = 
REMARK  10 active torsions:
REMARK  status: ('A' for Active; 'I' for Inactive)
REMARK    1  A    between atoms: C_1  and  C_2
REMARK    2  A    between atoms: C_5  and  N_8
REMARK    3  A    between atoms: N_8  and  C_9
REMARK    4  A    between atoms: N_8  and  C_13
REMARK    5  A    between atoms: C_9  and  C_10
REMARK    6  A    between atoms: C_10  and  C_11
REMARK    7  A    between atoms: C_10  and  O_12
REMARK    8  A    between atoms: C_13  and  C_14
REMARK    9  A    between atoms: C_14  and  C_15
REMARK   10  A    between atoms: C_14  and  O_16
REMARK                            x       y       z     vdW  Elec       q    Type
REMARK                         _______ _______ _______ _____ _____    ______ ____
ROOT
ATOM      1  N   UNL     1       3.070  18.542   1.013  0.00  0.00    +0.000 N 
ENDROOT
BRANCH   1   6
ATOM      2  C   UNL     1      -2.101  18.492  -1.554  0.00  0.00    +0.000 C 
ATOM      3  C   UNL     1      -0.763  18.481  -0.881  0.00  0.00    +0.000 A 
ATOM      4  C   UNL     1      -0.624  18.899   0.439  0.00  0.00    +0.000 A 
ATOM      5  C   UNL     1       0.638  18.915   1.055  0.00  0.00    +0.000 A 
ATOM      6  C   UNL     1       1.817  18.542   0.386  0.00  0.00    +0.000 A 
ATOM      7  C   UNL     1       1.638  18.123  -0.946  0.00  0.00    +0.000 A 
ATOM      8  C   UNL     1       0.382  18.100  -1.574  0.00  0.00    +0.000 A 
ENDBRANCH   1   6
BRANCH   1   9
ATOM      9  C   UNL     1       4.086  19.556   0.643  0.00  0.00    +0.000 C 
BRANCH   9  10
ATOM     10  C   UNL     1       4.075  20.786   1.583  0.00  0.00    +0.000 C 
ATOM     11  C   UNL     1       3.075  21.831   1.102  0.00  0.00    +0.000 C 
BRANCH  10  12
ATOM     12  O   UNL     1       3.715  20.410   2.920  0.00  0.00    +0.000 OA
ATOM     13  H   UNL     1       4.445  19.888   3.293  0.00  0.00    +0.000 HD
ENDBRANCH  10  12
ENDBRANCH   9  10
ENDBRANCH   1   9
BRANCH   1  14
ATOM     14  C   UNL     1       3.615  17.311   1.640  0.00  0.00    +0.000 C 
BRANCH  14  15
ATOM     15  C   UNL     1       2.909  16.973   2.975  0.00  0.00    +0.000 C 
ATOM     16  C   UNL     1       2.962  15.490   3.323  0.00  0.00    +0.000 C 
BRANCH  15  17
ATOM     17  O   UNL     1       3.468  17.703   4.066  0.00  0.00    +0.000 OA
ATOM     18  H   UNL     1       2.791  18.369   4.298  0.00  0.00    +0.000 HD
ENDBRANCH  15  17
ENDBRANCH  14  15
ENDBRANCH   1  14
TORSDOF 7
ENDMDL
MODEL 3
REMARK VINA RESULT:    -5.258     15.100     17.138
REMARK INTER + INTRA:          -7.719
REMARK INTER:                  -7.256
REMARK INTRA:                  -0.463
REMARK UNBOUND:                -0.617
REMARK  Name = 
REMARK  10 active torsions:
REMARK  status: ('A' for Active; 'I' for Inactive)
REMARK    1  A    between atoms: C_1  and  C_2
REMARK    2  A    between atoms: C_5  and  N_8
REMARK    3  A    between atoms: N_8  and  C_9
REMARK    4  A    between atoms: N_8  and  C_13
REMARK    5  A    between atoms: C_9  and  C_10
REMARK    6  A    between atoms: C_10  and  C_11
REMARK    7  A    between atoms: C_10  and  O_12
REMARK    8  A    between atoms: C_13  and  C_14
REMARK    9  A    between atoms: C_14  and  C_15
REMARK   10  A    between atoms: C_14  and  O_16
REMARK                            x       y       z     vdW  Elec       q    Type
REMARK                         _______ _______ _______ _____ _____    ______ ____
ROOT
ATOM      1  N   UNL     1       3.003  15.128 -15.624  0.00  0.00    +0.000 N 
ENDROOT
BRANCH   1   6
ATOM      2  C   UNL     1      -1.390  11.694 -14.127  0.00  0.00    +0.000 C 
ATOM      3  C   UNL     1      -0.235  12.565 -14.518  0.00  0.00    +0.000 A 
ATOM      4  C   UNL     1       0.603  13.116 -13.554  0.00  0.00    +0.000 A 
ATOM      5  C   UNL     1       1.666  13.956 -13.924  0.00  0.00    +0.000 A 
ATOM      6  C   UNL     1       1.930  14.305 -15.260  0.00  0.00    +0.000 A 
ATOM      7  C   UNL     1       1.065  13.729 -16.208  0.00  0.00    +0.000 A 
ATOM      8  C   UNL     1      -0.001  12.885 -15.852  0.00  0.00    +0.000 A 
ENDBRANCH   1   6
BRANCH   1   9
ATOM      9  C   UNL     1       3.531  15.093 -17.009  0.00  0.00    +0.000 C 
BRANCH   9  10
ATOM     10  C   UNL     1       5.074  14.976 -17.060  0.00  0.00    +0.000 C 
ATOM     11  C   UNL     1       5.507  13.907 -18.056  0.00  0.00    +0.000 C 
BRANCH  10  12
ATOM     12  O   UNL     1       5.672  16.219 -17.455  0.00  0.00    +0.000 OA
ATOM     13  H   UNL     1       5.120  16.611 -18.152  0.00  0.00    +0.000 HD
ENDBRANCH  10  12
ENDBRANCH   9  10
ENDBRANCH   1   9
BRANCH   1  14
ATOM     14  C   UNL     1       3.954  15.646 -14.606  0.00  0.00    +0.000 C 
BRANCH  14  15
ATOM     15  C   UNL     1       3.920  17.190 -14.508  0.00  0.00    +0.000 C 
ATOM     16  C   UNL     1       2.862  17.707 -13.540  0.00  0.00    +0.000 C 
BRANCH  15  17
ATOM     17  O   UNL     1       5.182  17.721 -14.107  0.00  0.00    +0.000 OA
ATOM     18  H   UNL     1       5.844  17.087 -14.451  0.00  0.00    +0.000 HD
ENDBRANCH  15  17
ENDBRANCH  14  15
ENDBRANCH   1  14
TORSDOF 7
ENDMDL
MODEL 4
REMARK VINA RESULT:    -5.232      1.481      3.139
REMARK INTER + INTRA:          -7.683
REMARK INTER:                  -7.114
REMARK INTRA:                  -0.569
REMARK UNBOUND:                -0.617
REMARK  Name = 
REMARK  10 active torsions:
REMARK  status: ('A' for Active; 'I' for Inactive)
REMARK    1  A    between atoms: C_1  and  C_2
REMARK    2  A    between atoms: C_5  and  N_8
REMARK    3  A    between atoms: N_8  and  C_9
REMARK    4  A    between atoms: N_8  and  C_13
REMARK    5  A    between atoms: C_9  and  C_10
REMARK    6  A    between atoms: C_10  and  C_11
REMARK    7  A    between atoms: C_10  and  O_12
REMARK    8  A    between atoms: C_13  and  C_14
REMARK    9  A    between atoms: C_14  and  C_15
REMARK   10  A    between atoms: C_14  and  O_16
REMARK                            x       y       z     vdW  Elec       q    Type
REMARK                         _______ _______ _______ _____ _____    ______ ____
ROOT
ATOM      1  N   UNL     1       2.739  18.507   1.106  0.00  0.00    +0.000 N 
ENDROOT
BRANCH   1   6
ATOM      2  C   UNL     1      -1.999  18.338  -2.189  0.00  0.00    +0.000 C 
ATOM      3  C   UNL     1      -0.765  18.405  -1.341  0.00  0.00    +0.000 A 
ATOM      4  C   UNL     1       0.469  18.005  -1.843  0.00  0.00    +0.000 A 
ATOM      5  C   UNL     1       1.616  18.042  -1.034  0.00  0.00    +0.000 A 
ATOM      6  C   UNL     1       1.587  18.454   0.311  0.00  0.00    +0.000 A 
ATOM      7  C   UNL     1       0.323  18.853   0.784  0.00  0.00    +0.000 A 
ATOM      8  C   UNL     1      -0.832  18.823  -0.015  0.00  0.00    +0.000 A 
ENDBRANCH   1   6
BRANCH   1   9
ATOM      9  C   UNL     1       3.880  19.365   0.706  0.00  0.00    +0.000 C 
BRANCH   9  10
ATOM     10  C   UNL     1       3.914  20.712   1.469  0.00  0.00    +0.000 C 
ATOM     11  C   UNL     1       2.851  21.666   0.938  0.00  0.00    +0.000 C 
BRANCH  10  12
ATOM     12  O   UNL     1       3.676  20.516   2.869  0.00  0.00    +0.000 OA
ATOM     13  H   UNL     1       3.760  19.567   3.060  0.00  0.00    +0.000 HD
ENDBRANCH  10  12
ENDBRANCH   9  10
ENDBRANCH   1   9
BRANCH   1  14
ATOM     14  C   UNL     1       3.086  17.397   2.031  0.00  0.00    +0.000 C 
BRANCH  14  15
ATOM     15  C   UNL     1       2.078  17.272   3.198  0.00  0.00    +0.000 C 
ATOM     16  C   UNL     1       2.305  16.033   4.056  0.00  0.00    +0.000 C 
BRANCH  15  17
ATOM     17  O   UNL     1       2.115  18.414   4.052  0.00  0.00    +0.000 OA
ATOM     18  H   UNL     1       1.190  18.732   4.090  0.00  0.00    +0.000 HD
ENDBRANCH  15  17
ENDBRANCH  14  15
ENDBRANCH   1  14
TORSDOF 7
ENDMDL
MODEL 5
REMARK VINA RESULT:    -5.186      1.919      2.719
REMARK INTER + INTRA:          -7.622
REMARK INTER:                  -7.107
REMARK INTRA:                  -0.515
REMARK UNBOUND:                -0.617
REMARK  Name = 
REMARK  10 active torsions:
REMARK  status: ('A' for Active; 'I' for Inactive)
REMARK    1  A    between atoms: C_1  and  C_2
REMARK    2  A    between atoms: C_5  and  N_8
REMARK    3  A    between atoms: N_8  and  C_9
REMARK    4  A    between atoms: N_8  and  C_13
REMARK    5  A    between atoms: C_9  and  C_10
REMARK    6  A    between atoms: C_10  and  C_11
REMARK    7  A    between atoms: C_10  and  O_12
REMARK    8  A    between atoms: C_13  and  C_14
REMARK    9  A    between atoms: C_14  and  C_15
REMARK   10  A    between atoms: C_14  and  O_16
REMARK                            x       y       z     vdW  Elec       q    Type
REMARK                         _______ _______ _______ _____ _____    ______ ____
ROOT
ATOM      1  N   UNL     1       3.502  18.473   0.326  0.00  0.00    +0.000 N 
ENDROOT
BRANCH   1   6
ATOM      2  C   UNL     1      -2.092  18.524  -1.103  0.00  0.00    +0.000 C 
ATOM      3  C   UNL     1      -0.642  18.486  -0.725  0.00  0.00    +0.000 A 
ATOM      4  C   UNL     1      -0.228  18.841   0.554  0.00  0.00    +0.000 A 
ATOM      5  C   UNL     1       1.135  18.833   0.894  0.00  0.00    +0.000 A 
ATOM      6  C   UNL     1       2.146  18.497  -0.025  0.00  0.00    +0.000 A 
ATOM      7  C   UNL     1       1.691  18.142  -1.308  0.00  0.00    +0.000 A 
ATOM      8  C   UNL     1       0.331  18.144  -1.660  0.00  0.00    +0.000 A 
ENDBRANCH   1   6
BRANCH   1   9
ATOM      9  C   UNL     1       3.959  17.646   1.469  0.00  0.00    +0.000 C 
BRANCH   9  10
ATOM     10  C   UNL     1       4.929  18.405   2.408  0.00  0.00    +0.000 C 
ATOM     11  C   UNL     1       4.224  18.831   3.690  0.00  0.00    +0.000 C 
BRANCH  10  12
ATOM     12  O   UNL     1       6.046  17.582   2.768  0.00  0.00    +0.000 OA
ATOM     13  H   UNL     1       6.851  18.122   2.707  0.00  0.00    +0.000 HD
ENDBRANCH  10  12
ENDBRANCH   9  10
ENDBRANCH   1   9
BRANCH   1  14
ATOM     14  C   UNL     1       4.411  19.588  -0.041  0.00  0.00    +0.000 C 
BRANCH  14  15
ATOM     15  C   UNL     1       3.637  20.878  -0.405  0.00  0.00    +0.000 C 
ATOM     16  C   UNL     1       3.549  21.870   0.749  0.00  0.00    +0.000 C 
BRANCH  15  17
ATOM     17  O   UNL     1       4.222  21.547  -1.520  0.00  0.00    +0.000 OA
ATOM     18  H   UNL     1       5.021  21.985  -1.162  0.00  0.00    +0.000 HD
ENDBRANCH  15  17
ENDBRANCH  14  15
ENDBRANCH   1  14
TORSDOF 7
ENDMDL
MODEL 6
REMARK VINA RESULT:    -4.940     15.135     17.041
REMARK INTER + INTRA:          -7.289
REMARK INTER:                  -6.965
REMARK INTRA:                  -0.324
REMARK UNBOUND:                -0.617
REMARK  Name = 
REMARK  10 active torsions:
REMARK  status: ('A' for Active; 'I' for Inactive)
REMARK    1  A    between atoms: C_1  and  C_2
REMARK    2  A    between atoms: C_5  and  N_8
REMARK    3  A    between atoms: N_8  and  C_9
REMARK    4  A    between atoms: N_8  and  C_13
REMARK    5  A    between atoms: C_9  and  C_10
REMARK    6  A    between atoms: C_10  and  C_11
REMARK    7  A    between atoms: C_10  and  O_12
REMARK    8  A    between atoms: C_13  and  C_14
REMARK    9  A    between atoms: C_14  and  C_15
REMARK   10  A    between atoms: C_14  and  O_16
REMARK                            x       y       z     vdW  Elec       q    Type
REMARK                         _______ _______ _______ _____ _____    ______ ____
ROOT
ATOM      1  N   UNL     1       2.352  14.903 -15.554  0.00  0.00    +0.000 N 
ENDROOT
BRANCH   1   6
ATOM      2  C   UNL     1      -1.953  11.196 -14.527  0.00  0.00    +0.000 C 
ATOM      3  C   UNL     1      -0.821  12.139 -14.801  0.00  0.00    +0.000 A 
ATOM      4  C   UNL     1       0.090  12.470 -13.804  0.00  0.00    +0.000 A 
ATOM      5  C   UNL     1       1.131  13.378 -14.058  0.00  0.00    +0.000 A 
ATOM      6  C   UNL     1       1.300  14.013 -15.302  0.00  0.00    +0.000 A 
ATOM      7  C   UNL     1       0.362  13.653 -16.287  0.00  0.00    +0.000 A 
ATOM      8  C   UNL     1      -0.682  12.745 -16.046  0.00  0.00    +0.000 A 
ENDBRANCH   1   6
BRANCH   1   9
ATOM      9  C   UNL     1       2.553  16.084 -14.680  0.00  0.00    +0.000 C 
BRANCH   9  10
ATOM     10  C   UNL     1       3.785  15.943 -13.754  0.00  0.00    +0.000 C 
ATOM     11  C   UNL     1       4.504  17.277 -13.596  0.00  0.00    +0.000 C 
BRANCH  10  12
ATOM     12  O   UNL     1       3.399  15.489 -12.449  0.00  0.00    +0.000 OA
ATOM     13  H   UNL     1       4.067  15.797 -11.814  0.00  0.00    +0.000 HD
ENDBRANCH  10  12
ENDBRANCH   9  10
ENDBRANCH   1   9
BRANCH   1  14
ATOM     14  C   UNL     1       2.954  15.018 -16.907  0.00  0.00    +0.000 C 
BRANCH  14  15
ATOM     15  C   UNL     1       4.486  14.803 -16.885  0.00  0.00    +0.000 C 
ATOM     16  C   UNL     1       4.981  13.896 -18.006  0.00  0.00    +0.000 C 
BRANCH  15  17
ATOM     17  O   UNL     1       5.193  16.039 -16.973  0.00  0.00    +0.000 OA
ATOM     18  H   UNL     1       5.951  15.856 -17.564  0.00  0.00    +0.000 HD
ENDBRANCH  15  17
ENDBRANCH  14  15
ENDBRANCH   1  14
TORSDOF 7
ENDMDL
MODEL 7
REMARK VINA RESULT:    -4.909     14.963     17.278
REMARK INTER + INTRA:          -7.248
REMARK INTER:                  -6.843
REMARK INTRA:                  -0.405
REMARK UNBOUND:                -0.617
REMARK  Name = 
REMARK  10 active torsions:
REMARK  status: ('A' for Active; 'I' for Inactive)
REMARK    1  A    between atoms: C_1  and  C_2
REMARK    2  A    between atoms: C_5  and  N_8
REMARK    3  A    between atoms: N_8  and  C_9
REMARK    4  A    between atoms: N_8  and  C_13
REMARK    5  A    between atoms: C_9  and  C_10
REMARK    6  A    between atoms: C_10  and  C_11
REMARK    7  A    between atoms: C_10  and  O_12
REMARK    8  A    between atoms: C_13  and  C_14
REMARK    9  A    between atoms: C_14  and  C_15
REMARK   10  A    between atoms: C_14  and  O_16
REMARK                            x       y       z     vdW  Elec       q    Type
REMARK                         _______ _______ _______ _____ _____    ______ ____
ROOT
ATOM      1  N   UNL     1       0.730  13.374 -15.294  0.00  0.00    +0.000 N 
ENDROOT
BRANCH   1   6
ATOM      2  C   UNL     1       4.720  17.026 -13.277  0.00  0.00    +0.000 C 
ATOM      3  C   UNL     1       3.702  16.061 -13.803  0.00  0.00    +0.000 A 
ATOM      4  C   UNL     1       3.394  16.016 -15.159  0.00  0.00    +0.000 A 
ATOM      5  C   UNL     1       2.417  15.130 -15.642  0.00  0.00    +0.000 A 
ATOM      6  C   UNL     1       1.689  14.268 -14.802  0.00  0.00    +0.000 A 
ATOM      7  C   UNL     1       2.028  14.339 -13.439  0.00  0.00    +0.000 A 
ATOM      8  C   UNL     1       3.004  15.219 -12.942  0.00  0.00    +0.000 A 
ENDBRANCH   1   6
BRANCH   1   9
ATOM      9  C   UNL     1       0.446  12.114 -14.565  0.00  0.00    +0.000 C 
BRANCH   9  10
ATOM     10  C   UNL     1      -1.011  12.036 -14.047  0.00  0.00    +0.000 C 
ATOM     11  C   UNL     1      -1.905  11.304 -15.042  0.00  0.00    +0.000 C 
BRANCH  10  12
ATOM     12  O   UNL     1      -1.076  11.339 -12.795  0.00  0.00    +0.000 OA
ATOM     13  H   UNL     1      -0.578  10.510 -12.886  0.00  0.00    +0.000 HD
ENDBRANCH  10  12
ENDBRANCH   9  10
ENDBRANCH   1   9
BRANCH   1  14
ATOM     14  C   UNL     1       0.355  13.361 -16.731  0.00  0.00    +0.000 C 
BRANCH  14  15
ATOM     15  C   UNL     1      -0.775  14.370 -17.049  0.00  0.00    +0.000 C 
ATOM     16  C   UNL     1      -0.362  15.434 -18.058  0.00  0.00    +0.000 C 
BRANCH  15  17
ATOM     17  O   UNL     1      -1.940  13.716 -17.549  0.00  0.00    +0.000 OA
ATOM     18  H   UNL     1      -2.011  14.003 -18.482  0.00  0.00    +0.000 HD
ENDBRANCH  15  17
ENDBRANCH  14  15
ENDBRANCH   1  14
TORSDOF 7
ENDMDL
MODEL 8
REMARK VINA RESULT:    -4.852      2.553      5.744
REMARK INTER + INTRA:          -7.171
REMARK INTER:                  -6.785
REMARK INTRA:                  -0.386
REMARK UNBOUND:                -0.617
REMARK  Name = 
REMARK  10 active torsions:
REMARK  status: ('A' for Active; 'I' for Inactive)
REMARK    1  A    between atoms: C_1  and  C_2
REMARK    2  A    between atoms: C_5  and  N_8
REMARK    3  A    between atoms: N_8  and  C_9
REMARK    4  A    between atoms: N_8  and  C_13
REMARK    5  A    between atoms: C_9  and  C_10
REMARK    6  A    between atoms: C_10  and  C_11
REMARK    7  A    between atoms: C_10  and  O_12
REMARK    8  A    between atoms: C_13  and  C_14
REMARK    9  A    between atoms: C_14  and  C_15
REMARK   10  A    between atoms: C_14  and  O_16
REMARK                            x       y       z     vdW  Elec       q    Type
REMARK                         _______ _______ _______ _____ _____    ______ ____
ROOT
ATOM      1  N   UNL     1       1.041  18.861  -0.365  0.00  0.00    +0.000 N 
ENDROOT
BRANCH   1   6
ATOM      2  C   UNL     1       5.606  18.782   3.168  0.00  0.00    +0.000 C 
ATOM      3  C   UNL     1       4.407  18.799   2.271  0.00  0.00    +0.000 A 
ATOM      4  C   UNL     1       3.947  17.632   1.669  0.00  0.00    +0.000 A 
ATOM      5  C   UNL     1       2.841  17.659   0.805  0.00  0.00    +0.000 A 
ATOM      6  C   UNL     1       2.156  18.844   0.482  0.00  0.00    +0.000 A 
ATOM      7  C   UNL     1       2.647  20.004   1.109  0.00  0.00    +0.000 A 
ATOM      8  C   UNL     1       3.751  19.991   1.977  0.00  0.00    +0.000 A 
ENDBRANCH   1   6
BRANCH   1   9
ATOM      9  C   UNL     1       1.095  18.174  -1.678  0.00  0.00    +0.000 C 
BRANCH   9  10
ATOM     10  C   UNL     1      -0.159  18.441  -2.547  0.00  0.00    +0.000 C 
ATOM     11  C   UNL     1       0.180  19.336  -3.733  0.00  0.00    +0.000 C 
BRANCH  10  12
ATOM     12  O   UNL     1      -0.703  17.216  -3.056  0.00  0.00    +0.000 OA
ATOM     13  H   UNL     1      -1.589  17.403  -3.408  0.00  0.00    +0.000 HD
ENDBRANCH  10  12
ENDBRANCH   9  10
ENDBRANCH   1   9
BRANCH   1  14
ATOM     14  C   UNL     1       0.011  19.926  -0.260  0.00  0.00    +0.000 C 
BRANCH  14  15
ATOM     15  C   UNL     1      -1.054  19.604   0.817  0.00  0.00    +0.000 C 
ATOM     16  C   UNL     1      -2.383  20.310   0.575  0.00  0.00    +0.000 C 
BRANCH  15  17
ATOM     17  O   UNL     1      -1.308  18.203   0.904  0.00  0.00    +0.000 OA
ATOM     18  H   UNL     1      -0.633  17.787   0.330  0.00  0.00    +0.000 HD
ENDBRANCH  15  17
ENDBRANCH  14  15
ENDBRANCH   1  14
TORSDOF 7
ENDMDL
MODEL 9
REMARK VINA RESULT:    -4.838      2.304      5.292
REMARK INTER + INTRA:          -7.151
REMARK INTER:                  -6.584
REMARK INTRA:                  -0.567
REMARK UNBOUND:                -0.617
REMARK  Name = 
REMARK  10 active torsions:
REMARK  status: ('A' for Active; 'I' for Inactive)
REMARK    1  A    between atoms: C_1  and  C_2
REMARK    2  A    between atoms: C_5  and  N_8
REMARK    3  A    between atoms: N_8  and  C_9
REMARK    4  A    between atoms: N_8  and  C_13
REMARK    5  A    between atoms: C_9  and  C_10
REMARK    6  A    between atoms: C_10  and  C_11
REMARK    7  A    between atoms: C_10  and  O_12
REMARK    8  A    between atoms: C_13  and  C_14
REMARK    9  A    between atoms: C_14  and  C_15
REMARK   10  A    between atoms: C_14  and  O_16
REMARK                            x       y       z     vdW  Elec       q    Type
REMARK                         _______ _______ _______ _____ _____    ______ ____
ROOT
ATOM      1  N   UNL     1       2.252  20.006  -0.559  0.00  0.00    +0.000 N 
ENDROOT
BRANCH   1   6
ATOM      2  C   UNL     1       2.388  16.342   3.901  0.00  0.00    +0.000 C 
ATOM      3  C   UNL     1       2.367  17.308   2.756  0.00  0.00    +0.000 A 
ATOM      4  C   UNL     1       1.347  18.245   2.632  0.00  0.00    +0.000 A 
ATOM      5  C   UNL     1       1.316  19.130   1.541  0.00  0.00    +0.000 A 
ATOM      6  C   UNL     1       2.279  19.108   0.516  0.00  0.00    +0.000 A 
ATOM      7  C   UNL     1       3.296  18.149   0.676  0.00  0.00    +0.000 A 
ATOM      8  C   UNL     1       3.340  17.261   1.763  0.00  0.00    +0.000 A 
ENDBRANCH   1   6
BRANCH   1   9
ATOM      9  C   UNL     1       2.070  21.456  -0.312  0.00  0.00    +0.000 C 
BRANCH   9  10
ATOM     10  C   UNL     1       3.404  22.188  -0.025  0.00  0.00    +0.000 C 
ATOM     11  C   UNL     1       3.714  22.193   1.467  0.00  0.00    +0.000 C 
BRANCH  10  12
ATOM     12  O   UNL     1       4.497  21.551  -0.703  0.00  0.00    +0.000 OA
ATOM     13  H   UNL     1       5.283  22.113  -0.600  0.00  0.00    +0.000 HD
ENDBRANCH  10  12
ENDBRANCH   9  10
ENDBRANCH   1   9
BRANCH   1  14
ATOM     14  C   UNL     1       1.892  19.555  -1.928  0.00  0.00    +0.000 C 
BRANCH  14  15
ATOM     15  C   UNL     1       0.723  18.541  -1.920  0.00  0.00    +0.000 C 
ATOM     16  C   UNL     1      -0.411  18.926  -2.863  0.00  0.00    +0.000 C 
BRANCH  15  17
ATOM     17  O   UNL     1       1.161  17.229  -2.269  0.00  0.00    +0.000 OA
ATOM     18  H   UNL     1       0.449  16.634  -1.960  0.00  0.00    +0.000 HD
ENDBRANCH  15  17
ENDBRANCH  14  15
ENDBRANCH   1  14
TORSDOF 7
ENDMDL
