MODEL 1
REMARK VINA RESULT:    -5.294      0.000      0.000
REMARK INTER + INTRA:          -5.805
REMARK INTER:                  -5.758
REMARK INTRA:                  -0.047
REMARK UNBOUND:                -0.047
REMARK  Name = 
REMARK  3 active torsions:
REMARK  status: ('A' for Active; 'I' for Inactive)
REMARK    1  A    between atoms: C_1  and  O_2
REMARK    2  A    between atoms: O_2  and  C_3
REMARK    3  A    between atoms: C_8  and  O_9
REMARK                            x       y       z     vdW  Elec       q    Type
REMARK                         _______ _______ _______ _____ _____    ______ ____
ROOT
ATOM      1  C   UNL     1       8.989   9.419   4.749  0.00  0.00    +0.000 A 
ATOM      2  C   UNL     1      10.133  10.175   4.496  0.00  0.00    +0.000 A 
ATOM      3  C   UNL     1      10.814  10.029   3.281  0.00  0.00    +0.000 A 
ATOM      4  C   UNL     1      10.356   9.130   2.317  0.00  0.00    +0.000 A 
ATOM      5  C   UNL     1       9.214   8.371   2.561  0.00  0.00    +0.000 A 
ATOM      6  C   UNL     1       8.545   8.522   3.769  0.00  0.00    +0.000 A 
ENDROOT
BRANCH   1   8
ATOM      7  C   UNL     1       7.873  10.747   6.373  0.00  0.00    +0.000 C 
ATOM      8  O   UNL     1       8.227   9.457   5.889  0.00  0.00    +0.000 OA
ENDBRANCH   1   8
BRANCH   6   9
ATOM      9  O   UNL     1       7.425   7.765   3.987  0.00  0.00    +0.000 OA
ATOM     10  H   UNL     1       7.162   7.969   4.905  0.00  0.00    +0.000 HD
ENDBRANCH   6   9
TORSDOF 2
ENDMDL
MODEL 2
REMARK VINA RESULT:    -5.115      2.076      3.569
REMARK INTER + INTRA:          -5.611
REMARK INTER:                  -5.571
REMARK INTRA:                  -0.039
REMARK UNBOUND:                -0.047
REMARK  Name = 
REMARK  3 active torsions:
REMARK  status: ('A' for Active; 'I' for Inactive)
REMARK    1  A    between atoms: C_1  and  O_2
REMARK    2  A    between atoms: O_2  and  C_3
REMARK    3  A    between atoms: C_8  and  O_9
REMARK                            x       y       z     vdW  Elec       q    Type
REMARK                         _______ _______ _______ _____ _____    ______ ____
ROOT
ATOM      1  C   UNL     1       8.991   9.227   3.365  0.00  0.00    +0.000 A 
ATOM      2  C   UNL     1       8.558   8.915   4.653  0.00  0.00    +0.000 A 
ATOM      3  C   UNL     1       8.414   9.930   5.608  0.00  0.00    +0.000 A 
ATOM      4  C   UNL     1       8.702  11.256   5.280  0.00  0.00    +0.000 A 
ATOM      5  C   UNL     1       9.135  11.576   3.996  0.00  0.00    +0.000 A 
ATOM      6  C   UNL     1       9.275  10.563   3.055  0.00  0.00    +0.000 A 
ENDROOT
BRANCH   1   8
ATOM      7  C   UNL     1       8.480   7.104   2.428  0.00  0.00    +0.000 C 
ATOM      8  O   UNL     1       9.177   8.341   2.335  0.00  0.00    +0.000 OA
ENDBRANCH   1   8
BRANCH   6   9
ATOM      9  O   UNL     1       9.703  10.902   1.799  0.00  0.00    +0.000 OA
ATOM     10  H   UNL     1       8.997  11.474   1.442  0.00  0.00    +0.000 HD
ENDBRANCH   6   9
TORSDOF 2
ENDMDL
MODEL 3
REMARK VINA RESULT:    -5.051      2.051      2.587
REMARK INTER + INTRA:          -5.540
REMARK INTER:                  -5.502
REMARK INTRA:                  -0.038
REMARK UNBOUND:                -0.047
REMARK  Name = 
REMARK  3 active torsions:
REMARK  status: ('A' for Active; 'I' for Inactive)
REMARK    1  A    between atoms: C_1  and  O_2
REMARK    2  A    between atoms: O_2  and  C_3
REMARK    3  A    between atoms: C_8  and  O_9
REMARK                            x       y       z     vdW  Elec       q    Type
REMARK                         _______ _______ _______ _____ _____    ______ ____
ROOT
ATOM      1  C   UNL     1       9.062  10.147   3.786  0.00  0.00    +0.000 A 
ATOM      2  C   UNL     1       8.364   9.219   4.558  0.00  0.00    +0.000 A 
ATOM      3  C   UNL     1       8.228   7.898   4.112  0.00  0.00    +0.000 A 
ATOM      4  C   UNL     1       8.786   7.502   2.895  0.00  0.00    +0.000 A 
ATOM      5  C   UNL     1       9.485   8.423   2.118  0.00  0.00    +0.000 A 
ATOM      6  C   UNL     1       9.615   9.730   2.569  0.00  0.00    +0.000 A 
ENDROOT
BRANCH   1   8
ATOM      7  C   UNL     1       9.034  11.846   5.448  0.00  0.00    +0.000 C 
ATOM      8  O   UNL     1       9.272  11.466   4.098  0.00  0.00    +0.000 OA
ENDBRANCH   1   8
BRANCH   6   9
ATOM      9  O   UNL     1      10.306  10.618   1.788  0.00  0.00    +0.000 OA
ATOM     10  H   UNL     1       9.634  11.002   1.194  0.00  0.00    +0.000 HD
ENDBRANCH   6   9
TORSDOF 2
ENDMDL
MODEL 4
REMARK VINA RESULT:    -4.944      1.372      2.100
REMARK INTER + INTRA:          -5.424
REMARK INTER:                  -5.452
REMARK INTRA:                   0.028
REMARK UNBOUND:                -0.047
REMARK  Name = 
REMARK  3 active torsions:
REMARK  status: ('A' for Active; 'I' for Inactive)
REMARK    1  A    between atoms: C_1  and  O_2
REMARK    2  A    between atoms: O_2  and  C_3
REMARK    3  A    between atoms: C_8  and  O_9
REMARK                            x       y       z     vdW  Elec       q    Type
REMARK                         _______ _______ _______ _____ _____    ______ ____
ROOT
ATOM      1  C   UNL     1       9.515   9.730   4.019  0.00  0.00    +0.000 A 
ATOM      2  C   UNL     1      10.052   9.369   2.784  0.00  0.00    +0.000 A 
ATOM      3  C   UNL     1       9.608   8.207   2.140  0.00  0.00    +0.000 A 
ATOM      4  C   UNL     1       8.629   7.403   2.727  0.00  0.00    +0.000 A 
ATOM      5  C   UNL     1       8.087   7.758   3.961  0.00  0.00    +0.000 A 
ATOM      6  C   UNL     1       8.534   8.912   4.592  0.00  0.00    +0.000 A 
ENDROOT
BRANCH   1   8
ATOM      7  C   UNL     1       9.150  12.035   4.466  0.00  0.00    +0.000 C 
ATOM      8  O   UNL     1       9.854  10.834   4.759  0.00  0.00    +0.000 OA
ENDBRANCH   1   8
BRANCH   6   9
ATOM      9  O   UNL     1       7.986   9.239   5.803  0.00  0.00    +0.000 OA
ATOM     10  H   UNL     1       8.616   8.891   6.463  0.00  0.00    +0.000 HD
ENDBRANCH   6   9
TORSDOF 2
ENDMDL
MODEL 5
REMARK VINA RESULT:    -4.913      2.044      3.230
REMARK INTER + INTRA:          -5.391
REMARK INTER:                  -5.402
REMARK INTRA:                   0.011
REMARK UNBOUND:                -0.047
REMARK  Name = 
REMARK  3 active torsions:
REMARK  status: ('A' for Active; 'I' for Inactive)
REMARK    1  A    between atoms: C_1  and  O_2
REMARK    2  A    between atoms: O_2  and  C_3
REMARK    3  A    between atoms: C_8  and  O_9
REMARK                            x       y       z     vdW  Elec       q    Type
REMARK                         _______ _______ _______ _____ _____    ______ ____
ROOT
ATOM      1  C   UNL     1       9.641  10.144   3.067  0.00  0.00    +0.000 A 
ATOM      2  C   UNL     1       9.330  10.853   4.226  0.00  0.00    +0.000 A 
ATOM      3  C   UNL     1       8.602  10.235   5.251  0.00  0.00    +0.000 A 
ATOM      4  C   UNL     1       8.183   8.910   5.121  0.00  0.00    +0.000 A 
ATOM      5  C   UNL     1       8.490   8.194   3.966  0.00  0.00    +0.000 A 
ATOM      6  C   UNL     1       9.212   8.815   2.955  0.00  0.00    +0.000 A 
ENDROOT
BRANCH   1   8
ATOM      7  C   UNL     1      11.760  10.542   2.069  0.00  0.00    +0.000 C 
ATOM      8  O   UNL     1      10.342  10.619   1.988  0.00  0.00    +0.000 OA
ENDBRANCH   1   8
BRANCH   6   9
ATOM      9  O   UNL     1       9.502   8.091   1.829  0.00  0.00    +0.000 OA
ATOM     10  H   UNL     1       8.648   8.003   1.364  0.00  0.00    +0.000 HD
ENDBRANCH   6   9
TORSDOF 2
ENDMDL
MODEL 6
REMARK VINA RESULT:    -4.731      1.408      2.966
REMARK INTER + INTRA:          -5.193
REMARK INTER:                  -5.155
REMARK INTRA:                  -0.038
REMARK UNBOUND:                -0.047
REMARK  Name = 
REMARK  3 active torsions:
REMARK  status: ('A' for Active; 'I' for Inactive)
REMARK    1  A    between atoms: C_1  and  O_2
REMARK    2  A    between atoms: O_2  and  C_3
REMARK    3  A    between atoms: C_8  and  O_9
REMARK                            x       y       z     vdW  Elec       q    Type
REMARK                         _______ _______ _______ _____ _____    ______ ____
ROOT
ATOM      1  C   UNL     1       8.756   9.181   4.013  0.00  0.00    +0.000 A 
ATOM      2  C   UNL     1       9.175   9.788   2.830  0.00  0.00    +0.000 A 
ATOM      3  C   UNL     1       9.399  11.170   2.793  0.00  0.00    +0.000 A 
ATOM      4  C   UNL     1       9.205  11.949   3.935  0.00  0.00    +0.000 A 
ATOM      5  C   UNL     1       8.786  11.350   5.121  0.00  0.00    +0.000 A 
ATOM      6  C   UNL     1       8.566   9.979   5.148  0.00  0.00    +0.000 A 
ENDROOT
BRANCH   1   8
ATOM      7  C   UNL     1       8.473   7.041   3.020  0.00  0.00    +0.000 C 
ATOM      8  O   UNL     1       8.499   7.846   4.193  0.00  0.00    +0.000 OA
ENDBRANCH   1   8
BRANCH   6   9
ATOM      9  O   UNL     1       8.155   9.413   6.326  0.00  0.00    +0.000 OA
ATOM     10  H   UNL     1       7.778  10.153   6.838  0.00  0.00    +0.000 HD
ENDBRANCH   6   9
TORSDOF 2
ENDMDL
MODEL 7
REMARK VINA RESULT:    -4.645      1.521      2.418
REMARK INTER + INTRA:          -5.099
REMARK INTER:                  -5.050
REMARK INTRA:                  -0.049
REMARK UNBOUND:                -0.047
REMARK  Name = 
REMARK  3 active torsions:
REMARK  status: ('A' for Active; 'I' for Inactive)
REMARK    1  A    between atoms: C_1  and  O_2
REMARK    2  A    between atoms: O_2  and  C_3
REMARK    3  A    between atoms: C_8  and  O_9
REMARK                            x       y       z     vdW  Elec       q    Type
REMARK                         _______ _______ _______ _____ _____    ______ ____
ROOT
ATOM      1  C   UNL     1       8.373  10.079   4.983  0.00  0.00    +0.000 A 
ATOM      2  C   UNL     1       8.364   8.770   4.503  0.00  0.00    +0.000 A 
ATOM      3  C   UNL     1       9.101   8.438   3.359  0.00  0.00    +0.000 A 
ATOM      4  C   UNL     1       9.849   9.411   2.693  0.00  0.00    +0.000 A 
ATOM      5  C   UNL     1       9.864  10.721   3.166  0.00  0.00    +0.000 A 
ATOM      6  C   UNL     1       9.129  11.041   4.301  0.00  0.00    +0.000 A 
ENDROOT
BRANCH   1   8
ATOM      7  C   UNL     1       8.202  10.136   7.352  0.00  0.00    +0.000 C 
ATOM      8  O   UNL     1       7.701  10.544   6.085  0.00  0.00    +0.000 OA
ENDBRANCH   1   8
BRANCH   6   9
ATOM      9  O   UNL     1       9.159  12.335   4.747  0.00  0.00    +0.000 OA
ATOM     10  H   UNL     1       8.516  12.807   4.184  0.00  0.00    +0.000 HD
ENDBRANCH   6   9
TORSDOF 2
ENDMDL
MODEL 8
REMARK VINA RESULT:    -4.601      1.416      3.292
REMARK INTER + INTRA:          -5.052
REMARK INTER:                  -4.999
REMARK INTRA:                  -0.053
REMARK UNBOUND:                -0.047
REMARK  Name = 
REMARK  3 active torsions:
REMARK  status: ('A' for Active; 'I' for Inactive)
REMARK    1  A    between atoms: C_1  and  O_2
REMARK    2  A    between atoms: O_2  and  C_3
REMARK    3  A    between atoms: C_8  and  O_9
REMARK                            x       y       z     vdW  Elec       q    Type
REMARK                         _______ _______ _______ _____ _____    ______ ____
ROOT
ATOM      1  C   UNL     1       8.896  10.205   3.911  0.00  0.00    +0.000 A 
ATOM      2  C   UNL     1       9.208  11.525   4.229  0.00  0.00    +0.000 A 
ATOM      3  C   UNL     1       8.945  12.016   5.515  0.00  0.00    +0.000 A 
ATOM      4  C   UNL     1       8.370  11.191   6.483  0.00  0.00    +0.000 A 
ATOM      5  C   UNL     1       8.056   9.870   6.172  0.00  0.00    +0.000 A 
ATOM      6  C   UNL     1       8.320   9.392   4.895  0.00  0.00    +0.000 A 
ENDROOT
BRANCH   1   8
ATOM      7  C   UNL     1      10.449   9.398   2.303  0.00  0.00    +0.000 C 
ATOM      8  O   UNL     1       9.097   9.594   2.699  0.00  0.00    +0.000 OA
ENDBRANCH   1   8
BRANCH   6   9
ATOM      9  O   UNL     1       8.003   8.090   4.613  0.00  0.00    +0.000 OA
ATOM     10  H   UNL     1       7.517   7.777   5.400  0.00  0.00    +0.000 HD
ENDBRANCH   6   9
TORSDOF 2
ENDMDL
MODEL 9
REMARK VINA RESULT:    -4.151      2.186      4.563
REMARK INTER + INTRA:          -4.562
REMARK INTER:                  -4.512
REMARK INTRA:                  -0.050
REMARK UNBOUND:                -0.047
REMARK  Name = 
REMARK  3 active torsions:
REMARK  status: ('A' for Active; 'I' for Inactive)
REMARK    1  A    between atoms: C_1  and  O_2
REMARK    2  A    between atoms: O_2  and  C_3
REMARK    3  A    between atoms: C_8  and  O_9
REMARK                            x       y       z     vdW  Elec       q    Type
REMARK                         _______ _______ _______ _____ _____    ______ ____
ROOT
ATOM      1  C   UNL     1       8.526  10.811   6.549  0.00  0.00    +0.000 A 
ATOM      2  C   UNL     1       9.869  11.181   6.590  0.00  0.00    +0.000 A 
ATOM      3  C   UNL     1      10.408  11.730   7.761  0.00  0.00    +0.000 A 
ATOM      4  C   UNL     1       9.609  11.911   8.891  0.00  0.00    +0.000 A 
ATOM      5  C   UNL     1       8.265  11.544   8.857  0.00  0.00    +0.000 A 
ATOM      6  C   UNL     1       7.739  11.001   7.692  0.00  0.00    +0.000 A 
ENDROOT
BRANCH   1   8
ATOM      7  C   UNL     1       8.427   9.080   4.924  0.00  0.00    +0.000 C 
ATOM      8  O   UNL     1       7.868  10.266   5.476  0.00  0.00    +0.000 OA
ENDBRANCH   1   8
BRANCH   6   9
ATOM      9  O   UNL     1       6.416  10.647   7.683  0.00  0.00    +0.000 OA
ATOM     10  H   UNL     1       6.035  11.131   6.926  0.00  0.00    +0.000 HD
ENDBRANCH   6   9
TORSDOF 2
ENDMDL
