MODEL 1
REMARK VINA RESULT:    -4.111      0.000      0.000
REMARK INTER + INTRA:          -6.011
REMARK INTER:                  -5.553
REMARK INTRA:                  -0.458
REMARK UNBOUND:                -0.458
REMARK  Name = 
REMARK  10 active torsions:
REMARK  status: ('A' for Active; 'I' for Inactive)
REMARK    1  A    between atoms: C_1  and  C_2
REMARK    2  A    between atoms: C_5  and  N_8
REMARK    3  A    between atoms: N_8  and  C_9
REMARK    4  A    between atoms: N_8  and  C_13
REMARK    5  A    between atoms: C_9  and  C_10
REMARK    6  A    between atoms: C_10  and  C_11
REMARK    7  A    between atoms: C_10  and  O_12
REMARK    8  A    between atoms: C_13  and  C_14
REMARK    9  A    between atoms: C_14  and  C_15
REMARK   10  A    between atoms: C_14  and  O_16
REMARK                            x       y       z     vdW  Elec       q    Type
REMARK                         _______ _______ _______ _____ _____    ______ ____
ROOT
ATOM      1  N   UNL     1       6.490  16.811   2.871  0.00  0.00    +0.000 N 
ENDROOT
BRANCH   1   6
ATOM      2  C   UNL     1       1.827  16.595  -0.526  0.00  0.00    +0.000 C 
ATOM      3  C   UNL     1       3.026  16.635   0.372  0.00  0.00    +0.000 A 
ATOM      4  C   UNL     1       3.153  17.617   1.349  0.00  0.00    +0.000 A 
ATOM      5  C   UNL     1       4.293  17.668   2.168  0.00  0.00    +0.000 A 
ATOM      6  C   UNL     1       5.365  16.766   2.039  0.00  0.00    +0.000 A 
ATOM      7  C   UNL     1       5.201  15.786   1.042  0.00  0.00    +0.000 A 
ATOM      8  C   UNL     1       4.065  15.722   0.218  0.00  0.00    +0.000 A 
ENDBRANCH   1   6
BRANCH   1   9
ATOM      9  C   UNL     1       6.442  16.193   4.219  0.00  0.00    +0.000 C 
BRANCH   9  10
ATOM     10  C   UNL     1       7.048  14.768   4.247  0.00  0.00    +0.000 C 
ATOM     11  C   UNL     1       7.528  14.408   5.648  0.00  0.00    +0.000 C 
BRANCH  10  12
ATOM     12  O   UNL     1       6.079  13.790   3.844  0.00  0.00    +0.000 OA
ATOM     13  H   UNL     1       6.541  12.946   3.711  0.00  0.00    +0.000 HD
ENDBRANCH  10  12
ENDBRANCH   9  10
ENDBRANCH   1   9
BRANCH   1  14
ATOM     14  C   UNL     1       7.532  17.855   2.699  0.00  0.00    +0.000 C 
BRANCH  14  15
ATOM     15  C   UNL     1       8.408  17.605   1.448  0.00  0.00    +0.000 C 
ATOM     16  C   UNL     1       9.106  18.863   0.944  0.00  0.00    +0.000 C 
BRANCH  15  17
ATOM     17  O   UNL     1       9.406  16.615   1.693  0.00  0.00    +0.000 OA
ATOM     18  H   UNL     1       9.825  16.880   2.536  0.00  0.00    +0.000 HD
ENDBRANCH  15  17
ENDBRANCH  14  15
ENDBRANCH   1  14
TORSDOF 7
ENDMDL
MODEL 2
REMARK VINA RESULT:    -4.089      1.684      5.154
REMARK INTER + INTRA:          -5.981
REMARK INTER:                  -5.483
REMARK INTRA:                  -0.498
REMARK UNBOUND:                -0.458
REMARK  Name = 
REMARK  10 active torsions:
REMARK  status: ('A' for Active; 'I' for Inactive)
REMARK    1  A    between atoms: C_1  and  C_2
REMARK    2  A    between atoms: C_5  and  N_8
REMARK    3  A    between atoms: N_8  and  C_9
REMARK    4  A    between atoms: N_8  and  C_13
REMARK    5  A    between atoms: C_9  and  C_10
REMARK    6  A    between atoms: C_10  and  C_11
REMARK    7  A    between atoms: C_10  and  O_12
REMARK    8  A    between atoms: C_13  and  C_14
REMARK    9  A    between atoms: C_14  and  C_15
REMARK   10  A    between atoms: C_14  and  O_16
REMARK                            x       y       z     vdW  Elec       q    Type
REMARK                         _______ _______ _______ _____ _____    ______ ____
ROOT
ATOM      1  N   UNL     1       6.213  16.552   1.315  0.00  0.00    +0.000 N 
ENDROOT
BRANCH   1   6
ATOM      2  C   UNL     1      10.028  20.404  -0.668  0.00  0.00    +0.000 C 
ATOM      3  C   UNL     1       9.056  19.387  -0.153  0.00  0.00    +0.000 A 
ATOM      4  C   UNL     1       8.290  18.624  -1.028  0.00  0.00    +0.000 A 
ATOM      5  C   UNL     1       7.359  17.693  -0.539  0.00  0.00    +0.000 A 
ATOM      6  C   UNL     1       7.130  17.495   0.835  0.00  0.00    +0.000 A 
ATOM      7  C   UNL     1       7.923  18.282   1.690  0.00  0.00    +0.000 A 
ATOM      8  C   UNL     1       8.859  19.215   1.214  0.00  0.00    +0.000 A 
ENDBRANCH   1   6
BRANCH   1   9
ATOM      9  C   UNL     1       5.364  15.791   0.368  0.00  0.00    +0.000 C 
BRANCH   9  10
ATOM     10  C   UNL     1       3.853  15.908   0.689  0.00  0.00    +0.000 C 
ATOM     11  C   UNL     1       3.149  16.804  -0.323  0.00  0.00    +0.000 C 
BRANCH  10  12
ATOM     12  O   UNL     1       3.220  14.621   0.660  0.00  0.00    +0.000 OA
ATOM     13  H   UNL     1       3.366  14.233  -0.219  0.00  0.00    +0.000 HD
ENDBRANCH  10  12
ENDBRANCH   9  10
ENDBRANCH   1   9
BRANCH   1  14
ATOM     14  C   UNL     1       5.687  16.627   2.703  0.00  0.00    +0.000 C 
BRANCH  14  15
ATOM     15  C   UNL     1       6.421  15.657   3.659  0.00  0.00    +0.000 C 
ATOM     16  C   UNL     1       6.262  16.030   5.129  0.00  0.00    +0.000 C 
BRANCH  15  17
ATOM     17  O   UNL     1       5.973  14.313   3.493  0.00  0.00    +0.000 OA
ATOM     18  H   UNL     1       6.145  13.881   4.354  0.00  0.00    +0.000 HD
ENDBRANCH  15  17
ENDBRANCH  14  15
ENDBRANCH   1  14
TORSDOF 7
ENDMDL
MODEL 3
REMARK VINA RESULT:    -4.087      4.140      6.766
REMARK INTER + INTRA:          -5.979
REMARK INTER:                  -5.410
REMARK INTRA:                  -0.569
REMARK UNBOUND:                -0.458
REMARK  Name = 
REMARK  10 active torsions:
REMARK  status: ('A' for Active; 'I' for Inactive)
REMARK    1  A    between atoms: C_1  and  C_2
REMARK    2  A    between atoms: C_5  and  N_8
REMARK    3  A    between atoms: N_8  and  C_9
REMARK    4  A    between atoms: N_8  and  C_13
REMARK    5  A    between atoms: C_9  and  C_10
REMARK    6  A    between atoms: C_10  and  C_11
REMARK    7  A    between atoms: C_10  and  O_12
REMARK    8  A    between atoms: C_13  and  C_14
REMARK    9  A    between atoms: C_14  and  C_15
REMARK   10  A    between atoms: C_14  and  O_16
REMARK                            x       y       z     vdW  Elec       q    Type
REMARK                         _______ _______ _______ _____ _____    ______ ____
ROOT
ATOM      1  N   UNL     1       1.601  16.022  -0.391  0.00  0.00    +0.000 N 
ENDROOT
BRANCH   1   6
ATOM      2  C   UNL     1       7.099  17.472   0.606  0.00  0.00    +0.000 C 
ATOM      3  C   UNL     1       5.679  17.087   0.325  0.00  0.00    +0.000 A 
ATOM      4  C   UNL     1       4.801  17.983  -0.275  0.00  0.00    +0.000 A 
ATOM      5  C   UNL     1       3.463  17.626  -0.508  0.00  0.00    +0.000 A 
ATOM      6  C   UNL     1       2.932  16.378  -0.137  0.00  0.00    +0.000 A 
ATOM      7  C   UNL     1       3.848  15.496   0.464  0.00  0.00    +0.000 A 
ATOM      8  C   UNL     1       5.190  15.839   0.702  0.00  0.00    +0.000 A 
ENDBRANCH   1   6
BRANCH   1   9
ATOM      9  C   UNL     1       0.790  15.373   0.667  0.00  0.00    +0.000 C 
BRANCH   9  10
ATOM     10  C   UNL     1       0.432  16.337   1.824  0.00  0.00    +0.000 C 
ATOM     11  C   UNL     1      -0.178  17.628   1.289  0.00  0.00    +0.000 C 
BRANCH  10  12
ATOM     12  O   UNL     1      -0.515  15.737   2.720  0.00  0.00    +0.000 OA
ATOM     13  H   UNL     1      -1.259  16.352   2.829  0.00  0.00    +0.000 HD
ENDBRANCH  10  12
ENDBRANCH   9  10
ENDBRANCH   1   9
BRANCH   1  14
ATOM     14  C   UNL     1       1.117  15.793  -1.777  0.00  0.00    +0.000 C 
BRANCH  14  15
ATOM     15  C   UNL     1      -0.400  16.065  -1.918  0.00  0.00    +0.000 C 
ATOM     16  C   UNL     1      -0.712  17.459  -2.449  0.00  0.00    +0.000 C 
BRANCH  15  17
ATOM     17  O   UNL     1      -1.028  15.115  -2.777  0.00  0.00    +0.000 OA
ATOM     18  H   UNL     1      -1.832  14.833  -2.297  0.00  0.00    +0.000 HD
ENDBRANCH  15  17
ENDBRANCH  14  15
ENDBRANCH   1  14
TORSDOF 7
ENDMDL
MODEL 4
REMARK VINA RESULT:    -4.072      1.440      1.738
REMARK INTER + INTRA:          -5.958
REMARK INTER:                  -5.430
REMARK INTRA:                  -0.528
REMARK UNBOUND:                -0.458
REMARK  Name = 
REMARK  10 active torsions:
REMARK  status: ('A' for Active; 'I' for Inactive)
REMARK    1  A    between atoms: C_1  and  C_2
REMARK    2  A    between atoms: C_5  and  N_8
REMARK    3  A    between atoms: N_8  and  C_9
REMARK    4  A    between atoms: N_8  and  C_13
REMARK    5  A    between atoms: C_9  and  C_10
REMARK    6  A    between atoms: C_10  and  C_11
REMARK    7  A    between atoms: C_10  and  O_12
REMARK    8  A    between atoms: C_13  and  C_14
REMARK    9  A    between atoms: C_14  and  C_15
REMARK   10  A    between atoms: C_14  and  O_16
REMARK                            x       y       z     vdW  Elec       q    Type
REMARK                         _______ _______ _______ _____ _____    ______ ____
ROOT
ATOM      1  N   UNL     1       5.613  17.077   1.408  0.00  0.00    +0.000 N 
ENDROOT
BRANCH   1   6
ATOM      2  C   UNL     1       0.896  16.028  -1.751  0.00  0.00    +0.000 C 
ATOM      3  C   UNL     1       2.106  16.309  -0.912  0.00  0.00    +0.000 A 
ATOM      4  C   UNL     1       2.764  17.531  -0.995  0.00  0.00    +0.000 A 
ATOM      5  C   UNL     1       3.915  17.778  -0.229  0.00  0.00    +0.000 A 
ATOM      6  C   UNL     1       4.476  16.818   0.633  0.00  0.00    +0.000 A 
ATOM      7  C   UNL     1       3.783  15.595   0.693  0.00  0.00    +0.000 A 
ATOM      8  C   UNL     1       2.630  15.336  -0.066  0.00  0.00    +0.000 A 
ENDBRANCH   1   6
BRANCH   1   9
ATOM      9  C   UNL     1       5.615  16.757   2.856  0.00  0.00    +0.000 C 
BRANCH   9  10
ATOM     10  C   UNL     1       6.600  15.618   3.217  0.00  0.00    +0.000 C 
ATOM     11  C   UNL     1       7.492  16.019   4.386  0.00  0.00    +0.000 C 
BRANCH  10  12
ATOM     12  O   UNL     1       5.894  14.425   3.586  0.00  0.00    +0.000 OA
ATOM     13  H   UNL     1       4.950  14.565   3.404  0.00  0.00    +0.000 HD
ENDBRANCH  10  12
ENDBRANCH   9  10
ENDBRANCH   1   9
BRANCH   1  14
ATOM     14  C   UNL     1       6.610  18.098   0.994  0.00  0.00    +0.000 C 
BRANCH  14  15
ATOM     15  C   UNL     1       7.729  17.496   0.109  0.00  0.00    +0.000 C 
ATOM     16  C   UNL     1       8.238  18.463  -0.953  0.00  0.00    +0.000 C 
BRANCH  15  17
ATOM     17  O   UNL     1       8.845  17.069   0.889  0.00  0.00    +0.000 OA
ATOM     18  H   UNL     1       8.458  16.535   1.612  0.00  0.00    +0.000 HD
ENDBRANCH  15  17
ENDBRANCH  14  15
ENDBRANCH   1  14
TORSDOF 7
ENDMDL
MODEL 5
REMARK VINA RESULT:    -4.036      2.190      2.693
REMARK INTER + INTRA:          -5.910
REMARK INTER:                  -5.292
REMARK INTRA:                  -0.618
REMARK UNBOUND:                -0.458
REMARK  Name = 
REMARK  10 active torsions:
REMARK  status: ('A' for Active; 'I' for Inactive)
REMARK    1  A    between atoms: C_1  and  C_2
REMARK    2  A    between atoms: C_5  and  N_8
REMARK    3  A    between atoms: N_8  and  C_9
REMARK    4  A    between atoms: N_8  and  C_13
REMARK    5  A    between atoms: C_9  and  C_10
REMARK    6  A    between atoms: C_10  and  C_11
REMARK    7  A    between atoms: C_10  and  O_12
REMARK    8  A    between atoms: C_13  and  C_14
REMARK    9  A    between atoms: C_14  and  C_15
REMARK   10  A    between atoms: C_14  and  O_16
REMARK                            x       y       z     vdW  Elec       q    Type
REMARK                         _______ _______ _______ _____ _____    ______ ____
ROOT
ATOM      1  N   UNL     1       6.511  17.614   0.927  0.00  0.00    +0.000 N 
ENDROOT
BRANCH   1   6
ATOM      2  C   UNL     1       1.297  15.837  -0.801  0.00  0.00    +0.000 C 
ATOM      3  C   UNL     1       2.660  16.290  -0.374  0.00  0.00    +0.000 A 
ATOM      4  C   UNL     1       3.492  15.455   0.364  0.00  0.00    +0.000 A 
ATOM      5  C   UNL     1       4.756  15.895   0.787  0.00  0.00    +0.000 A 
ATOM      6  C   UNL     1       5.241  17.188   0.518  0.00  0.00    +0.000 A 
ATOM      7  C   UNL     1       4.375  18.005  -0.231  0.00  0.00    +0.000 A 
ATOM      8  C   UNL     1       3.108  17.576  -0.663  0.00  0.00    +0.000 A 
ENDBRANCH   1   6
BRANCH   1   9
ATOM      9  C   UNL     1       7.060  17.171   2.231  0.00  0.00    +0.000 C 
BRANCH   9  10
ATOM     10  C   UNL     1       8.553  17.539   2.410  0.00  0.00    +0.000 C 
ATOM     11  C   UNL     1       8.954  17.493   3.880  0.00  0.00    +0.000 C 
BRANCH  10  12
ATOM     12  O   UNL     1       9.397  16.630   1.691  0.00  0.00    +0.000 OA
ATOM     13  H   UNL     1      10.181  16.451   2.236  0.00  0.00    +0.000 HD
ENDBRANCH  10  12
ENDBRANCH   9  10
ENDBRANCH   1   9
BRANCH   1  14
ATOM     14  C   UNL     1       7.116  18.858   0.385  0.00  0.00    +0.000 C 
BRANCH  14  15
ATOM     15  C   UNL     1       7.894  18.606  -0.929  0.00  0.00    +0.000 C 
ATOM     16  C   UNL     1       9.126  19.490  -1.075  0.00  0.00    +0.000 C 
BRANCH  15  17
ATOM     17  O   UNL     1       8.309  17.245  -1.042  0.00  0.00    +0.000 OA
ATOM     18  H   UNL     1       9.016  17.141  -0.374  0.00  0.00    +0.000 HD
ENDBRANCH  15  17
ENDBRANCH  14  15
ENDBRANCH   1  14
TORSDOF 7
ENDMDL
MODEL 6
REMARK VINA RESULT:    -3.896      1.712      3.782
REMARK INTER + INTRA:          -5.721
REMARK INTER:                  -5.016
REMARK INTRA:                  -0.705
REMARK UNBOUND:                -0.458
REMARK  Name = 
REMARK  10 active torsions:
REMARK  status: ('A' for Active; 'I' for Inactive)
REMARK    1  A    between atoms: C_1  and  C_2
REMARK    2  A    between atoms: C_5  and  N_8
REMARK    3  A    between atoms: N_8  and  C_9
REMARK    4  A    between atoms: N_8  and  C_13
REMARK    5  A    between atoms: C_9  and  C_10
REMARK    6  A    between atoms: C_10  and  C_11
REMARK    7  A    between atoms: C_10  and  O_12
REMARK    8  A    between atoms: C_13  and  C_14
REMARK    9  A    between atoms: C_14  and  C_15
REMARK   10  A    between atoms: C_14  and  O_16
REMARK                            x       y       z     vdW  Elec       q    Type
REMARK                         _______ _______ _______ _____ _____    ______ ____
ROOT
ATOM      1  N   UNL     1       5.349  16.852   1.340  0.00  0.00    +0.000 N 
ENDROOT
BRANCH   1   6
ATOM      2  C   UNL     1       0.662  16.013  -1.924  0.00  0.00    +0.000 C 
ATOM      3  C   UNL     1       1.893  16.222  -1.096  0.00  0.00    +0.000 A 
ATOM      4  C   UNL     1       2.364  15.223  -0.252  0.00  0.00    +0.000 A 
ATOM      5  C   UNL     1       3.501  15.435   0.545  0.00  0.00    +0.000 A 
ATOM      6  C   UNL     1       4.205  16.653   0.558  0.00  0.00    +0.000 A 
ATOM      7  C   UNL     1       3.701  17.640  -0.309  0.00  0.00    +0.000 A 
ATOM      8  C   UNL     1       2.566  17.440  -1.113  0.00  0.00    +0.000 A 
ENDBRANCH   1   6
BRANCH   1   9
ATOM      9  C   UNL     1       6.336  17.892   0.964  0.00  0.00    +0.000 C 
BRANCH   9  10
ATOM     10  C   UNL     1       7.380  17.386  -0.061  0.00  0.00    +0.000 C 
ATOM     11  C   UNL     1       7.535  18.372  -1.213  0.00  0.00    +0.000 C 
BRANCH  10  12
ATOM     12  O   UNL     1       8.665  17.217   0.554  0.00  0.00    +0.000 OA
ATOM     13  H   UNL     1       8.526  16.864   1.449  0.00  0.00    +0.000 HD
ENDBRANCH  10  12
ENDBRANCH   9  10
ENDBRANCH   1   9
BRANCH   1  14
ATOM     14  C   UNL     1       5.881  15.773   2.212  0.00  0.00    +0.000 C 
BRANCH  14  15
ATOM     15  C   UNL     1       6.723  16.331   3.384  0.00  0.00    +0.000 C 
ATOM     16  C   UNL     1       6.279  15.806   4.745  0.00  0.00    +0.000 C 
BRANCH  15  17
ATOM     17  O   UNL     1       8.109  16.032   3.227  0.00  0.00    +0.000 OA
ATOM     18  H   UNL     1       8.430  16.666   2.553  0.00  0.00    +0.000 HD
ENDBRANCH  15  17
ENDBRANCH  14  15
ENDBRANCH   1  14
TORSDOF 7
ENDMDL
MODEL 7
REMARK VINA RESULT:    -3.887      1.465      5.192
REMARK INTER + INTRA:          -5.708
REMARK INTER:                  -5.230
REMARK INTRA:                  -0.478
REMARK UNBOUND:                -0.458
REMARK  Name = 
REMARK  10 active torsions:
REMARK  status: ('A' for Active; 'I' for Inactive)
REMARK    1  A    between atoms: C_1  and  C_2
REMARK    2  A    between atoms: C_5  and  N_8
REMARK    3  A    between atoms: N_8  and  C_9
REMARK    4  A    between atoms: N_8  and  C_13
REMARK    5  A    between atoms: C_9  and  C_10
REMARK    6  A    between atoms: C_10  and  C_11
REMARK    7  A    between atoms: C_10  and  O_12
REMARK    8  A    between atoms: C_13  and  C_14
REMARK    9  A    between atoms: C_14  and  C_15
REMARK   10  A    between atoms: C_14  and  O_16
REMARK                            x       y       z     vdW  Elec       q    Type
REMARK                         _______ _______ _______ _____ _____    ______ ____
ROOT
ATOM      1  N   UNL     1       6.517  16.875   3.162  0.00  0.00    +0.000 N 
ENDROOT
BRANCH   1   6
ATOM      2  C   UNL     1       7.074  13.341   7.693  0.00  0.00    +0.000 C 
ATOM      3  C   UNL     1       6.950  14.270   6.524  0.00  0.00    +0.000 A 
ATOM      4  C   UNL     1       6.186  15.429   6.611  0.00  0.00    +0.000 A 
ATOM      5  C   UNL     1       6.048  16.281   5.503  0.00  0.00    +0.000 A 
ATOM      6  C   UNL     1       6.642  16.011   4.257  0.00  0.00    +0.000 A 
ATOM      7  C   UNL     1       7.409  14.832   4.206  0.00  0.00    +0.000 A 
ATOM      8  C   UNL     1       7.556  13.972   5.307  0.00  0.00    +0.000 A 
ENDBRANCH   1   6
BRANCH   1   9
ATOM      9  C   UNL     1       7.595  17.845   2.853  0.00  0.00    +0.000 C 
BRANCH   9  10
ATOM     10  C   UNL     1       8.343  17.512   1.540  0.00  0.00    +0.000 C 
ATOM     11  C   UNL     1       8.950  18.768   0.925  0.00  0.00    +0.000 C 
BRANCH  10  12
ATOM     12  O   UNL     1       9.404  16.576   1.775  0.00  0.00    +0.000 OA
ATOM     13  H   UNL     1      10.191  16.886   1.298  0.00  0.00    +0.000 HD
ENDBRANCH  10  12
ENDBRANCH   9  10
ENDBRANCH   1   9
BRANCH   1  14
ATOM     14  C   UNL     1       5.184  17.225   2.607  0.00  0.00    +0.000 C 
BRANCH  14  15
ATOM     15  C   UNL     1       4.860  16.432   1.319  0.00  0.00    +0.000 C 
ATOM     16  C   UNL     1       5.012  17.262   0.049  0.00  0.00    +0.000 C 
BRANCH  15  17
ATOM     17  O   UNL     1       5.684  15.274   1.191  0.00  0.00    +0.000 OA
ATOM     18  H   UNL     1       5.638  15.034   0.244  0.00  0.00    +0.000 HD
ENDBRANCH  15  17
ENDBRANCH  14  15
ENDBRANCH   1  14
TORSDOF 7
ENDMDL
MODEL 8
REMARK VINA RESULT:    -3.886      0.613      3.317
REMARK INTER + INTRA:          -5.707
REMARK INTER:                  -5.281
REMARK INTRA:                  -0.425
REMARK UNBOUND:                -0.458
REMARK  Name = 
REMARK  10 active torsions:
REMARK  status: ('A' for Active; 'I' for Inactive)
REMARK    1  A    between atoms: C_1  and  C_2
REMARK    2  A    between atoms: C_5  and  N_8
REMARK    3  A    between atoms: N_8  and  C_9
REMARK    4  A    between atoms: N_8  and  C_13
REMARK    5  A    between atoms: C_9  and  C_10
REMARK    6  A    between atoms: C_10  and  C_11
REMARK    7  A    between atoms: C_10  and  O_12
REMARK    8  A    between atoms: C_13  and  C_14
REMARK    9  A    between atoms: C_14  and  C_15
REMARK   10  A    between atoms: C_14  and  O_16
REMARK                            x       y       z     vdW  Elec       q    Type
REMARK                         _______ _______ _______ _____ _____    ______ ____
ROOT
ATOM      1  N   UNL     1       6.321  17.210   3.194  0.00  0.00    +0.000 N 
ENDROOT
BRANCH   1   6
ATOM      2  C   UNL     1       2.510  17.226  -1.143  0.00  0.00    +0.000 C 
ATOM      3  C   UNL     1       3.481  17.216  -0.002  0.00  0.00    +0.000 A 
ATOM      4  C   UNL     1       3.753  18.376   0.715  0.00  0.00    +0.000 A 
ATOM      5  C   UNL     1       4.686  18.367   1.765  0.00  0.00    +0.000 A 
ATOM      6  C   UNL     1       5.406  17.217   2.133  0.00  0.00    +0.000 A 
ATOM      7  C   UNL     1       5.104  16.062   1.389  0.00  0.00    +0.000 A 
ATOM      8  C   UNL     1       4.171  16.056   0.338  0.00  0.00    +0.000 A 
ENDBRANCH   1   6
BRANCH   1   9
ATOM      9  C   UNL     1       7.687  17.754   3.000  0.00  0.00    +0.000 C 
BRANCH   9  10
ATOM     10  C   UNL     1       8.254  17.465   1.589  0.00  0.00    +0.000 C 
ATOM     11  C   UNL     1       8.647  18.757   0.884  0.00  0.00    +0.000 C 
BRANCH  10  12
ATOM     12  O   UNL     1       9.417  16.628   1.663  0.00  0.00    +0.000 OA
ATOM     13  H   UNL     1      10.041  16.918   0.977  0.00  0.00    +0.000 HD
ENDBRANCH  10  12
ENDBRANCH   9  10
ENDBRANCH   1   9
BRANCH   1  14
ATOM     14  C   UNL     1       6.184  16.253   4.322  0.00  0.00    +0.000 C 
BRANCH  14  15
ATOM     15  C   UNL     1       7.020  14.969   4.103  0.00  0.00    +0.000 C 
ATOM     16  C   UNL     1       8.018  14.705   5.224  0.00  0.00    +0.000 C 
BRANCH  15  17
ATOM     17  O   UNL     1       6.189  13.816   3.970  0.00  0.00    +0.000 OA
ATOM     18  H   UNL     1       5.529  14.058   3.290  0.00  0.00    +0.000 HD
ENDBRANCH  15  17
ENDBRANCH  14  15
ENDBRANCH   1  14
TORSDOF 7
ENDMDL
MODEL 9
REMARK VINA RESULT:    -3.733      1.538      4.751
REMARK INTER + INTRA:          -5.501
REMARK INTER:                  -5.020
REMARK INTRA:                  -0.480
REMARK UNBOUND:                -0.458
REMARK  Name = 
REMARK  10 active torsions:
REMARK  status: ('A' for Active; 'I' for Inactive)
REMARK    1  A    between atoms: C_1  and  C_2
REMARK    2  A    between atoms: C_5  and  N_8
REMARK    3  A    between atoms: N_8  and  C_9
REMARK    4  A    between atoms: N_8  and  C_13
REMARK    5  A    between atoms: C_9  and  C_10
REMARK    6  A    between atoms: C_10  and  C_11
REMARK    7  A    between atoms: C_10  and  O_12
REMARK    8  A    between atoms: C_13  and  C_14
REMARK    9  A    between atoms: C_14  and  C_15
REMARK   10  A    between atoms: C_14  and  O_16
REMARK                            x       y       z     vdW  Elec       q    Type
REMARK                         _______ _______ _______ _____ _____    ______ ____
ROOT
ATOM      1  N   UNL     1       6.482  16.564   2.823  0.00  0.00    +0.000 N 
ENDROOT
BRANCH   1   6
ATOM      2  C   UNL     1       6.670  14.046   8.014  0.00  0.00    +0.000 C 
ATOM      3  C   UNL     1       6.641  14.713   6.673  0.00  0.00    +0.000 A 
ATOM      4  C   UNL     1       5.890  15.865   6.464  0.00  0.00    +0.000 A 
ATOM      5  C   UNL     1       5.843  16.469   5.197  0.00  0.00    +0.000 A 
ATOM      6  C   UNL     1       6.518  15.946   4.079  0.00  0.00    +0.000 A 
ATOM      7  C   UNL     1       7.269  14.782   4.327  0.00  0.00    +0.000 A 
ATOM      8  C   UNL     1       7.326  14.170   5.590  0.00  0.00    +0.000 A 
ENDBRANCH   1   6
BRANCH   1   9
ATOM      9  C   UNL     1       6.019  15.808   1.635  0.00  0.00    +0.000 C 
BRANCH   9  10
ATOM     10  C   UNL     1       4.572  16.171   1.218  0.00  0.00    +0.000 C 
ATOM     11  C   UNL     1       4.570  17.150   0.050  0.00  0.00    +0.000 C 
BRANCH  10  12
ATOM     12  O   UNL     1       3.842  15.002   0.820  0.00  0.00    +0.000 OA
ATOM     13  H   UNL     1       3.155  14.835   1.485  0.00  0.00    +0.000 HD
ENDBRANCH  10  12
ENDBRANCH   9  10
ENDBRANCH   1   9
BRANCH   1  14
ATOM     14  C   UNL     1       7.338  17.740   2.520  0.00  0.00    +0.000 C 
BRANCH  14  15
ATOM     15  C   UNL     1       8.267  17.488   1.307  0.00  0.00    +0.000 C 
ATOM     16  C   UNL     1       8.772  18.774   0.662  0.00  0.00    +0.000 C 
BRANCH  15  17
ATOM     17  O   UNL     1       9.401  16.700   1.666  0.00  0.00    +0.000 OA
ATOM     18  H   UNL     1       9.125  15.775   1.509  0.00  0.00    +0.000 HD
ENDBRANCH  15  17
ENDBRANCH  14  15
ENDBRANCH   1  14
TORSDOF 7
ENDMDL
