MODEL 1
REMARK VINA RESULT:    -5.257      0.000      0.000
REMARK INTER + INTRA:          -5.760
REMARK INTER:                  -5.718
REMARK INTRA:                  -0.042
REMARK UNBOUND:                -0.042
REMARK  Name = 
REMARK  3 active torsions:
REMARK  status: ('A' for Active; 'I' for Inactive)
REMARK    1  A    between atoms: C_1  and  O_2
REMARK    2  A    between atoms: O_2  and  C_3
REMARK    3  A    between atoms: C_8  and  O_9
REMARK                            x       y       z     vdW  Elec       q    Type
REMARK                         _______ _______ _______ _____ _____    ______ ____
ROOT
ATOM      1  C   UNL     1       8.925   9.453   4.799  0.00  0.00    +0.000 A 
ATOM      2  C   UNL     1      10.046  10.244   4.550  0.00  0.00    +0.000 A 
ATOM      3  C   UNL     1      10.745  10.108   3.344  0.00  0.00    +0.000 A 
ATOM      4  C   UNL     1      10.328   9.182   2.385  0.00  0.00    +0.000 A 
ATOM      5  C   UNL     1       9.210   8.388   2.626  0.00  0.00    +0.000 A 
ATOM      6  C   UNL     1       8.523   8.530   3.825  0.00  0.00    +0.000 A 
ENDROOT
BRANCH   1   8
ATOM      7  C   UNL     1       7.987  10.743   6.560  0.00  0.00    +0.000 C 
ATOM      8  O   UNL     1       8.149   9.478   5.929  0.00  0.00    +0.000 OA
ENDBRANCH   1   8
BRANCH   6   9
ATOM      9  O   UNL     1       7.426   7.738   4.039  0.00  0.00    +0.000 OA
ATOM     10  H   UNL     1       7.417   7.117   3.286  0.00  0.00    +0.000 HD
ENDBRANCH   6   9
TORSDOF 2
ENDMDL
MODEL 2
REMARK VINA RESULT:    -5.118      2.075      3.558
REMARK INTER + INTRA:          -5.609
REMARK INTER:                  -5.570
REMARK INTRA:                  -0.039
REMARK UNBOUND:                -0.042
REMARK  Name = 
REMARK  3 active torsions:
REMARK  status: ('A' for Active; 'I' for Inactive)
REMARK    1  A    between atoms: C_1  and  O_2
REMARK    2  A    between atoms: O_2  and  C_3
REMARK    3  A    between atoms: C_8  and  O_9
REMARK                            x       y       z     vdW  Elec       q    Type
REMARK                         _______ _______ _______ _____ _____    ______ ____
ROOT
ATOM      1  C   UNL     1       8.991   9.243   3.406  0.00  0.00    +0.000 A 
ATOM      2  C   UNL     1       8.567   8.966   4.705  0.00  0.00    +0.000 A 
ATOM      3  C   UNL     1       8.448  10.004   5.638  0.00  0.00    +0.000 A 
ATOM      4  C   UNL     1       8.751  11.318   5.278  0.00  0.00    +0.000 A 
ATOM      5  C   UNL     1       9.175  11.603   3.982  0.00  0.00    +0.000 A 
ATOM      6  C   UNL     1       9.291  10.567   3.063  0.00  0.00    +0.000 A 
ENDROOT
BRANCH   1   8
ATOM      7  C   UNL     1       8.439   7.108   2.522  0.00  0.00    +0.000 C 
ATOM      8  O   UNL     1       9.153   8.331   2.394  0.00  0.00    +0.000 OA
ENDBRANCH   1   8
BRANCH   6   9
ATOM      9  O   UNL     1       9.710  10.872   1.795  0.00  0.00    +0.000 OA
ATOM     10  H   UNL     1       9.487  11.815   1.680  0.00  0.00    +0.000 HD
ENDBRANCH   6   9
TORSDOF 2
ENDMDL
MODEL 3
REMARK VINA RESULT:    -5.088      2.090      2.630
REMARK INTER + INTRA:          -5.576
REMARK INTER:                  -5.536
REMARK INTRA:                  -0.040
REMARK UNBOUND:                -0.042
REMARK  Name = 
REMARK  3 active torsions:
REMARK  status: ('A' for Active; 'I' for Inactive)
REMARK    1  A    between atoms: C_1  and  O_2
REMARK    2  A    between atoms: O_2  and  C_3
REMARK    3  A    between atoms: C_8  and  O_9
REMARK                            x       y       z     vdW  Elec       q    Type
REMARK                         _______ _______ _______ _____ _____    ______ ____
ROOT
ATOM      1  C   UNL     1       8.949  10.158   3.709  0.00  0.00    +0.000 A 
ATOM      2  C   UNL     1       8.230   9.232   4.465  0.00  0.00    +0.000 A 
ATOM      3  C   UNL     1       8.154   7.897   4.048  0.00  0.00    +0.000 A 
ATOM      4  C   UNL     1       8.792   7.484   2.877  0.00  0.00    +0.000 A 
ATOM      5  C   UNL     1       9.512   8.402   2.117  0.00  0.00    +0.000 A 
ATOM      6  C   UNL     1       9.582   9.724   2.538  0.00  0.00    +0.000 A 
ENDROOT
BRANCH   1   8
ATOM      7  C   UNL     1       9.059  11.854   5.369  0.00  0.00    +0.000 C 
ATOM      8  O   UNL     1       9.107  11.490   3.995  0.00  0.00    +0.000 OA
ENDBRANCH   1   8
BRANCH   6   9
ATOM      9  O   UNL     1      10.296  10.609   1.774  0.00  0.00    +0.000 OA
ATOM     10  H   UNL     1       9.697  10.842   1.039  0.00  0.00    +0.000 HD
ENDBRANCH   6   9
TORSDOF 2
ENDMDL
MODEL 4
REMARK VINA RESULT:    -5.020      2.123      3.257
REMARK INTER + INTRA:          -5.502
REMARK INTER:                  -5.460
REMARK INTRA:                  -0.042
REMARK UNBOUND:                -0.042
REMARK  Name = 
REMARK  3 active torsions:
REMARK  status: ('A' for Active; 'I' for Inactive)
REMARK    1  A    between atoms: C_1  and  O_2
REMARK    2  A    between atoms: O_2  and  C_3
REMARK    3  A    between atoms: C_8  and  O_9
REMARK                            x       y       z     vdW  Elec       q    Type
REMARK                         _______ _______ _______ _____ _____    ______ ____
ROOT
ATOM      1  C   UNL     1       9.648   9.884   2.901  0.00  0.00    +0.000 A 
ATOM      2  C   UNL     1       9.304  10.553   4.074  0.00  0.00    +0.000 A 
ATOM      3  C   UNL     1       8.547   9.901   5.056  0.00  0.00    +0.000 A 
ATOM      4  C   UNL     1       8.131   8.582   4.868  0.00  0.00    +0.000 A 
ATOM      5  C   UNL     1       8.472   7.906   3.699  0.00  0.00    +0.000 A 
ATOM      6  C   UNL     1       9.223   8.561   2.731  0.00  0.00    +0.000 A 
ENDROOT
BRANCH   1   8
ATOM      7  C   UNL     1      11.782  10.519   2.071  0.00  0.00    +0.000 C 
ATOM      8  O   UNL     1      10.381  10.396   1.860  0.00  0.00    +0.000 OA
ENDBRANCH   1   8
BRANCH   6   9
ATOM      9  O   UNL     1       9.545   7.876   1.590  0.00  0.00    +0.000 OA
ATOM     10  H   UNL     1       9.132   6.998   1.702  0.00  0.00    +0.000 HD
ENDBRANCH   6   9
TORSDOF 2
ENDMDL
MODEL 5
REMARK VINA RESULT:    -4.964      1.399      2.154
REMARK INTER + INTRA:          -5.441
REMARK INTER:                  -5.446
REMARK INTRA:                   0.005
REMARK UNBOUND:                -0.042
REMARK  Name = 
REMARK  3 active torsions:
REMARK  status: ('A' for Active; 'I' for Inactive)
REMARK    1  A    between atoms: C_1  and  O_2
REMARK    2  A    between atoms: O_2  and  C_3
REMARK    3  A    between atoms: C_8  and  O_9
REMARK                            x       y       z     vdW  Elec       q    Type
REMARK                         _______ _______ _______ _____ _____    ______ ____
ROOT
ATOM      1  C   UNL     1       9.489   9.723   3.979  0.00  0.00    +0.000 A 
ATOM      2  C   UNL     1      10.021   9.353   2.745  0.00  0.00    +0.000 A 
ATOM      3  C   UNL     1       9.593   8.173   2.124  0.00  0.00    +0.000 A 
ATOM      4  C   UNL     1       8.635   7.360   2.733  0.00  0.00    +0.000 A 
ATOM      5  C   UNL     1       8.098   7.724   3.966  0.00  0.00    +0.000 A 
ATOM      6  C   UNL     1       8.529   8.896   4.575  0.00  0.00    +0.000 A 
ENDROOT
BRANCH   1   8
ATOM      7  C   UNL     1       9.129  12.043   4.351  0.00  0.00    +0.000 C 
ATOM      8  O   UNL     1       9.814  10.845   4.699  0.00  0.00    +0.000 OA
ENDBRANCH   1   8
BRANCH   6   9
ATOM      9  O   UNL     1       7.987   9.232   5.786  0.00  0.00    +0.000 OA
ATOM     10  H   UNL     1       8.261  10.158   5.933  0.00  0.00    +0.000 HD
ENDBRANCH   6   9
TORSDOF 2
ENDMDL
MODEL 6
REMARK VINA RESULT:    -4.775      1.404      2.986
REMARK INTER + INTRA:          -5.236
REMARK INTER:                  -5.198
REMARK INTRA:                  -0.038
REMARK UNBOUND:                -0.042
REMARK  Name = 
REMARK  3 active torsions:
REMARK  status: ('A' for Active; 'I' for Inactive)
REMARK    1  A    between atoms: C_1  and  O_2
REMARK    2  A    between atoms: O_2  and  C_3
REMARK    3  A    between atoms: C_8  and  O_9
REMARK                            x       y       z     vdW  Elec       q    Type
REMARK                         _______ _______ _______ _____ _____    ______ ____
ROOT
ATOM      1  C   UNL     1       8.499   9.277   3.987  0.00  0.00    +0.000 A 
ATOM      2  C   UNL     1       8.912   9.877   2.798  0.00  0.00    +0.000 A 
ATOM      3  C   UNL     1       9.272  11.230   2.786  0.00  0.00    +0.000 A 
ATOM      4  C   UNL     1       9.219  11.987   3.957  0.00  0.00    +0.000 A 
ATOM      5  C   UNL     1       8.807  11.395   5.149  0.00  0.00    +0.000 A 
ATOM      6  C   UNL     1       8.452  10.052   5.152  0.00  0.00    +0.000 A 
ENDROOT
BRANCH   1   8
ATOM      7  C   UNL     1       8.448   7.079   3.085  0.00  0.00    +0.000 C 
ATOM      8  O   UNL     1       8.118   7.968   4.145  0.00  0.00    +0.000 OA
ENDBRANCH   1   8
BRANCH   6   9
ATOM      9  O   UNL     1       8.050   9.492   6.335  0.00  0.00    +0.000 OA
ATOM     10  H   UNL     1       8.853   9.069   6.695  0.00  0.00    +0.000 HD
ENDBRANCH   6   9
TORSDOF 2
ENDMDL
MODEL 7
REMARK VINA RESULT:    -4.631      1.433      2.397
REMARK INTER + INTRA:          -5.079
REMARK INTER:                  -5.041
REMARK INTRA:                  -0.038
REMARK UNBOUND:                -0.042
REMARK  Name = 
REMARK  3 active torsions:
REMARK  status: ('A' for Active; 'I' for Inactive)
REMARK    1  A    between atoms: C_1  and  O_2
REMARK    2  A    between atoms: O_2  and  C_3
REMARK    3  A    between atoms: C_8  and  O_9
REMARK                            x       y       z     vdW  Elec       q    Type
REMARK                         _______ _______ _______ _____ _____    ______ ____
ROOT
ATOM      1  C   UNL     1       8.392  10.081   4.892  0.00  0.00    +0.000 A 
ATOM      2  C   UNL     1       8.397   8.796   4.351  0.00  0.00    +0.000 A 
ATOM      3  C   UNL     1       9.134   8.528   3.191  0.00  0.00    +0.000 A 
ATOM      4  C   UNL     1       9.866   9.540   2.568  0.00  0.00    +0.000 A 
ATOM      5  C   UNL     1       9.866  10.827   3.102  0.00  0.00    +0.000 A 
ATOM      6  C   UNL     1       9.132  11.083   4.253  0.00  0.00    +0.000 A 
ENDROOT
BRANCH   1   8
ATOM      7  C   UNL     1       8.281  10.102   7.265  0.00  0.00    +0.000 C 
ATOM      8  O   UNL     1       7.718  10.485   6.016  0.00  0.00    +0.000 OA
ENDBRANCH   1   8
BRANCH   6   9
ATOM      9  O   UNL     1       9.147  12.356   4.759  0.00  0.00    +0.000 OA
ATOM     10  H   UNL     1       8.226  12.524   5.037  0.00  0.00    +0.000 HD
ENDBRANCH   6   9
TORSDOF 2
ENDMDL
MODEL 8
REMARK VINA RESULT:    -4.606      1.418      3.269
REMARK INTER + INTRA:          -5.052
REMARK INTER:                  -5.002
REMARK INTRA:                  -0.051
REMARK UNBOUND:                -0.042
REMARK  Name = 
REMARK  3 active torsions:
REMARK  status: ('A' for Active; 'I' for Inactive)
REMARK    1  A    between atoms: C_1  and  O_2
REMARK    2  A    between atoms: O_2  and  C_3
REMARK    3  A    between atoms: C_8  and  O_9
REMARK                            x       y       z     vdW  Elec       q    Type
REMARK                         _______ _______ _______ _____ _____    ______ ____
ROOT
ATOM      1  C   UNL     1       8.849  10.207   3.875  0.00  0.00    +0.000 A 
ATOM      2  C   UNL     1       9.177  11.531   4.162  0.00  0.00    +0.000 A 
ATOM      3  C   UNL     1       8.939  12.048   5.442  0.00  0.00    +0.000 A 
ATOM      4  C   UNL     1       8.374  11.247   6.436  0.00  0.00    +0.000 A 
ATOM      5  C   UNL     1       8.045   9.923   6.156  0.00  0.00    +0.000 A 
ATOM      6  C   UNL     1       8.284   9.418   4.884  0.00  0.00    +0.000 A 
ENDROOT
BRANCH   1   8
ATOM      7  C   UNL     1      10.366   9.279   2.298  0.00  0.00    +0.000 C 
ATOM      8  O   UNL     1       9.025   9.571   2.672  0.00  0.00    +0.000 OA
ENDBRANCH   1   8
BRANCH   6   9
ATOM      9  O   UNL     1       7.952   8.114   4.633  0.00  0.00    +0.000 OA
ATOM     10  H   UNL     1       7.995   7.674   5.504  0.00  0.00    +0.000 HD
ENDBRANCH   6   9
TORSDOF 2
ENDMDL
MODEL 9
REMARK VINA RESULT:    -4.245      2.665      3.669
REMARK INTER + INTRA:          -4.660
REMARK INTER:                  -4.622
REMARK INTRA:                  -0.038
REMARK UNBOUND:                -0.042
REMARK  Name = 
REMARK  3 active torsions:
REMARK  status: ('A' for Active; 'I' for Inactive)
REMARK    1  A    between atoms: C_1  and  O_2
REMARK    2  A    between atoms: O_2  and  C_3
REMARK    3  A    between atoms: C_8  and  O_9
REMARK                            x       y       z     vdW  Elec       q    Type
REMARK                         _______ _______ _______ _____ _____    ______ ____
ROOT
ATOM      1  C   UNL     1       8.804  11.436   7.658  0.00  0.00    +0.000 A 
ATOM      2  C   UNL     1      10.010  11.499   6.961  0.00  0.00    +0.000 A 
ATOM      3  C   UNL     1      10.125  10.891   5.704  0.00  0.00    +0.000 A 
ATOM      4  C   UNL     1       9.038  10.219   5.142  0.00  0.00    +0.000 A 
ATOM      5  C   UNL     1       7.830  10.152   5.831  0.00  0.00    +0.000 A 
ATOM      6  C   UNL     1       7.725  10.758   7.077  0.00  0.00    +0.000 A 
ENDROOT
BRANCH   1   8
ATOM      7  C   UNL     1       9.511  12.908   9.384  0.00  0.00    +0.000 C 
ATOM      8  O   UNL     1       8.550  11.982   8.890  0.00  0.00    +0.000 OA
ENDBRANCH   1   8
BRANCH   6   9
ATOM      9  O   UNL     1       6.528  10.679   7.736  0.00  0.00    +0.000 OA
ATOM     10  H   UNL     1       6.113   9.861   7.400  0.00  0.00    +0.000 HD
ENDBRANCH   6   9
TORSDOF 2
ENDMDL
