MODEL 1
REMARK VINA RESULT:    -3.644      0.000      0.000
REMARK INTER + INTRA:          -4.006
REMARK INTER:                  -3.963
REMARK INTRA:                  -0.043
REMARK UNBOUND:                -0.043
REMARK  Name = 
REMARK  3 active torsions:
REMARK  status: ('A' for Active; 'I' for Inactive)
REMARK    1  A    between atoms: C_1  and  O_2
REMARK    2  A    between atoms: O_2  and  C_3
REMARK    3  A    between atoms: C_8  and  O_9
REMARK                            x       y       z     vdW  Elec       q    Type
REMARK                         _______ _______ _______ _____ _____    ______ ____
ROOT
ATOM      1  C   UNL     1       4.625  16.734  -0.608  0.00  0.00    +0.000 A 
ATOM      2  C   UNL     1       5.797  17.058   0.073  0.00  0.00    +0.000 A 
ATOM      3  C   UNL     1       7.038  16.663  -0.443  0.00  0.00    +0.000 A 
ATOM      4  C   UNL     1       7.111  15.943  -1.637  0.00  0.00    +0.000 A 
ATOM      5  C   UNL     1       5.943  15.616  -2.323  0.00  0.00    +0.000 A 
ATOM      6  C   UNL     1       4.717  16.012  -1.804  0.00  0.00    +0.000 A 
ENDROOT
BRANCH   1   8
ATOM      7  C   UNL     1       3.090  17.058   1.178  0.00  0.00    +0.000 C 
ATOM      8  O   UNL     1       3.348  17.054  -0.221  0.00  0.00    +0.000 OA
ENDBRANCH   1   8
BRANCH   6   9
ATOM      9  O   UNL     1       3.584  15.679  -2.496  0.00  0.00    +0.000 OA
ATOM     10  H   UNL     1       2.885  16.244  -2.115  0.00  0.00    +0.000 HD
ENDBRANCH   6   9
TORSDOF 2
ENDMDL
MODEL 2
REMARK VINA RESULT:    -3.516     16.653     17.629
REMARK INTER + INTRA:          -3.867
REMARK INTER:                  -3.822
REMARK INTRA:                  -0.044
REMARK UNBOUND:                -0.043
REMARK  Name = 
REMARK  3 active torsions:
REMARK  status: ('A' for Active; 'I' for Inactive)
REMARK    1  A    between atoms: C_1  and  O_2
REMARK    2  A    between atoms: O_2  and  C_3
REMARK    3  A    between atoms: C_8  and  O_9
REMARK                            x       y       z     vdW  Elec       q    Type
REMARK                         _______ _______ _______ _____ _____    ______ ____
ROOT
ATOM      1  C   UNL     1      19.491   9.250   4.643  0.00  0.00    +0.000 A 
ATOM      2  C   UNL     1      19.658   8.166   5.504  0.00  0.00    +0.000 A 
ATOM      3  C   UNL     1      20.854   7.438   5.488  0.00  0.00    +0.000 A 
ATOM      4  C   UNL     1      21.884   7.788   4.614  0.00  0.00    +0.000 A 
ATOM      5  C   UNL     1      21.725   8.869   3.750  0.00  0.00    +0.000 A 
ATOM      6  C   UNL     1      20.535   9.586   3.773  0.00  0.00    +0.000 A 
ENDROOT
BRANCH   1   8
ATOM      7  C   UNL     1      17.119   9.393   4.633  0.00  0.00    +0.000 C 
ATOM      8  O   UNL     1      18.379  10.048   4.549  0.00  0.00    +0.000 OA
ENDBRANCH   1   8
BRANCH   6   9
ATOM      9  O   UNL     1      20.402  10.645   2.915  0.00  0.00    +0.000 OA
ATOM     10  H   UNL     1      21.174  11.213   3.099  0.00  0.00    +0.000 HD
ENDBRANCH   6   9
TORSDOF 2
ENDMDL
MODEL 3
REMARK VINA RESULT:    -3.476     15.974     17.061
REMARK INTER + INTRA:          -3.824
REMARK INTER:                  -3.786
REMARK INTRA:                  -0.038
REMARK UNBOUND:                -0.043
REMARK  Name = 
REMARK  3 active torsions:
REMARK  status: ('A' for Active; 'I' for Inactive)
REMARK    1  A    between atoms: C_1  and  O_2
REMARK    2  A    between atoms: O_2  and  C_3
REMARK    3  A    between atoms: C_8  and  O_9
REMARK                            x       y       z     vdW  Elec       q    Type
REMARK                         _______ _______ _______ _____ _____    ______ ____
ROOT
ATOM      1  C   UNL     1      19.244   9.587   4.859  0.00  0.00    +0.000 A 
ATOM      2  C   UNL     1      20.287   8.674   5.010  0.00  0.00    +0.000 A 
ATOM      3  C   UNL     1      20.023   7.383   5.482  0.00  0.00    +0.000 A 
ATOM      4  C   UNL     1      18.720   7.000   5.806  0.00  0.00    +0.000 A 
ATOM      5  C   UNL     1      17.673   7.906   5.658  0.00  0.00    +0.000 A 
ATOM      6  C   UNL     1      17.943   9.185   5.188  0.00  0.00    +0.000 A 
ENDROOT
BRANCH   1   8
ATOM      7  C   UNL     1      20.606  11.248   3.842  0.00  0.00    +0.000 C 
ATOM      8  O   UNL     1      19.355  10.879   4.410  0.00  0.00    +0.000 OA
ENDBRANCH   1   8
BRANCH   6   9
ATOM      9  O   UNL     1      16.897  10.058   5.051  0.00  0.00    +0.000 OA
ATOM     10  H   UNL     1      16.804  10.185   4.088  0.00  0.00    +0.000 HD
ENDBRANCH   6   9
TORSDOF 2
ENDMDL
MODEL 4
REMARK VINA RESULT:    -3.411     14.427     15.962
REMARK INTER + INTRA:          -3.752
REMARK INTER:                  -3.705
REMARK INTRA:                  -0.047
REMARK UNBOUND:                -0.043
REMARK  Name = 
REMARK  3 active torsions:
REMARK  status: ('A' for Active; 'I' for Inactive)
REMARK    1  A    between atoms: C_1  and  O_2
REMARK    2  A    between atoms: O_2  and  C_3
REMARK    3  A    between atoms: C_8  and  O_9
REMARK                            x       y       z     vdW  Elec       q    Type
REMARK                         _______ _______ _______ _____ _____    ______ ____
ROOT
ATOM      1  C   UNL     1      18.775  15.908  -7.923  0.00  0.00    +0.000 A 
ATOM      2  C   UNL     1      18.634  15.231  -6.713  0.00  0.00    +0.000 A 
ATOM      3  C   UNL     1      19.746  15.043  -5.882  0.00  0.00    +0.000 A 
ATOM      4  C   UNL     1      21.000  15.529  -6.258  0.00  0.00    +0.000 A 
ATOM      5  C   UNL     1      21.149  16.207  -7.465  0.00  0.00    +0.000 A 
ATOM      6  C   UNL     1      20.041  16.389  -8.283  0.00  0.00    +0.000 A 
ENDROOT
BRANCH   1   8
ATOM      7  C   UNL     1      16.555  16.664  -8.306  0.00  0.00    +0.000 C 
ATOM      8  O   UNL     1      17.779  16.163  -8.831  0.00  0.00    +0.000 OA
ENDBRANCH   1   8
BRANCH   6   9
ATOM      9  O   UNL     1      20.212  17.058  -9.465  0.00  0.00    +0.000 OA
ATOM     10  H   UNL     1      19.990  16.404 -10.155  0.00  0.00    +0.000 HD
ENDBRANCH   6   9
TORSDOF 2
ENDMDL
MODEL 5
REMARK VINA RESULT:    -3.365     15.191     16.459
REMARK INTER + INTRA:          -3.703
REMARK INTER:                  -3.666
REMARK INTRA:                  -0.037
REMARK UNBOUND:                -0.043
REMARK  Name = 
REMARK  3 active torsions:
REMARK  status: ('A' for Active; 'I' for Inactive)
REMARK    1  A    between atoms: C_1  and  O_2
REMARK    2  A    between atoms: O_2  and  C_3
REMARK    3  A    between atoms: C_8  and  O_9
REMARK                            x       y       z     vdW  Elec       q    Type
REMARK                         _______ _______ _______ _____ _____    ______ ____
ROOT
ATOM      1  C   UNL     1      20.186  16.273  -7.573  0.00  0.00    +0.000 A 
ATOM      2  C   UNL     1      19.368  16.167  -6.449  0.00  0.00    +0.000 A 
ATOM      3  C   UNL     1      18.011  16.505  -6.536  0.00  0.00    +0.000 A 
ATOM      4  C   UNL     1      17.469  16.950  -7.743  0.00  0.00    +0.000 A 
ATOM      5  C   UNL     1      18.279  17.058  -8.870  0.00  0.00    +0.000 A 
ATOM      6  C   UNL     1      19.624  16.721  -8.775  0.00  0.00    +0.000 A 
ENDROOT
BRANCH   1   8
ATOM      7  C   UNL     1      22.134  15.548  -6.422  0.00  0.00    +0.000 C 
ATOM      8  O   UNL     1      21.524  15.979  -7.633  0.00  0.00    +0.000 OA
ENDBRANCH   1   8
BRANCH   6   9
ATOM      9  O   UNL     1      20.400  16.836  -9.897  0.00  0.00    +0.000 OA
ATOM     10  H   UNL     1      21.098  16.162  -9.786  0.00  0.00    +0.000 HD
ENDBRANCH   6   9
TORSDOF 2
ENDMDL
MODEL 6
REMARK VINA RESULT:    -3.331     14.715     16.357
REMARK INTER + INTRA:          -3.665
REMARK INTER:                  -3.625
REMARK INTRA:                  -0.040
REMARK UNBOUND:                -0.043
REMARK  Name = 
REMARK  3 active torsions:
REMARK  status: ('A' for Active; 'I' for Inactive)
REMARK    1  A    between atoms: C_1  and  O_2
REMARK    2  A    between atoms: O_2  and  C_3
REMARK    3  A    between atoms: C_8  and  O_9
REMARK                            x       y       z     vdW  Elec       q    Type
REMARK                         _______ _______ _______ _____ _____    ______ ____
ROOT
ATOM      1  C   UNL     1      20.313  15.808  -6.986  0.00  0.00    +0.000 A 
ATOM      2  C   UNL     1      20.424  16.691  -8.058  0.00  0.00    +0.000 A 
ATOM      3  C   UNL     1      19.283  17.058  -8.783  0.00  0.00    +0.000 A 
ATOM      4  C   UNL     1      18.031  16.545  -8.439  0.00  0.00    +0.000 A 
ATOM      5  C   UNL     1      17.912  15.662  -7.369  0.00  0.00    +0.000 A 
ATOM      6  C   UNL     1      19.049  15.303  -6.656  0.00  0.00    +0.000 A 
ENDROOT
BRANCH   1   8
ATOM      7  C   UNL     1      22.634  15.340  -6.783  0.00  0.00    +0.000 C 
ATOM      8  O   UNL     1      21.340  15.363  -6.192  0.00  0.00    +0.000 OA
ENDBRANCH   1   8
BRANCH   6   9
ATOM      9  O   UNL     1      18.907  14.433  -5.608  0.00  0.00    +0.000 OA
ATOM     10  H   UNL     1      19.750  14.495  -5.119  0.00  0.00    +0.000 HD
ENDBRANCH   6   9
TORSDOF 2
ENDMDL
MODEL 7
REMARK VINA RESULT:    -3.277     17.586     18.710
REMARK INTER + INTRA:          -3.607
REMARK INTER:                  -3.560
REMARK INTRA:                  -0.047
REMARK UNBOUND:                -0.043
REMARK  Name = 
REMARK  3 active torsions:
REMARK  status: ('A' for Active; 'I' for Inactive)
REMARK    1  A    between atoms: C_1  and  O_2
REMARK    2  A    between atoms: O_2  and  C_3
REMARK    3  A    between atoms: C_8  and  O_9
REMARK                            x       y       z     vdW  Elec       q    Type
REMARK                         _______ _______ _______ _____ _____    ______ ____
ROOT
ATOM      1  C   UNL     1      20.959   8.648   4.390  0.00  0.00    +0.000 A 
ATOM      2  C   UNL     1      19.874   9.517   4.505  0.00  0.00    +0.000 A 
ATOM      3  C   UNL     1      18.732   9.120   5.212  0.00  0.00    +0.000 A 
ATOM      4  C   UNL     1      18.669   7.856   5.803  0.00  0.00    +0.000 A 
ATOM      5  C   UNL     1      19.748   6.983   5.692  0.00  0.00    +0.000 A 
ATOM      6  C   UNL     1      20.877   7.385   4.990  0.00  0.00    +0.000 A 
ENDROOT
BRANCH   1   8
ATOM      7  C   UNL     1      22.025   9.484   2.438  0.00  0.00    +0.000 C 
ATOM      8  O   UNL     1      22.135   8.902   3.731  0.00  0.00    +0.000 OA
ENDBRANCH   1   8
BRANCH   6   9
ATOM      9  O   UNL     1      21.926   6.510   4.895  0.00  0.00    +0.000 OA
ATOM     10  H   UNL     1      21.654   5.738   5.428  0.00  0.00    +0.000 HD
ENDBRANCH   6   9
TORSDOF 2
ENDMDL
