MODEL 1
REMARK VINA RESULT:    -4.658      0.000      0.000
REMARK INTER + INTRA:          -6.652
REMARK INTER:                  -6.292
REMARK INTRA:                  -0.360
REMARK UNBOUND:                -0.360
REMARK  Name = 
REMARK  10 active torsions:
REMARK  status: ('A' for Active; 'I' for Inactive)
REMARK    1  A    between atoms: C_1  and  C_2
REMARK    2  A    between atoms: C_5  and  N_8
REMARK    3  A    between atoms: N_8  and  C_9
REMARK    4  A    between atoms: N_8  and  C_13
REMARK    5  A    between atoms: C_9  and  C_10
REMARK    6  A    between atoms: C_10  and  C_11
REMARK    7  A    between atoms: C_10  and  O_12
REMARK    8  A    between atoms: C_13  and  C_14
REMARK    9  A    between atoms: C_14  and  C_15
REMARK   10  A    between atoms: C_14  and  O_16
REMARK                            x       y       z     vdW  Elec       q    Type
REMARK                         _______ _______ _______ _____ _____    ______ ____
ROOT
ATOM      1  N   UNL     1       8.963  -1.936  44.795  0.00  0.00    +0.000 N 
ENDROOT
BRANCH   1   6
ATOM      2  C   UNL     1       9.571   1.550  49.357  0.00  0.00    +0.000 C 
ATOM      3  C   UNL     1       9.437   0.638  48.176  0.00  0.00    +0.000 A 
ATOM      4  C   UNL     1       9.698   1.093  46.888  0.00  0.00    +0.000 A 
ATOM      5  C   UNL     1       9.542   0.242  45.782  0.00  0.00    +0.000 A 
ATOM      6  C   UNL     1       9.098  -1.087  45.901  0.00  0.00    +0.000 A 
ATOM      7  C   UNL     1       8.845  -1.514  47.217  0.00  0.00    +0.000 A 
ATOM      8  C   UNL     1       9.000  -0.674  48.333  0.00  0.00    +0.000 A 
ENDBRANCH   1   6
BRANCH   1   9
ATOM      9  C   UNL     1       8.255  -3.231  44.935  0.00  0.00    +0.000 C 
BRANCH   9  10
ATOM     10  C   UNL     1       9.114  -4.437  44.482  0.00  0.00    +0.000 C 
ATOM     11  C   UNL     1       9.270  -5.450  45.610  0.00  0.00    +0.000 C 
BRANCH  10  12
ATOM     12  O   UNL     1       8.514  -5.106  43.364  0.00  0.00    +0.000 OA
ATOM     13  H   UNL     1       9.214  -5.582  42.886  0.00  0.00    +0.000 HD
ENDBRANCH  10  12
ENDBRANCH   9  10
ENDBRANCH   1   9
BRANCH   1  14
ATOM     14  C   UNL     1       9.902  -1.858  43.647  0.00  0.00    +0.000 C 
BRANCH  14  15
ATOM     15  C   UNL     1       9.339  -0.999  42.489  0.00  0.00    +0.000 C 
ATOM     16  C   UNL     1       7.844  -0.728  42.615  0.00  0.00    +0.000 C 
BRANCH  15  17
ATOM     17  O   UNL     1      10.009   0.256  42.390  0.00  0.00    +0.000 OA
ATOM     18  H   UNL     1       9.319   0.926  42.570  0.00  0.00    +0.000 HD
ENDBRANCH  15  17
ENDBRANCH  14  15
ENDBRANCH   1  14
TORSDOF 7
ENDMDL
MODEL 2
REMARK VINA RESULT:    -4.593      0.819      3.567
REMARK INTER + INTRA:          -6.564
REMARK INTER:                  -6.150
REMARK INTRA:                  -0.414
REMARK UNBOUND:                -0.360
REMARK  Name = 
REMARK  10 active torsions:
REMARK  status: ('A' for Active; 'I' for Inactive)
REMARK    1  A    between atoms: C_1  and  C_2
REMARK    2  A    between atoms: C_5  and  N_8
REMARK    3  A    between atoms: N_8  and  C_9
REMARK    4  A    between atoms: N_8  and  C_13
REMARK    5  A    between atoms: C_9  and  C_10
REMARK    6  A    between atoms: C_10  and  C_11
REMARK    7  A    between atoms: C_10  and  O_12
REMARK    8  A    between atoms: C_13  and  C_14
REMARK    9  A    between atoms: C_14  and  C_15
REMARK   10  A    between atoms: C_14  and  O_16
REMARK                            x       y       z     vdW  Elec       q    Type
REMARK                         _______ _______ _______ _____ _____    ______ ____
ROOT
ATOM      1  N   UNL     1       8.576  -1.584  44.626  0.00  0.00    +0.000 N 
ENDROOT
BRANCH   1   6
ATOM      2  C   UNL     1       9.770   1.358  49.447  0.00  0.00    +0.000 C 
ATOM      3  C   UNL     1       9.438   0.606  48.195  0.00  0.00    +0.000 A 
ATOM      4  C   UNL     1       8.840  -0.649  48.253  0.00  0.00    +0.000 A 
ATOM      5  C   UNL     1       8.558  -1.362  47.076  0.00  0.00    +0.000 A 
ATOM      6  C   UNL     1       8.877  -0.876  45.796  0.00  0.00    +0.000 A 
ATOM      7  C   UNL     1       9.479   0.396  45.775  0.00  0.00    +0.000 A 
ATOM      8  C   UNL     1       9.764   1.122  46.944  0.00  0.00    +0.000 A 
ENDBRANCH   1   6
BRANCH   1   9
ATOM      9  C   UNL     1       7.944  -0.890  43.478  0.00  0.00    +0.000 C 
BRANCH   9  10
ATOM     10  C   UNL     1       8.892  -0.760  42.261  0.00  0.00    +0.000 C 
ATOM     11  C   UNL     1       8.237   0.045  41.144  0.00  0.00    +0.000 C 
BRANCH  10  12
ATOM     12  O   UNL     1      10.113  -0.101  42.626  0.00  0.00    +0.000 OA
ATOM     13  H   UNL     1       9.980   0.320  43.492  0.00  0.00    +0.000 HD
ENDBRANCH  10  12
ENDBRANCH   9  10
ENDBRANCH   1   9
BRANCH   1  14
ATOM     14  C   UNL     1       8.384  -3.057  44.647  0.00  0.00    +0.000 C 
BRANCH  14  15
ATOM     15  C   UNL     1       9.719  -3.823  44.478  0.00  0.00    +0.000 C 
ATOM     16  C   UNL     1      10.325  -4.270  45.802  0.00  0.00    +0.000 C 
BRANCH  15  17
ATOM     17  O   UNL     1       9.564  -4.975  43.651  0.00  0.00    +0.000 OA
ATOM     18  H   UNL     1       9.172  -5.655  44.235  0.00  0.00    +0.000 HD
ENDBRANCH  15  17
ENDBRANCH  14  15
ENDBRANCH   1  14
TORSDOF 7
ENDMDL
MODEL 3
REMARK VINA RESULT:    -4.552      7.604     10.356
REMARK INTER + INTRA:          -6.508
REMARK INTER:                  -5.728
REMARK INTRA:                  -0.780
REMARK UNBOUND:                -0.360
REMARK  Name = 
REMARK  10 active torsions:
REMARK  status: ('A' for Active; 'I' for Inactive)
REMARK    1  A    between atoms: C_1  and  C_2
REMARK    2  A    between atoms: C_5  and  N_8
REMARK    3  A    between atoms: N_8  and  C_9
REMARK    4  A    between atoms: N_8  and  C_13
REMARK    5  A    between atoms: C_9  and  C_10
REMARK    6  A    between atoms: C_10  and  C_11
REMARK    7  A    between atoms: C_10  and  O_12
REMARK    8  A    between atoms: C_13  and  C_14
REMARK    9  A    between atoms: C_14  and  C_15
REMARK   10  A    between atoms: C_14  and  O_16
REMARK                            x       y       z     vdW  Elec       q    Type
REMARK                         _______ _______ _______ _____ _____    ______ ____
ROOT
ATOM      1  N   UNL     1      15.000  -7.322  43.189  0.00  0.00    +0.000 N 
ENDROOT
BRANCH   1   6
ATOM      2  C   UNL     1      13.179 -12.732  42.326  0.00  0.00    +0.000 C 
ATOM      3  C   UNL     1      13.675 -11.335  42.546  0.00  0.00    +0.000 A 
ATOM      4  C   UNL     1      14.008 -10.888  43.820  0.00  0.00    +0.000 A 
ATOM      5  C   UNL     1      14.444  -9.569  44.024  0.00  0.00    +0.000 A 
ATOM      6  C   UNL     1      14.546  -8.630  42.981  0.00  0.00    +0.000 A 
ATOM      7  C   UNL     1      14.203  -9.118  41.707  0.00  0.00    +0.000 A 
ATOM      8  C   UNL     1      13.768 -10.436  41.488  0.00  0.00    +0.000 A 
ENDBRANCH   1   6
BRANCH   1   9
ATOM      9  C   UNL     1      16.149  -7.068  44.091  0.00  0.00    +0.000 C 
BRANCH   9  10
ATOM     10  C   UNL     1      17.516  -7.234  43.382  0.00  0.00    +0.000 C 
ATOM     11  C   UNL     1      18.101  -8.617  43.642  0.00  0.00    +0.000 C 
BRANCH  10  12
ATOM     12  O   UNL     1      17.383  -7.067  41.963  0.00  0.00    +0.000 OA
ATOM     13  H   UNL     1      17.555  -7.926  41.542  0.00  0.00    +0.000 HD
ENDBRANCH  10  12
ENDBRANCH   9  10
ENDBRANCH   1   9
BRANCH   1  14
ATOM     14  C   UNL     1      14.107  -6.155  42.973  0.00  0.00    +0.000 C 
BRANCH  14  15
ATOM     15  C   UNL     1      14.362  -5.469  41.609  0.00  0.00    +0.000 C 
ATOM     16  C   UNL     1      13.178  -4.642  41.123  0.00  0.00    +0.000 C 
BRANCH  15  17
ATOM     17  O   UNL     1      15.507  -4.619  41.652  0.00  0.00    +0.000 OA
ATOM     18  H   UNL     1      15.896  -4.673  40.756  0.00  0.00    +0.000 HD
ENDBRANCH  15  17
ENDBRANCH  14  15
ENDBRANCH   1  14
TORSDOF 7
ENDMDL
MODEL 4
REMARK VINA RESULT:    -4.512      1.406      3.159
REMARK INTER + INTRA:          -6.455
REMARK INTER:                  -5.833
REMARK INTRA:                  -0.622
REMARK UNBOUND:                -0.360
REMARK  Name = 
REMARK  10 active torsions:
REMARK  status: ('A' for Active; 'I' for Inactive)
REMARK    1  A    between atoms: C_1  and  C_2
REMARK    2  A    between atoms: C_5  and  N_8
REMARK    3  A    between atoms: N_8  and  C_9
REMARK    4  A    between atoms: N_8  and  C_13
REMARK    5  A    between atoms: C_9  and  C_10
REMARK    6  A    between atoms: C_10  and  C_11
REMARK    7  A    between atoms: C_10  and  O_12
REMARK    8  A    between atoms: C_13  and  C_14
REMARK    9  A    between atoms: C_14  and  C_15
REMARK   10  A    between atoms: C_14  and  O_16
REMARK                            x       y       z     vdW  Elec       q    Type
REMARK                         _______ _______ _______ _____ _____    ______ ____
ROOT
ATOM      1  N   UNL     1       9.297  -2.424  44.554  0.00  0.00    +0.000 N 
ENDROOT
BRANCH   1   6
ATOM      2  C   UNL     1       9.135   1.482  48.802  0.00  0.00    +0.000 C 
ATOM      3  C   UNL     1       9.201   0.463  47.705  0.00  0.00    +0.000 A 
ATOM      4  C   UNL     1       9.558   0.828  46.412  0.00  0.00    +0.000 A 
ATOM      5  C   UNL     1       9.589  -0.125  45.381  0.00  0.00    +0.000 A 
ATOM      6  C   UNL     1       9.245  -1.474  45.582  0.00  0.00    +0.000 A 
ATOM      7  C   UNL     1       8.891  -1.808  46.902  0.00  0.00    +0.000 A 
ATOM      8  C   UNL     1       8.858  -0.865  47.942  0.00  0.00    +0.000 A 
ENDBRANCH   1   6
BRANCH   1   9
ATOM      9  C   UNL     1       9.460  -1.987  43.146  0.00  0.00    +0.000 C 
BRANCH   9  10
ATOM     10  C   UNL     1       8.744  -2.923  42.141  0.00  0.00    +0.000 C 
ATOM     11  C   UNL     1       7.993  -2.119  41.087  0.00  0.00    +0.000 C 
BRANCH  10  12
ATOM     12  O   UNL     1       9.685  -3.770  41.467  0.00  0.00    +0.000 OA
ATOM     13  H   UNL     1       9.295  -4.657  41.396  0.00  0.00    +0.000 HD
ENDBRANCH  10  12
ENDBRANCH   9  10
ENDBRANCH   1   9
BRANCH   1  14
ATOM     14  C   UNL     1       8.703  -3.775  44.724  0.00  0.00    +0.000 C 
BRANCH  14  15
ATOM     15  C   UNL     1       9.758  -4.829  45.139  0.00  0.00    +0.000 C 
ATOM     16  C   UNL     1       9.169  -5.981  45.944  0.00  0.00    +0.000 C 
BRANCH  15  17
ATOM     17  O   UNL     1      10.428  -5.379  44.006  0.00  0.00    +0.000 OA
ATOM     18  H   UNL     1      11.375  -5.183  44.152  0.00  0.00    +0.000 HD
ENDBRANCH  15  17
ENDBRANCH  14  15
ENDBRANCH   1  14
TORSDOF 7
ENDMDL
MODEL 5
REMARK VINA RESULT:    -4.395     17.179     18.517
REMARK INTER + INTRA:          -6.296
REMARK INTER:                  -5.780
REMARK INTRA:                  -0.516
REMARK UNBOUND:                -0.360
REMARK  Name = 
REMARK  10 active torsions:
REMARK  status: ('A' for Active; 'I' for Inactive)
REMARK    1  A    between atoms: C_1  and  C_2
REMARK    2  A    between atoms: C_5  and  N_8
REMARK    3  A    between atoms: N_8  and  C_9
REMARK    4  A    between atoms: N_8  and  C_13
REMARK    5  A    between atoms: C_9  and  C_10
REMARK    6  A    between atoms: C_10  and  C_11
REMARK    7  A    between atoms: C_10  and  O_12
REMARK    8  A    between atoms: C_13  and  C_14
REMARK    9  A    between atoms: C_14  and  C_15
REMARK   10  A    between atoms: C_14  and  O_16
REMARK                            x       y       z     vdW  Elec       q    Type
REMARK                         _______ _______ _______ _____ _____    ______ ____
ROOT
ATOM      1  N   UNL     1      21.395  -6.994  57.697  0.00  0.00    +0.000 N 
ENDROOT
BRANCH   1   6
ATOM      2  C   UNL     1      23.451  -6.901  52.303  0.00  0.00    +0.000 C 
ATOM      3  C   UNL     1      22.899  -6.941  53.695  0.00  0.00    +0.000 A 
ATOM      4  C   UNL     1      21.942  -6.022  54.112  0.00  0.00    +0.000 A 
ATOM      5  C   UNL     1      21.451  -6.045  55.427  0.00  0.00    +0.000 A 
ATOM      6  C   UNL     1      21.903  -6.964  56.392  0.00  0.00    +0.000 A 
ATOM      7  C   UNL     1      22.869  -7.880  55.936  0.00  0.00    +0.000 A 
ATOM      8  C   UNL     1      23.367  -7.868  54.622  0.00  0.00    +0.000 A 
ENDBRANCH   1   6
BRANCH   1   9
ATOM      9  C   UNL     1      20.611  -8.163  58.162  0.00  0.00    +0.000 C 
BRANCH   9  10
ATOM     10  C   UNL     1      21.273  -8.892  59.358  0.00  0.00    +0.000 C 
ATOM     11  C   UNL     1      20.220  -9.528  60.259  0.00  0.00    +0.000 C 
BRANCH  10  12
ATOM     12  O   UNL     1      22.155  -9.928  58.905  0.00  0.00    +0.000 OA
ATOM     13  H   UNL     1      21.618 -10.610  58.467  0.00  0.00    +0.000 HD
ENDBRANCH  10  12
ENDBRANCH   9  10
ENDBRANCH   1   9
BRANCH   1  14
ATOM     14  C   UNL     1      21.160  -5.741  58.460  0.00  0.00    +0.000 C 
BRANCH  14  15
ATOM     15  C   UNL     1      19.718  -5.657  59.014  0.00  0.00    +0.000 C 
ATOM     16  C   UNL     1      19.666  -5.489  60.528  0.00  0.00    +0.000 C 
BRANCH  15  17
ATOM     17  O   UNL     1      18.989  -4.581  58.425  0.00  0.00    +0.000 OA
ATOM     18  H   UNL     1      18.140  -4.555  58.911  0.00  0.00    +0.000 HD
ENDBRANCH  15  17
ENDBRANCH  14  15
ENDBRANCH   1  14
TORSDOF 7
ENDMDL
MODEL 6
REMARK VINA RESULT:    -4.367      2.023      3.911
REMARK INTER + INTRA:          -6.258
REMARK INTER:                  -5.627
REMARK INTRA:                  -0.630
REMARK UNBOUND:                -0.360
REMARK  Name = 
REMARK  10 active torsions:
REMARK  status: ('A' for Active; 'I' for Inactive)
REMARK    1  A    between atoms: C_1  and  C_2
REMARK    2  A    between atoms: C_5  and  N_8
REMARK    3  A    between atoms: N_8  and  C_9
REMARK    4  A    between atoms: N_8  and  C_13
REMARK    5  A    between atoms: C_9  and  C_10
REMARK    6  A    between atoms: C_10  and  C_11
REMARK    7  A    between atoms: C_10  and  O_12
REMARK    8  A    between atoms: C_13  and  C_14
REMARK    9  A    between atoms: C_14  and  C_15
REMARK   10  A    between atoms: C_14  and  O_16
REMARK                            x       y       z     vdW  Elec       q    Type
REMARK                         _______ _______ _______ _____ _____    ______ ____
ROOT
ATOM      1  N   UNL     1       8.839  -2.544  45.555  0.00  0.00    +0.000 N 
ENDROOT
BRANCH   1   6
ATOM      2  C   UNL     1       5.038   0.359  48.787  0.00  0.00    +0.000 C 
ATOM      3  C   UNL     1       6.017  -0.416  47.959  0.00  0.00    +0.000 A 
ATOM      4  C   UNL     1       7.324  -0.609  48.393  0.00  0.00    +0.000 A 
ATOM      5  C   UNL     1       8.246  -1.310  47.599  0.00  0.00    +0.000 A 
ATOM      6  C   UNL     1       7.920  -1.829  46.333  0.00  0.00    +0.000 A 
ATOM      7  C   UNL     1       6.590  -1.616  45.927  0.00  0.00    +0.000 A 
ATOM      8  C   UNL     1       5.657  -0.919  46.712  0.00  0.00    +0.000 A 
ENDBRANCH   1   6
BRANCH   1   9
ATOM      9  C   UNL     1       9.890  -1.824  44.796  0.00  0.00    +0.000 C 
BRANCH   9  10
ATOM     10  C   UNL     1       9.669  -1.877  43.265  0.00  0.00    +0.000 C 
ATOM     11  C   UNL     1       9.588  -0.474  42.676  0.00  0.00    +0.000 C 
BRANCH  10  12
ATOM     12  O   UNL     1      10.742  -2.571  42.613  0.00  0.00    +0.000 OA
ATOM     13  H   UNL     1      10.629  -3.522  42.777  0.00  0.00    +0.000 HD
ENDBRANCH  10  12
ENDBRANCH   9  10
ENDBRANCH   1   9
BRANCH   1  14
ATOM     14  C   UNL     1       8.523  -3.903  45.046  0.00  0.00    +0.000 C 
BRANCH  14  15
ATOM     15  C   UNL     1       9.654  -4.917  45.344  0.00  0.00    +0.000 C 
ATOM     16  C   UNL     1       9.165  -6.165  46.068  0.00  0.00    +0.000 C 
BRANCH  15  17
ATOM     17  O   UNL     1      10.319  -5.330  44.151  0.00  0.00    +0.000 OA
ATOM     18  H   UNL     1      10.776  -4.529  43.826  0.00  0.00    +0.000 HD
ENDBRANCH  15  17
ENDBRANCH  14  15
ENDBRANCH   1  14
TORSDOF 7
ENDMDL
MODEL 7
REMARK VINA RESULT:    -4.340      2.164      2.726
REMARK INTER + INTRA:          -6.222
REMARK INTER:                  -5.512
REMARK INTRA:                  -0.710
REMARK UNBOUND:                -0.360
REMARK  Name = 
REMARK  10 active torsions:
REMARK  status: ('A' for Active; 'I' for Inactive)
REMARK    1  A    between atoms: C_1  and  C_2
REMARK    2  A    between atoms: C_5  and  N_8
REMARK    3  A    between atoms: N_8  and  C_9
REMARK    4  A    between atoms: N_8  and  C_13
REMARK    5  A    between atoms: C_9  and  C_10
REMARK    6  A    between atoms: C_10  and  C_11
REMARK    7  A    between atoms: C_10  and  O_12
REMARK    8  A    between atoms: C_13  and  C_14
REMARK    9  A    between atoms: C_14  and  C_15
REMARK   10  A    between atoms: C_14  and  O_16
REMARK                            x       y       z     vdW  Elec       q    Type
REMARK                         _______ _______ _______ _____ _____    ______ ____
ROOT
ATOM      1  N   UNL     1       9.377  -2.789  43.615  0.00  0.00    +0.000 N 
ENDROOT
BRANCH   1   6
ATOM      2  C   UNL     1       8.958   0.688  48.204  0.00  0.00    +0.000 C 
ATOM      3  C   UNL     1       9.091  -0.218  47.019  0.00  0.00    +0.000 A 
ATOM      4  C   UNL     1       9.411   0.290  45.764  0.00  0.00    +0.000 A 
ATOM      5  C   UNL     1       9.505  -0.560  44.650  0.00  0.00    +0.000 A 
ATOM      6  C   UNL     1       9.263  -1.944  44.726  0.00  0.00    +0.000 A 
ATOM      7  C   UNL     1       8.943  -2.423  46.010  0.00  0.00    +0.000 A 
ATOM      8  C   UNL     1       8.848  -1.584  47.133  0.00  0.00    +0.000 A 
ENDBRANCH   1   6
BRANCH   1   9
ATOM      9  C   UNL     1      10.716  -3.186  43.118  0.00  0.00    +0.000 C 
BRANCH   9  10
ATOM     10  C   UNL     1      10.902  -4.722  43.056  0.00  0.00    +0.000 C 
ATOM     11  C   UNL     1      12.380  -5.094  43.091  0.00  0.00    +0.000 C 
BRANCH  10  12
ATOM     12  O   UNL     1      10.256  -5.364  44.164  0.00  0.00    +0.000 OA
ATOM     13  H   UNL     1       9.509  -5.881  43.819  0.00  0.00    +0.000 HD
ENDBRANCH  10  12
ENDBRANCH   9  10
ENDBRANCH   1   9
BRANCH   1  14
ATOM     14  C   UNL     1       8.283  -2.898  42.616  0.00  0.00    +0.000 C 
BRANCH  14  15
ATOM     15  C   UNL     1       7.130  -3.805  43.110  0.00  0.00    +0.000 C 
ATOM     16  C   UNL     1       5.833  -3.600  42.337  0.00  0.00    +0.000 C 
BRANCH  15  17
ATOM     17  O   UNL     1       7.476  -5.187  43.033  0.00  0.00    +0.000 OA
ATOM     18  H   UNL     1       8.455  -5.203  43.031  0.00  0.00    +0.000 HD
ENDBRANCH  15  17
ENDBRANCH  14  15
ENDBRANCH   1  14
TORSDOF 7
ENDMDL
MODEL 8
REMARK VINA RESULT:    -4.252      2.417      4.744
REMARK INTER + INTRA:          -6.103
REMARK INTER:                  -5.576
REMARK INTRA:                  -0.527
REMARK UNBOUND:                -0.360
REMARK  Name = 
REMARK  10 active torsions:
REMARK  status: ('A' for Active; 'I' for Inactive)
REMARK    1  A    between atoms: C_1  and  C_2
REMARK    2  A    between atoms: C_5  and  N_8
REMARK    3  A    between atoms: N_8  and  C_9
REMARK    4  A    between atoms: N_8  and  C_13
REMARK    5  A    between atoms: C_9  and  C_10
REMARK    6  A    between atoms: C_10  and  C_11
REMARK    7  A    between atoms: C_10  and  O_12
REMARK    8  A    between atoms: C_13  and  C_14
REMARK    9  A    between atoms: C_14  and  C_15
REMARK   10  A    between atoms: C_14  and  O_16
REMARK                            x       y       z     vdW  Elec       q    Type
REMARK                         _______ _______ _______ _____ _____    ______ ____
ROOT
ATOM      1  N   UNL     1       9.016  -0.989  45.586  0.00  0.00    +0.000 N 
ENDROOT
BRANCH   1   6
ATOM      2  C   UNL     1      11.722  -5.425  43.071  0.00  0.00    +0.000 C 
ATOM      3  C   UNL     1      10.998  -4.284  43.716  0.00  0.00    +0.000 A 
ATOM      4  C   UNL     1      10.759  -3.104  43.019  0.00  0.00    +0.000 A 
ATOM      5  C   UNL     1      10.106  -2.026  43.639  0.00  0.00    +0.000 A 
ATOM      6  C   UNL     1       9.684  -2.061  44.980  0.00  0.00    +0.000 A 
ATOM      7  C   UNL     1       9.940  -3.269  45.653  0.00  0.00    +0.000 A 
ATOM      8  C   UNL     1      10.590  -4.356  45.045  0.00  0.00    +0.000 A 
ENDBRANCH   1   6
BRANCH   1   9
ATOM      9  C   UNL     1       7.693  -1.201  46.221  0.00  0.00    +0.000 C 
BRANCH   9  10
ATOM     10  C   UNL     1       7.661  -0.758  47.704  0.00  0.00    +0.000 C 
ATOM     11  C   UNL     1       6.480  -1.386  48.435  0.00  0.00    +0.000 C 
BRANCH  10  12
ATOM     12  O   UNL     1       8.863  -1.147  48.383  0.00  0.00    +0.000 OA
ATOM     13  H   UNL     1       9.541  -0.475  48.203  0.00  0.00    +0.000 HD
ENDBRANCH  10  12
ENDBRANCH   9  10
ENDBRANCH   1   9
BRANCH   1  14
ATOM     14  C   UNL     1       9.304   0.415  45.197  0.00  0.00    +0.000 C 
BRANCH  14  15
ATOM     15  C   UNL     1       8.185   1.019  44.314  0.00  0.00    +0.000 C 
ATOM     16  C   UNL     1       7.585   2.293  44.896  0.00  0.00    +0.000 C 
BRANCH  15  17
ATOM     17  O   UNL     1       8.652   1.310  42.998  0.00  0.00    +0.000 OA
ATOM     18  H   UNL     1       9.523   1.737  43.127  0.00  0.00    +0.000 HD
ENDBRANCH  15  17
ENDBRANCH  14  15
ENDBRANCH   1  14
TORSDOF 7
ENDMDL
MODEL 9
REMARK VINA RESULT:    -4.211      2.135      4.925
REMARK INTER + INTRA:          -6.048
REMARK INTER:                  -5.377
REMARK INTRA:                  -0.671
REMARK UNBOUND:                -0.360
REMARK  Name = 
REMARK  10 active torsions:
REMARK  status: ('A' for Active; 'I' for Inactive)
REMARK    1  A    between atoms: C_1  and  C_2
REMARK    2  A    between atoms: C_5  and  N_8
REMARK    3  A    between atoms: N_8  and  C_9
REMARK    4  A    between atoms: N_8  and  C_13
REMARK    5  A    between atoms: C_9  and  C_10
REMARK    6  A    between atoms: C_10  and  C_11
REMARK    7  A    between atoms: C_10  and  O_12
REMARK    8  A    between atoms: C_13  and  C_14
REMARK    9  A    between atoms: C_14  and  C_15
REMARK   10  A    between atoms: C_14  and  O_16
REMARK                            x       y       z     vdW  Elec       q    Type
REMARK                         _______ _______ _______ _____ _____    ______ ____
ROOT
ATOM      1  N   UNL     1       9.282  -0.944  44.431  0.00  0.00    +0.000 N 
ENDROOT
BRANCH   1   6
ATOM      2  C   UNL     1       9.177  -6.461  46.128  0.00  0.00    +0.000 C 
ATOM      3  C   UNL     1       9.184  -5.024  45.702  0.00  0.00    +0.000 A 
ATOM      4  C   UNL     1       8.478  -4.608  44.578  0.00  0.00    +0.000 A 
ATOM      5  C   UNL     1       8.514  -3.266  44.167  0.00  0.00    +0.000 A 
ATOM      6  C   UNL     1       9.267  -2.284  44.836  0.00  0.00    +0.000 A 
ATOM      7  C   UNL     1       9.966  -2.740  45.968  0.00  0.00    +0.000 A 
ATOM      8  C   UNL     1       9.938  -4.079  46.392  0.00  0.00    +0.000 A 
ENDBRANCH   1   6
BRANCH   1   9
ATOM      9  C   UNL     1       9.505  -0.600  43.006  0.00  0.00    +0.000 C 
BRANCH   9  10
ATOM     10  C   UNL     1       8.361   0.255  42.408  0.00  0.00    +0.000 C 
ATOM     11  C   UNL     1       7.002  -0.251  42.877  0.00  0.00    +0.000 C 
BRANCH  10  12
ATOM     12  O   UNL     1       8.484   1.628  42.802  0.00  0.00    +0.000 OA
ATOM     13  H   UNL     1       9.424   1.872  42.756  0.00  0.00    +0.000 HD
ENDBRANCH  10  12
ENDBRANCH   9  10
ENDBRANCH   1   9
BRANCH   1  14
ATOM     14  C   UNL     1       9.589   0.146  45.392  0.00  0.00    +0.000 C 
BRANCH  14  15
ATOM     15  C   UNL     1       8.338   0.601  46.180  0.00  0.00    +0.000 C 
ATOM     16  C   UNL     1       8.527   0.545  47.691  0.00  0.00    +0.000 C 
BRANCH  15  17
ATOM     17  O   UNL     1       7.950   1.930  45.833  0.00  0.00    +0.000 OA
ATOM     18  H   UNL     1       7.081   2.060  46.264  0.00  0.00    +0.000 HD
ENDBRANCH  15  17
ENDBRANCH  14  15
ENDBRANCH   1  14
TORSDOF 7
ENDMDL
