MODEL 1
REMARK VINA RESULT:    -4.088      0.000      0.000
REMARK INTER + INTRA:          -5.987
REMARK INTER:                  -5.521
REMARK INTRA:                  -0.466
REMARK UNBOUND:                -0.466
REMARK  Name = 
REMARK  10 active torsions:
REMARK  status: ('A' for Active; 'I' for Inactive)
REMARK    1  A    between atoms: C_1  and  C_2
REMARK    2  A    between atoms: C_5  and  N_8
REMARK    3  A    between atoms: N_8  and  C_9
REMARK    4  A    between atoms: N_8  and  C_13
REMARK    5  A    between atoms: C_9  and  C_10
REMARK    6  A    between atoms: C_10  and  C_11
REMARK    7  A    between atoms: C_10  and  O_12
REMARK    8  A    between atoms: C_13  and  C_14
REMARK    9  A    between atoms: C_14  and  C_15
REMARK   10  A    between atoms: C_14  and  O_16
REMARK                            x       y       z     vdW  Elec       q    Type
REMARK                         _______ _______ _______ _____ _____    ______ ____
ROOT
ATOM      1  N   UNL     1       6.469  16.808   2.889  0.00  0.00    +0.000 N 
ENDROOT
BRANCH   1   6
ATOM      2  C   UNL     1       1.858  16.690  -0.583  0.00  0.00    +0.000 C 
ATOM      3  C   UNL     1       3.067  16.735   0.301  0.00  0.00    +0.000 A 
ATOM      4  C   UNL     1       4.041  15.745   0.229  0.00  0.00    +0.000 A 
ATOM      5  C   UNL     1       5.157  15.776   1.082  0.00  0.00    +0.000 A 
ATOM      6  C   UNL     1       5.344  16.773   2.055  0.00  0.00    +0.000 A 
ATOM      7  C   UNL     1       4.340  17.759   2.098  0.00  0.00    +0.000 A 
ATOM      8  C   UNL     1       3.221  17.741   1.250  0.00  0.00    +0.000 A 
ENDBRANCH   1   6
BRANCH   1   9
ATOM      9  C   UNL     1       6.412  16.202   4.241  0.00  0.00    +0.000 C 
BRANCH   9  10
ATOM     10  C   UNL     1       7.051  14.793   4.294  0.00  0.00    +0.000 C 
ATOM     11  C   UNL     1       7.508  14.454   5.708  0.00  0.00    +0.000 C 
BRANCH  10  12
ATOM     12  O   UNL     1       6.117  13.788   3.876  0.00  0.00    +0.000 OA
ATOM     13  H   UNL     1       5.222  14.102   4.088  0.00  0.00    +0.000 HD
ENDBRANCH  10  12
ENDBRANCH   9  10
ENDBRANCH   1   9
BRANCH   1  14
ATOM     14  C   UNL     1       7.527  17.836   2.709  0.00  0.00    +0.000 C 
BRANCH  14  15
ATOM     15  C   UNL     1       8.385  17.577   1.447  0.00  0.00    +0.000 C 
ATOM     16  C   UNL     1       9.044  18.838   0.902  0.00  0.00    +0.000 C 
BRANCH  15  17
ATOM     17  O   UNL     1       9.409  16.614   1.694  0.00  0.00    +0.000 OA
ATOM     18  H   UNL     1       9.451  16.076   0.879  0.00  0.00    +0.000 HD
ENDBRANCH  15  17
ENDBRANCH  14  15
ENDBRANCH   1  14
TORSDOF 7
ENDMDL
MODEL 2
REMARK VINA RESULT:    -4.080      4.152      6.828
REMARK INTER + INTRA:          -5.976
REMARK INTER:                  -5.401
REMARK INTRA:                  -0.575
REMARK UNBOUND:                -0.466
REMARK  Name = 
REMARK  10 active torsions:
REMARK  status: ('A' for Active; 'I' for Inactive)
REMARK    1  A    between atoms: C_1  and  C_2
REMARK    2  A    between atoms: C_5  and  N_8
REMARK    3  A    between atoms: N_8  and  C_9
REMARK    4  A    between atoms: N_8  and  C_13
REMARK    5  A    between atoms: C_9  and  C_10
REMARK    6  A    between atoms: C_10  and  C_11
REMARK    7  A    between atoms: C_10  and  O_12
REMARK    8  A    between atoms: C_13  and  C_14
REMARK    9  A    between atoms: C_14  and  C_15
REMARK   10  A    between atoms: C_14  and  O_16
REMARK                            x       y       z     vdW  Elec       q    Type
REMARK                         _______ _______ _______ _____ _____    ______ ____
ROOT
ATOM      1  N   UNL     1       1.581  16.027  -0.396  0.00  0.00    +0.000 N 
ENDROOT
BRANCH   1   6
ATOM      2  C   UNL     1       7.077  17.492   0.589  0.00  0.00    +0.000 C 
ATOM      3  C   UNL     1       5.658  17.102   0.311  0.00  0.00    +0.000 A 
ATOM      4  C   UNL     1       4.776  17.996  -0.286  0.00  0.00    +0.000 A 
ATOM      5  C   UNL     1       3.438  17.636  -0.517  0.00  0.00    +0.000 A 
ATOM      6  C   UNL     1       2.911  16.386  -0.145  0.00  0.00    +0.000 A 
ATOM      7  C   UNL     1       3.831  15.507   0.455  0.00  0.00    +0.000 A 
ATOM      8  C   UNL     1       5.172  15.854   0.689  0.00  0.00    +0.000 A 
ENDBRANCH   1   6
BRANCH   1   9
ATOM      9  C   UNL     1       0.768  15.394   0.671  0.00  0.00    +0.000 C 
BRANCH   9  10
ATOM     10  C   UNL     1       0.417  16.372   1.818  0.00  0.00    +0.000 C 
ATOM     11  C   UNL     1      -0.205  17.652   1.272  0.00  0.00    +0.000 C 
BRANCH  10  12
ATOM     12  O   UNL     1      -0.517  15.780   2.732  0.00  0.00    +0.000 OA
ATOM     13  H   UNL     1      -0.087  15.013   3.147  0.00  0.00    +0.000 HD
ENDBRANCH  10  12
ENDBRANCH   9  10
ENDBRANCH   1   9
BRANCH   1  14
ATOM     14  C   UNL     1       1.099  15.777  -1.779  0.00  0.00    +0.000 C 
BRANCH  14  15
ATOM     15  C   UNL     1      -0.411  16.076  -1.934  0.00  0.00    +0.000 C 
ATOM     16  C   UNL     1      -0.694  17.470  -2.481  0.00  0.00    +0.000 C 
BRANCH  15  17
ATOM     17  O   UNL     1      -1.051  15.128  -2.788  0.00  0.00    +0.000 OA
ATOM     18  H   UNL     1      -0.445  15.025  -3.549  0.00  0.00    +0.000 HD
ENDBRANCH  15  17
ENDBRANCH  14  15
ENDBRANCH   1  14
TORSDOF 7
ENDMDL
MODEL 3
REMARK VINA RESULT:    -4.054      1.706      4.999
REMARK INTER + INTRA:          -5.942
REMARK INTER:                  -5.424
REMARK INTRA:                  -0.518
REMARK UNBOUND:                -0.466
REMARK  Name = 
REMARK  10 active torsions:
REMARK  status: ('A' for Active; 'I' for Inactive)
REMARK    1  A    between atoms: C_1  and  C_2
REMARK    2  A    between atoms: C_5  and  N_8
REMARK    3  A    between atoms: N_8  and  C_9
REMARK    4  A    between atoms: N_8  and  C_13
REMARK    5  A    between atoms: C_9  and  C_10
REMARK    6  A    between atoms: C_10  and  C_11
REMARK    7  A    between atoms: C_10  and  O_12
REMARK    8  A    between atoms: C_13  and  C_14
REMARK    9  A    between atoms: C_14  and  C_15
REMARK   10  A    between atoms: C_14  and  O_16
REMARK                            x       y       z     vdW  Elec       q    Type
REMARK                         _______ _______ _______ _____ _____    ______ ____
ROOT
ATOM      1  N   UNL     1       6.175  16.476   1.358  0.00  0.00    +0.000 N 
ENDROOT
BRANCH   1   6
ATOM      2  C   UNL     1       9.828  20.461  -0.668  0.00  0.00    +0.000 C 
ATOM      3  C   UNL     1       8.900  19.412  -0.137  0.00  0.00    +0.000 A 
ATOM      4  C   UNL     1       8.359  18.445  -0.978  0.00  0.00    +0.000 A 
ATOM      5  C   UNL     1       7.465  17.482  -0.480  0.00  0.00    +0.000 A 
ATOM      6  C   UNL     1       7.051  17.451   0.864  0.00  0.00    +0.000 A 
ATOM      7  C   UNL     1       7.619  18.442   1.685  0.00  0.00    +0.000 A 
ATOM      8  C   UNL     1       8.516  19.409   1.201  0.00  0.00    +0.000 A 
ENDBRANCH   1   6
BRANCH   1   9
ATOM      9  C   UNL     1       5.321  15.703   0.424  0.00  0.00    +0.000 C 
BRANCH   9  10
ATOM     10  C   UNL     1       3.810  15.859   0.723  0.00  0.00    +0.000 C 
ATOM     11  C   UNL     1       3.158  16.830  -0.254  0.00  0.00    +0.000 C 
BRANCH  10  12
ATOM     12  O   UNL     1       3.131  14.600   0.618  0.00  0.00    +0.000 OA
ATOM     13  H   UNL     1       2.301  14.662   1.119  0.00  0.00    +0.000 HD
ENDBRANCH  10  12
ENDBRANCH   9  10
ENDBRANCH   1   9
BRANCH   1  14
ATOM     14  C   UNL     1       5.685  16.521   2.759  0.00  0.00    +0.000 C 
BRANCH  14  15
ATOM     15  C   UNL     1       6.458  15.546   3.680  0.00  0.00    +0.000 C 
ATOM     16  C   UNL     1       6.402  15.940   5.151  0.00  0.00    +0.000 C 
BRANCH  15  17
ATOM     17  O   UNL     1       5.971  14.211   3.561  0.00  0.00    +0.000 OA
ATOM     18  H   UNL     1       5.074  14.233   3.951  0.00  0.00    +0.000 HD
ENDBRANCH  15  17
ENDBRANCH  14  15
ENDBRANCH   1  14
TORSDOF 7
ENDMDL
MODEL 4
REMARK VINA RESULT:    -4.037      1.342      1.798
REMARK INTER + INTRA:          -5.918
REMARK INTER:                  -5.392
REMARK INTRA:                  -0.527
REMARK UNBOUND:                -0.466
REMARK  Name = 
REMARK  10 active torsions:
REMARK  status: ('A' for Active; 'I' for Inactive)
REMARK    1  A    between atoms: C_1  and  C_2
REMARK    2  A    between atoms: C_5  and  N_8
REMARK    3  A    between atoms: N_8  and  C_9
REMARK    4  A    between atoms: N_8  and  C_13
REMARK    5  A    between atoms: C_9  and  C_10
REMARK    6  A    between atoms: C_10  and  C_11
REMARK    7  A    between atoms: C_10  and  O_12
REMARK    8  A    between atoms: C_13  and  C_14
REMARK    9  A    between atoms: C_14  and  C_15
REMARK   10  A    between atoms: C_14  and  O_16
REMARK                            x       y       z     vdW  Elec       q    Type
REMARK                         _______ _______ _______ _____ _____    ______ ____
ROOT
ATOM      1  N   UNL     1       5.806  17.156   1.523  0.00  0.00    +0.000 N 
ENDROOT
BRANCH   1   6
ATOM      2  C   UNL     1       1.069  16.185  -1.631  0.00  0.00    +0.000 C 
ATOM      3  C   UNL     1       2.284  16.446  -0.794  0.00  0.00    +0.000 A 
ATOM      4  C   UNL     1       2.966  17.655  -0.882  0.00  0.00    +0.000 A 
ATOM      5  C   UNL     1       4.122  17.882  -0.117  0.00  0.00    +0.000 A 
ATOM      6  C   UNL     1       4.665  16.915   0.749  0.00  0.00    +0.000 A 
ATOM      7  C   UNL     1       3.948  15.706   0.814  0.00  0.00    +0.000 A 
ATOM      8  C   UNL     1       2.790  15.466   0.056  0.00  0.00    +0.000 A 
ENDBRANCH   1   6
BRANCH   1   9
ATOM      9  C   UNL     1       5.809  16.823   2.968  0.00  0.00    +0.000 C 
BRANCH   9  10
ATOM     10  C   UNL     1       6.760  15.651   3.312  0.00  0.00    +0.000 C 
ATOM     11  C   UNL     1       7.603  15.975   4.540  0.00  0.00    +0.000 C 
BRANCH  10  12
ATOM     12  O   UNL     1       6.022  14.452   3.584  0.00  0.00    +0.000 OA
ATOM     13  H   UNL     1       6.375  13.745   3.018  0.00  0.00    +0.000 HD
ENDBRANCH  10  12
ENDBRANCH   9  10
ENDBRANCH   1   9
BRANCH   1  14
ATOM     14  C   UNL     1       6.813  18.169   1.114  0.00  0.00    +0.000 C 
BRANCH  14  15
ATOM     15  C   UNL     1       7.951  17.553   0.266  0.00  0.00    +0.000 C 
ATOM     16  C   UNL     1       8.450  18.483  -0.834  0.00  0.00    +0.000 C 
BRANCH  15  17
ATOM     17  O   UNL     1       9.068  17.182   1.072  0.00  0.00    +0.000 OA
ATOM     18  H   UNL     1       8.705  16.566   1.739  0.00  0.00    +0.000 HD
ENDBRANCH  15  17
ENDBRANCH  14  15
ENDBRANCH   1  14
TORSDOF 7
ENDMDL
MODEL 5
REMARK VINA RESULT:    -4.029      2.168      2.700
REMARK INTER + INTRA:          -5.908
REMARK INTER:                  -5.277
REMARK INTRA:                  -0.632
REMARK UNBOUND:                -0.466
REMARK  Name = 
REMARK  10 active torsions:
REMARK  status: ('A' for Active; 'I' for Inactive)
REMARK    1  A    between atoms: C_1  and  C_2
REMARK    2  A    between atoms: C_5  and  N_8
REMARK    3  A    between atoms: N_8  and  C_9
REMARK    4  A    between atoms: N_8  and  C_13
REMARK    5  A    between atoms: C_9  and  C_10
REMARK    6  A    between atoms: C_10  and  C_11
REMARK    7  A    between atoms: C_10  and  O_12
REMARK    8  A    between atoms: C_13  and  C_14
REMARK    9  A    between atoms: C_14  and  C_15
REMARK   10  A    between atoms: C_14  and  O_16
REMARK                            x       y       z     vdW  Elec       q    Type
REMARK                         _______ _______ _______ _____ _____    ______ ____
ROOT
ATOM      1  N   UNL     1       6.493  17.581   0.899  0.00  0.00    +0.000 N 
ENDROOT
BRANCH   1   6
ATOM      2  C   UNL     1       1.250  15.845  -0.784  0.00  0.00    +0.000 C 
ATOM      3  C   UNL     1       2.601  16.303  -0.325  0.00  0.00    +0.000 A 
ATOM      4  C   UNL     1       3.048  17.592  -0.595  0.00  0.00    +0.000 A 
ATOM      5  C   UNL     1       4.327  18.006  -0.189  0.00  0.00    +0.000 A 
ATOM      6  C   UNL     1       5.226  17.155   0.480  0.00  0.00    +0.000 A 
ATOM      7  C   UNL     1       4.739  15.861   0.738  0.00  0.00    +0.000 A 
ATOM      8  C   UNL     1       3.461  15.435   0.340  0.00  0.00    +0.000 A 
ENDBRANCH   1   6
BRANCH   1   9
ATOM      9  C   UNL     1       7.028  17.142   2.211  0.00  0.00    +0.000 C 
BRANCH   9  10
ATOM     10  C   UNL     1       8.525  17.491   2.394  0.00  0.00    +0.000 C 
ATOM     11  C   UNL     1       8.917  17.452   3.867  0.00  0.00    +0.000 C 
BRANCH  10  12
ATOM     12  O   UNL     1       9.360  16.562   1.688  0.00  0.00    +0.000 OA
ATOM     13  H   UNL     1       9.774  17.034   0.946  0.00  0.00    +0.000 HD
ENDBRANCH  10  12
ENDBRANCH   9  10
ENDBRANCH   1   9
BRANCH   1  14
ATOM     14  C   UNL     1       7.105  18.821   0.358  0.00  0.00    +0.000 C 
BRANCH  14  15
ATOM     15  C   UNL     1       7.866  18.567  -0.966  0.00  0.00    +0.000 C 
ATOM     16  C   UNL     1       9.073  19.480  -1.148  0.00  0.00    +0.000 C 
BRANCH  15  17
ATOM     17  O   UNL     1       8.314  17.216  -1.066  0.00  0.00    +0.000 OA
ATOM     18  H   UNL     1       7.531  16.711  -1.365  0.00  0.00    +0.000 HD
ENDBRANCH  15  17
ENDBRANCH  14  15
ENDBRANCH   1  14
TORSDOF 7
ENDMDL
MODEL 6
REMARK VINA RESULT:    -3.926      1.762      4.733
REMARK INTER + INTRA:          -5.769
REMARK INTER:                  -5.247
REMARK INTRA:                  -0.522
REMARK UNBOUND:                -0.466
REMARK  Name = 
REMARK  10 active torsions:
REMARK  status: ('A' for Active; 'I' for Inactive)
REMARK    1  A    between atoms: C_1  and  C_2
REMARK    2  A    between atoms: C_5  and  N_8
REMARK    3  A    between atoms: N_8  and  C_9
REMARK    4  A    between atoms: N_8  and  C_13
REMARK    5  A    between atoms: C_9  and  C_10
REMARK    6  A    between atoms: C_10  and  C_11
REMARK    7  A    between atoms: C_10  and  O_12
REMARK    8  A    between atoms: C_13  and  C_14
REMARK    9  A    between atoms: C_14  and  C_15
REMARK   10  A    between atoms: C_14  and  O_16
REMARK                            x       y       z     vdW  Elec       q    Type
REMARK                         _______ _______ _______ _____ _____    ______ ____
ROOT
ATOM      1  N   UNL     1       5.838  16.844   1.398  0.00  0.00    +0.000 N 
ENDROOT
BRANCH   1   6
ATOM      2  C   UNL     1       9.946  20.262  -0.786  0.00  0.00    +0.000 C 
ATOM      3  C   UNL     1       8.862  19.390  -0.229  0.00  0.00    +0.000 A 
ATOM      4  C   UNL     1       8.380  19.586   1.061  0.00  0.00    +0.000 A 
ATOM      5  C   UNL     1       7.386  18.747   1.589  0.00  0.00    +0.000 A 
ATOM      6  C   UNL     1       6.844  17.665   0.873  0.00  0.00    +0.000 A 
ATOM      7  C   UNL     1       7.353  17.497  -0.428  0.00  0.00    +0.000 A 
ATOM      8  C   UNL     1       8.346  18.331  -0.969  0.00  0.00    +0.000 A 
ENDBRANCH   1   6
BRANCH   1   9
ATOM      9  C   UNL     1       5.737  16.638   2.863  0.00  0.00    +0.000 C 
BRANCH   9  10
ATOM     10  C   UNL     1       6.711  15.553   3.386  0.00  0.00    +0.000 C 
ATOM     11  C   UNL     1       7.451  16.038   4.627  0.00  0.00    +0.000 C 
BRANCH  10  12
ATOM     12  O   UNL     1       6.007  14.352   3.729  0.00  0.00    +0.000 OA
ATOM     13  H   UNL     1       6.629  13.608   3.659  0.00  0.00    +0.000 HD
ENDBRANCH  10  12
ENDBRANCH   9  10
ENDBRANCH   1   9
BRANCH   1  14
ATOM     14  C   UNL     1       5.200  15.786   0.574  0.00  0.00    +0.000 C 
BRANCH  14  15
ATOM     15  C   UNL     1       3.656  15.816   0.677  0.00  0.00    +0.000 C 
ATOM     16  C   UNL     1       2.999  16.660  -0.409  0.00  0.00    +0.000 C 
BRANCH  15  17
ATOM     17  O   UNL     1       3.097  14.505   0.617  0.00  0.00    +0.000 OA
ATOM     18  H   UNL     1       2.157  14.619   0.860  0.00  0.00    +0.000 HD
ENDBRANCH  15  17
ENDBRANCH  14  15
ENDBRANCH   1  14
TORSDOF 7
ENDMDL
MODEL 7
REMARK VINA RESULT:    -3.845      0.624      3.514
REMARK INTER + INTRA:          -5.659
REMARK INTER:                  -5.210
REMARK INTRA:                  -0.449
REMARK UNBOUND:                -0.466
REMARK  Name = 
REMARK  10 active torsions:
REMARK  status: ('A' for Active; 'I' for Inactive)
REMARK    1  A    between atoms: C_1  and  C_2
REMARK    2  A    between atoms: C_5  and  N_8
REMARK    3  A    between atoms: N_8  and  C_9
REMARK    4  A    between atoms: N_8  and  C_13
REMARK    5  A    between atoms: C_9  and  C_10
REMARK    6  A    between atoms: C_10  and  C_11
REMARK    7  A    between atoms: C_10  and  O_12
REMARK    8  A    between atoms: C_13  and  C_14
REMARK    9  A    between atoms: C_14  and  C_15
REMARK   10  A    between atoms: C_14  and  O_16
REMARK                            x       y       z     vdW  Elec       q    Type
REMARK                         _______ _______ _______ _____ _____    ______ ____
ROOT
ATOM      1  N   UNL     1       6.308  17.271   3.173  0.00  0.00    +0.000 N 
ENDROOT
BRANCH   1   6
ATOM      2  C   UNL     1       2.548  17.422  -1.205  0.00  0.00    +0.000 C 
ATOM      3  C   UNL     1       3.505  17.377  -0.054  0.00  0.00    +0.000 A 
ATOM      4  C   UNL     1       3.824  18.531   0.655  0.00  0.00    +0.000 A 
ATOM      5  C   UNL     1       4.745  18.489   1.715  0.00  0.00    +0.000 A 
ATOM      6  C   UNL     1       5.406  17.309   2.102  0.00  0.00    +0.000 A 
ATOM      7  C   UNL     1       5.058  16.162   1.365  0.00  0.00    +0.000 A 
ATOM      8  C   UNL     1       4.137  16.190   0.305  0.00  0.00    +0.000 A 
ENDBRANCH   1   6
BRANCH   1   9
ATOM      9  C   UNL     1       7.694  17.768   2.995  0.00  0.00    +0.000 C 
BRANCH   9  10
ATOM     10  C   UNL     1       8.263  17.469   1.587  0.00  0.00    +0.000 C 
ATOM     11  C   UNL     1       8.702  18.752   0.892  0.00  0.00    +0.000 C 
BRANCH  10  12
ATOM     12  O   UNL     1       9.399  16.596   1.666  0.00  0.00    +0.000 OA
ATOM     13  H   UNL     1       9.086  15.718   1.938  0.00  0.00    +0.000 HD
ENDBRANCH  10  12
ENDBRANCH   9  10
ENDBRANCH   1   9
BRANCH   1  14
ATOM     14  C   UNL     1       6.127  16.318   4.298  0.00  0.00    +0.000 C 
BRANCH  14  15
ATOM     15  C   UNL     1       6.975  15.036   4.121  0.00  0.00    +0.000 C 
ATOM     16  C   UNL     1       7.865  14.736   5.321  0.00  0.00    +0.000 C 
BRANCH  15  17
ATOM     17  O   UNL     1       6.158  13.892   3.880  0.00  0.00    +0.000 OA
ATOM     18  H   UNL     1       6.634  13.148   4.301  0.00  0.00    +0.000 HD
ENDBRANCH  15  17
ENDBRANCH  14  15
ENDBRANCH   1  14
TORSDOF 7
ENDMDL
MODEL 8
REMARK VINA RESULT:    -3.807      1.423      5.389
REMARK INTER + INTRA:          -5.608
REMARK INTER:                  -5.110
REMARK INTRA:                  -0.498
REMARK UNBOUND:                -0.466
REMARK  Name = 
REMARK  10 active torsions:
REMARK  status: ('A' for Active; 'I' for Inactive)
REMARK    1  A    between atoms: C_1  and  C_2
REMARK    2  A    between atoms: C_5  and  N_8
REMARK    3  A    between atoms: N_8  and  C_9
REMARK    4  A    between atoms: N_8  and  C_13
REMARK    5  A    between atoms: C_9  and  C_10
REMARK    6  A    between atoms: C_10  and  C_11
REMARK    7  A    between atoms: C_10  and  O_12
REMARK    8  A    between atoms: C_13  and  C_14
REMARK    9  A    between atoms: C_14  and  C_15
REMARK   10  A    between atoms: C_14  and  O_16
REMARK                            x       y       z     vdW  Elec       q    Type
REMARK                         _______ _______ _______ _____ _____    ______ ____
ROOT
ATOM      1  N   UNL     1       6.528  17.007   3.059  0.00  0.00    +0.000 N 
ENDROOT
BRANCH   1   6
ATOM      2  C   UNL     1       7.330  13.718   7.735  0.00  0.00    +0.000 C 
ATOM      3  C   UNL     1       7.139  14.588   6.531  0.00  0.00    +0.000 A 
ATOM      4  C   UNL     1       6.133  15.548   6.496  0.00  0.00    +0.000 A 
ATOM      5  C   UNL     1       5.938  16.340   5.353  0.00  0.00    +0.000 A 
ATOM      6  C   UNL     1       6.715  16.200   4.189  0.00  0.00    +0.000 A 
ATOM      7  C   UNL     1       7.723  15.222   4.260  0.00  0.00    +0.000 A 
ATOM      8  C   UNL     1       7.930  14.424   5.398  0.00  0.00    +0.000 A 
ENDBRANCH   1   6
BRANCH   1   9
ATOM      9  C   UNL     1       7.577  17.973   2.654  0.00  0.00    +0.000 C 
BRANCH   9  10
ATOM     10  C   UNL     1       8.288  17.571   1.339  0.00  0.00    +0.000 C 
ATOM     11  C   UNL     1       8.776  18.803   0.585  0.00  0.00    +0.000 C 
BRANCH  10  12
ATOM     12  O   UNL     1       9.421  16.733   1.602  0.00  0.00    +0.000 OA
ATOM     13  H   UNL     1       9.527  16.662   2.566  0.00  0.00    +0.000 HD
ENDBRANCH  10  12
ENDBRANCH   9  10
ENDBRANCH   1   9
BRANCH   1  14
ATOM     14  C   UNL     1       5.166  17.313   2.550  0.00  0.00    +0.000 C 
BRANCH  14  15
ATOM     15  C   UNL     1       4.788  16.437   1.331  0.00  0.00    +0.000 C 
ATOM     16  C   UNL     1       4.816  17.199   0.012  0.00  0.00    +0.000 C 
BRANCH  15  17
ATOM     17  O   UNL     1       5.650  15.306   1.207  0.00  0.00    +0.000 OA
ATOM     18  H   UNL     1       6.041  15.187   2.096  0.00  0.00    +0.000 HD
ENDBRANCH  15  17
ENDBRANCH  14  15
ENDBRANCH   1  14
TORSDOF 7
ENDMDL
MODEL 9
REMARK VINA RESULT:    -3.801      1.618      3.235
REMARK INTER + INTRA:          -5.600
REMARK INTER:                  -5.005
REMARK INTRA:                  -0.594
REMARK UNBOUND:                -0.466
REMARK  Name = 
REMARK  10 active torsions:
REMARK  status: ('A' for Active; 'I' for Inactive)
REMARK    1  A    between atoms: C_1  and  C_2
REMARK    2  A    between atoms: C_5  and  N_8
REMARK    3  A    between atoms: N_8  and  C_9
REMARK    4  A    between atoms: N_8  and  C_13
REMARK    5  A    between atoms: C_9  and  C_10
REMARK    6  A    between atoms: C_10  and  C_11
REMARK    7  A    between atoms: C_10  and  O_12
REMARK    8  A    between atoms: C_13  and  C_14
REMARK    9  A    between atoms: C_14  and  C_15
REMARK   10  A    between atoms: C_14  and  O_16
REMARK                            x       y       z     vdW  Elec       q    Type
REMARK                         _______ _______ _______ _____ _____    ______ ____
ROOT
ATOM      1  N   UNL     1       6.236  17.227   2.301  0.00  0.00    +0.000 N 
ENDROOT
BRANCH   1   6
ATOM      2  C   UNL     1       1.144  15.922  -0.086  0.00  0.00    +0.000 C 
ATOM      3  C   UNL     1       2.471  16.274   0.513  0.00  0.00    +0.000 A 
ATOM      4  C   UNL     1       3.579  15.454   0.327  0.00  0.00    +0.000 A 
ATOM      5  C   UNL     1       4.813  15.774   0.916  0.00  0.00    +0.000 A 
ATOM      6  C   UNL     1       4.997  16.904   1.733  0.00  0.00    +0.000 A 
ATOM      7  C   UNL     1       3.857  17.711   1.897  0.00  0.00    +0.000 A 
ATOM      8  C   UNL     1       2.617  17.405   1.312  0.00  0.00    +0.000 A 
ENDBRANCH   1   6
BRANCH   1   9
ATOM      9  C   UNL     1       7.074  18.293   1.701  0.00  0.00    +0.000 C 
BRANCH   9  10
ATOM     10  C   UNL     1       7.434  18.013   0.222  0.00  0.00    +0.000 C 
ATOM     11  C   UNL     1       7.819  19.300  -0.499  0.00  0.00    +0.000 C 
BRANCH  10  12
ATOM     12  O   UNL     1       8.538  17.102   0.124  0.00  0.00    +0.000 OA
ATOM     13  H   UNL     1       8.602  16.616   0.963  0.00  0.00    +0.000 HD
ENDBRANCH  10  12
ENDBRANCH   9  10
ENDBRANCH   1   9
BRANCH   1  14
ATOM     14  C   UNL     1       6.976  16.248   3.138  0.00  0.00    +0.000 C 
BRANCH  14  15
ATOM     15  C   UNL     1       8.367  16.778   3.565  0.00  0.00    +0.000 C 
ATOM     16  C   UNL     1       8.599  16.709   5.069  0.00  0.00    +0.000 C 
BRANCH  15  17
ATOM     17  O   UNL     1       9.422  16.065   2.922  0.00  0.00    +0.000 OA
ATOM     18  H   UNL     1       9.702  16.641   2.182  0.00  0.00    +0.000 HD
ENDBRANCH  15  17
ENDBRANCH  14  15
ENDBRANCH   1  14
TORSDOF 7
ENDMDL
