MODEL 1
REMARK VINA RESULT:    -5.635      0.000      0.000
REMARK INTER + INTRA:          -8.235
REMARK INTER:                  -7.611
REMARK INTRA:                  -0.623
REMARK UNBOUND:                -0.623
REMARK  Name = 
REMARK  10 active torsions:
REMARK  status: ('A' for Active; 'I' for Inactive)
REMARK    1  A    between atoms: C_1  and  C_2
REMARK    2  A    between atoms: C_5  and  N_8
REMARK    3  A    between atoms: N_8  and  C_9
REMARK    4  A    between atoms: N_8  and  C_13
REMARK    5  A    between atoms: C_9  and  C_10
REMARK    6  A    between atoms: C_10  and  C_11
REMARK    7  A    between atoms: C_10  and  O_12
REMARK    8  A    between atoms: C_13  and  C_14
REMARK    9  A    between atoms: C_14  and  C_15
REMARK   10  A    between atoms: C_14  and  O_16
REMARK                            x       y       z     vdW  Elec       q    Type
REMARK                         _______ _______ _______ _____ _____    ______ ____
ROOT
ATOM      1  N   UNL     1       2.287  18.670   1.790  0.00  0.00    +0.000 N 
ENDROOT
BRANCH   1   6
ATOM      2  C   UNL     1      -1.523  18.069  -2.506  0.00  0.00    +0.000 C 
ATOM      3  C   UNL     1      -0.531  18.249  -1.398  0.00  0.00    +0.000 A 
ATOM      4  C   UNL     1       0.818  17.971  -1.594  0.00  0.00    +0.000 A 
ATOM      5  C   UNL     1       1.738  18.112  -0.543  0.00  0.00    +0.000 A 
ATOM      6  C   UNL     1       1.360  18.512   0.752  0.00  0.00    +0.000 A 
ATOM      7  C   UNL     1      -0.010  18.787   0.913  0.00  0.00    +0.000 A 
ATOM      8  C   UNL     1      -0.941  18.652  -0.130  0.00  0.00    +0.000 A 
ENDBRANCH   1   6
BRANCH   1   9
ATOM      9  C   UNL     1       2.018  18.079   3.123  0.00  0.00    +0.000 C 
BRANCH   9  10
ATOM     10  C   UNL     1       2.733  16.722   3.333  0.00  0.00    +0.000 C 
ATOM     11  C   UNL     1       1.829  15.737   4.066  0.00  0.00    +0.000 C 
BRANCH  10  12
ATOM     12  O   UNL     1       3.102  16.135   2.077  0.00  0.00    +0.000 OA
ATOM     13  H   UNL     1       4.070  16.171   2.001  0.00  0.00    +0.000 HD
ENDBRANCH  10  12
ENDBRANCH   9  10
ENDBRANCH   1   9
BRANCH   1  14
ATOM     14  C   UNL     1       3.258  19.795   1.790  0.00  0.00    +0.000 C 
BRANCH  14  15
ATOM     15  C   UNL     1       4.711  19.312   1.568  0.00  0.00    +0.000 C 
ATOM     16  C   UNL     1       5.500  19.168   2.864  0.00  0.00    +0.000 C 
BRANCH  15  17
ATOM     17  O   UNL     1       4.752  18.061   0.884  0.00  0.00    +0.000 OA
ATOM     18  H   UNL     1       3.839  17.715   0.934  0.00  0.00    +0.000 HD
ENDBRANCH  15  17
ENDBRANCH  14  15
ENDBRANCH   1  14
TORSDOF 7
ENDMDL
MODEL 2
REMARK VINA RESULT:    -5.439      1.126      3.071
REMARK INTER + INTRA:          -7.971
REMARK INTER:                  -7.935
REMARK INTRA:                  -0.036
REMARK UNBOUND:                -0.623
REMARK  Name = 
REMARK  10 active torsions:
REMARK  status: ('A' for Active; 'I' for Inactive)
REMARK    1  A    between atoms: C_1  and  C_2
REMARK    2  A    between atoms: C_5  and  N_8
REMARK    3  A    between atoms: N_8  and  C_9
REMARK    4  A    between atoms: N_8  and  C_13
REMARK    5  A    between atoms: C_9  and  C_10
REMARK    6  A    between atoms: C_10  and  C_11
REMARK    7  A    between atoms: C_10  and  O_12
REMARK    8  A    between atoms: C_13  and  C_14
REMARK    9  A    between atoms: C_14  and  C_15
REMARK   10  A    between atoms: C_14  and  O_16
REMARK                            x       y       z     vdW  Elec       q    Type
REMARK                         _______ _______ _______ _____ _____    ______ ____
ROOT
ATOM      1  N   UNL     1       2.148  18.885   1.606  0.00  0.00    +0.000 N 
ENDROOT
BRANCH   1   6
ATOM      2  C   UNL     1      -1.074  17.994  -3.100  0.00  0.00    +0.000 C 
ATOM      3  C   UNL     1      -0.239  18.200  -1.874  0.00  0.00    +0.000 A 
ATOM      4  C   UNL     1      -0.826  18.547  -0.661  0.00  0.00    +0.000 A 
ATOM      5  C   UNL     1      -0.036  18.769   0.479  0.00  0.00    +0.000 A 
ATOM      6  C   UNL     1       1.368  18.681   0.461  0.00  0.00    +0.000 A 
ATOM      7  C   UNL     1       1.926  18.327  -0.781  0.00  0.00    +0.000 A 
ATOM      8  C   UNL     1       1.148  18.100  -1.928  0.00  0.00    +0.000 A 
ENDBRANCH   1   6
BRANCH   1   9
ATOM      9  C   UNL     1       3.538  19.386   1.479  0.00  0.00    +0.000 C 
BRANCH   9  10
ATOM     10  C   UNL     1       4.047  20.076   2.768  0.00  0.00    +0.000 C 
ATOM     11  C   UNL     1       5.488  19.679   3.067  0.00  0.00    +0.000 C 
BRANCH  10  12
ATOM     12  O   UNL     1       3.998  21.504   2.641  0.00  0.00    +0.000 OA
ATOM     13  H   UNL     1       4.575  21.761   1.903  0.00  0.00    +0.000 HD
ENDBRANCH  10  12
ENDBRANCH   9  10
ENDBRANCH   1   9
BRANCH   1  14
ATOM     14  C   UNL     1       1.857  18.167   2.873  0.00  0.00    +0.000 C 
BRANCH  14  15
ATOM     15  C   UNL     1       2.801  16.960   3.091  0.00  0.00    +0.000 C 
ATOM     16  C   UNL     1       2.243  15.930   4.066  0.00  0.00    +0.000 C 
BRANCH  15  17
ATOM     17  O   UNL     1       3.095  16.293   1.865  0.00  0.00    +0.000 OA
ATOM     18  H   UNL     1       2.734  15.390   1.975  0.00  0.00    +0.000 HD
ENDBRANCH  15  17
ENDBRANCH  14  15
ENDBRANCH   1  14
TORSDOF 7
ENDMDL
MODEL 3
REMARK VINA RESULT:    -5.320      1.485      3.091
REMARK INTER + INTRA:          -7.809
REMARK INTER:                  -7.092
REMARK INTRA:                  -0.717
REMARK UNBOUND:                -0.623
REMARK  Name = 
REMARK  10 active torsions:
REMARK  status: ('A' for Active; 'I' for Inactive)
REMARK    1  A    between atoms: C_1  and  C_2
REMARK    2  A    between atoms: C_5  and  N_8
REMARK    3  A    between atoms: N_8  and  C_9
REMARK    4  A    between atoms: N_8  and  C_13
REMARK    5  A    between atoms: C_9  and  C_10
REMARK    6  A    between atoms: C_10  and  C_11
REMARK    7  A    between atoms: C_10  and  O_12
REMARK    8  A    between atoms: C_13  and  C_14
REMARK    9  A    between atoms: C_14  and  C_15
REMARK   10  A    between atoms: C_14  and  O_16
REMARK                            x       y       z     vdW  Elec       q    Type
REMARK                         _______ _______ _______ _____ _____    ______ ____
ROOT
ATOM      1  N   UNL     1       2.990  18.537   0.973  0.00  0.00    +0.000 N 
ENDROOT
BRANCH   1   6
ATOM      2  C   UNL     1      -2.099  18.464  -1.753  0.00  0.00    +0.000 C 
ATOM      3  C   UNL     1      -0.775  18.507  -1.052  0.00  0.00    +0.000 A 
ATOM      4  C   UNL     1       0.394  18.144  -1.712  0.00  0.00    +0.000 A 
ATOM      5  C   UNL     1       1.628  18.158  -1.041  0.00  0.00    +0.000 A 
ATOM      6  C   UNL     1       1.754  18.507   0.316  0.00  0.00    +0.000 A 
ATOM      7  C   UNL     1       0.551  18.870   0.950  0.00  0.00    +0.000 A 
ATOM      8  C   UNL     1      -0.689  18.863   0.291  0.00  0.00    +0.000 A 
ENDBRANCH   1   6
BRANCH   1   9
ATOM      9  C   UNL     1       4.009  19.546   0.595  0.00  0.00    +0.000 C 
BRANCH   9  10
ATOM     10  C   UNL     1       3.958  20.812   1.484  0.00  0.00    +0.000 C 
ATOM     11  C   UNL     1       2.915  21.798   0.970  0.00  0.00    +0.000 C 
BRANCH  10  12
ATOM     12  O   UNL     1       3.624  20.477   2.838  0.00  0.00    +0.000 OA
ATOM     13  H   UNL     1       2.808  19.950   2.825  0.00  0.00    +0.000 HD
ENDBRANCH  10  12
ENDBRANCH   9  10
ENDBRANCH   1   9
BRANCH   1  14
ATOM     14  C   UNL     1       3.528  17.331   1.654  0.00  0.00    +0.000 C 
BRANCH  14  15
ATOM     15  C   UNL     1       2.921  17.137   3.064  0.00  0.00    +0.000 C 
ATOM     16  C   UNL     1       2.783  15.672   3.462  0.00  0.00    +0.000 C 
BRANCH  15  17
ATOM     17  O   UNL     1       3.694  17.796   4.066  0.00  0.00    +0.000 OA
ATOM     18  H   UNL     1       4.193  18.488   3.587  0.00  0.00    +0.000 HD
ENDBRANCH  15  17
ENDBRANCH  14  15
ENDBRANCH   1  14
TORSDOF 7
ENDMDL
MODEL 4
REMARK VINA RESULT:    -5.265     15.186     17.156
REMARK INTER + INTRA:          -7.735
REMARK INTER:                  -7.186
REMARK INTRA:                  -0.548
REMARK UNBOUND:                -0.623
REMARK  Name = 
REMARK  10 active torsions:
REMARK  status: ('A' for Active; 'I' for Inactive)
REMARK    1  A    between atoms: C_1  and  C_2
REMARK    2  A    between atoms: C_5  and  N_8
REMARK    3  A    between atoms: N_8  and  C_9
REMARK    4  A    between atoms: N_8  and  C_13
REMARK    5  A    between atoms: C_9  and  C_10
REMARK    6  A    between atoms: C_10  and  C_11
REMARK    7  A    between atoms: C_10  and  O_12
REMARK    8  A    between atoms: C_13  and  C_14
REMARK    9  A    between atoms: C_14  and  C_15
REMARK   10  A    between atoms: C_14  and  O_16
REMARK                            x       y       z     vdW  Elec       q    Type
REMARK                         _______ _______ _______ _____ _____    ______ ____
ROOT
ATOM      1  N   UNL     1       3.161  15.268 -15.616  0.00  0.00    +0.000 N 
ENDROOT
BRANCH   1   6
ATOM      2  C   UNL     1      -1.163  11.774 -14.060  0.00  0.00    +0.000 C 
ATOM      3  C   UNL     1      -0.025  12.661 -14.465  0.00  0.00    +0.000 A 
ATOM      4  C   UNL     1       0.784  13.266 -13.510  0.00  0.00    +0.000 A 
ATOM      5  C   UNL     1       1.830  14.121 -13.894  0.00  0.00    +0.000 A 
ATOM      6  C   UNL     1       2.104  14.431 -15.239  0.00  0.00    +0.000 A 
ATOM      7  C   UNL     1       1.268  13.800 -16.178  0.00  0.00    +0.000 A 
ATOM      8  C   UNL     1       0.219  12.941 -15.806  0.00  0.00    +0.000 A 
ENDBRANCH   1   6
BRANCH   1   9
ATOM      9  C   UNL     1       3.655  15.258 -17.014  0.00  0.00    +0.000 C 
BRANCH   9  10
ATOM     10  C   UNL     1       5.169  14.947 -17.114  0.00  0.00    +0.000 C 
ATOM     11  C   UNL     1       5.424  13.778 -18.058  0.00  0.00    +0.000 C 
BRANCH  10  12
ATOM     12  O   UNL     1       5.896  16.082 -17.605  0.00  0.00    +0.000 OA
ATOM     13  H   UNL     1       6.386  16.470 -16.862  0.00  0.00    +0.000 HD
ENDBRANCH  10  12
ENDBRANCH   9  10
ENDBRANCH   1   9
BRANCH   1  14
ATOM     14  C   UNL     1       4.132  15.780 -14.615  0.00  0.00    +0.000 C 
BRANCH  14  15
ATOM     15  C   UNL     1       4.038  17.315 -14.442  0.00  0.00    +0.000 C 
ATOM     16  C   UNL     1       2.828  17.754 -13.626  0.00  0.00    +0.000 C 
BRANCH  15  17
ATOM     17  O   UNL     1       5.207  17.848 -13.820  0.00  0.00    +0.000 OA
ATOM     18  H   UNL     1       5.644  18.378 -14.516  0.00  0.00    +0.000 HD
ENDBRANCH  15  17
ENDBRANCH  14  15
ENDBRANCH   1  14
TORSDOF 7
ENDMDL
MODEL 5
REMARK VINA RESULT:    -5.255      1.729      2.523
REMARK INTER + INTRA:          -7.722
REMARK INTER:                  -7.123
REMARK INTRA:                  -0.599
REMARK UNBOUND:                -0.623
REMARK  Name = 
REMARK  10 active torsions:
REMARK  status: ('A' for Active; 'I' for Inactive)
REMARK    1  A    between atoms: C_1  and  C_2
REMARK    2  A    between atoms: C_5  and  N_8
REMARK    3  A    between atoms: N_8  and  C_9
REMARK    4  A    between atoms: N_8  and  C_13
REMARK    5  A    between atoms: C_9  and  C_10
REMARK    6  A    between atoms: C_10  and  C_11
REMARK    7  A    between atoms: C_10  and  O_12
REMARK    8  A    between atoms: C_13  and  C_14
REMARK    9  A    between atoms: C_14  and  C_15
REMARK   10  A    between atoms: C_14  and  O_16
REMARK                            x       y       z     vdW  Elec       q    Type
REMARK                         _______ _______ _______ _____ _____    ______ ____
ROOT
ATOM      1  N   UNL     1       3.289  18.337   0.383  0.00  0.00    +0.000 N 
ENDROOT
BRANCH   1   6
ATOM      2  C   UNL     1      -1.986  18.400  -1.962  0.00  0.00    +0.000 C 
ATOM      3  C   UNL     1      -0.619  18.359  -1.349  0.00  0.00    +0.000 A 
ATOM      4  C   UNL     1      -0.433  18.642   0.000  0.00  0.00    +0.000 A 
ATOM      5  C   UNL     1       0.853  18.632   0.563  0.00  0.00    +0.000 A 
ATOM      6  C   UNL     1       2.011  18.364  -0.189  0.00  0.00    +0.000 A 
ATOM      7  C   UNL     1       1.785  18.081  -1.549  0.00  0.00    +0.000 A 
ATOM      8  C   UNL     1       0.504  18.085  -2.124  0.00  0.00    +0.000 A 
ENDBRANCH   1   6
BRANCH   1   9
ATOM      9  C   UNL     1       3.512  17.638   1.671  0.00  0.00    +0.000 C 
BRANCH   9  10
ATOM     10  C   UNL     1       4.588  18.324   2.548  0.00  0.00    +0.000 C 
ATOM     11  C   UNL     1       3.970  18.903   3.816  0.00  0.00    +0.000 C 
BRANCH  10  12
ATOM     12  O   UNL     1       5.607  17.393   2.936  0.00  0.00    +0.000 OA
ATOM     13  H   UNL     1       5.724  16.756   2.212  0.00  0.00    +0.000 HD
ENDBRANCH  10  12
ENDBRANCH   9  10
ENDBRANCH   1   9
BRANCH   1  14
ATOM     14  C   UNL     1       4.304  19.369   0.049  0.00  0.00    +0.000 C 
BRANCH  14  15
ATOM     15  C   UNL     1       3.669  20.764  -0.165  0.00  0.00    +0.000 C 
ATOM     16  C   UNL     1       3.448  21.528   1.135  0.00  0.00    +0.000 C 
BRANCH  15  17
ATOM     17  O   UNL     1       4.463  21.579  -1.026  0.00  0.00    +0.000 OA
ATOM     18  H   UNL     1       4.505  22.450  -0.583  0.00  0.00    +0.000 HD
ENDBRANCH  15  17
ENDBRANCH  14  15
ENDBRANCH   1  14
TORSDOF 7
ENDMDL
MODEL 6
REMARK VINA RESULT:    -4.930     15.169     17.101
REMARK INTER + INTRA:          -7.282
REMARK INTER:                  -6.929
REMARK INTRA:                  -0.353
REMARK UNBOUND:                -0.623
REMARK  Name = 
REMARK  10 active torsions:
REMARK  status: ('A' for Active; 'I' for Inactive)
REMARK    1  A    between atoms: C_1  and  C_2
REMARK    2  A    between atoms: C_5  and  N_8
REMARK    3  A    between atoms: N_8  and  C_9
REMARK    4  A    between atoms: N_8  and  C_13
REMARK    5  A    between atoms: C_9  and  C_10
REMARK    6  A    between atoms: C_10  and  C_11
REMARK    7  A    between atoms: C_10  and  O_12
REMARK    8  A    between atoms: C_13  and  C_14
REMARK    9  A    between atoms: C_14  and  C_15
REMARK   10  A    between atoms: C_14  and  O_16
REMARK                            x       y       z     vdW  Elec       q    Type
REMARK                         _______ _______ _______ _____ _____    ______ ____
ROOT
ATOM      1  N   UNL     1       2.343  14.885 -15.579  0.00  0.00    +0.000 N 
ENDROOT
BRANCH   1   6
ATOM      2  C   UNL     1      -1.960  11.139 -14.697  0.00  0.00    +0.000 C 
ATOM      3  C   UNL     1      -0.859  12.130 -14.919  0.00  0.00    +0.000 A 
ATOM      4  C   UNL     1      -0.656  12.704 -16.170  0.00  0.00    +0.000 A 
ATOM      5  C   UNL     1       0.397  13.609 -16.380  0.00  0.00    +0.000 A 
ATOM      6  C   UNL     1       1.307  13.966 -15.368  0.00  0.00    +0.000 A 
ATOM      7  C   UNL     1       1.070  13.369 -14.117  0.00  0.00    +0.000 A 
ATOM      8  C   UNL     1       0.020  12.463 -13.893  0.00  0.00    +0.000 A 
ENDBRANCH   1   6
BRANCH   1   9
ATOM      9  C   UNL     1       2.503  16.046 -14.671  0.00  0.00    +0.000 C 
BRANCH   9  10
ATOM     10  C   UNL     1       3.730  15.912 -13.736  0.00  0.00    +0.000 C 
ATOM     11  C   UNL     1       4.430  17.254 -13.558  0.00  0.00    +0.000 C 
BRANCH  10  12
ATOM     12  O   UNL     1       3.339  15.440 -12.439  0.00  0.00    +0.000 OA
ATOM     13  H   UNL     1       2.700  14.718 -12.561  0.00  0.00    +0.000 HD
ENDBRANCH  10  12
ENDBRANCH   9  10
ENDBRANCH   1   9
BRANCH   1  14
ATOM     14  C   UNL     1       2.963  15.050 -16.919  0.00  0.00    +0.000 C 
BRANCH  14  15
ATOM     15  C   UNL     1       4.491  14.802 -16.889  0.00  0.00    +0.000 C 
ATOM     16  C   UNL     1       4.978  13.921 -18.034  0.00  0.00    +0.000 C 
BRANCH  15  17
ATOM     17  O   UNL     1       5.224  16.025 -16.930  0.00  0.00    +0.000 OA
ATOM     18  H   UNL     1       5.431  16.164 -17.877  0.00  0.00    +0.000 HD
ENDBRANCH  15  17
ENDBRANCH  14  15
ENDBRANCH   1  14
TORSDOF 7
ENDMDL
MODEL 7
REMARK VINA RESULT:    -4.828     15.158     17.515
REMARK INTER + INTRA:          -7.144
REMARK INTER:                  -6.641
REMARK INTRA:                  -0.504
REMARK UNBOUND:                -0.623
REMARK  Name = 
REMARK  10 active torsions:
REMARK  status: ('A' for Active; 'I' for Inactive)
REMARK    1  A    between atoms: C_1  and  C_2
REMARK    2  A    between atoms: C_5  and  N_8
REMARK    3  A    between atoms: N_8  and  C_9
REMARK    4  A    between atoms: N_8  and  C_13
REMARK    5  A    between atoms: C_9  and  C_10
REMARK    6  A    between atoms: C_10  and  C_11
REMARK    7  A    between atoms: C_10  and  O_12
REMARK    8  A    between atoms: C_13  and  C_14
REMARK    9  A    between atoms: C_14  and  C_15
REMARK   10  A    between atoms: C_14  and  O_16
REMARK                            x       y       z     vdW  Elec       q    Type
REMARK                         _______ _______ _______ _____ _____    ______ ____
ROOT
ATOM      1  N   UNL     1       1.314  13.778 -15.943  0.00  0.00    +0.000 N 
ENDROOT
BRANCH   1   6
ATOM      2  C   UNL     1       4.950  17.418 -13.323  0.00  0.00    +0.000 C 
ATOM      3  C   UNL     1       4.022  16.454 -13.998  0.00  0.00    +0.000 A 
ATOM      4  C   UNL     1       4.101  16.228 -15.368  0.00  0.00    +0.000 A 
ATOM      5  C   UNL     1       3.209  15.347 -16.001  0.00  0.00    +0.000 A 
ATOM      6  C   UNL     1       2.188  14.671 -15.309  0.00  0.00    +0.000 A 
ATOM      7  C   UNL     1       2.139  14.922 -13.926  0.00  0.00    +0.000 A 
ATOM      8  C   UNL     1       3.026  15.799 -13.280  0.00  0.00    +0.000 A 
ENDBRANCH   1   6
BRANCH   1   9
ATOM      9  C   UNL     1       1.034  12.454 -15.336  0.00  0.00    +0.000 C 
BRANCH   9  10
ATOM     10  C   UNL     1      -0.283  12.434 -14.523  0.00  0.00    +0.000 C 
ATOM     11  C   UNL     1      -1.265  11.422 -15.103  0.00  0.00    +0.000 C 
BRANCH  10  12
ATOM     12  O   UNL     1      -0.038  12.081 -13.155  0.00  0.00    +0.000 OA
ATOM     13  H   UNL     1       0.194  12.892 -12.672  0.00  0.00    +0.000 HD
ENDBRANCH  10  12
ENDBRANCH   9  10
ENDBRANCH   1   9
BRANCH   1  14
ATOM     14  C   UNL     1       1.054  13.863 -17.403  0.00  0.00    +0.000 C 
BRANCH  14  15
ATOM     15  C   UNL     1      -0.316  14.511 -17.716  0.00  0.00    +0.000 C 
ATOM     16  C   UNL     1      -1.397  13.493 -18.058  0.00  0.00    +0.000 C 
BRANCH  15  17
ATOM     17  O   UNL     1      -0.785  15.304 -16.626  0.00  0.00    +0.000 OA
ATOM     18  H   UNL     1      -0.552  14.794 -15.824  0.00  0.00    +0.000 HD
ENDBRANCH  15  17
ENDBRANCH  14  15
ENDBRANCH   1  14
TORSDOF 7
ENDMDL
MODEL 8
REMARK VINA RESULT:    -4.825      2.518      5.755
REMARK INTER + INTRA:          -7.141
REMARK INTER:                  -6.765
REMARK INTRA:                  -0.376
REMARK UNBOUND:                -0.623
REMARK  Name = 
REMARK  10 active torsions:
REMARK  status: ('A' for Active; 'I' for Inactive)
REMARK    1  A    between atoms: C_1  and  C_2
REMARK    2  A    between atoms: C_5  and  N_8
REMARK    3  A    between atoms: N_8  and  C_9
REMARK    4  A    between atoms: N_8  and  C_13
REMARK    5  A    between atoms: C_9  and  C_10
REMARK    6  A    between atoms: C_10  and  C_11
REMARK    7  A    between atoms: C_10  and  O_12
REMARK    8  A    between atoms: C_13  and  C_14
REMARK    9  A    between atoms: C_14  and  C_15
REMARK   10  A    between atoms: C_14  and  O_16
REMARK                            x       y       z     vdW  Elec       q    Type
REMARK                         _______ _______ _______ _____ _____    ______ ____
ROOT
ATOM      1  N   UNL     1       1.105  18.868  -0.372  0.00  0.00    +0.000 N 
ENDROOT
BRANCH   1   6
ATOM      2  C   UNL     1       5.713  18.715   3.103  0.00  0.00    +0.000 C 
ATOM      3  C   UNL     1       4.502  18.751   2.221  0.00  0.00    +0.000 A 
ATOM      4  C   UNL     1       4.045  17.599   1.589  0.00  0.00    +0.000 A 
ATOM      5  C   UNL     1       2.927  17.644   0.740  0.00  0.00    +0.000 A 
ATOM      6  C   UNL     1       2.230  18.834   0.461  0.00  0.00    +0.000 A 
ATOM      7  C   UNL     1       2.719  19.978   1.118  0.00  0.00    +0.000 A 
ATOM      8  C   UNL     1       3.834  19.946   1.972  0.00  0.00    +0.000 A 
ENDBRANCH   1   6
BRANCH   1   9
ATOM      9  C   UNL     1       1.137  18.196  -1.693  0.00  0.00    +0.000 C 
BRANCH   9  10
ATOM     10  C   UNL     1      -0.161  18.412  -2.509  0.00  0.00    +0.000 C 
ATOM     11  C   UNL     1       0.101  19.289  -3.728  0.00  0.00    +0.000 C 
BRANCH  10  12
ATOM     12  O   UNL     1      -0.696  17.163  -2.967  0.00  0.00    +0.000 OA
ATOM     13  H   UNL     1      -1.550  17.339  -3.395  0.00  0.00    +0.000 HD
ENDBRANCH  10  12
ENDBRANCH   9  10
ENDBRANCH   1   9
BRANCH   1  14
ATOM     14  C   UNL     1       0.084  19.939  -0.241  0.00  0.00    +0.000 C 
BRANCH  14  15
ATOM     15  C   UNL     1      -1.018  19.574   0.783  0.00  0.00    +0.000 C 
ATOM     16  C   UNL     1      -2.395  20.097   0.394  0.00  0.00    +0.000 C 
BRANCH  15  17
ATOM     17  O   UNL     1      -1.118  18.163   0.969  0.00  0.00    +0.000 OA
ATOM     18  H   UNL     1      -1.165  17.791   0.065  0.00  0.00    +0.000 HD
ENDBRANCH  15  17
ENDBRANCH  14  15
ENDBRANCH   1  14
TORSDOF 7
ENDMDL
