MODEL 1
REMARK VINA RESULT:    -4.071      0.000      0.000
REMARK INTER + INTRA:          -5.974
REMARK INTER:                  -5.499
REMARK INTRA:                  -0.474
REMARK UNBOUND:                -0.474
REMARK  Name = 
REMARK  10 active torsions:
REMARK  status: ('A' for Active; 'I' for Inactive)
REMARK    1  A    between atoms: C_1  and  C_2
REMARK    2  A    between atoms: C_5  and  N_8
REMARK    3  A    between atoms: N_8  and  C_9
REMARK    4  A    between atoms: N_8  and  C_13
REMARK    5  A    between atoms: C_9  and  C_10
REMARK    6  A    between atoms: C_10  and  C_11
REMARK    7  A    between atoms: C_10  and  O_12
REMARK    8  A    between atoms: C_13  and  C_14
REMARK    9  A    between atoms: C_14  and  C_15
REMARK   10  A    between atoms: C_14  and  O_16
REMARK                            x       y       z     vdW  Elec       q    Type
REMARK                         _______ _______ _______ _____ _____    ______ ____
ROOT
ATOM      1  N   UNL     1       6.545  16.727   3.018  0.00  0.00    +0.000 N 
ENDROOT
BRANCH   1   6
ATOM      2  C   UNL     1       2.191  16.950  -0.767  0.00  0.00    +0.000 C 
ATOM      3  C   UNL     1       3.336  16.903   0.198  0.00  0.00    +0.000 A 
ATOM      4  C   UNL     1       4.185  15.803   0.247  0.00  0.00    +0.000 A 
ATOM      5  C   UNL     1       5.238  15.752   1.175  0.00  0.00    +0.000 A 
ATOM      6  C   UNL     1       5.481  16.776   2.108  0.00  0.00    +0.000 A 
ATOM      7  C   UNL     1       4.604  17.873   2.029  0.00  0.00    +0.000 A 
ATOM      8  C   UNL     1       3.548  17.938   1.105  0.00  0.00    +0.000 A 
ENDBRANCH   1   6
BRANCH   1   9
ATOM      9  C   UNL     1       6.364  16.079   4.339  0.00  0.00    +0.000 C 
BRANCH   9  10
ATOM     10  C   UNL     1       7.018  14.677   4.414  0.00  0.00    +0.000 C 
ATOM     11  C   UNL     1       7.396  14.328   5.849  0.00  0.00    +0.000 C 
BRANCH  10  12
ATOM     12  O   UNL     1       6.123  13.665   3.932  0.00  0.00    +0.000 OA
ATOM     13  H   UNL     1       5.249  14.070   3.807  0.00  0.00    +0.000 HD
ENDBRANCH  10  12
ENDBRANCH   9  10
ENDBRANCH   1   9
BRANCH   1  14
ATOM     14  C   UNL     1       7.660  17.706   2.950  0.00  0.00    +0.000 C 
BRANCH  14  15
ATOM     15  C   UNL     1       8.428  17.624   1.609  0.00  0.00    +0.000 C 
ATOM     16  C   UNL     1       9.120  18.930   1.234  0.00  0.00    +0.000 C 
BRANCH  15  17
ATOM     17  O   UNL     1       9.413  16.592   1.628  0.00  0.00    +0.000 OA
ATOM     18  H   UNL     1      10.248  17.035   1.378  0.00  0.00    +0.000 HD
ENDBRANCH  15  17
ENDBRANCH  14  15
ENDBRANCH   1  14
TORSDOF 7
ENDMDL
MODEL 2
REMARK VINA RESULT:    -4.065      0.126      1.196
REMARK INTER + INTRA:          -5.965
REMARK INTER:                  -5.495
REMARK INTRA:                  -0.470
REMARK UNBOUND:                -0.474
REMARK  Name = 
REMARK  10 active torsions:
REMARK  status: ('A' for Active; 'I' for Inactive)
REMARK    1  A    between atoms: C_1  and  C_2
REMARK    2  A    between atoms: C_5  and  N_8
REMARK    3  A    between atoms: N_8  and  C_9
REMARK    4  A    between atoms: N_8  and  C_13
REMARK    5  A    between atoms: C_9  and  C_10
REMARK    6  A    between atoms: C_10  and  C_11
REMARK    7  A    between atoms: C_10  and  O_12
REMARK    8  A    between atoms: C_13  and  C_14
REMARK    9  A    between atoms: C_14  and  C_15
REMARK   10  A    between atoms: C_14  and  O_16
REMARK                            x       y       z     vdW  Elec       q    Type
REMARK                         _______ _______ _______ _____ _____    ______ ____
ROOT
ATOM      1  N   UNL     1       6.528  16.807   2.941  0.00  0.00    +0.000 N 
ENDROOT
BRANCH   1   6
ATOM      2  C   UNL     1       2.120  16.760  -0.787  0.00  0.00    +0.000 C 
ATOM      3  C   UNL     1       3.250  16.760   0.197  0.00  0.00    +0.000 A 
ATOM      4  C   UNL     1       3.425  17.817   1.084  0.00  0.00    +0.000 A 
ATOM      5  C   UNL     1       4.503  17.825   1.984  0.00  0.00    +0.000 A 
ATOM      6  C   UNL     1       5.466  16.801   2.028  0.00  0.00    +0.000 A 
ATOM      7  C   UNL     1       5.257  15.748   1.118  0.00  0.00    +0.000 A 
ATOM      8  C   UNL     1       4.181  15.726   0.215  0.00  0.00    +0.000 A 
ENDBRANCH   1   6
BRANCH   1   9
ATOM      9  C   UNL     1       6.358  16.197   4.282  0.00  0.00    +0.000 C 
BRANCH   9  10
ATOM     10  C   UNL     1       7.004  14.794   4.389  0.00  0.00    +0.000 C 
ATOM     11  C   UNL     1       7.378  14.475   5.832  0.00  0.00    +0.000 C 
BRANCH  10  12
ATOM     12  O   UNL     1       6.104  13.777   3.928  0.00  0.00    +0.000 OA
ATOM     13  H   UNL     1       6.169  13.020   4.534  0.00  0.00    +0.000 HD
ENDBRANCH  10  12
ENDBRANCH   9  10
ENDBRANCH   1   9
BRANCH   1  14
ATOM     14  C   UNL     1       7.620  17.809   2.844  0.00  0.00    +0.000 C 
BRANCH  14  15
ATOM     15  C   UNL     1       8.441  17.655   1.541  0.00  0.00    +0.000 C 
ATOM     16  C   UNL     1       9.178  18.928   1.142  0.00  0.00    +0.000 C 
BRANCH  15  17
ATOM     17  O   UNL     1       9.400  16.603   1.644  0.00  0.00    +0.000 OA
ATOM     18  H   UNL     1      10.262  17.028   1.460  0.00  0.00    +0.000 HD
ENDBRANCH  15  17
ENDBRANCH  14  15
ENDBRANCH   1  14
TORSDOF 7
ENDMDL
MODEL 3
REMARK VINA RESULT:    -4.062      1.784      4.906
REMARK INTER + INTRA:          -5.961
REMARK INTER:                  -5.451
REMARK INTRA:                  -0.510
REMARK UNBOUND:                -0.474
REMARK  Name = 
REMARK  10 active torsions:
REMARK  status: ('A' for Active; 'I' for Inactive)
REMARK    1  A    between atoms: C_1  and  C_2
REMARK    2  A    between atoms: C_5  and  N_8
REMARK    3  A    between atoms: N_8  and  C_9
REMARK    4  A    between atoms: N_8  and  C_13
REMARK    5  A    between atoms: C_9  and  C_10
REMARK    6  A    between atoms: C_10  and  C_11
REMARK    7  A    between atoms: C_10  and  O_12
REMARK    8  A    between atoms: C_13  and  C_14
REMARK    9  A    between atoms: C_14  and  C_15
REMARK   10  A    between atoms: C_14  and  O_16
REMARK                            x       y       z     vdW  Elec       q    Type
REMARK                         _______ _______ _______ _____ _____    ______ ____
ROOT
ATOM      1  N   UNL     1       6.172  16.477   1.346  0.00  0.00    +0.000 N 
ENDROOT
BRANCH   1   6
ATOM      2  C   UNL     1       9.868  20.441  -0.643  0.00  0.00    +0.000 C 
ATOM      3  C   UNL     1       8.928  19.397  -0.123  0.00  0.00    +0.000 A 
ATOM      4  C   UNL     1       8.324  18.486  -0.984  0.00  0.00    +0.000 A 
ATOM      5  C   UNL     1       7.421  17.529  -0.495  0.00  0.00    +0.000 A 
ATOM      6  C   UNL     1       7.059  17.447   0.862  0.00  0.00    +0.000 A 
ATOM      7  C   UNL     1       7.690  18.381   1.704  0.00  0.00    +0.000 A 
ATOM      8  C   UNL     1       8.597  19.342   1.228  0.00  0.00    +0.000 A 
ENDBRANCH   1   6
BRANCH   1   9
ATOM      9  C   UNL     1       5.317  15.715   0.404  0.00  0.00    +0.000 C 
BRANCH   9  10
ATOM     10  C   UNL     1       3.807  15.857   0.715  0.00  0.00    +0.000 C 
ATOM     11  C   UNL     1       3.135  16.807  -0.268  0.00  0.00    +0.000 C 
BRANCH  10  12
ATOM     12  O   UNL     1       3.143  14.588   0.631  0.00  0.00    +0.000 OA
ATOM     13  H   UNL     1       3.384  14.178  -0.216  0.00  0.00    +0.000 HD
ENDBRANCH  10  12
ENDBRANCH   9  10
ENDBRANCH   1   9
BRANCH   1  14
ATOM     14  C   UNL     1       5.676  16.518   2.745  0.00  0.00    +0.000 C 
BRANCH  14  15
ATOM     15  C   UNL     1       6.458  15.557   3.672  0.00  0.00    +0.000 C 
ATOM     16  C   UNL     1       6.384  15.949   5.143  0.00  0.00    +0.000 C 
BRANCH  15  17
ATOM     17  O   UNL     1       5.994  14.213   3.549  0.00  0.00    +0.000 OA
ATOM     18  H   UNL     1       6.667  13.670   4.007  0.00  0.00    +0.000 HD
ENDBRANCH  15  17
ENDBRANCH  14  15
ENDBRANCH   1  14
TORSDOF 7
ENDMDL
MODEL 4
REMARK VINA RESULT:    -4.044      1.430      1.967
REMARK INTER + INTRA:          -5.937
REMARK INTER:                  -5.398
REMARK INTRA:                  -0.539
REMARK UNBOUND:                -0.474
REMARK  Name = 
REMARK  10 active torsions:
REMARK  status: ('A' for Active; 'I' for Inactive)
REMARK    1  A    between atoms: C_1  and  C_2
REMARK    2  A    between atoms: C_5  and  N_8
REMARK    3  A    between atoms: N_8  and  C_9
REMARK    4  A    between atoms: N_8  and  C_13
REMARK    5  A    between atoms: C_9  and  C_10
REMARK    6  A    between atoms: C_10  and  C_11
REMARK    7  A    between atoms: C_10  and  O_12
REMARK    8  A    between atoms: C_13  and  C_14
REMARK    9  A    between atoms: C_14  and  C_15
REMARK   10  A    between atoms: C_14  and  O_16
REMARK                            x       y       z     vdW  Elec       q    Type
REMARK                         _______ _______ _______ _____ _____    ______ ____
ROOT
ATOM      1  N   UNL     1       5.769  17.105   1.524  0.00  0.00    +0.000 N 
ENDROOT
BRANCH   1   6
ATOM      2  C   UNL     1       1.051  16.177  -1.671  0.00  0.00    +0.000 C 
ATOM      3  C   UNL     1       2.261  16.426  -0.823  0.00  0.00    +0.000 A 
ATOM      4  C   UNL     1       2.934  17.642  -0.879  0.00  0.00    +0.000 A 
ATOM      5  C   UNL     1       4.086  17.859  -0.105  0.00  0.00    +0.000 A 
ATOM      6  C   UNL     1       4.632  16.875   0.739  0.00  0.00    +0.000 A 
ATOM      7  C   UNL     1       3.924  15.660   0.772  0.00  0.00    +0.000 A 
ATOM      8  C   UNL     1       2.771  15.430   0.004  0.00  0.00    +0.000 A 
ENDBRANCH   1   6
BRANCH   1   9
ATOM      9  C   UNL     1       5.762  16.754   2.964  0.00  0.00    +0.000 C 
BRANCH   9  10
ATOM     10  C   UNL     1       6.722  15.586   3.301  0.00  0.00    +0.000 C 
ATOM     11  C   UNL     1       7.691  15.980   4.410  0.00  0.00    +0.000 C 
BRANCH  10  12
ATOM     12  O   UNL     1       5.993  14.431   3.738  0.00  0.00    +0.000 OA
ATOM     13  H   UNL     1       5.917  13.821   2.985  0.00  0.00    +0.000 HD
ENDBRANCH  10  12
ENDBRANCH   9  10
ENDBRANCH   1   9
BRANCH   1  14
ATOM     14  C   UNL     1       6.779  18.123   1.134  0.00  0.00    +0.000 C 
BRANCH  14  15
ATOM     15  C   UNL     1       7.922  17.516   0.285  0.00  0.00    +0.000 C 
ATOM     16  C   UNL     1       8.391  18.438  -0.835  0.00  0.00    +0.000 C 
BRANCH  15  17
ATOM     17  O   UNL     1       9.055  17.183   1.086  0.00  0.00    +0.000 OA
ATOM     18  H   UNL     1       8.807  16.352   1.540  0.00  0.00    +0.000 HD
ENDBRANCH  15  17
ENDBRANCH  14  15
ENDBRANCH   1  14
TORSDOF 7
ENDMDL
MODEL 5
REMARK VINA RESULT:    -4.039      4.191      6.855
REMARK INTER + INTRA:          -5.930
REMARK INTER:                  -5.347
REMARK INTRA:                  -0.583
REMARK UNBOUND:                -0.474
REMARK  Name = 
REMARK  10 active torsions:
REMARK  status: ('A' for Active; 'I' for Inactive)
REMARK    1  A    between atoms: C_1  and  C_2
REMARK    2  A    between atoms: C_5  and  N_8
REMARK    3  A    between atoms: N_8  and  C_9
REMARK    4  A    between atoms: N_8  and  C_13
REMARK    5  A    between atoms: C_9  and  C_10
REMARK    6  A    between atoms: C_10  and  C_11
REMARK    7  A    between atoms: C_10  and  O_12
REMARK    8  A    between atoms: C_13  and  C_14
REMARK    9  A    between atoms: C_14  and  C_15
REMARK   10  A    between atoms: C_14  and  O_16
REMARK                            x       y       z     vdW  Elec       q    Type
REMARK                         _______ _______ _______ _____ _____    ______ ____
ROOT
ATOM      1  N   UNL     1       1.562  16.001  -0.370  0.00  0.00    +0.000 N 
ENDROOT
BRANCH   1   6
ATOM      2  C   UNL     1       7.039  17.529   0.628  0.00  0.00    +0.000 C 
ATOM      3  C   UNL     1       5.625  17.123   0.347  0.00  0.00    +0.000 A 
ATOM      4  C   UNL     1       4.739  18.001  -0.269  0.00  0.00    +0.000 A 
ATOM      5  C   UNL     1       3.406  17.625  -0.503  0.00  0.00    +0.000 A 
ATOM      6  C   UNL     1       2.888  16.376  -0.116  0.00  0.00    +0.000 A 
ATOM      7  C   UNL     1       3.812  15.514   0.502  0.00  0.00    +0.000 A 
ATOM      8  C   UNL     1       5.148  15.876   0.740  0.00  0.00    +0.000 A 
ENDBRANCH   1   6
BRANCH   1   9
ATOM      9  C   UNL     1       0.756  15.356   0.694  0.00  0.00    +0.000 C 
BRANCH   9  10
ATOM     10  C   UNL     1       0.416  16.319   1.857  0.00  0.00    +0.000 C 
ATOM     11  C   UNL     1      -0.205  17.609   1.334  0.00  0.00    +0.000 C 
BRANCH  10  12
ATOM     12  O   UNL     1      -0.513  15.717   2.770  0.00  0.00    +0.000 OA
ATOM     13  H   UNL     1      -0.021  15.100   3.337  0.00  0.00    +0.000 HD
ENDBRANCH  10  12
ENDBRANCH   9  10
ENDBRANCH   1   9
BRANCH   1  14
ATOM     14  C   UNL     1       1.086  15.749  -1.754  0.00  0.00    +0.000 C 
BRANCH  14  15
ATOM     15  C   UNL     1      -0.415  16.085  -1.926  0.00  0.00    +0.000 C 
ATOM     16  C   UNL     1      -0.659  17.499  -2.439  0.00  0.00    +0.000 C 
BRANCH  15  17
ATOM     17  O   UNL     1      -1.060  15.174  -2.815  0.00  0.00    +0.000 OA
ATOM     18  H   UNL     1      -0.332  14.717  -3.281  0.00  0.00    +0.000 HD
ENDBRANCH  15  17
ENDBRANCH  14  15
ENDBRANCH   1  14
TORSDOF 7
ENDMDL
MODEL 6
REMARK VINA RESULT:    -4.037      2.225      2.827
REMARK INTER + INTRA:          -5.927
REMARK INTER:                  -5.304
REMARK INTRA:                  -0.624
REMARK UNBOUND:                -0.474
REMARK  Name = 
REMARK  10 active torsions:
REMARK  status: ('A' for Active; 'I' for Inactive)
REMARK    1  A    between atoms: C_1  and  C_2
REMARK    2  A    between atoms: C_5  and  N_8
REMARK    3  A    between atoms: N_8  and  C_9
REMARK    4  A    between atoms: N_8  and  C_13
REMARK    5  A    between atoms: C_9  and  C_10
REMARK    6  A    between atoms: C_10  and  C_11
REMARK    7  A    between atoms: C_10  and  O_12
REMARK    8  A    between atoms: C_13  and  C_14
REMARK    9  A    between atoms: C_14  and  C_15
REMARK   10  A    between atoms: C_14  and  O_16
REMARK                            x       y       z     vdW  Elec       q    Type
REMARK                         _______ _______ _______ _____ _____    ______ ____
ROOT
ATOM      1  N   UNL     1       6.497  17.568   0.906  0.00  0.00    +0.000 N 
ENDROOT
BRANCH   1   6
ATOM      2  C   UNL     1       1.264  15.814  -0.787  0.00  0.00    +0.000 C 
ATOM      3  C   UNL     1       2.612  16.277  -0.326  0.00  0.00    +0.000 A 
ATOM      4  C   UNL     1       3.067  17.558  -0.621  0.00  0.00    +0.000 A 
ATOM      5  C   UNL     1       4.344  17.976  -0.212  0.00  0.00    +0.000 A 
ATOM      6  C   UNL     1       5.232  17.138   0.485  0.00  0.00    +0.000 A 
ATOM      7  C   UNL     1       4.739  15.851   0.767  0.00  0.00    +0.000 A 
ATOM      8  C   UNL     1       3.463  15.421   0.367  0.00  0.00    +0.000 A 
ENDBRANCH   1   6
BRANCH   1   9
ATOM      9  C   UNL     1       7.041  17.113   2.208  0.00  0.00    +0.000 C 
BRANCH   9  10
ATOM     10  C   UNL     1       8.526  17.505   2.408  0.00  0.00    +0.000 C 
ATOM     11  C   UNL     1       8.913  17.438   3.881  0.00  0.00    +0.000 C 
BRANCH  10  12
ATOM     12  O   UNL     1       9.394  16.626   1.680  0.00  0.00    +0.000 OA
ATOM     13  H   UNL     1       9.323  15.740   2.073  0.00  0.00    +0.000 HD
ENDBRANCH  10  12
ENDBRANCH   9  10
ENDBRANCH   1   9
BRANCH   1  14
ATOM     14  C   UNL     1       7.096  18.823   0.384  0.00  0.00    +0.000 C 
BRANCH  14  15
ATOM     15  C   UNL     1       7.872  18.595  -0.936  0.00  0.00    +0.000 C 
ATOM     16  C   UNL     1       9.081  19.511  -1.086  0.00  0.00    +0.000 C 
BRANCH  15  17
ATOM     17  O   UNL     1       8.322  17.246  -1.056  0.00  0.00    +0.000 OA
ATOM     18  H   UNL     1       8.589  16.987  -0.151  0.00  0.00    +0.000 HD
ENDBRANCH  15  17
ENDBRANCH  14  15
ENDBRANCH   1  14
TORSDOF 7
ENDMDL
MODEL 7
REMARK VINA RESULT:    -3.867      1.393      5.415
REMARK INTER + INTRA:          -5.698
REMARK INTER:                  -5.221
REMARK INTRA:                  -0.477
REMARK UNBOUND:                -0.474
REMARK  Name = 
REMARK  10 active torsions:
REMARK  status: ('A' for Active; 'I' for Inactive)
REMARK    1  A    between atoms: C_1  and  C_2
REMARK    2  A    between atoms: C_5  and  N_8
REMARK    3  A    between atoms: N_8  and  C_9
REMARK    4  A    between atoms: N_8  and  C_13
REMARK    5  A    between atoms: C_9  and  C_10
REMARK    6  A    between atoms: C_10  and  C_11
REMARK    7  A    between atoms: C_10  and  O_12
REMARK    8  A    between atoms: C_13  and  C_14
REMARK    9  A    between atoms: C_14  and  C_15
REMARK   10  A    between atoms: C_14  and  O_16
REMARK                            x       y       z     vdW  Elec       q    Type
REMARK                         _______ _______ _______ _____ _____    ______ ____
ROOT
ATOM      1  N   UNL     1       6.625  16.939   3.210  0.00  0.00    +0.000 N 
ENDROOT
BRANCH   1   6
ATOM      2  C   UNL     1       7.147  13.449   7.779  0.00  0.00    +0.000 C 
ATOM      3  C   UNL     1       7.030  14.369   6.602  0.00  0.00    +0.000 A 
ATOM      4  C   UNL     1       6.137  15.436   6.616  0.00  0.00    +0.000 A 
ATOM      5  C   UNL     1       6.010  16.277   5.499  0.00  0.00    +0.000 A 
ATOM      6  C   UNL     1       6.743  16.085   4.313  0.00  0.00    +0.000 A 
ATOM      7  C   UNL     1       7.636  14.998   4.336  0.00  0.00    +0.000 A 
ATOM      8  C   UNL     1       7.775  14.150   5.447  0.00  0.00    +0.000 A 
ENDBRANCH   1   6
BRANCH   1   9
ATOM      9  C   UNL     1       7.716  17.889   2.885  0.00  0.00    +0.000 C 
BRANCH   9  10
ATOM     10  C   UNL     1       8.398  17.579   1.530  0.00  0.00    +0.000 C 
ATOM     11  C   UNL     1       9.032  18.833   0.940  0.00  0.00    +0.000 C 
BRANCH  10  12
ATOM     12  O   UNL     1       9.428  16.593   1.686  0.00  0.00    +0.000 OA
ATOM     13  H   UNL     1      10.287  17.045   1.648  0.00  0.00    +0.000 HD
ENDBRANCH  10  12
ENDBRANCH   9  10
ENDBRANCH   1   9
BRANCH   1  14
ATOM     14  C   UNL     1       5.295  17.305   2.659  0.00  0.00    +0.000 C 
BRANCH  14  15
ATOM     15  C   UNL     1       4.920  16.453   1.423  0.00  0.00    +0.000 C 
ATOM     16  C   UNL     1       5.010  17.225   0.112  0.00  0.00    +0.000 C 
BRANCH  15  17
ATOM     17  O   UNL     1       5.746  15.295   1.311  0.00  0.00    +0.000 OA
ATOM     18  H   UNL     1       6.465  15.556   0.702  0.00  0.00    +0.000 HD
ENDBRANCH  15  17
ENDBRANCH  14  15
ENDBRANCH   1  14
TORSDOF 7
ENDMDL
MODEL 8
REMARK VINA RESULT:    -3.752      0.963      3.221
REMARK INTER + INTRA:          -5.543
REMARK INTER:                  -4.855
REMARK INTRA:                  -0.688
REMARK UNBOUND:                -0.474
REMARK  Name = 
REMARK  10 active torsions:
REMARK  status: ('A' for Active; 'I' for Inactive)
REMARK    1  A    between atoms: C_1  and  C_2
REMARK    2  A    between atoms: C_5  and  N_8
REMARK    3  A    between atoms: N_8  and  C_9
REMARK    4  A    between atoms: N_8  and  C_13
REMARK    5  A    between atoms: C_9  and  C_10
REMARK    6  A    between atoms: C_10  and  C_11
REMARK    7  A    between atoms: C_10  and  O_12
REMARK    8  A    between atoms: C_13  and  C_14
REMARK    9  A    between atoms: C_14  and  C_15
REMARK   10  A    between atoms: C_14  and  O_16
REMARK                            x       y       z     vdW  Elec       q    Type
REMARK                         _______ _______ _______ _____ _____    ______ ____
ROOT
ATOM      1  N   UNL     1       6.347  16.803   2.805  0.00  0.00    +0.000 N 
ENDROOT
BRANCH   1   6
ATOM      2  C   UNL     1       2.061  17.091  -1.052  0.00  0.00    +0.000 C 
ATOM      3  C   UNL     1       3.190  17.024  -0.068  0.00  0.00    +0.000 A 
ATOM      4  C   UNL     1       3.900  15.844   0.124  0.00  0.00    +0.000 A 
ATOM      5  C   UNL     1       4.938  15.779   1.069  0.00  0.00    +0.000 A 
ATOM      6  C   UNL     1       5.299  16.870   1.879  0.00  0.00    +0.000 A 
ATOM      7  C   UNL     1       4.561  18.047   1.656  0.00  0.00    +0.000 A 
ATOM      8  C   UNL     1       3.523  18.127   0.713  0.00  0.00    +0.000 A 
ENDBRANCH   1   6
BRANCH   1   9
ATOM      9  C   UNL     1       7.503  17.724   2.688  0.00  0.00    +0.000 C 
BRANCH   9  10
ATOM     10  C   UNL     1       8.283  17.542   1.362  0.00  0.00    +0.000 C 
ATOM     11  C   UNL     1       8.733  18.888   0.806  0.00  0.00    +0.000 C 
BRANCH  10  12
ATOM     12  O   UNL     1       9.449  16.730   1.558  0.00  0.00    +0.000 OA
ATOM     13  H   UNL     1       9.960  16.733   0.732  0.00  0.00    +0.000 HD
ENDBRANCH  10  12
ENDBRANCH   9  10
ENDBRANCH   1   9
BRANCH   1  14
ATOM     14  C   UNL     1       6.614  15.562   3.576  0.00  0.00    +0.000 C 
BRANCH  14  15
ATOM     15  C   UNL     1       7.842  15.705   4.507  0.00  0.00    +0.000 C 
ATOM     16  C   UNL     1       7.582  15.207   5.924  0.00  0.00    +0.000 C 
BRANCH  15  17
ATOM     17  O   UNL     1       8.976  15.006   3.995  0.00  0.00    +0.000 OA
ATOM     18  H   UNL     1       9.111  15.369   3.096  0.00  0.00    +0.000 HD
ENDBRANCH  15  17
ENDBRANCH  14  15
ENDBRANCH   1  14
TORSDOF 7
ENDMDL
