MODEL 1
REMARK VINA RESULT:    -4.240      0.000      0.000
REMARK INTER + INTRA:          -6.300
REMARK INTER:                  -5.728
REMARK INTRA:                  -0.573
REMARK UNBOUND:                -0.573
REMARK  Name = 
REMARK  10 active torsions:
REMARK  status: ('A' for Active; 'I' for Inactive)
REMARK    1  A    between atoms: C_1  and  C_2
REMARK    2  A    between atoms: C_5  and  N_8
REMARK    3  A    between atoms: N_8  and  C_9
REMARK    4  A    between atoms: N_8  and  C_13
REMARK    5  A    between atoms: C_9  and  C_10
REMARK    6  A    between atoms: C_10  and  C_11
REMARK    7  A    between atoms: C_10  and  O_12
REMARK    8  A    between atoms: C_13  and  C_14
REMARK    9  A    between atoms: C_14  and  C_15
REMARK   10  A    between atoms: C_14  and  O_16
REMARK                            x       y       z     vdW  Elec       q    Type
REMARK                         _______ _______ _______ _____ _____    ______ ____
ROOT
ATOM      1  N   UNL     1       0.090  19.158  -8.785  0.00  0.00    +0.000 N 
ENDROOT
BRANCH   1   6
ATOM      2  C   UNL     1      -1.983  14.323 -11.162  0.00  0.00    +0.000 C 
ATOM      3  C   UNL     1      -1.430  15.564 -10.531  0.00  0.00    +0.000 A 
ATOM      4  C   UNL     1      -2.033  16.125  -9.411  0.00  0.00    +0.000 A 
ATOM      5  C   UNL     1      -1.528  17.305  -8.841  0.00  0.00    +0.000 A 
ATOM      6  C   UNL     1      -0.420  17.992  -9.369  0.00  0.00    +0.000 A 
ATOM      7  C   UNL     1       0.166  17.395 -10.501  0.00  0.00    +0.000 A 
ATOM      8  C   UNL     1      -0.327  16.214 -11.079  0.00  0.00    +0.000 A 
ENDBRANCH   1   6
BRANCH   1   9
ATOM      9  C   UNL     1      -0.832  20.169  -8.214  0.00  0.00    +0.000 C 
BRANCH   9  10
ATOM     10  C   UNL     1      -0.246  20.883  -6.972  0.00  0.00    +0.000 C 
ATOM     11  C   UNL     1      -1.230  21.906  -6.417  0.00  0.00    +0.000 C 
BRANCH  10  12
ATOM     12  O   UNL     1       0.052  19.943  -5.931  0.00  0.00    +0.000 OA
ATOM     13  H   UNL     1       0.966  20.097  -5.638  0.00  0.00    +0.000 HD
ENDBRANCH  10  12
ENDBRANCH   9  10
ENDBRANCH   1   9
BRANCH   1  14
ATOM     14  C   UNL     1       1.436  19.674  -9.146  0.00  0.00    +0.000 C 
BRANCH  14  15
ATOM     15  C   UNL     1       2.572  18.791  -8.577  0.00  0.00    +0.000 C 
ATOM     16  C   UNL     1       3.958  19.229  -9.036  0.00  0.00    +0.000 C 
BRANCH  15  17
ATOM     17  O   UNL     1       2.564  18.775  -7.150  0.00  0.00    +0.000 OA
ATOM     18  H   UNL     1       2.499  19.716  -6.887  0.00  0.00    +0.000 HD
ENDBRANCH  15  17
ENDBRANCH  14  15
ENDBRANCH   1  14
TORSDOF 7
ENDMDL
MODEL 2
REMARK VINA RESULT:    -4.198      2.026      2.540
REMARK INTER + INTRA:          -6.244
REMARK INTER:                  -5.577
REMARK INTRA:                  -0.667
REMARK UNBOUND:                -0.573
REMARK  Name = 
REMARK  10 active torsions:
REMARK  status: ('A' for Active; 'I' for Inactive)
REMARK    1  A    between atoms: C_1  and  C_2
REMARK    2  A    between atoms: C_5  and  N_8
REMARK    3  A    between atoms: N_8  and  C_9
REMARK    4  A    between atoms: N_8  and  C_13
REMARK    5  A    between atoms: C_9  and  C_10
REMARK    6  A    between atoms: C_10  and  C_11
REMARK    7  A    between atoms: C_10  and  O_12
REMARK    8  A    between atoms: C_13  and  C_14
REMARK    9  A    between atoms: C_14  and  C_15
REMARK   10  A    between atoms: C_14  and  O_16
REMARK                            x       y       z     vdW  Elec       q    Type
REMARK                         _______ _______ _______ _____ _____    ______ ____
ROOT
ATOM      1  N   UNL     1       0.951  18.743 -10.339  0.00  0.00    +0.000 N 
ENDROOT
BRANCH   1   6
ATOM      2  C   UNL     1      -2.375  14.024 -10.351  0.00  0.00    +0.000 C 
ATOM      3  C   UNL     1      -1.497  15.237 -10.331  0.00  0.00    +0.000 A 
ATOM      4  C   UNL     1      -1.757  16.293  -9.464  0.00  0.00    +0.000 A 
ATOM      5  C   UNL     1      -0.948  17.442  -9.471  0.00  0.00    +0.000 A 
ATOM      6  C   UNL     1       0.137  17.603 -10.351  0.00  0.00    +0.000 A 
ATOM      7  C   UNL     1       0.372  16.515 -11.212  0.00  0.00    +0.000 A 
ATOM      8  C   UNL     1      -0.428  15.360 -11.214  0.00  0.00    +0.000 A 
ENDBRANCH   1   6
BRANCH   1   9
ATOM      9  C   UNL     1       0.847  19.719  -9.227  0.00  0.00    +0.000 C 
BRANCH   9  10
ATOM     10  C   UNL     1       1.807  19.398  -8.056  0.00  0.00    +0.000 C 
ATOM     11  C   UNL     1       1.038  18.874  -6.849  0.00  0.00    +0.000 C 
BRANCH  10  12
ATOM     12  O   UNL     1       2.769  18.404  -8.435  0.00  0.00    +0.000 OA
ATOM     13  H   UNL     1       2.648  17.632  -7.858  0.00  0.00    +0.000 HD
ENDBRANCH  10  12
ENDBRANCH   9  10
ENDBRANCH   1   9
BRANCH   1  14
ATOM     14  C   UNL     1       1.534  19.284 -11.593  0.00  0.00    +0.000 C 
BRANCH  14  15
ATOM     15  C   UNL     1       2.994  18.818 -11.808  0.00  0.00    +0.000 C 
ATOM     16  C   UNL     1       3.448  18.918 -13.259  0.00  0.00    +0.000 C 
BRANCH  15  17
ATOM     17  O   UNL     1       3.909  19.562 -11.006  0.00  0.00    +0.000 OA
ATOM     18  H   UNL     1       4.368  18.894 -10.459  0.00  0.00    +0.000 HD
ENDBRANCH  15  17
ENDBRANCH  14  15
ENDBRANCH   1  14
TORSDOF 7
ENDMDL
MODEL 3
REMARK VINA RESULT:    -3.994     13.127     16.066
REMARK INTER + INTRA:          -5.967
REMARK INTER:                  -5.408
REMARK INTRA:                  -0.559
REMARK UNBOUND:                -0.573
REMARK  Name = 
REMARK  10 active torsions:
REMARK  status: ('A' for Active; 'I' for Inactive)
REMARK    1  A    between atoms: C_1  and  C_2
REMARK    2  A    between atoms: C_5  and  N_8
REMARK    3  A    between atoms: N_8  and  C_9
REMARK    4  A    between atoms: N_8  and  C_13
REMARK    5  A    between atoms: C_9  and  C_10
REMARK    6  A    between atoms: C_10  and  C_11
REMARK    7  A    between atoms: C_10  and  O_12
REMARK    8  A    between atoms: C_13  and  C_14
REMARK    9  A    between atoms: C_14  and  C_15
REMARK   10  A    between atoms: C_14  and  O_16
REMARK                            x       y       z     vdW  Elec       q    Type
REMARK                         _______ _______ _______ _____ _____    ______ ____
ROOT
ATOM      1  N   UNL     1      15.160  20.796  -3.356  0.00  0.00    +0.000 N 
ENDROOT
BRANCH   1   6
ATOM      2  C   UNL     1       9.702  22.636  -3.745  0.00  0.00    +0.000 C 
ATOM      3  C   UNL     1      11.124  22.178  -3.628  0.00  0.00    +0.000 A 
ATOM      4  C   UNL     1      12.087  22.600  -4.538  0.00  0.00    +0.000 A 
ATOM      5  C   UNL     1      13.412  22.144  -4.442  0.00  0.00    +0.000 A 
ATOM      6  C   UNL     1      13.833  21.232  -3.457  0.00  0.00    +0.000 A 
ATOM      7  C   UNL     1      12.833  20.827  -2.554  0.00  0.00    +0.000 A 
ATOM      8  C   UNL     1      11.505  21.278  -2.637  0.00  0.00    +0.000 A 
ENDBRANCH   1   6
BRANCH   1   9
ATOM      9  C   UNL     1      16.274  21.758  -3.530  0.00  0.00    +0.000 C 
BRANCH   9  10
ATOM     10  C   UNL     1      16.727  22.401  -2.196  0.00  0.00    +0.000 C 
ATOM     11  C   UNL     1      16.002  23.720  -1.953  0.00  0.00    +0.000 C 
BRANCH  10  12
ATOM     12  O   UNL     1      16.453  21.533  -1.088  0.00  0.00    +0.000 OA
ATOM     13  H   UNL     1      16.698  20.629  -1.346  0.00  0.00    +0.000 HD
ENDBRANCH  10  12
ENDBRANCH   9  10
ENDBRANCH   1   9
BRANCH   1  14
ATOM     14  C   UNL     1      15.522  19.373  -3.586  0.00  0.00    +0.000 C 
BRANCH  14  15
ATOM     15  C   UNL     1      16.767  19.227  -4.493  0.00  0.00    +0.000 C 
ATOM     16  C   UNL     1      17.880  18.404  -3.855  0.00  0.00    +0.000 C 
BRANCH  15  17
ATOM     17  O   UNL     1      16.439  18.629  -5.746  0.00  0.00    +0.000 OA
ATOM     18  H   UNL     1      16.355  19.379  -6.369  0.00  0.00    +0.000 HD
ENDBRANCH  15  17
ENDBRANCH  14  15
ENDBRANCH   1  14
TORSDOF 7
ENDMDL
MODEL 4
REMARK VINA RESULT:    -3.967     10.048     12.692
REMARK INTER + INTRA:          -5.932
REMARK INTER:                  -5.243
REMARK INTRA:                  -0.688
REMARK UNBOUND:                -0.573
REMARK  Name = 
REMARK  10 active torsions:
REMARK  status: ('A' for Active; 'I' for Inactive)
REMARK    1  A    between atoms: C_1  and  C_2
REMARK    2  A    between atoms: C_5  and  N_8
REMARK    3  A    between atoms: N_8  and  C_9
REMARK    4  A    between atoms: N_8  and  C_13
REMARK    5  A    between atoms: C_9  and  C_10
REMARK    6  A    between atoms: C_10  and  C_11
REMARK    7  A    between atoms: C_10  and  O_12
REMARK    8  A    between atoms: C_13  and  C_14
REMARK    9  A    between atoms: C_14  and  C_15
REMARK   10  A    between atoms: C_14  and  O_16
REMARK                            x       y       z     vdW  Elec       q    Type
REMARK                         _______ _______ _______ _____ _____    ______ ____
ROOT
ATOM      1  N   UNL     1       7.125  23.310  -0.533  0.00  0.00    +0.000 N 
ENDROOT
BRANCH   1   6
ATOM      2  C   UNL     1      12.020  21.608  -3.076  0.00  0.00    +0.000 C 
ATOM      3  C   UNL     1      10.742  22.061  -2.438  0.00  0.00    +0.000 A 
ATOM      4  C   UNL     1      10.680  23.262  -1.738  0.00  0.00    +0.000 A 
ATOM      5  C   UNL     1       9.488  23.667  -1.116  0.00  0.00    +0.000 A 
ATOM      6  C   UNL     1       8.315  22.891  -1.139  0.00  0.00    +0.000 A 
ATOM      7  C   UNL     1       8.414  21.685  -1.857  0.00  0.00    +0.000 A 
ATOM      8  C   UNL     1       9.599  21.269  -2.486  0.00  0.00    +0.000 A 
ENDBRANCH   1   6
BRANCH   1   9
ATOM      9  C   UNL     1       6.024  23.862  -1.359  0.00  0.00    +0.000 C 
BRANCH   9  10
ATOM     10  C   UNL     1       4.628  23.369  -0.906  0.00  0.00    +0.000 C 
ATOM     11  C   UNL     1       3.583  23.622  -1.986  0.00  0.00    +0.000 C 
BRANCH  10  12
ATOM     12  O   UNL     1       4.645  21.962  -0.626  0.00  0.00    +0.000 OA
ATOM     13  H   UNL     1       4.369  21.492  -1.430  0.00  0.00    +0.000 HD
ENDBRANCH  10  12
ENDBRANCH   9  10
ENDBRANCH   1   9
BRANCH   1  14
ATOM     14  C   UNL     1       7.088  23.704   0.899  0.00  0.00    +0.000 C 
BRANCH  14  15
ATOM     15  C   UNL     1       7.254  22.488   1.843  0.00  0.00    +0.000 C 
ATOM     16  C   UNL     1       7.936  22.840   3.160  0.00  0.00    +0.000 C 
BRANCH  15  17
ATOM     17  O   UNL     1       5.999  21.880   2.145  0.00  0.00    +0.000 OA
ATOM     18  H   UNL     1       6.166  21.336   2.941  0.00  0.00    +0.000 HD
ENDBRANCH  15  17
ENDBRANCH  14  15
ENDBRANCH   1  14
TORSDOF 7
ENDMDL
MODEL 5
REMARK VINA RESULT:    -3.953     12.424     14.384
REMARK INTER + INTRA:          -5.912
REMARK INTER:                  -5.454
REMARK INTRA:                  -0.459
REMARK UNBOUND:                -0.573
REMARK  Name = 
REMARK  10 active torsions:
REMARK  status: ('A' for Active; 'I' for Inactive)
REMARK    1  A    between atoms: C_1  and  C_2
REMARK    2  A    between atoms: C_5  and  N_8
REMARK    3  A    between atoms: N_8  and  C_9
REMARK    4  A    between atoms: N_8  and  C_13
REMARK    5  A    between atoms: C_9  and  C_10
REMARK    6  A    between atoms: C_10  and  C_11
REMARK    7  A    between atoms: C_10  and  O_12
REMARK    8  A    between atoms: C_13  and  C_14
REMARK    9  A    between atoms: C_14  and  C_15
REMARK   10  A    between atoms: C_14  and  O_16
REMARK                            x       y       z     vdW  Elec       q    Type
REMARK                         _______ _______ _______ _____ _____    ______ ____
ROOT
ATOM      1  N   UNL     1      13.046  22.274  -2.730  0.00  0.00    +0.000 N 
ENDROOT
BRANCH   1   6
ATOM      2  C   UNL     1       7.487  22.259  -1.170  0.00  0.00    +0.000 C 
ATOM      3  C   UNL     1       8.923  22.269  -1.599  0.00  0.00    +0.000 A 
ATOM      4  C   UNL     1       9.545  21.105  -2.038  0.00  0.00    +0.000 A 
ATOM      5  C   UNL     1      10.900  21.114  -2.410  0.00  0.00    +0.000 A 
ATOM      6  C   UNL     1      11.701  22.268  -2.340  0.00  0.00    +0.000 A 
ATOM      7  C   UNL     1      11.038  23.426  -1.893  0.00  0.00    +0.000 A 
ATOM      8  C   UNL     1       9.684  23.432  -1.520  0.00  0.00    +0.000 A 
ENDBRANCH   1   6
BRANCH   1   9
ATOM      9  C   UNL     1      13.465  23.024  -3.939  0.00  0.00    +0.000 C 
BRANCH   9  10
ATOM     10  C   UNL     1      12.616  22.676  -5.186  0.00  0.00    +0.000 C 
ATOM     11  C   UNL     1      11.666  23.815  -5.534  0.00  0.00    +0.000 C 
BRANCH  10  12
ATOM     12  O   UNL     1      13.452  22.431  -6.326  0.00  0.00    +0.000 OA
ATOM     13  H   UNL     1      13.100  21.657  -6.796  0.00  0.00    +0.000 HD
ENDBRANCH  10  12
ENDBRANCH   9  10
ENDBRANCH   1   9
BRANCH   1  14
ATOM     14  C   UNL     1      13.972  21.190  -2.316  0.00  0.00    +0.000 C 
BRANCH  14  15
ATOM     15  C   UNL     1      14.958  20.800  -3.443  0.00  0.00    +0.000 C 
ATOM     16  C   UNL     1      16.418  20.863  -3.011  0.00  0.00    +0.000 C 
BRANCH  15  17
ATOM     17  O   UNL     1      14.700  19.488  -3.939  0.00  0.00    +0.000 OA
ATOM     18  H   UNL     1      15.570  19.154  -4.237  0.00  0.00    +0.000 HD
ENDBRANCH  15  17
ENDBRANCH  14  15
ENDBRANCH   1  14
TORSDOF 7
ENDMDL
MODEL 6
REMARK VINA RESULT:    -3.934      2.517      3.745
REMARK INTER + INTRA:          -5.887
REMARK INTER:                  -5.117
REMARK INTRA:                  -0.770
REMARK UNBOUND:                -0.573
REMARK  Name = 
REMARK  10 active torsions:
REMARK  status: ('A' for Active; 'I' for Inactive)
REMARK    1  A    between atoms: C_1  and  C_2
REMARK    2  A    between atoms: C_5  and  N_8
REMARK    3  A    between atoms: N_8  and  C_9
REMARK    4  A    between atoms: N_8  and  C_13
REMARK    5  A    between atoms: C_9  and  C_10
REMARK    6  A    between atoms: C_10  and  C_11
REMARK    7  A    between atoms: C_10  and  O_12
REMARK    8  A    between atoms: C_13  and  C_14
REMARK    9  A    between atoms: C_14  and  C_15
REMARK   10  A    between atoms: C_14  and  O_16
REMARK                            x       y       z     vdW  Elec       q    Type
REMARK                         _______ _______ _______ _____ _____    ______ ____
ROOT
ATOM      1  N   UNL     1       0.181  18.636 -10.114  0.00  0.00    +0.000 N 
ENDROOT
BRANCH   1   6
ATOM      2  C   UNL     1      -2.644  13.603 -10.038  0.00  0.00    +0.000 C 
ATOM      3  C   UNL     1      -1.896  14.900 -10.040  0.00  0.00    +0.000 A 
ATOM      4  C   UNL     1      -2.318  15.969  -9.255  0.00  0.00    +0.000 A 
ATOM      5  C   UNL     1      -1.630  17.193  -9.284  0.00  0.00    +0.000 A 
ATOM      6  C   UNL     1      -0.511  17.419 -10.106  0.00  0.00    +0.000 A 
ATOM      7  C   UNL     1      -0.112  16.317 -10.883  0.00  0.00    +0.000 A 
ATOM      8  C   UNL     1      -0.789  15.086 -10.863  0.00  0.00    +0.000 A 
ENDBRANCH   1   6
BRANCH   1   9
ATOM      9  C   UNL     1       1.329  18.845  -9.198  0.00  0.00    +0.000 C 
BRANCH   9  10
ATOM     10  C   UNL     1       2.580  19.402  -9.921  0.00  0.00    +0.000 C 
ATOM     11  C   UNL     1       3.827  19.232  -9.061  0.00  0.00    +0.000 C 
BRANCH  10  12
ATOM     12  O   UNL     1       2.801  18.723 -11.164  0.00  0.00    +0.000 OA
ATOM     13  H   UNL     1       2.931  19.393 -11.855  0.00  0.00    +0.000 HD
ENDBRANCH  10  12
ENDBRANCH   9  10
ENDBRANCH   1   9
BRANCH   1  14
ATOM     14  C   UNL     1      -0.460  19.883 -10.605  0.00  0.00    +0.000 C 
BRANCH  14  15
ATOM     15  C   UNL     1      -0.683  19.861 -12.137  0.00  0.00    +0.000 C 
ATOM     16  C   UNL     1      -1.366  21.118 -12.661  0.00  0.00    +0.000 C 
BRANCH  15  17
ATOM     17  O   UNL     1       0.544  19.696 -12.846  0.00  0.00    +0.000 OA
ATOM     18  H   UNL     1       1.166  19.320 -12.191  0.00  0.00    +0.000 HD
ENDBRANCH  15  17
ENDBRANCH  14  15
ENDBRANCH   1  14
TORSDOF 7
ENDMDL
MODEL 7
REMARK VINA RESULT:    -3.909     11.760     13.896
REMARK INTER + INTRA:          -5.852
REMARK INTER:                  -5.301
REMARK INTRA:                  -0.551
REMARK UNBOUND:                -0.573
REMARK  Name = 
REMARK  10 active torsions:
REMARK  status: ('A' for Active; 'I' for Inactive)
REMARK    1  A    between atoms: C_1  and  C_2
REMARK    2  A    between atoms: C_5  and  N_8
REMARK    3  A    between atoms: N_8  and  C_9
REMARK    4  A    between atoms: N_8  and  C_13
REMARK    5  A    between atoms: C_9  and  C_10
REMARK    6  A    between atoms: C_10  and  C_11
REMARK    7  A    between atoms: C_10  and  O_12
REMARK    8  A    between atoms: C_13  and  C_14
REMARK    9  A    between atoms: C_14  and  C_15
REMARK   10  A    between atoms: C_14  and  O_16
REMARK                            x       y       z     vdW  Elec       q    Type
REMARK                         _______ _______ _______ _____ _____    ______ ____
ROOT
ATOM      1  N   UNL     1      12.578  22.657  -4.261  0.00  0.00    +0.000 N 
ENDROOT
BRANCH   1   6
ATOM      2  C   UNL     1       7.260  22.075  -2.093  0.00  0.00    +0.000 C 
ATOM      3  C   UNL     1       8.647  22.237  -2.635  0.00  0.00    +0.000 A 
ATOM      4  C   UNL     1       8.993  23.353  -3.389  0.00  0.00    +0.000 A 
ATOM      5  C   UNL     1      10.287  23.486  -3.919  0.00  0.00    +0.000 A 
ATOM      6  C   UNL     1      11.285  22.509  -3.746  0.00  0.00    +0.000 A 
ATOM      7  C   UNL     1      10.900  21.396  -2.976  0.00  0.00    +0.000 A 
ATOM      8  C   UNL     1       9.610  21.252  -2.438  0.00  0.00    +0.000 A 
ENDBRANCH   1   6
BRANCH   1   9
ATOM      9  C   UNL     1      13.756  22.441  -3.386  0.00  0.00    +0.000 C 
BRANCH   9  10
ATOM     10  C   UNL     1      14.768  21.431  -3.981  0.00  0.00    +0.000 C 
ATOM     11  C   UNL     1      16.059  21.412  -3.171  0.00  0.00    +0.000 C 
BRANCH  10  12
ATOM     12  O   UNL     1      14.226  20.102  -3.984  0.00  0.00    +0.000 OA
ATOM     13  H   UNL     1      13.309  20.150  -3.668  0.00  0.00    +0.000 HD
ENDBRANCH  10  12
ENDBRANCH   9  10
ENDBRANCH   1   9
BRANCH   1  14
ATOM     14  C   UNL     1      12.837  23.493  -5.461  0.00  0.00    +0.000 C 
BRANCH  14  15
ATOM     15  C   UNL     1      12.494  22.751  -6.775  0.00  0.00    +0.000 C 
ATOM     16  C   UNL     1      11.298  23.349  -7.507  0.00  0.00    +0.000 C 
BRANCH  15  17
ATOM     17  O   UNL     1      13.600  22.735  -7.676  0.00  0.00    +0.000 OA
ATOM     18  H   UNL     1      13.199  22.682  -8.567  0.00  0.00    +0.000 HD
ENDBRANCH  15  17
ENDBRANCH  14  15
ENDBRANCH   1  14
TORSDOF 7
ENDMDL
MODEL 8
REMARK VINA RESULT:    -3.887      1.679      3.333
REMARK INTER + INTRA:          -5.823
REMARK INTER:                  -5.112
REMARK INTRA:                  -0.711
REMARK UNBOUND:                -0.573
REMARK  Name = 
REMARK  10 active torsions:
REMARK  status: ('A' for Active; 'I' for Inactive)
REMARK    1  A    between atoms: C_1  and  C_2
REMARK    2  A    between atoms: C_5  and  N_8
REMARK    3  A    between atoms: N_8  and  C_9
REMARK    4  A    between atoms: N_8  and  C_13
REMARK    5  A    between atoms: C_9  and  C_10
REMARK    6  A    between atoms: C_10  and  C_11
REMARK    7  A    between atoms: C_10  and  O_12
REMARK    8  A    between atoms: C_13  and  C_14
REMARK    9  A    between atoms: C_14  and  C_15
REMARK   10  A    between atoms: C_14  and  O_16
REMARK                            x       y       z     vdW  Elec       q    Type
REMARK                         _______ _______ _______ _____ _____    ______ ____
ROOT
ATOM      1  N   UNL     1       0.598  18.756  -9.913  0.00  0.00    +0.000 N 
ENDROOT
BRANCH   1   6
ATOM      2  C   UNL     1      -2.019  13.932 -11.703  0.00  0.00    +0.000 C 
ATOM      3  C   UNL     1      -1.323  15.169 -11.228  0.00  0.00    +0.000 A 
ATOM      4  C   UNL     1      -1.671  15.766 -10.020  0.00  0.00    +0.000 A 
ATOM      5  C   UNL     1      -1.035  16.943  -9.594  0.00  0.00    +0.000 A 
ATOM      6  C   UNL     1      -0.045  17.592 -10.354  0.00  0.00    +0.000 A 
ATOM      7  C   UNL     1       0.283  16.960 -11.567  0.00  0.00    +0.000 A 
ATOM      8  C   UNL     1      -0.344  15.782 -12.005  0.00  0.00    +0.000 A 
ENDBRANCH   1   6
BRANCH   1   9
ATOM      9  C   UNL     1       1.388  19.574 -10.864  0.00  0.00    +0.000 C 
BRANCH   9  10
ATOM     10  C   UNL     1       2.914  19.359 -10.717  0.00  0.00    +0.000 C 
ATOM     11  C   UNL     1       3.555  19.059 -12.067  0.00  0.00    +0.000 C 
BRANCH  10  12
ATOM     12  O   UNL     1       3.548  20.526 -10.174  0.00  0.00    +0.000 OA
ATOM     13  H   UNL     1       3.960  20.279  -9.329  0.00  0.00    +0.000 HD
ENDBRANCH  10  12
ENDBRANCH   9  10
ENDBRANCH   1   9
BRANCH   1  14
ATOM     14  C   UNL     1       0.955  18.942  -8.483  0.00  0.00    +0.000 C 
BRANCH  14  15
ATOM     15  C   UNL     1       0.712  20.394  -8.005  0.00  0.00    +0.000 C 
ATOM     16  C   UNL     1      -0.296  20.490  -6.866  0.00  0.00    +0.000 C 
BRANCH  15  17
ATOM     17  O   UNL     1       1.922  21.018  -7.578  0.00  0.00    +0.000 OA
ATOM     18  H   UNL     1       2.630  20.568  -8.082  0.00  0.00    +0.000 HD
ENDBRANCH  15  17
ENDBRANCH  14  15
ENDBRANCH   1  14
TORSDOF 7
ENDMDL
MODEL 9
REMARK VINA RESULT:    -3.875     12.396     15.552
REMARK INTER + INTRA:          -5.807
REMARK INTER:                  -5.218
REMARK INTRA:                  -0.589
REMARK UNBOUND:                -0.573
REMARK  Name = 
REMARK  10 active torsions:
REMARK  status: ('A' for Active; 'I' for Inactive)
REMARK    1  A    between atoms: C_1  and  C_2
REMARK    2  A    between atoms: C_5  and  N_8
REMARK    3  A    between atoms: N_8  and  C_9
REMARK    4  A    between atoms: N_8  and  C_13
REMARK    5  A    between atoms: C_9  and  C_10
REMARK    6  A    between atoms: C_10  and  C_11
REMARK    7  A    between atoms: C_10  and  O_12
REMARK    8  A    between atoms: C_13  and  C_14
REMARK    9  A    between atoms: C_14  and  C_15
REMARK   10  A    between atoms: C_14  and  O_16
REMARK                            x       y       z     vdW  Elec       q    Type
REMARK                         _______ _______ _______ _____ _____    ______ ____
ROOT
ATOM      1  N   UNL     1      14.543  22.084  -3.483  0.00  0.00    +0.000 N 
ENDROOT
BRANCH   1   6
ATOM      2  C   UNL     1       8.816  21.499  -3.045  0.00  0.00    +0.000 C 
ATOM      3  C   UNL     1      10.302  21.669  -3.141  0.00  0.00    +0.000 A 
ATOM      4  C   UNL     1      10.862  22.550  -4.060  0.00  0.00    +0.000 A 
ATOM      5  C   UNL     1      12.256  22.683  -4.166  0.00  0.00    +0.000 A 
ATOM      6  C   UNL     1      13.154  21.932  -3.385  0.00  0.00    +0.000 A 
ATOM      7  C   UNL     1      12.552  21.053  -2.466  0.00  0.00    +0.000 A 
ATOM      8  C   UNL     1      11.160  20.912  -2.348  0.00  0.00    +0.000 A 
ENDBRANCH   1   6
BRANCH   1   9
ATOM      9  C   UNL     1      15.445  21.133  -2.788  0.00  0.00    +0.000 C 
BRANCH   9  10
ATOM     10  C   UNL     1      15.951  20.001  -3.714  0.00  0.00    +0.000 C 
ATOM     11  C   UNL     1      17.409  19.666  -3.420  0.00  0.00    +0.000 C 
BRANCH  10  12
ATOM     12  O   UNL     1      15.177  18.806  -3.537  0.00  0.00    +0.000 OA
ATOM     13  H   UNL     1      14.574  18.946  -2.788  0.00  0.00    +0.000 HD
ENDBRANCH  10  12
ENDBRANCH   9  10
ENDBRANCH   1   9
BRANCH   1  14
ATOM     14  C   UNL     1      15.152  23.399  -3.808  0.00  0.00    +0.000 C 
BRANCH  14  15
ATOM     15  C   UNL     1      15.790  23.415  -5.218  0.00  0.00    +0.000 C 
ATOM     16  C   UNL     1      17.296  23.183  -5.198  0.00  0.00    +0.000 C 
BRANCH  15  17
ATOM     17  O   UNL     1      15.203  22.436  -6.073  0.00  0.00    +0.000 OA
ATOM     18  H   UNL     1      14.931  21.709  -5.476  0.00  0.00    +0.000 HD
ENDBRANCH  15  17
ENDBRANCH  14  15
ENDBRANCH   1  14
TORSDOF 7
ENDMDL
