MODEL 1
REMARK VINA RESULT:    -3.853      0.000      0.000
REMARK INTER + INTRA:          -4.238
REMARK INTER:                  -4.191
REMARK INTRA:                  -0.048
REMARK UNBOUND:                -0.048
REMARK  Name = 
REMARK  3 active torsions:
REMARK  status: ('A' for Active; 'I' for Inactive)
REMARK    1  A    between atoms: C_1  and  O_2
REMARK    2  A    between atoms: O_2  and  C_3
REMARK    3  A    between atoms: C_8  and  O_9
REMARK                            x       y       z     vdW  Elec       q    Type
REMARK                         _______ _______ _______ _____ _____    ______ ____
ROOT
ATOM      1  C   UNL     1      23.033  -6.875  53.283  0.00  0.00    +0.000 A 
ATOM      2  C   UNL     1      23.439  -7.803  54.240  0.00  0.00    +0.000 A 
ATOM      3  C   UNL     1      22.919  -7.741  55.539  0.00  0.00    +0.000 A 
ATOM      4  C   UNL     1      21.994  -6.754  55.885  0.00  0.00    +0.000 A 
ATOM      5  C   UNL     1      21.584  -5.823  54.934  0.00  0.00    +0.000 A 
ATOM      6  C   UNL     1      22.105  -5.892  53.648  0.00  0.00    +0.000 A 
ENDROOT
BRANCH   1   8
ATOM      7  C   UNL     1      23.431  -8.035  51.247  0.00  0.00    +0.000 C 
ATOM      8  O   UNL     1      23.458  -6.815  51.979  0.00  0.00    +0.000 OA
ENDBRANCH   1   8
BRANCH   6   9
ATOM      9  O   UNL     1      21.686  -4.965  52.730  0.00  0.00    +0.000 OA
ATOM     10  H   UNL     1      21.019  -5.433  52.193  0.00  0.00    +0.000 HD
ENDBRANCH   6   9
TORSDOF 2
ENDMDL
MODEL 2
REMARK VINA RESULT:    -3.497     11.507     12.833
REMARK INTER + INTRA:          -3.852
REMARK INTER:                  -3.812
REMARK INTRA:                  -0.040
REMARK UNBOUND:                -0.048
REMARK  Name = 
REMARK  3 active torsions:
REMARK  status: ('A' for Active; 'I' for Inactive)
REMARK    1  A    between atoms: C_1  and  O_2
REMARK    2  A    between atoms: O_2  and  C_3
REMARK    3  A    between atoms: C_8  and  O_9
REMARK                            x       y       z     vdW  Elec       q    Type
REMARK                         _______ _______ _______ _____ _____    ______ ____
ROOT
ATOM      1  C   UNL     1      15.780  -6.320  43.766  0.00  0.00    +0.000 A 
ATOM      2  C   UNL     1      15.126  -7.520  43.489  0.00  0.00    +0.000 A 
ATOM      3  C   UNL     1      13.856  -7.504  42.898  0.00  0.00    +0.000 A 
ATOM      4  C   UNL     1      13.237  -6.293  42.583  0.00  0.00    +0.000 A 
ATOM      5  C   UNL     1      13.885  -5.091  42.856  0.00  0.00    +0.000 A 
ATOM      6  C   UNL     1      15.143  -5.116  43.443  0.00  0.00    +0.000 A 
ENDROOT
BRANCH   1   8
ATOM      7  C   UNL     1      17.929  -7.261  44.146  0.00  0.00    +0.000 C 
ATOM      8  O   UNL     1      17.019  -6.186  44.340  0.00  0.00    +0.000 OA
ENDBRANCH   1   8
BRANCH   6   9
ATOM      9  O   UNL     1      15.760  -3.921  43.702  0.00  0.00    +0.000 OA
ATOM     10  H   UNL     1      16.663  -4.025  43.346  0.00  0.00    +0.000 HD
ENDBRANCH   6   9
TORSDOF 2
ENDMDL
MODEL 3
REMARK VINA RESULT:    -3.485     15.710     16.098
REMARK INTER + INTRA:          -3.839
REMARK INTER:                  -3.791
REMARK INTRA:                  -0.048
REMARK UNBOUND:                -0.048
REMARK  Name = 
REMARK  3 active torsions:
REMARK  status: ('A' for Active; 'I' for Inactive)
REMARK    1  A    between atoms: C_1  and  O_2
REMARK    2  A    between atoms: O_2  and  C_3
REMARK    3  A    between atoms: C_8  and  O_9
REMARK                            x       y       z     vdW  Elec       q    Type
REMARK                         _______ _______ _______ _____ _____    ______ ____
ROOT
ATOM      1  C   UNL     1      10.458  -3.336  43.579  0.00  0.00    +0.000 A 
ATOM      2  C   UNL     1      10.245  -4.381  44.477  0.00  0.00    +0.000 A 
ATOM      3  C   UNL     1       9.678  -4.122  45.731  0.00  0.00    +0.000 A 
ATOM      4  C   UNL     1       9.324  -2.820  46.092  0.00  0.00    +0.000 A 
ATOM      5  C   UNL     1       9.533  -1.771  45.200  0.00  0.00    +0.000 A 
ATOM      6  C   UNL     1      10.096  -2.037  43.959  0.00  0.00    +0.000 A 
ENDROOT
BRANCH   1   8
ATOM      7  C   UNL     1      12.199  -4.203  42.214  0.00  0.00    +0.000 C 
ATOM      8  O   UNL     1      11.002  -3.443  42.324  0.00  0.00    +0.000 OA
ENDBRANCH   1   8
BRANCH   6   9
ATOM      9  O   UNL     1      10.292  -0.989  43.099  0.00  0.00    +0.000 OA
ATOM     10  H   UNL     1      10.956  -1.313  42.461  0.00  0.00    +0.000 HD
ENDBRANCH   6   9
TORSDOF 2
ENDMDL
MODEL 4
REMARK VINA RESULT:    -3.428     10.787     12.266
REMARK INTER + INTRA:          -3.776
REMARK INTER:                  -3.724
REMARK INTRA:                  -0.053
REMARK UNBOUND:                -0.048
REMARK  Name = 
REMARK  3 active torsions:
REMARK  status: ('A' for Active; 'I' for Inactive)
REMARK    1  A    between atoms: C_1  and  O_2
REMARK    2  A    between atoms: O_2  and  C_3
REMARK    3  A    between atoms: C_8  and  O_9
REMARK                            x       y       z     vdW  Elec       q    Type
REMARK                         _______ _______ _______ _____ _____    ______ ____
ROOT
ATOM      1  C   UNL     1      15.506  -7.071  43.631  0.00  0.00    +0.000 A 
ATOM      2  C   UNL     1      14.540  -7.991  43.225  0.00  0.00    +0.000 A 
ATOM      3  C   UNL     1      14.544  -9.288  43.753  0.00  0.00    +0.000 A 
ATOM      4  C   UNL     1      15.511  -9.670  44.685  0.00  0.00    +0.000 A 
ATOM      5  C   UNL     1      16.479  -8.756  45.096  0.00  0.00    +0.000 A 
ATOM      6  C   UNL     1      16.467  -7.472  44.567  0.00  0.00    +0.000 A 
ENDROOT
BRANCH   1   8
ATOM      7  C   UNL     1      14.566  -4.890  43.554  0.00  0.00    +0.000 C 
ATOM      8  O   UNL     1      15.622  -5.774  43.199  0.00  0.00    +0.000 OA
ENDBRANCH   1   8
BRANCH   6   9
ATOM      9  O   UNL     1      17.429  -6.591  44.986  0.00  0.00    +0.000 OA
ATOM     10  H   UNL     1      17.198  -6.394  45.914  0.00  0.00    +0.000 HD
ENDBRANCH   6   9
TORSDOF 2
ENDMDL
MODEL 5
REMARK VINA RESULT:    -3.406     16.210     16.782
REMARK INTER + INTRA:          -3.752
REMARK INTER:                  -3.706
REMARK INTRA:                  -0.046
REMARK UNBOUND:                -0.048
REMARK  Name = 
REMARK  3 active torsions:
REMARK  status: ('A' for Active; 'I' for Inactive)
REMARK    1  A    between atoms: C_1  and  O_2
REMARK    2  A    between atoms: O_2  and  C_3
REMARK    3  A    between atoms: C_8  and  O_9
REMARK                            x       y       z     vdW  Elec       q    Type
REMARK                         _______ _______ _______ _____ _____    ______ ____
ROOT
ATOM      1  C   UNL     1       9.382  -1.016  45.171  0.00  0.00    +0.000 A 
ATOM      2  C   UNL     1       9.031  -1.917  46.175  0.00  0.00    +0.000 A 
ATOM      3  C   UNL     1       9.239  -3.289  45.987  0.00  0.00    +0.000 A 
ATOM      4  C   UNL     1       9.796  -3.765  44.798  0.00  0.00    +0.000 A 
ATOM      5  C   UNL     1      10.149  -2.870  43.791  0.00  0.00    +0.000 A 
ATOM      6  C   UNL     1       9.939  -1.511  43.985  0.00  0.00    +0.000 A 
ENDROOT
BRANCH   1   8
ATOM      7  C   UNL     1       9.635   0.988  46.423  0.00  0.00    +0.000 C 
ATOM      8  O   UNL     1       9.235   0.347  45.217  0.00  0.00    +0.000 OA
ENDBRANCH   1   8
BRANCH   6   9
ATOM      9  O   UNL     1      10.294  -0.651  42.980  0.00  0.00    +0.000 OA
ATOM     10  H   UNL     1       9.450  -0.272  42.669  0.00  0.00    +0.000 HD
ENDBRANCH   6   9
TORSDOF 2
ENDMDL
MODEL 6
REMARK VINA RESULT:    -3.395      1.719      3.341
REMARK INTER + INTRA:          -3.740
REMARK INTER:                  -3.689
REMARK INTRA:                  -0.051
REMARK UNBOUND:                -0.048
REMARK  Name = 
REMARK  3 active torsions:
REMARK  status: ('A' for Active; 'I' for Inactive)
REMARK    1  A    between atoms: C_1  and  O_2
REMARK    2  A    between atoms: O_2  and  C_3
REMARK    3  A    between atoms: C_8  and  O_9
REMARK                            x       y       z     vdW  Elec       q    Type
REMARK                         _______ _______ _______ _____ _____    ______ ____
ROOT
ATOM      1  C   UNL     1      22.293  -6.829  55.473  0.00  0.00    +0.000 A 
ATOM      2  C   UNL     1      23.189  -7.893  55.367  0.00  0.00    +0.000 A 
ATOM      3  C   UNL     1      23.785  -8.185  54.134  0.00  0.00    +0.000 A 
ATOM      4  C   UNL     1      23.489  -7.418  53.005  0.00  0.00    +0.000 A 
ATOM      5  C   UNL     1      22.596  -6.354  53.103  0.00  0.00    +0.000 A 
ATOM      6  C   UNL     1      22.009  -6.072  54.330  0.00  0.00    +0.000 A 
ENDROOT
BRANCH   1   8
ATOM      7  C   UNL     1      22.453  -6.062  57.716  0.00  0.00    +0.000 C 
ATOM      8  O   UNL     1      21.638  -6.431  56.610  0.00  0.00    +0.000 OA
ENDBRANCH   1   8
BRANCH   6   9
ATOM      9  O   UNL     1      21.134  -5.021  54.401  0.00  0.00    +0.000 OA
ATOM     10  H   UNL     1      21.116  -4.776  55.346  0.00  0.00    +0.000 HD
ENDBRANCH   6   9
TORSDOF 2
ENDMDL
MODEL 7
REMARK VINA RESULT:    -3.349     15.630     16.399
REMARK INTER + INTRA:          -3.690
REMARK INTER:                  -3.641
REMARK INTRA:                  -0.049
REMARK UNBOUND:                -0.048
REMARK  Name = 
REMARK  3 active torsions:
REMARK  status: ('A' for Active; 'I' for Inactive)
REMARK    1  A    between atoms: C_1  and  O_2
REMARK    2  A    between atoms: O_2  and  C_3
REMARK    3  A    between atoms: C_8  and  O_9
REMARK                            x       y       z     vdW  Elec       q    Type
REMARK                         _______ _______ _______ _____ _____    ______ ____
ROOT
ATOM      1  C   UNL     1       9.651  -2.644  44.695  0.00  0.00    +0.000 A 
ATOM      2  C   UNL     1       9.139  -2.961  45.952  0.00  0.00    +0.000 A 
ATOM      3  C   UNL     1       8.783  -1.939  46.841  0.00  0.00    +0.000 A 
ATOM      4  C   UNL     1       8.939  -0.599  46.478  0.00  0.00    +0.000 A 
ATOM      5  C   UNL     1       9.450  -0.275  45.223  0.00  0.00    +0.000 A 
ATOM      6  C   UNL     1       9.800  -1.295  44.349  0.00  0.00    +0.000 A 
ENDROOT
BRANCH   1   8
ATOM      7  C   UNL     1      10.927  -4.570  44.140  0.00  0.00    +0.000 C 
ATOM      8  O   UNL     1      10.040  -3.537  43.729  0.00  0.00    +0.000 OA
ENDBRANCH   1   8
BRANCH   6   9
ATOM      9  O   UNL     1      10.300  -0.951  43.121  0.00  0.00    +0.000 OA
ATOM     10  H   UNL     1      10.610  -0.032  43.228  0.00  0.00    +0.000 HD
ENDBRANCH   6   9
TORSDOF 2
ENDMDL
MODEL 8
REMARK VINA RESULT:    -3.348      2.083      3.923
REMARK INTER + INTRA:          -3.689
REMARK INTER:                  -3.649
REMARK INTRA:                  -0.040
REMARK UNBOUND:                -0.048
REMARK  Name = 
REMARK  3 active torsions:
REMARK  status: ('A' for Active; 'I' for Inactive)
REMARK    1  A    between atoms: C_1  and  O_2
REMARK    2  A    between atoms: O_2  and  C_3
REMARK    3  A    between atoms: C_8  and  O_9
REMARK                            x       y       z     vdW  Elec       q    Type
REMARK                         _______ _______ _______ _____ _____    ______ ____
ROOT
ATOM      1  C   UNL     1      22.114  -6.614  55.062  0.00  0.00    +0.000 A 
ATOM      2  C   UNL     1      21.736  -5.478  54.347  0.00  0.00    +0.000 A 
ATOM      3  C   UNL     1      22.318  -5.210  53.101  0.00  0.00    +0.000 A 
ATOM      4  C   UNL     1      23.277  -6.072  52.568  0.00  0.00    +0.000 A 
ATOM      5  C   UNL     1      23.660  -7.209  53.276  0.00  0.00    +0.000 A 
ATOM      6  C   UNL     1      23.078  -7.467  54.510  0.00  0.00    +0.000 A 
ENDROOT
BRANCH   1   8
ATOM      7  C   UNL     1      22.111  -6.277  57.414  0.00  0.00    +0.000 C 
ATOM      8  O   UNL     1      21.631  -6.999  56.286  0.00  0.00    +0.000 OA
ENDBRANCH   1   8
BRANCH   6   9
ATOM      9  O   UNL     1      23.470  -8.591  55.188  0.00  0.00    +0.000 OA
ATOM     10  H   UNL     1      24.434  -8.487  55.303  0.00  0.00    +0.000 HD
ENDBRANCH   6   9
TORSDOF 2
ENDMDL
MODEL 9
REMARK VINA RESULT:    -3.341     12.531     13.886
REMARK INTER + INTRA:          -3.682
REMARK INTER:                  -3.631
REMARK INTRA:                  -0.051
REMARK UNBOUND:                -0.048
REMARK  Name = 
REMARK  3 active torsions:
REMARK  status: ('A' for Active; 'I' for Inactive)
REMARK    1  A    between atoms: C_1  and  O_2
REMARK    2  A    between atoms: O_2  and  C_3
REMARK    3  A    between atoms: C_8  and  O_9
REMARK                            x       y       z     vdW  Elec       q    Type
REMARK                         _______ _______ _______ _____ _____    ______ ____
ROOT
ATOM      1  C   UNL     1      13.894  -5.603  42.597  0.00  0.00    +0.000 A 
ATOM      2  C   UNL     1      13.391  -6.901  42.508  0.00  0.00    +0.000 A 
ATOM      3  C   UNL     1      14.120  -7.971  43.040  0.00  0.00    +0.000 A 
ATOM      4  C   UNL     1      15.351  -7.751  43.661  0.00  0.00    +0.000 A 
ATOM      5  C   UNL     1      15.860  -6.457  43.754  0.00  0.00    +0.000 A 
ATOM      6  C   UNL     1      15.130  -5.401  43.223  0.00  0.00    +0.000 A 
ENDROOT
BRANCH   1   8
ATOM      7  C   UNL     1      11.972  -4.205  42.586  0.00  0.00    +0.000 C 
ATOM      8  O   UNL     1      13.292  -4.466  42.122  0.00  0.00    +0.000 OA
ENDBRANCH   1   8
BRANCH   6   9
ATOM      9  O   UNL     1      15.651  -4.139  43.327  0.00  0.00    +0.000 OA
ATOM     10  H   UNL     1      16.370  -4.112  42.668  0.00  0.00    +0.000 HD
ENDBRANCH   6   9
TORSDOF 2
ENDMDL
