MODEL 1
REMARK VINA RESULT:    -4.249      0.000      0.000
REMARK INTER + INTRA:          -4.659
REMARK INTER:                  -4.621
REMARK INTRA:                  -0.038
REMARK UNBOUND:                -0.038
REMARK  Name = 
REMARK  3 active torsions:
REMARK  status: ('A' for Active; 'I' for Inactive)
REMARK    1  A    between atoms: C_1  and  O_2
REMARK    2  A    between atoms: O_2  and  C_3
REMARK    3  A    between atoms: C_8  and  O_9
REMARK                            x       y       z     vdW  Elec       q    Type
REMARK                         _______ _______ _______ _____ _____    ______ ____
ROOT
ATOM      1  C   UNL     1       2.980  15.898 -13.683  0.00  0.00    +0.000 A 
ATOM      2  C   UNL     1       2.304  16.277 -14.842  0.00  0.00    +0.000 A 
ATOM      3  C   UNL     1       1.367  15.411 -15.420  0.00  0.00    +0.000 A 
ATOM      4  C   UNL     1       1.104  14.167 -14.844  0.00  0.00    +0.000 A 
ATOM      5  C   UNL     1       1.776  13.781 -13.686  0.00  0.00    +0.000 A 
ATOM      6  C   UNL     1       2.703  14.647 -13.120  0.00  0.00    +0.000 A 
ENDROOT
BRANCH   1   8
ATOM      7  C   UNL     1       4.448  17.768 -13.702  0.00  0.00    +0.000 C 
ATOM      8  O   UNL     1       3.919  16.641 -13.013  0.00  0.00    +0.000 OA
ENDBRANCH   1   8
BRANCH   6   9
ATOM      9  O   UNL     1       3.351  14.246 -11.982  0.00  0.00    +0.000 OA
ATOM     10  H   UNL     1       3.111  13.305 -11.878  0.00  0.00    +0.000 HD
ENDBRANCH   6   9
TORSDOF 2
ENDMDL
MODEL 2
REMARK VINA RESULT:    -4.217      2.230      3.559
REMARK INTER + INTRA:          -4.625
REMARK INTER:                  -4.584
REMARK INTRA:                  -0.041
REMARK UNBOUND:                -0.038
REMARK  Name = 
REMARK  3 active torsions:
REMARK  status: ('A' for Active; 'I' for Inactive)
REMARK    1  A    between atoms: C_1  and  O_2
REMARK    2  A    between atoms: O_2  and  C_3
REMARK    3  A    between atoms: C_8  and  O_9
REMARK                            x       y       z     vdW  Elec       q    Type
REMARK                         _______ _______ _______ _____ _____    ______ ____
ROOT
ATOM      1  C   UNL     1       1.577  14.152 -15.098  0.00  0.00    +0.000 A 
ATOM      2  C   UNL     1       2.489  15.089 -15.580  0.00  0.00    +0.000 A 
ATOM      3  C   UNL     1       3.384  15.711 -14.700  0.00  0.00    +0.000 A 
ATOM      4  C   UNL     1       3.371  15.399 -13.339  0.00  0.00    +0.000 A 
ATOM      5  C   UNL     1       2.462  14.464 -12.850  0.00  0.00    +0.000 A 
ATOM      6  C   UNL     1       1.578  13.852 -13.730  0.00  0.00    +0.000 A 
ENDROOT
BRANCH   1   8
ATOM      7  C   UNL     1       1.137  12.407 -16.650  0.00  0.00    +0.000 C 
ATOM      8  O   UNL     1       0.647  13.469 -15.840  0.00  0.00    +0.000 OA
ENDBRANCH   1   8
BRANCH   6   9
ATOM      9  O   UNL     1       0.694  12.936 -13.225  0.00  0.00    +0.000 OA
ATOM     10  H   UNL     1       1.149  12.077 -13.314  0.00  0.00    +0.000 HD
ENDBRANCH   6   9
TORSDOF 2
ENDMDL
MODEL 3
REMARK VINA RESULT:    -4.147     15.930     16.975
REMARK INTER + INTRA:          -4.549
REMARK INTER:                  -4.499
REMARK INTRA:                  -0.051
REMARK UNBOUND:                -0.038
REMARK  Name = 
REMARK  3 active torsions:
REMARK  status: ('A' for Active; 'I' for Inactive)
REMARK    1  A    between atoms: C_1  and  O_2
REMARK    2  A    between atoms: O_2  and  C_3
REMARK    3  A    between atoms: C_8  and  O_9
REMARK                            x       y       z     vdW  Elec       q    Type
REMARK                         _______ _______ _______ _____ _____    ______ ____
ROOT
ATOM      1  C   UNL     1       3.151  17.851   2.985  0.00  0.00    +0.000 A 
ATOM      2  C   UNL     1       3.674  18.826   3.832  0.00  0.00    +0.000 A 
ATOM      3  C   UNL     1       4.464  19.857   3.308  0.00  0.00    +0.000 A 
ATOM      4  C   UNL     1       4.734  19.916   1.940  0.00  0.00    +0.000 A 
ATOM      5  C   UNL     1       4.214  18.946   1.087  0.00  0.00    +0.000 A 
ATOM      6  C   UNL     1       3.432  17.927   1.615  0.00  0.00    +0.000 A 
ENDROOT
BRANCH   1   8
ATOM      7  C   UNL     1       1.172  17.100   4.066  0.00  0.00    +0.000 C 
ATOM      8  O   UNL     1       2.366  16.789   3.358  0.00  0.00    +0.000 OA
ENDBRANCH   1   8
BRANCH   6   9
ATOM      9  O   UNL     1       2.932  16.984   0.757  0.00  0.00    +0.000 OA
ATOM     10  H   UNL     1       2.187  16.578   1.240  0.00  0.00    +0.000 HD
ENDBRANCH   6   9
TORSDOF 2
ENDMDL
MODEL 4
REMARK VINA RESULT:    -4.126     15.484     16.324
REMARK INTER + INTRA:          -4.526
REMARK INTER:                  -4.475
REMARK INTRA:                  -0.051
REMARK UNBOUND:                -0.038
REMARK  Name = 
REMARK  3 active torsions:
REMARK  status: ('A' for Active; 'I' for Inactive)
REMARK    1  A    between atoms: C_1  and  O_2
REMARK    2  A    between atoms: O_2  and  C_3
REMARK    3  A    between atoms: C_8  and  O_9
REMARK                            x       y       z     vdW  Elec       q    Type
REMARK                         _______ _______ _______ _____ _____    ______ ____
ROOT
ATOM      1  C   UNL     1       3.971  18.908   1.633  0.00  0.00    +0.000 A 
ATOM      2  C   UNL     1       4.245  19.517   2.857  0.00  0.00    +0.000 A 
ATOM      3  C   UNL     1       3.685  19.005   4.034  0.00  0.00    +0.000 A 
ATOM      4  C   UNL     1       2.850  17.886   3.993  0.00  0.00    +0.000 A 
ATOM      5  C   UNL     1       2.572  17.272   2.774  0.00  0.00    +0.000 A 
ATOM      6  C   UNL     1       3.132  17.787   1.611  0.00  0.00    +0.000 A 
ENDROOT
BRANCH   1   8
ATOM      7  C   UNL     1       4.178  20.642   0.022  0.00  0.00    +0.000 C 
ATOM      8  O   UNL     1       4.448  19.300   0.408  0.00  0.00    +0.000 OA
ENDBRANCH   1   8
BRANCH   6   9
ATOM      9  O   UNL     1       2.844  17.167   0.425  0.00  0.00    +0.000 OA
ATOM     10  H   UNL     1       3.259  16.286   0.498  0.00  0.00    +0.000 HD
ENDBRANCH   6   9
TORSDOF 2
ENDMDL
MODEL 5
REMARK VINA RESULT:    -4.070      3.229      4.406
REMARK INTER + INTRA:          -4.465
REMARK INTER:                  -4.424
REMARK INTRA:                  -0.040
REMARK UNBOUND:                -0.038
REMARK  Name = 
REMARK  3 active torsions:
REMARK  status: ('A' for Active; 'I' for Inactive)
REMARK    1  A    between atoms: C_1  and  O_2
REMARK    2  A    between atoms: O_2  and  C_3
REMARK    3  A    between atoms: C_8  and  O_9
REMARK                            x       y       z     vdW  Elec       q    Type
REMARK                         _______ _______ _______ _____ _____    ______ ____
ROOT
ATOM      1  C   UNL     1       0.446  12.650 -14.662  0.00  0.00    +0.000 A 
ATOM      2  C   UNL     1       1.084  12.515 -15.894  0.00  0.00    +0.000 A 
ATOM      3  C   UNL     1       0.442  11.848 -16.945  0.00  0.00    +0.000 A 
ATOM      4  C   UNL     1      -0.836  11.315 -16.770  0.00  0.00    +0.000 A 
ATOM      5  C   UNL     1      -1.481  11.446 -15.542  0.00  0.00    +0.000 A 
ATOM      6  C   UNL     1      -0.836  12.109 -14.505  0.00  0.00    +0.000 A 
ENDROOT
BRANCH   1   8
ATOM      7  C   UNL     1       1.880  14.326 -13.780  0.00  0.00    +0.000 C 
ATOM      8  O   UNL     1       0.952  13.274 -13.550  0.00  0.00    +0.000 OA
ENDBRANCH   1   8
BRANCH   6   9
ATOM      9  O   UNL     1      -1.490  12.225 -13.307  0.00  0.00    +0.000 OA
ATOM     10  H   UNL     1      -0.919  12.805 -12.768  0.00  0.00    +0.000 HD
ENDBRANCH   6   9
TORSDOF 2
ENDMDL
MODEL 6
REMARK VINA RESULT:    -3.940     12.552     13.138
REMARK INTER + INTRA:          -4.323
REMARK INTER:                  -4.280
REMARK INTRA:                  -0.043
REMARK UNBOUND:                -0.038
REMARK  Name = 
REMARK  3 active torsions:
REMARK  status: ('A' for Active; 'I' for Inactive)
REMARK    1  A    between atoms: C_1  and  O_2
REMARK    2  A    between atoms: O_2  and  C_3
REMARK    3  A    between atoms: C_8  and  O_9
REMARK                            x       y       z     vdW  Elec       q    Type
REMARK                         _______ _______ _______ _____ _____    ______ ____
ROOT
ATOM      1  C   UNL     1       0.410  18.117  -1.283  0.00  0.00    +0.000 A 
ATOM      2  C   UNL     1       0.369  17.961  -2.667  0.00  0.00    +0.000 A 
ATOM      3  C   UNL     1      -0.851  18.061  -3.347  0.00  0.00    +0.000 A 
ATOM      4  C   UNL     1      -2.032  18.317  -2.648  0.00  0.00    +0.000 A 
ATOM      5  C   UNL     1      -1.999  18.475  -1.264  0.00  0.00    +0.000 A 
ATOM      6  C   UNL     1      -0.784  18.373  -0.598  0.00  0.00    +0.000 A 
ENDROOT
BRANCH   1   8
ATOM      7  C   UNL     1       2.726  18.586  -1.033  0.00  0.00    +0.000 C 
ATOM      8  O   UNL     1       1.528  18.044  -0.491  0.00  0.00    +0.000 OA
ENDBRANCH   1   8
BRANCH   6   9
ATOM      9  O   UNL     1      -0.777  18.532   0.762  0.00  0.00    +0.000 OA
ATOM     10  H   UNL     1      -0.715  19.497   0.899  0.00  0.00    +0.000 HD
ENDBRANCH   6   9
TORSDOF 2
ENDMDL
MODEL 7
REMARK VINA RESULT:    -3.916     15.095     15.973
REMARK INTER + INTRA:          -4.298
REMARK INTER:                  -4.245
REMARK INTRA:                  -0.052
REMARK UNBOUND:                -0.038
REMARK  Name = 
REMARK  3 active torsions:
REMARK  status: ('A' for Active; 'I' for Inactive)
REMARK    1  A    between atoms: C_1  and  O_2
REMARK    2  A    between atoms: O_2  and  C_3
REMARK    3  A    between atoms: C_8  and  O_9
REMARK                            x       y       z     vdW  Elec       q    Type
REMARK                         _______ _______ _______ _____ _____    ______ ____
ROOT
ATOM      1  C   UNL     1       1.858  18.295   1.362  0.00  0.00    +0.000 A 
ATOM      2  C   UNL     1       1.049  18.423   2.490  0.00  0.00    +0.000 A 
ATOM      3  C   UNL     1       1.381  17.746   3.670  0.00  0.00    +0.000 A 
ATOM      4  C   UNL     1       2.520  16.940   3.727  0.00  0.00    +0.000 A 
ATOM      5  C   UNL     1       3.334  16.808   2.604  0.00  0.00    +0.000 A 
ATOM      6  C   UNL     1       2.996  17.482   1.438  0.00  0.00    +0.000 A 
ENDROOT
BRANCH   1   8
ATOM      7  C   UNL     1       0.461  18.543  -0.545  0.00  0.00    +0.000 C 
ATOM      8  O   UNL     1       1.654  18.895   0.145  0.00  0.00    +0.000 OA
ENDBRANCH   1   8
BRANCH   6   9
ATOM      9  O   UNL     1       3.811  17.336   0.347  0.00  0.00    +0.000 OA
ATOM     10  H   UNL     1       4.344  16.541   0.540  0.00  0.00    +0.000 HD
ENDBRANCH   6   9
TORSDOF 2
ENDMDL
MODEL 8
REMARK VINA RESULT:    -3.905     15.504     16.322
REMARK INTER + INTRA:          -4.286
REMARK INTER:                  -4.237
REMARK INTRA:                  -0.049
REMARK UNBOUND:                -0.038
REMARK  Name = 
REMARK  3 active torsions:
REMARK  status: ('A' for Active; 'I' for Inactive)
REMARK    1  A    between atoms: C_1  and  O_2
REMARK    2  A    between atoms: O_2  and  C_3
REMARK    3  A    between atoms: C_8  and  O_9
REMARK                            x       y       z     vdW  Elec       q    Type
REMARK                         _______ _______ _______ _____ _____    ______ ____
ROOT
ATOM      1  C   UNL     1       4.073  19.252   1.318  0.00  0.00    +0.000 A 
ATOM      2  C   UNL     1       3.795  17.915   1.040  0.00  0.00    +0.000 A 
ATOM      3  C   UNL     1       3.386  17.057   2.069  0.00  0.00    +0.000 A 
ATOM      4  C   UNL     1       3.255  17.530   3.376  0.00  0.00    +0.000 A 
ATOM      5  C   UNL     1       3.531  18.866   3.661  0.00  0.00    +0.000 A 
ATOM      6  C   UNL     1       3.936  19.709   2.635  0.00  0.00    +0.000 A 
ENDROOT
BRANCH   1   8
ATOM      7  C   UNL     1       3.696  20.333  -0.764  0.00  0.00    +0.000 C 
ATOM      8  O   UNL     1       4.481  20.201   0.415  0.00  0.00    +0.000 OA
ENDBRANCH   1   8
BRANCH   6   9
ATOM      9  O   UNL     1       4.201  21.018   2.940  0.00  0.00    +0.000 OA
ATOM     10  H   UNL     1       5.159  21.040   3.128  0.00  0.00    +0.000 HD
ENDBRANCH   6   9
TORSDOF 2
ENDMDL
MODEL 9
REMARK VINA RESULT:    -3.903     14.121     14.958
REMARK INTER + INTRA:          -4.283
REMARK INTER:                  -4.232
REMARK INTRA:                  -0.052
REMARK UNBOUND:                -0.038
REMARK  Name = 
REMARK  3 active torsions:
REMARK  status: ('A' for Active; 'I' for Inactive)
REMARK    1  A    between atoms: C_1  and  O_2
REMARK    2  A    between atoms: O_2  and  C_3
REMARK    3  A    between atoms: C_8  and  O_9
REMARK                            x       y       z     vdW  Elec       q    Type
REMARK                         _______ _______ _______ _____ _____    ______ ____
ROOT
ATOM      1  C   UNL     1       4.079  19.100   0.960  0.00  0.00    +0.000 A 
ATOM      2  C   UNL     1       4.309  20.326   0.338  0.00  0.00    +0.000 A 
ATOM      3  C   UNL     1       3.690  20.617  -0.884  0.00  0.00    +0.000 A 
ATOM      4  C   UNL     1       2.841  19.687  -1.487  0.00  0.00    +0.000 A 
ATOM      5  C   UNL     1       2.606  18.460  -0.870  0.00  0.00    +0.000 A 
ATOM      6  C   UNL     1       3.225  18.180   0.341  0.00  0.00    +0.000 A 
ENDROOT
BRANCH   1   8
ATOM      7  C   UNL     1       4.343  19.490   3.290  0.00  0.00    +0.000 C 
ATOM      8  O   UNL     1       4.616  18.682   2.152  0.00  0.00    +0.000 OA
ENDBRANCH   1   8
BRANCH   6   9
ATOM      9  O   UNL     1       2.978  16.967   0.928  0.00  0.00    +0.000 OA
ATOM     10  H   UNL     1       2.942  16.335   0.185  0.00  0.00    +0.000 HD
ENDBRANCH   6   9
TORSDOF 2
ENDMDL
