MODEL 1
REMARK VINA RESULT:    -4.030      0.000      0.000
REMARK INTER + INTRA:          -5.759
REMARK INTER:                  -5.443
REMARK INTRA:                  -0.316
REMARK UNBOUND:                -0.316
REMARK  Name = 
REMARK  10 active torsions:
REMARK  status: ('A' for Active; 'I' for Inactive)
REMARK    1  A    between atoms: C_1  and  C_2
REMARK    2  A    between atoms: C_5  and  N_8
REMARK    3  A    between atoms: N_8  and  C_9
REMARK    4  A    between atoms: N_8  and  C_13
REMARK    5  A    between atoms: C_9  and  C_10
REMARK    6  A    between atoms: C_10  and  C_11
REMARK    7  A    between atoms: C_10  and  O_12
REMARK    8  A    between atoms: C_13  and  C_14
REMARK    9  A    between atoms: C_14  and  C_15
REMARK   10  A    between atoms: C_14  and  O_16
REMARK                            x       y       z     vdW  Elec       q    Type
REMARK                         _______ _______ _______ _____ _____    ______ ____
ROOT
ATOM      1  N   UNL     1      20.338  16.002  -3.376  0.00  0.00    +0.000 N 
ENDROOT
BRANCH   1   6
ATOM      2  C   UNL     1      17.187  16.235  -8.208  0.00  0.00    +0.000 C 
ATOM      3  C   UNL     1      18.021  16.191  -6.964  0.00  0.00    +0.000 A 
ATOM      4  C   UNL     1      19.034  15.250  -6.816  0.00  0.00    +0.000 A 
ATOM      5  C   UNL     1      19.793  15.194  -5.635  0.00  0.00    +0.000 A 
ATOM      6  C   UNL     1      19.565  16.050  -4.543  0.00  0.00    +0.000 A 
ATOM      7  C   UNL     1      18.534  16.990  -4.728  0.00  0.00    +0.000 A 
ATOM      8  C   UNL     1      17.770  17.058  -5.905  0.00  0.00    +0.000 A 
ENDBRANCH   1   6
BRANCH   1   9
ATOM      9  C   UNL     1      20.034  16.911  -2.244  0.00  0.00    +0.000 C 
BRANCH   9  10
ATOM     10  C   UNL     1      19.358  16.185  -1.056  0.00  0.00    +0.000 C 
ATOM     11  C   UNL     1      17.840  16.282  -1.149  0.00  0.00    +0.000 C 
BRANCH  10  12
ATOM     12  O   UNL     1      19.713  14.795  -1.032  0.00  0.00    +0.000 OA
ATOM     13  H   UNL     1      19.789  14.519  -0.103  0.00  0.00    +0.000 HD
ENDBRANCH  10  12
ENDBRANCH   9  10
ENDBRANCH   1   9
BRANCH   1  14
ATOM     14  C   UNL     1      21.724  15.469  -3.393  0.00  0.00    +0.000 C 
BRANCH  14  15
ATOM     15  C   UNL     1      21.766  13.941  -3.147  0.00  0.00    +0.000 C 
ATOM     16  C   UNL     1      22.543  13.183  -4.216  0.00  0.00    +0.000 C 
BRANCH  15  17
ATOM     17  O   UNL     1      22.338  13.627  -1.878  0.00  0.00    +0.000 OA
ATOM     18  H   UNL     1      23.283  13.454  -2.063  0.00  0.00    +0.000 HD
ENDBRANCH  15  17
ENDBRANCH  14  15
ENDBRANCH   1  14
TORSDOF 7
ENDMDL
MODEL 2
REMARK VINA RESULT:    -3.734      8.231     10.144
REMARK INTER + INTRA:          -5.360
REMARK INTER:                  -4.883
REMARK INTRA:                  -0.477
REMARK UNBOUND:                -0.316
REMARK  Name = 
REMARK  10 active torsions:
REMARK  status: ('A' for Active; 'I' for Inactive)
REMARK    1  A    between atoms: C_1  and  C_2
REMARK    2  A    between atoms: C_5  and  N_8
REMARK    3  A    between atoms: N_8  and  C_9
REMARK    4  A    between atoms: N_8  and  C_13
REMARK    5  A    between atoms: C_9  and  C_10
REMARK    6  A    between atoms: C_10  and  C_11
REMARK    7  A    between atoms: C_10  and  O_12
REMARK    8  A    between atoms: C_13  and  C_14
REMARK    9  A    between atoms: C_14  and  C_15
REMARK   10  A    between atoms: C_14  and  O_16
REMARK                            x       y       z     vdW  Elec       q    Type
REMARK                         _______ _______ _______ _____ _____    ______ ____
ROOT
ATOM      1  N   UNL     1      20.173  10.082   4.373  0.00  0.00    +0.000 N 
ENDROOT
BRANCH   1   6
ATOM      2  C   UNL     1      22.885  14.660   2.134  0.00  0.00    +0.000 C 
ATOM      3  C   UNL     1      22.162  13.476   2.699  0.00  0.00    +0.000 A 
ATOM      4  C   UNL     1      21.318  13.611   3.796  0.00  0.00    +0.000 A 
ATOM      5  C   UNL     1      20.666  12.492   4.341  0.00  0.00    +0.000 A 
ATOM      6  C   UNL     1      20.841  11.190   3.838  0.00  0.00    +0.000 A 
ATOM      7  C   UNL     1      21.699  11.092   2.727  0.00  0.00    +0.000 A 
ATOM      8  C   UNL     1      22.356  12.202   2.172  0.00  0.00    +0.000 A 
ENDBRANCH   1   6
BRANCH   1   9
ATOM      9  C   UNL     1      18.772   9.796   3.978  0.00  0.00    +0.000 C 
BRANCH   9  10
ATOM     10  C   UNL     1      17.794   9.816   5.178  0.00  0.00    +0.000 C 
ATOM     11  C   UNL     1      17.412  11.245   5.546  0.00  0.00    +0.000 C 
BRANCH  10  12
ATOM     12  O   UNL     1      16.590   9.099   4.873  0.00  0.00    +0.000 OA
ATOM     13  H   UNL     1      16.245   9.435   4.029  0.00  0.00    +0.000 HD
ENDBRANCH  10  12
ENDBRANCH   9  10
ENDBRANCH   1   9
BRANCH   1  14
ATOM     14  C   UNL     1      20.591   9.483   5.666  0.00  0.00    +0.000 C 
BRANCH  14  15
ATOM     15  C   UNL     1      21.203   8.073   5.486  0.00  0.00    +0.000 C 
ATOM     16  C   UNL     1      20.162   6.960   5.508  0.00  0.00    +0.000 C 
BRANCH  15  17
ATOM     17  O   UNL     1      21.936   7.968   4.266  0.00  0.00    +0.000 OA
ATOM     18  H   UNL     1      21.913   7.017   4.039  0.00  0.00    +0.000 HD
ENDBRANCH  15  17
ENDBRANCH  14  15
ENDBRANCH   1  14
TORSDOF 7
ENDMDL
MODEL 3
REMARK VINA RESULT:    -3.484      2.395      4.779
REMARK INTER + INTRA:          -5.022
REMARK INTER:                  -4.575
REMARK INTRA:                  -0.446
REMARK UNBOUND:                -0.316
REMARK  Name = 
REMARK  10 active torsions:
REMARK  status: ('A' for Active; 'I' for Inactive)
REMARK    1  A    between atoms: C_1  and  C_2
REMARK    2  A    between atoms: C_5  and  N_8
REMARK    3  A    between atoms: N_8  and  C_9
REMARK    4  A    between atoms: N_8  and  C_13
REMARK    5  A    between atoms: C_9  and  C_10
REMARK    6  A    between atoms: C_10  and  C_11
REMARK    7  A    between atoms: C_10  and  O_12
REMARK    8  A    between atoms: C_13  and  C_14
REMARK    9  A    between atoms: C_14  and  C_15
REMARK   10  A    between atoms: C_14  and  O_16
REMARK                            x       y       z     vdW  Elec       q    Type
REMARK                         _______ _______ _______ _____ _____    ______ ____
ROOT
ATOM      1  N   UNL     1      19.918  15.956  -4.728  0.00  0.00    +0.000 N 
ENDROOT
BRANCH   1   6
ATOM      2  C   UNL     1      17.810  16.792   0.582  0.00  0.00    +0.000 C 
ATOM      3  C   UNL     1      18.370  16.597  -0.794  0.00  0.00    +0.000 A 
ATOM      4  C   UNL     1      17.688  17.058  -1.915  0.00  0.00    +0.000 A 
ATOM      5  C   UNL     1      18.202  16.846  -3.204  0.00  0.00    +0.000 A 
ATOM      6  C   UNL     1      19.400  16.147  -3.440  0.00  0.00    +0.000 A 
ATOM      7  C   UNL     1      20.064  15.697  -2.284  0.00  0.00    +0.000 A 
ATOM      8  C   UNL     1      19.562  15.905  -0.989  0.00  0.00    +0.000 A 
ENDBRANCH   1   6
BRANCH   1   9
ATOM      9  C   UNL     1      19.530  16.871  -5.828  0.00  0.00    +0.000 C 
BRANCH   9  10
ATOM     10  C   UNL     1      18.643  16.184  -6.895  0.00  0.00    +0.000 C 
ATOM     11  C   UNL     1      17.429  17.044  -7.230  0.00  0.00    +0.000 C 
BRANCH  10  12
ATOM     12  O   UNL     1      19.376  15.960  -8.107  0.00  0.00    +0.000 OA
ATOM     13  H   UNL     1      19.679  16.821  -8.440  0.00  0.00    +0.000 HD
ENDBRANCH  10  12
ENDBRANCH   9  10
ENDBRANCH   1   9
BRANCH   1  14
ATOM     14  C   UNL     1      20.415  14.627  -5.167  0.00  0.00    +0.000 C 
BRANCH  14  15
ATOM     15  C   UNL     1      21.953  14.508  -5.043  0.00  0.00    +0.000 C 
ATOM     16  C   UNL     1      22.398  13.295  -4.235  0.00  0.00    +0.000 C 
BRANCH  15  17
ATOM     17  O   UNL     1      22.581  14.441  -6.323  0.00  0.00    +0.000 OA
ATOM     18  H   UNL     1      22.018  14.985  -6.909  0.00  0.00    +0.000 HD
ENDBRANCH  15  17
ENDBRANCH  14  15
ENDBRANCH   1  14
TORSDOF 7
ENDMDL
MODEL 4
REMARK VINA RESULT:    -3.483      8.590     10.606
REMARK INTER + INTRA:          -5.020
REMARK INTER:                  -4.434
REMARK INTRA:                  -0.586
REMARK UNBOUND:                -0.316
REMARK  Name = 
REMARK  10 active torsions:
REMARK  status: ('A' for Active; 'I' for Inactive)
REMARK    1  A    between atoms: C_1  and  C_2
REMARK    2  A    between atoms: C_5  and  N_8
REMARK    3  A    between atoms: N_8  and  C_9
REMARK    4  A    between atoms: N_8  and  C_13
REMARK    5  A    between atoms: C_9  and  C_10
REMARK    6  A    between atoms: C_10  and  C_11
REMARK    7  A    between atoms: C_10  and  O_12
REMARK    8  A    between atoms: C_13  and  C_14
REMARK    9  A    between atoms: C_14  and  C_15
REMARK   10  A    between atoms: C_14  and  O_16
REMARK                            x       y       z     vdW  Elec       q    Type
REMARK                         _______ _______ _______ _____ _____    ______ ____
ROOT
ATOM      1  N   UNL     1      21.625  11.013   4.032  0.00  0.00    +0.000 N 
ENDROOT
BRANCH   1   6
ATOM      2  C   UNL     1      17.336   7.579   5.807  0.00  0.00    +0.000 C 
ATOM      3  C   UNL     1      18.447   8.460   5.323  0.00  0.00    +0.000 A 
ATOM      4  C   UNL     1      19.775   8.059   5.429  0.00  0.00    +0.000 A 
ATOM      5  C   UNL     1      20.814   8.902   5.001  0.00  0.00    +0.000 A 
ATOM      6  C   UNL     1      20.585  10.186   4.474  0.00  0.00    +0.000 A 
ATOM      7  C   UNL     1      19.231  10.557   4.381  0.00  0.00    +0.000 A 
ATOM      8  C   UNL     1      18.182   9.723   4.802  0.00  0.00    +0.000 A 
ENDBRANCH   1   6
BRANCH   1   9
ATOM      9  C   UNL     1      22.780  10.432   3.307  0.00  0.00    +0.000 C 
BRANCH   9  10
ATOM     10  C   UNL     1      22.510  10.254   1.793  0.00  0.00    +0.000 C 
ATOM     11  C   UNL     1      22.644   8.792   1.383  0.00  0.00    +0.000 C 
BRANCH  10  12
ATOM     12  O   UNL     1      21.188  10.692   1.451  0.00  0.00    +0.000 OA
ATOM     13  H   UNL     1      20.705  10.866   2.276  0.00  0.00    +0.000 HD
ENDBRANCH  10  12
ENDBRANCH   9  10
ENDBRANCH   1   9
BRANCH   1  14
ATOM     14  C   UNL     1      21.887  12.328   4.673  0.00  0.00    +0.000 C 
BRANCH  14  15
ATOM     15  C   UNL     1      21.152  13.485   3.954  0.00  0.00    +0.000 C 
ATOM     16  C   UNL     1      21.556  14.862   4.466  0.00  0.00    +0.000 C 
BRANCH  15  17
ATOM     17  O   UNL     1      21.373  13.455   2.545  0.00  0.00    +0.000 OA
ATOM     18  H   UNL     1      21.251  12.518   2.290  0.00  0.00    +0.000 HD
ENDBRANCH  15  17
ENDBRANCH  14  15
ENDBRANCH   1  14
TORSDOF 7
ENDMDL
MODEL 5
REMARK VINA RESULT:    -3.443      8.966     10.252
REMARK INTER + INTRA:          -4.966
REMARK INTER:                  -4.452
REMARK INTRA:                  -0.514
REMARK UNBOUND:                -0.316
REMARK  Name = 
REMARK  10 active torsions:
REMARK  status: ('A' for Active; 'I' for Inactive)
REMARK    1  A    between atoms: C_1  and  C_2
REMARK    2  A    between atoms: C_5  and  N_8
REMARK    3  A    between atoms: N_8  and  C_9
REMARK    4  A    between atoms: N_8  and  C_13
REMARK    5  A    between atoms: C_9  and  C_10
REMARK    6  A    between atoms: C_10  and  C_11
REMARK    7  A    between atoms: C_10  and  O_12
REMARK    8  A    between atoms: C_13  and  C_14
REMARK    9  A    between atoms: C_14  and  C_15
REMARK   10  A    between atoms: C_14  and  O_16
REMARK                            x       y       z     vdW  Elec       q    Type
REMARK                         _______ _______ _______ _____ _____    ______ ____
ROOT
ATOM      1  N   UNL     1      21.187  10.774   4.612  0.00  0.00    +0.000 N 
ENDROOT
BRANCH   1   6
ATOM      2  C   UNL     1      18.568  15.856   5.408  0.00  0.00    +0.000 C 
ATOM      3  C   UNL     1      19.255  14.538   5.225  0.00  0.00    +0.000 A 
ATOM      4  C   UNL     1      20.571  14.474   4.780  0.00  0.00    +0.000 A 
ATOM      5  C   UNL     1      21.200  13.234   4.582  0.00  0.00    +0.000 A 
ATOM      6  C   UNL     1      20.547  12.006   4.793  0.00  0.00    +0.000 A 
ATOM      7  C   UNL     1      19.218  12.109   5.245  0.00  0.00    +0.000 A 
ATOM      8  C   UNL     1      18.578  13.342   5.449  0.00  0.00    +0.000 A 
ENDBRANCH   1   6
BRANCH   1   9
ATOM      9  C   UNL     1      20.947   9.664   5.566  0.00  0.00    +0.000 C 
BRANCH   9  10
ATOM     10  C   UNL     1      20.126   8.507   4.947  0.00  0.00    +0.000 C 
ATOM     11  C   UNL     1      20.696   7.154   5.358  0.00  0.00    +0.000 C 
BRANCH  10  12
ATOM     12  O   UNL     1      18.758   8.561   5.372  0.00  0.00    +0.000 OA
ATOM     13  H   UNL     1      18.290   7.805   4.979  0.00  0.00    +0.000 HD
ENDBRANCH  10  12
ENDBRANCH   9  10
ENDBRANCH   1   9
BRANCH   1  14
ATOM     14  C   UNL     1      22.451  10.670   3.839  0.00  0.00    +0.000 C 
BRANCH  14  15
ATOM     15  C   UNL     1      22.203  10.273   2.364  0.00  0.00    +0.000 C 
ATOM     16  C   UNL     1      22.652   8.853   2.042  0.00  0.00    +0.000 C 
BRANCH  15  17
ATOM     17  O   UNL     1      20.826  10.391   2.011  0.00  0.00    +0.000 OA
ATOM     18  H   UNL     1      20.828  10.701   1.083  0.00  0.00    +0.000 HD
ENDBRANCH  15  17
ENDBRANCH  14  15
ENDBRANCH   1  14
TORSDOF 7
ENDMDL
MODEL 6
REMARK VINA RESULT:    -3.435      2.007      4.925
REMARK INTER + INTRA:          -4.956
REMARK INTER:                  -4.598
REMARK INTRA:                  -0.357
REMARK UNBOUND:                -0.316
REMARK  Name = 
REMARK  10 active torsions:
REMARK  status: ('A' for Active; 'I' for Inactive)
REMARK    1  A    between atoms: C_1  and  C_2
REMARK    2  A    between atoms: C_5  and  N_8
REMARK    3  A    between atoms: N_8  and  C_9
REMARK    4  A    between atoms: N_8  and  C_13
REMARK    5  A    between atoms: C_9  and  C_10
REMARK    6  A    between atoms: C_10  and  C_11
REMARK    7  A    between atoms: C_10  and  O_12
REMARK    8  A    between atoms: C_13  and  C_14
REMARK    9  A    between atoms: C_14  and  C_15
REMARK   10  A    between atoms: C_14  and  O_16
REMARK                            x       y       z     vdW  Elec       q    Type
REMARK                         _______ _______ _______ _____ _____    ______ ____
ROOT
ATOM      1  N   UNL     1      20.434  16.299  -4.498  0.00  0.00    +0.000 N 
ENDROOT
BRANCH   1   6
ATOM      2  C   UNL     1      17.834  17.058   0.600  0.00  0.00    +0.000 C 
ATOM      3  C   UNL     1      18.511  16.837  -0.718  0.00  0.00    +0.000 A 
ATOM      4  C   UNL     1      19.887  16.994  -0.849  0.00  0.00    +0.000 A 
ATOM      5  C   UNL     1      20.512  16.815  -2.093  0.00  0.00    +0.000 A 
ATOM      6  C   UNL     1      19.801  16.495  -3.264  0.00  0.00    +0.000 A 
ATOM      7  C   UNL     1      18.413  16.342  -3.094  0.00  0.00    +0.000 A 
ATOM      8  C   UNL     1      17.775  16.516  -1.854  0.00  0.00    +0.000 A 
ENDBRANCH   1   6
BRANCH   1   9
ATOM      9  C   UNL     1      21.914  16.269  -4.578  0.00  0.00    +0.000 C 
BRANCH   9  10
ATOM     10  C   UNL     1      22.471  14.855  -4.876  0.00  0.00    +0.000 C 
ATOM     11  C   UNL     1      21.913  13.832  -3.894  0.00  0.00    +0.000 C 
BRANCH  10  12
ATOM     12  O   UNL     1      22.123  14.434  -6.202  0.00  0.00    +0.000 OA
ATOM     13  H   UNL     1      22.448  13.527  -6.325  0.00  0.00    +0.000 HD
ENDBRANCH  10  12
ENDBRANCH   9  10
ENDBRANCH   1   9
BRANCH   1  14
ATOM     14  C   UNL     1      19.746  16.621  -5.775  0.00  0.00    +0.000 C 
BRANCH  14  15
ATOM     15  C   UNL     1      18.697  15.550  -6.159  0.00  0.00    +0.000 C 
ATOM     16  C   UNL     1      18.334  15.570  -7.639  0.00  0.00    +0.000 C 
BRANCH  15  17
ATOM     17  O   UNL     1      19.140  14.235  -5.830  0.00  0.00    +0.000 OA
ATOM     18  H   UNL     1      18.322  13.731  -5.646  0.00  0.00    +0.000 HD
ENDBRANCH  15  17
ENDBRANCH  14  15
ENDBRANCH   1  14
TORSDOF 7
ENDMDL
MODEL 7
REMARK VINA RESULT:    -3.351      7.874      9.888
REMARK INTER + INTRA:          -4.841
REMARK INTER:                  -4.112
REMARK INTRA:                  -0.729
REMARK UNBOUND:                -0.316
REMARK  Name = 
REMARK  10 active torsions:
REMARK  status: ('A' for Active; 'I' for Inactive)
REMARK    1  A    between atoms: C_1  and  C_2
REMARK    2  A    between atoms: C_5  and  N_8
REMARK    3  A    between atoms: N_8  and  C_9
REMARK    4  A    between atoms: N_8  and  C_13
REMARK    5  A    between atoms: C_9  and  C_10
REMARK    6  A    between atoms: C_10  and  C_11
REMARK    7  A    between atoms: C_10  and  O_12
REMARK    8  A    between atoms: C_13  and  C_14
REMARK    9  A    between atoms: C_14  and  C_15
REMARK   10  A    between atoms: C_14  and  O_16
REMARK                            x       y       z     vdW  Elec       q    Type
REMARK                         _______ _______ _______ _____ _____    ______ ____
ROOT
ATOM      1  N   UNL     1      21.065  13.338   4.799  0.00  0.00    +0.000 N 
ENDROOT
BRANCH   1   6
ATOM      2  C   UNL     1      17.070   9.170   4.799  0.00  0.00    +0.000 C 
ATOM      3  C   UNL     1      18.097  10.261   4.778  0.00  0.00    +0.000 A 
ATOM      4  C   UNL     1      19.323  10.076   4.149  0.00  0.00    +0.000 A 
ATOM      5  C   UNL     1      20.294  11.091   4.158  0.00  0.00    +0.000 A 
ATOM      6  C   UNL     1      20.101  12.322   4.810  0.00  0.00    +0.000 A 
ATOM      7  C   UNL     1      18.849  12.476   5.434  0.00  0.00    +0.000 A 
ATOM      8  C   UNL     1      17.869  11.469   5.430  0.00  0.00    +0.000 A 
ENDBRANCH   1   6
BRANCH   1   9
ATOM      9  C   UNL     1      22.383  13.105   4.159  0.00  0.00    +0.000 C 
BRANCH   9  10
ATOM     10  C   UNL     1      22.447  13.638   2.706  0.00  0.00    +0.000 C 
ATOM     11  C   UNL     1      22.863  12.536   1.739  0.00  0.00    +0.000 C 
BRANCH  10  12
ATOM     12  O   UNL     1      21.171  14.140   2.285  0.00  0.00    +0.000 OA
ATOM     13  H   UNL     1      21.303  15.030   1.920  0.00  0.00    +0.000 HD
ENDBRANCH  10  12
ENDBRANCH   9  10
ENDBRANCH   1   9
BRANCH   1  14
ATOM     14  C   UNL     1      21.045  14.429   5.806  0.00  0.00    +0.000 C 
BRANCH  14  15
ATOM     15  C   UNL     1      20.577  15.774   5.202  0.00  0.00    +0.000 C 
ATOM     16  C   UNL     1      21.731  16.674   4.775  0.00  0.00    +0.000 C 
BRANCH  15  17
ATOM     17  O   UNL     1      19.729  15.578   4.071  0.00  0.00    +0.000 OA
ATOM     18  H   UNL     1      20.113  16.138   3.367  0.00  0.00    +0.000 HD
ENDBRANCH  15  17
ENDBRANCH  14  15
ENDBRANCH   1  14
TORSDOF 7
ENDMDL
MODEL 8
REMARK VINA RESULT:    -3.007      8.214     10.571
REMARK INTER + INTRA:          -4.377
REMARK INTER:                  -3.887
REMARK INTRA:                  -0.490
REMARK UNBOUND:                -0.316
REMARK  Name = 
REMARK  10 active torsions:
REMARK  status: ('A' for Active; 'I' for Inactive)
REMARK    1  A    between atoms: C_1  and  C_2
REMARK    2  A    between atoms: C_5  and  N_8
REMARK    3  A    between atoms: N_8  and  C_9
REMARK    4  A    between atoms: N_8  and  C_13
REMARK    5  A    between atoms: C_9  and  C_10
REMARK    6  A    between atoms: C_10  and  C_11
REMARK    7  A    between atoms: C_10  and  O_12
REMARK    8  A    between atoms: C_13  and  C_14
REMARK    9  A    between atoms: C_14  and  C_15
REMARK   10  A    between atoms: C_14  and  O_16
REMARK                            x       y       z     vdW  Elec       q    Type
REMARK                         _______ _______ _______ _____ _____    ______ ____
ROOT
ATOM      1  N   UNL     1      20.196  10.014   4.546  0.00  0.00    +0.000 N 
ENDROOT
BRANCH   1   6
ATOM      2  C   UNL     1      23.033  14.003   1.485  0.00  0.00    +0.000 C 
ATOM      3  C   UNL     1      22.276  12.971   2.265  0.00  0.00    +0.000 A 
ATOM      4  C   UNL     1      21.559  13.321   3.404  0.00  0.00    +0.000 A 
ATOM      5  C   UNL     1      20.876  12.345   4.148  0.00  0.00    +0.000 A 
ATOM      6  C   UNL     1      20.895  10.979   3.810  0.00  0.00    +0.000 A 
ATOM      7  C   UNL     1      21.629  10.663   2.652  0.00  0.00    +0.000 A 
ATOM      8  C   UNL     1      22.314  11.629   1.898  0.00  0.00    +0.000 A 
ENDBRANCH   1   6
BRANCH   1   9
ATOM      9  C   UNL     1      20.933   9.065   5.415  0.00  0.00    +0.000 C 
BRANCH   9  10
ATOM     10  C   UNL     1      21.009   7.639   4.817  0.00  0.00    +0.000 C 
ATOM     11  C   UNL     1      22.406   7.052   4.981  0.00  0.00    +0.000 C 
BRANCH  10  12
ATOM     12  O   UNL     1      20.079   6.759   5.465  0.00  0.00    +0.000 OA
ATOM     13  H   UNL     1      20.423   5.853   5.396  0.00  0.00    +0.000 HD
ENDBRANCH  10  12
ENDBRANCH   9  10
ENDBRANCH   1   9
BRANCH   1  14
ATOM     14  C   UNL     1      18.845   9.559   4.130  0.00  0.00    +0.000 C 
BRANCH  14  15
ATOM     15  C   UNL     1      17.793   9.754   5.248  0.00  0.00    +0.000 C 
ATOM     16  C   UNL     1      17.414  11.214   5.467  0.00  0.00    +0.000 C 
BRANCH  15  17
ATOM     17  O   UNL     1      16.597   9.024   4.980  0.00  0.00    +0.000 OA
ATOM     18  H   UNL     1      16.895   8.208   4.528  0.00  0.00    +0.000 HD
ENDBRANCH  15  17
ENDBRANCH  14  15
ENDBRANCH   1  14
TORSDOF 7
ENDMDL
