MODEL 1
REMARK VINA RESULT:    -3.063      0.000      0.000
REMARK INTER + INTRA:          -3.376
REMARK INTER:                  -3.331
REMARK INTRA:                  -0.044
REMARK UNBOUND:                -0.044
REMARK  Name = 
REMARK  3 active torsions:
REMARK  status: ('A' for Active; 'I' for Inactive)
REMARK    1  A    between atoms: C_1  and  O_2
REMARK    2  A    between atoms: O_2  and  C_3
REMARK    3  A    between atoms: C_8  and  O_9
REMARK                            x       y       z     vdW  Elec       q    Type
REMARK                         _______ _______ _______ _____ _____    ______ ____
ROOT
ATOM      1  C   UNL     1       5.173  12.228  10.023  0.00  0.00    +0.000 A 
ATOM      2  C   UNL     1       6.354  12.587  10.670  0.00  0.00    +0.000 A 
ATOM      3  C   UNL     1       7.465  12.996   9.922  0.00  0.00    +0.000 A 
ATOM      4  C   UNL     1       7.400  13.047   8.528  0.00  0.00    +0.000 A 
ATOM      5  C   UNL     1       6.223  12.691   7.874  0.00  0.00    +0.000 A 
ATOM      6  C   UNL     1       5.126  12.286   8.624  0.00  0.00    +0.000 A 
ENDROOT
BRANCH   1   8
ATOM      7  C   UNL     1       4.155  10.931  11.735  0.00  0.00    +0.000 C 
ATOM      8  O   UNL     1       4.013  11.810  10.625  0.00  0.00    +0.000 OA
ENDBRANCH   1   8
BRANCH   6   9
ATOM      9  O   UNL     1       3.980  11.940   7.959  0.00  0.00    +0.000 OA
ATOM     10  H   UNL     1       3.257  12.301   8.507  0.00  0.00    +0.000 HD
ENDBRANCH   6   9
TORSDOF 2
ENDMDL
MODEL 2
REMARK VINA RESULT:    -3.004      1.426      3.339
REMARK INTER + INTRA:          -3.311
REMARK INTER:                  -3.265
REMARK INTRA:                  -0.046
REMARK UNBOUND:                -0.044
REMARK  Name = 
REMARK  3 active torsions:
REMARK  status: ('A' for Active; 'I' for Inactive)
REMARK    1  A    between atoms: C_1  and  O_2
REMARK    2  A    between atoms: O_2  and  C_3
REMARK    3  A    between atoms: C_8  and  O_9
REMARK                            x       y       z     vdW  Elec       q    Type
REMARK                         _______ _______ _______ _____ _____    ______ ____
ROOT
ATOM      1  C   UNL     1       6.541  12.686   7.920  0.00  0.00    +0.000 A 
ATOM      2  C   UNL     1       7.423  13.169   8.886  0.00  0.00    +0.000 A 
ATOM      3  C   UNL     1       7.095  13.072  10.244  0.00  0.00    +0.000 A 
ATOM      4  C   UNL     1       5.888  12.494  10.641  0.00  0.00    +0.000 A 
ATOM      5  C   UNL     1       5.002  12.008   9.682  0.00  0.00    +0.000 A 
ATOM      6  C   UNL     1       5.335  12.109   8.338  0.00  0.00    +0.000 A 
ENDROOT
BRANCH   1   8
ATOM      7  C   UNL     1       7.235  13.930   6.018  0.00  0.00    +0.000 C 
ATOM      8  O   UNL     1       6.731  12.716   6.562  0.00  0.00    +0.000 OA
ENDBRANCH   1   8
BRANCH   6   9
ATOM      9  O   UNL     1       4.448  11.625   7.414  0.00  0.00    +0.000 OA
ATOM     10  H   UNL     1       4.597  12.170   6.617  0.00  0.00    +0.000 HD
ENDBRANCH   6   9
TORSDOF 2
ENDMDL
MODEL 3
REMARK VINA RESULT:    -2.986      9.114     10.738
REMARK INTER + INTRA:          -3.293
REMARK INTER:                  -3.243
REMARK INTRA:                  -0.050
REMARK UNBOUND:                -0.044
REMARK  Name = 
REMARK  3 active torsions:
REMARK  status: ('A' for Active; 'I' for Inactive)
REMARK    1  A    between atoms: C_1  and  O_2
REMARK    2  A    between atoms: O_2  and  C_3
REMARK    3  A    between atoms: C_8  and  O_9
REMARK                            x       y       z     vdW  Elec       q    Type
REMARK                         _______ _______ _______ _____ _____    ______ ____
ROOT
ATOM      1  C   UNL     1       4.192  16.304   0.358  0.00  0.00    +0.000 A 
ATOM      2  C   UNL     1       4.230  17.552  -0.264  0.00  0.00    +0.000 A 
ATOM      3  C   UNL     1       3.132  17.994  -1.012  0.00  0.00    +0.000 A 
ATOM      4  C   UNL     1       1.996  17.193  -1.143  0.00  0.00    +0.000 A 
ATOM      5  C   UNL     1       1.950  15.946  -0.525  0.00  0.00    +0.000 A 
ATOM      6  C   UNL     1       3.044  15.515   0.215  0.00  0.00    +0.000 A 
ENDROOT
BRANCH   1   8
ATOM      7  C   UNL     1       5.693  16.538   2.185  0.00  0.00    +0.000 C 
ATOM      8  O   UNL     1       5.190  15.746   1.116  0.00  0.00    +0.000 OA
ENDBRANCH   1   8
BRANCH   6   9
ATOM      9  O   UNL     1       2.976  14.285   0.814  0.00  0.00    +0.000 OA
ATOM     10  H   UNL     1       3.194  14.452   1.750  0.00  0.00    +0.000 HD
ENDBRANCH   6   9
TORSDOF 2
ENDMDL
MODEL 4
REMARK VINA RESULT:    -2.961      9.661     10.872
REMARK INTER + INTRA:          -3.266
REMARK INTER:                  -3.220
REMARK INTRA:                  -0.045
REMARK UNBOUND:                -0.044
REMARK  Name = 
REMARK  3 active torsions:
REMARK  status: ('A' for Active; 'I' for Inactive)
REMARK    1  A    between atoms: C_1  and  O_2
REMARK    2  A    between atoms: O_2  and  C_3
REMARK    3  A    between atoms: C_8  and  O_9
REMARK                            x       y       z     vdW  Elec       q    Type
REMARK                         _______ _______ _______ _____ _____    ______ ____
ROOT
ATOM      1  C   UNL     1       3.193  16.807  -0.074  0.00  0.00    +0.000 A 
ATOM      2  C   UNL     1       3.917  17.946  -0.422  0.00  0.00    +0.000 A 
ATOM      3  C   UNL     1       5.309  17.964  -0.267  0.00  0.00    +0.000 A 
ATOM      4  C   UNL     1       5.980  16.848   0.235  0.00  0.00    +0.000 A 
ATOM      5  C   UNL     1       5.263  15.706   0.585  0.00  0.00    +0.000 A 
ATOM      6  C   UNL     1       3.883  15.697   0.428  0.00  0.00    +0.000 A 
ENDROOT
BRANCH   1   8
ATOM      7  C   UNL     1       1.306  16.480  -1.481  0.00  0.00    +0.000 C 
ATOM      8  O   UNL     1       1.833  16.649  -0.171  0.00  0.00    +0.000 OA
ENDBRANCH   1   8
BRANCH   6   9
ATOM      9  O   UNL     1       3.200  14.563   0.779  0.00  0.00    +0.000 OA
ATOM     10  H   UNL     1       3.805  14.084   1.378  0.00  0.00    +0.000 HD
ENDBRANCH   6   9
TORSDOF 2
ENDMDL
MODEL 5
REMARK VINA RESULT:    -2.949      9.863     11.317
REMARK INTER + INTRA:          -3.252
REMARK INTER:                  -3.200
REMARK INTRA:                  -0.051
REMARK UNBOUND:                -0.044
REMARK  Name = 
REMARK  3 active torsions:
REMARK  status: ('A' for Active; 'I' for Inactive)
REMARK    1  A    between atoms: C_1  and  O_2
REMARK    2  A    between atoms: O_2  and  C_3
REMARK    3  A    between atoms: C_8  and  O_9
REMARK                            x       y       z     vdW  Elec       q    Type
REMARK                         _______ _______ _______ _____ _____    ______ ____
ROOT
ATOM      1  C   UNL     1       3.906  17.115  -0.010  0.00  0.00    +0.000 A 
ATOM      2  C   UNL     1       2.931  17.592  -0.885  0.00  0.00    +0.000 A 
ATOM      3  C   UNL     1       1.843  16.781  -1.230  0.00  0.00    +0.000 A 
ATOM      4  C   UNL     1       1.725  15.493  -0.704  0.00  0.00    +0.000 A 
ATOM      5  C   UNL     1       2.695  15.009   0.171  0.00  0.00    +0.000 A 
ATOM      6  C   UNL     1       3.771  15.820   0.507  0.00  0.00    +0.000 A 
ENDROOT
BRANCH   1   8
ATOM      7  C   UNL     1       5.916  18.238  -0.600  0.00  0.00    +0.000 C 
ATOM      8  O   UNL     1       5.020  17.795   0.413  0.00  0.00    +0.000 OA
ENDBRANCH   1   8
BRANCH   6   9
ATOM      9  O   UNL     1       4.712  15.322   1.369  0.00  0.00    +0.000 OA
ATOM     10  H   UNL     1       5.451  15.044   0.796  0.00  0.00    +0.000 HD
ENDBRANCH   6   9
TORSDOF 2
ENDMDL
MODEL 6
REMARK VINA RESULT:    -2.939      3.407      4.612
REMARK INTER + INTRA:          -3.241
REMARK INTER:                  -3.198
REMARK INTRA:                  -0.043
REMARK UNBOUND:                -0.044
REMARK  Name = 
REMARK  3 active torsions:
REMARK  status: ('A' for Active; 'I' for Inactive)
REMARK    1  A    between atoms: C_1  and  O_2
REMARK    2  A    between atoms: O_2  and  C_3
REMARK    3  A    between atoms: C_8  and  O_9
REMARK                            x       y       z     vdW  Elec       q    Type
REMARK                         _______ _______ _______ _____ _____    ______ ____
ROOT
ATOM      1  C   UNL     1       6.874  13.950   6.693  0.00  0.00    +0.000 A 
ATOM      2  C   UNL     1       6.340  15.194   7.031  0.00  0.00    +0.000 A 
ATOM      3  C   UNL     1       6.048  16.125   6.027  0.00  0.00    +0.000 A 
ATOM      4  C   UNL     1       6.288  15.820   4.686  0.00  0.00    +0.000 A 
ATOM      5  C   UNL     1       6.821  14.580   4.341  0.00  0.00    +0.000 A 
ATOM      6  C   UNL     1       7.108  13.662   5.343  0.00  0.00    +0.000 A 
ENDROOT
BRANCH   1   8
ATOM      7  C   UNL     1       7.773  13.348   8.809  0.00  0.00    +0.000 C 
ATOM      8  O   UNL     1       7.207  12.947   7.567  0.00  0.00    +0.000 OA
ENDBRANCH   1   8
BRANCH   6   9
ATOM      9  O   UNL     1       7.631  12.450   4.979  0.00  0.00    +0.000 OA
ATOM     10  H   UNL     1       7.146  11.797   5.520  0.00  0.00    +0.000 HD
ENDBRANCH   6   9
TORSDOF 2
ENDMDL
MODEL 7
REMARK VINA RESULT:    -2.911     19.097     19.398
REMARK INTER + INTRA:          -3.211
REMARK INTER:                  -3.158
REMARK INTRA:                  -0.053
REMARK UNBOUND:                -0.044
REMARK  Name = 
REMARK  3 active torsions:
REMARK  status: ('A' for Active; 'I' for Inactive)
REMARK    1  A    between atoms: C_1  and  O_2
REMARK    2  A    between atoms: O_2  and  C_3
REMARK    3  A    between atoms: C_8  and  O_9
REMARK                            x       y       z     vdW  Elec       q    Type
REMARK                         _______ _______ _______ _____ _____    ______ ____
ROOT
ATOM      1  C   UNL     1       5.431  18.498  -8.388  0.00  0.00    +0.000 A 
ATOM      2  C   UNL     1       4.287  19.219  -8.047  0.00  0.00    +0.000 A 
ATOM      3  C   UNL     1       3.025  18.620  -8.155  0.00  0.00    +0.000 A 
ATOM      4  C   UNL     1       2.902  17.304  -8.604  0.00  0.00    +0.000 A 
ATOM      5  C   UNL     1       4.040  16.578  -8.947  0.00  0.00    +0.000 A 
ATOM      6  C   UNL     1       5.287  17.179  -8.837  0.00  0.00    +0.000 A 
ENDROOT
BRANCH   1   8
ATOM      7  C   UNL     1       7.065  20.002  -9.233  0.00  0.00    +0.000 C 
ATOM      8  O   UNL     1       6.723  18.955  -8.333  0.00  0.00    +0.000 OA
ENDBRANCH   1   8
BRANCH   6   9
ATOM      9  O   UNL     1       6.391  16.445  -9.179  0.00  0.00    +0.000 OA
ATOM     10  H   UNL     1       6.612  16.737 -10.085  0.00  0.00    +0.000 HD
ENDBRANCH   6   9
TORSDOF 2
ENDMDL
MODEL 8
REMARK VINA RESULT:    -2.825      3.788      5.538
REMARK INTER + INTRA:          -3.117
REMARK INTER:                  -3.067
REMARK INTRA:                  -0.050
REMARK UNBOUND:                -0.044
REMARK  Name = 
REMARK  3 active torsions:
REMARK  status: ('A' for Active; 'I' for Inactive)
REMARK    1  A    between atoms: C_1  and  O_2
REMARK    2  A    between atoms: O_2  and  C_3
REMARK    3  A    between atoms: C_8  and  O_9
REMARK                            x       y       z     vdW  Elec       q    Type
REMARK                         _______ _______ _______ _____ _____    ______ ____
ROOT
ATOM      1  C   UNL     1       6.922  14.825   5.432  0.00  0.00    +0.000 A 
ATOM      2  C   UNL     1       6.270  15.688   6.312  0.00  0.00    +0.000 A 
ATOM      3  C   UNL     1       5.902  15.240   7.587  0.00  0.00    +0.000 A 
ATOM      4  C   UNL     1       6.184  13.932   7.986  0.00  0.00    +0.000 A 
ATOM      5  C   UNL     1       6.836  13.065   7.113  0.00  0.00    +0.000 A 
ATOM      6  C   UNL     1       7.196  13.517   5.850  0.00  0.00    +0.000 A 
ENDROOT
BRANCH   1   8
ATOM      7  C   UNL     1       6.347  15.631   3.272  0.00  0.00    +0.000 C 
ATOM      8  O   UNL     1       7.338  15.127   4.160  0.00  0.00    +0.000 OA
ENDBRANCH   1   8
BRANCH   6   9
ATOM      9  O   UNL     1       7.836  12.646   5.009  0.00  0.00    +0.000 OA
ATOM     10  H   UNL     1       8.182  13.206   4.288  0.00  0.00    +0.000 HD
ENDBRANCH   6   9
TORSDOF 2
ENDMDL
MODEL 9
REMARK VINA RESULT:    -2.768      5.513      7.211
REMARK INTER + INTRA:          -3.055
REMARK INTER:                  -3.017
REMARK INTRA:                  -0.038
REMARK UNBOUND:                -0.044
REMARK  Name = 
REMARK  3 active torsions:
REMARK  status: ('A' for Active; 'I' for Inactive)
REMARK    1  A    between atoms: C_1  and  O_2
REMARK    2  A    between atoms: O_2  and  C_3
REMARK    3  A    between atoms: C_8  and  O_9
REMARK                            x       y       z     vdW  Elec       q    Type
REMARK                         _______ _______ _______ _____ _____    ______ ____
ROOT
ATOM      1  C   UNL     1       6.763  15.797   3.530  0.00  0.00    +0.000 A 
ATOM      2  C   UNL     1       7.528  16.904   3.896  0.00  0.00    +0.000 A 
ATOM      3  C   UNL     1       8.356  16.841   5.024  0.00  0.00    +0.000 A 
ATOM      4  C   UNL     1       8.422  15.675   5.789  0.00  0.00    +0.000 A 
ATOM      5  C   UNL     1       7.661  14.564   5.430  0.00  0.00    +0.000 A 
ATOM      6  C   UNL     1       6.843  14.636   4.310  0.00  0.00    +0.000 A 
ENDROOT
BRANCH   1   8
ATOM      7  C   UNL     1       6.033  16.740   1.475  0.00  0.00    +0.000 C 
ATOM      8  O   UNL     1       5.913  15.717   2.457  0.00  0.00    +0.000 OA
ENDBRANCH   1   8
BRANCH   6   9
ATOM      9  O   UNL     1       6.105  13.532   3.976  0.00  0.00    +0.000 OA
ATOM     10  H   UNL     1       5.893  13.107   4.830  0.00  0.00    +0.000 HD
ENDBRANCH   6   9
TORSDOF 2
ENDMDL
