MODEL 1
REMARK VINA RESULT:    -4.244      0.000      0.000
REMARK INTER + INTRA:          -4.655
REMARK INTER:                  -4.616
REMARK INTRA:                  -0.039
REMARK UNBOUND:                -0.039
REMARK  Name = 
REMARK  3 active torsions:
REMARK  status: ('A' for Active; 'I' for Inactive)
REMARK    1  A    between atoms: C_1  and  O_2
REMARK    2  A    between atoms: O_2  and  C_3
REMARK    3  A    between atoms: C_8  and  O_9
REMARK                            x       y       z     vdW  Elec       q    Type
REMARK                         _______ _______ _______ _____ _____    ______ ____
ROOT
ATOM      1  C   UNL     1       2.972  15.890 -13.669  0.00  0.00    +0.000 A 
ATOM      2  C   UNL     1       2.316  16.233 -14.851  0.00  0.00    +0.000 A 
ATOM      3  C   UNL     1       1.398  15.344 -15.424  0.00  0.00    +0.000 A 
ATOM      4  C   UNL     1       1.132  14.114 -14.821  0.00  0.00    +0.000 A 
ATOM      5  C   UNL     1       1.783  13.764 -13.640  0.00  0.00    +0.000 A 
ATOM      6  C   UNL     1       2.693  14.651 -13.078  0.00  0.00    +0.000 A 
ENDROOT
BRANCH   1   8
ATOM      7  C   UNL     1       4.500  17.708 -13.741  0.00  0.00    +0.000 C 
ATOM      8  O   UNL     1       3.892  16.657 -13.000  0.00  0.00    +0.000 OA
ENDBRANCH   1   8
BRANCH   6   9
ATOM      9  O   UNL     1       3.320  14.286 -11.917  0.00  0.00    +0.000 OA
ATOM     10  H   UNL     1       3.978  13.618 -12.190  0.00  0.00    +0.000 HD
ENDBRANCH   6   9
TORSDOF 2
ENDMDL
MODEL 2
REMARK VINA RESULT:    -4.161      2.268      3.565
REMARK INTER + INTRA:          -4.564
REMARK INTER:                  -4.526
REMARK INTRA:                  -0.038
REMARK UNBOUND:                -0.039
REMARK  Name = 
REMARK  3 active torsions:
REMARK  status: ('A' for Active; 'I' for Inactive)
REMARK    1  A    between atoms: C_1  and  O_2
REMARK    2  A    between atoms: O_2  and  C_3
REMARK    3  A    between atoms: C_8  and  O_9
REMARK                            x       y       z     vdW  Elec       q    Type
REMARK                         _______ _______ _______ _____ _____    ______ ____
ROOT
ATOM      1  C   UNL     1       1.451  14.154 -15.034  0.00  0.00    +0.000 A 
ATOM      2  C   UNL     1       2.364  15.105 -15.490  0.00  0.00    +0.000 A 
ATOM      3  C   UNL     1       3.285  15.673 -14.601  0.00  0.00    +0.000 A 
ATOM      4  C   UNL     1       3.297  15.295 -13.257  0.00  0.00    +0.000 A 
ATOM      5  C   UNL     1       2.389  14.345 -12.794  0.00  0.00    +0.000 A 
ATOM      6  C   UNL     1       1.479  13.787 -13.683  0.00  0.00    +0.000 A 
ENDROOT
BRANCH   1   8
ATOM      7  C   UNL     1       0.955  12.480 -16.647  0.00  0.00    +0.000 C 
ATOM      8  O   UNL     1       0.498  13.518 -15.789  0.00  0.00    +0.000 OA
ENDBRANCH   1   8
BRANCH   6   9
ATOM      9  O   UNL     1       0.596  12.856 -13.205  0.00  0.00    +0.000 OA
ATOM     10  H   UNL     1      -0.142  12.862 -13.845  0.00  0.00    +0.000 HD
ENDBRANCH   6   9
TORSDOF 2
ENDMDL
MODEL 3
REMARK VINA RESULT:    -4.141     15.913     16.968
REMARK INTER + INTRA:          -4.542
REMARK INTER:                  -4.493
REMARK INTRA:                  -0.049
REMARK UNBOUND:                -0.039
REMARK  Name = 
REMARK  3 active torsions:
REMARK  status: ('A' for Active; 'I' for Inactive)
REMARK    1  A    between atoms: C_1  and  O_2
REMARK    2  A    between atoms: O_2  and  C_3
REMARK    3  A    between atoms: C_8  and  O_9
REMARK                            x       y       z     vdW  Elec       q    Type
REMARK                         _______ _______ _______ _____ _____    ______ ____
ROOT
ATOM      1  C   UNL     1       3.123  17.850   2.975  0.00  0.00    +0.000 A 
ATOM      2  C   UNL     1       3.639  18.818   3.834  0.00  0.00    +0.000 A 
ATOM      3  C   UNL     1       4.468  19.829   3.333  0.00  0.00    +0.000 A 
ATOM      4  C   UNL     1       4.786  19.875   1.974  0.00  0.00    +0.000 A 
ATOM      5  C   UNL     1       4.274  18.911   1.108  0.00  0.00    +0.000 A 
ATOM      6  C   UNL     1       3.452  17.912   1.615  0.00  0.00    +0.000 A 
ENDROOT
BRANCH   1   8
ATOM      7  C   UNL     1       1.135  17.140   4.065  0.00  0.00    +0.000 C 
ATOM      8  O   UNL     1       2.303  16.807   3.326  0.00  0.00    +0.000 OA
ENDBRANCH   1   8
BRANCH   6   9
ATOM      9  O   UNL     1       2.962  16.975   0.745  0.00  0.00    +0.000 OA
ATOM     10  H   UNL     1       3.388  17.182  -0.109  0.00  0.00    +0.000 HD
ENDBRANCH   6   9
TORSDOF 2
ENDMDL
MODEL 4
REMARK VINA RESULT:    -4.087      3.160      4.319
REMARK INTER + INTRA:          -4.484
REMARK INTER:                  -4.446
REMARK INTRA:                  -0.038
REMARK UNBOUND:                -0.039
REMARK  Name = 
REMARK  3 active torsions:
REMARK  status: ('A' for Active; 'I' for Inactive)
REMARK    1  A    between atoms: C_1  and  O_2
REMARK    2  A    between atoms: O_2  and  C_3
REMARK    3  A    between atoms: C_8  and  O_9
REMARK                            x       y       z     vdW  Elec       q    Type
REMARK                         _______ _______ _______ _____ _____    ______ ____
ROOT
ATOM      1  C   UNL     1       0.466  12.746 -14.592  0.00  0.00    +0.000 A 
ATOM      2  C   UNL     1       1.168  12.616 -15.789  0.00  0.00    +0.000 A 
ATOM      3  C   UNL     1       0.605  11.905 -16.857  0.00  0.00    +0.000 A 
ATOM      4  C   UNL     1      -0.657  11.323 -16.732  0.00  0.00    +0.000 A 
ATOM      5  C   UNL     1      -1.365  11.448 -15.539  0.00  0.00    +0.000 A 
ATOM      6  C   UNL     1      -0.799  12.155 -14.485  0.00  0.00    +0.000 A 
ENDROOT
BRANCH   1   8
ATOM      7  C   UNL     1       1.995  14.293 -13.635  0.00  0.00    +0.000 C 
ATOM      8  O   UNL     1       0.892  13.409 -13.470  0.00  0.00    +0.000 OA
ENDBRANCH   1   8
BRANCH   6   9
ATOM      9  O   UNL     1      -1.514  12.264 -13.323  0.00  0.00    +0.000 OA
ATOM     10  H   UNL     1      -1.112  11.609 -12.721  0.00  0.00    +0.000 HD
ENDBRANCH   6   9
TORSDOF 2
ENDMDL
MODEL 5
REMARK VINA RESULT:    -4.074     15.194     16.123
REMARK INTER + INTRA:          -4.470
REMARK INTER:                  -4.419
REMARK INTRA:                  -0.051
REMARK UNBOUND:                -0.039
REMARK  Name = 
REMARK  3 active torsions:
REMARK  status: ('A' for Active; 'I' for Inactive)
REMARK    1  A    between atoms: C_1  and  O_2
REMARK    2  A    between atoms: O_2  and  C_3
REMARK    3  A    between atoms: C_8  and  O_9
REMARK                            x       y       z     vdW  Elec       q    Type
REMARK                         _______ _______ _______ _____ _____    ______ ____
ROOT
ATOM      1  C   UNL     1       4.035  18.478   1.135  0.00  0.00    +0.000 A 
ATOM      2  C   UNL     1       4.495  19.743   1.497  0.00  0.00    +0.000 A 
ATOM      3  C   UNL     1       4.476  20.136   2.842  0.00  0.00    +0.000 A 
ATOM      4  C   UNL     1       3.998  19.269   3.826  0.00  0.00    +0.000 A 
ATOM      5  C   UNL     1       3.537  18.003   3.472  0.00  0.00    +0.000 A 
ATOM      6  C   UNL     1       3.559  17.622   2.136  0.00  0.00    +0.000 A 
ENDROOT
BRANCH   1   8
ATOM      7  C   UNL     1       3.033  18.527  -1.019  0.00  0.00    +0.000 C 
ATOM      8  O   UNL     1       3.995  17.963  -0.136  0.00  0.00    +0.000 OA
ENDBRANCH   1   8
BRANCH   6   9
ATOM      9  O   UNL     1       3.100  16.373   1.812  0.00  0.00    +0.000 OA
ATOM     10  H   UNL     1       3.806  15.765   2.105  0.00  0.00    +0.000 HD
ENDBRANCH   6   9
TORSDOF 2
ENDMDL
MODEL 6
REMARK VINA RESULT:    -3.973     15.695     16.514
REMARK INTER + INTRA:          -4.360
REMARK INTER:                  -4.309
REMARK INTRA:                  -0.051
REMARK UNBOUND:                -0.039
REMARK  Name = 
REMARK  3 active torsions:
REMARK  status: ('A' for Active; 'I' for Inactive)
REMARK    1  A    between atoms: C_1  and  O_2
REMARK    2  A    between atoms: O_2  and  C_3
REMARK    3  A    between atoms: C_8  and  O_9
REMARK                            x       y       z     vdW  Elec       q    Type
REMARK                         _______ _______ _______ _____ _____    ______ ____
ROOT
ATOM      1  C   UNL     1       4.156  19.056   1.597  0.00  0.00    +0.000 A 
ATOM      2  C   UNL     1       3.809  17.737   1.308  0.00  0.00    +0.000 A 
ATOM      3  C   UNL     1       3.256  16.924   2.305  0.00  0.00    +0.000 A 
ATOM      4  C   UNL     1       3.048  17.425   3.592  0.00  0.00    +0.000 A 
ATOM      5  C   UNL     1       3.392  18.742   3.888  0.00  0.00    +0.000 A 
ATOM      6  C   UNL     1       3.941  19.541   2.893  0.00  0.00    +0.000 A 
ENDROOT
BRANCH   1   8
ATOM      7  C   UNL     1       3.969  20.220  -0.466  0.00  0.00    +0.000 C 
ATOM      8  O   UNL     1       4.705  19.960   0.723  0.00  0.00    +0.000 OA
ENDBRANCH   1   8
BRANCH   6   9
ATOM      9  O   UNL     1       4.271  20.832   3.208  0.00  0.00    +0.000 OA
ATOM     10  H   UNL     1       4.956  21.079   2.558  0.00  0.00    +0.000 HD
ENDBRANCH   6   9
TORSDOF 2
ENDMDL
MODEL 7
REMARK VINA RESULT:    -3.920     14.969     15.879
REMARK INTER + INTRA:          -4.302
REMARK INTER:                  -4.250
REMARK INTRA:                  -0.053
REMARK UNBOUND:                -0.039
REMARK  Name = 
REMARK  3 active torsions:
REMARK  status: ('A' for Active; 'I' for Inactive)
REMARK    1  A    between atoms: C_1  and  O_2
REMARK    2  A    between atoms: O_2  and  C_3
REMARK    3  A    between atoms: C_8  and  O_9
REMARK                            x       y       z     vdW  Elec       q    Type
REMARK                         _______ _______ _______ _____ _____    ______ ____
ROOT
ATOM      1  C   UNL     1       1.958  18.302   1.273  0.00  0.00    +0.000 A 
ATOM      2  C   UNL     1       1.115  18.472   2.371  0.00  0.00    +0.000 A 
ATOM      3  C   UNL     1       1.392  17.812   3.575  0.00  0.00    +0.000 A 
ATOM      4  C   UNL     1       2.508  16.982   3.686  0.00  0.00    +0.000 A 
ATOM      5  C   UNL     1       3.356  16.808   2.595  0.00  0.00    +0.000 A 
ATOM      6  C   UNL     1       3.073  17.466   1.404  0.00  0.00    +0.000 A 
ENDROOT
BRANCH   1   8
ATOM      7  C   UNL     1       0.695  18.453  -0.734  0.00  0.00    +0.000 C 
ATOM      8  O   UNL     1       1.810  18.882   0.039  0.00  0.00    +0.000 OA
ENDBRANCH   1   8
BRANCH   6   9
ATOM      9  O   UNL     1       3.921  17.278   0.345  0.00  0.00    +0.000 OA
ATOM     10  H   UNL     1       4.516  18.052   0.363  0.00  0.00    +0.000 HD
ENDBRANCH   6   9
TORSDOF 2
ENDMDL
MODEL 8
REMARK VINA RESULT:    -3.864     13.990     14.812
REMARK INTER + INTRA:          -4.241
REMARK INTER:                  -4.198
REMARK INTRA:                  -0.044
REMARK UNBOUND:                -0.039
REMARK  Name = 
REMARK  3 active torsions:
REMARK  status: ('A' for Active; 'I' for Inactive)
REMARK    1  A    between atoms: C_1  and  O_2
REMARK    2  A    between atoms: O_2  and  C_3
REMARK    3  A    between atoms: C_8  and  O_9
REMARK                            x       y       z     vdW  Elec       q    Type
REMARK                         _______ _______ _______ _____ _____    ______ ____
ROOT
ATOM      1  C   UNL     1       4.053  19.160   0.806  0.00  0.00    +0.000 A 
ATOM      2  C   UNL     1       4.266  20.374   0.154  0.00  0.00    +0.000 A 
ATOM      3  C   UNL     1       3.597  20.651  -1.045  0.00  0.00    +0.000 A 
ATOM      4  C   UNL     1       2.715  19.718  -1.595  0.00  0.00    +0.000 A 
ATOM      5  C   UNL     1       2.496  18.504  -0.948  0.00  0.00    +0.000 A 
ATOM      6  C   UNL     1       3.165  18.238   0.240  0.00  0.00    +0.000 A 
ENDROOT
BRANCH   1   8
ATOM      7  C   UNL     1       4.826  19.758   2.973  0.00  0.00    +0.000 C 
ATOM      8  O   UNL     1       4.637  18.757   1.980  0.00  0.00    +0.000 OA
ENDBRANCH   1   8
BRANCH   6   9
ATOM      9  O   UNL     1       2.933  17.037   0.856  0.00  0.00    +0.000 OA
ATOM     10  H   UNL     1       3.688  16.920   1.464  0.00  0.00    +0.000 HD
ENDBRANCH   6   9
TORSDOF 2
ENDMDL
