MODEL 1
REMARK VINA RESULT:    -4.210      0.000      0.000
REMARK INTER + INTRA:          -6.290
REMARK INTER:                  -5.686
REMARK INTRA:                  -0.603
REMARK UNBOUND:                -0.603
REMARK  Name = 
REMARK  10 active torsions:
REMARK  status: ('A' for Active; 'I' for Inactive)
REMARK    1  A    between atoms: C_1  and  C_2
REMARK    2  A    between atoms: C_5  and  N_8
REMARK    3  A    between atoms: N_8  and  C_9
REMARK    4  A    between atoms: N_8  and  C_13
REMARK    5  A    between atoms: C_9  and  C_10
REMARK    6  A    between atoms: C_10  and  C_11
REMARK    7  A    between atoms: C_10  and  O_12
REMARK    8  A    between atoms: C_13  and  C_14
REMARK    9  A    between atoms: C_14  and  C_15
REMARK   10  A    between atoms: C_14  and  O_16
REMARK                            x       y       z     vdW  Elec       q    Type
REMARK                         _______ _______ _______ _____ _____    ______ ____
ROOT
ATOM      1  N   UNL     1       0.037  19.219  -8.862  0.00  0.00    +0.000 N 
ENDROOT
BRANCH   1   6
ATOM      2  C   UNL     1      -2.114  14.273 -10.922  0.00  0.00    +0.000 C 
ATOM      3  C   UNL     1      -1.540  15.544 -10.372  0.00  0.00    +0.000 A 
ATOM      4  C   UNL     1      -2.115  16.170  -9.272  0.00  0.00    +0.000 A 
ATOM      5  C   UNL     1      -1.592  17.376  -8.779  0.00  0.00    +0.000 A 
ATOM      6  C   UNL     1      -0.493  18.026  -9.370  0.00  0.00    +0.000 A 
ATOM      7  C   UNL     1       0.064  17.364 -10.479  0.00  0.00    +0.000 A 
ATOM      8  C   UNL     1      -0.448  16.156 -10.980  0.00  0.00    +0.000 A 
ENDBRANCH   1   6
BRANCH   1   9
ATOM      9  C   UNL     1      -0.870  20.289  -8.381  0.00  0.00    +0.000 C 
BRANCH   9  10
ATOM     10  C   UNL     1      -0.306  21.047  -7.154  0.00  0.00    +0.000 C 
ATOM     11  C   UNL     1      -1.287  22.109  -6.671  0.00  0.00    +0.000 C 
BRANCH  10  12
ATOM     12  O   UNL     1      -0.052  20.149  -6.065  0.00  0.00    +0.000 OA
ATOM     13  H   UNL     1      -0.444  19.288  -6.288  0.00  0.00    +0.000 HD
ENDBRANCH  10  12
ENDBRANCH   9  10
ENDBRANCH   1   9
BRANCH   1  14
ATOM     14  C   UNL     1       1.399  19.677  -9.237  0.00  0.00    +0.000 C 
BRANCH  14  15
ATOM     15  C   UNL     1       2.506  18.825  -8.571  0.00  0.00    +0.000 C 
ATOM     16  C   UNL     1       3.913  19.240  -8.986  0.00  0.00    +0.000 C 
BRANCH  15  17
ATOM     17  O   UNL     1       2.430  18.882  -7.147  0.00  0.00    +0.000 OA
ATOM     18  H   UNL     1       2.190  17.974  -6.871  0.00  0.00    +0.000 HD
ENDBRANCH  15  17
ENDBRANCH  14  15
ENDBRANCH   1  14
TORSDOF 7
ENDMDL
MODEL 2
REMARK VINA RESULT:    -4.183      2.032      2.585
REMARK INTER + INTRA:          -6.254
REMARK INTER:                  -5.586
REMARK INTRA:                  -0.668
REMARK UNBOUND:                -0.603
REMARK  Name = 
REMARK  10 active torsions:
REMARK  status: ('A' for Active; 'I' for Inactive)
REMARK    1  A    between atoms: C_1  and  C_2
REMARK    2  A    between atoms: C_5  and  N_8
REMARK    3  A    between atoms: N_8  and  C_9
REMARK    4  A    between atoms: N_8  and  C_13
REMARK    5  A    between atoms: C_9  and  C_10
REMARK    6  A    between atoms: C_10  and  C_11
REMARK    7  A    between atoms: C_10  and  O_12
REMARK    8  A    between atoms: C_13  and  C_14
REMARK    9  A    between atoms: C_14  and  C_15
REMARK   10  A    between atoms: C_14  and  O_16
REMARK                            x       y       z     vdW  Elec       q    Type
REMARK                         _______ _______ _______ _____ _____    ______ ____
ROOT
ATOM      1  N   UNL     1       0.957  18.761 -10.363  0.00  0.00    +0.000 N 
ENDROOT
BRANCH   1   6
ATOM      2  C   UNL     1      -2.391  14.058 -10.312  0.00  0.00    +0.000 C 
ATOM      3  C   UNL     1      -1.507  15.267 -10.308  0.00  0.00    +0.000 A 
ATOM      4  C   UNL     1      -1.770  16.341  -9.464  0.00  0.00    +0.000 A 
ATOM      5  C   UNL     1      -0.956  17.485  -9.486  0.00  0.00    +0.000 A 
ATOM      6  C   UNL     1       0.137  17.625 -10.360  0.00  0.00    +0.000 A 
ATOM      7  C   UNL     1       0.375  16.519 -11.197  0.00  0.00    +0.000 A 
ATOM      8  C   UNL     1      -0.430  15.368 -11.184  0.00  0.00    +0.000 A 
ENDBRANCH   1   6
BRANCH   1   9
ATOM      9  C   UNL     1       0.876  19.739  -9.251  0.00  0.00    +0.000 C 
BRANCH   9  10
ATOM     10  C   UNL     1       1.829  19.397  -8.080  0.00  0.00    +0.000 C 
ATOM     11  C   UNL     1       1.052  18.870  -6.880  0.00  0.00    +0.000 C 
BRANCH  10  12
ATOM     12  O   UNL     1       2.782  18.397  -8.467  0.00  0.00    +0.000 OA
ATOM     13  H   UNL     1       3.326  18.183  -7.691  0.00  0.00    +0.000 HD
ENDBRANCH  10  12
ENDBRANCH   9  10
ENDBRANCH   1   9
BRANCH   1  14
ATOM     14  C   UNL     1       1.522  19.298 -11.627  0.00  0.00    +0.000 C 
BRANCH  14  15
ATOM     15  C   UNL     1       2.983  18.842 -11.854  0.00  0.00    +0.000 C 
ATOM     16  C   UNL     1       3.447  19.010 -13.296  0.00  0.00    +0.000 C 
BRANCH  15  17
ATOM     17  O   UNL     1       3.893  19.549 -11.013  0.00  0.00    +0.000 OA
ATOM     18  H   UNL     1       3.327  20.012 -10.362  0.00  0.00    +0.000 HD
ENDBRANCH  15  17
ENDBRANCH  14  15
ENDBRANCH   1  14
TORSDOF 7
ENDMDL
MODEL 3
REMARK VINA RESULT:    -4.071      0.460      3.188
REMARK INTER + INTRA:          -6.102
REMARK INTER:                  -5.581
REMARK INTRA:                  -0.521
REMARK UNBOUND:                -0.603
REMARK  Name = 
REMARK  10 active torsions:
REMARK  status: ('A' for Active; 'I' for Inactive)
REMARK    1  A    between atoms: C_1  and  C_2
REMARK    2  A    between atoms: C_5  and  N_8
REMARK    3  A    between atoms: N_8  and  C_9
REMARK    4  A    between atoms: N_8  and  C_13
REMARK    5  A    between atoms: C_9  and  C_10
REMARK    6  A    between atoms: C_10  and  C_11
REMARK    7  A    between atoms: C_10  and  O_12
REMARK    8  A    between atoms: C_13  and  C_14
REMARK    9  A    between atoms: C_14  and  C_15
REMARK   10  A    between atoms: C_14  and  O_16
REMARK                            x       y       z     vdW  Elec       q    Type
REMARK                         _______ _______ _______ _____ _____    ______ ____
ROOT
ATOM      1  N   UNL     1       0.025  19.752  -9.018  0.00  0.00    +0.000 N 
ENDROOT
BRANCH   1   6
ATOM      2  C   UNL     1      -1.678  14.582 -10.942  0.00  0.00    +0.000 C 
ATOM      3  C   UNL     1      -1.255  15.934 -10.455  0.00  0.00    +0.000 A 
ATOM      4  C   UNL     1      -0.308  16.679 -11.150  0.00  0.00    +0.000 A 
ATOM      5  C   UNL     1       0.107  17.933 -10.673  0.00  0.00    +0.000 A 
ATOM      6  C   UNL     1      -0.379  18.492  -9.477  0.00  0.00    +0.000 A 
ATOM      7  C   UNL     1      -1.337  17.713  -8.803  0.00  0.00    +0.000 A 
ATOM      8  C   UNL     1      -1.762  16.458  -9.270  0.00  0.00    +0.000 A 
ENDBRANCH   1   6
BRANCH   1   9
ATOM      9  C   UNL     1       1.468  20.071  -8.896  0.00  0.00    +0.000 C 
BRANCH   9  10
ATOM     10  C   UNL     1       2.314  18.858  -8.440  0.00  0.00    +0.000 C 
ATOM     11  C   UNL     1       3.783  19.052  -8.800  0.00  0.00    +0.000 C 
BRANCH  10  12
ATOM     12  O   UNL     1       2.226  18.674  -7.020  0.00  0.00    +0.000 OA
ATOM     13  H   UNL     1       2.949  18.085  -6.747  0.00  0.00    +0.000 HD
ENDBRANCH  10  12
ENDBRANCH   9  10
ENDBRANCH   1   9
BRANCH   1  14
ATOM     14  C   UNL     1      -0.873  20.589  -8.181  0.00  0.00    +0.000 C 
BRANCH  14  15
ATOM     15  C   UNL     1      -0.153  21.146  -6.929  0.00  0.00    +0.000 C 
ATOM     16  C   UNL     1      -0.768  22.440  -6.410  0.00  0.00    +0.000 C 
BRANCH  15  17
ATOM     17  O   UNL     1      -0.147  20.200  -5.861  0.00  0.00    +0.000 OA
ATOM     18  H   UNL     1      -0.815  19.531  -6.112  0.00  0.00    +0.000 HD
ENDBRANCH  15  17
ENDBRANCH  14  15
ENDBRANCH   1  14
TORSDOF 7
ENDMDL
MODEL 4
REMARK VINA RESULT:    -3.988     13.147     16.097
REMARK INTER + INTRA:          -5.990
REMARK INTER:                  -5.427
REMARK INTRA:                  -0.563
REMARK UNBOUND:                -0.603
REMARK  Name = 
REMARK  10 active torsions:
REMARK  status: ('A' for Active; 'I' for Inactive)
REMARK    1  A    between atoms: C_1  and  C_2
REMARK    2  A    between atoms: C_5  and  N_8
REMARK    3  A    between atoms: N_8  and  C_9
REMARK    4  A    between atoms: N_8  and  C_13
REMARK    5  A    between atoms: C_9  and  C_10
REMARK    6  A    between atoms: C_10  and  C_11
REMARK    7  A    between atoms: C_10  and  O_12
REMARK    8  A    between atoms: C_13  and  C_14
REMARK    9  A    between atoms: C_14  and  C_15
REMARK   10  A    between atoms: C_14  and  O_16
REMARK                            x       y       z     vdW  Elec       q    Type
REMARK                         _______ _______ _______ _____ _____    ______ ____
ROOT
ATOM      1  N   UNL     1      15.126  20.806  -3.324  0.00  0.00    +0.000 N 
ENDROOT
BRANCH   1   6
ATOM      2  C   UNL     1       9.654  22.603  -3.722  0.00  0.00    +0.000 C 
ATOM      3  C   UNL     1      11.079  22.156  -3.604  0.00  0.00    +0.000 A 
ATOM      4  C   UNL     1      12.038  22.573  -4.521  0.00  0.00    +0.000 A 
ATOM      5  C   UNL     1      13.366  22.127  -4.423  0.00  0.00    +0.000 A 
ATOM      6  C   UNL     1      13.796  21.232  -3.427  0.00  0.00    +0.000 A 
ATOM      7  C   UNL     1      12.801  20.832  -2.516  0.00  0.00    +0.000 A 
ATOM      8  C   UNL     1      11.470  21.272  -2.602  0.00  0.00    +0.000 A 
ENDBRANCH   1   6
BRANCH   1   9
ATOM      9  C   UNL     1      16.233  21.777  -3.497  0.00  0.00    +0.000 C 
BRANCH   9  10
ATOM     10  C   UNL     1      16.662  22.443  -2.167  0.00  0.00    +0.000 C 
ATOM     11  C   UNL     1      15.924  23.759  -1.953  0.00  0.00    +0.000 C 
BRANCH  10  12
ATOM     12  O   UNL     1      16.379  21.589  -1.049  0.00  0.00    +0.000 OA
ATOM     13  H   UNL     1      15.594  21.060  -1.266  0.00  0.00    +0.000 HD
ENDBRANCH  10  12
ENDBRANCH   9  10
ENDBRANCH   1   9
BRANCH   1  14
ATOM     14  C   UNL     1      15.500  19.387  -3.552  0.00  0.00    +0.000 C 
BRANCH  14  15
ATOM     15  C   UNL     1      16.737  19.249  -4.472  0.00  0.00    +0.000 C 
ATOM     16  C   UNL     1      17.861  18.433  -3.845  0.00  0.00    +0.000 C 
BRANCH  15  17
ATOM     17  O   UNL     1      16.400  18.650  -5.722  0.00  0.00    +0.000 OA
ATOM     18  H   UNL     1      15.700  19.222  -6.096  0.00  0.00    +0.000 HD
ENDBRANCH  15  17
ENDBRANCH  14  15
ENDBRANCH   1  14
TORSDOF 7
ENDMDL
MODEL 5
REMARK VINA RESULT:    -3.956     10.006     12.888
REMARK INTER + INTRA:          -5.947
REMARK INTER:                  -5.269
REMARK INTRA:                  -0.678
REMARK UNBOUND:                -0.603
REMARK  Name = 
REMARK  10 active torsions:
REMARK  status: ('A' for Active; 'I' for Inactive)
REMARK    1  A    between atoms: C_1  and  C_2
REMARK    2  A    between atoms: C_5  and  N_8
REMARK    3  A    between atoms: N_8  and  C_9
REMARK    4  A    between atoms: N_8  and  C_13
REMARK    5  A    between atoms: C_9  and  C_10
REMARK    6  A    between atoms: C_10  and  C_11
REMARK    7  A    between atoms: C_10  and  O_12
REMARK    8  A    between atoms: C_13  and  C_14
REMARK    9  A    between atoms: C_14  and  C_15
REMARK   10  A    between atoms: C_14  and  O_16
REMARK                            x       y       z     vdW  Elec       q    Type
REMARK                         _______ _______ _______ _____ _____    ______ ____
ROOT
ATOM      1  N   UNL     1       7.735  22.971  -1.397  0.00  0.00    +0.000 N 
ENDROOT
BRANCH   1   6
ATOM      2  C   UNL     1      13.088  21.170  -2.590  0.00  0.00    +0.000 C 
ATOM      3  C   UNL     1      11.695  21.641  -2.305  0.00  0.00    +0.000 A 
ATOM      4  C   UNL     1      11.439  22.977  -2.012  0.00  0.00    +0.000 A 
ATOM      5  C   UNL     1      10.135  23.407  -1.716  0.00  0.00    +0.000 A 
ATOM      6  C   UNL     1       9.035  22.532  -1.674  0.00  0.00    +0.000 A 
ATOM      7  C   UNL     1       9.331  21.190  -1.977  0.00  0.00    +0.000 A 
ATOM      8  C   UNL     1      10.630  20.746  -2.277  0.00  0.00    +0.000 A 
ENDBRANCH   1   6
BRANCH   1   9
ATOM      9  C   UNL     1       7.459  23.746  -0.163  0.00  0.00    +0.000 C 
BRANCH   9  10
ATOM     10  C   UNL     1       7.660  22.912   1.126  0.00  0.00    +0.000 C 
ATOM     11  C   UNL     1       8.241  23.770   2.244  0.00  0.00    +0.000 C 
BRANCH  10  12
ATOM     12  O   UNL     1       6.416  22.366   1.585  0.00  0.00    +0.000 OA
ATOM     13  H   UNL     1       5.753  23.076   1.574  0.00  0.00    +0.000 HD
ENDBRANCH  10  12
ENDBRANCH   9  10
ENDBRANCH   1   9
BRANCH   1  14
ATOM     14  C   UNL     1       6.552  22.293  -1.986  0.00  0.00    +0.000 C 
BRANCH  14  15
ATOM     15  C   UNL     1       5.224  22.974  -1.577  0.00  0.00    +0.000 C 
ATOM     16  C   UNL     1       4.377  23.402  -2.770  0.00  0.00    +0.000 C 
BRANCH  15  17
ATOM     17  O   UNL     1       4.427  22.124  -0.753  0.00  0.00    +0.000 OA
ATOM     18  H   UNL     1       4.252  21.332  -1.300  0.00  0.00    +0.000 HD
ENDBRANCH  15  17
ENDBRANCH  14  15
ENDBRANCH   1  14
TORSDOF 7
ENDMDL
MODEL 6
REMARK VINA RESULT:    -3.943     10.080     12.713
REMARK INTER + INTRA:          -5.929
REMARK INTER:                  -5.231
REMARK INTRA:                  -0.699
REMARK UNBOUND:                -0.603
REMARK  Name = 
REMARK  10 active torsions:
REMARK  status: ('A' for Active; 'I' for Inactive)
REMARK    1  A    between atoms: C_1  and  C_2
REMARK    2  A    between atoms: C_5  and  N_8
REMARK    3  A    between atoms: N_8  and  C_9
REMARK    4  A    between atoms: N_8  and  C_13
REMARK    5  A    between atoms: C_9  and  C_10
REMARK    6  A    between atoms: C_10  and  C_11
REMARK    7  A    between atoms: C_10  and  O_12
REMARK    8  A    between atoms: C_13  and  C_14
REMARK    9  A    between atoms: C_14  and  C_15
REMARK   10  A    between atoms: C_14  and  O_16
REMARK                            x       y       z     vdW  Elec       q    Type
REMARK                         _______ _______ _______ _____ _____    ______ ____
ROOT
ATOM      1  N   UNL     1       7.106  23.330  -0.518  0.00  0.00    +0.000 N 
ENDROOT
BRANCH   1   6
ATOM      2  C   UNL     1      11.973  21.602  -3.097  0.00  0.00    +0.000 C 
ATOM      3  C   UNL     1      10.703  22.062  -2.449  0.00  0.00    +0.000 A 
ATOM      4  C   UNL     1      10.659  23.253  -1.731  0.00  0.00    +0.000 A 
ATOM      5  C   UNL     1       9.473  23.664  -1.100  0.00  0.00    +0.000 A 
ATOM      6  C   UNL     1       8.290  22.904  -1.133  0.00  0.00    +0.000 A 
ATOM      7  C   UNL     1       8.371  21.708  -1.870  0.00  0.00    +0.000 A 
ATOM      8  C   UNL     1       9.549  21.286  -2.508  0.00  0.00    +0.000 A 
ENDBRANCH   1   6
BRANCH   1   9
ATOM      9  C   UNL     1       6.010  23.907  -1.334  0.00  0.00    +0.000 C 
BRANCH   9  10
ATOM     10  C   UNL     1       4.611  23.404  -0.902  0.00  0.00    +0.000 C 
ATOM     11  C   UNL     1       3.575  23.677  -1.985  0.00  0.00    +0.000 C 
BRANCH  10  12
ATOM     12  O   UNL     1       4.628  21.992  -0.649  0.00  0.00    +0.000 OA
ATOM     13  H   UNL     1       3.797  21.756  -0.203  0.00  0.00    +0.000 HD
ENDBRANCH  10  12
ENDBRANCH   9  10
ENDBRANCH   1   9
BRANCH   1  14
ATOM     14  C   UNL     1       7.078  23.704   0.919  0.00  0.00    +0.000 C 
BRANCH  14  15
ATOM     15  C   UNL     1       7.217  22.472   1.846  0.00  0.00    +0.000 C 
ATOM     16  C   UNL     1       7.885  22.795   3.177  0.00  0.00    +0.000 C 
BRANCH  15  17
ATOM     17  O   UNL     1       5.951  21.874   2.121  0.00  0.00    +0.000 OA
ATOM     18  H   UNL     1       5.399  22.601   2.474  0.00  0.00    +0.000 HD
ENDBRANCH  15  17
ENDBRANCH  14  15
ENDBRANCH   1  14
TORSDOF 7
ENDMDL
MODEL 7
REMARK VINA RESULT:    -3.930      1.514      3.194
REMARK INTER + INTRA:          -5.912
REMARK INTER:                  -5.250
REMARK INTRA:                  -0.662
REMARK UNBOUND:                -0.603
REMARK  Name = 
REMARK  10 active torsions:
REMARK  status: ('A' for Active; 'I' for Inactive)
REMARK    1  A    between atoms: C_1  and  C_2
REMARK    2  A    between atoms: C_5  and  N_8
REMARK    3  A    between atoms: N_8  and  C_9
REMARK    4  A    between atoms: N_8  and  C_13
REMARK    5  A    between atoms: C_9  and  C_10
REMARK    6  A    between atoms: C_10  and  C_11
REMARK    7  A    between atoms: C_10  and  O_12
REMARK    8  A    between atoms: C_13  and  C_14
REMARK    9  A    between atoms: C_14  and  C_15
REMARK   10  A    between atoms: C_14  and  O_16
REMARK                            x       y       z     vdW  Elec       q    Type
REMARK                         _______ _______ _______ _____ _____    ______ ____
ROOT
ATOM      1  N   UNL     1       0.471  18.988  -9.479  0.00  0.00    +0.000 N 
ENDROOT
BRANCH   1   6
ATOM      2  C   UNL     1      -2.198  14.014 -10.688  0.00  0.00    +0.000 C 
ATOM      3  C   UNL     1      -1.490  15.292 -10.358  0.00  0.00    +0.000 A 
ATOM      4  C   UNL     1      -1.943  16.116  -9.333  0.00  0.00    +0.000 A 
ATOM      5  C   UNL     1      -1.293  17.328  -9.048  0.00  0.00    +0.000 A 
ATOM      6  C   UNL     1      -0.184  17.787  -9.781  0.00  0.00    +0.000 A 
ATOM      7  C   UNL     1       0.247  16.929 -10.809  0.00  0.00    +0.000 A 
ATOM      8  C   UNL     1      -0.392  15.713 -11.102  0.00  0.00    +0.000 A 
ENDBRANCH   1   6
BRANCH   1   9
ATOM      9  C   UNL     1       1.253  19.692 -10.524  0.00  0.00    +0.000 C 
BRANCH   9  10
ATOM     10  C   UNL     1       2.776  19.435 -10.410  0.00  0.00    +0.000 C 
ATOM     11  C   UNL     1       3.374  19.092 -11.769  0.00  0.00    +0.000 C 
BRANCH  10  12
ATOM     12  O   UNL     1       3.456  20.591  -9.903  0.00  0.00    +0.000 OA
ATOM     13  H   UNL     1       4.005  20.313  -9.151  0.00  0.00    +0.000 HD
ENDBRANCH  10  12
ENDBRANCH   9  10
ENDBRANCH   1   9
BRANCH   1  14
ATOM     14  C   UNL     1       0.847  19.329  -8.083  0.00  0.00    +0.000 C 
BRANCH  14  15
ATOM     15  C   UNL     1       0.568  20.814  -7.749  0.00  0.00    +0.000 C 
ATOM     16  C   UNL     1      -0.434  20.996  -6.615  0.00  0.00    +0.000 C 
BRANCH  15  17
ATOM     17  O   UNL     1       1.763  21.509  -7.397  0.00  0.00    +0.000 OA
ATOM     18  H   UNL     1       2.458  20.820  -7.370  0.00  0.00    +0.000 HD
ENDBRANCH  15  17
ENDBRANCH  14  15
ENDBRANCH   1  14
TORSDOF 7
ENDMDL
MODEL 8
REMARK VINA RESULT:    -3.919     12.467     14.422
REMARK INTER + INTRA:          -5.897
REMARK INTER:                  -5.417
REMARK INTRA:                  -0.480
REMARK UNBOUND:                -0.603
REMARK  Name = 
REMARK  10 active torsions:
REMARK  status: ('A' for Active; 'I' for Inactive)
REMARK    1  A    between atoms: C_1  and  C_2
REMARK    2  A    between atoms: C_5  and  N_8
REMARK    3  A    between atoms: N_8  and  C_9
REMARK    4  A    between atoms: N_8  and  C_13
REMARK    5  A    between atoms: C_9  and  C_10
REMARK    6  A    between atoms: C_10  and  C_11
REMARK    7  A    between atoms: C_10  and  O_12
REMARK    8  A    between atoms: C_13  and  C_14
REMARK    9  A    between atoms: C_14  and  C_15
REMARK   10  A    between atoms: C_14  and  O_16
REMARK                            x       y       z     vdW  Elec       q    Type
REMARK                         _______ _______ _______ _____ _____    ______ ____
ROOT
ATOM      1  N   UNL     1      13.037  22.241  -2.752  0.00  0.00    +0.000 N 
ENDROOT
BRANCH   1   6
ATOM      2  C   UNL     1       7.494  22.232  -1.141  0.00  0.00    +0.000 C 
ATOM      3  C   UNL     1       8.939  22.229  -1.535  0.00  0.00    +0.000 A 
ATOM      4  C   UNL     1       9.687  23.401  -1.515  0.00  0.00    +0.000 A 
ATOM      5  C   UNL     1      11.034  23.398  -1.915  0.00  0.00    +0.000 A 
ATOM      6  C   UNL     1      11.689  22.241  -2.373  0.00  0.00    +0.000 A 
ATOM      7  C   UNL     1      10.903  21.074  -2.379  0.00  0.00    +0.000 A 
ATOM      8  C   UNL     1       9.556  21.063  -1.980  0.00  0.00    +0.000 A 
ENDBRANCH   1   6
BRANCH   1   9
ATOM      9  C   UNL     1      13.475  23.007  -3.944  0.00  0.00    +0.000 C 
BRANCH   9  10
ATOM     10  C   UNL     1      12.595  22.733  -5.189  0.00  0.00    +0.000 C 
ATOM     11  C   UNL     1      11.720  23.938  -5.513  0.00  0.00    +0.000 C 
BRANCH  10  12
ATOM     12  O   UNL     1      13.404  22.449  -6.338  0.00  0.00    +0.000 OA
ATOM     13  H   UNL     1      14.331  22.625  -6.105  0.00  0.00    +0.000 HD
ENDBRANCH  10  12
ENDBRANCH   9  10
ENDBRANCH   1   9
BRANCH   1  14
ATOM     14  C   UNL     1      13.950  21.141  -2.347  0.00  0.00    +0.000 C 
BRANCH  14  15
ATOM     15  C   UNL     1      14.976  20.797  -3.453  0.00  0.00    +0.000 C 
ATOM     16  C   UNL     1      16.422  20.882  -2.977  0.00  0.00    +0.000 C 
BRANCH  15  17
ATOM     17  O   UNL     1      14.762  19.489  -3.983  0.00  0.00    +0.000 OA
ATOM     18  H   UNL     1      13.825  19.289  -3.789  0.00  0.00    +0.000 HD
ENDBRANCH  15  17
ENDBRANCH  14  15
ENDBRANCH   1  14
TORSDOF 7
ENDMDL
MODEL 9
REMARK VINA RESULT:    -3.851     12.442     15.603
REMARK INTER + INTRA:          -5.804
REMARK INTER:                  -5.209
REMARK INTRA:                  -0.595
REMARK UNBOUND:                -0.603
REMARK  Name = 
REMARK  10 active torsions:
REMARK  status: ('A' for Active; 'I' for Inactive)
REMARK    1  A    between atoms: C_1  and  C_2
REMARK    2  A    between atoms: C_5  and  N_8
REMARK    3  A    between atoms: N_8  and  C_9
REMARK    4  A    between atoms: N_8  and  C_13
REMARK    5  A    between atoms: C_9  and  C_10
REMARK    6  A    between atoms: C_10  and  C_11
REMARK    7  A    between atoms: C_10  and  O_12
REMARK    8  A    between atoms: C_13  and  C_14
REMARK    9  A    between atoms: C_14  and  C_15
REMARK   10  A    between atoms: C_14  and  O_16
REMARK                            x       y       z     vdW  Elec       q    Type
REMARK                         _______ _______ _______ _____ _____    ______ ____
ROOT
ATOM      1  N   UNL     1      14.536  22.081  -3.494  0.00  0.00    +0.000 N 
ENDROOT
BRANCH   1   6
ATOM      2  C   UNL     1       8.812  21.481  -3.043  0.00  0.00    +0.000 C 
ATOM      3  C   UNL     1      10.297  21.654  -3.142  0.00  0.00    +0.000 A 
ATOM      4  C   UNL     1      10.852  22.547  -4.052  0.00  0.00    +0.000 A 
ATOM      5  C   UNL     1      12.246  22.683  -4.162  0.00  0.00    +0.000 A 
ATOM      6  C   UNL     1      13.148  21.926  -3.393  0.00  0.00    +0.000 A 
ATOM      7  C   UNL     1      12.551  21.035  -2.482  0.00  0.00    +0.000 A 
ATOM      8  C   UNL     1      11.159  20.890  -2.361  0.00  0.00    +0.000 A 
ENDBRANCH   1   6
BRANCH   1   9
ATOM      9  C   UNL     1      15.442  21.122  -2.817  0.00  0.00    +0.000 C 
BRANCH   9  10
ATOM     10  C   UNL     1      15.921  19.985  -3.754  0.00  0.00    +0.000 C 
ATOM     11  C   UNL     1      17.392  19.667  -3.517  0.00  0.00    +0.000 C 
BRANCH  10  12
ATOM     12  O   UNL     1      15.166  18.785  -3.535  0.00  0.00    +0.000 OA
ATOM     13  H   UNL     1      15.604  18.062  -4.013  0.00  0.00    +0.000 HD
ENDBRANCH  10  12
ENDBRANCH   9  10
ENDBRANCH   1   9
BRANCH   1  14
ATOM     14  C   UNL     1      15.142  23.402  -3.801  0.00  0.00    +0.000 C 
BRANCH  14  15
ATOM     15  C   UNL     1      15.790  23.435  -5.206  0.00  0.00    +0.000 C 
ATOM     16  C   UNL     1      17.296  23.199  -5.177  0.00  0.00    +0.000 C 
BRANCH  15  17
ATOM     17  O   UNL     1      15.208  22.467  -6.078  0.00  0.00    +0.000 OA
ATOM     18  H   UNL     1      15.647  22.609  -6.941  0.00  0.00    +0.000 HD
ENDBRANCH  15  17
ENDBRANCH  14  15
ENDBRANCH   1  14
TORSDOF 7
ENDMDL
