MODEL 1
REMARK VINA RESULT:    -4.231      0.000      0.000
REMARK INTER + INTRA:          -6.311
REMARK INTER:                  -5.715
REMARK INTRA:                  -0.596
REMARK UNBOUND:                -0.596
REMARK  Name = 
REMARK  10 active torsions:
REMARK  status: ('A' for Active; 'I' for Inactive)
REMARK    1  A    between atoms: C_1  and  C_2
REMARK    2  A    between atoms: C_5  and  N_8
REMARK    3  A    between atoms: N_8  and  C_9
REMARK    4  A    between atoms: N_8  and  C_13
REMARK    5  A    between atoms: C_9  and  C_10
REMARK    6  A    between atoms: C_10  and  C_11
REMARK    7  A    between atoms: C_10  and  O_12
REMARK    8  A    between atoms: C_13  and  C_14
REMARK    9  A    between atoms: C_14  and  C_15
REMARK   10  A    between atoms: C_14  and  O_16
REMARK                            x       y       z     vdW  Elec       q    Type
REMARK                         _______ _______ _______ _____ _____    ______ ____
ROOT
ATOM      1  N   UNL     1       0.051  19.160  -8.812  0.00  0.00    +0.000 N 
ENDROOT
BRANCH   1   6
ATOM      2  C   UNL     1      -2.127  14.266 -10.967  0.00  0.00    +0.000 C 
ATOM      3  C   UNL     1      -1.547  15.522 -10.393  0.00  0.00    +0.000 A 
ATOM      4  C   UNL     1      -2.130  16.140  -9.291  0.00  0.00    +0.000 A 
ATOM      5  C   UNL     1      -1.599  17.334  -8.776  0.00  0.00    +0.000 A 
ATOM      6  C   UNL     1      -0.485  17.979  -9.343  0.00  0.00    +0.000 A 
ATOM      7  C   UNL     1       0.080  17.325 -10.454  0.00  0.00    +0.000 A 
ATOM      8  C   UNL     1      -0.439  16.130 -10.977  0.00  0.00    +0.000 A 
ENDBRANCH   1   6
BRANCH   1   9
ATOM      9  C   UNL     1      -0.850  20.212  -8.283  0.00  0.00    +0.000 C 
BRANCH   9  10
ATOM     10  C   UNL     1      -0.269  20.929  -7.039  0.00  0.00    +0.000 C 
ATOM     11  C   UNL     1      -1.232  21.992  -6.524  0.00  0.00    +0.000 C 
BRANCH  10  12
ATOM     12  O   UNL     1      -0.024  19.998  -5.976  0.00  0.00    +0.000 OA
ATOM     13  H   UNL     1       0.158  20.505  -5.168  0.00  0.00    +0.000 HD
ENDBRANCH  10  12
ENDBRANCH   9  10
ENDBRANCH   1   9
BRANCH   1  14
ATOM     14  C   UNL     1       1.404  19.633  -9.202  0.00  0.00    +0.000 C 
BRANCH  14  15
ATOM     15  C   UNL     1       2.527  18.789  -8.553  0.00  0.00    +0.000 C 
ATOM     16  C   UNL     1       3.925  19.226  -8.975  0.00  0.00    +0.000 C 
BRANCH  15  17
ATOM     17  O   UNL     1       2.463  18.831  -7.128  0.00  0.00    +0.000 OA
ATOM     18  H   UNL     1       2.993  19.614  -6.875  0.00  0.00    +0.000 HD
ENDBRANCH  15  17
ENDBRANCH  14  15
ENDBRANCH   1  14
TORSDOF 7
ENDMDL
MODEL 2
REMARK VINA RESULT:    -4.176      2.027      2.557
REMARK INTER + INTRA:          -6.237
REMARK INTER:                  -5.567
REMARK INTRA:                  -0.669
REMARK UNBOUND:                -0.596
REMARK  Name = 
REMARK  10 active torsions:
REMARK  status: ('A' for Active; 'I' for Inactive)
REMARK    1  A    between atoms: C_1  and  C_2
REMARK    2  A    between atoms: C_5  and  N_8
REMARK    3  A    between atoms: N_8  and  C_9
REMARK    4  A    between atoms: N_8  and  C_13
REMARK    5  A    between atoms: C_9  and  C_10
REMARK    6  A    between atoms: C_10  and  C_11
REMARK    7  A    between atoms: C_10  and  O_12
REMARK    8  A    between atoms: C_13  and  C_14
REMARK    9  A    between atoms: C_14  and  C_15
REMARK   10  A    between atoms: C_14  and  O_16
REMARK                            x       y       z     vdW  Elec       q    Type
REMARK                         _______ _______ _______ _____ _____    ______ ____
ROOT
ATOM      1  N   UNL     1       0.968  18.756 -10.394  0.00  0.00    +0.000 N 
ENDROOT
BRANCH   1   6
ATOM      2  C   UNL     1      -2.353  14.036 -10.559  0.00  0.00    +0.000 C 
ATOM      3  C   UNL     1      -1.476  15.249 -10.500  0.00  0.00    +0.000 A 
ATOM      4  C   UNL     1      -1.734  16.274  -9.595  0.00  0.00    +0.000 A 
ATOM      5  C   UNL     1      -0.926  17.422  -9.565  0.00  0.00    +0.000 A 
ATOM      6  C   UNL     1       0.155  17.616 -10.443  0.00  0.00    +0.000 A 
ATOM      7  C   UNL     1       0.387  16.560 -11.343  0.00  0.00    +0.000 A 
ATOM      8  C   UNL     1      -0.411  15.405 -11.382  0.00  0.00    +0.000 A 
ENDBRANCH   1   6
BRANCH   1   9
ATOM      9  C   UNL     1       0.833  19.718  -9.275  0.00  0.00    +0.000 C 
BRANCH   9  10
ATOM     10  C   UNL     1       1.782  19.401  -8.093  0.00  0.00    +0.000 C 
ATOM     11  C   UNL     1       1.002  18.880  -6.892  0.00  0.00    +0.000 C 
BRANCH  10  12
ATOM     12  O   UNL     1       2.747  18.406  -8.461  0.00  0.00    +0.000 OA
ATOM     13  H   UNL     1       2.311  17.764  -9.044  0.00  0.00    +0.000 HD
ENDBRANCH  10  12
ENDBRANCH   9  10
ENDBRANCH   1   9
BRANCH   1  14
ATOM     14  C   UNL     1       1.585  19.313 -11.625  0.00  0.00    +0.000 C 
BRANCH  14  15
ATOM     15  C   UNL     1       3.057  18.866 -11.794  0.00  0.00    +0.000 C 
ATOM     16  C   UNL     1       3.556  18.975 -13.230  0.00  0.00    +0.000 C 
BRANCH  15  17
ATOM     17  O   UNL     1       3.937  19.621 -10.963  0.00  0.00    +0.000 OA
ATOM     18  H   UNL     1       3.922  20.526 -11.335  0.00  0.00    +0.000 HD
ENDBRANCH  15  17
ENDBRANCH  14  15
ENDBRANCH   1  14
TORSDOF 7
ENDMDL
MODEL 3
REMARK VINA RESULT:    -4.105      0.495      3.196
REMARK INTER + INTRA:          -6.140
REMARK INTER:                  -5.605
REMARK INTRA:                  -0.535
REMARK UNBOUND:                -0.596
REMARK  Name = 
REMARK  10 active torsions:
REMARK  status: ('A' for Active; 'I' for Inactive)
REMARK    1  A    between atoms: C_1  and  C_2
REMARK    2  A    between atoms: C_5  and  N_8
REMARK    3  A    between atoms: N_8  and  C_9
REMARK    4  A    between atoms: N_8  and  C_13
REMARK    5  A    between atoms: C_9  and  C_10
REMARK    6  A    between atoms: C_10  and  C_11
REMARK    7  A    between atoms: C_10  and  O_12
REMARK    8  A    between atoms: C_13  and  C_14
REMARK    9  A    between atoms: C_14  and  C_15
REMARK   10  A    between atoms: C_14  and  O_16
REMARK                            x       y       z     vdW  Elec       q    Type
REMARK                         _______ _______ _______ _____ _____    ______ ____
ROOT
ATOM      1  N   UNL     1       0.055  19.793  -9.055  0.00  0.00    +0.000 N 
ENDROOT
BRANCH   1   6
ATOM      2  C   UNL     1      -1.617  14.544 -10.783  0.00  0.00    +0.000 C 
ATOM      3  C   UNL     1      -1.202  15.916 -10.348  0.00  0.00    +0.000 A 
ATOM      4  C   UNL     1      -0.273  16.648 -11.080  0.00  0.00    +0.000 A 
ATOM      5  C   UNL     1       0.135  17.921 -10.650  0.00  0.00    +0.000 A 
ATOM      6  C   UNL     1      -0.341  18.514  -9.467  0.00  0.00    +0.000 A 
ATOM      7  C   UNL     1      -1.281  17.747  -8.754  0.00  0.00    +0.000 A 
ATOM      8  C   UNL     1      -1.699  16.473  -9.173  0.00  0.00    +0.000 A 
ENDBRANCH   1   6
BRANCH   1   9
ATOM      9  C   UNL     1       1.496  20.121  -8.933  0.00  0.00    +0.000 C 
BRANCH   9  10
ATOM     10  C   UNL     1       2.349  18.914  -8.471  0.00  0.00    +0.000 C 
ATOM     11  C   UNL     1       3.816  19.114  -8.832  0.00  0.00    +0.000 C 
BRANCH  10  12
ATOM     12  O   UNL     1       2.262  18.735  -7.051  0.00  0.00    +0.000 OA
ATOM     13  H   UNL     1       1.709  19.449  -6.690  0.00  0.00    +0.000 HD
ENDBRANCH  10  12
ENDBRANCH   9  10
ENDBRANCH   1   9
BRANCH   1  14
ATOM     14  C   UNL     1      -0.853  20.661  -8.262  0.00  0.00    +0.000 C 
BRANCH  14  15
ATOM     15  C   UNL     1      -0.172  21.204  -6.983  0.00  0.00    +0.000 C 
ATOM     16  C   UNL     1      -0.841  22.458  -6.434  0.00  0.00    +0.000 C 
BRANCH  15  17
ATOM     17  O   UNL     1      -0.146  20.226  -5.944  0.00  0.00    +0.000 OA
ATOM     18  H   UNL     1       0.253  19.432  -6.353  0.00  0.00    +0.000 HD
ENDBRANCH  15  17
ENDBRANCH  14  15
ENDBRANCH   1  14
TORSDOF 7
ENDMDL
MODEL 4
REMARK VINA RESULT:    -4.010      1.175      2.993
REMARK INTER + INTRA:          -6.012
REMARK INTER:                  -5.504
REMARK INTRA:                  -0.509
REMARK UNBOUND:                -0.596
REMARK  Name = 
REMARK  10 active torsions:
REMARK  status: ('A' for Active; 'I' for Inactive)
REMARK    1  A    between atoms: C_1  and  C_2
REMARK    2  A    between atoms: C_5  and  N_8
REMARK    3  A    between atoms: N_8  and  C_9
REMARK    4  A    between atoms: N_8  and  C_13
REMARK    5  A    between atoms: C_9  and  C_10
REMARK    6  A    between atoms: C_10  and  C_11
REMARK    7  A    between atoms: C_10  and  O_12
REMARK    8  A    between atoms: C_13  and  C_14
REMARK    9  A    between atoms: C_14  and  C_15
REMARK   10  A    between atoms: C_14  and  O_16
REMARK                            x       y       z     vdW  Elec       q    Type
REMARK                         _______ _______ _______ _____ _____    ______ ____
ROOT
ATOM      1  N   UNL     1       0.434  19.019  -9.154  0.00  0.00    +0.000 N 
ENDROOT
BRANCH   1   6
ATOM      2  C   UNL     1      -2.315  14.213 -10.789  0.00  0.00    +0.000 C 
ATOM      3  C   UNL     1      -1.587  15.447 -10.350  0.00  0.00    +0.000 A 
ATOM      4  C   UNL     1      -2.062  16.218  -9.294  0.00  0.00    +0.000 A 
ATOM      5  C   UNL     1      -1.392  17.390  -8.905  0.00  0.00    +0.000 A 
ATOM      6  C   UNL     1      -0.240  17.860  -9.559  0.00  0.00    +0.000 A 
ATOM      7  C   UNL     1       0.213  17.055 -10.620  0.00  0.00    +0.000 A 
ATOM      8  C   UNL     1      -0.446  15.880 -11.018  0.00  0.00    +0.000 A 
ENDBRANCH   1   6
BRANCH   1   9
ATOM      9  C   UNL     1       1.880  18.965  -8.832  0.00  0.00    +0.000 C 
BRANCH   9  10
ATOM     10  C   UNL     1       2.760  19.654  -9.903  0.00  0.00    +0.000 C 
ATOM     11  C   UNL     1       3.439  20.895  -9.334  0.00  0.00    +0.000 C 
BRANCH  10  12
ATOM     12  O   UNL     1       3.783  18.768 -10.378  0.00  0.00    +0.000 OA
ATOM     13  H   UNL     1       3.973  18.996 -11.303  0.00  0.00    +0.000 HD
ENDBRANCH  10  12
ENDBRANCH   9  10
ENDBRANCH   1   9
BRANCH   1  14
ATOM     14  C   UNL     1      -0.297  20.162  -8.549  0.00  0.00    +0.000 C 
BRANCH  14  15
ATOM     15  C   UNL     1       0.415  20.711  -7.289  0.00  0.00    +0.000 C 
ATOM     16  C   UNL     1       0.321  22.226  -7.159  0.00  0.00    +0.000 C 
BRANCH  15  17
ATOM     17  O   UNL     1      -0.107  20.132  -6.094  0.00  0.00    +0.000 OA
ATOM     18  H   UNL     1       0.531  20.378  -5.394  0.00  0.00    +0.000 HD
ENDBRANCH  15  17
ENDBRANCH  14  15
ENDBRANCH   1  14
TORSDOF 7
ENDMDL
MODEL 5
REMARK VINA RESULT:    -3.983     13.179     16.121
REMARK INTER + INTRA:          -5.976
REMARK INTER:                  -5.419
REMARK INTRA:                  -0.557
REMARK UNBOUND:                -0.596
REMARK  Name = 
REMARK  10 active torsions:
REMARK  status: ('A' for Active; 'I' for Inactive)
REMARK    1  A    between atoms: C_1  and  C_2
REMARK    2  A    between atoms: C_5  and  N_8
REMARK    3  A    between atoms: N_8  and  C_9
REMARK    4  A    between atoms: N_8  and  C_13
REMARK    5  A    between atoms: C_9  and  C_10
REMARK    6  A    between atoms: C_10  and  C_11
REMARK    7  A    between atoms: C_10  and  O_12
REMARK    8  A    between atoms: C_13  and  C_14
REMARK    9  A    between atoms: C_14  and  C_15
REMARK   10  A    between atoms: C_14  and  O_16
REMARK                            x       y       z     vdW  Elec       q    Type
REMARK                         _______ _______ _______ _____ _____    ______ ____
ROOT
ATOM      1  N   UNL     1      15.171  20.790  -3.328  0.00  0.00    +0.000 N 
ENDROOT
BRANCH   1   6
ATOM      2  C   UNL     1       9.687  22.567  -3.634  0.00  0.00    +0.000 C 
ATOM      3  C   UNL     1      11.115  22.125  -3.540  0.00  0.00    +0.000 A 
ATOM      4  C   UNL     1      12.055  22.544  -4.475  0.00  0.00    +0.000 A 
ATOM      5  C   UNL     1      13.387  22.103  -4.399  0.00  0.00    +0.000 A 
ATOM      6  C   UNL     1      13.838  21.211  -3.409  0.00  0.00    +0.000 A 
ATOM      7  C   UNL     1      12.860  20.810  -2.479  0.00  0.00    +0.000 A 
ATOM      8  C   UNL     1      11.527  21.246  -2.543  0.00  0.00    +0.000 A 
ENDBRANCH   1   6
BRANCH   1   9
ATOM      9  C   UNL     1      16.271  21.767  -3.511  0.00  0.00    +0.000 C 
BRANCH   9  10
ATOM     10  C   UNL     1      16.728  22.413  -2.180  0.00  0.00    +0.000 C 
ATOM     11  C   UNL     1      16.009  23.735  -1.940  0.00  0.00    +0.000 C 
BRANCH  10  12
ATOM     12  O   UNL     1      16.453  21.550  -1.068  0.00  0.00    +0.000 OA
ATOM     13  H   UNL     1      15.527  21.262  -1.132  0.00  0.00    +0.000 HD
ENDBRANCH  10  12
ENDBRANCH   9  10
ENDBRANCH   1   9
BRANCH   1  14
ATOM     14  C   UNL     1      15.547  19.374  -3.572  0.00  0.00    +0.000 C 
BRANCH  14  15
ATOM     15  C   UNL     1      16.761  19.247  -4.524  0.00  0.00    +0.000 C 
ATOM     16  C   UNL     1      17.925  18.479  -3.911  0.00  0.00    +0.000 C 
BRANCH  15  17
ATOM     17  O   UNL     1      16.406  18.608  -5.749  0.00  0.00    +0.000 OA
ATOM     18  H   UNL     1      15.895  17.817  -5.483  0.00  0.00    +0.000 HD
ENDBRANCH  15  17
ENDBRANCH  14  15
ENDBRANCH   1  14
TORSDOF 7
ENDMDL
MODEL 6
REMARK VINA RESULT:    -3.940      9.952     12.837
REMARK INTER + INTRA:          -5.917
REMARK INTER:                  -5.243
REMARK INTRA:                  -0.674
REMARK UNBOUND:                -0.596
REMARK  Name = 
REMARK  10 active torsions:
REMARK  status: ('A' for Active; 'I' for Inactive)
REMARK    1  A    between atoms: C_1  and  C_2
REMARK    2  A    between atoms: C_5  and  N_8
REMARK    3  A    between atoms: N_8  and  C_9
REMARK    4  A    between atoms: N_8  and  C_13
REMARK    5  A    between atoms: C_9  and  C_10
REMARK    6  A    between atoms: C_10  and  C_11
REMARK    7  A    between atoms: C_10  and  O_12
REMARK    8  A    between atoms: C_13  and  C_14
REMARK    9  A    between atoms: C_14  and  C_15
REMARK   10  A    between atoms: C_14  and  O_16
REMARK                            x       y       z     vdW  Elec       q    Type
REMARK                         _______ _______ _______ _____ _____    ______ ____
ROOT
ATOM      1  N   UNL     1       7.698  23.037  -1.463  0.00  0.00    +0.000 N 
ENDROOT
BRANCH   1   6
ATOM      2  C   UNL     1      13.019  21.111  -2.607  0.00  0.00    +0.000 C 
ATOM      3  C   UNL     1      11.635  21.614  -2.335  0.00  0.00    +0.000 A 
ATOM      4  C   UNL     1      11.400  22.963  -2.089  0.00  0.00    +0.000 A 
ATOM      5  C   UNL     1      10.104  23.424  -1.805  0.00  0.00    +0.000 A 
ATOM      6  C   UNL     1       8.991  22.567  -1.728  0.00  0.00    +0.000 A 
ATOM      7  C   UNL     1       9.265  21.211  -1.984  0.00  0.00    +0.000 A 
ATOM      8  C   UNL     1      10.556  20.737  -2.272  0.00  0.00    +0.000 A 
ENDBRANCH   1   6
BRANCH   1   9
ATOM      9  C   UNL     1       7.432  23.832  -0.240  0.00  0.00    +0.000 C 
BRANCH   9  10
ATOM     10  C   UNL     1       7.680  23.031   1.062  0.00  0.00    +0.000 C 
ATOM     11  C   UNL     1       8.252  23.928   2.153  0.00  0.00    +0.000 C 
BRANCH  10  12
ATOM     12  O   UNL     1       6.461  22.456   1.552  0.00  0.00    +0.000 OA
ATOM     13  H   UNL     1       6.501  22.448   2.523  0.00  0.00    +0.000 HD
ENDBRANCH  10  12
ENDBRANCH   9  10
ENDBRANCH   1   9
BRANCH   1  14
ATOM     14  C   UNL     1       6.505  22.375  -2.050  0.00  0.00    +0.000 C 
BRANCH  14  15
ATOM     15  C   UNL     1       5.183  23.018  -1.566  0.00  0.00    +0.000 C 
ATOM     16  C   UNL     1       4.273  23.451  -2.709  0.00  0.00    +0.000 C 
BRANCH  15  17
ATOM     17  O   UNL     1       4.444  22.135  -0.723  0.00  0.00    +0.000 OA
ATOM     18  H   UNL     1       4.287  21.338  -1.269  0.00  0.00    +0.000 HD
ENDBRANCH  15  17
ENDBRANCH  14  15
ENDBRANCH   1  14
TORSDOF 7
ENDMDL
MODEL 7
REMARK VINA RESULT:    -3.926     12.444     14.418
REMARK INTER + INTRA:          -5.899
REMARK INTER:                  -5.426
REMARK INTRA:                  -0.473
REMARK UNBOUND:                -0.596
REMARK  Name = 
REMARK  10 active torsions:
REMARK  status: ('A' for Active; 'I' for Inactive)
REMARK    1  A    between atoms: C_1  and  C_2
REMARK    2  A    between atoms: C_5  and  N_8
REMARK    3  A    between atoms: N_8  and  C_9
REMARK    4  A    between atoms: N_8  and  C_13
REMARK    5  A    between atoms: C_9  and  C_10
REMARK    6  A    between atoms: C_10  and  C_11
REMARK    7  A    between atoms: C_10  and  O_12
REMARK    8  A    between atoms: C_13  and  C_14
REMARK    9  A    between atoms: C_14  and  C_15
REMARK   10  A    between atoms: C_14  and  O_16
REMARK                            x       y       z     vdW  Elec       q    Type
REMARK                         _______ _______ _______ _____ _____    ______ ____
ROOT
ATOM      1  N   UNL     1      13.047  22.314  -2.703  0.00  0.00    +0.000 N 
ENDROOT
BRANCH   1   6
ATOM      2  C   UNL     1       7.484  22.254  -1.163  0.00  0.00    +0.000 C 
ATOM      3  C   UNL     1       8.921  22.275  -1.586  0.00  0.00    +0.000 A 
ATOM      4  C   UNL     1       9.553  21.118  -2.028  0.00  0.00    +0.000 A 
ATOM      5  C   UNL     1      10.908  21.138  -2.395  0.00  0.00    +0.000 A 
ATOM      6  C   UNL     1      11.701  22.297  -2.317  0.00  0.00    +0.000 A 
ATOM      7  C   UNL     1      11.029  23.449  -1.867  0.00  0.00    +0.000 A 
ATOM      8  C   UNL     1       9.673  23.443  -1.500  0.00  0.00    +0.000 A 
ENDBRANCH   1   6
BRANCH   1   9
ATOM      9  C   UNL     1      13.463  23.058  -3.916  0.00  0.00    +0.000 C 
BRANCH   9  10
ATOM     10  C   UNL     1      12.569  22.752  -5.143  0.00  0.00    +0.000 C 
ATOM     11  C   UNL     1      11.690  23.948  -5.488  0.00  0.00    +0.000 C 
BRANCH  10  12
ATOM     12  O   UNL     1      13.365  22.439  -6.295  0.00  0.00    +0.000 OA
ATOM     13  H   UNL     1      13.960  23.189  -6.463  0.00  0.00    +0.000 HD
ENDBRANCH  10  12
ENDBRANCH   9  10
ENDBRANCH   1   9
BRANCH   1  14
ATOM     14  C   UNL     1      13.983  21.243  -2.275  0.00  0.00    +0.000 C 
BRANCH  14  15
ATOM     15  C   UNL     1      14.925  20.799  -3.420  0.00  0.00    +0.000 C 
ATOM     16  C   UNL     1      16.397  20.815  -3.026  0.00  0.00    +0.000 C 
BRANCH  15  17
ATOM     17  O   UNL     1      14.607  19.488  -3.884  0.00  0.00    +0.000 OA
ATOM     18  H   UNL     1      15.404  19.191  -4.368  0.00  0.00    +0.000 HD
ENDBRANCH  15  17
ENDBRANCH  14  15
ENDBRANCH   1  14
TORSDOF 7
ENDMDL
MODEL 8
REMARK VINA RESULT:    -3.913     10.017     12.839
REMARK INTER + INTRA:          -5.881
REMARK INTER:                  -5.221
REMARK INTRA:                  -0.660
REMARK UNBOUND:                -0.596
REMARK  Name = 
REMARK  10 active torsions:
REMARK  status: ('A' for Active; 'I' for Inactive)
REMARK    1  A    between atoms: C_1  and  C_2
REMARK    2  A    between atoms: C_5  and  N_8
REMARK    3  A    between atoms: N_8  and  C_9
REMARK    4  A    between atoms: N_8  and  C_13
REMARK    5  A    between atoms: C_9  and  C_10
REMARK    6  A    between atoms: C_10  and  C_11
REMARK    7  A    between atoms: C_10  and  O_12
REMARK    8  A    between atoms: C_13  and  C_14
REMARK    9  A    between atoms: C_14  and  C_15
REMARK   10  A    between atoms: C_14  and  O_16
REMARK                            x       y       z     vdW  Elec       q    Type
REMARK                         _______ _______ _______ _____ _____    ______ ____
ROOT
ATOM      1  N   UNL     1       7.967  23.364  -1.381  0.00  0.00    +0.000 N 
ENDROOT
BRANCH   1   6
ATOM      2  C   UNL     1      12.985  20.844  -2.723  0.00  0.00    +0.000 C 
ATOM      3  C   UNL     1      11.688  21.494  -2.350  0.00  0.00    +0.000 A 
ATOM      4  C   UNL     1      10.515  20.752  -2.266  0.00  0.00    +0.000 A 
ATOM      5  C   UNL     1       9.296  21.372  -1.945  0.00  0.00    +0.000 A 
ATOM      6  C   UNL     1       9.182  22.756  -1.719  0.00  0.00    +0.000 A 
ATOM      7  C   UNL     1      10.388  23.475  -1.810  0.00  0.00    +0.000 A 
ATOM      8  C   UNL     1      11.614  22.866  -2.128  0.00  0.00    +0.000 A 
ENDBRANCH   1   6
BRANCH   1   9
ATOM      9  C   UNL     1       7.159  24.040  -2.424  0.00  0.00    +0.000 C 
BRANCH   9  10
ATOM     10  C   UNL     1       5.744  23.429  -2.576  0.00  0.00    +0.000 C 
ATOM     11  C   UNL     1       5.801  21.906  -2.533  0.00  0.00    +0.000 C 
BRANCH  10  12
ATOM     12  O   UNL     1       4.876  23.871  -1.524  0.00  0.00    +0.000 OA
ATOM     13  H   UNL     1       4.395  23.098  -1.185  0.00  0.00    +0.000 HD
ENDBRANCH  10  12
ENDBRANCH   9  10
ENDBRANCH   1   9
BRANCH   1  14
ATOM     14  C   UNL     1       7.691  23.809   0.009  0.00  0.00    +0.000 C 
BRANCH  14  15
ATOM     15  C   UNL     1       7.211  22.646   0.911  0.00  0.00    +0.000 C 
ATOM     16  C   UNL     1       7.686  22.771   2.354  0.00  0.00    +0.000 C 
BRANCH  15  17
ATOM     17  O   UNL     1       5.789  22.539   0.921  0.00  0.00    +0.000 OA
ATOM     18  H   UNL     1       5.607  21.579   0.860  0.00  0.00    +0.000 HD
ENDBRANCH  15  17
ENDBRANCH  14  15
ENDBRANCH   1  14
TORSDOF 7
ENDMDL
MODEL 9
REMARK VINA RESULT:    -3.858     11.899     14.022
REMARK INTER + INTRA:          -5.808
REMARK INTER:                  -5.310
REMARK INTRA:                  -0.498
REMARK UNBOUND:                -0.596
REMARK  Name = 
REMARK  10 active torsions:
REMARK  status: ('A' for Active; 'I' for Inactive)
REMARK    1  A    between atoms: C_1  and  C_2
REMARK    2  A    between atoms: C_5  and  N_8
REMARK    3  A    between atoms: N_8  and  C_9
REMARK    4  A    between atoms: N_8  and  C_13
REMARK    5  A    between atoms: C_9  and  C_10
REMARK    6  A    between atoms: C_10  and  C_11
REMARK    7  A    between atoms: C_10  and  O_12
REMARK    8  A    between atoms: C_13  and  C_14
REMARK    9  A    between atoms: C_14  and  C_15
REMARK   10  A    between atoms: C_14  and  O_16
REMARK                            x       y       z     vdW  Elec       q    Type
REMARK                         _______ _______ _______ _____ _____    ______ ____
ROOT
ATOM      1  N   UNL     1      12.620  22.500  -4.184  0.00  0.00    +0.000 N 
ENDROOT
BRANCH   1   6
ATOM      2  C   UNL     1       7.306  22.049  -1.972  0.00  0.00    +0.000 C 
ATOM      3  C   UNL     1       8.692  22.179  -2.526  0.00  0.00    +0.000 A 
ATOM      4  C   UNL     1       9.022  23.222  -3.386  0.00  0.00    +0.000 A 
ATOM      5  C   UNL     1      10.315  23.322  -3.926  0.00  0.00    +0.000 A 
ATOM      6  C   UNL     1      11.327  22.383  -3.658  0.00  0.00    +0.000 A 
ATOM      7  C   UNL     1      10.959  21.344  -2.783  0.00  0.00    +0.000 A 
ATOM      8  C   UNL     1       9.670  21.233  -2.234  0.00  0.00    +0.000 A 
ENDBRANCH   1   6
BRANCH   1   9
ATOM      9  C   UNL     1      13.795  22.131  -3.359  0.00  0.00    +0.000 C 
BRANCH   9  10
ATOM     10  C   UNL     1      14.792  21.216  -4.110  0.00  0.00    +0.000 C 
ATOM     11  C   UNL     1      16.220  21.460  -3.636  0.00  0.00    +0.000 C 
BRANCH  10  12
ATOM     12  O   UNL     1      14.484  19.832  -3.894  0.00  0.00    +0.000 OA
ATOM     13  H   UNL     1      13.744  19.594  -4.477  0.00  0.00    +0.000 HD
ENDBRANCH  10  12
ENDBRANCH   9  10
ENDBRANCH   1   9
BRANCH   1  14
ATOM     14  C   UNL     1      12.911  23.428  -5.307  0.00  0.00    +0.000 C 
BRANCH  14  15
ATOM     15  C   UNL     1      12.661  22.773  -6.687  0.00  0.00    +0.000 C 
ATOM     16  C   UNL     1      11.584  23.481  -7.500  0.00  0.00    +0.000 C 
BRANCH  15  17
ATOM     17  O   UNL     1      13.851  22.730  -7.473  0.00  0.00    +0.000 OA
ATOM     18  H   UNL     1      13.801  23.518  -8.051  0.00  0.00    +0.000 HD
ENDBRANCH  15  17
ENDBRANCH  14  15
ENDBRANCH   1  14
TORSDOF 7
ENDMDL
