MODEL 1
REMARK VINA RESULT:    -3.557      0.000      0.000
REMARK INTER + INTRA:          -5.396
REMARK INTER:                  -4.804
REMARK INTRA:                  -0.592
REMARK UNBOUND:                -0.592
REMARK  Name = 
REMARK  10 active torsions:
REMARK  status: ('A' for Active; 'I' for Inactive)
REMARK    1  A    between atoms: C_1  and  C_2
REMARK    2  A    between atoms: C_5  and  N_8
REMARK    3  A    between atoms: N_8  and  C_9
REMARK    4  A    between atoms: N_8  and  C_13
REMARK    5  A    between atoms: C_9  and  C_10
REMARK    6  A    between atoms: C_10  and  C_11
REMARK    7  A    between atoms: C_10  and  O_12
REMARK    8  A    between atoms: C_13  and  C_14
REMARK    9  A    between atoms: C_14  and  C_15
REMARK   10  A    between atoms: C_14  and  O_16
REMARK                            x       y       z     vdW  Elec       q    Type
REMARK                         _______ _______ _______ _____ _____    ______ ____
ROOT
ATOM      1  N   UNL     1       4.579  22.030 -14.329  0.00  0.00    +0.000 N 
ENDROOT
BRANCH   1   6
ATOM      2  C   UNL     1      -0.696  23.197 -12.293  0.00  0.00    +0.000 C 
ATOM      3  C   UNL     1       0.682  22.912 -12.807  0.00  0.00    +0.000 A 
ATOM      4  C   UNL     1       1.166  23.549 -13.945  0.00  0.00    +0.000 A 
ATOM      5  C   UNL     1       2.448  23.255 -14.439  0.00  0.00    +0.000 A 
ATOM      6  C   UNL     1       3.294  22.304 -13.842  0.00  0.00    +0.000 A 
ATOM      7  C   UNL     1       2.773  21.682 -12.693  0.00  0.00    +0.000 A 
ATOM      8  C   UNL     1       1.494  21.967 -12.187  0.00  0.00    +0.000 A 
ENDBRANCH   1   6
BRANCH   1   9
ATOM      9  C   UNL     1       5.744  22.062 -13.412  0.00  0.00    +0.000 C 
BRANCH   9  10
ATOM     10  C   UNL     1       7.057  21.610 -14.095  0.00  0.00    +0.000 C 
ATOM     11  C   UNL     1       8.273  22.126 -13.335  0.00  0.00    +0.000 C 
BRANCH  10  12
ATOM     12  O   UNL     1       7.143  20.179 -14.151  0.00  0.00    +0.000 OA
ATOM     13  H   UNL     1       6.314  19.842 -14.530  0.00  0.00    +0.000 HD
ENDBRANCH  10  12
ENDBRANCH   9  10
ENDBRANCH   1   9
BRANCH   1  14
ATOM     14  C   UNL     1       4.910  22.208 -15.766  0.00  0.00    +0.000 C 
BRANCH  14  15
ATOM     15  C   UNL     1       4.350  21.061 -16.641  0.00  0.00    +0.000 C 
ATOM     16  C   UNL     1       4.963  21.017 -18.036  0.00  0.00    +0.000 C 
BRANCH  15  17
ATOM     17  O   UNL     1       4.549  19.787 -16.031  0.00  0.00    +0.000 OA
ATOM     18  H   UNL     1       5.354  19.891 -15.484  0.00  0.00    +0.000 HD
ENDBRANCH  15  17
ENDBRANCH  14  15
ENDBRANCH   1  14
TORSDOF 7
ENDMDL
MODEL 2
REMARK VINA RESULT:    -3.492      1.684      5.743
REMARK INTER + INTRA:          -5.308
REMARK INTER:                  -4.598
REMARK INTRA:                  -0.710
REMARK UNBOUND:                -0.592
REMARK  Name = 
REMARK  10 active torsions:
REMARK  status: ('A' for Active; 'I' for Inactive)
REMARK    1  A    between atoms: C_1  and  C_2
REMARK    2  A    between atoms: C_5  and  N_8
REMARK    3  A    between atoms: N_8  and  C_9
REMARK    4  A    between atoms: N_8  and  C_13
REMARK    5  A    between atoms: C_9  and  C_10
REMARK    6  A    between atoms: C_10  and  C_11
REMARK    7  A    between atoms: C_10  and  O_12
REMARK    8  A    between atoms: C_13  and  C_14
REMARK    9  A    between atoms: C_14  and  C_15
REMARK   10  A    between atoms: C_14  and  O_16
REMARK                            x       y       z     vdW  Elec       q    Type
REMARK                         _______ _______ _______ _____ _____    ______ ____
ROOT
ATOM      1  N   UNL     1       5.428  22.247 -14.750  0.00  0.00    +0.000 N 
ENDROOT
BRANCH   1   6
ATOM      2  C   UNL     1      10.492  21.595 -12.057  0.00  0.00    +0.000 C 
ATOM      3  C   UNL     1       9.166  21.756 -12.735  0.00  0.00    +0.000 A 
ATOM      4  C   UNL     1       8.609  20.717 -13.472  0.00  0.00    +0.000 A 
ATOM      5  C   UNL     1       7.380  20.884 -14.131  0.00  0.00    +0.000 A 
ATOM      6  C   UNL     1       6.662  22.093 -14.107  0.00  0.00    +0.000 A 
ATOM      7  C   UNL     1       7.254  23.122 -13.351  0.00  0.00    +0.000 A 
ATOM      8  C   UNL     1       8.482  22.967 -12.686  0.00  0.00    +0.000 A 
ENDBRANCH   1   6
BRANCH   1   9
ATOM      9  C   UNL     1       5.344  22.165 -16.228  0.00  0.00    +0.000 C 
BRANCH   9  10
ATOM     10  C   UNL     1       4.284  21.146 -16.714  0.00  0.00    +0.000 C 
ATOM     11  C   UNL     1       4.381  20.935 -18.220  0.00  0.00    +0.000 C 
BRANCH  10  12
ATOM     12  O   UNL     1       4.463  19.874 -16.075  0.00  0.00    +0.000 OA
ATOM     13  H   UNL     1       3.677  19.696 -15.533  0.00  0.00    +0.000 HD
ENDBRANCH  10  12
ENDBRANCH   9  10
ENDBRANCH   1   9
BRANCH   1  14
ATOM     14  C   UNL     1       4.308  22.976 -14.100  0.00  0.00    +0.000 C 
BRANCH  14  15
ATOM     15  C   UNL     1       3.664  22.157 -12.956  0.00  0.00    +0.000 C 
ATOM     16  C   UNL     1       2.669  22.962 -12.129  0.00  0.00    +0.000 C 
BRANCH  15  17
ATOM     17  O   UNL     1       2.992  20.999 -13.450  0.00  0.00    +0.000 OA
ATOM     18  H   UNL     1       3.123  20.317 -12.760  0.00  0.00    +0.000 HD
ENDBRANCH  15  17
ENDBRANCH  14  15
ENDBRANCH   1  14
TORSDOF 7
ENDMDL
MODEL 3
REMARK VINA RESULT:    -3.446     14.218     15.253
REMARK INTER + INTRA:          -5.246
REMARK INTER:                  -4.950
REMARK INTRA:                  -0.296
REMARK UNBOUND:                -0.592
REMARK  Name = 
REMARK  10 active torsions:
REMARK  status: ('A' for Active; 'I' for Inactive)
REMARK    1  A    between atoms: C_1  and  C_2
REMARK    2  A    between atoms: C_5  and  N_8
REMARK    3  A    between atoms: N_8  and  C_9
REMARK    4  A    between atoms: N_8  and  C_13
REMARK    5  A    between atoms: C_9  and  C_10
REMARK    6  A    between atoms: C_10  and  C_11
REMARK    7  A    between atoms: C_10  and  O_12
REMARK    8  A    between atoms: C_13  and  C_14
REMARK    9  A    between atoms: C_14  and  C_15
REMARK   10  A    between atoms: C_14  and  O_16
REMARK                            x       y       z     vdW  Elec       q    Type
REMARK                         _______ _______ _______ _____ _____    ______ ____
ROOT
ATOM      1  N   UNL     1      -9.704  16.540 -17.067  0.00  0.00    +0.000 N 
ENDROOT
BRANCH   1   6
ATOM      2  C   UNL     1     -10.470  22.194 -17.947  0.00  0.00    +0.000 C 
ATOM      3  C   UNL     1     -10.293  20.725 -17.707  0.00  0.00    +0.000 A 
ATOM      4  C   UNL     1      -9.645  20.260 -16.568  0.00  0.00    +0.000 A 
ATOM      5  C   UNL     1      -9.456  18.884 -16.363  0.00  0.00    +0.000 A 
ATOM      6  C   UNL     1      -9.878  17.912 -17.287  0.00  0.00    +0.000 A 
ATOM      7  C   UNL     1     -10.532  18.417 -18.426  0.00  0.00    +0.000 A 
ATOM      8  C   UNL     1     -10.729  19.791 -18.642  0.00  0.00    +0.000 A 
ENDBRANCH   1   6
BRANCH   1   9
ATOM      9  C   UNL     1      -9.614  15.608 -18.217  0.00  0.00    +0.000 C 
BRANCH   9  10
ATOM     10  C   UNL     1      -9.274  14.159 -17.790  0.00  0.00    +0.000 C 
ATOM     11  C   UNL     1     -10.155  13.154 -18.523  0.00  0.00    +0.000 C 
BRANCH  10  12
ATOM     12  O   UNL     1      -7.905  13.844 -18.081  0.00  0.00    +0.000 OA
ATOM     13  H   UNL     1      -7.893  13.106 -18.713  0.00  0.00    +0.000 HD
ENDBRANCH  10  12
ENDBRANCH   9  10
ENDBRANCH   1   9
BRANCH   1  14
ATOM     14  C   UNL     1     -10.104  15.909 -15.783  0.00  0.00    +0.000 C 
BRANCH  14  15
ATOM     15  C   UNL     1      -8.959  15.926 -14.742  0.00  0.00    +0.000 C 
ATOM     16  C   UNL     1      -9.334  16.644 -13.451  0.00  0.00    +0.000 C 
BRANCH  15  17
ATOM     17  O   UNL     1      -8.533  14.607 -14.406  0.00  0.00    +0.000 OA
ATOM     18  H   UNL     1      -7.928  14.722 -13.646  0.00  0.00    +0.000 HD
ENDBRANCH  15  17
ENDBRANCH  14  15
ENDBRANCH   1  14
TORSDOF 7
ENDMDL
MODEL 4
REMARK VINA RESULT:    -3.424     19.915     21.528
REMARK INTER + INTRA:          -5.217
REMARK INTER:                  -4.607
REMARK INTRA:                  -0.609
REMARK UNBOUND:                -0.592
REMARK  Name = 
REMARK  10 active torsions:
REMARK  status: ('A' for Active; 'I' for Inactive)
REMARK    1  A    between atoms: C_1  and  C_2
REMARK    2  A    between atoms: C_5  and  N_8
REMARK    3  A    between atoms: N_8  and  C_9
REMARK    4  A    between atoms: N_8  and  C_13
REMARK    5  A    between atoms: C_9  and  C_10
REMARK    6  A    between atoms: C_10  and  C_11
REMARK    7  A    between atoms: C_10  and  O_12
REMARK    8  A    between atoms: C_13  and  C_14
REMARK    9  A    between atoms: C_14  and  C_15
REMARK   10  A    between atoms: C_14  and  O_16
REMARK                            x       y       z     vdW  Elec       q    Type
REMARK                         _______ _______ _______ _____ _____    ______ ____
ROOT
ATOM      1  N   UNL     1     -10.723   6.111 -15.954  0.00  0.00    +0.000 N 
ENDROOT
BRANCH   1   6
ATOM      2  C   UNL     1     -10.083  11.520 -17.865  0.00  0.00    +0.000 C 
ATOM      3  C   UNL     1     -10.235  10.122 -17.349  0.00  0.00    +0.000 A 
ATOM      4  C   UNL     1      -9.339   9.124 -17.716  0.00  0.00    +0.000 A 
ATOM      5  C   UNL     1      -9.504   7.808 -17.253  0.00  0.00    +0.000 A 
ATOM      6  C   UNL     1     -10.575   7.420 -16.428  0.00  0.00    +0.000 A 
ATOM      7  C   UNL     1     -11.461   8.456 -16.076  0.00  0.00    +0.000 A 
ATOM      8  C   UNL     1     -11.306   9.776 -16.530  0.00  0.00    +0.000 A 
ENDBRANCH   1   6
BRANCH   1   9
ATOM      9  C   UNL     1     -10.416   4.961 -16.839  0.00  0.00    +0.000 C 
BRANCH   9  10
ATOM     10  C   UNL     1     -10.562   3.596 -16.122  0.00  0.00    +0.000 C 
ATOM     11  C   UNL     1     -10.813   2.477 -17.126  0.00  0.00    +0.000 C 
BRANCH  10  12
ATOM     12  O   UNL     1      -9.376   3.273 -15.383  0.00  0.00    +0.000 OA
ATOM     13  H   UNL     1      -9.036   4.092 -14.985  0.00  0.00    +0.000 HD
ENDBRANCH  10  12
ENDBRANCH   9  10
ENDBRANCH   1   9
BRANCH   1  14
ATOM     14  C   UNL     1     -11.632   5.801 -14.821  0.00  0.00    +0.000 C 
BRANCH  14  15
ATOM     15  C   UNL     1     -10.911   5.884 -13.454  0.00  0.00    +0.000 C 
ATOM     16  C   UNL     1     -11.318   4.773 -12.493  0.00  0.00    +0.000 C 
BRANCH  15  17
ATOM     17  O   UNL     1      -9.493   5.842 -13.602  0.00  0.00    +0.000 OA
ATOM     18  H   UNL     1      -9.315   6.283 -14.458  0.00  0.00    +0.000 HD
ENDBRANCH  15  17
ENDBRANCH  14  15
ENDBRANCH   1  14
TORSDOF 7
ENDMDL
MODEL 5
REMARK VINA RESULT:    -3.368      1.459      3.247
REMARK INTER + INTRA:          -5.141
REMARK INTER:                  -4.688
REMARK INTRA:                  -0.453
REMARK UNBOUND:                -0.592
REMARK  Name = 
REMARK  10 active torsions:
REMARK  status: ('A' for Active; 'I' for Inactive)
REMARK    1  A    between atoms: C_1  and  C_2
REMARK    2  A    between atoms: C_5  and  N_8
REMARK    3  A    between atoms: N_8  and  C_9
REMARK    4  A    between atoms: N_8  and  C_13
REMARK    5  A    between atoms: C_9  and  C_10
REMARK    6  A    between atoms: C_10  and  C_11
REMARK    7  A    between atoms: C_10  and  O_12
REMARK    8  A    between atoms: C_13  and  C_14
REMARK    9  A    between atoms: C_14  and  C_15
REMARK   10  A    between atoms: C_14  and  O_16
REMARK                            x       y       z     vdW  Elec       q    Type
REMARK                         _______ _______ _______ _____ _____    ______ ____
ROOT
ATOM      1  N   UNL     1       4.520  22.654 -14.438  0.00  0.00    +0.000 N 
ENDROOT
BRANCH   1   6
ATOM      2  C   UNL     1      -1.078  22.783 -13.034  0.00  0.00    +0.000 C 
ATOM      3  C   UNL     1       0.379  22.769 -13.384  0.00  0.00    +0.000 A 
ATOM      4  C   UNL     1       0.851  23.445 -14.504  0.00  0.00    +0.000 A 
ATOM      5  C   UNL     1       2.213  23.405 -14.844  0.00  0.00    +0.000 A 
ATOM      6  C   UNL     1       3.160  22.674 -14.104  0.00  0.00    +0.000 A 
ATOM      7  C   UNL     1       2.648  22.005 -12.977  0.00  0.00    +0.000 A 
ATOM      8  C   UNL     1       1.289  22.039 -12.625  0.00  0.00    +0.000 A 
ENDBRANCH   1   6
BRANCH   1   9
ATOM      9  C   UNL     1       5.134  21.418 -14.981  0.00  0.00    +0.000 C 
BRANCH   9  10
ATOM     10  C   UNL     1       4.450  20.931 -16.282  0.00  0.00    +0.000 C 
ATOM     11  C   UNL     1       5.187  21.447 -17.512  0.00  0.00    +0.000 C 
BRANCH  10  12
ATOM     12  O   UNL     1       4.428  19.498 -16.347  0.00  0.00    +0.000 OA
ATOM     13  H   UNL     1       3.763  19.178 -15.715  0.00  0.00    +0.000 HD
ENDBRANCH  10  12
ENDBRANCH   9  10
ENDBRANCH   1   9
BRANCH   1  14
ATOM     14  C   UNL     1       5.478  23.607 -13.821  0.00  0.00    +0.000 C 
BRANCH  14  15
ATOM     15  C   UNL     1       6.129  23.034 -12.539  0.00  0.00    +0.000 C 
ATOM     16  C   UNL     1       7.636  23.257 -12.481  0.00  0.00    +0.000 C 
BRANCH  15  17
ATOM     17  O   UNL     1       5.554  23.593 -11.360  0.00  0.00    +0.000 OA
ATOM     18  H   UNL     1       5.749  22.947 -10.652  0.00  0.00    +0.000 HD
ENDBRANCH  15  17
ENDBRANCH  14  15
ENDBRANCH   1  14
TORSDOF 7
ENDMDL
MODEL 6
REMARK VINA RESULT:    -3.349      2.183      5.112
REMARK INTER + INTRA:          -5.116
REMARK INTER:                  -4.581
REMARK INTRA:                  -0.535
REMARK UNBOUND:                -0.592
REMARK  Name = 
REMARK  10 active torsions:
REMARK  status: ('A' for Active; 'I' for Inactive)
REMARK    1  A    between atoms: C_1  and  C_2
REMARK    2  A    between atoms: C_5  and  N_8
REMARK    3  A    between atoms: N_8  and  C_9
REMARK    4  A    between atoms: N_8  and  C_13
REMARK    5  A    between atoms: C_9  and  C_10
REMARK    6  A    between atoms: C_10  and  C_11
REMARK    7  A    between atoms: C_10  and  O_12
REMARK    8  A    between atoms: C_13  and  C_14
REMARK    9  A    between atoms: C_14  and  C_15
REMARK   10  A    between atoms: C_14  and  O_16
REMARK                            x       y       z     vdW  Elec       q    Type
REMARK                         _______ _______ _______ _____ _____    ______ ____
ROOT
ATOM      1  N   UNL     1       5.482  22.389 -15.421  0.00  0.00    +0.000 N 
ENDROOT
BRANCH   1   6
ATOM      2  C   UNL     1      10.274  21.870 -12.244  0.00  0.00    +0.000 C 
ATOM      3  C   UNL     1       9.044  22.003 -13.089  0.00  0.00    +0.000 A 
ATOM      4  C   UNL     1       8.571  23.254 -13.470  0.00  0.00    +0.000 A 
ATOM      5  C   UNL     1       7.401  23.374 -14.237  0.00  0.00    +0.000 A 
ATOM      6  C   UNL     1       6.638  22.263 -14.640  0.00  0.00    +0.000 A 
ATOM      7  C   UNL     1       7.147  21.014 -14.238  0.00  0.00    +0.000 A 
ATOM      8  C   UNL     1       8.317  20.880 -13.473  0.00  0.00    +0.000 A 
ENDBRANCH   1   6
BRANCH   1   9
ATOM      9  C   UNL     1       4.189  22.736 -14.785  0.00  0.00    +0.000 C 
BRANCH   9  10
ATOM     10  C   UNL     1       4.024  22.109 -13.379  0.00  0.00    +0.000 C 
ATOM     11  C   UNL     1       3.849  23.189 -12.318  0.00  0.00    +0.000 C 
BRANCH  10  12
ATOM     12  O   UNL     1       2.877  21.248 -13.330  0.00  0.00    +0.000 OA
ATOM     13  H   UNL     1       2.758  20.957 -12.411  0.00  0.00    +0.000 HD
ENDBRANCH  10  12
ENDBRANCH   9  10
ENDBRANCH   1   9
BRANCH   1  14
ATOM     14  C   UNL     1       5.368  21.714 -16.739  0.00  0.00    +0.000 C 
BRANCH  14  15
ATOM     15  C   UNL     1       4.125  20.796 -16.821  0.00  0.00    +0.000 C 
ATOM     16  C   UNL     1       3.615  20.602 -18.244  0.00  0.00    +0.000 C 
BRANCH  15  17
ATOM     17  O   UNL     1       4.383  19.508 -16.264  0.00  0.00    +0.000 OA
ATOM     18  H   UNL     1       3.505  19.166 -16.000  0.00  0.00    +0.000 HD
ENDBRANCH  15  17
ENDBRANCH  14  15
ENDBRANCH   1  14
TORSDOF 7
ENDMDL
MODEL 7
REMARK VINA RESULT:    -3.188     20.238     21.663
REMARK INTER + INTRA:          -4.897
REMARK INTER:                  -4.725
REMARK INTRA:                  -0.172
REMARK UNBOUND:                -0.592
REMARK  Name = 
REMARK  10 active torsions:
REMARK  status: ('A' for Active; 'I' for Inactive)
REMARK    1  A    between atoms: C_1  and  C_2
REMARK    2  A    between atoms: C_5  and  N_8
REMARK    3  A    between atoms: N_8  and  C_9
REMARK    4  A    between atoms: N_8  and  C_13
REMARK    5  A    between atoms: C_9  and  C_10
REMARK    6  A    between atoms: C_10  and  C_11
REMARK    7  A    between atoms: C_10  and  O_12
REMARK    8  A    between atoms: C_13  and  C_14
REMARK    9  A    between atoms: C_14  and  C_15
REMARK   10  A    between atoms: C_14  and  O_16
REMARK                            x       y       z     vdW  Elec       q    Type
REMARK                         _______ _______ _______ _____ _____    ______ ____
ROOT
ATOM      1  N   UNL     1     -10.700   5.158 -15.946  0.00  0.00    +0.000 N 
ENDROOT
BRANCH   1   6
ATOM      2  C   UNL     1     -10.204  10.687 -17.531  0.00  0.00    +0.000 C 
ATOM      3  C   UNL     1     -10.340   9.247 -17.142  0.00  0.00    +0.000 A 
ATOM      4  C   UNL     1     -11.520   8.766 -16.585  0.00  0.00    +0.000 A 
ATOM      5  C   UNL     1     -11.632   7.421 -16.195  0.00  0.00    +0.000 A 
ATOM      6  C   UNL     1     -10.574   6.503 -16.319  0.00  0.00    +0.000 A 
ATOM      7  C   UNL     1      -9.398   7.023 -16.888  0.00  0.00    +0.000 A 
ATOM      8  C   UNL     1      -9.273   8.365 -17.284  0.00  0.00    +0.000 A 
ENDBRANCH   1   6
BRANCH   1   9
ATOM      9  C   UNL     1     -10.507   4.758 -14.531  0.00  0.00    +0.000 C 
BRANCH   9  10
ATOM     10  C   UNL     1     -10.532   5.963 -13.558  0.00  0.00    +0.000 C 
ATOM     11  C   UNL     1     -11.278   5.612 -12.276  0.00  0.00    +0.000 C 
BRANCH  10  12
ATOM     12  O   UNL     1      -9.202   6.365 -13.202  0.00  0.00    +0.000 OA
ATOM     13  H   UNL     1      -8.816   5.669 -12.644  0.00  0.00    +0.000 HD
ENDBRANCH  10  12
ENDBRANCH   9  10
ENDBRANCH   1   9
BRANCH   1  14
ATOM     14  C   UNL     1     -10.513   4.066 -16.934  0.00  0.00    +0.000 C 
BRANCH  14  15
ATOM     15  C   UNL     1      -9.637   2.917 -16.378  0.00  0.00    +0.000 C 
ATOM     16  C   UNL     1     -10.256   1.539 -16.579  0.00  0.00    +0.000 C 
BRANCH  15  17
ATOM     17  O   UNL     1      -8.339   2.909 -16.971  0.00  0.00    +0.000 OA
ATOM     18  H   UNL     1      -8.218   1.997 -17.301  0.00  0.00    +0.000 HD
ENDBRANCH  15  17
ENDBRANCH  14  15
ENDBRANCH   1  14
TORSDOF 7
ENDMDL
MODEL 8
REMARK VINA RESULT:    -3.121     12.307     14.208
REMARK INTER + INTRA:          -4.807
REMARK INTER:                  -4.211
REMARK INTRA:                  -0.596
REMARK UNBOUND:                -0.592
REMARK  Name = 
REMARK  10 active torsions:
REMARK  status: ('A' for Active; 'I' for Inactive)
REMARK    1  A    between atoms: C_1  and  C_2
REMARK    2  A    between atoms: C_5  and  N_8
REMARK    3  A    between atoms: N_8  and  C_9
REMARK    4  A    between atoms: N_8  and  C_13
REMARK    5  A    between atoms: C_9  and  C_10
REMARK    6  A    between atoms: C_10  and  C_11
REMARK    7  A    between atoms: C_10  and  O_12
REMARK    8  A    between atoms: C_13  and  C_14
REMARK    9  A    between atoms: C_14  and  C_15
REMARK   10  A    between atoms: C_14  and  O_16
REMARK                            x       y       z     vdW  Elec       q    Type
REMARK                         _______ _______ _______ _____ _____    ______ ____
ROOT
ATOM      1  N   UNL     1      -9.306  20.786 -15.908  0.00  0.00    +0.000 N 
ENDROOT
BRANCH   1   6
ATOM      2  C   UNL     1      -9.782  15.076 -16.611  0.00  0.00    +0.000 C 
ATOM      3  C   UNL     1      -9.683  16.560 -16.433  0.00  0.00    +0.000 A 
ATOM      4  C   UNL     1      -9.391  17.391 -17.509  0.00  0.00    +0.000 A 
ATOM      5  C   UNL     1      -9.270  18.779 -17.330  0.00  0.00    +0.000 A 
ATOM      6  C   UNL     1      -9.409  19.400 -16.076  0.00  0.00    +0.000 A 
ATOM      7  C   UNL     1      -9.706  18.529 -15.011  0.00  0.00    +0.000 A 
ATOM      8  C   UNL     1      -9.832  17.140 -15.176  0.00  0.00    +0.000 A 
ENDBRANCH   1   6
BRANCH   1   9
ATOM      9  C   UNL     1      -8.260  21.352 -15.021  0.00  0.00    +0.000 C 
BRANCH   9  10
ATOM     10  C   UNL     1      -8.358  22.892 -14.885  0.00  0.00    +0.000 C 
ATOM     11  C   UNL     1      -7.841  23.353 -13.528  0.00  0.00    +0.000 C 
BRANCH  10  12
ATOM     12  O   UNL     1      -7.586  23.548 -15.901  0.00  0.00    +0.000 OA
ATOM     13  H   UNL     1      -6.806  23.945 -15.477  0.00  0.00    +0.000 HD
ENDBRANCH  10  12
ENDBRANCH   9  10
ENDBRANCH   1   9
BRANCH   1  14
ATOM     14  C   UNL     1     -10.468  21.679 -16.152  0.00  0.00    +0.000 C 
BRANCH  14  15
ATOM     15  C   UNL     1     -10.577  22.104 -17.636  0.00  0.00    +0.000 C 
ATOM     16  C   UNL     1     -11.443  23.341 -17.843  0.00  0.00    +0.000 C 
BRANCH  15  17
ATOM     17  O   UNL     1      -9.295  22.361 -18.206  0.00  0.00    +0.000 OA
ATOM     18  H   UNL     1      -9.475  22.597 -19.138  0.00  0.00    +0.000 HD
ENDBRANCH  15  17
ENDBRANCH  14  15
ENDBRANCH   1  14
TORSDOF 7
ENDMDL
