MODEL 1
REMARK VINA RESULT:    -3.550      0.000      0.000
REMARK INTER + INTRA:          -5.395
REMARK INTER:                  -4.795
REMARK INTRA:                  -0.600
REMARK UNBOUND:                -0.600
REMARK  Name = 
REMARK  10 active torsions:
REMARK  status: ('A' for Active; 'I' for Inactive)
REMARK    1  A    between atoms: C_1  and  C_2
REMARK    2  A    between atoms: C_5  and  N_8
REMARK    3  A    between atoms: N_8  and  C_9
REMARK    4  A    between atoms: N_8  and  C_13
REMARK    5  A    between atoms: C_9  and  C_10
REMARK    6  A    between atoms: C_10  and  C_11
REMARK    7  A    between atoms: C_10  and  O_12
REMARK    8  A    between atoms: C_13  and  C_14
REMARK    9  A    between atoms: C_14  and  C_15
REMARK   10  A    between atoms: C_14  and  O_16
REMARK                            x       y       z     vdW  Elec       q    Type
REMARK                         _______ _______ _______ _____ _____    ______ ____
ROOT
ATOM      1  N   UNL     1       4.552  22.042 -14.320  0.00  0.00    +0.000 N 
ENDROOT
BRANCH   1   6
ATOM      2  C   UNL     1      -0.723  23.234 -12.299  0.00  0.00    +0.000 C 
ATOM      3  C   UNL     1       0.655  22.943 -12.809  0.00  0.00    +0.000 A 
ATOM      4  C   UNL     1       1.134  23.556 -13.962  0.00  0.00    +0.000 A 
ATOM      5  C   UNL     1       2.416  23.256 -14.452  0.00  0.00    +0.000 A 
ATOM      6  C   UNL     1       3.267  22.321 -13.836  0.00  0.00    +0.000 A 
ATOM      7  C   UNL     1       2.751  21.723 -12.672  0.00  0.00    +0.000 A 
ATOM      8  C   UNL     1       1.472  22.015 -12.170  0.00  0.00    +0.000 A 
ENDBRANCH   1   6
BRANCH   1   9
ATOM      9  C   UNL     1       5.715  22.070 -13.400  0.00  0.00    +0.000 C 
BRANCH   9  10
ATOM     10  C   UNL     1       7.034  21.642 -14.088  0.00  0.00    +0.000 C 
ATOM     11  C   UNL     1       8.243  22.160 -13.319  0.00  0.00    +0.000 C 
BRANCH  10  12
ATOM     12  O   UNL     1       7.134  20.213 -14.163  0.00  0.00    +0.000 OA
ATOM     13  H   UNL     1       6.344  19.879 -14.619  0.00  0.00    +0.000 HD
ENDBRANCH  10  12
ENDBRANCH   9  10
ENDBRANCH   1   9
BRANCH   1  14
ATOM     14  C   UNL     1       4.887  22.216 -15.756  0.00  0.00    +0.000 C 
BRANCH  14  15
ATOM     15  C   UNL     1       4.340  21.060 -16.628  0.00  0.00    +0.000 C 
ATOM     16  C   UNL     1       4.944  21.026 -18.027  0.00  0.00    +0.000 C 
BRANCH  15  17
ATOM     17  O   UNL     1       4.563  19.789 -16.020  0.00  0.00    +0.000 OA
ATOM     18  H   UNL     1       3.690  19.519 -15.671  0.00  0.00    +0.000 HD
ENDBRANCH  15  17
ENDBRANCH  14  15
ENDBRANCH   1  14
TORSDOF 7
ENDMDL
MODEL 2
REMARK VINA RESULT:    -3.544      1.700      5.738
REMARK INTER + INTRA:          -5.387
REMARK INTER:                  -4.614
REMARK INTRA:                  -0.773
REMARK UNBOUND:                -0.600
REMARK  Name = 
REMARK  10 active torsions:
REMARK  status: ('A' for Active; 'I' for Inactive)
REMARK    1  A    between atoms: C_1  and  C_2
REMARK    2  A    between atoms: C_5  and  N_8
REMARK    3  A    between atoms: N_8  and  C_9
REMARK    4  A    between atoms: N_8  and  C_13
REMARK    5  A    between atoms: C_9  and  C_10
REMARK    6  A    between atoms: C_10  and  C_11
REMARK    7  A    between atoms: C_10  and  O_12
REMARK    8  A    between atoms: C_13  and  C_14
REMARK    9  A    between atoms: C_14  and  C_15
REMARK   10  A    between atoms: C_14  and  O_16
REMARK                            x       y       z     vdW  Elec       q    Type
REMARK                         _______ _______ _______ _____ _____    ______ ____
ROOT
ATOM      1  N   UNL     1       5.380  22.371 -14.644  0.00  0.00    +0.000 N 
ENDROOT
BRANCH   1   6
ATOM      2  C   UNL     1      10.493  21.533 -12.096  0.00  0.00    +0.000 C 
ATOM      3  C   UNL     1       9.155  21.742 -12.737  0.00  0.00    +0.000 A 
ATOM      4  C   UNL     1       8.556  20.736 -13.487  0.00  0.00    +0.000 A 
ATOM      5  C   UNL     1       7.315  20.948 -14.110  0.00  0.00    +0.000 A 
ATOM      6  C   UNL     1       6.626  22.172 -14.036  0.00  0.00    +0.000 A 
ATOM      7  C   UNL     1       7.260  23.166 -13.268  0.00  0.00    +0.000 A 
ATOM      8  C   UNL     1       8.499  22.966 -12.638  0.00  0.00    +0.000 A 
ENDBRANCH   1   6
BRANCH   1   9
ATOM      9  C   UNL     1       5.268  22.385 -16.122  0.00  0.00    +0.000 C 
BRANCH   9  10
ATOM     10  C   UNL     1       4.349  21.264 -16.665  0.00  0.00    +0.000 C 
ATOM     11  C   UNL     1       4.722  20.898 -18.097  0.00  0.00    +0.000 C 
BRANCH  10  12
ATOM     12  O   UNL     1       4.452  20.079 -15.863  0.00  0.00    +0.000 OA
ATOM     13  H   UNL     1       3.621  19.583 -15.949  0.00  0.00    +0.000 HD
ENDBRANCH  10  12
ENDBRANCH   9  10
ENDBRANCH   1   9
BRANCH   1  14
ATOM     14  C   UNL     1       4.276  23.059 -13.927  0.00  0.00    +0.000 C 
BRANCH  14  15
ATOM     15  C   UNL     1       3.648  22.169 -12.829  0.00  0.00    +0.000 C 
ATOM     16  C   UNL     1       2.674  22.922 -11.930  0.00  0.00    +0.000 C 
BRANCH  15  17
ATOM     17  O   UNL     1       2.959  21.051 -13.387  0.00  0.00    +0.000 OA
ATOM     18  H   UNL     1       2.416  21.424 -14.110  0.00  0.00    +0.000 HD
ENDBRANCH  15  17
ENDBRANCH  14  15
ENDBRANCH   1  14
TORSDOF 7
ENDMDL
MODEL 3
REMARK VINA RESULT:    -3.441     14.135     15.207
REMARK INTER + INTRA:          -5.248
REMARK INTER:                  -4.956
REMARK INTRA:                  -0.291
REMARK UNBOUND:                -0.600
REMARK  Name = 
REMARK  10 active torsions:
REMARK  status: ('A' for Active; 'I' for Inactive)
REMARK    1  A    between atoms: C_1  and  C_2
REMARK    2  A    between atoms: C_5  and  N_8
REMARK    3  A    between atoms: N_8  and  C_9
REMARK    4  A    between atoms: N_8  and  C_13
REMARK    5  A    between atoms: C_9  and  C_10
REMARK    6  A    between atoms: C_10  and  C_11
REMARK    7  A    between atoms: C_10  and  O_12
REMARK    8  A    between atoms: C_13  and  C_14
REMARK    9  A    between atoms: C_14  and  C_15
REMARK   10  A    between atoms: C_14  and  O_16
REMARK                            x       y       z     vdW  Elec       q    Type
REMARK                         _______ _______ _______ _____ _____    ______ ____
ROOT
ATOM      1  N   UNL     1      -9.686  16.537 -17.035  0.00  0.00    +0.000 N 
ENDROOT
BRANCH   1   6
ATOM      2  C   UNL     1     -10.336  22.217 -17.844  0.00  0.00    +0.000 C 
ATOM      3  C   UNL     1     -10.190  20.742 -17.623  0.00  0.00    +0.000 A 
ATOM      4  C   UNL     1      -9.554  20.250 -16.488  0.00  0.00    +0.000 A 
ATOM      5  C   UNL     1      -9.393  18.867 -16.300  0.00  0.00    +0.000 A 
ATOM      6  C   UNL     1      -9.833  17.915 -17.238  0.00  0.00    +0.000 A 
ATOM      7  C   UNL     1     -10.472  18.449 -18.372  0.00  0.00    +0.000 A 
ATOM      8  C   UNL     1     -10.641  19.829 -18.571  0.00  0.00    +0.000 A 
ENDBRANCH   1   6
BRANCH   1   9
ATOM      9  C   UNL     1      -9.620  15.618 -18.197  0.00  0.00    +0.000 C 
BRANCH   9  10
ATOM     10  C   UNL     1      -9.287  14.161 -17.791  0.00  0.00    +0.000 C 
ATOM     11  C   UNL     1     -10.177  13.172 -18.533  0.00  0.00    +0.000 C 
BRANCH  10  12
ATOM     12  O   UNL     1      -7.921  13.843 -18.092  0.00  0.00    +0.000 OA
ATOM     13  H   UNL     1      -7.418  13.861 -17.261  0.00  0.00    +0.000 HD
ENDBRANCH  10  12
ENDBRANCH   9  10
ENDBRANCH   1   9
BRANCH   1  14
ATOM     14  C   UNL     1     -10.095  15.900 -15.757  0.00  0.00    +0.000 C 
BRANCH  14  15
ATOM     15  C   UNL     1      -8.951  15.896 -14.714  0.00  0.00    +0.000 C 
ATOM     16  C   UNL     1      -9.320  16.605 -13.417  0.00  0.00    +0.000 C 
BRANCH  15  17
ATOM     17  O   UNL     1      -8.538  14.569 -14.391  0.00  0.00    +0.000 OA
ATOM     18  H   UNL     1      -8.178  14.631 -13.483  0.00  0.00    +0.000 HD
ENDBRANCH  15  17
ENDBRANCH  14  15
ENDBRANCH   1  14
TORSDOF 7
ENDMDL
MODEL 4
REMARK VINA RESULT:    -3.417     20.004     21.542
REMARK INTER + INTRA:          -5.215
REMARK INTER:                  -4.604
REMARK INTRA:                  -0.612
REMARK UNBOUND:                -0.600
REMARK  Name = 
REMARK  10 active torsions:
REMARK  status: ('A' for Active; 'I' for Inactive)
REMARK    1  A    between atoms: C_1  and  C_2
REMARK    2  A    between atoms: C_5  and  N_8
REMARK    3  A    between atoms: N_8  and  C_9
REMARK    4  A    between atoms: N_8  and  C_13
REMARK    5  A    between atoms: C_9  and  C_10
REMARK    6  A    between atoms: C_10  and  C_11
REMARK    7  A    between atoms: C_10  and  O_12
REMARK    8  A    between atoms: C_13  and  C_14
REMARK    9  A    between atoms: C_14  and  C_15
REMARK   10  A    between atoms: C_14  and  O_16
REMARK                            x       y       z     vdW  Elec       q    Type
REMARK                         _______ _______ _______ _____ _____    ______ ____
ROOT
ATOM      1  N   UNL     1     -10.550   5.897 -16.161  0.00  0.00    +0.000 N 
ENDROOT
BRANCH   1   6
ATOM      2  C   UNL     1      -8.886  10.975 -18.347  0.00  0.00    +0.000 C 
ATOM      3  C   UNL     1      -9.328   9.651 -17.802  0.00  0.00    +0.000 A 
ATOM      4  C   UNL     1     -10.559   9.514 -17.169  0.00  0.00    +0.000 A 
ATOM      5  C   UNL     1     -10.955   8.278 -16.633  0.00  0.00    +0.000 A 
ATOM      6  C   UNL     1     -10.141   7.132 -16.680  0.00  0.00    +0.000 A 
ATOM      7  C   UNL     1      -8.905   7.306 -17.329  0.00  0.00    +0.000 A 
ATOM      8  C   UNL     1      -8.497   8.537 -17.871  0.00  0.00    +0.000 A 
ENDBRANCH   1   6
BRANCH   1   9
ATOM      9  C   UNL     1     -10.396   4.663 -16.968  0.00  0.00    +0.000 C 
BRANCH   9  10
ATOM     10  C   UNL     1     -10.493   3.373 -16.117  0.00  0.00    +0.000 C 
ATOM     11  C   UNL     1     -10.710   2.151 -17.002  0.00  0.00    +0.000 C 
BRANCH  10  12
ATOM     12  O   UNL     1      -9.293   3.165 -15.360  0.00  0.00    +0.000 OA
ATOM     13  H   UNL     1      -9.203   3.899 -14.730  0.00  0.00    +0.000 HD
ENDBRANCH  10  12
ENDBRANCH   9  10
ENDBRANCH   1   9
BRANCH   1  14
ATOM     14  C   UNL     1     -11.572   5.816 -15.085  0.00  0.00    +0.000 C 
BRANCH  14  15
ATOM     15  C   UNL     1     -10.940   5.872 -13.674  0.00  0.00    +0.000 C 
ATOM     16  C   UNL     1     -11.429   4.760 -12.753  0.00  0.00    +0.000 C 
BRANCH  15  17
ATOM     17  O   UNL     1      -9.516   5.803 -13.731  0.00  0.00    +0.000 OA
ATOM     18  H   UNL     1      -9.246   6.579 -14.263  0.00  0.00    +0.000 HD
ENDBRANCH  15  17
ENDBRANCH  14  15
ENDBRANCH   1  14
TORSDOF 7
ENDMDL
MODEL 5
REMARK VINA RESULT:    -3.333      2.177      5.080
REMARK INTER + INTRA:          -5.102
REMARK INTER:                  -4.590
REMARK INTRA:                  -0.512
REMARK UNBOUND:                -0.600
REMARK  Name = 
REMARK  10 active torsions:
REMARK  status: ('A' for Active; 'I' for Inactive)
REMARK    1  A    between atoms: C_1  and  C_2
REMARK    2  A    between atoms: C_5  and  N_8
REMARK    3  A    between atoms: N_8  and  C_9
REMARK    4  A    between atoms: N_8  and  C_13
REMARK    5  A    between atoms: C_9  and  C_10
REMARK    6  A    between atoms: C_10  and  C_11
REMARK    7  A    between atoms: C_10  and  O_12
REMARK    8  A    between atoms: C_13  and  C_14
REMARK    9  A    between atoms: C_14  and  C_15
REMARK   10  A    between atoms: C_14  and  O_16
REMARK                            x       y       z     vdW  Elec       q    Type
REMARK                         _______ _______ _______ _____ _____    ______ ____
ROOT
ATOM      1  N   UNL     1       5.417  22.380 -15.436  0.00  0.00    +0.000 N 
ENDROOT
BRANCH   1   6
ATOM      2  C   UNL     1      10.178  21.957 -12.198  0.00  0.00    +0.000 C 
ATOM      3  C   UNL     1       8.956  22.066 -13.059  0.00  0.00    +0.000 A 
ATOM      4  C   UNL     1       8.447  23.308 -13.422  0.00  0.00    +0.000 A 
ATOM      5  C   UNL     1       7.285  23.405 -14.205  0.00  0.00    +0.000 A 
ATOM      6  C   UNL     1       6.565  22.278 -14.640  0.00  0.00    +0.000 A 
ATOM      7  C   UNL     1       7.109  21.038 -14.255  0.00  0.00    +0.000 A 
ATOM      8  C   UNL     1       8.272  20.928 -13.475  0.00  0.00    +0.000 A 
ENDBRANCH   1   6
BRANCH   1   9
ATOM      9  C   UNL     1       4.099  22.647 -14.810  0.00  0.00    +0.000 C 
BRANCH   9  10
ATOM     10  C   UNL     1       3.960  22.004 -13.408  0.00  0.00    +0.000 C 
ATOM     11  C   UNL     1       3.827  23.073 -12.329  0.00  0.00    +0.000 C 
BRANCH  10  12
ATOM     12  O   UNL     1       2.802  21.160 -13.343  0.00  0.00    +0.000 OA
ATOM     13  H   UNL     1       2.032  21.719 -13.149  0.00  0.00    +0.000 HD
ENDBRANCH  10  12
ENDBRANCH   9  10
ENDBRANCH   1   9
BRANCH   1  14
ATOM     14  C   UNL     1       5.353  21.749 -16.779  0.00  0.00    +0.000 C 
BRANCH  14  15
ATOM     15  C   UNL     1       4.143  20.795 -16.920  0.00  0.00    +0.000 C 
ATOM     16  C   UNL     1       3.709  20.586 -18.366  0.00  0.00    +0.000 C 
BRANCH  15  17
ATOM     17  O   UNL     1       4.410  19.516 -16.349  0.00  0.00    +0.000 OA
ATOM     18  H   UNL     1       5.231  19.637 -15.830  0.00  0.00    +0.000 HD
ENDBRANCH  15  17
ENDBRANCH  14  15
ENDBRANCH   1  14
TORSDOF 7
ENDMDL
MODEL 6
REMARK VINA RESULT:    -3.308      0.930      3.222
REMARK INTER + INTRA:          -5.067
REMARK INTER:                  -4.744
REMARK INTRA:                  -0.323
REMARK UNBOUND:                -0.600
REMARK  Name = 
REMARK  10 active torsions:
REMARK  status: ('A' for Active; 'I' for Inactive)
REMARK    1  A    between atoms: C_1  and  C_2
REMARK    2  A    between atoms: C_5  and  N_8
REMARK    3  A    between atoms: N_8  and  C_9
REMARK    4  A    between atoms: N_8  and  C_13
REMARK    5  A    between atoms: C_9  and  C_10
REMARK    6  A    between atoms: C_10  and  C_11
REMARK    7  A    between atoms: C_10  and  O_12
REMARK    8  A    between atoms: C_13  and  C_14
REMARK    9  A    between atoms: C_14  and  C_15
REMARK   10  A    between atoms: C_14  and  O_16
REMARK                            x       y       z     vdW  Elec       q    Type
REMARK                         _______ _______ _______ _____ _____    ______ ____
ROOT
ATOM      1  N   UNL     1       5.158  21.992 -14.894  0.00  0.00    +0.000 N 
ENDROOT
BRANCH   1   6
ATOM      2  C   UNL     1       0.228  23.018 -12.071  0.00  0.00    +0.000 C 
ATOM      3  C   UNL     1       1.519  22.769 -12.789  0.00  0.00    +0.000 A 
ATOM      4  C   UNL     1       1.837  23.468 -13.949  0.00  0.00    +0.000 A 
ATOM      5  C   UNL     1       3.035  23.208 -14.635  0.00  0.00    +0.000 A 
ATOM      6  C   UNL     1       3.956  22.232 -14.216  0.00  0.00    +0.000 A 
ATOM      7  C   UNL     1       3.603  21.547 -13.039  0.00  0.00    +0.000 A 
ATOM      8  C   UNL     1       2.410  21.798 -12.342  0.00  0.00    +0.000 A 
ENDBRANCH   1   6
BRANCH   1   9
ATOM      9  C   UNL     1       5.160  21.827 -16.368  0.00  0.00    +0.000 C 
BRANCH   9  10
ATOM     10  C   UNL     1       4.143  20.765 -16.854  0.00  0.00    +0.000 C 
ATOM     11  C   UNL     1       4.179  20.631 -18.372  0.00  0.00    +0.000 C 
BRANCH  10  12
ATOM     12  O   UNL     1       4.432  19.479 -16.287  0.00  0.00    +0.000 OA
ATOM     13  H   UNL     1       5.274  19.169 -16.659  0.00  0.00    +0.000 HD
ENDBRANCH  10  12
ENDBRANCH   9  10
ENDBRANCH   1   9
BRANCH   1  14
ATOM     14  C   UNL     1       6.329  21.400 -14.198  0.00  0.00    +0.000 C 
BRANCH  14  15
ATOM     15  C   UNL     1       7.640  22.159 -14.511  0.00  0.00    +0.000 C 
ATOM     16  C   UNL     1       8.390  22.602 -13.261  0.00  0.00    +0.000 C 
BRANCH  15  17
ATOM     17  O   UNL     1       8.529  21.373 -15.304  0.00  0.00    +0.000 OA
ATOM     18  H   UNL     1       9.405  21.479 -14.883  0.00  0.00    +0.000 HD
ENDBRANCH  15  17
ENDBRANCH  14  15
ENDBRANCH   1  14
TORSDOF 7
ENDMDL
MODEL 7
REMARK VINA RESULT:    -3.252     18.090     19.587
REMARK INTER + INTRA:          -4.992
REMARK INTER:                  -4.327
REMARK INTRA:                  -0.665
REMARK UNBOUND:                -0.600
REMARK  Name = 
REMARK  10 active torsions:
REMARK  status: ('A' for Active; 'I' for Inactive)
REMARK    1  A    between atoms: C_1  and  C_2
REMARK    2  A    between atoms: C_5  and  N_8
REMARK    3  A    between atoms: N_8  and  C_9
REMARK    4  A    between atoms: N_8  and  C_13
REMARK    5  A    between atoms: C_9  and  C_10
REMARK    6  A    between atoms: C_10  and  C_11
REMARK    7  A    between atoms: C_10  and  O_12
REMARK    8  A    between atoms: C_13  and  C_14
REMARK    9  A    between atoms: C_14  and  C_15
REMARK   10  A    between atoms: C_14  and  O_16
REMARK                            x       y       z     vdW  Elec       q    Type
REMARK                         _______ _______ _______ _____ _____    ______ ____
ROOT
ATOM      1  N   UNL     1      -9.905   8.249 -16.949  0.00  0.00    +0.000 N 
ENDROOT
BRANCH   1   6
ATOM      2  C   UNL     1     -11.483  13.790 -17.325  0.00  0.00    +0.000 C 
ATOM      3  C   UNL     1     -11.092  12.346 -17.244  0.00  0.00    +0.000 A 
ATOM      4  C   UNL     1     -11.631  11.514 -16.269  0.00  0.00    +0.000 A 
ATOM      5  C   UNL     1     -11.238  10.168 -16.178  0.00  0.00    +0.000 A 
ATOM      6  C   UNL     1     -10.278   9.597 -17.033  0.00  0.00    +0.000 A 
ATOM      7  C   UNL     1      -9.755  10.467 -18.007  0.00  0.00    +0.000 A 
ATOM      8  C   UNL     1     -10.141  11.813 -18.110  0.00  0.00    +0.000 A 
ENDBRANCH   1   6
BRANCH   1   9
ATOM      9  C   UNL     1     -10.915   7.218 -16.610  0.00  0.00    +0.000 C 
BRANCH   9  10
ATOM     10  C   UNL     1     -10.436   6.252 -15.499  0.00  0.00    +0.000 C 
ATOM     11  C   UNL     1     -11.543   5.999 -14.482  0.00  0.00    +0.000 C 
BRANCH  10  12
ATOM     12  O   UNL     1     -10.042   4.988 -16.050  0.00  0.00    +0.000 OA
ATOM     13  H   UNL     1      -9.146   4.787 -15.733  0.00  0.00    +0.000 HD
ENDBRANCH  10  12
ENDBRANCH   9  10
ENDBRANCH   1   9
BRANCH   1  14
ATOM     14  C   UNL     1      -8.498   7.856 -16.683  0.00  0.00    +0.000 C 
BRANCH  14  15
ATOM     15  C   UNL     1      -7.806   7.275 -17.940  0.00  0.00    +0.000 C 
ATOM     16  C   UNL     1      -6.363   7.739 -18.099  0.00  0.00    +0.000 C 
BRANCH  15  17
ATOM     17  O   UNL     1      -7.812   5.848 -17.932  0.00  0.00    +0.000 OA
ATOM     18  H   UNL     1      -7.139   5.589 -18.593  0.00  0.00    +0.000 HD
ENDBRANCH  15  17
ENDBRANCH  14  15
ENDBRANCH   1  14
TORSDOF 7
ENDMDL
MODEL 8
REMARK VINA RESULT:    -3.186     20.420     21.829
REMARK INTER + INTRA:          -4.903
REMARK INTER:                  -4.556
REMARK INTRA:                  -0.347
REMARK UNBOUND:                -0.600
REMARK  Name = 
REMARK  10 active torsions:
REMARK  status: ('A' for Active; 'I' for Inactive)
REMARK    1  A    between atoms: C_1  and  C_2
REMARK    2  A    between atoms: C_5  and  N_8
REMARK    3  A    between atoms: N_8  and  C_9
REMARK    4  A    between atoms: N_8  and  C_13
REMARK    5  A    between atoms: C_9  and  C_10
REMARK    6  A    between atoms: C_10  and  C_11
REMARK    7  A    between atoms: C_10  and  O_12
REMARK    8  A    between atoms: C_13  and  C_14
REMARK    9  A    between atoms: C_14  and  C_15
REMARK   10  A    between atoms: C_14  and  O_16
REMARK                            x       y       z     vdW  Elec       q    Type
REMARK                         _______ _______ _______ _____ _____    ______ ____
ROOT
ATOM      1  N   UNL     1     -10.733   5.144 -16.321  0.00  0.00    +0.000 N 
ENDROOT
BRANCH   1   6
ATOM      2  C   UNL     1      -9.995  10.619 -17.999  0.00  0.00    +0.000 C 
ATOM      3  C   UNL     1     -10.188   9.191 -17.588  0.00  0.00    +0.000 A 
ATOM      4  C   UNL     1     -11.459   8.687 -17.331  0.00  0.00    +0.000 A 
ATOM      5  C   UNL     1     -11.631   7.356 -16.916  0.00  0.00    +0.000 A 
ATOM      6  C   UNL     1     -10.552   6.476 -16.715  0.00  0.00    +0.000 A 
ATOM      7  C   UNL     1      -9.283   7.019 -16.986  0.00  0.00    +0.000 A 
ATOM      8  C   UNL     1      -9.097   8.347 -17.403  0.00  0.00    +0.000 A 
ENDBRANCH   1   6
BRANCH   1   9
ATOM      9  C   UNL     1     -11.315   4.835 -14.993  0.00  0.00    +0.000 C 
BRANCH   9  10
ATOM     10  C   UNL     1     -10.842   5.811 -13.888  0.00  0.00    +0.000 C 
ATOM     11  C   UNL     1     -11.483   5.470 -12.548  0.00  0.00    +0.000 C 
BRANCH  10  12
ATOM     12  O   UNL     1      -9.418   5.754 -13.726  0.00  0.00    +0.000 OA
ATOM     13  H   UNL     1      -9.009   6.113 -14.530  0.00  0.00    +0.000 HD
ENDBRANCH  10  12
ENDBRANCH   9  10
ENDBRANCH   1   9
BRANCH   1  14
ATOM     14  C   UNL     1      -9.927   4.049 -16.919  0.00  0.00    +0.000 C 
BRANCH  14  15
ATOM     15  C   UNL     1      -9.901   2.787 -16.024  0.00  0.00    +0.000 C 
ATOM     16  C   UNL     1     -10.484   1.555 -16.707  0.00  0.00    +0.000 C 
BRANCH  15  17
ATOM     17  O   UNL     1      -8.577   2.470 -15.598  0.00  0.00    +0.000 OA
ATOM     18  H   UNL     1      -8.028   3.224 -15.896  0.00  0.00    +0.000 HD
ENDBRANCH  15  17
ENDBRANCH  14  15
ENDBRANCH   1  14
TORSDOF 7
ENDMDL
