MODEL 1
REMARK VINA RESULT:    -3.491      0.000      0.000
REMARK INTER + INTRA:          -5.343
REMARK INTER:                  -4.716
REMARK INTRA:                  -0.628
REMARK UNBOUND:                -0.628
REMARK  Name = 
REMARK  10 active torsions:
REMARK  status: ('A' for Active; 'I' for Inactive)
REMARK    1  A    between atoms: C_1  and  C_2
REMARK    2  A    between atoms: C_5  and  N_8
REMARK    3  A    between atoms: N_8  and  C_9
REMARK    4  A    between atoms: N_8  and  C_13
REMARK    5  A    between atoms: C_9  and  C_10
REMARK    6  A    between atoms: C_10  and  C_11
REMARK    7  A    between atoms: C_10  and  O_12
REMARK    8  A    between atoms: C_13  and  C_14
REMARK    9  A    between atoms: C_14  and  C_15
REMARK   10  A    between atoms: C_14  and  O_16
REMARK                            x       y       z     vdW  Elec       q    Type
REMARK                         _______ _______ _______ _____ _____    ______ ____
ROOT
ATOM      1  N   UNL     1       4.550  22.124 -14.199  0.00  0.00    +0.000 N 
ENDROOT
BRANCH   1   6
ATOM      2  C   UNL     1      -0.724  23.234 -12.129  0.00  0.00    +0.000 C 
ATOM      3  C   UNL     1       0.635  22.929 -12.681  0.00  0.00    +0.000 A 
ATOM      4  C   UNL     1       1.460  21.989 -12.071  0.00  0.00    +0.000 A 
ATOM      5  C   UNL     1       2.744  21.729 -12.575  0.00  0.00    +0.000 A 
ATOM      6  C   UNL     1       3.276  22.403 -13.689  0.00  0.00    +0.000 A 
ATOM      7  C   UNL     1       2.414  23.344 -14.282  0.00  0.00    +0.000 A 
ATOM      8  C   UNL     1       1.126  23.613 -13.789  0.00  0.00    +0.000 A 
ENDBRANCH   1   6
BRANCH   1   9
ATOM      9  C   UNL     1       5.716  22.051 -13.286  0.00  0.00    +0.000 C 
BRANCH   9  10
ATOM     10  C   UNL     1       7.030  21.686 -14.018  0.00  0.00    +0.000 C 
ATOM     11  C   UNL     1       8.244  22.160 -13.229  0.00  0.00    +0.000 C 
BRANCH  10  12
ATOM     12  O   UNL     1       7.142  20.267 -14.197  0.00  0.00    +0.000 OA
ATOM     13  H   UNL     1       6.497  19.996 -14.871  0.00  0.00    +0.000 HD
ENDBRANCH  10  12
ENDBRANCH   9  10
ENDBRANCH   1   9
BRANCH   1  14
ATOM     14  C   UNL     1       4.886  22.395 -15.620  0.00  0.00    +0.000 C 
BRANCH  14  15
ATOM     15  C   UNL     1       4.402  21.266 -16.561  0.00  0.00    +0.000 C 
ATOM     16  C   UNL     1       5.126  21.250 -17.902  0.00  0.00    +0.000 C 
BRANCH  15  17
ATOM     17  O   UNL     1       4.553  19.980 -15.962  0.00  0.00    +0.000 OA
ATOM     18  H   UNL     1       5.056  20.142 -15.138  0.00  0.00    +0.000 HD
ENDBRANCH  15  17
ENDBRANCH  14  15
ENDBRANCH   1  14
TORSDOF 7
ENDMDL
MODEL 2
REMARK VINA RESULT:    -3.491      1.687      5.676
REMARK INTER + INTRA:          -5.343
REMARK INTER:                  -4.570
REMARK INTRA:                  -0.773
REMARK UNBOUND:                -0.628
REMARK  Name = 
REMARK  10 active torsions:
REMARK  status: ('A' for Active; 'I' for Inactive)
REMARK    1  A    between atoms: C_1  and  C_2
REMARK    2  A    between atoms: C_5  and  N_8
REMARK    3  A    between atoms: N_8  and  C_9
REMARK    4  A    between atoms: N_8  and  C_13
REMARK    5  A    between atoms: C_9  and  C_10
REMARK    6  A    between atoms: C_10  and  C_11
REMARK    7  A    between atoms: C_10  and  O_12
REMARK    8  A    between atoms: C_13  and  C_14
REMARK    9  A    between atoms: C_14  and  C_15
REMARK   10  A    between atoms: C_14  and  O_16
REMARK                            x       y       z     vdW  Elec       q    Type
REMARK                         _______ _______ _______ _____ _____    ______ ____
ROOT
ATOM      1  N   UNL     1       5.389  22.334 -14.693  0.00  0.00    +0.000 N 
ENDROOT
BRANCH   1   6
ATOM      2  C   UNL     1      10.493  21.635 -12.088  0.00  0.00    +0.000 C 
ATOM      3  C   UNL     1       9.157  21.809 -12.743  0.00  0.00    +0.000 A 
ATOM      4  C   UNL     1       8.579  20.775 -13.472  0.00  0.00    +0.000 A 
ATOM      5  C   UNL     1       7.340  20.954 -14.109  0.00  0.00    +0.000 A 
ATOM      6  C   UNL     1       6.633  22.169 -14.071  0.00  0.00    +0.000 A 
ATOM      7  C   UNL     1       7.246  23.191 -13.323  0.00  0.00    +0.000 A 
ATOM      8  C   UNL     1       8.483  23.025 -12.679  0.00  0.00    +0.000 A 
ENDBRANCH   1   6
BRANCH   1   9
ATOM      9  C   UNL     1       5.290  22.326 -16.172  0.00  0.00    +0.000 C 
BRANCH   9  10
ATOM     10  C   UNL     1       4.399  21.179 -16.708  0.00  0.00    +0.000 C 
ATOM     11  C   UNL     1       4.825  20.769 -18.113  0.00  0.00    +0.000 C 
BRANCH  10  12
ATOM     12  O   UNL     1       4.485  20.023 -15.863  0.00  0.00    +0.000 OA
ATOM     13  H   UNL     1       3.686  19.994 -15.311  0.00  0.00    +0.000 HD
ENDBRANCH  10  12
ENDBRANCH   9  10
ENDBRANCH   1   9
BRANCH   1  14
ATOM     14  C   UNL     1       4.265  23.010 -13.995  0.00  0.00    +0.000 C 
BRANCH  14  15
ATOM     15  C   UNL     1       3.668  22.137 -12.866  0.00  0.00    +0.000 C 
ATOM     16  C   UNL     1       2.691  22.895 -11.974  0.00  0.00    +0.000 C 
BRANCH  15  17
ATOM     17  O   UNL     1       2.994  20.992 -13.385  0.00  0.00    +0.000 OA
ATOM     18  H   UNL     1       3.382  20.232 -12.907  0.00  0.00    +0.000 HD
ENDBRANCH  15  17
ENDBRANCH  14  15
ENDBRANCH   1  14
TORSDOF 7
ENDMDL
MODEL 3
REMARK VINA RESULT:    -3.435     14.222     15.379
REMARK INTER + INTRA:          -5.268
REMARK INTER:                  -4.944
REMARK INTRA:                  -0.323
REMARK UNBOUND:                -0.628
REMARK  Name = 
REMARK  10 active torsions:
REMARK  status: ('A' for Active; 'I' for Inactive)
REMARK    1  A    between atoms: C_1  and  C_2
REMARK    2  A    between atoms: C_5  and  N_8
REMARK    3  A    between atoms: N_8  and  C_9
REMARK    4  A    between atoms: N_8  and  C_13
REMARK    5  A    between atoms: C_9  and  C_10
REMARK    6  A    between atoms: C_10  and  C_11
REMARK    7  A    between atoms: C_10  and  O_12
REMARK    8  A    between atoms: C_13  and  C_14
REMARK    9  A    between atoms: C_14  and  C_15
REMARK   10  A    between atoms: C_14  and  O_16
REMARK                            x       y       z     vdW  Elec       q    Type
REMARK                         _______ _______ _______ _____ _____    ______ ____
ROOT
ATOM      1  N   UNL     1      -9.605  15.971 -17.044  0.00  0.00    +0.000 N 
ENDROOT
BRANCH   1   6
ATOM      2  C   UNL     1     -10.687  21.457 -18.477  0.00  0.00    +0.000 C 
ATOM      3  C   UNL     1     -10.389  20.033 -18.123  0.00  0.00    +0.000 A 
ATOM      4  C   UNL     1     -11.085  18.987 -18.720  0.00  0.00    +0.000 A 
ATOM      5  C   UNL     1     -10.822  17.655 -18.362  0.00  0.00    +0.000 A 
ATOM      6  C   UNL     1      -9.876  17.303 -17.382  0.00  0.00    +0.000 A 
ATOM      7  C   UNL     1      -9.190  18.385 -16.801  0.00  0.00    +0.000 A 
ATOM      8  C   UNL     1      -9.442  19.722 -17.151  0.00  0.00    +0.000 A 
ENDBRANCH   1   6
BRANCH   1   9
ATOM      9  C   UNL     1      -9.478  14.945 -18.107  0.00  0.00    +0.000 C 
BRANCH   9  10
ATOM     10  C   UNL     1      -8.881  13.614 -17.588  0.00  0.00    +0.000 C 
ATOM     11  C   UNL     1      -9.648  12.420 -18.143  0.00  0.00    +0.000 C 
BRANCH  10  12
ATOM     12  O   UNL     1      -7.507  13.479 -17.977  0.00  0.00    +0.000 OA
ATOM     13  H   UNL     1      -6.954  13.683 -17.205  0.00  0.00    +0.000 HD
ENDBRANCH  10  12
ENDBRANCH   9  10
ENDBRANCH   1   9
BRANCH   1  14
ATOM     14  C   UNL     1      -9.935  15.437 -15.698  0.00  0.00    +0.000 C 
BRANCH  14  15
ATOM     15  C   UNL     1      -8.852  15.787 -14.649  0.00  0.00    +0.000 C 
ATOM     16  C   UNL     1      -9.382  16.637 -13.500  0.00  0.00    +0.000 C 
BRANCH  15  17
ATOM     17  O   UNL     1      -8.257  14.615 -14.093  0.00  0.00    +0.000 OA
ATOM     18  H   UNL     1      -8.969  13.944 -14.099  0.00  0.00    +0.000 HD
ENDBRANCH  15  17
ENDBRANCH  14  15
ENDBRANCH   1  14
TORSDOF 7
ENDMDL
MODEL 4
REMARK VINA RESULT:    -3.320     20.354     21.876
REMARK INTER + INTRA:          -5.113
REMARK INTER:                  -4.480
REMARK INTRA:                  -0.633
REMARK UNBOUND:                -0.628
REMARK  Name = 
REMARK  10 active torsions:
REMARK  status: ('A' for Active; 'I' for Inactive)
REMARK    1  A    between atoms: C_1  and  C_2
REMARK    2  A    between atoms: C_5  and  N_8
REMARK    3  A    between atoms: N_8  and  C_9
REMARK    4  A    between atoms: N_8  and  C_13
REMARK    5  A    between atoms: C_9  and  C_10
REMARK    6  A    between atoms: C_10  and  C_11
REMARK    7  A    between atoms: C_10  and  O_12
REMARK    8  A    between atoms: C_13  and  C_14
REMARK    9  A    between atoms: C_14  and  C_15
REMARK   10  A    between atoms: C_14  and  O_16
REMARK                            x       y       z     vdW  Elec       q    Type
REMARK                         _______ _______ _______ _____ _____    ______ ____
ROOT
ATOM      1  N   UNL     1     -10.591   5.489 -16.316  0.00  0.00    +0.000 N 
ENDROOT
BRANCH   1   6
ATOM      2  C   UNL     1      -9.346  10.727 -18.400  0.00  0.00    +0.000 C 
ATOM      3  C   UNL     1      -9.666   9.376 -17.836  0.00  0.00    +0.000 A 
ATOM      4  C   UNL     1      -8.666   8.433 -17.630  0.00  0.00    +0.000 A 
ATOM      5  C   UNL     1      -8.976   7.158 -17.129  0.00  0.00    +0.000 A 
ATOM      6  C   UNL     1     -10.291   6.755 -16.834  0.00  0.00    +0.000 A 
ATOM      7  C   UNL     1     -11.276   7.735 -17.052  0.00  0.00    +0.000 A 
ATOM      8  C   UNL     1     -10.980   9.015 -17.550  0.00  0.00    +0.000 A 
ENDBRANCH   1   6
BRANCH   1   9
ATOM      9  C   UNL     1     -10.289   4.272 -17.108  0.00  0.00    +0.000 C 
BRANCH   9  10
ATOM     10  C   UNL     1     -10.212   2.994 -16.237  0.00  0.00    +0.000 C 
ATOM     11  C   UNL     1     -10.135   1.745 -17.108  0.00  0.00    +0.000 C 
BRANCH  10  12
ATOM     12  O   UNL     1      -9.054   3.017 -15.391  0.00  0.00    +0.000 OA
ATOM     13  H   UNL     1      -8.358   3.519 -15.846  0.00  0.00    +0.000 HD
ENDBRANCH  10  12
ENDBRANCH   9  10
ENDBRANCH   1   9
BRANCH   1  14
ATOM     14  C   UNL     1     -11.632   5.312 -15.271  0.00  0.00    +0.000 C 
BRANCH  14  15
ATOM     15  C   UNL     1     -11.095   5.621 -13.853  0.00  0.00    +0.000 C 
ATOM     16  C   UNL     1     -11.603   4.650 -12.795  0.00  0.00    +0.000 C 
BRANCH  15  17
ATOM     17  O   UNL     1      -9.669   5.609 -13.815  0.00  0.00    +0.000 OA
ATOM     18  H   UNL     1      -9.435   4.775 -13.359  0.00  0.00    +0.000 HD
ENDBRANCH  15  17
ENDBRANCH  14  15
ENDBRANCH   1  14
TORSDOF 7
ENDMDL
MODEL 5
REMARK VINA RESULT:    -3.296     20.732     22.016
REMARK INTER + INTRA:          -5.080
REMARK INTER:                  -4.368
REMARK INTRA:                  -0.712
REMARK UNBOUND:                -0.628
REMARK  Name = 
REMARK  10 active torsions:
REMARK  status: ('A' for Active; 'I' for Inactive)
REMARK    1  A    between atoms: C_1  and  C_2
REMARK    2  A    between atoms: C_5  and  N_8
REMARK    3  A    between atoms: N_8  and  C_9
REMARK    4  A    between atoms: N_8  and  C_13
REMARK    5  A    between atoms: C_9  and  C_10
REMARK    6  A    between atoms: C_10  and  C_11
REMARK    7  A    between atoms: C_10  and  O_12
REMARK    8  A    between atoms: C_13  and  C_14
REMARK    9  A    between atoms: C_14  and  C_15
REMARK   10  A    between atoms: C_14  and  O_16
REMARK                            x       y       z     vdW  Elec       q    Type
REMARK                         _______ _______ _______ _____ _____    ______ ____
ROOT
ATOM      1  N   UNL     1     -10.312   5.557 -16.968  0.00  0.00    +0.000 N 
ENDROOT
BRANCH   1   6
ATOM      2  C   UNL     1     -11.632   4.758 -11.405  0.00  0.00    +0.000 C 
ATOM      3  C   UNL     1     -11.268   4.953 -12.845  0.00  0.00    +0.000 A 
ATOM      4  C   UNL     1     -10.611   6.105 -13.266  0.00  0.00    +0.000 A 
ATOM      5  C   UNL     1     -10.299   6.297 -14.622  0.00  0.00    +0.000 A 
ATOM      6  C   UNL     1     -10.644   5.369 -15.621  0.00  0.00    +0.000 A 
ATOM      7  C   UNL     1     -11.305   4.216 -15.159  0.00  0.00    +0.000 A 
ATOM      8  C   UNL     1     -11.621   4.010 -13.806  0.00  0.00    +0.000 A 
ENDBRANCH   1   6
BRANCH   1   9
ATOM      9  C   UNL     1     -10.504   6.884 -17.603  0.00  0.00    +0.000 C 
BRANCH   9  10
ATOM     10  C   UNL     1      -9.166   7.574 -17.966  0.00  0.00    +0.000 C 
ATOM     11  C   UNL     1      -9.194   9.050 -17.588  0.00  0.00    +0.000 C 
BRANCH  10  12
ATOM     12  O   UNL     1      -8.067   6.960 -17.280  0.00  0.00    +0.000 OA
ATOM     13  H   UNL     1      -7.410   6.691 -17.943  0.00  0.00    +0.000 HD
ENDBRANCH  10  12
ENDBRANCH   9  10
ENDBRANCH   1   9
BRANCH   1  14
ATOM     14  C   UNL     1     -10.262   4.414 -17.915  0.00  0.00    +0.000 C 
BRANCH  14  15
ATOM     15  C   UNL     1      -9.003   3.538 -17.708  0.00  0.00    +0.000 C 
ATOM     16  C   UNL     1      -9.071   2.207 -18.447  0.00  0.00    +0.000 C 
BRANCH  15  17
ATOM     17  O   UNL     1      -7.817   4.214 -18.123  0.00  0.00    +0.000 OA
ATOM     18  H   UNL     1      -7.396   4.517 -17.293  0.00  0.00    +0.000 HD
ENDBRANCH  15  17
ENDBRANCH  14  15
ENDBRANCH   1  14
TORSDOF 7
ENDMDL
MODEL 6
REMARK VINA RESULT:    -3.277      0.974      3.212
REMARK INTER + INTRA:          -5.054
REMARK INTER:                  -4.714
REMARK INTRA:                  -0.340
REMARK UNBOUND:                -0.628
REMARK  Name = 
REMARK  10 active torsions:
REMARK  status: ('A' for Active; 'I' for Inactive)
REMARK    1  A    between atoms: C_1  and  C_2
REMARK    2  A    between atoms: C_5  and  N_8
REMARK    3  A    between atoms: N_8  and  C_9
REMARK    4  A    between atoms: N_8  and  C_13
REMARK    5  A    between atoms: C_9  and  C_10
REMARK    6  A    between atoms: C_10  and  C_11
REMARK    7  A    between atoms: C_10  and  O_12
REMARK    8  A    between atoms: C_13  and  C_14
REMARK    9  A    between atoms: C_14  and  C_15
REMARK   10  A    between atoms: C_14  and  O_16
REMARK                            x       y       z     vdW  Elec       q    Type
REMARK                         _______ _______ _______ _____ _____    ______ ____
ROOT
ATOM      1  N   UNL     1       5.206  21.991 -14.812  0.00  0.00    +0.000 N 
ENDROOT
BRANCH   1   6
ATOM      2  C   UNL     1       0.254  23.031 -12.033  0.00  0.00    +0.000 C 
ATOM      3  C   UNL     1       1.527  22.745 -12.769  0.00  0.00    +0.000 A 
ATOM      4  C   UNL     1       2.400  21.756 -12.329  0.00  0.00    +0.000 A 
ATOM      5  C   UNL     1       3.606  21.512 -13.005  0.00  0.00    +0.000 A 
ATOM      6  C   UNL     1       4.011  22.252 -14.131  0.00  0.00    +0.000 A 
ATOM      7  C   UNL     1       3.103  23.243 -14.549  0.00  0.00    +0.000 A 
ATOM      8  C   UNL     1       1.892  23.495 -13.883  0.00  0.00    +0.000 A 
ENDBRANCH   1   6
BRANCH   1   9
ATOM      9  C   UNL     1       5.199  21.809 -16.283  0.00  0.00    +0.000 C 
BRANCH   9  10
ATOM     10  C   UNL     1       4.133  20.790 -16.757  0.00  0.00    +0.000 C 
ATOM     11  C   UNL     1       4.059  20.747 -18.279  0.00  0.00    +0.000 C 
BRANCH  10  12
ATOM     12  O   UNL     1       4.440  19.470 -16.289  0.00  0.00    +0.000 OA
ATOM     13  H   UNL     1       3.934  19.313 -15.475  0.00  0.00    +0.000 HD
ENDBRANCH  10  12
ENDBRANCH   9  10
ENDBRANCH   1   9
BRANCH   1  14
ATOM     14  C   UNL     1       6.373  21.392 -14.115  0.00  0.00    +0.000 C 
BRANCH  14  15
ATOM     15  C   UNL     1       7.689  22.145 -14.426  0.00  0.00    +0.000 C 
ATOM     16  C   UNL     1       8.475  22.522 -13.175  0.00  0.00    +0.000 C 
BRANCH  15  17
ATOM     17  O   UNL     1       8.546  21.381 -15.273  0.00  0.00    +0.000 OA
ATOM     18  H   UNL     1       8.374  20.449 -15.032  0.00  0.00    +0.000 HD
ENDBRANCH  15  17
ENDBRANCH  14  15
ENDBRANCH   1  14
TORSDOF 7
ENDMDL
MODEL 7
REMARK VINA RESULT:    -3.160     14.389     15.025
REMARK INTER + INTRA:          -4.896
REMARK INTER:                  -4.502
REMARK INTRA:                  -0.394
REMARK UNBOUND:                -0.628
REMARK  Name = 
REMARK  10 active torsions:
REMARK  status: ('A' for Active; 'I' for Inactive)
REMARK    1  A    between atoms: C_1  and  C_2
REMARK    2  A    between atoms: C_5  and  N_8
REMARK    3  A    between atoms: N_8  and  C_9
REMARK    4  A    between atoms: N_8  and  C_13
REMARK    5  A    between atoms: C_9  and  C_10
REMARK    6  A    between atoms: C_10  and  C_11
REMARK    7  A    between atoms: C_10  and  O_12
REMARK    8  A    between atoms: C_13  and  C_14
REMARK    9  A    between atoms: C_14  and  C_15
REMARK   10  A    between atoms: C_14  and  O_16
REMARK                            x       y       z     vdW  Elec       q    Type
REMARK                         _______ _______ _______ _____ _____    ______ ____
ROOT
ATOM      1  N   UNL     1      -9.686  16.857 -16.304  0.00  0.00    +0.000 N 
ENDROOT
BRANCH   1   6
ATOM      2  C   UNL     1     -10.047  22.597 -16.807  0.00  0.00    +0.000 C 
ATOM      3  C   UNL     1      -9.978  21.106 -16.675  0.00  0.00    +0.000 A 
ATOM      4  C   UNL     1      -9.850  20.504 -15.427  0.00  0.00    +0.000 A 
ATOM      5  C   UNL     1      -9.756  19.108 -15.312  0.00  0.00    +0.000 A 
ATOM      6  C   UNL     1      -9.761  18.250 -16.427  0.00  0.00    +0.000 A 
ATOM      7  C   UNL     1      -9.894  18.893 -17.672  0.00  0.00    +0.000 A 
ATOM      8  C   UNL     1      -9.991  20.288 -17.801  0.00  0.00    +0.000 A 
ENDBRANCH   1   6
BRANCH   1   9
ATOM      9  C   UNL     1      -9.501  16.238 -14.969  0.00  0.00    +0.000 C 
BRANCH   9  10
ATOM     10  C   UNL     1      -8.808  14.855 -15.040  0.00  0.00    +0.000 C 
ATOM     11  C   UNL     1      -8.013  14.578 -13.769  0.00  0.00    +0.000 C 
BRANCH  10  12
ATOM     12  O   UNL     1      -9.771  13.804 -15.200  0.00  0.00    +0.000 OA
ATOM     13  H   UNL     1      -9.424  13.174 -15.853  0.00  0.00    +0.000 HD
ENDBRANCH  10  12
ENDBRANCH   9  10
ENDBRANCH   1   9
BRANCH   1  14
ATOM     14  C   UNL     1      -9.278  16.004 -17.449  0.00  0.00    +0.000 C 
BRANCH  14  15
ATOM     15  C   UNL     1     -10.493  15.377 -18.173  0.00  0.00    +0.000 C 
ATOM     16  C   UNL     1     -10.212  13.983 -18.720  0.00  0.00    +0.000 C 
BRANCH  15  17
ATOM     17  O   UNL     1     -11.632  15.295 -17.318  0.00  0.00    +0.000 OA
ATOM     18  H   UNL     1     -11.264  15.233 -16.413  0.00  0.00    +0.000 HD
ENDBRANCH  15  17
ENDBRANCH  14  15
ENDBRANCH   1  14
TORSDOF 7
ENDMDL
MODEL 8
REMARK VINA RESULT:    -3.128     20.339     21.813
REMARK INTER + INTRA:          -4.853
REMARK INTER:                  -4.748
REMARK INTRA:                  -0.105
REMARK UNBOUND:                -0.628
REMARK  Name = 
REMARK  10 active torsions:
REMARK  status: ('A' for Active; 'I' for Inactive)
REMARK    1  A    between atoms: C_1  and  C_2
REMARK    2  A    between atoms: C_5  and  N_8
REMARK    3  A    between atoms: N_8  and  C_9
REMARK    4  A    between atoms: N_8  and  C_13
REMARK    5  A    between atoms: C_9  and  C_10
REMARK    6  A    between atoms: C_10  and  C_11
REMARK    7  A    between atoms: C_10  and  O_12
REMARK    8  A    between atoms: C_13  and  C_14
REMARK    9  A    between atoms: C_14  and  C_15
REMARK   10  A    between atoms: C_14  and  O_16
REMARK                            x       y       z     vdW  Elec       q    Type
REMARK                         _______ _______ _______ _____ _____    ______ ____
ROOT
ATOM      1  N   UNL     1     -10.869   5.380 -16.176  0.00  0.00    +0.000 N 
ENDROOT
BRANCH   1   6
ATOM      2  C   UNL     1     -10.144  10.929 -17.595  0.00  0.00    +0.000 C 
ATOM      3  C   UNL     1     -10.321   9.493 -17.205  0.00  0.00    +0.000 A 
ATOM      4  C   UNL     1      -9.377   8.535 -17.560  0.00  0.00    +0.000 A 
ATOM      5  C   UNL     1      -9.563   7.186 -17.218  0.00  0.00    +0.000 A 
ATOM      6  C   UNL     1     -10.700   6.724 -16.531  0.00  0.00    +0.000 A 
ATOM      7  C   UNL     1     -11.632   7.720 -16.187  0.00  0.00    +0.000 A 
ATOM      8  C   UNL     1     -11.458   9.074 -16.521  0.00  0.00    +0.000 A 
ENDBRANCH   1   6
BRANCH   1   9
ATOM      9  C   UNL     1     -11.465   5.027 -14.865  0.00  0.00    +0.000 C 
BRANCH   9  10
ATOM     10  C   UNL     1     -10.850   5.829 -13.691  0.00  0.00    +0.000 C 
ATOM     11  C   UNL     1     -11.230   5.211 -12.351  0.00  0.00    +0.000 C 
BRANCH  10  12
ATOM     12  O   UNL     1      -9.419   5.856 -13.779  0.00  0.00    +0.000 OA
ATOM     13  H   UNL     1      -9.063   5.909 -12.877  0.00  0.00    +0.000 HD
ENDBRANCH  10  12
ENDBRANCH   9  10
ENDBRANCH   1   9
BRANCH   1  14
ATOM     14  C   UNL     1     -10.044   4.311 -16.795  0.00  0.00    +0.000 C 
BRANCH  14  15
ATOM     15  C   UNL     1     -10.162   2.968 -16.036  0.00  0.00    +0.000 C 
ATOM     16  C   UNL     1     -10.565   1.805 -16.934  0.00  0.00    +0.000 C 
BRANCH  15  17
ATOM     17  O   UNL     1      -8.941   2.622 -15.385  0.00  0.00    +0.000 OA
ATOM     18  H   UNL     1      -8.236   2.906 -16.002  0.00  0.00    +0.000 HD
ENDBRANCH  15  17
ENDBRANCH  14  15
ENDBRANCH   1  14
TORSDOF 7
ENDMDL
MODEL 9
REMARK VINA RESULT:    -3.107     13.210     14.883
REMARK INTER + INTRA:          -4.824
REMARK INTER:                  -4.420
REMARK INTRA:                  -0.404
REMARK UNBOUND:                -0.628
REMARK  Name = 
REMARK  10 active torsions:
REMARK  status: ('A' for Active; 'I' for Inactive)
REMARK    1  A    between atoms: C_1  and  C_2
REMARK    2  A    between atoms: C_5  and  N_8
REMARK    3  A    between atoms: N_8  and  C_9
REMARK    4  A    between atoms: N_8  and  C_13
REMARK    5  A    between atoms: C_9  and  C_10
REMARK    6  A    between atoms: C_10  and  C_11
REMARK    7  A    between atoms: C_10  and  O_12
REMARK    8  A    between atoms: C_13  and  C_14
REMARK    9  A    between atoms: C_14  and  C_15
REMARK   10  A    between atoms: C_14  and  O_16
REMARK                            x       y       z     vdW  Elec       q    Type
REMARK                         _______ _______ _______ _____ _____    ______ ____
ROOT
ATOM      1  N   UNL     1      -9.550  20.573 -16.210  0.00  0.00    +0.000 N 
ENDROOT
BRANCH   1   6
ATOM      2  C   UNL     1      -9.612  14.809 -16.524  0.00  0.00    +0.000 C 
ATOM      3  C   UNL     1      -9.571  16.304 -16.439  0.00  0.00    +0.000 A 
ATOM      4  C   UNL     1      -9.753  16.956 -15.224  0.00  0.00    +0.000 A 
ATOM      5  C   UNL     1      -9.744  18.359 -15.155  0.00  0.00    +0.000 A 
ATOM      6  C   UNL     1      -9.578  19.175 -16.288  0.00  0.00    +0.000 A 
ATOM      7  C   UNL     1      -9.395  18.483 -17.499  0.00  0.00    +0.000 A 
ATOM      8  C   UNL     1      -9.400  17.080 -17.581  0.00  0.00    +0.000 A 
ENDBRANCH   1   6
BRANCH   1   9
ATOM      9  C   UNL     1      -9.567  21.388 -17.448  0.00  0.00    +0.000 C 
BRANCH   9  10
ATOM     10  C   UNL     1     -10.985  21.883 -17.822  0.00  0.00    +0.000 C 
ATOM     11  C   UNL     1     -10.926  23.245 -18.504  0.00  0.00    +0.000 C 
BRANCH  10  12
ATOM     12  O   UNL     1     -11.631  20.967 -18.717  0.00  0.00    +0.000 OA
ATOM     13  H   UNL     1     -11.108  20.148 -18.738  0.00  0.00    +0.000 HD
ENDBRANCH  10  12
ENDBRANCH   9  10
ENDBRANCH   1   9
BRANCH   1  14
ATOM     14  C   UNL     1      -9.004  21.266 -15.014  0.00  0.00    +0.000 C 
BRANCH  14  15
ATOM     15  C   UNL     1      -9.005  22.805 -15.179  0.00  0.00    +0.000 C 
ATOM     16  C   UNL     1      -9.991  23.506 -14.253  0.00  0.00    +0.000 C 
BRANCH  15  17
ATOM     17  O   UNL     1      -7.711  23.360 -14.949  0.00  0.00    +0.000 OA
ATOM     18  H   UNL     1      -7.101  22.809 -15.480  0.00  0.00    +0.000 HD
ENDBRANCH  15  17
ENDBRANCH  14  15
ENDBRANCH   1  14
TORSDOF 7
ENDMDL
