MODEL 1
REMARK VINA RESULT:    -3.556      0.000      0.000
REMARK INTER + INTRA:          -5.390
REMARK INTER:                  -4.803
REMARK INTRA:                  -0.587
REMARK UNBOUND:                -0.587
REMARK  Name = 
REMARK  10 active torsions:
REMARK  status: ('A' for Active; 'I' for Inactive)
REMARK    1  A    between atoms: C_1  and  C_2
REMARK    2  A    between atoms: C_5  and  N_8
REMARK    3  A    between atoms: N_8  and  C_9
REMARK    4  A    between atoms: N_8  and  C_13
REMARK    5  A    between atoms: C_9  and  C_10
REMARK    6  A    between atoms: C_10  and  C_11
REMARK    7  A    between atoms: C_10  and  O_12
REMARK    8  A    between atoms: C_13  and  C_14
REMARK    9  A    between atoms: C_14  and  C_15
REMARK   10  A    between atoms: C_14  and  O_16
REMARK                            x       y       z     vdW  Elec       q    Type
REMARK                         _______ _______ _______ _____ _____    ______ ____
ROOT
ATOM      1  N   UNL     1       4.583  22.044 -14.329  0.00  0.00    +0.000 N 
ENDROOT
BRANCH   1   6
ATOM      2  C   UNL     1      -0.729  23.151 -12.358  0.00  0.00    +0.000 C 
ATOM      3  C   UNL     1       0.640  22.845 -12.884  0.00  0.00    +0.000 A 
ATOM      4  C   UNL     1       1.474  21.949 -12.225  0.00  0.00    +0.000 A 
ATOM      5  C   UNL     1       2.768  21.689 -12.706  0.00  0.00    +0.000 A 
ATOM      6  C   UNL     1       3.299  22.322 -13.844  0.00  0.00    +0.000 A 
ATOM      7  C   UNL     1       2.427  23.221 -14.486  0.00  0.00    +0.000 A 
ATOM      8  C   UNL     1       1.130  23.488 -14.017  0.00  0.00    +0.000 A 
ENDBRANCH   1   6
BRANCH   1   9
ATOM      9  C   UNL     1       5.748  22.080 -13.413  0.00  0.00    +0.000 C 
BRANCH   9  10
ATOM     10  C   UNL     1       7.064  21.639 -14.098  0.00  0.00    +0.000 C 
ATOM     11  C   UNL     1       8.277  22.155 -13.332  0.00  0.00    +0.000 C 
BRANCH  10  12
ATOM     12  O   UNL     1       7.156  20.209 -14.164  0.00  0.00    +0.000 OA
ATOM     13  H   UNL     1       6.905  19.933 -15.061  0.00  0.00    +0.000 HD
ENDBRANCH  10  12
ENDBRANCH   9  10
ENDBRANCH   1   9
BRANCH   1  14
ATOM     14  C   UNL     1       4.914  22.211 -15.768  0.00  0.00    +0.000 C 
BRANCH  14  15
ATOM     15  C   UNL     1       4.358  21.056 -16.634  0.00  0.00    +0.000 C 
ATOM     16  C   UNL     1       4.957  21.014 -18.035  0.00  0.00    +0.000 C 
BRANCH  15  17
ATOM     17  O   UNL     1       4.576  19.786 -16.022  0.00  0.00    +0.000 OA
ATOM     18  H   UNL     1       4.776  19.987 -15.086  0.00  0.00    +0.000 HD
ENDBRANCH  15  17
ENDBRANCH  14  15
ENDBRANCH   1  14
TORSDOF 7
ENDMDL
MODEL 2
REMARK VINA RESULT:    -3.518      1.741      5.784
REMARK INTER + INTRA:          -5.339
REMARK INTER:                  -4.801
REMARK INTRA:                  -0.539
REMARK UNBOUND:                -0.587
REMARK  Name = 
REMARK  10 active torsions:
REMARK  status: ('A' for Active; 'I' for Inactive)
REMARK    1  A    between atoms: C_1  and  C_2
REMARK    2  A    between atoms: C_5  and  N_8
REMARK    3  A    between atoms: N_8  and  C_9
REMARK    4  A    between atoms: N_8  and  C_13
REMARK    5  A    between atoms: C_9  and  C_10
REMARK    6  A    between atoms: C_10  and  C_11
REMARK    7  A    between atoms: C_10  and  O_12
REMARK    8  A    between atoms: C_13  and  C_14
REMARK    9  A    between atoms: C_14  and  C_15
REMARK   10  A    between atoms: C_14  and  O_16
REMARK                            x       y       z     vdW  Elec       q    Type
REMARK                         _______ _______ _______ _____ _____    ______ ____
ROOT
ATOM      1  N   UNL     1       5.309  22.241 -14.539  0.00  0.00    +0.000 N 
ENDROOT
BRANCH   1   6
ATOM      2  C   UNL     1      10.492  21.557 -12.091  0.00  0.00    +0.000 C 
ATOM      3  C   UNL     1       9.158  21.743 -12.747  0.00  0.00    +0.000 A 
ATOM      4  C   UNL     1       8.435  22.918 -12.572  0.00  0.00    +0.000 A 
ATOM      5  C   UNL     1       7.171  23.076 -13.165  0.00  0.00    +0.000 A 
ATOM      6  C   UNL     1       6.561  22.069 -13.935  0.00  0.00    +0.000 A 
ATOM      7  C   UNL     1       7.322  20.896 -14.092  0.00  0.00    +0.000 A 
ATOM      8  C   UNL     1       8.588  20.727 -13.506  0.00  0.00    +0.000 A 
ENDBRANCH   1   6
BRANCH   1   9
ATOM      9  C   UNL     1       5.176  22.146 -16.013  0.00  0.00    +0.000 C 
BRANCH   9  10
ATOM     10  C   UNL     1       4.096  21.127 -16.454  0.00  0.00    +0.000 C 
ATOM     11  C   UNL     1       3.828  21.230 -17.950  0.00  0.00    +0.000 C 
BRANCH  10  12
ATOM     12  O   UNL     1       4.510  19.783 -16.168  0.00  0.00    +0.000 OA
ATOM     13  H   UNL     1       4.120  19.523 -15.317  0.00  0.00    +0.000 HD
ENDBRANCH  10  12
ENDBRANCH   9  10
ENDBRANCH   1   9
BRANCH   1  14
ATOM     14  C   UNL     1       4.225  22.997 -13.862  0.00  0.00    +0.000 C 
BRANCH  14  15
ATOM     15  C   UNL     1       3.614  22.209 -12.679  0.00  0.00    +0.000 C 
ATOM     16  C   UNL     1       2.636  23.034 -11.850  0.00  0.00    +0.000 C 
BRANCH  15  17
ATOM     17  O   UNL     1       2.936  21.035 -13.122  0.00  0.00    +0.000 OA
ATOM     18  H   UNL     1       3.530  20.637 -13.790  0.00  0.00    +0.000 HD
ENDBRANCH  15  17
ENDBRANCH  14  15
ENDBRANCH   1  14
TORSDOF 7
ENDMDL
MODEL 3
REMARK VINA RESULT:    -3.377     19.835     21.495
REMARK INTER + INTRA:          -5.149
REMARK INTER:                  -4.554
REMARK INTRA:                  -0.595
REMARK UNBOUND:                -0.587
REMARK  Name = 
REMARK  10 active torsions:
REMARK  status: ('A' for Active; 'I' for Inactive)
REMARK    1  A    between atoms: C_1  and  C_2
REMARK    2  A    between atoms: C_5  and  N_8
REMARK    3  A    between atoms: N_8  and  C_9
REMARK    4  A    between atoms: N_8  and  C_13
REMARK    5  A    between atoms: C_9  and  C_10
REMARK    6  A    between atoms: C_10  and  C_11
REMARK    7  A    between atoms: C_10  and  O_12
REMARK    8  A    between atoms: C_13  and  C_14
REMARK    9  A    between atoms: C_14  and  C_15
REMARK   10  A    between atoms: C_14  and  O_16
REMARK                            x       y       z     vdW  Elec       q    Type
REMARK                         _______ _______ _______ _____ _____    ______ ____
ROOT
ATOM      1  N   UNL     1     -10.710   6.148 -16.002  0.00  0.00    +0.000 N 
ENDROOT
BRANCH   1   6
ATOM      2  C   UNL     1      -9.845  11.463 -18.083  0.00  0.00    +0.000 C 
ATOM      3  C   UNL     1     -10.053  10.088 -17.525  0.00  0.00    +0.000 A 
ATOM      4  C   UNL     1      -9.305   9.010 -17.985  0.00  0.00    +0.000 A 
ATOM      5  C   UNL     1      -9.525   7.718 -17.480  0.00  0.00    +0.000 A 
ATOM      6  C   UNL     1     -10.509   7.435 -16.516  0.00  0.00    +0.000 A 
ATOM      7  C   UNL     1     -11.245   8.549 -16.072  0.00  0.00    +0.000 A 
ATOM      8  C   UNL     1     -11.034   9.847 -16.567  0.00  0.00    +0.000 A 
ENDBRANCH   1   6
BRANCH   1   9
ATOM      9  C   UNL     1     -10.449   4.960 -16.850  0.00  0.00    +0.000 C 
BRANCH   9  10
ATOM     10  C   UNL     1     -10.621   3.626 -16.083  0.00  0.00    +0.000 C 
ATOM     11  C   UNL     1     -10.914   2.479 -17.044  0.00  0.00    +0.000 C 
BRANCH  10  12
ATOM     12  O   UNL     1      -9.434   3.297 -15.349  0.00  0.00    +0.000 OA
ATOM     13  H   UNL     1      -9.033   2.513 -15.759  0.00  0.00    +0.000 HD
ENDBRANCH  10  12
ENDBRANCH   9  10
ENDBRANCH   1   9
BRANCH   1  14
ATOM     14  C   UNL     1     -11.632   5.910 -14.861  0.00  0.00    +0.000 C 
BRANCH  14  15
ATOM     15  C   UNL     1     -10.905   5.989 -13.497  0.00  0.00    +0.000 C 
ATOM     16  C   UNL     1     -11.333   4.895 -12.526  0.00  0.00    +0.000 C 
BRANCH  15  17
ATOM     17  O   UNL     1      -9.489   5.915 -13.649  0.00  0.00    +0.000 OA
ATOM     18  H   UNL     1      -9.293   6.440 -14.451  0.00  0.00    +0.000 HD
ENDBRANCH  15  17
ENDBRANCH  14  15
ENDBRANCH   1  14
TORSDOF 7
ENDMDL
MODEL 4
REMARK VINA RESULT:    -3.361      2.197      5.201
REMARK INTER + INTRA:          -5.127
REMARK INTER:                  -4.581
REMARK INTRA:                  -0.546
REMARK UNBOUND:                -0.587
REMARK  Name = 
REMARK  10 active torsions:
REMARK  status: ('A' for Active; 'I' for Inactive)
REMARK    1  A    between atoms: C_1  and  C_2
REMARK    2  A    between atoms: C_5  and  N_8
REMARK    3  A    between atoms: N_8  and  C_9
REMARK    4  A    between atoms: N_8  and  C_13
REMARK    5  A    between atoms: C_9  and  C_10
REMARK    6  A    between atoms: C_10  and  C_11
REMARK    7  A    between atoms: C_10  and  O_12
REMARK    8  A    between atoms: C_13  and  C_14
REMARK    9  A    between atoms: C_14  and  C_15
REMARK   10  A    between atoms: C_14  and  O_16
REMARK                            x       y       z     vdW  Elec       q    Type
REMARK                         _______ _______ _______ _____ _____    ______ ____
ROOT
ATOM      1  N   UNL     1       5.478  22.378 -15.415  0.00  0.00    +0.000 N 
ENDROOT
BRANCH   1   6
ATOM      2  C   UNL     1      10.251  21.786 -12.222  0.00  0.00    +0.000 C 
ATOM      3  C   UNL     1       9.027  21.939 -13.071  0.00  0.00    +0.000 A 
ATOM      4  C   UNL     1       8.536  23.199 -13.397  0.00  0.00    +0.000 A 
ATOM      5  C   UNL     1       7.370  23.337 -14.168  0.00  0.00    +0.000 A 
ATOM      6  C   UNL     1       6.629  22.234 -14.630  0.00  0.00    +0.000 A 
ATOM      7  C   UNL     1       7.155  20.976 -14.284  0.00  0.00    +0.000 A 
ATOM      8  C   UNL     1       8.321  20.825 -13.515  0.00  0.00    +0.000 A 
ENDBRANCH   1   6
BRANCH   1   9
ATOM      9  C   UNL     1       4.181  22.712 -14.779  0.00  0.00    +0.000 C 
BRANCH   9  10
ATOM     10  C   UNL     1       4.014  22.066 -13.382  0.00  0.00    +0.000 C 
ATOM     11  C   UNL     1       3.848  23.132 -12.305  0.00  0.00    +0.000 C 
BRANCH  10  12
ATOM     12  O   UNL     1       2.862  21.212 -13.343  0.00  0.00    +0.000 OA
ATOM     13  H   UNL     1       2.848  20.689 -14.161  0.00  0.00    +0.000 HD
ENDBRANCH  10  12
ENDBRANCH   9  10
ENDBRANCH   1   9
BRANCH   1  14
ATOM     14  C   UNL     1       5.372  21.733 -16.749  0.00  0.00    +0.000 C 
BRANCH  14  15
ATOM     15  C   UNL     1       4.139  20.804 -16.852  0.00  0.00    +0.000 C 
ATOM     16  C   UNL     1       3.670  20.586 -18.286  0.00  0.00    +0.000 C 
BRANCH  15  17
ATOM     17  O   UNL     1       4.392  19.525 -16.272  0.00  0.00    +0.000 OA
ATOM     18  H   UNL     1       5.304  19.583 -15.922  0.00  0.00    +0.000 HD
ENDBRANCH  15  17
ENDBRANCH  14  15
ENDBRANCH   1  14
TORSDOF 7
ENDMDL
MODEL 5
REMARK VINA RESULT:    -3.354      1.452      3.443
REMARK INTER + INTRA:          -5.117
REMARK INTER:                  -4.675
REMARK INTRA:                  -0.442
REMARK UNBOUND:                -0.587
REMARK  Name = 
REMARK  10 active torsions:
REMARK  status: ('A' for Active; 'I' for Inactive)
REMARK    1  A    between atoms: C_1  and  C_2
REMARK    2  A    between atoms: C_5  and  N_8
REMARK    3  A    between atoms: N_8  and  C_9
REMARK    4  A    between atoms: N_8  and  C_13
REMARK    5  A    between atoms: C_9  and  C_10
REMARK    6  A    between atoms: C_10  and  C_11
REMARK    7  A    between atoms: C_10  and  O_12
REMARK    8  A    between atoms: C_13  and  C_14
REMARK    9  A    between atoms: C_14  and  C_15
REMARK   10  A    between atoms: C_14  and  O_16
REMARK                            x       y       z     vdW  Elec       q    Type
REMARK                         _______ _______ _______ _____ _____    ______ ____
ROOT
ATOM      1  N   UNL     1       4.438  22.641 -14.447  0.00  0.00    +0.000 N 
ENDROOT
BRANCH   1   6
ATOM      2  C   UNL     1      -1.175  22.782 -13.104  0.00  0.00    +0.000 C 
ATOM      3  C   UNL     1       0.285  22.766 -13.439  0.00  0.00    +0.000 A 
ATOM      4  C   UNL     1       0.760  23.385 -14.590  0.00  0.00    +0.000 A 
ATOM      5  C   UNL     1       2.126  23.341 -14.915  0.00  0.00    +0.000 A 
ATOM      6  C   UNL     1       3.074  22.664 -14.128  0.00  0.00    +0.000 A 
ATOM      7  C   UNL     1       2.559  22.052 -12.970  0.00  0.00    +0.000 A 
ATOM      8  C   UNL     1       1.196  22.090 -12.633  0.00  0.00    +0.000 A 
ENDBRANCH   1   6
BRANCH   1   9
ATOM      9  C   UNL     1       5.057  21.401 -14.975  0.00  0.00    +0.000 C 
BRANCH   9  10
ATOM     10  C   UNL     1       4.422  20.934 -16.308  0.00  0.00    +0.000 C 
ATOM     11  C   UNL     1       5.207  21.467 -17.501  0.00  0.00    +0.000 C 
BRANCH  10  12
ATOM     12  O   UNL     1       4.401  19.502 -16.394  0.00  0.00    +0.000 OA
ATOM     13  H   UNL     1       5.241  19.167 -16.040  0.00  0.00    +0.000 HD
ENDBRANCH  10  12
ENDBRANCH   9  10
ENDBRANCH   1   9
BRANCH   1  14
ATOM     14  C   UNL     1       5.389  23.599 -13.828  0.00  0.00    +0.000 C 
BRANCH  14  15
ATOM     15  C   UNL     1       6.071  23.013 -12.568  0.00  0.00    +0.000 C 
ATOM     16  C   UNL     1       7.581  23.223 -12.551  0.00  0.00    +0.000 C 
BRANCH  15  17
ATOM     17  O   UNL     1       5.534  23.572 -11.370  0.00  0.00    +0.000 OA
ATOM     18  H   UNL     1       4.843  24.196 -11.670  0.00  0.00    +0.000 HD
ENDBRANCH  15  17
ENDBRANCH  14  15
ENDBRANCH   1  14
TORSDOF 7
ENDMDL
MODEL 6
REMARK VINA RESULT:    -3.304      0.888      3.208
REMARK INTER + INTRA:          -5.050
REMARK INTER:                  -4.710
REMARK INTRA:                  -0.339
REMARK UNBOUND:                -0.587
REMARK  Name = 
REMARK  10 active torsions:
REMARK  status: ('A' for Active; 'I' for Inactive)
REMARK    1  A    between atoms: C_1  and  C_2
REMARK    2  A    between atoms: C_5  and  N_8
REMARK    3  A    between atoms: N_8  and  C_9
REMARK    4  A    between atoms: N_8  and  C_13
REMARK    5  A    between atoms: C_9  and  C_10
REMARK    6  A    between atoms: C_10  and  C_11
REMARK    7  A    between atoms: C_10  and  O_12
REMARK    8  A    between atoms: C_13  and  C_14
REMARK    9  A    between atoms: C_14  and  C_15
REMARK   10  A    between atoms: C_14  and  O_16
REMARK                            x       y       z     vdW  Elec       q    Type
REMARK                         _______ _______ _______ _____ _____    ______ ____
ROOT
ATOM      1  N   UNL     1       5.140  22.013 -14.855  0.00  0.00    +0.000 N 
ENDROOT
BRANCH   1   6
ATOM      2  C   UNL     1       0.138  23.062 -12.169  0.00  0.00    +0.000 C 
ATOM      3  C   UNL     1       1.425  22.773 -12.881  0.00  0.00    +0.000 A 
ATOM      4  C   UNL     1       2.298  21.798 -12.411  0.00  0.00    +0.000 A 
ATOM      5  C   UNL     1       3.516  21.552 -13.065  0.00  0.00    +0.000 A 
ATOM      6  C   UNL     1       3.932  22.277 -14.197  0.00  0.00    +0.000 A 
ATOM      7  C   UNL     1       3.024  23.254 -14.645  0.00  0.00    +0.000 A 
ATOM      8  C   UNL     1       1.801  23.508 -14.002  0.00  0.00    +0.000 A 
ENDBRANCH   1   6
BRANCH   1   9
ATOM      9  C   UNL     1       5.157  21.814 -16.325  0.00  0.00    +0.000 C 
BRANCH   9  10
ATOM     10  C   UNL     1       4.135  20.752 -16.798  0.00  0.00    +0.000 C 
ATOM     11  C   UNL     1       4.121  20.649 -18.319  0.00  0.00    +0.000 C 
BRANCH  10  12
ATOM     12  O   UNL     1       4.454  19.458 -16.268  0.00  0.00    +0.000 OA
ATOM     13  H   UNL     1       5.364  19.241 -16.531  0.00  0.00    +0.000 HD
ENDBRANCH  10  12
ENDBRANCH   9  10
ENDBRANCH   1   9
BRANCH   1  14
ATOM     14  C   UNL     1       6.298  21.429 -14.133  0.00  0.00    +0.000 C 
BRANCH  14  15
ATOM     15  C   UNL     1       7.622  22.162 -14.461  0.00  0.00    +0.000 C 
ATOM     16  C   UNL     1       8.404  22.572 -13.219  0.00  0.00    +0.000 C 
BRANCH  15  17
ATOM     17  O   UNL     1       8.477  21.364 -15.278  0.00  0.00    +0.000 OA
ATOM     18  H   UNL     1       8.361  21.715 -16.184  0.00  0.00    +0.000 HD
ENDBRANCH  15  17
ENDBRANCH  14  15
ENDBRANCH   1  14
TORSDOF 7
ENDMDL
MODEL 7
REMARK VINA RESULT:    -3.202     15.054     17.268
REMARK INTER + INTRA:          -4.912
REMARK INTER:                  -4.242
REMARK INTRA:                  -0.670
REMARK UNBOUND:                -0.587
REMARK  Name = 
REMARK  10 active torsions:
REMARK  status: ('A' for Active; 'I' for Inactive)
REMARK    1  A    between atoms: C_1  and  C_2
REMARK    2  A    between atoms: C_5  and  N_8
REMARK    3  A    between atoms: N_8  and  C_9
REMARK    4  A    between atoms: N_8  and  C_13
REMARK    5  A    between atoms: C_9  and  C_10
REMARK    6  A    between atoms: C_10  and  C_11
REMARK    7  A    between atoms: C_10  and  O_12
REMARK    8  A    between atoms: C_13  and  C_14
REMARK    9  A    between atoms: C_14  and  C_15
REMARK   10  A    between atoms: C_14  and  O_16
REMARK                            x       y       z     vdW  Elec       q    Type
REMARK                         _______ _______ _______ _____ _____    ______ ____
ROOT
ATOM      1  N   UNL     1      -9.432  13.806 -17.235  0.00  0.00    +0.000 N 
ENDROOT
BRANCH   1   6
ATOM      2  C   UNL     1     -11.632   8.482 -16.859  0.00  0.00    +0.000 C 
ATOM      3  C   UNL     1     -11.044   9.857 -16.940  0.00  0.00    +0.000 A 
ATOM      4  C   UNL     1     -11.529  10.889 -16.143  0.00  0.00    +0.000 A 
ATOM      5  C   UNL     1     -10.995  12.184 -16.244  0.00  0.00    +0.000 A 
ATOM      6  C   UNL     1      -9.974  12.517 -17.153  0.00  0.00    +0.000 A 
ATOM      7  C   UNL     1      -9.507  11.449 -17.941  0.00  0.00    +0.000 A 
ATOM      8  C   UNL     1     -10.031  10.149 -17.848  0.00  0.00    +0.000 A 
ENDBRANCH   1   6
BRANCH   1   9
ATOM      9  C   UNL     1      -9.468  14.548 -18.519  0.00  0.00    +0.000 C 
BRANCH   9  10
ATOM     10  C   UNL     1     -10.354  15.816 -18.454  0.00  0.00    +0.000 C 
ATOM     11  C   UNL     1     -11.599  15.569 -17.611  0.00  0.00    +0.000 C 
BRANCH  10  12
ATOM     12  O   UNL     1      -9.637  16.915 -17.876  0.00  0.00    +0.000 OA
ATOM     13  H   UNL     1      -8.846  17.077 -18.417  0.00  0.00    +0.000 HD
ENDBRANCH  10  12
ENDBRANCH   9  10
ENDBRANCH   1   9
BRANCH   1  14
ATOM     14  C   UNL     1      -8.394  14.266 -16.278  0.00  0.00    +0.000 C 
BRANCH  14  15
ATOM     15  C   UNL     1      -9.010  14.854 -14.986  0.00  0.00    +0.000 C 
ATOM     16  C   UNL     1      -8.142  14.631 -13.752  0.00  0.00    +0.000 C 
BRANCH  15  17
ATOM     17  O   UNL     1      -9.252  16.254 -15.107  0.00  0.00    +0.000 OA
ATOM     18  H   UNL     1      -8.746  16.663 -14.376  0.00  0.00    +0.000 HD
ENDBRANCH  15  17
ENDBRANCH  14  15
ENDBRANCH   1  14
TORSDOF 7
ENDMDL
MODEL 8
REMARK VINA RESULT:    -3.166     20.229     21.712
REMARK INTER + INTRA:          -4.864
REMARK INTER:                  -4.702
REMARK INTRA:                  -0.162
REMARK UNBOUND:                -0.587
REMARK  Name = 
REMARK  10 active torsions:
REMARK  status: ('A' for Active; 'I' for Inactive)
REMARK    1  A    between atoms: C_1  and  C_2
REMARK    2  A    between atoms: C_5  and  N_8
REMARK    3  A    between atoms: N_8  and  C_9
REMARK    4  A    between atoms: N_8  and  C_13
REMARK    5  A    between atoms: C_9  and  C_10
REMARK    6  A    between atoms: C_10  and  C_11
REMARK    7  A    between atoms: C_10  and  O_12
REMARK    8  A    between atoms: C_13  and  C_14
REMARK    9  A    between atoms: C_14  and  C_15
REMARK   10  A    between atoms: C_14  and  O_16
REMARK                            x       y       z     vdW  Elec       q    Type
REMARK                         _______ _______ _______ _____ _____    ______ ____
ROOT
ATOM      1  N   UNL     1     -10.792   5.343 -16.256  0.00  0.00    +0.000 N 
ENDROOT
BRANCH   1   6
ATOM      2  C   UNL     1     -10.080  10.872 -17.756  0.00  0.00    +0.000 C 
ATOM      3  C   UNL     1     -10.256   9.443 -17.344  0.00  0.00    +0.000 A 
ATOM      4  C   UNL     1      -9.241   8.513 -17.539  0.00  0.00    +0.000 A 
ATOM      5  C   UNL     1      -9.423   7.168 -17.178  0.00  0.00    +0.000 A 
ATOM      6  C   UNL     1     -10.624   6.682 -16.632  0.00  0.00    +0.000 A 
ATOM      7  C   UNL     1     -11.628   7.650 -16.447  0.00  0.00    +0.000 A 
ATOM      8  C   UNL     1     -11.458   8.999 -16.801  0.00  0.00    +0.000 A 
ENDBRANCH   1   6
BRANCH   1   9
ATOM      9  C   UNL     1     -11.421   5.009 -14.956  0.00  0.00    +0.000 C 
BRANCH   9  10
ATOM     10  C   UNL     1     -10.852   5.844 -13.782  0.00  0.00    +0.000 C 
ATOM     11  C   UNL     1     -11.250   5.240 -12.441  0.00  0.00    +0.000 C 
BRANCH  10  12
ATOM     12  O   UNL     1      -9.420   5.900 -13.836  0.00  0.00    +0.000 OA
ATOM     13  H   UNL     1      -9.074   5.585 -12.985  0.00  0.00    +0.000 HD
ENDBRANCH  10  12
ENDBRANCH   9  10
ENDBRANCH   1   9
BRANCH   1  14
ATOM     14  C   UNL     1      -9.940   4.271 -16.832  0.00  0.00    +0.000 C 
BRANCH  14  15
ATOM     15  C   UNL     1     -10.006   2.965 -16.004  0.00  0.00    +0.000 C 
ATOM     16  C   UNL     1     -10.536   1.777 -16.798  0.00  0.00    +0.000 C 
BRANCH  15  17
ATOM     17  O   UNL     1      -8.728   2.610 -15.478  0.00  0.00    +0.000 OA
ATOM     18  H   UNL     1      -8.567   3.248 -14.754  0.00  0.00    +0.000 HD
ENDBRANCH  15  17
ENDBRANCH  14  15
ENDBRANCH   1  14
TORSDOF 7
ENDMDL
MODEL 9
REMARK VINA RESULT:    -2.110     14.104     15.257
REMARK INTER + INTRA:          -3.437
REMARK INTER:                  -3.140
REMARK INTRA:                  -0.297
REMARK UNBOUND:                -0.587
REMARK  Name = 
REMARK  10 active torsions:
REMARK  status: ('A' for Active; 'I' for Inactive)
REMARK    1  A    between atoms: C_1  and  C_2
REMARK    2  A    between atoms: C_5  and  N_8
REMARK    3  A    between atoms: N_8  and  C_9
REMARK    4  A    between atoms: N_8  and  C_13
REMARK    5  A    between atoms: C_9  and  C_10
REMARK    6  A    between atoms: C_10  and  C_11
REMARK    7  A    between atoms: C_10  and  O_12
REMARK    8  A    between atoms: C_13  and  C_14
REMARK    9  A    between atoms: C_14  and  C_15
REMARK   10  A    between atoms: C_14  and  O_16
REMARK                            x       y       z     vdW  Elec       q    Type
REMARK                         _______ _______ _______ _____ _____    ______ ____
ROOT
ATOM      1  N   UNL     1      -9.550  16.022 -17.019  0.00  0.00    +0.000 N 
ENDROOT
BRANCH   1   6
ATOM      2  C   UNL     1     -10.526  21.545 -18.386  0.00  0.00    +0.000 C 
ATOM      3  C   UNL     1     -10.254  20.111 -18.048  0.00  0.00    +0.000 A 
ATOM      4  C   UNL     1     -10.905  19.083 -18.720  0.00  0.00    +0.000 A 
ATOM      5  C   UNL     1     -10.669  17.741 -18.378  0.00  0.00    +0.000 A 
ATOM      6  C   UNL     1      -9.796  17.362 -17.342  0.00  0.00    +0.000 A 
ATOM      7  C   UNL     1      -9.154  18.428 -16.685  0.00  0.00    +0.000 A 
ATOM      8  C   UNL     1      -9.380  19.774 -17.018  0.00  0.00    +0.000 A 
ENDBRANCH   1   6
BRANCH   1   9
ATOM      9  C   UNL     1      -9.423  15.010 -18.095  0.00  0.00    +0.000 C 
BRANCH   9  10
ATOM     10  C   UNL     1      -8.871  13.656 -17.584  0.00  0.00    +0.000 C 
ATOM     11  C   UNL     1      -9.687  12.492 -18.133  0.00  0.00    +0.000 C 
BRANCH  10  12
ATOM     12  O   UNL     1      -7.507  13.472 -17.986  0.00  0.00    +0.000 OA
ATOM     13  H   UNL     1      -6.983  14.204 -17.620  0.00  0.00    +0.000 HD
ENDBRANCH  10  12
ENDBRANCH   9  10
ENDBRANCH   1   9
BRANCH   1  14
ATOM     14  C   UNL     1      -9.908  15.474 -15.686  0.00  0.00    +0.000 C 
BRANCH  14  15
ATOM     15  C   UNL     1      -8.838  15.796 -14.615  0.00  0.00    +0.000 C 
ATOM     16  C   UNL     1      -9.381  16.622 -13.455  0.00  0.00    +0.000 C 
BRANCH  15  17
ATOM     17  O   UNL     1      -8.255  14.610 -14.078  0.00  0.00    +0.000 OA
ATOM     18  H   UNL     1      -8.153  14.789 -13.122  0.00  0.00    +0.000 HD
ENDBRANCH  15  17
ENDBRANCH  14  15
ENDBRANCH   1  14
TORSDOF 7
ENDMDL
