MODEL 1
REMARK VINA RESULT:    -3.240      0.000      0.000
REMARK INTER + INTRA:          -3.564
REMARK INTER:                  -3.524
REMARK INTRA:                  -0.040
REMARK UNBOUND:                -0.040
REMARK  Name = 
REMARK  3 active torsions:
REMARK  status: ('A' for Active; 'I' for Inactive)
REMARK    1  A    between atoms: C_1  and  O_2
REMARK    2  A    between atoms: O_2  and  C_3
REMARK    3  A    between atoms: C_8  and  O_9
REMARK                            x       y       z     vdW  Elec       q    Type
REMARK                         _______ _______ _______ _____ _____    ______ ____
ROOT
ATOM      1  C   UNL     1      -9.617  17.137 -15.463  0.00  0.00    +0.000 A 
ATOM      2  C   UNL     1      -9.841  16.779 -16.792  0.00  0.00    +0.000 A 
ATOM      3  C   UNL     1      -9.654  15.453 -17.201  0.00  0.00    +0.000 A 
ATOM      4  C   UNL     1      -9.243  14.481 -16.286  0.00  0.00    +0.000 A 
ATOM      5  C   UNL     1      -9.018  14.830 -14.956  0.00  0.00    +0.000 A 
ATOM      6  C   UNL     1      -9.205  16.148 -14.560  0.00  0.00    +0.000 A 
ENDROOT
BRANCH   1   8
ATOM      7  C   UNL     1      -9.587  19.486 -15.816  0.00  0.00    +0.000 C 
ATOM      8  O   UNL     1      -9.759  18.391 -14.925  0.00  0.00    +0.000 OA
ENDBRANCH   1   8
BRANCH   6   9
ATOM      9  O   UNL     1      -8.977  16.467 -13.248  0.00  0.00    +0.000 OA
ATOM     10  H   UNL     1      -9.685  16.010 -12.754  0.00  0.00    +0.000 HD
ENDBRANCH   6   9
TORSDOF 2
ENDMDL
MODEL 2
REMARK VINA RESULT:    -3.235      1.239      1.972
REMARK INTER + INTRA:          -3.559
REMARK INTER:                  -3.506
REMARK INTRA:                  -0.053
REMARK UNBOUND:                -0.040
REMARK  Name = 
REMARK  3 active torsions:
REMARK  status: ('A' for Active; 'I' for Inactive)
REMARK    1  A    between atoms: C_1  and  O_2
REMARK    2  A    between atoms: O_2  and  C_3
REMARK    3  A    between atoms: C_8  and  O_9
REMARK                            x       y       z     vdW  Elec       q    Type
REMARK                         _______ _______ _______ _____ _____    ______ ____
ROOT
ATOM      1  C   UNL     1      -9.806  16.951 -16.593  0.00  0.00    +0.000 A 
ATOM      2  C   UNL     1      -9.493  15.651 -16.987  0.00  0.00    +0.000 A 
ATOM      3  C   UNL     1      -9.074  14.713 -16.034  0.00  0.00    +0.000 A 
ATOM      4  C   UNL     1      -8.966  15.071 -14.689  0.00  0.00    +0.000 A 
ATOM      5  C   UNL     1      -9.277  16.368 -14.288  0.00  0.00    +0.000 A 
ATOM      6  C   UNL     1      -9.692  17.291 -15.239  0.00  0.00    +0.000 A 
ENDROOT
BRANCH   1   8
ATOM      7  C   UNL     1      -9.282  18.450 -18.361  0.00  0.00    +0.000 C 
ATOM      8  O   UNL     1     -10.226  17.968 -17.413  0.00  0.00    +0.000 OA
ENDBRANCH   1   8
BRANCH   6   9
ATOM      9  O   UNL     1      -9.992  18.560 -14.821  0.00  0.00    +0.000 OA
ATOM     10  H   UNL     1     -10.884  18.735 -15.177  0.00  0.00    +0.000 HD
ENDBRANCH   6   9
TORSDOF 2
ENDMDL
MODEL 3
REMARK VINA RESULT:    -3.199      1.816      3.279
REMARK INTER + INTRA:          -3.519
REMARK INTER:                  -3.469
REMARK INTRA:                  -0.051
REMARK UNBOUND:                -0.040
REMARK  Name = 
REMARK  3 active torsions:
REMARK  status: ('A' for Active; 'I' for Inactive)
REMARK    1  A    between atoms: C_1  and  O_2
REMARK    2  A    between atoms: O_2  and  C_3
REMARK    3  A    between atoms: C_8  and  O_9
REMARK                            x       y       z     vdW  Elec       q    Type
REMARK                         _______ _______ _______ _____ _____    ______ ____
ROOT
ATOM      1  C   UNL     1      -9.341  14.966 -16.084  0.00  0.00    +0.000 A 
ATOM      2  C   UNL     1      -9.909  15.927 -16.919  0.00  0.00    +0.000 A 
ATOM      3  C   UNL     1     -10.119  17.229 -16.447  0.00  0.00    +0.000 A 
ATOM      4  C   UNL     1      -9.763  17.574 -15.142  0.00  0.00    +0.000 A 
ATOM      5  C   UNL     1      -9.194  16.620 -14.302  0.00  0.00    +0.000 A 
ATOM      6  C   UNL     1      -8.990  15.331 -14.779  0.00  0.00    +0.000 A 
ENDROOT
BRANCH   1   8
ATOM      7  C   UNL     1      -8.259  13.443 -17.553  0.00  0.00    +0.000 C 
ATOM      8  O   UNL     1      -9.079  13.660 -16.411  0.00  0.00    +0.000 OA
ENDBRANCH   1   8
BRANCH   6   9
ATOM      9  O   UNL     1      -8.430  14.410 -13.934  0.00  0.00    +0.000 OA
ATOM     10  H   UNL     1      -7.526  14.742 -13.770  0.00  0.00    +0.000 HD
ENDBRANCH   6   9
TORSDOF 2
ENDMDL
MODEL 4
REMARK VINA RESULT:    -3.197      2.320      2.913
REMARK INTER + INTRA:          -3.517
REMARK INTER:                  -3.468
REMARK INTRA:                  -0.050
REMARK UNBOUND:                -0.040
REMARK  Name = 
REMARK  3 active torsions:
REMARK  status: ('A' for Active; 'I' for Inactive)
REMARK    1  A    between atoms: C_1  and  O_2
REMARK    2  A    between atoms: O_2  and  C_3
REMARK    3  A    between atoms: C_8  and  O_9
REMARK                            x       y       z     vdW  Elec       q    Type
REMARK                         _______ _______ _______ _____ _____    ______ ____
ROOT
ATOM      1  C   UNL     1      -9.501  16.397 -17.097  0.00  0.00    +0.000 A 
ATOM      2  C   UNL     1      -9.626  16.953 -15.825  0.00  0.00    +0.000 A 
ATOM      3  C   UNL     1      -9.342  16.179 -14.692  0.00  0.00    +0.000 A 
ATOM      4  C   UNL     1      -8.933  14.851 -14.826  0.00  0.00    +0.000 A 
ATOM      5  C   UNL     1      -8.805  14.289 -16.094  0.00  0.00    +0.000 A 
ATOM      6  C   UNL     1      -9.089  15.064 -17.212  0.00  0.00    +0.000 A 
ENDROOT
BRANCH   1   8
ATOM      7  C   UNL     1      -9.079  18.273 -18.493  0.00  0.00    +0.000 C 
ATOM      8  O   UNL     1      -9.745  17.033 -18.288  0.00  0.00    +0.000 OA
ENDBRANCH   1   8
BRANCH   6   9
ATOM      9  O   UNL     1      -8.955  14.489 -18.448  0.00  0.00    +0.000 OA
ATOM     10  H   UNL     1      -7.995  14.492 -18.621  0.00  0.00    +0.000 HD
ENDBRANCH   6   9
TORSDOF 2
ENDMDL
MODEL 5
REMARK VINA RESULT:    -3.153     18.995     20.251
REMARK INTER + INTRA:          -3.470
REMARK INTER:                  -3.420
REMARK INTRA:                  -0.050
REMARK UNBOUND:                -0.040
REMARK  Name = 
REMARK  3 active torsions:
REMARK  status: ('A' for Active; 'I' for Inactive)
REMARK    1  A    between atoms: C_1  and  O_2
REMARK    2  A    between atoms: O_2  and  C_3
REMARK    3  A    between atoms: C_8  and  O_9
REMARK                            x       y       z     vdW  Elec       q    Type
REMARK                         _______ _______ _______ _____ _____    ______ ____
ROOT
ATOM      1  C   UNL     1       0.079  20.402   1.618  0.00  0.00    +0.000 A 
ATOM      2  C   UNL     1       1.148  20.667   2.473  0.00  0.00    +0.000 A 
ATOM      3  C   UNL     1       1.984  21.764   2.229  0.00  0.00    +0.000 A 
ATOM      4  C   UNL     1       1.757  22.597   1.132  0.00  0.00    +0.000 A 
ATOM      5  C   UNL     1       0.691  22.340   0.274  0.00  0.00    +0.000 A 
ATOM      6  C   UNL     1      -0.133  21.249   0.523  0.00  0.00    +0.000 A 
ENDROOT
BRANCH   1   8
ATOM      7  C   UNL     1      -1.481  19.243   2.984  0.00  0.00    +0.000 C 
ATOM      8  O   UNL     1      -0.816  19.369   1.733  0.00  0.00    +0.000 OA
ENDBRANCH   1   8
BRANCH   6   9
ATOM      9  O   UNL     1      -1.175  21.016  -0.336  0.00  0.00    +0.000 OA
ATOM     10  H   UNL     1      -1.182  20.048  -0.460  0.00  0.00    +0.000 HD
ENDBRANCH   6   9
TORSDOF 2
ENDMDL
MODEL 6
REMARK VINA RESULT:    -3.128      9.155     10.218
REMARK INTER + INTRA:          -3.443
REMARK INTER:                  -3.402
REMARK INTRA:                  -0.041
REMARK UNBOUND:                -0.040
REMARK  Name = 
REMARK  3 active torsions:
REMARK  status: ('A' for Active; 'I' for Inactive)
REMARK    1  A    between atoms: C_1  and  O_2
REMARK    2  A    between atoms: O_2  and  C_3
REMARK    3  A    between atoms: C_8  and  O_9
REMARK                            x       y       z     vdW  Elec       q    Type
REMARK                         _______ _______ _______ _____ _____    ______ ____
ROOT
ATOM      1  C   UNL     1      -6.625  22.580  -8.688  0.00  0.00    +0.000 A 
ATOM      2  C   UNL     1      -5.302  22.202  -8.466  0.00  0.00    +0.000 A 
ATOM      3  C   UNL     1      -4.888  21.827  -7.181  0.00  0.00    +0.000 A 
ATOM      4  C   UNL     1      -5.791  21.831  -6.117  0.00  0.00    +0.000 A 
ATOM      5  C   UNL     1      -7.115  22.208  -6.331  0.00  0.00    +0.000 A 
ATOM      6  C   UNL     1      -7.517  22.578  -7.608  0.00  0.00    +0.000 A 
ENDROOT
BRANCH   1   8
ATOM      7  C   UNL     1      -6.288  23.613 -10.801  0.00  0.00    +0.000 C 
ATOM      8  O   UNL     1      -7.167  22.970  -9.887  0.00  0.00    +0.000 OA
ENDBRANCH   1   8
BRANCH   6   9
ATOM      9  O   UNL     1      -8.823  22.945  -7.794  0.00  0.00    +0.000 OA
ATOM     10  H   UNL     1      -8.967  22.871  -8.757  0.00  0.00    +0.000 HD
ENDBRANCH   6   9
TORSDOF 2
ENDMDL
MODEL 7
REMARK VINA RESULT:    -3.116      3.205      4.351
REMARK INTER + INTRA:          -3.429
REMARK INTER:                  -3.377
REMARK INTRA:                  -0.052
REMARK UNBOUND:                -0.040
REMARK  Name = 
REMARK  3 active torsions:
REMARK  status: ('A' for Active; 'I' for Inactive)
REMARK    1  A    between atoms: C_1  and  O_2
REMARK    2  A    between atoms: O_2  and  C_3
REMARK    3  A    between atoms: C_8  and  O_9
REMARK                            x       y       z     vdW  Elec       q    Type
REMARK                         _______ _______ _______ _____ _____    ______ ____
ROOT
ATOM      1  C   UNL     1      -9.603  13.603 -16.700  0.00  0.00    +0.000 A 
ATOM      2  C   UNL     1     -10.773  12.959 -16.299  0.00  0.00    +0.000 A 
ATOM      3  C   UNL     1     -11.098  11.704 -16.831  0.00  0.00    +0.000 A 
ATOM      4  C   UNL     1     -10.258  11.092 -17.763  0.00  0.00    +0.000 A 
ATOM      5  C   UNL     1      -9.088  11.729 -18.168  0.00  0.00    +0.000 A 
ATOM      6  C   UNL     1      -8.774  12.973 -17.636  0.00  0.00    +0.000 A 
ENDROOT
BRANCH   1   8
ATOM      7  C   UNL     1      -8.900  14.950 -14.873  0.00  0.00    +0.000 C 
ATOM      8  O   UNL     1      -9.162  14.827 -16.265  0.00  0.00    +0.000 OA
ENDBRANCH   1   8
BRANCH   6   9
ATOM      9  O   UNL     1      -7.618  13.580 -18.049  0.00  0.00    +0.000 OA
ATOM     10  H   UNL     1      -7.830  13.945 -18.930  0.00  0.00    +0.000 HD
ENDBRANCH   6   9
TORSDOF 2
ENDMDL
MODEL 8
REMARK VINA RESULT:    -3.088      1.809      3.740
REMARK INTER + INTRA:          -3.399
REMARK INTER:                  -3.346
REMARK INTRA:                  -0.053
REMARK UNBOUND:                -0.040
REMARK  Name = 
REMARK  3 active torsions:
REMARK  status: ('A' for Active; 'I' for Inactive)
REMARK    1  A    between atoms: C_1  and  O_2
REMARK    2  A    between atoms: O_2  and  C_3
REMARK    3  A    between atoms: C_8  and  O_9
REMARK                            x       y       z     vdW  Elec       q    Type
REMARK                         _______ _______ _______ _____ _____    ______ ____
ROOT
ATOM      1  C   UNL     1      -9.613  16.463 -15.733  0.00  0.00    +0.000 A 
ATOM      2  C   UNL     1      -9.763  17.513 -14.829  0.00  0.00    +0.000 A 
ATOM      3  C   UNL     1      -9.689  18.838 -15.277  0.00  0.00    +0.000 A 
ATOM      4  C   UNL     1      -9.466  19.117 -16.627  0.00  0.00    +0.000 A 
ATOM      5  C   UNL     1      -9.317  18.073 -17.537  0.00  0.00    +0.000 A 
ATOM      6  C   UNL     1      -9.390  16.762 -17.083  0.00  0.00    +0.000 A 
ENDROOT
BRANCH   1   8
ATOM      7  C   UNL     1      -8.624  14.622 -14.602  0.00  0.00    +0.000 C 
ATOM      8  O   UNL     1      -9.661  15.124 -15.437  0.00  0.00    +0.000 OA
ENDBRANCH   1   8
BRANCH   6   9
ATOM      9  O   UNL     1      -9.240  15.753 -17.996  0.00  0.00    +0.000 OA
ATOM     10  H   UNL     1      -9.138  14.945 -17.458  0.00  0.00    +0.000 HD
ENDBRANCH   6   9
TORSDOF 2
ENDMDL
MODEL 9
REMARK VINA RESULT:    -3.070      2.307      4.009
REMARK INTER + INTRA:          -3.379
REMARK INTER:                  -3.334
REMARK INTRA:                  -0.045
REMARK UNBOUND:                -0.040
REMARK  Name = 
REMARK  3 active torsions:
REMARK  status: ('A' for Active; 'I' for Inactive)
REMARK    1  A    between atoms: C_1  and  O_2
REMARK    2  A    between atoms: O_2  and  C_3
REMARK    3  A    between atoms: C_8  and  O_9
REMARK                            x       y       z     vdW  Elec       q    Type
REMARK                         _______ _______ _______ _____ _____    ______ ____
ROOT
ATOM      1  C   UNL     1      -9.448  14.731 -16.232  0.00  0.00    +0.000 A 
ATOM      2  C   UNL     1      -8.948  14.833 -14.935  0.00  0.00    +0.000 A 
ATOM      3  C   UNL     1      -9.035  16.048 -14.245  0.00  0.00    +0.000 A 
ATOM      4  C   UNL     1      -9.620  17.164 -14.847  0.00  0.00    +0.000 A 
ATOM      5  C   UNL     1     -10.123  17.070 -16.143  0.00  0.00    +0.000 A 
ATOM      6  C   UNL     1     -10.031  15.860 -16.820  0.00  0.00    +0.000 A 
ENDROOT
BRANCH   1   8
ATOM      7  C   UNL     1      -8.170  13.241 -17.572  0.00  0.00    +0.000 C 
ATOM      8  O   UNL     1      -9.429  13.610 -17.023  0.00  0.00    +0.000 OA
ENDBRANCH   1   8
BRANCH   6   9
ATOM      9  O   UNL     1     -10.532  15.792 -18.093  0.00  0.00    +0.000 OA
ATOM     10  H   UNL     1     -10.189  16.591 -18.537  0.00  0.00    +0.000 HD
ENDBRANCH   6   9
TORSDOF 2
ENDMDL
