MODEL 1
REMARK VINA RESULT:    -3.217      0.000      0.000
REMARK INTER + INTRA:          -3.552
REMARK INTER:                  -3.499
REMARK INTRA:                  -0.053
REMARK UNBOUND:                -0.053
REMARK  Name = 
REMARK  3 active torsions:
REMARK  status: ('A' for Active; 'I' for Inactive)
REMARK    1  A    between atoms: C_1  and  O_2
REMARK    2  A    between atoms: O_2  and  C_3
REMARK    3  A    between atoms: C_8  and  O_9
REMARK                            x       y       z     vdW  Elec       q    Type
REMARK                         _______ _______ _______ _____ _____    ______ ____
ROOT
ATOM      1  C   UNL     1      -9.761  16.923 -16.559  0.00  0.00    +0.000 A 
ATOM      2  C   UNL     1      -9.433  15.609 -16.886  0.00  0.00    +0.000 A 
ATOM      3  C   UNL     1      -9.034  14.716 -15.883  0.00  0.00    +0.000 A 
ATOM      4  C   UNL     1      -8.960  15.134 -14.553  0.00  0.00    +0.000 A 
ATOM      5  C   UNL     1      -9.287  16.446 -14.218  0.00  0.00    +0.000 A 
ATOM      6  C   UNL     1      -9.681  17.324 -15.219  0.00  0.00    +0.000 A 
ENDROOT
BRANCH   1   8
ATOM      7  C   UNL     1      -9.194  18.356 -18.368  0.00  0.00    +0.000 C 
ATOM      8  O   UNL     1     -10.165  17.900 -17.433  0.00  0.00    +0.000 OA
ENDBRANCH   1   8
BRANCH   6   9
ATOM      9  O   UNL     1      -9.997  18.609 -14.865  0.00  0.00    +0.000 OA
ATOM     10  H   UNL     1     -10.841  18.792 -15.321  0.00  0.00    +0.000 HD
ENDBRANCH   6   9
TORSDOF 2
ENDMDL
MODEL 2
REMARK VINA RESULT:    -3.215      1.253      1.981
REMARK INTER + INTRA:          -3.550
REMARK INTER:                  -3.508
REMARK INTRA:                  -0.042
REMARK UNBOUND:                -0.053
REMARK  Name = 
REMARK  3 active torsions:
REMARK  status: ('A' for Active; 'I' for Inactive)
REMARK    1  A    between atoms: C_1  and  O_2
REMARK    2  A    between atoms: O_2  and  C_3
REMARK    3  A    between atoms: C_8  and  O_9
REMARK                            x       y       z     vdW  Elec       q    Type
REMARK                         _______ _______ _______ _____ _____    ______ ____
ROOT
ATOM      1  C   UNL     1      -9.673  17.097 -15.507  0.00  0.00    +0.000 A 
ATOM      2  C   UNL     1      -9.874  16.699 -16.828  0.00  0.00    +0.000 A 
ATOM      3  C   UNL     1      -9.652  15.367 -17.199  0.00  0.00    +0.000 A 
ATOM      4  C   UNL     1      -9.230  14.430 -16.254  0.00  0.00    +0.000 A 
ATOM      5  C   UNL     1      -9.027  14.820 -14.932  0.00  0.00    +0.000 A 
ATOM      6  C   UNL     1      -9.249  16.144 -14.573  0.00  0.00    +0.000 A 
ENDROOT
BRANCH   1   8
ATOM      7  C   UNL     1      -9.558  19.440 -15.886  0.00  0.00    +0.000 C 
ATOM      8  O   UNL     1      -9.849  18.362 -15.005  0.00  0.00    +0.000 OA
ENDBRANCH   1   8
BRANCH   6   9
ATOM      9  O   UNL     1      -9.043  16.503 -13.268  0.00  0.00    +0.000 OA
ATOM     10  H   UNL     1      -9.722  16.014 -12.766  0.00  0.00    +0.000 HD
ENDBRANCH   6   9
TORSDOF 2
ENDMDL
MODEL 3
REMARK VINA RESULT:    -3.191      2.306      3.176
REMARK INTER + INTRA:          -3.524
REMARK INTER:                  -3.473
REMARK INTRA:                  -0.051
REMARK UNBOUND:                -0.053
REMARK  Name = 
REMARK  3 active torsions:
REMARK  status: ('A' for Active; 'I' for Inactive)
REMARK    1  A    between atoms: C_1  and  O_2
REMARK    2  A    between atoms: O_2  and  C_3
REMARK    3  A    between atoms: C_8  and  O_9
REMARK                            x       y       z     vdW  Elec       q    Type
REMARK                         _______ _______ _______ _____ _____    ______ ____
ROOT
ATOM      1  C   UNL     1      -9.343  14.971 -16.082  0.00  0.00    +0.000 A 
ATOM      2  C   UNL     1      -9.917  15.929 -16.917  0.00  0.00    +0.000 A 
ATOM      3  C   UNL     1     -10.127  17.232 -16.447  0.00  0.00    +0.000 A 
ATOM      4  C   UNL     1      -9.766  17.581 -15.144  0.00  0.00    +0.000 A 
ATOM      5  C   UNL     1      -9.193  16.629 -14.304  0.00  0.00    +0.000 A 
ATOM      6  C   UNL     1      -8.988  15.340 -14.778  0.00  0.00    +0.000 A 
ENDROOT
BRANCH   1   8
ATOM      7  C   UNL     1      -8.247  13.446 -17.538  0.00  0.00    +0.000 C 
ATOM      8  O   UNL     1      -9.082  13.664 -16.407  0.00  0.00    +0.000 OA
ENDBRANCH   1   8
BRANCH   6   9
ATOM      9  O   UNL     1      -8.423  14.422 -13.934  0.00  0.00    +0.000 OA
ATOM     10  H   UNL     1      -9.170  13.875 -13.625  0.00  0.00    +0.000 HD
ENDBRANCH   6   9
TORSDOF 2
ENDMDL
MODEL 4
REMARK VINA RESULT:    -3.165      1.338      2.465
REMARK INTER + INTRA:          -3.496
REMARK INTER:                  -3.445
REMARK INTRA:                  -0.051
REMARK UNBOUND:                -0.053
REMARK  Name = 
REMARK  3 active torsions:
REMARK  status: ('A' for Active; 'I' for Inactive)
REMARK    1  A    between atoms: C_1  and  O_2
REMARK    2  A    between atoms: O_2  and  C_3
REMARK    3  A    between atoms: C_8  and  O_9
REMARK                            x       y       z     vdW  Elec       q    Type
REMARK                         _______ _______ _______ _____ _____    ______ ____
ROOT
ATOM      1  C   UNL     1      -9.555  16.551 -17.036  0.00  0.00    +0.000 A 
ATOM      2  C   UNL     1      -9.673  17.115 -15.766  0.00  0.00    +0.000 A 
ATOM      3  C   UNL     1      -9.390  16.346 -14.630  0.00  0.00    +0.000 A 
ATOM      4  C   UNL     1      -8.990  15.015 -14.758  0.00  0.00    +0.000 A 
ATOM      5  C   UNL     1      -8.869  14.444 -16.023  0.00  0.00    +0.000 A 
ATOM      6  C   UNL     1      -9.152  15.214 -17.144  0.00  0.00    +0.000 A 
ENDROOT
BRANCH   1   8
ATOM      7  C   UNL     1      -9.079  18.383 -18.471  0.00  0.00    +0.000 C 
ATOM      8  O   UNL     1      -9.800  17.181 -18.229  0.00  0.00    +0.000 OA
ENDBRANCH   1   8
BRANCH   6   9
ATOM      9  O   UNL     1      -9.027  14.631 -18.377  0.00  0.00    +0.000 OA
ATOM     10  H   UNL     1      -9.845  14.874 -18.851  0.00  0.00    +0.000 HD
ENDBRANCH   6   9
TORSDOF 2
ENDMDL
MODEL 5
REMARK VINA RESULT:    -3.150     18.885     20.229
REMARK INTER + INTRA:          -3.479
REMARK INTER:                  -3.429
REMARK INTRA:                  -0.050
REMARK UNBOUND:                -0.053
REMARK  Name = 
REMARK  3 active torsions:
REMARK  status: ('A' for Active; 'I' for Inactive)
REMARK    1  A    between atoms: C_1  and  O_2
REMARK    2  A    between atoms: O_2  and  C_3
REMARK    3  A    between atoms: C_8  and  O_9
REMARK                            x       y       z     vdW  Elec       q    Type
REMARK                         _______ _______ _______ _____ _____    ______ ____
ROOT
ATOM      1  C   UNL     1       0.033  20.615   1.142  0.00  0.00    +0.000 A 
ATOM      2  C   UNL     1       1.121  21.025   1.911  0.00  0.00    +0.000 A 
ATOM      3  C   UNL     1       1.772  22.230   1.615  0.00  0.00    +0.000 A 
ATOM      4  C   UNL     1       1.339  23.026   0.554  0.00  0.00    +0.000 A 
ATOM      5  C   UNL     1       0.252  22.623  -0.218  0.00  0.00    +0.000 A 
ATOM      6  C   UNL     1      -0.387  21.427   0.082  0.00  0.00    +0.000 A 
ENDROOT
BRANCH   1   8
ATOM      7  C   UNL     1      -1.248  19.253   2.609  0.00  0.00    +0.000 C 
ATOM      8  O   UNL     1      -0.695  19.465   1.316  0.00  0.00    +0.000 OA
ENDBRANCH   1   8
BRANCH   6   9
ATOM      9  O   UNL     1      -1.454  21.052  -0.692  0.00  0.00    +0.000 OA
ATOM     10  H   UNL     1      -1.891  20.342  -0.184  0.00  0.00    +0.000 HD
ENDBRANCH   6   9
TORSDOF 2
ENDMDL
MODEL 6
REMARK VINA RESULT:    -3.139      9.320     10.270
REMARK INTER + INTRA:          -3.466
REMARK INTER:                  -3.426
REMARK INTRA:                  -0.040
REMARK UNBOUND:                -0.053
REMARK  Name = 
REMARK  3 active torsions:
REMARK  status: ('A' for Active; 'I' for Inactive)
REMARK    1  A    between atoms: C_1  and  O_2
REMARK    2  A    between atoms: O_2  and  C_3
REMARK    3  A    between atoms: C_8  and  O_9
REMARK                            x       y       z     vdW  Elec       q    Type
REMARK                         _______ _______ _______ _____ _____    ______ ____
ROOT
ATOM      1  C   UNL     1      -6.652  22.614  -8.700  0.00  0.00    +0.000 A 
ATOM      2  C   UNL     1      -5.320  22.258  -8.492  0.00  0.00    +0.000 A 
ATOM      3  C   UNL     1      -4.889  21.877  -7.216  0.00  0.00    +0.000 A 
ATOM      4  C   UNL     1      -5.784  21.851  -6.145  0.00  0.00    +0.000 A 
ATOM      5  C   UNL     1      -7.116  22.204  -6.344  0.00  0.00    +0.000 A 
ATOM      6  C   UNL     1      -7.535  22.581  -7.614  0.00  0.00    +0.000 A 
ENDROOT
BRANCH   1   8
ATOM      7  C   UNL     1      -6.335  23.612 -10.833  0.00  0.00    +0.000 C 
ATOM      8  O   UNL     1      -7.211  23.007  -9.890  0.00  0.00    +0.000 OA
ENDBRANCH   1   8
BRANCH   6   9
ATOM      9  O   UNL     1      -8.850  22.925  -7.785  0.00  0.00    +0.000 OA
ATOM     10  H   UNL     1      -9.314  22.513  -7.032  0.00  0.00    +0.000 HD
ENDBRANCH   6   9
TORSDOF 2
ENDMDL
MODEL 7
REMARK VINA RESULT:    -3.105      1.698      3.688
REMARK INTER + INTRA:          -3.430
REMARK INTER:                  -3.380
REMARK INTRA:                  -0.050
REMARK UNBOUND:                -0.053
REMARK  Name = 
REMARK  3 active torsions:
REMARK  status: ('A' for Active; 'I' for Inactive)
REMARK    1  A    between atoms: C_1  and  O_2
REMARK    2  A    between atoms: O_2  and  C_3
REMARK    3  A    between atoms: C_8  and  O_9
REMARK                            x       y       z     vdW  Elec       q    Type
REMARK                         _______ _______ _______ _____ _____    ______ ____
ROOT
ATOM      1  C   UNL     1      -9.573  16.480 -15.770  0.00  0.00    +0.000 A 
ATOM      2  C   UNL     1      -9.718  17.459 -14.787  0.00  0.00    +0.000 A 
ATOM      3  C   UNL     1      -9.700  18.814 -15.141  0.00  0.00    +0.000 A 
ATOM      4  C   UNL     1      -9.537  19.195 -16.474  0.00  0.00    +0.000 A 
ATOM      5  C   UNL     1      -9.392  18.224 -17.461  0.00  0.00    +0.000 A 
ATOM      6  C   UNL     1      -9.411  16.882 -17.102  0.00  0.00    +0.000 A 
ENDROOT
BRANCH   1   8
ATOM      7  C   UNL     1      -8.632  14.623 -14.625  0.00  0.00    +0.000 C 
ATOM      8  O   UNL     1      -9.571  15.123 -15.569  0.00  0.00    +0.000 OA
ENDBRANCH   1   8
BRANCH   6   9
ATOM      9  O   UNL     1      -9.267  15.946 -18.090  0.00  0.00    +0.000 OA
ATOM     10  H   UNL     1      -9.559  16.397 -18.905  0.00  0.00    +0.000 HD
ENDBRANCH   6   9
TORSDOF 2
ENDMDL
MODEL 8
REMARK VINA RESULT:    -3.081      1.655      3.009
REMARK INTER + INTRA:          -3.403
REMARK INTER:                  -3.357
REMARK INTRA:                  -0.046
REMARK UNBOUND:                -0.053
REMARK  Name = 
REMARK  3 active torsions:
REMARK  status: ('A' for Active; 'I' for Inactive)
REMARK    1  A    between atoms: C_1  and  O_2
REMARK    2  A    between atoms: O_2  and  C_3
REMARK    3  A    between atoms: C_8  and  O_9
REMARK                            x       y       z     vdW  Elec       q    Type
REMARK                         _______ _______ _______ _____ _____    ______ ____
ROOT
ATOM      1  C   UNL     1      -9.345  15.546 -16.631  0.00  0.00    +0.000 A 
ATOM      2  C   UNL     1      -9.355  15.370 -15.248  0.00  0.00    +0.000 A 
ATOM      3  C   UNL     1      -9.470  16.479 -14.402  0.00  0.00    +0.000 A 
ATOM      4  C   UNL     1      -9.574  17.767 -14.933  0.00  0.00    +0.000 A 
ATOM      5  C   UNL     1      -9.566  17.951 -16.313  0.00  0.00    +0.000 A 
ATOM      6  C   UNL     1      -9.451  16.845 -17.145  0.00  0.00    +0.000 A 
ENDROOT
BRANCH   1   8
ATOM      7  C   UNL     1      -8.259  13.553 -17.333  0.00  0.00    +0.000 C 
ATOM      8  O   UNL     1      -9.238  14.556 -17.575  0.00  0.00    +0.000 OA
ENDBRANCH   1   8
BRANCH   6   9
ATOM      9  O   UNL     1      -9.444  17.052 -18.499  0.00  0.00    +0.000 OA
ATOM     10  H   UNL     1     -10.059  16.383 -18.855  0.00  0.00    +0.000 HD
ENDBRANCH   6   9
TORSDOF 2
ENDMDL
MODEL 9
REMARK VINA RESULT:    -3.072      3.366      4.778
REMARK INTER + INTRA:          -3.393
REMARK INTER:                  -3.341
REMARK INTRA:                  -0.052
REMARK UNBOUND:                -0.053
REMARK  Name = 
REMARK  3 active torsions:
REMARK  status: ('A' for Active; 'I' for Inactive)
REMARK    1  A    between atoms: C_1  and  O_2
REMARK    2  A    between atoms: O_2  and  C_3
REMARK    3  A    between atoms: C_8  and  O_9
REMARK                            x       y       z     vdW  Elec       q    Type
REMARK                         _______ _______ _______ _____ _____    ______ ____
ROOT
ATOM      1  C   UNL     1      -9.607  13.578 -16.795  0.00  0.00    +0.000 A 
ATOM      2  C   UNL     1     -10.812  12.957 -16.470  0.00  0.00    +0.000 A 
ATOM      3  C   UNL     1     -11.104  11.686 -16.980  0.00  0.00    +0.000 A 
ATOM      4  C   UNL     1     -10.196  11.032 -17.814  0.00  0.00    +0.000 A 
ATOM      5  C   UNL     1      -8.989  11.645 -18.142  0.00  0.00    +0.000 A 
ATOM      6  C   UNL     1      -8.708  12.906 -17.633  0.00  0.00    +0.000 A 
ENDROOT
BRANCH   1   8
ATOM      7  C   UNL     1      -9.007  14.976 -14.970  0.00  0.00    +0.000 C 
ATOM      8  O   UNL     1      -9.191  14.814 -16.371  0.00  0.00    +0.000 OA
ENDBRANCH   1   8
BRANCH   6   9
ATOM      9  O   UNL     1      -7.515  13.488 -17.970  0.00  0.00    +0.000 OA
ATOM     10  H   UNL     1      -7.738  14.419 -18.161  0.00  0.00    +0.000 HD
ENDBRANCH   6   9
TORSDOF 2
ENDMDL
