MODEL 1
REMARK VINA RESULT:    -3.420      0.000      0.000
REMARK INTER + INTRA:          -3.766
REMARK INTER:                  -3.720
REMARK INTRA:                  -0.046
REMARK UNBOUND:                -0.046
REMARK  Name = 
REMARK  3 active torsions:
REMARK  status: ('A' for Active; 'I' for Inactive)
REMARK    1  A    between atoms: C_1  and  O_2
REMARK    2  A    between atoms: O_2  and  C_3
REMARK    3  A    between atoms: C_8  and  O_9
REMARK                            x       y       z     vdW  Elec       q    Type
REMARK                         _______ _______ _______ _____ _____    ______ ____
ROOT
ATOM      1  C   UNL     1      -8.305   1.829 -17.307  0.00  0.00    +0.000 A 
ATOM      2  C   UNL     1      -9.387   1.841 -18.186  0.00  0.00    +0.000 A 
ATOM      3  C   UNL     1     -10.694   1.912 -17.687  0.00  0.00    +0.000 A 
ATOM      4  C   UNL     1     -10.923   1.970 -16.311  0.00  0.00    +0.000 A 
ATOM      5  C   UNL     1      -9.848   1.960 -15.426  0.00  0.00    +0.000 A 
ATOM      6  C   UNL     1      -8.555   1.889 -15.930  0.00  0.00    +0.000 A 
ENDROOT
BRANCH   1   8
ATOM      7  C   UNL     1      -6.559   2.605 -18.720  0.00  0.00    +0.000 C 
ATOM      8  O   UNL     1      -6.979   1.763 -17.653  0.00  0.00    +0.000 OA
ENDBRANCH   1   8
BRANCH   6   9
ATOM      9  O   UNL     1      -7.514   1.880 -15.041  0.00  0.00    +0.000 OA
ATOM     10  H   UNL     1      -7.092   1.008 -15.161  0.00  0.00    +0.000 HD
ENDBRANCH   6   9
TORSDOF 2
ENDMDL
MODEL 2
REMARK VINA RESULT:    -3.238     14.712     14.899
REMARK INTER + INTRA:          -3.568
REMARK INTER:                  -3.525
REMARK INTRA:                  -0.043
REMARK UNBOUND:                -0.046
REMARK  Name = 
REMARK  3 active torsions:
REMARK  status: ('A' for Active; 'I' for Inactive)
REMARK    1  A    between atoms: C_1  and  O_2
REMARK    2  A    between atoms: O_2  and  C_3
REMARK    3  A    between atoms: C_8  and  O_9
REMARK                            x       y       z     vdW  Elec       q    Type
REMARK                         _______ _______ _______ _____ _____    ______ ____
ROOT
ATOM      1  C   UNL     1      -9.685  17.137 -15.471  0.00  0.00    +0.000 A 
ATOM      2  C   UNL     1      -9.887  16.761 -16.798  0.00  0.00    +0.000 A 
ATOM      3  C   UNL     1      -9.628  15.445 -17.199  0.00  0.00    +0.000 A 
ATOM      4  C   UNL     1      -9.166  14.502 -16.279  0.00  0.00    +0.000 A 
ATOM      5  C   UNL     1      -8.962  14.870 -14.951  0.00  0.00    +0.000 A 
ATOM      6  C   UNL     1      -9.221  16.178 -14.562  0.00  0.00    +0.000 A 
ENDROOT
BRANCH   1   8
ATOM      7  C   UNL     1      -9.562  19.492 -15.769  0.00  0.00    +0.000 C 
ATOM      8  O   UNL     1      -9.895  18.385 -14.940  0.00  0.00    +0.000 OA
ENDBRANCH   1   8
BRANCH   6   9
ATOM      9  O   UNL     1      -9.012  16.516 -13.251  0.00  0.00    +0.000 OA
ATOM     10  H   UNL     1      -8.185  17.034 -13.257  0.00  0.00    +0.000 HD
ENDBRANCH   6   9
TORSDOF 2
ENDMDL
MODEL 3
REMARK VINA RESULT:    -3.237     14.899     15.048
REMARK INTER + INTRA:          -3.567
REMARK INTER:                  -3.514
REMARK INTRA:                  -0.053
REMARK UNBOUND:                -0.046
REMARK  Name = 
REMARK  3 active torsions:
REMARK  status: ('A' for Active; 'I' for Inactive)
REMARK    1  A    between atoms: C_1  and  O_2
REMARK    2  A    between atoms: O_2  and  C_3
REMARK    3  A    between atoms: C_8  and  O_9
REMARK                            x       y       z     vdW  Elec       q    Type
REMARK                         _______ _______ _______ _____ _____    ______ ____
ROOT
ATOM      1  C   UNL     1      -9.809  16.953 -16.577  0.00  0.00    +0.000 A 
ATOM      2  C   UNL     1      -9.492  15.650 -16.957  0.00  0.00    +0.000 A 
ATOM      3  C   UNL     1      -9.068  14.724 -15.996  0.00  0.00    +0.000 A 
ATOM      4  C   UNL     1      -8.959  15.096 -14.654  0.00  0.00    +0.000 A 
ATOM      5  C   UNL     1      -9.275  16.397 -14.267  0.00  0.00    +0.000 A 
ATOM      6  C   UNL     1      -9.694  17.308 -15.227  0.00  0.00    +0.000 A 
ENDROOT
BRANCH   1   8
ATOM      7  C   UNL     1      -9.299  18.423 -18.373  0.00  0.00    +0.000 C 
ATOM      8  O   UNL     1     -10.234  17.960 -17.407  0.00  0.00    +0.000 OA
ENDBRANCH   1   8
BRANCH   6   9
ATOM      9  O   UNL     1      -9.998  18.580 -14.822  0.00  0.00    +0.000 OA
ATOM     10  H   UNL     1      -9.283  18.822 -14.203  0.00  0.00    +0.000 HD
ENDBRANCH   6   9
TORSDOF 2
ENDMDL
MODEL 4
REMARK VINA RESULT:    -3.199     13.563     13.683
REMARK INTER + INTRA:          -3.525
REMARK INTER:                  -3.474
REMARK INTRA:                  -0.052
REMARK UNBOUND:                -0.046
REMARK  Name = 
REMARK  3 active torsions:
REMARK  status: ('A' for Active; 'I' for Inactive)
REMARK    1  A    between atoms: C_1  and  O_2
REMARK    2  A    between atoms: O_2  and  C_3
REMARK    3  A    between atoms: C_8  and  O_9
REMARK                            x       y       z     vdW  Elec       q    Type
REMARK                         _______ _______ _______ _____ _____    ______ ____
ROOT
ATOM      1  C   UNL     1      -9.374  14.965 -16.113  0.00  0.00    +0.000 A 
ATOM      2  C   UNL     1      -9.940  15.928 -16.949  0.00  0.00    +0.000 A 
ATOM      3  C   UNL     1     -10.134  17.233 -16.481  0.00  0.00    +0.000 A 
ATOM      4  C   UNL     1      -9.766  17.581 -15.179  0.00  0.00    +0.000 A 
ATOM      5  C   UNL     1      -9.200  16.625 -14.339  0.00  0.00    +0.000 A 
ATOM      6  C   UNL     1      -9.012  15.332 -14.812  0.00  0.00    +0.000 A 
ENDROOT
BRANCH   1   8
ATOM      7  C   UNL     1      -8.238  13.426 -17.523  0.00  0.00    +0.000 C 
ATOM      8  O   UNL     1      -9.127  13.655 -16.436  0.00  0.00    +0.000 OA
ENDBRANCH   1   8
BRANCH   6   9
ATOM      9  O   UNL     1      -8.454  14.410 -13.967  0.00  0.00    +0.000 OA
ATOM     10  H   UNL     1      -8.289  13.628 -14.527  0.00  0.00    +0.000 HD
ENDBRANCH   6   9
TORSDOF 2
ENDMDL
MODEL 5
REMARK VINA RESULT:    -3.185     14.062     14.301
REMARK INTER + INTRA:          -3.511
REMARK INTER:                  -3.461
REMARK INTRA:                  -0.050
REMARK UNBOUND:                -0.046
REMARK  Name = 
REMARK  3 active torsions:
REMARK  status: ('A' for Active; 'I' for Inactive)
REMARK    1  A    between atoms: C_1  and  O_2
REMARK    2  A    between atoms: O_2  and  C_3
REMARK    3  A    between atoms: C_8  and  O_9
REMARK                            x       y       z     vdW  Elec       q    Type
REMARK                         _______ _______ _______ _____ _____    ______ ____
ROOT
ATOM      1  C   UNL     1      -9.547  16.445 -17.121  0.00  0.00    +0.000 A 
ATOM      2  C   UNL     1      -9.661  17.006 -15.850  0.00  0.00    +0.000 A 
ATOM      3  C   UNL     1      -9.375  16.235 -14.716  0.00  0.00    +0.000 A 
ATOM      4  C   UNL     1      -8.975  14.904 -14.847  0.00  0.00    +0.000 A 
ATOM      5  C   UNL     1      -8.858  14.336 -16.114  0.00  0.00    +0.000 A 
ATOM      6  C   UNL     1      -9.145  15.108 -17.233  0.00  0.00    +0.000 A 
ENDROOT
BRANCH   1   8
ATOM      7  C   UNL     1      -9.096  18.295 -18.541  0.00  0.00    +0.000 C 
ATOM      8  O   UNL     1      -9.795  17.078 -18.312  0.00  0.00    +0.000 OA
ENDBRANCH   1   8
BRANCH   6   9
ATOM      9  O   UNL     1      -9.023  14.527 -18.467  0.00  0.00    +0.000 OA
ATOM     10  H   UNL     1      -9.629  13.763 -18.443  0.00  0.00    +0.000 HD
ENDBRANCH   6   9
TORSDOF 2
ENDMDL
MODEL 6
REMARK VINA RESULT:    -3.166     26.961     27.909
REMARK INTER + INTRA:          -3.490
REMARK INTER:                  -3.440
REMARK INTRA:                  -0.050
REMARK UNBOUND:                -0.046
REMARK  Name = 
REMARK  3 active torsions:
REMARK  status: ('A' for Active; 'I' for Inactive)
REMARK    1  A    between atoms: C_1  and  O_2
REMARK    2  A    between atoms: O_2  and  C_3
REMARK    3  A    between atoms: C_8  and  O_9
REMARK                            x       y       z     vdW  Elec       q    Type
REMARK                         _______ _______ _______ _____ _____    ______ ____
ROOT
ATOM      1  C   UNL     1       0.012  20.614   1.159  0.00  0.00    +0.000 A 
ATOM      2  C   UNL     1       1.095  21.037   1.928  0.00  0.00    +0.000 A 
ATOM      3  C   UNL     1       1.748  22.237   1.617  0.00  0.00    +0.000 A 
ATOM      4  C   UNL     1       1.322  23.016   0.539  0.00  0.00    +0.000 A 
ATOM      5  C   UNL     1       0.240  22.600  -0.234  0.00  0.00    +0.000 A 
ATOM      6  C   UNL     1      -0.401  21.409   0.082  0.00  0.00    +0.000 A 
ENDROOT
BRANCH   1   8
ATOM      7  C   UNL     1      -1.272  19.273   2.642  0.00  0.00    +0.000 C 
ATOM      8  O   UNL     1      -0.717  19.467   1.346  0.00  0.00    +0.000 OA
ENDBRANCH   1   8
BRANCH   6   9
ATOM      9  O   UNL     1      -1.462  21.021  -0.692  0.00  0.00    +0.000 OA
ATOM     10  H   UNL     1      -2.213  21.553  -0.368  0.00  0.00    +0.000 HD
ENDBRANCH   6   9
TORSDOF 2
ENDMDL
MODEL 7
REMARK VINA RESULT:    -3.114     22.362     22.676
REMARK INTER + INTRA:          -3.433
REMARK INTER:                  -3.392
REMARK INTRA:                  -0.041
REMARK UNBOUND:                -0.046
REMARK  Name = 
REMARK  3 active torsions:
REMARK  status: ('A' for Active; 'I' for Inactive)
REMARK    1  A    between atoms: C_1  and  O_2
REMARK    2  A    between atoms: O_2  and  C_3
REMARK    3  A    between atoms: C_8  and  O_9
REMARK                            x       y       z     vdW  Elec       q    Type
REMARK                         _______ _______ _______ _____ _____    ______ ____
ROOT
ATOM      1  C   UNL     1      -6.655  22.620  -8.677  0.00  0.00    +0.000 A 
ATOM      2  C   UNL     1      -5.320  22.269  -8.485  0.00  0.00    +0.000 A 
ATOM      3  C   UNL     1      -4.865  21.917  -7.208  0.00  0.00    +0.000 A 
ATOM      4  C   UNL     1      -5.741  21.917  -6.120  0.00  0.00    +0.000 A 
ATOM      5  C   UNL     1      -7.076  22.267  -6.304  0.00  0.00    +0.000 A 
ATOM      6  C   UNL     1      -7.518  22.614  -7.574  0.00  0.00    +0.000 A 
ENDROOT
BRANCH   1   8
ATOM      7  C   UNL     1      -6.387  23.611 -10.820  0.00  0.00    +0.000 C 
ATOM      8  O   UNL     1      -7.235  22.985  -9.865  0.00  0.00    +0.000 OA
ENDBRANCH   1   8
BRANCH   6   9
ATOM      9  O   UNL     1      -8.836  22.954  -7.730  0.00  0.00    +0.000 OA
ATOM     10  H   UNL     1      -8.824  23.911  -7.925  0.00  0.00    +0.000 HD
ENDBRANCH   6   9
TORSDOF 2
ENDMDL
MODEL 8
REMARK VINA RESULT:    -3.096     11.073     11.353
REMARK INTER + INTRA:          -3.414
REMARK INTER:                  -3.361
REMARK INTRA:                  -0.053
REMARK UNBOUND:                -0.046
REMARK  Name = 
REMARK  3 active torsions:
REMARK  status: ('A' for Active; 'I' for Inactive)
REMARK    1  A    between atoms: C_1  and  O_2
REMARK    2  A    between atoms: O_2  and  C_3
REMARK    3  A    between atoms: C_8  and  O_9
REMARK                            x       y       z     vdW  Elec       q    Type
REMARK                         _______ _______ _______ _____ _____    ______ ____
ROOT
ATOM      1  C   UNL     1      -9.682  13.518 -16.782  0.00  0.00    +0.000 A 
ATOM      2  C   UNL     1     -10.854  12.854 -16.422  0.00  0.00    +0.000 A 
ATOM      3  C   UNL     1     -11.127  11.583 -16.944  0.00  0.00    +0.000 A 
ATOM      4  C   UNL     1     -10.231  10.972 -17.824  0.00  0.00    +0.000 A 
ATOM      5  C   UNL     1      -9.058  11.629 -18.187  0.00  0.00    +0.000 A 
ATOM      6  C   UNL     1      -8.796  12.889 -17.666  0.00  0.00    +0.000 A 
ENDROOT
BRANCH   1   8
ATOM      7  C   UNL     1      -8.958  14.879 -14.973  0.00  0.00    +0.000 C 
ATOM      8  O   UNL     1      -9.289  14.760 -16.352  0.00  0.00    +0.000 OA
ENDBRANCH   1   8
BRANCH   6   9
ATOM      9  O   UNL     1      -7.636  13.515 -18.038  0.00  0.00    +0.000 OA
ATOM     10  H   UNL     1      -6.926  12.897 -17.777  0.00  0.00    +0.000 HD
ENDBRANCH   6   9
TORSDOF 2
ENDMDL
MODEL 9
REMARK VINA RESULT:    -3.064     21.980     22.448
REMARK INTER + INTRA:          -3.379
REMARK INTER:                  -3.328
REMARK INTRA:                  -0.051
REMARK UNBOUND:                -0.046
REMARK  Name = 
REMARK  3 active torsions:
REMARK  status: ('A' for Active; 'I' for Inactive)
REMARK    1  A    between atoms: C_1  and  O_2
REMARK    2  A    between atoms: O_2  and  C_3
REMARK    3  A    between atoms: C_8  and  O_9
REMARK                            x       y       z     vdW  Elec       q    Type
REMARK                         _______ _______ _______ _____ _____    ______ ____
ROOT
ATOM      1  C   UNL     1      -6.160  21.951  -8.035  0.00  0.00    +0.000 A 
ATOM      2  C   UNL     1      -4.973  21.864  -8.761  0.00  0.00    +0.000 A 
ATOM      3  C   UNL     1      -4.875  22.475 -10.017  0.00  0.00    +0.000 A 
ATOM      4  C   UNL     1      -5.960  23.172 -10.552  0.00  0.00    +0.000 A 
ATOM      5  C   UNL     1      -7.150  23.263  -9.832  0.00  0.00    +0.000 A 
ATOM      6  C   UNL     1      -7.238  22.654  -8.587  0.00  0.00    +0.000 A 
ENDROOT
BRANCH   1   8
ATOM      7  C   UNL     1      -5.507  21.784  -5.756  0.00  0.00    +0.000 C 
ATOM      8  O   UNL     1      -6.396  21.404  -6.799  0.00  0.00    +0.000 OA
ENDBRANCH   1   8
BRANCH   6   9
ATOM      9  O   UNL     1      -8.417  22.757  -7.899  0.00  0.00    +0.000 OA
ATOM     10  H   UNL     1      -8.219  22.399  -7.012  0.00  0.00    +0.000 HD
ENDBRANCH   6   9
TORSDOF 2
ENDMDL
