MODEL 1
REMARK VINA RESULT:    -3.223      0.000      0.000
REMARK INTER + INTRA:          -3.558
REMARK INTER:                  -3.506
REMARK INTRA:                  -0.053
REMARK UNBOUND:                -0.053
REMARK  Name = 
REMARK  3 active torsions:
REMARK  status: ('A' for Active; 'I' for Inactive)
REMARK    1  A    between atoms: C_1  and  O_2
REMARK    2  A    between atoms: O_2  and  C_3
REMARK    3  A    between atoms: C_8  and  O_9
REMARK                            x       y       z     vdW  Elec       q    Type
REMARK                         _______ _______ _______ _____ _____    ______ ____
ROOT
ATOM      1  C   UNL     1      -9.798  16.919 -16.590  0.00  0.00    +0.000 A 
ATOM      2  C   UNL     1      -9.483  15.621 -16.989  0.00  0.00    +0.000 A 
ATOM      3  C   UNL     1      -9.061  14.680 -16.041  0.00  0.00    +0.000 A 
ATOM      4  C   UNL     1      -8.953  15.033 -14.694  0.00  0.00    +0.000 A 
ATOM      5  C   UNL     1      -9.266  16.328 -14.288  0.00  0.00    +0.000 A 
ATOM      6  C   UNL     1      -9.683  17.254 -15.235  0.00  0.00    +0.000 A 
ENDROOT
BRANCH   1   8
ATOM      7  C   UNL     1      -9.271  18.439 -18.339  0.00  0.00    +0.000 C 
ATOM      8  O   UNL     1     -10.221  17.938 -17.406  0.00  0.00    +0.000 OA
ENDBRANCH   1   8
BRANCH   6   9
ATOM      9  O   UNL     1      -9.986  18.520 -14.812  0.00  0.00    +0.000 OA
ATOM     10  H   UNL     1      -9.132  18.994 -14.816  0.00  0.00    +0.000 HD
ENDBRANCH   6   9
TORSDOF 2
ENDMDL
MODEL 2
REMARK VINA RESULT:    -3.217      1.222      1.947
REMARK INTER + INTRA:          -3.552
REMARK INTER:                  -3.511
REMARK INTRA:                  -0.041
REMARK UNBOUND:                -0.053
REMARK  Name = 
REMARK  3 active torsions:
REMARK  status: ('A' for Active; 'I' for Inactive)
REMARK    1  A    between atoms: C_1  and  O_2
REMARK    2  A    between atoms: O_2  and  C_3
REMARK    3  A    between atoms: C_8  and  O_9
REMARK                            x       y       z     vdW  Elec       q    Type
REMARK                         _______ _______ _______ _____ _____    ______ ____
ROOT
ATOM      1  C   UNL     1      -9.637  17.184 -15.473  0.00  0.00    +0.000 A 
ATOM      2  C   UNL     1      -9.827  16.825 -16.807  0.00  0.00    +0.000 A 
ATOM      3  C   UNL     1      -9.613  15.502 -17.213  0.00  0.00    +0.000 A 
ATOM      4  C   UNL     1      -9.208  14.535 -16.291  0.00  0.00    +0.000 A 
ATOM      5  C   UNL     1      -9.017  14.885 -14.956  0.00  0.00    +0.000 A 
ATOM      6  C   UNL     1      -9.231  16.200 -14.562  0.00  0.00    +0.000 A 
ENDROOT
BRANCH   1   8
ATOM      7  C   UNL     1      -9.563  19.536 -15.804  0.00  0.00    +0.000 C 
ATOM      8  O   UNL     1      -9.808  18.435 -14.936  0.00  0.00    +0.000 OA
ENDBRANCH   1   8
BRANCH   6   9
ATOM      9  O   UNL     1      -9.037  16.520 -13.245  0.00  0.00    +0.000 OA
ATOM     10  H   UNL     1      -9.509  17.365 -13.122  0.00  0.00    +0.000 HD
ENDBRANCH   6   9
TORSDOF 2
ENDMDL
MODEL 3
REMARK VINA RESULT:    -3.190      2.287      3.187
REMARK INTER + INTRA:          -3.523
REMARK INTER:                  -3.471
REMARK INTRA:                  -0.052
REMARK UNBOUND:                -0.053
REMARK  Name = 
REMARK  3 active torsions:
REMARK  status: ('A' for Active; 'I' for Inactive)
REMARK    1  A    between atoms: C_1  and  O_2
REMARK    2  A    between atoms: O_2  and  C_3
REMARK    3  A    between atoms: C_8  and  O_9
REMARK                            x       y       z     vdW  Elec       q    Type
REMARK                         _______ _______ _______ _____ _____    ______ ____
ROOT
ATOM      1  C   UNL     1      -9.381  14.968 -16.119  0.00  0.00    +0.000 A 
ATOM      2  C   UNL     1      -9.947  15.933 -16.951  0.00  0.00    +0.000 A 
ATOM      3  C   UNL     1     -10.139  17.238 -16.480  0.00  0.00    +0.000 A 
ATOM      4  C   UNL     1      -9.769  17.583 -15.179  0.00  0.00    +0.000 A 
ATOM      5  C   UNL     1      -9.202  16.625 -14.342  0.00  0.00    +0.000 A 
ATOM      6  C   UNL     1      -9.015  15.333 -14.817  0.00  0.00    +0.000 A 
ENDROOT
BRANCH   1   8
ATOM      7  C   UNL     1      -8.229  13.430 -17.516  0.00  0.00    +0.000 C 
ATOM      8  O   UNL     1      -9.136  13.659 -16.444  0.00  0.00    +0.000 OA
ENDBRANCH   1   8
BRANCH   6   9
ATOM      9  O   UNL     1      -8.457  14.409 -13.975  0.00  0.00    +0.000 OA
ATOM     10  H   UNL     1      -8.595  13.551 -14.420  0.00  0.00    +0.000 HD
ENDBRANCH   6   9
TORSDOF 2
ENDMDL
MODEL 4
REMARK VINA RESULT:    -3.187     14.552     14.948
REMARK INTER + INTRA:          -3.519
REMARK INTER:                  -3.467
REMARK INTRA:                  -0.053
REMARK UNBOUND:                -0.053
REMARK  Name = 
REMARK  3 active torsions:
REMARK  status: ('A' for Active; 'I' for Inactive)
REMARK    1  A    between atoms: C_1  and  O_2
REMARK    2  A    between atoms: O_2  and  C_3
REMARK    3  A    between atoms: C_8  and  O_9
REMARK                            x       y       z     vdW  Elec       q    Type
REMARK                         _______ _______ _______ _____ _____    ______ ____
ROOT
ATOM      1  C   UNL     1      -8.553   1.876 -17.490  0.00  0.00    +0.000 A 
ATOM      2  C   UNL     1      -9.729   1.874 -18.238  0.00  0.00    +0.000 A 
ATOM      3  C   UNL     1     -10.971   1.878 -17.590  0.00  0.00    +0.000 A 
ATOM      4  C   UNL     1     -11.041   1.882 -16.196  0.00  0.00    +0.000 A 
ATOM      5  C   UNL     1      -9.871   1.884 -15.441  0.00  0.00    +0.000 A 
ATOM      6  C   UNL     1      -8.644   1.880 -16.092  0.00  0.00    +0.000 A 
ENDROOT
BRANCH   1   8
ATOM      7  C   UNL     1      -6.875   3.024 -18.720  0.00  0.00    +0.000 C 
ATOM      8  O   UNL     1      -7.274   1.872 -17.987  0.00  0.00    +0.000 OA
ENDBRANCH   1   8
BRANCH   6   9
ATOM      9  O   UNL     1      -7.507   1.882 -15.329  0.00  0.00    +0.000 OA
ATOM     10  H   UNL     1      -7.669   1.209 -14.640  0.00  0.00    +0.000 HD
ENDBRANCH   6   9
TORSDOF 2
ENDMDL
MODEL 5
REMARK VINA RESULT:    -3.169      1.375      2.487
REMARK INTER + INTRA:          -3.500
REMARK INTER:                  -3.449
REMARK INTRA:                  -0.051
REMARK UNBOUND:                -0.053
REMARK  Name = 
REMARK  3 active torsions:
REMARK  status: ('A' for Active; 'I' for Inactive)
REMARK    1  A    between atoms: C_1  and  O_2
REMARK    2  A    between atoms: O_2  and  C_3
REMARK    3  A    between atoms: C_8  and  O_9
REMARK                            x       y       z     vdW  Elec       q    Type
REMARK                         _______ _______ _______ _____ _____    ______ ____
ROOT
ATOM      1  C   UNL     1      -9.522  16.456 -17.037  0.00  0.00    +0.000 A 
ATOM      2  C   UNL     1      -9.610  16.986 -15.750  0.00  0.00    +0.000 A 
ATOM      3  C   UNL     1      -9.311  16.185 -14.641  0.00  0.00    +0.000 A 
ATOM      4  C   UNL     1      -8.926  14.854 -14.813  0.00  0.00    +0.000 A 
ATOM      5  C   UNL     1      -8.835  14.317 -16.095  0.00  0.00    +0.000 A 
ATOM      6  C   UNL     1      -9.133  15.119 -17.189  0.00  0.00    +0.000 A 
ENDROOT
BRANCH   1   8
ATOM      7  C   UNL     1      -9.058  18.324 -18.430  0.00  0.00    +0.000 C 
ATOM      8  O   UNL     1      -9.784  17.121 -18.208  0.00  0.00    +0.000 OA
ENDBRANCH   1   8
BRANCH   6   9
ATOM      9  O   UNL     1      -9.037  14.569 -18.440  0.00  0.00    +0.000 OA
ATOM     10  H   UNL     1      -9.930  14.221 -18.627  0.00  0.00    +0.000 HD
ENDBRANCH   6   9
TORSDOF 2
ENDMDL
MODEL 6
REMARK VINA RESULT:    -3.118      9.371     10.350
REMARK INTER + INTRA:          -3.444
REMARK INTER:                  -3.403
REMARK INTRA:                  -0.041
REMARK UNBOUND:                -0.053
REMARK  Name = 
REMARK  3 active torsions:
REMARK  status: ('A' for Active; 'I' for Inactive)
REMARK    1  A    between atoms: C_1  and  O_2
REMARK    2  A    between atoms: O_2  and  C_3
REMARK    3  A    between atoms: C_8  and  O_9
REMARK                            x       y       z     vdW  Elec       q    Type
REMARK                         _______ _______ _______ _____ _____    ______ ____
ROOT
ATOM      1  C   UNL     1      -6.643  22.593  -8.678  0.00  0.00    +0.000 A 
ATOM      2  C   UNL     1      -5.301  22.262  -8.494  0.00  0.00    +0.000 A 
ATOM      3  C   UNL     1      -4.839  21.894  -7.224  0.00  0.00    +0.000 A 
ATOM      4  C   UNL     1      -5.714  21.855  -6.136  0.00  0.00    +0.000 A 
ATOM      5  C   UNL     1      -7.056  22.184  -6.312  0.00  0.00    +0.000 A 
ATOM      6  C   UNL     1      -7.505  22.548  -7.575  0.00  0.00    +0.000 A 
ENDROOT
BRANCH   1   8
ATOM      7  C   UNL     1      -6.389  23.613 -10.809  0.00  0.00    +0.000 C 
ATOM      8  O   UNL     1      -7.230  22.971  -9.859  0.00  0.00    +0.000 OA
ENDBRANCH   1   8
BRANCH   6   9
ATOM      9  O   UNL     1      -8.828  22.867  -7.724  0.00  0.00    +0.000 OA
ATOM     10  H   UNL     1      -8.848  23.511  -8.457  0.00  0.00    +0.000 HD
ENDBRANCH   6   9
TORSDOF 2
ENDMDL
MODEL 7
REMARK VINA RESULT:    -3.117      3.316      4.745
REMARK INTER + INTRA:          -3.442
REMARK INTER:                  -3.390
REMARK INTRA:                  -0.052
REMARK UNBOUND:                -0.053
REMARK  Name = 
REMARK  3 active torsions:
REMARK  status: ('A' for Active; 'I' for Inactive)
REMARK    1  A    between atoms: C_1  and  O_2
REMARK    2  A    between atoms: O_2  and  C_3
REMARK    3  A    between atoms: C_8  and  O_9
REMARK                            x       y       z     vdW  Elec       q    Type
REMARK                         _______ _______ _______ _____ _____    ______ ____
ROOT
ATOM      1  C   UNL     1      -9.689  13.505 -16.733  0.00  0.00    +0.000 A 
ATOM      2  C   UNL     1     -10.815  12.780 -16.345  0.00  0.00    +0.000 A 
ATOM      3  C   UNL     1     -11.037  11.500 -16.866  0.00  0.00    +0.000 A 
ATOM      4  C   UNL     1     -10.137  10.940 -17.776  0.00  0.00    +0.000 A 
ATOM      5  C   UNL     1      -9.010  11.658 -18.168  0.00  0.00    +0.000 A 
ATOM      6  C   UNL     1      -8.798  12.928 -17.646  0.00  0.00    +0.000 A 
ENDROOT
BRANCH   1   8
ATOM      7  C   UNL     1      -8.956  14.887 -14.944  0.00  0.00    +0.000 C 
ATOM      8  O   UNL     1      -9.348  14.763 -16.305  0.00  0.00    +0.000 OA
ENDBRANCH   1   8
BRANCH   6   9
ATOM      9  O   UNL     1      -7.683  13.614 -18.046  0.00  0.00    +0.000 OA
ATOM     10  H   UNL     1      -7.701  14.442 -17.529  0.00  0.00    +0.000 HD
ENDBRANCH   6   9
TORSDOF 2
ENDMDL
MODEL 8
REMARK VINA RESULT:    -3.099      1.704      3.715
REMARK INTER + INTRA:          -3.423
REMARK INTER:                  -3.373
REMARK INTRA:                  -0.050
REMARK UNBOUND:                -0.053
REMARK  Name = 
REMARK  3 active torsions:
REMARK  status: ('A' for Active; 'I' for Inactive)
REMARK    1  A    between atoms: C_1  and  O_2
REMARK    2  A    between atoms: O_2  and  C_3
REMARK    3  A    between atoms: C_8  and  O_9
REMARK                            x       y       z     vdW  Elec       q    Type
REMARK                         _______ _______ _______ _____ _____    ______ ____
ROOT
ATOM      1  C   UNL     1      -9.559  16.495 -15.787  0.00  0.00    +0.000 A 
ATOM      2  C   UNL     1      -9.711  17.473 -14.806  0.00  0.00    +0.000 A 
ATOM      3  C   UNL     1      -9.683  18.828 -15.159  0.00  0.00    +0.000 A 
ATOM      4  C   UNL     1      -9.503  19.209 -16.490  0.00  0.00    +0.000 A 
ATOM      5  C   UNL     1      -9.351  18.237 -17.476  0.00  0.00    +0.000 A 
ATOM      6  C   UNL     1      -9.379  16.896 -17.117  0.00  0.00    +0.000 A 
ENDROOT
BRANCH   1   8
ATOM      7  C   UNL     1      -8.637  14.633 -14.633  0.00  0.00    +0.000 C 
ATOM      8  O   UNL     1      -9.565  15.137 -15.587  0.00  0.00    +0.000 OA
ENDBRANCH   1   8
BRANCH   6   9
ATOM      9  O   UNL     1      -9.228  15.958 -18.104  0.00  0.00    +0.000 OA
ATOM     10  H   UNL     1      -9.021  15.130 -17.630  0.00  0.00    +0.000 HD
ENDBRANCH   6   9
TORSDOF 2
ENDMDL
MODEL 9
REMARK VINA RESULT:    -3.062      1.875      3.254
REMARK INTER + INTRA:          -3.383
REMARK INTER:                  -3.338
REMARK INTRA:                  -0.045
REMARK UNBOUND:                -0.053
REMARK  Name = 
REMARK  3 active torsions:
REMARK  status: ('A' for Active; 'I' for Inactive)
REMARK    1  A    between atoms: C_1  and  O_2
REMARK    2  A    between atoms: O_2  and  C_3
REMARK    3  A    between atoms: C_8  and  O_9
REMARK                            x       y       z     vdW  Elec       q    Type
REMARK                         _______ _______ _______ _____ _____    ______ ____
ROOT
ATOM      1  C   UNL     1      -9.477  14.759 -16.250  0.00  0.00    +0.000 A 
ATOM      2  C   UNL     1      -8.995  14.835 -14.944  0.00  0.00    +0.000 A 
ATOM      3  C   UNL     1      -9.060  16.046 -14.244  0.00  0.00    +0.000 A 
ATOM      4  C   UNL     1      -9.604  17.183 -14.845  0.00  0.00    +0.000 A 
ATOM      5  C   UNL     1     -10.088  17.115 -16.149  0.00  0.00    +0.000 A 
ATOM      6  C   UNL     1     -10.020  15.909 -16.836  0.00  0.00    +0.000 A 
ENDROOT
BRANCH   1   8
ATOM      7  C   UNL     1      -8.220  13.246 -17.583  0.00  0.00    +0.000 C 
ATOM      8  O   UNL     1      -9.477  13.645 -17.051  0.00  0.00    +0.000 OA
ENDBRANCH   1   8
BRANCH   6   9
ATOM      9  O   UNL     1     -10.502  15.867 -18.117  0.00  0.00    +0.000 OA
ATOM     10  H   UNL     1      -9.866  15.308 -18.603  0.00  0.00    +0.000 HD
ENDBRANCH   6   9
TORSDOF 2
ENDMDL
