MODEL 1
REMARK VINA RESULT:    -3.835      0.000      0.000
REMARK INTER + INTRA:          -5.546
REMARK INTER:                  -5.181
REMARK INTRA:                  -0.366
REMARK UNBOUND:                -0.366
REMARK  Name = 
REMARK  10 active torsions:
REMARK  status: ('A' for Active; 'I' for Inactive)
REMARK    1  A    between atoms: C_1  and  C_2
REMARK    2  A    between atoms: C_5  and  N_8
REMARK    3  A    between atoms: N_8  and  C_9
REMARK    4  A    between atoms: N_8  and  C_13
REMARK    5  A    between atoms: C_9  and  C_10
REMARK    6  A    between atoms: C_10  and  C_11
REMARK    7  A    between atoms: C_10  and  O_12
REMARK    8  A    between atoms: C_13  and  C_14
REMARK    9  A    between atoms: C_14  and  C_15
REMARK   10  A    between atoms: C_14  and  O_16
REMARK                            x       y       z     vdW  Elec       q    Type
REMARK                         _______ _______ _______ _____ _____    ______ ____
ROOT
ATOM      1  N   UNL     1     -10.335  12.874 -17.315  0.00  0.00    +0.000 N 
ENDROOT
BRANCH   1   6
ATOM      2  C   UNL     1      -9.587  18.073 -14.918  0.00  0.00    +0.000 C 
ATOM      3  C   UNL     1      -9.760  16.727 -15.552  0.00  0.00    +0.000 A 
ATOM      4  C   UNL     1     -10.460  16.583 -16.745  0.00  0.00    +0.000 A 
ATOM      5  C   UNL     1     -10.644  15.315 -17.320  0.00  0.00    +0.000 A 
ATOM      6  C   UNL     1     -10.164  14.134 -16.726  0.00  0.00    +0.000 A 
ATOM      7  C   UNL     1      -9.459  14.316 -15.523  0.00  0.00    +0.000 A 
ATOM      8  C   UNL     1      -9.266  15.579 -14.939  0.00  0.00    +0.000 A 
ENDBRANCH   1   6
BRANCH   1   9
ATOM      9  C   UNL     1      -9.460  12.453 -18.435  0.00  0.00    +0.000 C 
BRANCH   9  10
ATOM     10  C   UNL     1      -8.039  12.049 -17.969  0.00  0.00    +0.000 C 
ATOM     11  C   UNL     1      -7.548  10.818 -18.720  0.00  0.00    +0.000 C 
BRANCH  10  12
ATOM     12  O   UNL     1      -7.102  13.111 -18.196  0.00  0.00    +0.000 OA
ATOM     13  H   UNL     1      -7.416  13.897 -17.718  0.00  0.00    +0.000 HD
ENDBRANCH  10  12
ENDBRANCH   9  10
ENDBRANCH   1   9
BRANCH   1  14
ATOM     14  C   UNL     1     -11.632  12.156 -17.231  0.00  0.00    +0.000 C 
BRANCH  14  15
ATOM     15  C   UNL     1     -11.586  10.980 -16.226  0.00  0.00    +0.000 C 
ATOM     16  C   UNL     1     -10.770   9.795 -16.728  0.00  0.00    +0.000 C 
BRANCH  15  17
ATOM     17  O   UNL     1     -11.050  11.384 -14.967  0.00  0.00    +0.000 OA
ATOM     18  H   UNL     1     -11.830  11.529 -14.395  0.00  0.00    +0.000 HD
ENDBRANCH  15  17
ENDBRANCH  14  15
ENDBRANCH   1  14
TORSDOF 7
ENDMDL
MODEL 2
REMARK VINA RESULT:    -3.727     14.711     16.666
REMARK INTER + INTRA:          -5.400
REMARK INTER:                  -4.790
REMARK INTRA:                  -0.610
REMARK UNBOUND:                -0.366
REMARK  Name = 
REMARK  10 active torsions:
REMARK  status: ('A' for Active; 'I' for Inactive)
REMARK    1  A    between atoms: C_1  and  C_2
REMARK    2  A    between atoms: C_5  and  N_8
REMARK    3  A    between atoms: N_8  and  C_9
REMARK    4  A    between atoms: N_8  and  C_13
REMARK    5  A    between atoms: C_9  and  C_10
REMARK    6  A    between atoms: C_10  and  C_11
REMARK    7  A    between atoms: C_10  and  O_12
REMARK    8  A    between atoms: C_13  and  C_14
REMARK    9  A    between atoms: C_14  and  C_15
REMARK   10  A    between atoms: C_14  and  O_16
REMARK                            x       y       z     vdW  Elec       q    Type
REMARK                         _______ _______ _______ _____ _____    ______ ____
ROOT
ATOM      1  N   UNL     1       4.582  22.042 -14.293  0.00  0.00    +0.000 N 
ENDROOT
BRANCH   1   6
ATOM      2  C   UNL     1      -0.674  23.253 -12.235  0.00  0.00    +0.000 C 
ATOM      3  C   UNL     1       0.700  22.957 -12.754  0.00  0.00    +0.000 A 
ATOM      4  C   UNL     1       1.191  23.602 -13.883  0.00  0.00    +0.000 A 
ATOM      5  C   UNL     1       2.468  23.298 -14.383  0.00  0.00    +0.000 A 
ATOM      6  C   UNL     1       3.302  22.326 -13.801  0.00  0.00    +0.000 A 
ATOM      7  C   UNL     1       2.773  21.695 -12.660  0.00  0.00    +0.000 A 
ATOM      8  C   UNL     1       1.499  21.991 -12.148  0.00  0.00    +0.000 A 
ENDBRANCH   1   6
BRANCH   1   9
ATOM      9  C   UNL     1       5.749  22.047 -13.378  0.00  0.00    +0.000 C 
BRANCH   9  10
ATOM     10  C   UNL     1       7.061  21.613 -14.076  0.00  0.00    +0.000 C 
ATOM     11  C   UNL     1       8.278  22.124 -13.314  0.00  0.00    +0.000 C 
BRANCH  10  12
ATOM     12  O   UNL     1       7.154  20.184 -14.155  0.00  0.00    +0.000 OA
ATOM     13  H   UNL     1       6.640  19.891 -14.926  0.00  0.00    +0.000 HD
ENDBRANCH  10  12
ENDBRANCH   9  10
ENDBRANCH   1   9
BRANCH   1  14
ATOM     14  C   UNL     1       4.914  22.233 -15.729  0.00  0.00    +0.000 C 
BRANCH  14  15
ATOM     15  C   UNL     1       4.368  21.085 -16.612  0.00  0.00    +0.000 C 
ATOM     16  C   UNL     1       5.002  21.040 -17.997  0.00  0.00    +0.000 C 
BRANCH  15  17
ATOM     17  O   UNL     1       4.557  19.811 -15.998  0.00  0.00    +0.000 OA
ATOM     18  H   UNL     1       4.977  20.006 -15.135  0.00  0.00    +0.000 HD
ENDBRANCH  15  17
ENDBRANCH  14  15
ENDBRANCH   1  14
TORSDOF 7
ENDMDL
MODEL 3
REMARK VINA RESULT:    -3.668      2.536      4.046
REMARK INTER + INTRA:          -5.321
REMARK INTER:                  -5.020
REMARK INTRA:                  -0.300
REMARK UNBOUND:                -0.366
REMARK  Name = 
REMARK  10 active torsions:
REMARK  status: ('A' for Active; 'I' for Inactive)
REMARK    1  A    between atoms: C_1  and  C_2
REMARK    2  A    between atoms: C_5  and  N_8
REMARK    3  A    between atoms: N_8  and  C_9
REMARK    4  A    between atoms: N_8  and  C_13
REMARK    5  A    between atoms: C_9  and  C_10
REMARK    6  A    between atoms: C_10  and  C_11
REMARK    7  A    between atoms: C_10  and  O_12
REMARK    8  A    between atoms: C_13  and  C_14
REMARK    9  A    between atoms: C_14  and  C_15
REMARK   10  A    between atoms: C_14  and  O_16
REMARK                            x       y       z     vdW  Elec       q    Type
REMARK                         _______ _______ _______ _____ _____    ______ ____
ROOT
ATOM      1  N   UNL     1      -9.540  15.948 -17.063  0.00  0.00    +0.000 N 
ENDROOT
BRANCH   1   6
ATOM      2  C   UNL     1     -10.624  21.455 -18.417  0.00  0.00    +0.000 C 
ATOM      3  C   UNL     1     -10.324  20.026 -18.083  0.00  0.00    +0.000 A 
ATOM      4  C   UNL     1     -10.996  18.987 -18.720  0.00  0.00    +0.000 A 
ATOM      5  C   UNL     1     -10.733  17.650 -18.381  0.00  0.00    +0.000 A 
ATOM      6  C   UNL     1      -9.812  17.285 -17.383  0.00  0.00    +0.000 A 
ATOM      7  C   UNL     1      -9.150  18.360 -16.762  0.00  0.00    +0.000 A 
ATOM      8  C   UNL     1      -9.402  19.702 -17.092  0.00  0.00    +0.000 A 
ENDBRANCH   1   6
BRANCH   1   9
ATOM      9  C   UNL     1      -9.393  14.942 -18.142  0.00  0.00    +0.000 C 
BRANCH   9  10
ATOM     10  C   UNL     1      -8.815  13.598 -17.634  0.00  0.00    +0.000 C 
ATOM     11  C   UNL     1      -9.655  12.424 -18.122  0.00  0.00    +0.000 C 
BRANCH  10  12
ATOM     12  O   UNL     1      -7.472  13.407 -18.100  0.00  0.00    +0.000 OA
ATOM     13  H   UNL     1      -7.203  14.207 -18.581  0.00  0.00    +0.000 HD
ENDBRANCH  10  12
ENDBRANCH   9  10
ENDBRANCH   1   9
BRANCH   1  14
ATOM     14  C   UNL     1      -9.888  15.390 -15.731  0.00  0.00    +0.000 C 
BRANCH  14  15
ATOM     15  C   UNL     1      -8.826  15.733 -14.659  0.00  0.00    +0.000 C 
ATOM     16  C   UNL     1      -9.365  16.620 -13.544  0.00  0.00    +0.000 C 
BRANCH  15  17
ATOM     17  O   UNL     1      -8.279  14.558 -14.063  0.00  0.00    +0.000 OA
ATOM     18  H   UNL     1      -8.215  13.910 -14.794  0.00  0.00    +0.000 HD
ENDBRANCH  15  17
ENDBRANCH  14  15
ENDBRANCH   1  14
TORSDOF 7
ENDMDL
MODEL 4
REMARK VINA RESULT:    -3.520     14.789     16.897
REMARK INTER + INTRA:          -5.121
REMARK INTER:                  -4.851
REMARK INTRA:                  -0.269
REMARK UNBOUND:                -0.366
REMARK  Name = 
REMARK  10 active torsions:
REMARK  status: ('A' for Active; 'I' for Inactive)
REMARK    1  A    between atoms: C_1  and  C_2
REMARK    2  A    between atoms: C_5  and  N_8
REMARK    3  A    between atoms: N_8  and  C_9
REMARK    4  A    between atoms: N_8  and  C_13
REMARK    5  A    between atoms: C_9  and  C_10
REMARK    6  A    between atoms: C_10  and  C_11
REMARK    7  A    between atoms: C_10  and  O_12
REMARK    8  A    between atoms: C_13  and  C_14
REMARK    9  A    between atoms: C_14  and  C_15
REMARK   10  A    between atoms: C_14  and  O_16
REMARK                            x       y       z     vdW  Elec       q    Type
REMARK                         _______ _______ _______ _____ _____    ______ ____
ROOT
ATOM      1  N   UNL     1       5.117  22.251 -14.454  0.00  0.00    +0.000 N 
ENDROOT
BRANCH   1   6
ATOM      2  C   UNL     1      -0.382  22.838 -12.798  0.00  0.00    +0.000 C 
ATOM      3  C   UNL     1       1.051  22.704 -13.212  0.00  0.00    +0.000 A 
ATOM      4  C   UNL     1       1.546  23.402 -14.309  0.00  0.00    +0.000 A 
ATOM      5  C   UNL     1       2.883  23.250 -14.711  0.00  0.00    +0.000 A 
ATOM      6  C   UNL     1       3.780  22.384 -14.060  0.00  0.00    +0.000 A 
ATOM      7  C   UNL     1       3.246  21.696 -12.954  0.00  0.00    +0.000 A 
ATOM      8  C   UNL     1       1.912  21.841 -12.540  0.00  0.00    +0.000 A 
ENDBRANCH   1   6
BRANCH   1   9
ATOM      9  C   UNL     1       5.446  21.825 -15.836  0.00  0.00    +0.000 C 
BRANCH   9  10
ATOM     10  C   UNL     1       4.334  20.960 -16.478  0.00  0.00    +0.000 C 
ATOM     11  C   UNL     1       4.349  21.090 -17.996  0.00  0.00    +0.000 C 
BRANCH  10  12
ATOM     12  O   UNL     1       4.506  19.574 -16.149  0.00  0.00    +0.000 OA
ATOM     13  H   UNL     1       5.163  19.513 -15.435  0.00  0.00    +0.000 HD
ENDBRANCH  10  12
ENDBRANCH   9  10
ENDBRANCH   1   9
BRANCH   1  14
ATOM     14  C   UNL     1       6.194  22.021 -13.457  0.00  0.00    +0.000 C 
BRANCH  14  15
ATOM     15  C   UNL     1       7.440  21.354 -14.087  0.00  0.00    +0.000 C 
ATOM     16  C   UNL     1       8.713  22.174 -13.911  0.00  0.00    +0.000 C 
BRANCH  15  17
ATOM     17  O   UNL     1       7.673  20.055 -13.544  0.00  0.00    +0.000 OA
ATOM     18  H   UNL     1       8.641  19.924 -13.609  0.00  0.00    +0.000 HD
ENDBRANCH  15  17
ENDBRANCH  14  15
ENDBRANCH   1  14
TORSDOF 7
ENDMDL
MODEL 5
REMARK VINA RESULT:    -3.336      2.284      5.691
REMARK INTER + INTRA:          -4.872
REMARK INTER:                  -4.421
REMARK INTRA:                  -0.451
REMARK UNBOUND:                -0.366
REMARK  Name = 
REMARK  10 active torsions:
REMARK  status: ('A' for Active; 'I' for Inactive)
REMARK    1  A    between atoms: C_1  and  C_2
REMARK    2  A    between atoms: C_5  and  N_8
REMARK    3  A    between atoms: N_8  and  C_9
REMARK    4  A    between atoms: N_8  and  C_13
REMARK    5  A    between atoms: C_9  and  C_10
REMARK    6  A    between atoms: C_10  and  C_11
REMARK    7  A    between atoms: C_10  and  O_12
REMARK    8  A    between atoms: C_13  and  C_14
REMARK    9  A    between atoms: C_14  and  C_15
REMARK   10  A    between atoms: C_14  and  O_16
REMARK                            x       y       z     vdW  Elec       q    Type
REMARK                         _______ _______ _______ _____ _____    ______ ____
ROOT
ATOM      1  N   UNL     1      -9.925  14.854 -16.626  0.00  0.00    +0.000 N 
ENDROOT
BRANCH   1   6
ATOM      2  C   UNL     1     -10.136   9.263 -18.047  0.00  0.00    +0.000 C 
ATOM      3  C   UNL     1     -10.095  10.719 -17.699  0.00  0.00    +0.000 A 
ATOM      4  C   UNL     1      -9.043  11.525 -18.122  0.00  0.00    +0.000 A 
ATOM      5  C   UNL     1      -8.994  12.883 -17.768  0.00  0.00    +0.000 A 
ATOM      6  C   UNL     1      -9.970  13.495 -16.960  0.00  0.00    +0.000 A 
ATOM      7  C   UNL     1     -11.019  12.651 -16.552  0.00  0.00    +0.000 A 
ATOM      8  C   UNL     1     -11.081  11.292 -16.901  0.00  0.00    +0.000 A 
ENDBRANCH   1   6
BRANCH   1   9
ATOM      9  C   UNL     1      -9.191  15.299 -15.417  0.00  0.00    +0.000 C 
BRANCH   9  10
ATOM     10  C   UNL     1      -9.692  16.662 -14.879  0.00  0.00    +0.000 C 
ATOM     11  C   UNL     1      -9.430  16.787 -13.382  0.00  0.00    +0.000 C 
BRANCH  10  12
ATOM     12  O   UNL     1      -9.030  17.750 -15.538  0.00  0.00    +0.000 OA
ATOM     13  H   UNL     1      -8.144  17.844 -15.149  0.00  0.00    +0.000 HD
ENDBRANCH  10  12
ENDBRANCH   9  10
ENDBRANCH   1   9
BRANCH   1  14
ATOM     14  C   UNL     1     -10.964  15.800 -17.109  0.00  0.00    +0.000 C 
BRANCH  14  15
ATOM     15  C   UNL     1     -10.539  16.519 -18.412  0.00  0.00    +0.000 C 
ATOM     16  C   UNL     1     -11.384  17.750 -18.719  0.00  0.00    +0.000 C 
BRANCH  15  17
ATOM     17  O   UNL     1      -9.171  16.923 -18.369  0.00  0.00    +0.000 OA
ATOM     18  H   UNL     1      -8.706  16.302 -18.966  0.00  0.00    +0.000 HD
ENDBRANCH  15  17
ENDBRANCH  14  15
ENDBRANCH   1  14
TORSDOF 7
ENDMDL
MODEL 6
REMARK VINA RESULT:    -3.265      5.536      9.198
REMARK INTER + INTRA:          -4.776
REMARK INTER:                  -4.291
REMARK INTRA:                  -0.484
REMARK UNBOUND:                -0.366
REMARK  Name = 
REMARK  10 active torsions:
REMARK  status: ('A' for Active; 'I' for Inactive)
REMARK    1  A    between atoms: C_1  and  C_2
REMARK    2  A    between atoms: C_5  and  N_8
REMARK    3  A    between atoms: N_8  and  C_9
REMARK    4  A    between atoms: N_8  and  C_13
REMARK    5  A    between atoms: C_9  and  C_10
REMARK    6  A    between atoms: C_10  and  C_11
REMARK    7  A    between atoms: C_10  and  O_12
REMARK    8  A    between atoms: C_13  and  C_14
REMARK    9  A    between atoms: C_14  and  C_15
REMARK   10  A    between atoms: C_14  and  O_16
REMARK                            x       y       z     vdW  Elec       q    Type
REMARK                         _______ _______ _______ _____ _____    ______ ____
ROOT
ATOM      1  N   UNL     1      -9.218  21.440 -15.729  0.00  0.00    +0.000 N 
ENDROOT
BRANCH   1   6
ATOM      2  C   UNL     1     -10.455  16.012 -17.259  0.00  0.00    +0.000 C 
ATOM      3  C   UNL     1     -10.110  17.416 -16.865  0.00  0.00    +0.000 A 
ATOM      4  C   UNL     1      -9.888  17.750 -15.534  0.00  0.00    +0.000 A 
ATOM      5  C   UNL     1      -9.594  19.074 -15.167  0.00  0.00    +0.000 A 
ATOM      6  C   UNL     1      -9.531  20.126 -16.099  0.00  0.00    +0.000 A 
ATOM      7  C   UNL     1      -9.759  19.751 -17.436  0.00  0.00    +0.000 A 
ATOM      8  C   UNL     1     -10.051  18.431 -17.816  0.00  0.00    +0.000 A 
ENDBRANCH   1   6
BRANCH   1   9
ATOM      9  C   UNL     1      -9.170  22.510 -16.754  0.00  0.00    +0.000 C 
BRANCH   9  10
ATOM     10  C   UNL     1     -10.426  23.415 -16.737  0.00  0.00    +0.000 C 
ATOM     11  C   UNL     1     -11.335  23.108 -17.922  0.00  0.00    +0.000 C 
BRANCH  10  12
ATOM     12  O   UNL     1     -11.183  23.221 -15.535  0.00  0.00    +0.000 OA
ATOM     13  H   UNL     1     -11.279  22.265 -15.389  0.00  0.00    +0.000 HD
ENDBRANCH  10  12
ENDBRANCH   9  10
ENDBRANCH   1   9
BRANCH   1  14
ATOM     14  C   UNL     1      -8.452  21.728 -14.490  0.00  0.00    +0.000 C 
BRANCH  14  15
ATOM     15  C   UNL     1      -7.291  22.721 -14.738  0.00  0.00    +0.000 C 
ATOM     16  C   UNL     1      -6.996  23.611 -13.537  0.00  0.00    +0.000 C 
BRANCH  15  17
ATOM     17  O   UNL     1      -6.086  22.045 -15.094  0.00  0.00    +0.000 OA
ATOM     18  H   UNL     1      -6.151  21.169 -14.664  0.00  0.00    +0.000 HD
ENDBRANCH  15  17
ENDBRANCH  14  15
ENDBRANCH   1  14
TORSDOF 7
ENDMDL
MODEL 7
REMARK VINA RESULT:    -3.201      2.412      5.394
REMARK INTER + INTRA:          -4.690
REMARK INTER:                  -4.088
REMARK INTRA:                  -0.601
REMARK UNBOUND:                -0.366
REMARK  Name = 
REMARK  10 active torsions:
REMARK  status: ('A' for Active; 'I' for Inactive)
REMARK    1  A    between atoms: C_1  and  C_2
REMARK    2  A    between atoms: C_5  and  N_8
REMARK    3  A    between atoms: N_8  and  C_9
REMARK    4  A    between atoms: N_8  and  C_13
REMARK    5  A    between atoms: C_9  and  C_10
REMARK    6  A    between atoms: C_10  and  C_11
REMARK    7  A    between atoms: C_10  and  O_12
REMARK    8  A    between atoms: C_13  and  C_14
REMARK    9  A    between atoms: C_14  and  C_15
REMARK   10  A    between atoms: C_14  and  O_16
REMARK                            x       y       z     vdW  Elec       q    Type
REMARK                         _______ _______ _______ _____ _____    ______ ____
ROOT
ATOM      1  N   UNL     1     -10.044  14.449 -16.449  0.00  0.00    +0.000 N 
ENDROOT
BRANCH   1   6
ATOM      2  C   UNL     1     -11.282   9.079 -18.168  0.00  0.00    +0.000 C 
ATOM      3  C   UNL     1     -10.942  10.463 -17.709  0.00  0.00    +0.000 A 
ATOM      4  C   UNL     1     -11.529  11.003 -16.569  0.00  0.00    +0.000 A 
ATOM      5  C   UNL     1     -11.229  12.312 -16.160  0.00  0.00    +0.000 A 
ATOM      6  C   UNL     1     -10.354  13.151 -16.874  0.00  0.00    +0.000 A 
ATOM      7  C   UNL     1      -9.777  12.572 -18.019  0.00  0.00    +0.000 A 
ATOM      8  C   UNL     1     -10.066  11.263 -18.438  0.00  0.00    +0.000 A 
ENDBRANCH   1   6
BRANCH   1   9
ATOM      9  C   UNL     1     -10.700  15.616 -17.087  0.00  0.00    +0.000 C 
BRANCH   9  10
ATOM     10  C   UNL     1      -9.730  16.803 -17.309  0.00  0.00    +0.000 C 
ATOM     11  C   UNL     1      -9.868  17.364 -18.719  0.00  0.00    +0.000 C 
BRANCH  10  12
ATOM     12  O   UNL     1      -9.994  17.863 -16.380  0.00  0.00    +0.000 OA
ATOM     13  H   UNL     1      -9.408  17.746 -15.614  0.00  0.00    +0.000 HD
ENDBRANCH  10  12
ENDBRANCH   9  10
ENDBRANCH   1   9
BRANCH   1  14
ATOM     14  C   UNL     1      -8.758  14.750 -15.771  0.00  0.00    +0.000 C 
BRANCH  14  15
ATOM     15  C   UNL     1      -8.942  15.006 -14.256  0.00  0.00    +0.000 C 
ATOM     16  C   UNL     1      -7.791  14.471 -13.412  0.00  0.00    +0.000 C 
BRANCH  15  17
ATOM     17  O   UNL     1      -9.090  16.396 -13.970  0.00  0.00    +0.000 OA
ATOM     18  H   UNL     1      -8.497  16.563 -13.210  0.00  0.00    +0.000 HD
ENDBRANCH  15  17
ENDBRANCH  14  15
ENDBRANCH   1  14
TORSDOF 7
ENDMDL
MODEL 8
REMARK VINA RESULT:    -3.012      2.763      4.565
REMARK INTER + INTRA:          -4.435
REMARK INTER:                  -4.016
REMARK INTRA:                  -0.419
REMARK UNBOUND:                -0.366
REMARK  Name = 
REMARK  10 active torsions:
REMARK  status: ('A' for Active; 'I' for Inactive)
REMARK    1  A    between atoms: C_1  and  C_2
REMARK    2  A    between atoms: C_5  and  N_8
REMARK    3  A    between atoms: N_8  and  C_9
REMARK    4  A    between atoms: N_8  and  C_13
REMARK    5  A    between atoms: C_9  and  C_10
REMARK    6  A    between atoms: C_10  and  C_11
REMARK    7  A    between atoms: C_10  and  O_12
REMARK    8  A    between atoms: C_13  and  C_14
REMARK    9  A    between atoms: C_14  and  C_15
REMARK   10  A    between atoms: C_14  and  O_16
REMARK                            x       y       z     vdW  Elec       q    Type
REMARK                         _______ _______ _______ _____ _____    ______ ____
ROOT
ATOM      1  N   UNL     1      -9.674  16.781 -16.348  0.00  0.00    +0.000 N 
ENDROOT
BRANCH   1   6
ATOM      2  C   UNL     1     -10.016  22.493 -17.109  0.00  0.00    +0.000 C 
ATOM      3  C   UNL     1      -9.902  21.012 -16.913  0.00  0.00    +0.000 A 
ATOM      4  C   UNL     1      -9.959  20.142 -17.996  0.00  0.00    +0.000 A 
ATOM      5  C   UNL     1      -9.882  18.753 -17.804  0.00  0.00    +0.000 A 
ATOM      6  C   UNL     1      -9.769  18.166 -16.531  0.00  0.00    +0.000 A 
ATOM      7  C   UNL     1      -9.713  19.076 -15.459  0.00  0.00    +0.000 A 
ATOM      8  C   UNL     1      -9.786  20.467 -15.638  0.00  0.00    +0.000 A 
ENDBRANCH   1   6
BRANCH   1   9
ATOM      9  C   UNL     1      -9.436  16.224 -14.994  0.00  0.00    +0.000 C 
BRANCH   9  10
ATOM     10  C   UNL     1      -8.768  14.828 -15.028  0.00  0.00    +0.000 C 
ATOM     11  C   UNL     1      -7.933  14.593 -13.775  0.00  0.00    +0.000 C 
BRANCH  10  12
ATOM     12  O   UNL     1      -9.753  13.788 -15.106  0.00  0.00    +0.000 OA
ATOM     13  H   UNL     1     -10.628  14.206 -15.178  0.00  0.00    +0.000 HD
ENDBRANCH  10  12
ENDBRANCH   9  10
ENDBRANCH   1   9
BRANCH   1  14
ATOM     14  C   UNL     1      -9.294  15.881 -17.468  0.00  0.00    +0.000 C 
BRANCH  14  15
ATOM     15  C   UNL     1     -10.528  15.230 -18.137  0.00  0.00    +0.000 C 
ATOM     16  C   UNL     1     -10.249  13.832 -18.677  0.00  0.00    +0.000 C 
BRANCH  15  17
ATOM     17  O   UNL     1     -11.632  15.144 -17.238  0.00  0.00    +0.000 OA
ATOM     18  H   UNL     1     -11.852  14.192 -17.198  0.00  0.00    +0.000 HD
ENDBRANCH  15  17
ENDBRANCH  14  15
ENDBRANCH   1  14
TORSDOF 7
ENDMDL
