MODEL 1
REMARK VINA RESULT:    -3.815      0.000      0.000
REMARK INTER + INTRA:          -5.480
REMARK INTER:                  -5.154
REMARK INTRA:                  -0.327
REMARK UNBOUND:                -0.327
REMARK  Name = 
REMARK  10 active torsions:
REMARK  status: ('A' for Active; 'I' for Inactive)
REMARK    1  A    between atoms: C_1  and  C_2
REMARK    2  A    between atoms: C_5  and  N_8
REMARK    3  A    between atoms: N_8  and  C_9
REMARK    4  A    between atoms: N_8  and  C_13
REMARK    5  A    between atoms: C_9  and  C_10
REMARK    6  A    between atoms: C_10  and  C_11
REMARK    7  A    between atoms: C_10  and  O_12
REMARK    8  A    between atoms: C_13  and  C_14
REMARK    9  A    between atoms: C_14  and  C_15
REMARK   10  A    between atoms: C_14  and  O_16
REMARK                            x       y       z     vdW  Elec       q    Type
REMARK                         _______ _______ _______ _____ _____    ______ ____
ROOT
ATOM      1  N   UNL     1     -10.330  12.243 -17.555  0.00  0.00    +0.000 N 
ENDROOT
BRANCH   1   6
ATOM      2  C   UNL     1      -9.756  17.657 -15.633  0.00  0.00    +0.000 C 
ATOM      3  C   UNL     1      -9.927  16.250 -16.120  0.00  0.00    +0.000 A 
ATOM      4  C   UNL     1      -9.402  15.178 -15.405  0.00  0.00    +0.000 A 
ATOM      5  C   UNL     1      -9.539  13.864 -15.881  0.00  0.00    +0.000 A 
ATOM      6  C   UNL     1     -10.180  13.558 -17.096  0.00  0.00    +0.000 A 
ATOM      7  C   UNL     1     -10.700  14.665 -17.790  0.00  0.00    +0.000 A 
ATOM      8  C   UNL     1     -10.571  15.984 -17.324  0.00  0.00    +0.000 A 
ENDBRANCH   1   6
BRANCH   1   9
ATOM      9  C   UNL     1      -9.421  11.712 -18.599  0.00  0.00    +0.000 C 
BRANCH   9  10
ATOM     10  C   UNL     1      -7.991  11.442 -18.069  0.00  0.00    +0.000 C 
ATOM     11  C   UNL     1      -7.414  10.172 -18.681  0.00  0.00    +0.000 C 
BRANCH  10  12
ATOM     12  O   UNL     1      -7.111  12.529 -18.387  0.00  0.00    +0.000 OA
ATOM     13  H   UNL     1      -6.462  12.611 -17.669  0.00  0.00    +0.000 HD
ENDBRANCH  10  12
ENDBRANCH   9  10
ENDBRANCH   1   9
BRANCH   1  14
ATOM     14  C   UNL     1     -11.628  11.531 -17.436  0.00  0.00    +0.000 C 
BRANCH  14  15
ATOM     15  C   UNL     1     -11.632  10.513 -16.270  0.00  0.00    +0.000 C 
ATOM     16  C   UNL     1     -10.689   9.337 -16.497  0.00  0.00    +0.000 C 
BRANCH  15  17
ATOM     17  O   UNL     1     -11.280  11.129 -15.032  0.00  0.00    +0.000 OA
ATOM     18  H   UNL     1     -12.093  11.089 -14.490  0.00  0.00    +0.000 HD
ENDBRANCH  15  17
ENDBRANCH  14  15
ENDBRANCH   1  14
TORSDOF 7
ENDMDL
MODEL 2
REMARK VINA RESULT:    -3.751     15.110     17.042
REMARK INTER + INTRA:          -5.394
REMARK INTER:                  -4.793
REMARK INTRA:                  -0.600
REMARK UNBOUND:                -0.327
REMARK  Name = 
REMARK  10 active torsions:
REMARK  status: ('A' for Active; 'I' for Inactive)
REMARK    1  A    between atoms: C_1  and  C_2
REMARK    2  A    between atoms: C_5  and  N_8
REMARK    3  A    between atoms: N_8  and  C_9
REMARK    4  A    between atoms: N_8  and  C_13
REMARK    5  A    between atoms: C_9  and  C_10
REMARK    6  A    between atoms: C_10  and  C_11
REMARK    7  A    between atoms: C_10  and  O_12
REMARK    8  A    between atoms: C_13  and  C_14
REMARK    9  A    between atoms: C_14  and  C_15
REMARK   10  A    between atoms: C_14  and  O_16
REMARK                            x       y       z     vdW  Elec       q    Type
REMARK                         _______ _______ _______ _____ _____    ______ ____
ROOT
ATOM      1  N   UNL     1       4.579  22.023 -14.322  0.00  0.00    +0.000 N 
ENDROOT
BRANCH   1   6
ATOM      2  C   UNL     1      -0.693  23.204 -12.289  0.00  0.00    +0.000 C 
ATOM      3  C   UNL     1       0.684  22.915 -12.802  0.00  0.00    +0.000 A 
ATOM      4  C   UNL     1       1.171  23.551 -13.939  0.00  0.00    +0.000 A 
ATOM      5  C   UNL     1       2.452  23.254 -14.433  0.00  0.00    +0.000 A 
ATOM      6  C   UNL     1       3.295  22.299 -13.836  0.00  0.00    +0.000 A 
ATOM      7  C   UNL     1       2.772  21.678 -12.687  0.00  0.00    +0.000 A 
ATOM      8  C   UNL     1       1.493  21.967 -12.182  0.00  0.00    +0.000 A 
ENDBRANCH   1   6
BRANCH   1   9
ATOM      9  C   UNL     1       5.744  22.049 -13.404  0.00  0.00    +0.000 C 
BRANCH   9  10
ATOM     10  C   UNL     1       7.060  21.609 -14.091  0.00  0.00    +0.000 C 
ATOM     11  C   UNL     1       8.273  22.123 -13.325  0.00  0.00    +0.000 C 
BRANCH  10  12
ATOM     12  O   UNL     1       7.151  20.180 -14.161  0.00  0.00    +0.000 OA
ATOM     13  H   UNL     1       6.518  19.806 -13.525  0.00  0.00    +0.000 HD
ENDBRANCH  10  12
ENDBRANCH   9  10
ENDBRANCH   1   9
BRANCH   1  14
ATOM     14  C   UNL     1       4.913  22.201 -15.759  0.00  0.00    +0.000 C 
BRANCH  14  15
ATOM     15  C   UNL     1       4.361  21.050 -16.634  0.00  0.00    +0.000 C 
ATOM     16  C   UNL     1       4.974  21.011 -18.029  0.00  0.00    +0.000 C 
BRANCH  15  17
ATOM     17  O   UNL     1       4.569  19.777 -16.024  0.00  0.00    +0.000 OA
ATOM     18  H   UNL     1       4.454  19.128 -16.747  0.00  0.00    +0.000 HD
ENDBRANCH  15  17
ENDBRANCH  14  15
ENDBRANCH   1  14
TORSDOF 7
ENDMDL
MODEL 3
REMARK VINA RESULT:    -3.727     16.813     18.722
REMARK INTER + INTRA:          -5.360
REMARK INTER:                  -4.639
REMARK INTRA:                  -0.722
REMARK UNBOUND:                -0.327
REMARK  Name = 
REMARK  10 active torsions:
REMARK  status: ('A' for Active; 'I' for Inactive)
REMARK    1  A    between atoms: C_1  and  C_2
REMARK    2  A    between atoms: C_5  and  N_8
REMARK    3  A    between atoms: N_8  and  C_9
REMARK    4  A    between atoms: N_8  and  C_13
REMARK    5  A    between atoms: C_9  and  C_10
REMARK    6  A    between atoms: C_10  and  C_11
REMARK    7  A    between atoms: C_10  and  O_12
REMARK    8  A    between atoms: C_13  and  C_14
REMARK    9  A    between atoms: C_14  and  C_15
REMARK   10  A    between atoms: C_14  and  O_16
REMARK                            x       y       z     vdW  Elec       q    Type
REMARK                         _______ _______ _______ _____ _____    ______ ____
ROOT
ATOM      1  N   UNL     1       5.398  22.258 -14.690  0.00  0.00    +0.000 N 
ENDROOT
BRANCH   1   6
ATOM      2  C   UNL     1      10.493  21.675 -12.039  0.00  0.00    +0.000 C 
ATOM      3  C   UNL     1       9.182  21.834 -12.748  0.00  0.00    +0.000 A 
ATOM      4  C   UNL     1       8.463  23.021 -12.661  0.00  0.00    +0.000 A 
ATOM      5  C   UNL     1       7.220  23.154 -13.302  0.00  0.00    +0.000 A 
ATOM      6  C   UNL     1       6.628  22.111 -14.037  0.00  0.00    +0.000 A 
ATOM      7  C   UNL     1       7.384  20.927 -14.105  0.00  0.00    +0.000 A 
ATOM      8  C   UNL     1       8.628  20.782 -13.470  0.00  0.00    +0.000 A 
ENDBRANCH   1   6
BRANCH   1   9
ATOM      9  C   UNL     1       5.328  22.181 -16.170  0.00  0.00    +0.000 C 
BRANCH   9  10
ATOM     10  C   UNL     1       4.306  21.131 -16.669  0.00  0.00    +0.000 C 
ATOM     11  C   UNL     1       4.472  20.876 -18.163  0.00  0.00    +0.000 C 
BRANCH  10  12
ATOM     12  O   UNL     1       4.474  19.882 -15.984  0.00  0.00    +0.000 OA
ATOM     13  H   UNL     1       4.076  19.967 -15.101  0.00  0.00    +0.000 HD
ENDBRANCH  10  12
ENDBRANCH   9  10
ENDBRANCH   1   9
BRANCH   1  14
ATOM     14  C   UNL     1       4.266  22.974 -14.048  0.00  0.00    +0.000 C 
BRANCH  14  15
ATOM     15  C   UNL     1       3.640  22.160 -12.890  0.00  0.00    +0.000 C 
ATOM     16  C   UNL     1       2.637  22.960 -12.068  0.00  0.00    +0.000 C 
BRANCH  15  17
ATOM     17  O   UNL     1       2.985  20.986 -13.366  0.00  0.00    +0.000 OA
ATOM     18  H   UNL     1       2.118  21.296 -13.697  0.00  0.00    +0.000 HD
ENDBRANCH  15  17
ENDBRANCH  14  15
ENDBRANCH   1  14
TORSDOF 7
ENDMDL
MODEL 4
REMARK VINA RESULT:    -3.669      2.667      4.451
REMARK INTER + INTRA:          -5.283
REMARK INTER:                  -5.004
REMARK INTRA:                  -0.279
REMARK UNBOUND:                -0.327
REMARK  Name = 
REMARK  10 active torsions:
REMARK  status: ('A' for Active; 'I' for Inactive)
REMARK    1  A    between atoms: C_1  and  C_2
REMARK    2  A    between atoms: C_5  and  N_8
REMARK    3  A    between atoms: N_8  and  C_9
REMARK    4  A    between atoms: N_8  and  C_13
REMARK    5  A    between atoms: C_9  and  C_10
REMARK    6  A    between atoms: C_10  and  C_11
REMARK    7  A    between atoms: C_10  and  O_12
REMARK    8  A    between atoms: C_13  and  C_14
REMARK    9  A    between atoms: C_14  and  C_15
REMARK   10  A    between atoms: C_14  and  O_16
REMARK                            x       y       z     vdW  Elec       q    Type
REMARK                         _______ _______ _______ _____ _____    ______ ____
ROOT
ATOM      1  N   UNL     1      -9.560  16.083 -17.063  0.00  0.00    +0.000 N 
ENDROOT
BRANCH   1   6
ATOM      2  C   UNL     1     -10.516  21.650 -18.256  0.00  0.00    +0.000 C 
ATOM      3  C   UNL     1     -10.288  20.206 -17.930  0.00  0.00    +0.000 A 
ATOM      4  C   UNL     1      -9.411  19.832 -16.917  0.00  0.00    +0.000 A 
ATOM      5  C   UNL     1      -9.178  18.476 -16.636  0.00  0.00    +0.000 A 
ATOM      6  C   UNL     1      -9.783  17.433 -17.361  0.00  0.00    +0.000 A 
ATOM      7  C   UNL     1     -10.664  17.848 -18.376  0.00  0.00    +0.000 A 
ATOM      8  C   UNL     1     -10.908  19.201 -18.666  0.00  0.00    +0.000 A 
ENDBRANCH   1   6
BRANCH   1   9
ATOM      9  C   UNL     1      -9.436  15.091 -18.157  0.00  0.00    +0.000 C 
BRANCH   9  10
ATOM     10  C   UNL     1      -8.920  13.716 -17.665  0.00  0.00    +0.000 C 
ATOM     11  C   UNL     1      -9.773  12.583 -18.223  0.00  0.00    +0.000 C 
BRANCH  10  12
ATOM     12  O   UNL     1      -7.564  13.497 -18.079  0.00  0.00    +0.000 OA
ATOM     13  H   UNL     1      -7.521  12.635 -18.526  0.00  0.00    +0.000 HD
ENDBRANCH  10  12
ENDBRANCH   9  10
ENDBRANCH   1   9
BRANCH   1  14
ATOM     14  C   UNL     1      -9.941  15.514 -15.744  0.00  0.00    +0.000 C 
BRANCH  14  15
ATOM     15  C   UNL     1      -8.864  15.773 -14.663  0.00  0.00    +0.000 C 
ATOM     16  C   UNL     1      -9.372  16.623 -13.504  0.00  0.00    +0.000 C 
BRANCH  15  17
ATOM     17  O   UNL     1      -8.351  14.555 -14.127  0.00  0.00    +0.000 OA
ATOM     18  H   UNL     1      -9.141  14.006 -13.947  0.00  0.00    +0.000 HD
ENDBRANCH  15  17
ENDBRANCH  14  15
ENDBRANCH   1  14
TORSDOF 7
ENDMDL
MODEL 5
REMARK VINA RESULT:    -3.609      4.473      6.781
REMARK INTER + INTRA:          -5.201
REMARK INTER:                  -4.614
REMARK INTRA:                  -0.587
REMARK UNBOUND:                -0.327
REMARK  Name = 
REMARK  10 active torsions:
REMARK  status: ('A' for Active; 'I' for Inactive)
REMARK    1  A    between atoms: C_1  and  C_2
REMARK    2  A    between atoms: C_5  and  N_8
REMARK    3  A    between atoms: N_8  and  C_9
REMARK    4  A    between atoms: N_8  and  C_13
REMARK    5  A    between atoms: C_9  and  C_10
REMARK    6  A    between atoms: C_10  and  C_11
REMARK    7  A    between atoms: C_10  and  O_12
REMARK    8  A    between atoms: C_13  and  C_14
REMARK    9  A    between atoms: C_14  and  C_15
REMARK   10  A    between atoms: C_14  and  O_16
REMARK                            x       y       z     vdW  Elec       q    Type
REMARK                         _______ _______ _______ _____ _____    ______ ____
ROOT
ATOM      1  N   UNL     1     -10.703   6.240 -15.930  0.00  0.00    +0.000 N 
ENDROOT
BRANCH   1   6
ATOM      2  C   UNL     1     -10.250  11.684 -17.796  0.00  0.00    +0.000 C 
ATOM      3  C   UNL     1     -10.382  10.266 -17.332  0.00  0.00    +0.000 A 
ATOM      4  C   UNL     1     -11.397   9.892 -16.458  0.00  0.00    +0.000 A 
ATOM      5  C   UNL     1     -11.498   8.567 -16.002  0.00  0.00    +0.000 A 
ATOM      6  C   UNL     1     -10.585   7.563 -16.373  0.00  0.00    +0.000 A 
ATOM      7  C   UNL     1      -9.573   7.977 -17.259  0.00  0.00    +0.000 A 
ATOM      8  C   UNL     1      -9.462   9.297 -17.724  0.00  0.00    +0.000 A 
ENDBRANCH   1   6
BRANCH   1   9
ATOM      9  C   UNL     1     -10.343   5.119 -16.832  0.00  0.00    +0.000 C 
BRANCH   9  10
ATOM     10  C   UNL     1     -10.564   3.731 -16.181  0.00  0.00    +0.000 C 
ATOM     11  C   UNL     1     -10.857   2.674 -17.239  0.00  0.00    +0.000 C 
BRANCH  10  12
ATOM     12  O   UNL     1      -9.403   3.316 -15.448  0.00  0.00    +0.000 OA
ATOM     13  H   UNL     1      -8.651   3.291 -16.063  0.00  0.00    +0.000 HD
ENDBRANCH  10  12
ENDBRANCH   9  10
ENDBRANCH   1   9
BRANCH   1  14
ATOM     14  C   UNL     1     -11.625   5.879 -14.822  0.00  0.00    +0.000 C 
BRANCH  14  15
ATOM     15  C   UNL     1     -10.916   5.882 -13.447  0.00  0.00    +0.000 C 
ATOM     16  C   UNL     1     -11.316   4.706 -12.564  0.00  0.00    +0.000 C 
BRANCH  15  17
ATOM     17  O   UNL     1      -9.496   5.867 -13.586  0.00  0.00    +0.000 OA
ATOM     18  H   UNL     1      -9.291   6.626 -14.168  0.00  0.00    +0.000 HD
ENDBRANCH  15  17
ENDBRANCH  14  15
ENDBRANCH   1  14
TORSDOF 7
ENDMDL
MODEL 6
REMARK VINA RESULT:    -3.524     16.797     18.796
REMARK INTER + INTRA:          -5.087
REMARK INTER:                  -4.557
REMARK INTRA:                  -0.530
REMARK UNBOUND:                -0.327
REMARK  Name = 
REMARK  10 active torsions:
REMARK  status: ('A' for Active; 'I' for Inactive)
REMARK    1  A    between atoms: C_1  and  C_2
REMARK    2  A    between atoms: C_5  and  N_8
REMARK    3  A    between atoms: N_8  and  C_9
REMARK    4  A    between atoms: N_8  and  C_13
REMARK    5  A    between atoms: C_9  and  C_10
REMARK    6  A    between atoms: C_10  and  C_11
REMARK    7  A    between atoms: C_10  and  O_12
REMARK    8  A    between atoms: C_13  and  C_14
REMARK    9  A    between atoms: C_14  and  C_15
REMARK   10  A    between atoms: C_14  and  O_16
REMARK                            x       y       z     vdW  Elec       q    Type
REMARK                         _______ _______ _______ _____ _____    ______ ____
ROOT
ATOM      1  N   UNL     1       5.538  22.434 -15.440  0.00  0.00    +0.000 N 
ENDROOT
BRANCH   1   6
ATOM      2  C   UNL     1      10.272  21.960 -12.170  0.00  0.00    +0.000 C 
ATOM      3  C   UNL     1       9.030  22.084 -12.998  0.00  0.00    +0.000 A 
ATOM      4  C   UNL     1       8.353  20.954 -13.444  0.00  0.00    +0.000 A 
ATOM      5  C   UNL     1       7.205  21.076 -14.244  0.00  0.00    +0.000 A 
ATOM      6  C   UNL     1       6.694  22.319 -14.657  0.00  0.00    +0.000 A 
ATOM      7  C   UNL     1       7.402  23.440 -14.187  0.00  0.00    +0.000 A 
ATOM      8  C   UNL     1       8.550  23.332 -13.383  0.00  0.00    +0.000 A 
ENDBRANCH   1   6
BRANCH   1   9
ATOM      9  C   UNL     1       4.242  22.776 -14.806  0.00  0.00    +0.000 C 
BRANCH   9  10
ATOM     10  C   UNL     1       4.055  22.106 -13.422  0.00  0.00    +0.000 C 
ATOM     11  C   UNL     1       3.850  23.153 -12.334  0.00  0.00    +0.000 C 
BRANCH  10  12
ATOM     12  O   UNL     1       2.916  21.235 -13.422  0.00  0.00    +0.000 OA
ATOM     13  H   UNL     1       2.955  20.686 -14.223  0.00  0.00    +0.000 HD
ENDBRANCH  10  12
ENDBRANCH   9  10
ENDBRANCH   1   9
BRANCH   1  14
ATOM     14  C   UNL     1       5.429  21.752 -16.755  0.00  0.00    +0.000 C 
BRANCH  14  15
ATOM     15  C   UNL     1       4.171  20.855 -16.845  0.00  0.00    +0.000 C 
ATOM     16  C   UNL     1       3.668  20.670 -18.272  0.00  0.00    +0.000 C 
BRANCH  15  17
ATOM     17  O   UNL     1       4.404  19.562 -16.289  0.00  0.00    +0.000 OA
ATOM     18  H   UNL     1       4.411  19.701 -15.320  0.00  0.00    +0.000 HD
ENDBRANCH  15  17
ENDBRANCH  14  15
ENDBRANCH   1  14
TORSDOF 7
ENDMDL
MODEL 7
REMARK VINA RESULT:    -3.487      2.387      5.208
REMARK INTER + INTRA:          -5.037
REMARK INTER:                  -4.504
REMARK INTRA:                  -0.532
REMARK UNBOUND:                -0.327
REMARK  Name = 
REMARK  10 active torsions:
REMARK  status: ('A' for Active; 'I' for Inactive)
REMARK    1  A    between atoms: C_1  and  C_2
REMARK    2  A    between atoms: C_5  and  N_8
REMARK    3  A    between atoms: N_8  and  C_9
REMARK    4  A    between atoms: N_8  and  C_13
REMARK    5  A    between atoms: C_9  and  C_10
REMARK    6  A    between atoms: C_10  and  C_11
REMARK    7  A    between atoms: C_10  and  O_12
REMARK    8  A    between atoms: C_13  and  C_14
REMARK    9  A    between atoms: C_14  and  C_15
REMARK   10  A    between atoms: C_14  and  O_16
REMARK                            x       y       z     vdW  Elec       q    Type
REMARK                         _______ _______ _______ _____ _____    ______ ____
ROOT
ATOM      1  N   UNL     1      -9.501  13.864 -17.258  0.00  0.00    +0.000 N 
ENDROOT
BRANCH   1   6
ATOM      2  C   UNL     1     -11.630   8.551 -16.502  0.00  0.00    +0.000 C 
ATOM      3  C   UNL     1     -11.060   9.925 -16.681  0.00  0.00    +0.000 A 
ATOM      4  C   UNL     1     -11.521  10.995 -15.921  0.00  0.00    +0.000 A 
ATOM      5  C   UNL     1     -11.004  12.286 -16.114  0.00  0.00    +0.000 A 
ATOM      6  C   UNL     1     -10.027  12.578 -17.083  0.00  0.00    +0.000 A 
ATOM      7  C   UNL     1      -9.583  11.472 -17.832  0.00  0.00    +0.000 A 
ATOM      8  C   UNL     1     -10.090  10.175 -17.647  0.00  0.00    +0.000 A 
ENDBRANCH   1   6
BRANCH   1   9
ATOM      9  C   UNL     1      -9.576  14.524 -18.583  0.00  0.00    +0.000 C 
BRANCH   9  10
ATOM     10  C   UNL     1     -10.252  15.916 -18.523  0.00  0.00    +0.000 C 
ATOM     11  C   UNL     1     -11.481  15.887 -17.623  0.00  0.00    +0.000 C 
BRANCH  10  12
ATOM     12  O   UNL     1      -9.349  16.905 -18.009  0.00  0.00    +0.000 OA
ATOM     13  H   UNL     1      -9.514  16.998 -17.056  0.00  0.00    +0.000 HD
ENDBRANCH  10  12
ENDBRANCH   9  10
ENDBRANCH   1   9
BRANCH   1  14
ATOM     14  C   UNL     1      -8.446  14.393 -16.356  0.00  0.00    +0.000 C 
BRANCH  14  15
ATOM     15  C   UNL     1      -9.031  14.946 -15.034  0.00  0.00    +0.000 C 
ATOM     16  C   UNL     1      -8.188  14.597 -13.813  0.00  0.00    +0.000 C 
BRANCH  15  17
ATOM     17  O   UNL     1      -9.181  16.364 -15.077  0.00  0.00    +0.000 OA
ATOM     18  H   UNL     1     -10.001  16.547 -14.575  0.00  0.00    +0.000 HD
ENDBRANCH  15  17
ENDBRANCH  14  15
ENDBRANCH   1  14
TORSDOF 7
ENDMDL
MODEL 8
REMARK VINA RESULT:    -3.453      4.991      7.670
REMARK INTER + INTRA:          -4.991
REMARK INTER:                  -4.956
REMARK INTRA:                  -0.035
REMARK UNBOUND:                -0.327
REMARK  Name = 
REMARK  10 active torsions:
REMARK  status: ('A' for Active; 'I' for Inactive)
REMARK    1  A    between atoms: C_1  and  C_2
REMARK    2  A    between atoms: C_5  and  N_8
REMARK    3  A    between atoms: N_8  and  C_9
REMARK    4  A    between atoms: N_8  and  C_13
REMARK    5  A    between atoms: C_9  and  C_10
REMARK    6  A    between atoms: C_10  and  C_11
REMARK    7  A    between atoms: C_10  and  O_12
REMARK    8  A    between atoms: C_13  and  C_14
REMARK    9  A    between atoms: C_14  and  C_15
REMARK   10  A    between atoms: C_14  and  O_16
REMARK                            x       y       z     vdW  Elec       q    Type
REMARK                         _______ _______ _______ _____ _____    ______ ____
ROOT
ATOM      1  N   UNL     1     -10.918   5.246 -16.081  0.00  0.00    +0.000 N 
ENDROOT
BRANCH   1   6
ATOM      2  C   UNL     1     -10.098  10.745 -17.634  0.00  0.00    +0.000 C 
ATOM      3  C   UNL     1     -10.299   9.323 -17.209  0.00  0.00    +0.000 A 
ATOM      4  C   UNL     1      -9.381   8.338 -17.556  0.00  0.00    +0.000 A 
ATOM      5  C   UNL     1      -9.589   7.000 -17.181  0.00  0.00    +0.000 A 
ATOM      6  C   UNL     1     -10.726   6.578 -16.468  0.00  0.00    +0.000 A 
ATOM      7  C   UNL     1     -11.632   7.601 -16.133  0.00  0.00    +0.000 A 
ATOM      8  C   UNL     1     -11.435   8.942 -16.500  0.00  0.00    +0.000 A 
ENDBRANCH   1   6
BRANCH   1   9
ATOM      9  C   UNL     1     -11.496   4.934 -14.751  0.00  0.00    +0.000 C 
BRANCH   9  10
ATOM     10  C   UNL     1     -10.890   5.796 -13.616  0.00  0.00    +0.000 C 
ATOM     11  C   UNL     1     -11.237   5.218 -12.249  0.00  0.00    +0.000 C 
BRANCH  10  12
ATOM     12  O   UNL     1      -9.461   5.856 -13.723  0.00  0.00    +0.000 OA
ATOM     13  H   UNL     1      -9.210   5.525 -14.602  0.00  0.00    +0.000 HD
ENDBRANCH  10  12
ENDBRANCH   9  10
ENDBRANCH   1   9
BRANCH   1  14
ATOM     14  C   UNL     1     -10.128   4.146 -16.691  0.00  0.00    +0.000 C 
BRANCH  14  15
ATOM     15  C   UNL     1     -10.105   2.880 -15.802  0.00  0.00    +0.000 C 
ATOM     16  C   UNL     1     -10.693   1.653 -16.489  0.00  0.00    +0.000 C 
BRANCH  15  17
ATOM     17  O   UNL     1      -8.781   2.557 -15.378  0.00  0.00    +0.000 OA
ATOM     18  H   UNL     1      -8.221   3.281 -15.726  0.00  0.00    +0.000 HD
ENDBRANCH  15  17
ENDBRANCH  14  15
ENDBRANCH   1  14
TORSDOF 7
ENDMDL
MODEL 9
REMARK VINA RESULT:    -3.238      5.881      9.575
REMARK INTER + INTRA:          -4.700
REMARK INTER:                  -4.239
REMARK INTRA:                  -0.461
REMARK UNBOUND:                -0.327
REMARK  Name = 
REMARK  10 active torsions:
REMARK  status: ('A' for Active; 'I' for Inactive)
REMARK    1  A    between atoms: C_1  and  C_2
REMARK    2  A    between atoms: C_5  and  N_8
REMARK    3  A    between atoms: N_8  and  C_9
REMARK    4  A    between atoms: N_8  and  C_13
REMARK    5  A    between atoms: C_9  and  C_10
REMARK    6  A    between atoms: C_10  and  C_11
REMARK    7  A    between atoms: C_10  and  O_12
REMARK    8  A    between atoms: C_13  and  C_14
REMARK    9  A    between atoms: C_14  and  C_15
REMARK   10  A    between atoms: C_14  and  O_16
REMARK                            x       y       z     vdW  Elec       q    Type
REMARK                         _______ _______ _______ _____ _____    ______ ____
ROOT
ATOM      1  N   UNL     1      -9.273  21.459 -15.853  0.00  0.00    +0.000 N 
ENDROOT
BRANCH   1   6
ATOM      2  C   UNL     1     -10.309  16.006 -17.439  0.00  0.00    +0.000 C 
ATOM      3  C   UNL     1     -10.016  17.417 -17.031  0.00  0.00    +0.000 A 
ATOM      4  C   UNL     1      -9.784  17.743 -15.699  0.00  0.00    +0.000 A 
ATOM      5  C   UNL     1      -9.540  19.072 -15.319  0.00  0.00    +0.000 A 
ATOM      6  C   UNL     1      -9.537  20.139 -16.236  0.00  0.00    +0.000 A 
ATOM      7  C   UNL     1      -9.773  19.773 -17.574  0.00  0.00    +0.000 A 
ATOM      8  C   UNL     1     -10.017  18.447 -17.969  0.00  0.00    +0.000 A 
ENDBRANCH   1   6
BRANCH   1   9
ATOM      9  C   UNL     1      -9.242  22.537 -16.871  0.00  0.00    +0.000 C 
BRANCH   9  10
ATOM     10  C   UNL     1     -10.525  23.404 -16.866  0.00  0.00    +0.000 C 
ATOM     11  C   UNL     1     -11.453  23.010 -18.010  0.00  0.00    +0.000 C 
BRANCH  10  12
ATOM     12  O   UNL     1     -11.246  23.250 -15.636  0.00  0.00    +0.000 OA
ATOM     13  H   UNL     1     -10.719  22.684 -15.047  0.00  0.00    +0.000 HD
ENDBRANCH  10  12
ENDBRANCH   9  10
ENDBRANCH   1   9
BRANCH   1  14
ATOM     14  C   UNL     1      -8.536  21.764 -14.599  0.00  0.00    +0.000 C 
BRANCH  14  15
ATOM     15  C   UNL     1      -7.382  22.769 -14.829  0.00  0.00    +0.000 C 
ATOM     16  C   UNL     1      -7.067  23.612 -13.599  0.00  0.00    +0.000 C 
BRANCH  15  17
ATOM     17  O   UNL     1      -6.182  22.110 -15.232  0.00  0.00    +0.000 OA
ATOM     18  H   UNL     1      -6.427  21.166 -15.313  0.00  0.00    +0.000 HD
ENDBRANCH  15  17
ENDBRANCH  14  15
ENDBRANCH   1  14
TORSDOF 7
ENDMDL
