MODEL 1
REMARK VINA RESULT:    -6.004      0.000      0.000
REMARK INTER + INTRA:          -8.628
REMARK INTER:                  -8.110
REMARK INTRA:                  -0.519
REMARK UNBOUND:                -0.519
REMARK  Name = 
REMARK  10 active torsions:
REMARK  status: ('A' for Active; 'I' for Inactive)
REMARK    1  A    between atoms: C_1  and  C_2
REMARK    2  A    between atoms: C_5  and  N_8
REMARK    3  A    between atoms: N_8  and  C_9
REMARK    4  A    between atoms: N_8  and  C_13
REMARK    5  A    between atoms: C_9  and  C_10
REMARK    6  A    between atoms: C_10  and  C_11
REMARK    7  A    between atoms: C_10  and  O_12
REMARK    8  A    between atoms: C_13  and  C_14
REMARK    9  A    between atoms: C_14  and  C_15
REMARK   10  A    between atoms: C_14  and  O_16
REMARK                            x       y       z     vdW  Elec       q    Type
REMARK                         _______ _______ _______ _____ _____    ______ ____
ROOT
ATOM      1  N   UNL     1       1.361  14.848  -2.303  0.00  0.00    +0.000 N 
ENDROOT
BRANCH   1   6
ATOM      2  C   UNL     1      -0.928  19.746  -0.278  0.00  0.00    +0.000 C 
ATOM      3  C   UNL     1      -0.322  18.471  -0.782  0.00  0.00    +0.000 A 
ATOM      4  C   UNL     1       0.894  18.476  -1.457  0.00  0.00    +0.000 A 
ATOM      5  C   UNL     1       1.442  17.282  -1.953  0.00  0.00    +0.000 A 
ATOM      6  C   UNL     1       0.799  16.037  -1.823  0.00  0.00    +0.000 A 
ATOM      7  C   UNL     1      -0.427  16.070  -1.133  0.00  0.00    +0.000 A 
ATOM      8  C   UNL     1      -0.985  17.257  -0.630  0.00  0.00    +0.000 A 
ENDBRANCH   1   6
BRANCH   1   9
ATOM      9  C   UNL     1       1.182  14.462  -3.724  0.00  0.00    +0.000 C 
BRANCH   9  10
ATOM     10  C   UNL     1       2.332  14.965  -4.631  0.00  0.00    +0.000 C 
ATOM     11  C   UNL     1       3.593  14.136  -4.424  0.00  0.00    +0.000 C 
BRANCH  10  12
ATOM     12  O   UNL     1       1.968  14.882  -6.016  0.00  0.00    +0.000 OA
ATOM     13  H   UNL     1       2.619  15.388  -6.530  0.00  0.00    +0.000 HD
ENDBRANCH  10  12
ENDBRANCH   9  10
ENDBRANCH   1   9
BRANCH   1  14
ATOM     14  C   UNL     1       1.681  13.724  -1.387  0.00  0.00    +0.000 C 
BRANCH  14  15
ATOM     15  C   UNL     1       3.091  13.862  -0.762  0.00  0.00    +0.000 C 
ATOM     16  C   UNL     1       3.081  14.565   0.590  0.00  0.00    +0.000 C 
BRANCH  15  17
ATOM     17  O   UNL     1       3.721  12.593  -0.596  0.00  0.00    +0.000 OA
ATOM     18  H   UNL     1       4.184  12.652   0.264  0.00  0.00    +0.000 HD
ENDBRANCH  15  17
ENDBRANCH  14  15
ENDBRANCH   1  14
TORSDOF 7
ENDMDL
MODEL 2
REMARK VINA RESULT:    -5.980      0.047      1.191
REMARK INTER + INTRA:          -8.596
REMARK INTER:                  -8.102
REMARK INTRA:                  -0.494
REMARK UNBOUND:                -0.519
REMARK  Name = 
REMARK  10 active torsions:
REMARK  status: ('A' for Active; 'I' for Inactive)
REMARK    1  A    between atoms: C_1  and  C_2
REMARK    2  A    between atoms: C_5  and  N_8
REMARK    3  A    between atoms: N_8  and  C_9
REMARK    4  A    between atoms: N_8  and  C_13
REMARK    5  A    between atoms: C_9  and  C_10
REMARK    6  A    between atoms: C_10  and  C_11
REMARK    7  A    between atoms: C_10  and  O_12
REMARK    8  A    between atoms: C_13  and  C_14
REMARK    9  A    between atoms: C_14  and  C_15
REMARK   10  A    between atoms: C_14  and  O_16
REMARK                            x       y       z     vdW  Elec       q    Type
REMARK                         _______ _______ _______ _____ _____    ______ ____
ROOT
ATOM      1  N   UNL     1       1.352  14.845  -2.277  0.00  0.00    +0.000 N 
ENDROOT
BRANCH   1   6
ATOM      2  C   UNL     1      -0.949  19.761  -0.311  0.00  0.00    +0.000 C 
ATOM      3  C   UNL     1      -0.364  18.489  -0.843  0.00  0.00    +0.000 A 
ATOM      4  C   UNL     1      -0.994  17.268  -0.627  0.00  0.00    +0.000 A 
ATOM      5  C   UNL     1      -0.426  16.075  -1.102  0.00  0.00    +0.000 A 
ATOM      6  C   UNL     1       0.801  16.037  -1.790  0.00  0.00    +0.000 A 
ATOM      7  C   UNL     1       1.409  17.289  -1.992  0.00  0.00    +0.000 A 
ATOM      8  C   UNL     1       0.850  18.490  -1.524  0.00  0.00    +0.000 A 
ENDBRANCH   1   6
BRANCH   1   9
ATOM      9  C   UNL     1       1.158  14.462  -3.697  0.00  0.00    +0.000 C 
BRANCH   9  10
ATOM     10  C   UNL     1       2.294  14.971  -4.617  0.00  0.00    +0.000 C 
ATOM     11  C   UNL     1       3.566  14.157  -4.414  0.00  0.00    +0.000 C 
BRANCH  10  12
ATOM     12  O   UNL     1       1.920  14.875  -5.998  0.00  0.00    +0.000 OA
ATOM     13  H   UNL     1       1.124  14.321  -6.057  0.00  0.00    +0.000 HD
ENDBRANCH  10  12
ENDBRANCH   9  10
ENDBRANCH   1   9
BRANCH   1  14
ATOM     14  C   UNL     1       1.677  13.718  -1.366  0.00  0.00    +0.000 C 
BRANCH  14  15
ATOM     15  C   UNL     1       3.104  13.835  -0.778  0.00  0.00    +0.000 C 
ATOM     16  C   UNL     1       3.141  14.541   0.572  0.00  0.00    +0.000 C 
BRANCH  15  17
ATOM     17  O   UNL     1       3.718  12.556  -0.625  0.00  0.00    +0.000 OA
ATOM     18  H   UNL     1       4.679  12.730  -0.672  0.00  0.00    +0.000 HD
ENDBRANCH  15  17
ENDBRANCH  14  15
ENDBRANCH   1  14
TORSDOF 7
ENDMDL
MODEL 3
REMARK VINA RESULT:    -5.861      1.293      1.929
REMARK INTER + INTRA:          -8.435
REMARK INTER:                  -8.180
REMARK INTRA:                  -0.256
REMARK UNBOUND:                -0.519
REMARK  Name = 
REMARK  10 active torsions:
REMARK  status: ('A' for Active; 'I' for Inactive)
REMARK    1  A    between atoms: C_1  and  C_2
REMARK    2  A    between atoms: C_5  and  N_8
REMARK    3  A    between atoms: N_8  and  C_9
REMARK    4  A    between atoms: N_8  and  C_13
REMARK    5  A    between atoms: C_9  and  C_10
REMARK    6  A    between atoms: C_10  and  C_11
REMARK    7  A    between atoms: C_10  and  O_12
REMARK    8  A    between atoms: C_13  and  C_14
REMARK    9  A    between atoms: C_14  and  C_15
REMARK   10  A    between atoms: C_14  and  O_16
REMARK                            x       y       z     vdW  Elec       q    Type
REMARK                         _______ _______ _______ _____ _____    ______ ____
ROOT
ATOM      1  N   UNL     1       1.865  14.779  -2.586  0.00  0.00    +0.000 N 
ENDROOT
BRANCH   1   6
ATOM      2  C   UNL     1      -0.878  18.746   0.586  0.00  0.00    +0.000 C 
ATOM      3  C   UNL     1      -0.188  17.709  -0.246  0.00  0.00    +0.000 A 
ATOM      4  C   UNL     1       0.078  16.443   0.265  0.00  0.00    +0.000 A 
ATOM      5  C   UNL     1       0.752  15.485  -0.509  0.00  0.00    +0.000 A 
ATOM      6  C   UNL     1       1.211  15.746  -1.813  0.00  0.00    +0.000 A 
ATOM      7  C   UNL     1       0.923  17.034  -2.298  0.00  0.00    +0.000 A 
ATOM      8  C   UNL     1       0.248  18.001  -1.535  0.00  0.00    +0.000 A 
ENDBRANCH   1   6
BRANCH   1   9
ATOM      9  C   UNL     1       1.316  14.387  -3.907  0.00  0.00    +0.000 C 
BRANCH   9  10
ATOM     10  C   UNL     1       2.006  15.118  -5.085  0.00  0.00    +0.000 C 
ATOM     11  C   UNL     1       3.513  14.890  -5.060  0.00  0.00    +0.000 C 
BRANCH  10  12
ATOM     12  O   UNL     1       1.506  14.649  -6.345  0.00  0.00    +0.000 OA
ATOM     13  H   UNL     1       0.572  14.411  -6.228  0.00  0.00    +0.000 HD
ENDBRANCH  10  12
ENDBRANCH   9  10
ENDBRANCH   1   9
BRANCH   1  14
ATOM     14  C   UNL     1       2.768  13.777  -1.963  0.00  0.00    +0.000 C 
BRANCH  14  15
ATOM     15  C   UNL     1       2.381  12.327  -2.343  0.00  0.00    +0.000 C 
ATOM     16  C   UNL     1       3.404  11.652  -3.249  0.00  0.00    +0.000 C 
BRANCH  15  17
ATOM     17  O   UNL     1       2.207  11.508  -1.187  0.00  0.00    +0.000 OA
ATOM     18  H   UNL     1       2.799  10.742  -1.328  0.00  0.00    +0.000 HD
ENDBRANCH  15  17
ENDBRANCH  14  15
ENDBRANCH   1  14
TORSDOF 7
ENDMDL
MODEL 4
REMARK VINA RESULT:    -5.727      0.907      3.227
REMARK INTER + INTRA:          -8.255
REMARK INTER:                  -7.856
REMARK INTRA:                  -0.399
REMARK UNBOUND:                -0.519
REMARK  Name = 
REMARK  10 active torsions:
REMARK  status: ('A' for Active; 'I' for Inactive)
REMARK    1  A    between atoms: C_1  and  C_2
REMARK    2  A    between atoms: C_5  and  N_8
REMARK    3  A    between atoms: N_8  and  C_9
REMARK    4  A    between atoms: N_8  and  C_13
REMARK    5  A    between atoms: C_9  and  C_10
REMARK    6  A    between atoms: C_10  and  C_11
REMARK    7  A    between atoms: C_10  and  O_12
REMARK    8  A    between atoms: C_13  and  C_14
REMARK    9  A    between atoms: C_14  and  C_15
REMARK   10  A    between atoms: C_14  and  O_16
REMARK                            x       y       z     vdW  Elec       q    Type
REMARK                         _______ _______ _______ _____ _____    ______ ____
ROOT
ATOM      1  N   UNL     1       1.751  15.516  -2.212  0.00  0.00    +0.000 N 
ENDROOT
BRANCH   1   6
ATOM      2  C   UNL     1      -1.755  19.437   0.166  0.00  0.00    +0.000 C 
ATOM      3  C   UNL     1      -0.834  18.416  -0.429  0.00  0.00    +0.000 A 
ATOM      4  C   UNL     1       0.371  18.794  -1.010  0.00  0.00    +0.000 A 
ATOM      5  C   UNL     1       1.217  17.836  -1.593  0.00  0.00    +0.000 A 
ATOM      6  C   UNL     1       0.894  16.468  -1.647  0.00  0.00    +0.000 A 
ATOM      7  C   UNL     1      -0.331  16.122  -1.048  0.00  0.00    +0.000 A 
ATOM      8  C   UNL     1      -1.184  17.069  -0.459  0.00  0.00    +0.000 A 
ENDBRANCH   1   6
BRANCH   1   9
ATOM      9  C   UNL     1       3.102  15.299  -1.641  0.00  0.00    +0.000 C 
BRANCH   9  10
ATOM     10  C   UNL     1       3.131  14.169  -0.583  0.00  0.00    +0.000 C 
ATOM     11  C   UNL     1       3.103  14.743   0.829  0.00  0.00    +0.000 C 
BRANCH  10  12
ATOM     12  O   UNL     1       2.003  13.296  -0.730  0.00  0.00    +0.000 OA
ATOM     13  H   UNL     1       1.300  13.787  -1.188  0.00  0.00    +0.000 HD
ENDBRANCH  10  12
ENDBRANCH   9  10
ENDBRANCH   1   9
BRANCH   1  14
ATOM     14  C   UNL     1       1.593  15.082  -3.624  0.00  0.00    +0.000 C 
BRANCH  14  15
ATOM     15  C   UNL     1       2.952  14.755  -4.290  0.00  0.00    +0.000 C 
ATOM     16  C   UNL     1       3.292  13.270  -4.260  0.00  0.00    +0.000 C 
BRANCH  15  17
ATOM     17  O   UNL     1       2.991  15.189  -5.649  0.00  0.00    +0.000 OA
ATOM     18  H   UNL     1       3.936  15.361  -5.832  0.00  0.00    +0.000 HD
ENDBRANCH  15  17
ENDBRANCH  14  15
ENDBRANCH   1  14
TORSDOF 7
ENDMDL
MODEL 5
REMARK VINA RESULT:    -5.523      1.621      3.437
REMARK INTER + INTRA:          -7.979
REMARK INTER:                  -7.537
REMARK INTRA:                  -0.442
REMARK UNBOUND:                -0.519
REMARK  Name = 
REMARK  10 active torsions:
REMARK  status: ('A' for Active; 'I' for Inactive)
REMARK    1  A    between atoms: C_1  and  C_2
REMARK    2  A    between atoms: C_5  and  N_8
REMARK    3  A    between atoms: N_8  and  C_9
REMARK    4  A    between atoms: N_8  and  C_13
REMARK    5  A    between atoms: C_9  and  C_10
REMARK    6  A    between atoms: C_10  and  C_11
REMARK    7  A    between atoms: C_10  and  O_12
REMARK    8  A    between atoms: C_13  and  C_14
REMARK    9  A    between atoms: C_14  and  C_15
REMARK   10  A    between atoms: C_14  and  O_16
REMARK                            x       y       z     vdW  Elec       q    Type
REMARK                         _______ _______ _______ _____ _____    ______ ____
ROOT
ATOM      1  N   UNL     1       2.064  14.835  -1.730  0.00  0.00    +0.000 N 
ENDROOT
BRANCH   1   6
ATOM      2  C   UNL     1      -1.593  19.246  -1.028  0.00  0.00    +0.000 C 
ATOM      3  C   UNL     1      -0.655  18.096  -1.232  0.00  0.00    +0.000 A 
ATOM      4  C   UNL     1      -0.957  16.832  -0.739  0.00  0.00    +0.000 A 
ATOM      5  C   UNL     1      -0.060  15.764  -0.907  0.00  0.00    +0.000 A 
ATOM      6  C   UNL     1       1.183  15.909  -1.549  0.00  0.00    +0.000 A 
ATOM      7  C   UNL     1       1.455  17.200  -2.036  0.00  0.00    +0.000 A 
ATOM      8  C   UNL     1       0.566  18.276  -1.877  0.00  0.00    +0.000 A 
ENDBRANCH   1   6
BRANCH   1   9
ATOM      9  C   UNL     1       3.478  14.953  -1.298  0.00  0.00    +0.000 C 
BRANCH   9  10
ATOM     10  C   UNL     1       3.620  15.485   0.149  0.00  0.00    +0.000 C 
ATOM     11  C   UNL     1       3.290  14.398   1.165  0.00  0.00    +0.000 C 
BRANCH  10  12
ATOM     12  O   UNL     1       4.958  15.937   0.402  0.00  0.00    +0.000 OA
ATOM     13  H   UNL     1       5.457  15.880  -0.429  0.00  0.00    +0.000 HD
ENDBRANCH  10  12
ENDBRANCH   9  10
ENDBRANCH   1   9
BRANCH   1  14
ATOM     14  C   UNL     1       1.812  13.799  -2.764  0.00  0.00    +0.000 C 
BRANCH  14  15
ATOM     15  C   UNL     1       3.084  12.981  -3.095  0.00  0.00    +0.000 C 
ATOM     16  C   UNL     1       2.928  11.491  -2.813  0.00  0.00    +0.000 C 
BRANCH  15  17
ATOM     17  O   UNL     1       3.470  13.135  -4.459  0.00  0.00    +0.000 OA
ATOM     18  H   UNL     1       4.436  13.289  -4.433  0.00  0.00    +0.000 HD
ENDBRANCH  15  17
ENDBRANCH  14  15
ENDBRANCH   1  14
TORSDOF 7
ENDMDL
MODEL 6
REMARK VINA RESULT:    -5.339      3.465      5.927
REMARK INTER + INTRA:          -7.731
REMARK INTER:                  -7.250
REMARK INTRA:                  -0.481
REMARK UNBOUND:                -0.519
REMARK  Name = 
REMARK  10 active torsions:
REMARK  status: ('A' for Active; 'I' for Inactive)
REMARK    1  A    between atoms: C_1  and  C_2
REMARK    2  A    between atoms: C_5  and  N_8
REMARK    3  A    between atoms: N_8  and  C_9
REMARK    4  A    between atoms: N_8  and  C_13
REMARK    5  A    between atoms: C_9  and  C_10
REMARK    6  A    between atoms: C_10  and  C_11
REMARK    7  A    between atoms: C_10  and  O_12
REMARK    8  A    between atoms: C_13  and  C_14
REMARK    9  A    between atoms: C_14  and  C_15
REMARK   10  A    between atoms: C_14  and  O_16
REMARK                            x       y       z     vdW  Elec       q    Type
REMARK                         _______ _______ _______ _____ _____    ______ ____
ROOT
ATOM      1  N   UNL     1      -0.314  17.895  -0.449  0.00  0.00    +0.000 N 
ENDROOT
BRANCH   1   6
ATOM      2  C   UNL     1       2.769  13.291  -2.071  0.00  0.00    +0.000 C 
ATOM      3  C   UNL     1       1.967  14.476  -1.627  0.00  0.00    +0.000 A 
ATOM      4  C   UNL     1       0.588  14.512  -1.805  0.00  0.00    +0.000 A 
ATOM      5  C   UNL     1      -0.156  15.637  -1.414  0.00  0.00    +0.000 A 
ATOM      6  C   UNL     1       0.436  16.784  -0.854  0.00  0.00    +0.000 A 
ATOM      7  C   UNL     1       1.832  16.712  -0.687  0.00  0.00    +0.000 A 
ATOM      8  C   UNL     1       2.587  15.591  -1.071  0.00  0.00    +0.000 A 
ENDBRANCH   1   6
BRANCH   1   9
ATOM      9  C   UNL     1       0.253  19.259  -0.574  0.00  0.00    +0.000 C 
BRANCH   9  10
ATOM     10  C   UNL     1       0.364  19.731  -2.044  0.00  0.00    +0.000 C 
ATOM     11  C   UNL     1      -0.833  20.589  -2.434  0.00  0.00    +0.000 C 
BRANCH  10  12
ATOM     12  O   UNL     1       1.553  20.508  -2.247  0.00  0.00    +0.000 OA
ATOM     13  H   UNL     1       2.308  19.898  -2.289  0.00  0.00    +0.000 HD
ENDBRANCH  10  12
ENDBRANCH   9  10
ENDBRANCH   1   9
BRANCH   1  14
ATOM     14  C   UNL     1      -1.409  17.762   0.546  0.00  0.00    +0.000 C 
BRANCH  14  15
ATOM     15  C   UNL     1      -2.556  18.769   0.289  0.00  0.00    +0.000 C 
ATOM     16  C   UNL     1      -3.831  18.109  -0.221  0.00  0.00    +0.000 C 
BRANCH  15  17
ATOM     17  O   UNL     1      -2.881  19.508   1.465  0.00  0.00    +0.000 OA
ATOM     18  H   UNL     1      -3.840  19.688   1.394  0.00  0.00    +0.000 HD
ENDBRANCH  15  17
ENDBRANCH  14  15
ENDBRANCH   1  14
TORSDOF 7
ENDMDL
MODEL 7
REMARK VINA RESULT:    -5.289      3.404      6.264
REMARK INTER + INTRA:          -7.663
REMARK INTER:                  -7.170
REMARK INTRA:                  -0.493
REMARK UNBOUND:                -0.519
REMARK  Name = 
REMARK  10 active torsions:
REMARK  status: ('A' for Active; 'I' for Inactive)
REMARK    1  A    between atoms: C_1  and  C_2
REMARK    2  A    between atoms: C_5  and  N_8
REMARK    3  A    between atoms: N_8  and  C_9
REMARK    4  A    between atoms: N_8  and  C_13
REMARK    5  A    between atoms: C_9  and  C_10
REMARK    6  A    between atoms: C_10  and  C_11
REMARK    7  A    between atoms: C_10  and  O_12
REMARK    8  A    between atoms: C_13  and  C_14
REMARK    9  A    between atoms: C_14  and  C_15
REMARK   10  A    between atoms: C_14  and  O_16
REMARK                            x       y       z     vdW  Elec       q    Type
REMARK                         _______ _______ _______ _____ _____    ______ ____
ROOT
ATOM      1  N   UNL     1      -0.072  18.257  -0.811  0.00  0.00    +0.000 N 
ENDROOT
BRANCH   1   6
ATOM      2  C   UNL     1       2.565  13.177  -1.561  0.00  0.00    +0.000 C 
ATOM      3  C   UNL     1       1.876  14.489  -1.342  0.00  0.00    +0.000 A 
ATOM      4  C   UNL     1       0.521  14.638  -1.617  0.00  0.00    +0.000 A 
ATOM      5  C   UNL     1      -0.113  15.878  -1.439  0.00  0.00    +0.000 A 
ATOM      6  C   UNL     1       0.571  17.028  -1.005  0.00  0.00    +0.000 A 
ATOM      7  C   UNL     1       1.939  16.840  -0.734  0.00  0.00    +0.000 A 
ATOM      8  C   UNL     1       2.585  15.604  -0.906  0.00  0.00    +0.000 A 
ENDBRANCH   1   6
BRANCH   1   9
ATOM      9  C   UNL     1      -0.665  18.586   0.508  0.00  0.00    +0.000 C 
BRANCH   9  10
ATOM     10  C   UNL     1      -2.188  18.853   0.431  0.00  0.00    +0.000 C 
ATOM     11  C   UNL     1      -2.971  17.545   0.411  0.00  0.00    +0.000 C 
BRANCH  10  12
ATOM     12  O   UNL     1      -2.634  19.621   1.558  0.00  0.00    +0.000 OA
ATOM     13  H   UNL     1      -2.473  20.559   1.366  0.00  0.00    +0.000 HD
ENDBRANCH  10  12
ENDBRANCH   9  10
ENDBRANCH   1   9
BRANCH   1  14
ATOM     14  C   UNL     1      -0.632  19.021  -1.955  0.00  0.00    +0.000 C 
BRANCH  14  15
ATOM     15  C   UNL     1       0.188  20.296  -2.264  0.00  0.00    +0.000 C 
ATOM     16  C   UNL     1      -0.253  21.505  -1.447  0.00  0.00    +0.000 C 
BRANCH  15  17
ATOM     17  O   UNL     1       1.582  20.094  -2.037  0.00  0.00    +0.000 OA
ATOM     18  H   UNL     1       2.023  20.462  -2.829  0.00  0.00    +0.000 HD
ENDBRANCH  15  17
ENDBRANCH  14  15
ENDBRANCH   1  14
TORSDOF 7
ENDMDL
MODEL 8
REMARK VINA RESULT:    -4.942      9.536     11.937
REMARK INTER + INTRA:          -7.195
REMARK INTER:                  -6.936
REMARK INTRA:                  -0.259
REMARK UNBOUND:                -0.519
REMARK  Name = 
REMARK  10 active torsions:
REMARK  status: ('A' for Active; 'I' for Inactive)
REMARK    1  A    between atoms: C_1  and  C_2
REMARK    2  A    between atoms: C_5  and  N_8
REMARK    3  A    between atoms: N_8  and  C_9
REMARK    4  A    between atoms: N_8  and  C_13
REMARK    5  A    between atoms: C_9  and  C_10
REMARK    6  A    between atoms: C_10  and  C_11
REMARK    7  A    between atoms: C_10  and  O_12
REMARK    8  A    between atoms: C_13  and  C_14
REMARK    9  A    between atoms: C_14  and  C_15
REMARK   10  A    between atoms: C_14  and  O_16
REMARK                            x       y       z     vdW  Elec       q    Type
REMARK                         _______ _______ _______ _____ _____    ______ ____
ROOT
ATOM      1  N   UNL     1      -1.233  16.288 -11.473  0.00  0.00    +0.000 N 
ENDROOT
BRANCH   1   6
ATOM      2  C   UNL     1       0.214  14.608 -16.803  0.00  0.00    +0.000 C 
ATOM      3  C   UNL     1      -0.139  15.038 -15.412  0.00  0.00    +0.000 A 
ATOM      4  C   UNL     1      -0.722  14.149 -14.516  0.00  0.00    +0.000 A 
ATOM      5  C   UNL     1      -1.078  14.565 -13.223  0.00  0.00    +0.000 A 
ATOM      6  C   UNL     1      -0.894  15.884 -12.770  0.00  0.00    +0.000 A 
ATOM      7  C   UNL     1      -0.300  16.755 -13.702  0.00  0.00    +0.000 A 
ATOM      8  C   UNL     1       0.063  16.351 -14.997  0.00  0.00    +0.000 A 
ENDBRANCH   1   6
BRANCH   1   9
ATOM      9  C   UNL     1      -0.625  17.509 -10.891  0.00  0.00    +0.000 C 
BRANCH   9  10
ATOM     10  C   UNL     1      -1.635  18.675 -10.754  0.00  0.00    +0.000 C 
ATOM     11  C   UNL     1      -2.754  18.551 -11.781  0.00  0.00    +0.000 C 
BRANCH  10  12
ATOM     12  O   UNL     1      -2.230  18.690  -9.448  0.00  0.00    +0.000 OA
ATOM     13  H   UNL     1      -1.551  18.967  -8.811  0.00  0.00    +0.000 HD
ENDBRANCH  10  12
ENDBRANCH   9  10
ENDBRANCH   1   9
BRANCH   1  14
ATOM     14  C   UNL     1      -1.759  15.318 -10.479  0.00  0.00    +0.000 C 
BRANCH  14  15
ATOM     15  C   UNL     1      -3.230  15.610 -10.098  0.00  0.00    +0.000 C 
ATOM     16  C   UNL     1      -4.213  15.308 -11.224  0.00  0.00    +0.000 C 
BRANCH  15  17
ATOM     17  O   UNL     1      -3.635  14.869  -8.948  0.00  0.00    +0.000 OA
ATOM     18  H   UNL     1      -2.801  14.550  -8.547  0.00  0.00    +0.000 HD
ENDBRANCH  15  17
ENDBRANCH  14  15
ENDBRANCH   1  14
TORSDOF 7
ENDMDL
MODEL 9
REMARK VINA RESULT:    -4.875      4.102      6.812
REMARK INTER + INTRA:          -7.104
REMARK INTER:                  -6.365
REMARK INTRA:                  -0.739
REMARK UNBOUND:                -0.519
REMARK  Name = 
REMARK  10 active torsions:
REMARK  status: ('A' for Active; 'I' for Inactive)
REMARK    1  A    between atoms: C_1  and  C_2
REMARK    2  A    between atoms: C_5  and  N_8
REMARK    3  A    between atoms: N_8  and  C_9
REMARK    4  A    between atoms: N_8  and  C_13
REMARK    5  A    between atoms: C_9  and  C_10
REMARK    6  A    between atoms: C_10  and  C_11
REMARK    7  A    between atoms: C_10  and  O_12
REMARK    8  A    between atoms: C_13  and  C_14
REMARK    9  A    between atoms: C_14  and  C_15
REMARK   10  A    between atoms: C_14  and  O_16
REMARK                            x       y       z     vdW  Elec       q    Type
REMARK                         _______ _______ _______ _____ _____    ______ ____
ROOT
ATOM      1  N   UNL     1      -1.496  20.105  -0.559  0.00  0.00    +0.000 N 
ENDROOT
BRANCH   1   6
ATOM      2  C   UNL     1       0.923  14.986  -1.688  0.00  0.00    +0.000 C 
ATOM      3  C   UNL     1       0.282  16.312  -1.416  0.00  0.00    +0.000 A 
ATOM      4  C   UNL     1       0.868  17.493  -1.858  0.00  0.00    +0.000 A 
ATOM      5  C   UNL     1       0.279  18.736  -1.574  0.00  0.00    +0.000 A 
ATOM      6  C   UNL     1      -0.903  18.864  -0.821  0.00  0.00    +0.000 A 
ATOM      7  C   UNL     1      -1.470  17.649  -0.393  0.00  0.00    +0.000 A 
ATOM      8  C   UNL     1      -0.891  16.400  -0.672  0.00  0.00    +0.000 A 
ENDBRANCH   1   6
BRANCH   1   9
ATOM      9  C   UNL     1      -0.892  21.347  -1.099  0.00  0.00    +0.000 C 
BRANCH   9  10
ATOM     10  C   UNL     1      -1.547  21.804  -2.425  0.00  0.00    +0.000 C 
ATOM     11  C   UNL     1      -0.497  22.002  -3.512  0.00  0.00    +0.000 C 
BRANCH  10  12
ATOM     12  O   UNL     1      -2.494  20.834  -2.894  0.00  0.00    +0.000 OA
ATOM     13  H   UNL     1      -2.727  20.256  -2.148  0.00  0.00    +0.000 HD
ENDBRANCH  10  12
ENDBRANCH   9  10
ENDBRANCH   1   9
BRANCH   1  14
ATOM     14  C   UNL     1      -2.378  20.301   0.620  0.00  0.00    +0.000 C 
BRANCH  14  15
ATOM     15  C   UNL     1      -3.867  20.436   0.220  0.00  0.00    +0.000 C 
ATOM     16  C   UNL     1      -4.328  21.884   0.104  0.00  0.00    +0.000 C 
BRANCH  15  17
ATOM     17  O   UNL     1      -4.141  19.785  -1.020  0.00  0.00    +0.000 OA
ATOM     18  H   UNL     1      -4.917  19.217  -0.841  0.00  0.00    +0.000 HD
ENDBRANCH  15  17
ENDBRANCH  14  15
ENDBRANCH   1  14
TORSDOF 7
ENDMDL
