MODEL 1
REMARK VINA RESULT:    -5.332      0.000      0.000
REMARK INTER + INTRA:          -7.687
REMARK INTER:                  -7.202
REMARK INTRA:                  -0.485
REMARK UNBOUND:                -0.485
REMARK  Name = 
REMARK  10 active torsions:
REMARK  status: ('A' for Active; 'I' for Inactive)
REMARK    1  A    between atoms: C_1  and  C_2
REMARK    2  A    between atoms: C_5  and  N_8
REMARK    3  A    between atoms: N_8  and  C_9
REMARK    4  A    between atoms: N_8  and  C_13
REMARK    5  A    between atoms: C_9  and  C_10
REMARK    6  A    between atoms: C_10  and  C_11
REMARK    7  A    between atoms: C_10  and  O_12
REMARK    8  A    between atoms: C_13  and  C_14
REMARK    9  A    between atoms: C_14  and  C_15
REMARK   10  A    between atoms: C_14  and  O_16
REMARK                            x       y       z     vdW  Elec       q    Type
REMARK                         _______ _______ _______ _____ _____    ______ ____
ROOT
ATOM      1  N   UNL     1      15.194  -8.503   0.228  0.00  0.00    +0.000 N 
ENDROOT
BRANCH   1   6
ATOM      2  C   UNL     1      12.488  -7.201   5.159  0.00  0.00    +0.000 C 
ATOM      3  C   UNL     1      13.206  -7.520   3.884  0.00  0.00    +0.000 A 
ATOM      4  C   UNL     1      12.797  -6.966   2.675  0.00  0.00    +0.000 A 
ATOM      5  C   UNL     1      13.455  -7.292   1.478  0.00  0.00    +0.000 A 
ATOM      6  C   UNL     1      14.530  -8.197   1.423  0.00  0.00    +0.000 A 
ATOM      7  C   UNL     1      14.918  -8.736   2.663  0.00  0.00    +0.000 A 
ATOM      8  C   UNL     1      14.270  -8.417   3.868  0.00  0.00    +0.000 A 
ENDBRANCH   1   6
BRANCH   1   9
ATOM      9  C   UNL     1      15.526  -7.425  -0.734  0.00  0.00    +0.000 C 
BRANCH   9  10
ATOM     10  C   UNL     1      16.658  -6.497  -0.229  0.00  0.00    +0.000 C 
ATOM     11  C   UNL     1      17.681  -6.238  -1.329  0.00  0.00    +0.000 C 
BRANCH  10  12
ATOM     12  O   UNL     1      16.134  -5.232   0.197  0.00  0.00    +0.000 OA
ATOM     13  H   UNL     1      15.699  -5.360   1.057  0.00  0.00    +0.000 HD
ENDBRANCH  10  12
ENDBRANCH   9  10
ENDBRANCH   1   9
BRANCH   1  14
ATOM     14  C   UNL     1      15.134  -9.867  -0.357  0.00  0.00    +0.000 C 
BRANCH  14  15
ATOM     15  C   UNL     1      15.841  -9.944  -1.732  0.00  0.00    +0.000 C 
ATOM     16  C   UNL     1      17.115 -10.781  -1.705  0.00  0.00    +0.000 C 
BRANCH  15  17
ATOM     17  O   UNL     1      14.982 -10.479  -2.737  0.00  0.00    +0.000 OA
ATOM     18  H   UNL     1      14.259  -9.826  -2.826  0.00  0.00    +0.000 HD
ENDBRANCH  15  17
ENDBRANCH  14  15
ENDBRANCH   1  14
TORSDOF 7
ENDMDL
MODEL 2
REMARK VINA RESULT:    -5.266      5.226      7.530
REMARK INTER + INTRA:          -7.597
REMARK INTER:                  -6.780
REMARK INTRA:                  -0.817
REMARK UNBOUND:                -0.485
REMARK  Name = 
REMARK  10 active torsions:
REMARK  status: ('A' for Active; 'I' for Inactive)
REMARK    1  A    between atoms: C_1  and  C_2
REMARK    2  A    between atoms: C_5  and  N_8
REMARK    3  A    between atoms: N_8  and  C_9
REMARK    4  A    between atoms: N_8  and  C_13
REMARK    5  A    between atoms: C_9  and  C_10
REMARK    6  A    between atoms: C_10  and  C_11
REMARK    7  A    between atoms: C_10  and  O_12
REMARK    8  A    between atoms: C_13  and  C_14
REMARK    9  A    between atoms: C_14  and  C_15
REMARK   10  A    between atoms: C_14  and  O_16
REMARK                            x       y       z     vdW  Elec       q    Type
REMARK                         _______ _______ _______ _____ _____    ______ ____
ROOT
ATOM      1  N   UNL     1       8.625  -8.483   2.086  0.00  0.00    +0.000 N 
ENDROOT
BRANCH   1   6
ATOM      2  C   UNL     1      14.123  -7.371   0.720  0.00  0.00    +0.000 C 
ATOM      3  C   UNL     1      12.689  -7.649   1.053  0.00  0.00    +0.000 A 
ATOM      4  C   UNL     1      11.942  -6.747   1.804  0.00  0.00    +0.000 A 
ATOM      5  C   UNL     1      10.607  -7.027   2.139  0.00  0.00    +0.000 A 
ATOM      6  C   UNL     1       9.962  -8.220   1.765  0.00  0.00    +0.000 A 
ATOM      7  C   UNL     1      10.746  -9.107   1.005  0.00  0.00    +0.000 A 
ATOM      8  C   UNL     1      12.082  -8.839   0.661  0.00  0.00    +0.000 A 
ENDBRANCH   1   6
BRANCH   1   9
ATOM      9  C   UNL     1       8.287  -9.176   3.352  0.00  0.00    +0.000 C 
BRANCH   9  10
ATOM     10  C   UNL     1       8.009  -8.195   4.518  0.00  0.00    +0.000 C 
ATOM     11  C   UNL     1       9.258  -7.993   5.368  0.00  0.00    +0.000 C 
BRANCH  10  12
ATOM     12  O   UNL     1       7.595  -6.914   4.024  0.00  0.00    +0.000 OA
ATOM     13  H   UNL     1       7.372  -7.011   3.083  0.00  0.00    +0.000 HD
ENDBRANCH  10  12
ENDBRANCH   9  10
ENDBRANCH   1   9
BRANCH   1  14
ATOM     14  C   UNL     1       7.583  -8.569   1.030  0.00  0.00    +0.000 C 
BRANCH  14  15
ATOM     15  C   UNL     1       7.268  -7.188   0.407  0.00  0.00    +0.000 C 
ATOM     16  C   UNL     1       6.013  -7.192  -0.458  0.00  0.00    +0.000 C 
BRANCH  15  17
ATOM     17  O   UNL     1       7.111  -6.182   1.407  0.00  0.00    +0.000 OA
ATOM     18  H   UNL     1       8.005  -5.801   1.525  0.00  0.00    +0.000 HD
ENDBRANCH  15  17
ENDBRANCH  14  15
ENDBRANCH   1  14
TORSDOF 7
ENDMDL
MODEL 3
REMARK VINA RESULT:    -5.241      1.087      3.105
REMARK INTER + INTRA:          -7.563
REMARK INTER:                  -7.109
REMARK INTRA:                  -0.454
REMARK UNBOUND:                -0.485
REMARK  Name = 
REMARK  10 active torsions:
REMARK  status: ('A' for Active; 'I' for Inactive)
REMARK    1  A    between atoms: C_1  and  C_2
REMARK    2  A    between atoms: C_5  and  N_8
REMARK    3  A    between atoms: N_8  and  C_9
REMARK    4  A    between atoms: N_8  and  C_13
REMARK    5  A    between atoms: C_9  and  C_10
REMARK    6  A    between atoms: C_10  and  C_11
REMARK    7  A    between atoms: C_10  and  O_12
REMARK    8  A    between atoms: C_13  and  C_14
REMARK    9  A    between atoms: C_14  and  C_15
REMARK   10  A    between atoms: C_14  and  O_16
REMARK                            x       y       z     vdW  Elec       q    Type
REMARK                         _______ _______ _______ _____ _____    ______ ____
ROOT
ATOM      1  N   UNL     1      15.721  -8.272   0.154  0.00  0.00    +0.000 N 
ENDROOT
BRANCH   1   6
ATOM      2  C   UNL     1      12.469  -7.238   4.810  0.00  0.00    +0.000 C 
ATOM      3  C   UNL     1      13.299  -7.526   3.596  0.00  0.00    +0.000 A 
ATOM      4  C   UNL     1      14.415  -8.352   3.673  0.00  0.00    +0.000 A 
ATOM      5  C   UNL     1      15.206  -8.594   2.538  0.00  0.00    +0.000 A 
ATOM      6  C   UNL     1      14.940  -8.011   1.286  0.00  0.00    +0.000 A 
ATOM      7  C   UNL     1      13.803  -7.183   1.245  0.00  0.00    +0.000 A 
ATOM      8  C   UNL     1      13.002  -6.934   2.372  0.00  0.00    +0.000 A 
ENDBRANCH   1   6
BRANCH   1   9
ATOM      9  C   UNL     1      15.280  -9.282  -0.838  0.00  0.00    +0.000 C 
BRANCH   9  10
ATOM     10  C   UNL     1      14.833  -8.650  -2.179  0.00  0.00    +0.000 C 
ATOM     11  C   UNL     1      15.958  -8.698  -3.206  0.00  0.00    +0.000 C 
BRANCH  10  12
ATOM     12  O   UNL     1      13.704  -9.346  -2.725  0.00  0.00    +0.000 OA
ATOM     13  H   UNL     1      13.412 -10.005  -2.073  0.00  0.00    +0.000 HD
ENDBRANCH  10  12
ENDBRANCH   9  10
ENDBRANCH   1   9
BRANCH   1  14
ATOM     14  C   UNL     1      17.178  -7.980   0.141  0.00  0.00    +0.000 C 
BRANCH  14  15
ATOM     15  C   UNL     1      17.482  -6.547  -0.359  0.00  0.00    +0.000 C 
ATOM     16  C   UNL     1      18.435  -6.517  -1.548  0.00  0.00    +0.000 C 
BRANCH  15  17
ATOM     17  O   UNL     1      16.291  -5.854  -0.729  0.00  0.00    +0.000 OA
ATOM     18  H   UNL     1      16.594  -5.122  -1.304  0.00  0.00    +0.000 HD
ENDBRANCH  15  17
ENDBRANCH  14  15
ENDBRANCH   1  14
TORSDOF 7
ENDMDL
MODEL 4
REMARK VINA RESULT:    -5.200      5.120      7.657
REMARK INTER + INTRA:          -7.509
REMARK INTER:                  -7.367
REMARK INTRA:                  -0.142
REMARK UNBOUND:                -0.485
REMARK  Name = 
REMARK  10 active torsions:
REMARK  status: ('A' for Active; 'I' for Inactive)
REMARK    1  A    between atoms: C_1  and  C_2
REMARK    2  A    between atoms: C_5  and  N_8
REMARK    3  A    between atoms: N_8  and  C_9
REMARK    4  A    between atoms: N_8  and  C_13
REMARK    5  A    between atoms: C_9  and  C_10
REMARK    6  A    between atoms: C_10  and  C_11
REMARK    7  A    between atoms: C_10  and  O_12
REMARK    8  A    between atoms: C_13  and  C_14
REMARK    9  A    between atoms: C_14  and  C_15
REMARK   10  A    between atoms: C_14  and  O_16
REMARK                            x       y       z     vdW  Elec       q    Type
REMARK                         _______ _______ _______ _____ _____    ______ ____
ROOT
ATOM      1  N   UNL     1       9.401  -7.826   3.086  0.00  0.00    +0.000 N 
ENDROOT
BRANCH   1   6
ATOM      2  C   UNL     1      14.838  -7.053   1.306  0.00  0.00    +0.000 C 
ATOM      3  C   UNL     1      13.423  -7.229   1.766  0.00  0.00    +0.000 A 
ATOM      4  C   UNL     1      13.108  -7.234   3.121  0.00  0.00    +0.000 A 
ATOM      5  C   UNL     1      11.785  -7.429   3.548  0.00  0.00    +0.000 A 
ATOM      6  C   UNL     1      10.722  -7.651   2.654  0.00  0.00    +0.000 A 
ATOM      7  C   UNL     1      11.076  -7.639   1.293  0.00  0.00    +0.000 A 
ATOM      8  C   UNL     1      12.395  -7.442   0.852  0.00  0.00    +0.000 A 
ENDBRANCH   1   6
BRANCH   1   9
ATOM      9  C   UNL     1       8.286  -7.182   2.350  0.00  0.00    +0.000 C 
BRANCH   9  10
ATOM     10  C   UNL     1       7.952  -7.901   1.020  0.00  0.00    +0.000 C 
ATOM     11  C   UNL     1       7.465  -9.322   1.276  0.00  0.00    +0.000 C 
BRANCH  10  12
ATOM     12  O   UNL     1       6.925  -7.202   0.301  0.00  0.00    +0.000 OA
ATOM     13  H   UNL     1       7.354  -6.630  -0.356  0.00  0.00    +0.000 HD
ENDBRANCH  10  12
ENDBRANCH   9  10
ENDBRANCH   1   9
BRANCH   1  14
ATOM     14  C   UNL     1       9.093  -8.185   4.494  0.00  0.00    +0.000 C 
BRANCH  14  15
ATOM     15  C   UNL     1       7.571  -8.282   4.754  0.00  0.00    +0.000 C 
ATOM     16  C   UNL     1       7.061  -9.717   4.802  0.00  0.00    +0.000 C 
BRANCH  15  17
ATOM     17  O   UNL     1       7.202  -7.640   5.974  0.00  0.00    +0.000 OA
ATOM     18  H   UNL     1       7.238  -6.683   5.777  0.00  0.00    +0.000 HD
ENDBRANCH  15  17
ENDBRANCH  14  15
ENDBRANCH   1  14
TORSDOF 7
ENDMDL
MODEL 5
REMARK VINA RESULT:    -5.200      4.834      7.169
REMARK INTER + INTRA:          -7.508
REMARK INTER:                  -7.039
REMARK INTRA:                  -0.470
REMARK UNBOUND:                -0.485
REMARK  Name = 
REMARK  10 active torsions:
REMARK  status: ('A' for Active; 'I' for Inactive)
REMARK    1  A    between atoms: C_1  and  C_2
REMARK    2  A    between atoms: C_5  and  N_8
REMARK    3  A    between atoms: N_8  and  C_9
REMARK    4  A    between atoms: N_8  and  C_13
REMARK    5  A    between atoms: C_9  and  C_10
REMARK    6  A    between atoms: C_10  and  C_11
REMARK    7  A    between atoms: C_10  and  O_12
REMARK    8  A    between atoms: C_13  and  C_14
REMARK    9  A    between atoms: C_14  and  C_15
REMARK   10  A    between atoms: C_14  and  O_16
REMARK                            x       y       z     vdW  Elec       q    Type
REMARK                         _______ _______ _______ _____ _____    ______ ____
ROOT
ATOM      1  N   UNL     1      10.133  -7.783   3.644  0.00  0.00    +0.000 N 
ENDROOT
BRANCH   1   6
ATOM      2  C   UNL     1      15.547  -9.302   4.951  0.00  0.00    +0.000 C 
ATOM      3  C   UNL     1      14.151  -8.893   4.593  0.00  0.00    +0.000 A 
ATOM      4  C   UNL     1      13.533  -7.826   5.236  0.00  0.00    +0.000 A 
ATOM      5  C   UNL     1      12.213  -7.465   4.919  0.00  0.00    +0.000 A 
ATOM      6  C   UNL     1      11.442  -8.160   3.969  0.00  0.00    +0.000 A 
ATOM      7  C   UNL     1      12.099  -9.232   3.338  0.00  0.00    +0.000 A 
ATOM      8  C   UNL     1      13.419  -9.602   3.645  0.00  0.00    +0.000 A 
ENDBRANCH   1   6
BRANCH   1   9
ATOM      9  C   UNL     1       9.773  -7.486   2.236  0.00  0.00    +0.000 C 
BRANCH   9  10
ATOM     10  C   UNL     1       9.090  -8.680   1.527  0.00  0.00    +0.000 C 
ATOM     11  C   UNL     1       7.687  -8.308   1.062  0.00  0.00    +0.000 C 
BRANCH  10  12
ATOM     12  O   UNL     1       9.842  -9.096   0.378  0.00  0.00    +0.000 OA
ATOM     13  H   UNL     1       9.852 -10.068   0.360  0.00  0.00    +0.000 HD
ENDBRANCH  10  12
ENDBRANCH   9  10
ENDBRANCH   1   9
BRANCH   1  14
ATOM     14  C   UNL     1       9.231  -7.182   4.659  0.00  0.00    +0.000 C 
BRANCH  14  15
ATOM     15  C   UNL     1       7.913  -7.978   4.815  0.00  0.00    +0.000 C 
ATOM     16  C   UNL     1       8.129  -9.485   4.889  0.00  0.00    +0.000 C 
BRANCH  15  17
ATOM     17  O   UNL     1       7.189  -7.577   5.977  0.00  0.00    +0.000 OA
ATOM     18  H   UNL     1       7.738  -6.879   6.388  0.00  0.00    +0.000 HD
ENDBRANCH  15  17
ENDBRANCH  14  15
ENDBRANCH   1  14
TORSDOF 7
ENDMDL
MODEL 6
REMARK VINA RESULT:    -5.143      7.192      9.053
REMARK INTER + INTRA:          -7.432
REMARK INTER:                  -6.687
REMARK INTRA:                  -0.744
REMARK UNBOUND:                -0.485
REMARK  Name = 
REMARK  10 active torsions:
REMARK  status: ('A' for Active; 'I' for Inactive)
REMARK    1  A    between atoms: C_1  and  C_2
REMARK    2  A    between atoms: C_5  and  N_8
REMARK    3  A    between atoms: N_8  and  C_9
REMARK    4  A    between atoms: N_8  and  C_13
REMARK    5  A    between atoms: C_9  and  C_10
REMARK    6  A    between atoms: C_10  and  C_11
REMARK    7  A    between atoms: C_10  and  O_12
REMARK    8  A    between atoms: C_13  and  C_14
REMARK    9  A    between atoms: C_14  and  C_15
REMARK   10  A    between atoms: C_14  and  O_16
REMARK                            x       y       z     vdW  Elec       q    Type
REMARK                         _______ _______ _______ _____ _____    ______ ____
ROOT
ATOM      1  N   UNL     1       8.361  -9.399   3.144  0.00  0.00    +0.000 N 
ENDROOT
BRANCH   1   6
ATOM      2  C   UNL     1       3.402 -12.323   2.718  0.00  0.00    +0.000 C 
ATOM      3  C   UNL     1       4.702 -11.585   2.825  0.00  0.00    +0.000 A 
ATOM      4  C   UNL     1       5.296 -11.362   4.063  0.00  0.00    +0.000 A 
ATOM      5  C   UNL     1       6.499 -10.644   4.160  0.00  0.00    +0.000 A 
ATOM      6  C   UNL     1       7.152 -10.097   3.041  0.00  0.00    +0.000 A 
ATOM      7  C   UNL     1       6.524 -10.344   1.806  0.00  0.00    +0.000 A 
ATOM      8  C   UNL     1       5.322 -11.062   1.695  0.00  0.00    +0.000 A 
ENDBRANCH   1   6
BRANCH   1   9
ATOM      9  C   UNL     1       8.854  -8.592   2.001  0.00  0.00    +0.000 C 
BRANCH   9  10
ATOM     10  C   UNL     1       8.311  -7.142   2.012  0.00  0.00    +0.000 C 
ATOM     11  C   UNL     1       7.382  -6.899   0.829  0.00  0.00    +0.000 C 
BRANCH  10  12
ATOM     12  O   UNL     1       7.576  -6.876   3.215  0.00  0.00    +0.000 OA
ATOM     13  H   UNL     1       6.629  -6.936   3.009  0.00  0.00    +0.000 HD
ENDBRANCH  10  12
ENDBRANCH   9  10
ENDBRANCH   1   9
BRANCH   1  14
ATOM     14  C   UNL     1       9.409  -9.813   4.112  0.00  0.00    +0.000 C 
BRANCH  14  15
ATOM     15  C   UNL     1       9.587  -8.785   5.255  0.00  0.00    +0.000 C 
ATOM     16  C   UNL     1      10.661  -7.744   4.963  0.00  0.00    +0.000 C 
BRANCH  15  17
ATOM     17  O   UNL     1       8.370  -8.097   5.540  0.00  0.00    +0.000 OA
ATOM     18  H   UNL     1       8.073  -7.742   4.678  0.00  0.00    +0.000 HD
ENDBRANCH  15  17
ENDBRANCH  14  15
ENDBRANCH   1  14
TORSDOF 7
ENDMDL
MODEL 7
REMARK VINA RESULT:    -5.042      1.745      3.375
REMARK INTER + INTRA:          -7.295
REMARK INTER:                  -6.719
REMARK INTRA:                  -0.576
REMARK UNBOUND:                -0.485
REMARK  Name = 
REMARK  10 active torsions:
REMARK  status: ('A' for Active; 'I' for Inactive)
REMARK    1  A    between atoms: C_1  and  C_2
REMARK    2  A    between atoms: C_5  and  N_8
REMARK    3  A    between atoms: N_8  and  C_9
REMARK    4  A    between atoms: N_8  and  C_13
REMARK    5  A    between atoms: C_9  and  C_10
REMARK    6  A    between atoms: C_10  and  C_11
REMARK    7  A    between atoms: C_10  and  O_12
REMARK    8  A    between atoms: C_13  and  C_14
REMARK    9  A    between atoms: C_14  and  C_15
REMARK   10  A    between atoms: C_14  and  O_16
REMARK                            x       y       z     vdW  Elec       q    Type
REMARK                         _______ _______ _______ _____ _____    ______ ____
ROOT
ATOM      1  N   UNL     1      15.169  -8.129   0.055  0.00  0.00    +0.000 N 
ENDROOT
BRANCH   1   6
ATOM      2  C   UNL     1       9.933  -7.080   2.249  0.00  0.00    +0.000 C 
ATOM      3  C   UNL     1      11.296  -7.368   1.699  0.00  0.00    +0.000 A 
ATOM      4  C   UNL     1      12.387  -6.575   2.040  0.00  0.00    +0.000 A 
ATOM      5  C   UNL     1      13.656  -6.831   1.497  0.00  0.00    +0.000 A 
ATOM      6  C   UNL     1      13.896  -7.867   0.577  0.00  0.00    +0.000 A 
ATOM      7  C   UNL     1      12.771  -8.650   0.257  0.00  0.00    +0.000 A 
ATOM      8  C   UNL     1      11.497  -8.406   0.794  0.00  0.00    +0.000 A 
ENDBRANCH   1   6
BRANCH   1   9
ATOM      9  C   UNL     1      15.354  -9.205  -0.949  0.00  0.00    +0.000 C 
BRANCH   9  10
ATOM     10  C   UNL     1      15.085  -8.728  -2.397  0.00  0.00    +0.000 C 
ATOM     11  C   UNL     1      16.336  -8.866  -3.257  0.00  0.00    +0.000 C 
BRANCH  10  12
ATOM     12  O   UNL     1      14.039  -9.497  -3.007  0.00  0.00    +0.000 OA
ATOM     13  H   UNL     1      14.038 -10.380  -2.601  0.00  0.00    +0.000 HD
ENDBRANCH  10  12
ENDBRANCH   9  10
ENDBRANCH   1   9
BRANCH   1  14
ATOM     14  C   UNL     1      16.398  -7.751   0.798  0.00  0.00    +0.000 C 
BRANCH  14  15
ATOM     15  C   UNL     1      17.143  -6.570   0.133  0.00  0.00    +0.000 C 
ATOM     16  C   UNL     1      18.359  -7.007  -0.676  0.00  0.00    +0.000 C 
BRANCH  15  17
ATOM     17  O   UNL     1      16.285  -5.823  -0.728  0.00  0.00    +0.000 OA
ATOM     18  H   UNL     1      16.727  -4.957  -0.836  0.00  0.00    +0.000 HD
ENDBRANCH  15  17
ENDBRANCH  14  15
ENDBRANCH   1  14
TORSDOF 7
ENDMDL
MODEL 8
REMARK VINA RESULT:    -4.978      4.771      6.997
REMARK INTER + INTRA:          -7.209
REMARK INTER:                  -6.784
REMARK INTRA:                  -0.425
REMARK UNBOUND:                -0.485
REMARK  Name = 
REMARK  10 active torsions:
REMARK  status: ('A' for Active; 'I' for Inactive)
REMARK    1  A    between atoms: C_1  and  C_2
REMARK    2  A    between atoms: C_5  and  N_8
REMARK    3  A    between atoms: N_8  and  C_9
REMARK    4  A    between atoms: N_8  and  C_13
REMARK    5  A    between atoms: C_9  and  C_10
REMARK    6  A    between atoms: C_10  and  C_11
REMARK    7  A    between atoms: C_10  and  O_12
REMARK    8  A    between atoms: C_13  and  C_14
REMARK    9  A    between atoms: C_14  and  C_15
REMARK   10  A    between atoms: C_14  and  O_16
REMARK                            x       y       z     vdW  Elec       q    Type
REMARK                         _______ _______ _______ _____ _____    ______ ____
ROOT
ATOM      1  N   UNL     1       9.442  -8.531   2.206  0.00  0.00    +0.000 N 
ENDROOT
BRANCH   1   6
ATOM      2  C   UNL     1      14.845  -6.840   1.077  0.00  0.00    +0.000 C 
ATOM      3  C   UNL     1      13.435  -7.258   1.359  0.00  0.00    +0.000 A 
ATOM      4  C   UNL     1      12.813  -6.914   2.555  0.00  0.00    +0.000 A 
ATOM      5  C   UNL     1      11.501  -7.334   2.826  0.00  0.00    +0.000 A 
ATOM      6  C   UNL     1      10.758  -8.132   1.938  0.00  0.00    +0.000 A 
ATOM      7  C   UNL     1      11.417  -8.459   0.738  0.00  0.00    +0.000 A 
ATOM      8  C   UNL     1      12.728  -8.043   0.453  0.00  0.00    +0.000 A 
ENDBRANCH   1   6
BRANCH   1   9
ATOM      9  C   UNL     1       9.003  -8.749   3.606  0.00  0.00    +0.000 C 
BRANCH   9  10
ATOM     10  C   UNL     1       8.007  -7.670   4.097  0.00  0.00    +0.000 C 
ATOM     11  C   UNL     1       8.629  -6.813   5.193  0.00  0.00    +0.000 C 
BRANCH  10  12
ATOM     12  O   UNL     1       7.616  -6.803   3.023  0.00  0.00    +0.000 OA
ATOM     13  H   UNL     1       8.264  -6.081   2.968  0.00  0.00    +0.000 HD
ENDBRANCH  10  12
ENDBRANCH   9  10
ENDBRANCH   1   9
BRANCH   1  14
ATOM     14  C   UNL     1       8.625  -9.227   1.180  0.00  0.00    +0.000 C 
BRANCH  14  15
ATOM     15  C   UNL     1       8.014 -10.545   1.715  0.00  0.00    +0.000 C 
ATOM     16  C   UNL     1       6.491 -10.533   1.741  0.00  0.00    +0.000 C 
BRANCH  15  17
ATOM     17  O   UNL     1       8.434 -11.671   0.945  0.00  0.00    +0.000 OA
ATOM     18  H   UNL     1       8.680 -12.351   1.604  0.00  0.00    +0.000 HD
ENDBRANCH  15  17
ENDBRANCH  14  15
ENDBRANCH   1  14
TORSDOF 7
ENDMDL
MODEL 9
REMARK VINA RESULT:    -4.975      4.358      6.809
REMARK INTER + INTRA:          -7.205
REMARK INTER:                  -6.754
REMARK INTRA:                  -0.451
REMARK UNBOUND:                -0.485
REMARK  Name = 
REMARK  10 active torsions:
REMARK  status: ('A' for Active; 'I' for Inactive)
REMARK    1  A    between atoms: C_1  and  C_2
REMARK    2  A    between atoms: C_5  and  N_8
REMARK    3  A    between atoms: N_8  and  C_9
REMARK    4  A    between atoms: N_8  and  C_13
REMARK    5  A    between atoms: C_9  and  C_10
REMARK    6  A    between atoms: C_10  and  C_11
REMARK    7  A    between atoms: C_10  and  O_12
REMARK    8  A    between atoms: C_13  and  C_14
REMARK    9  A    between atoms: C_14  and  C_15
REMARK   10  A    between atoms: C_14  and  O_16
REMARK                            x       y       z     vdW  Elec       q    Type
REMARK                         _______ _______ _______ _____ _____    ______ ____
ROOT
ATOM      1  N   UNL     1      10.085  -7.235   3.059  0.00  0.00    +0.000 N 
ENDROOT
BRANCH   1   6
ATOM      2  C   UNL     1      15.685  -8.032   1.903  0.00  0.00    +0.000 C 
ATOM      3  C   UNL     1      14.238  -7.805   2.218  0.00  0.00    +0.000 A 
ATOM      4  C   UNL     1      13.624  -8.471   3.273  0.00  0.00    +0.000 A 
ATOM      5  C   UNL     1      12.259  -8.278   3.545  0.00  0.00    +0.000 A 
ATOM      6  C   UNL     1      11.440  -7.437   2.770  0.00  0.00    +0.000 A 
ATOM      7  C   UNL     1      12.095  -6.779   1.713  0.00  0.00    +0.000 A 
ATOM      8  C   UNL     1      13.459  -6.961   1.432  0.00  0.00    +0.000 A 
ENDBRANCH   1   6
BRANCH   1   9
ATOM      9  C   UNL     1       9.626  -7.175   4.467  0.00  0.00    +0.000 C 
BRANCH   9  10
ATOM     10  C   UNL     1       8.457  -8.148   4.759  0.00  0.00    +0.000 C 
ATOM     11  C   UNL     1       8.978  -9.506   5.215  0.00  0.00    +0.000 C 
BRANCH  10  12
ATOM     12  O   UNL     1       7.602  -7.631   5.788  0.00  0.00    +0.000 OA
ATOM     13  H   UNL     1       7.173  -8.383   6.229  0.00  0.00    +0.000 HD
ENDBRANCH  10  12
ENDBRANCH   9  10
ENDBRANCH   1   9
BRANCH   1  14
ATOM     14  C   UNL     1       9.029  -7.577   2.072  0.00  0.00    +0.000 C 
BRANCH  14  15
ATOM     15  C   UNL     1       9.134  -9.043   1.588  0.00  0.00    +0.000 C 
ATOM     16  C   UNL     1       7.779  -9.729   1.454  0.00  0.00    +0.000 C 
BRANCH  15  17
ATOM     17  O   UNL     1       9.804  -9.137   0.332  0.00  0.00    +0.000 OA
ATOM     18  H   UNL     1      10.655  -8.674   0.464  0.00  0.00    +0.000 HD
ENDBRANCH  15  17
ENDBRANCH  14  15
ENDBRANCH   1  14
TORSDOF 7
ENDMDL
