MODEL 1
REMARK VINA RESULT:    -4.147      0.000      0.000
REMARK INTER + INTRA:          -4.562
REMARK INTER:                  -4.510
REMARK INTRA:                  -0.052
REMARK UNBOUND:                -0.052
REMARK  Name = 
REMARK  3 active torsions:
REMARK  status: ('A' for Active; 'I' for Inactive)
REMARK    1  A    between atoms: C_1  and  O_2
REMARK    2  A    between atoms: O_2  and  C_3
REMARK    3  A    between atoms: C_8  and  O_9
REMARK                            x       y       z     vdW  Elec       q    Type
REMARK                         _______ _______ _______ _____ _____    ______ ____
ROOT
ATOM      1  C   UNL     1       1.680  18.484  -0.669  0.00  0.00    +0.000 A 
ATOM      2  C   UNL     1       0.459  19.029  -0.274  0.00  0.00    +0.000 A 
ATOM      3  C   UNL     1      -0.597  19.118  -1.190  0.00  0.00    +0.000 A 
ATOM      4  C   UNL     1      -0.437  18.664  -2.501  0.00  0.00    +0.000 A 
ATOM      5  C   UNL     1       0.780  18.118  -2.903  0.00  0.00    +0.000 A 
ATOM      6  C   UNL     1       1.821  18.034  -1.988  0.00  0.00    +0.000 A 
ENDROOT
BRANCH   1   8
ATOM      7  C   UNL     1       3.474  19.530   0.484  0.00  0.00    +0.000 C 
ATOM      8  O   UNL     1       2.794  18.336   0.117  0.00  0.00    +0.000 OA
ENDBRANCH   1   8
BRANCH   6   9
ATOM      9  O   UNL     1       3.008  17.493  -2.406  0.00  0.00    +0.000 OA
ATOM     10  H   UNL     1       2.839  17.202  -3.323  0.00  0.00    +0.000 HD
ENDBRANCH   6   9
TORSDOF 2
ENDMDL
MODEL 2
REMARK VINA RESULT:    -4.118      2.174      3.080
REMARK INTER + INTRA:          -4.530
REMARK INTER:                  -4.490
REMARK INTRA:                  -0.041
REMARK UNBOUND:                -0.052
REMARK  Name = 
REMARK  3 active torsions:
REMARK  status: ('A' for Active; 'I' for Inactive)
REMARK    1  A    between atoms: C_1  and  O_2
REMARK    2  A    between atoms: O_2  and  C_3
REMARK    3  A    between atoms: C_8  and  O_9
REMARK                            x       y       z     vdW  Elec       q    Type
REMARK                         _______ _______ _______ _____ _____    ______ ____
ROOT
ATOM      1  C   UNL     1       0.045  18.748  -1.036  0.00  0.00    +0.000 A 
ATOM      2  C   UNL     1       1.232  18.762  -0.305  0.00  0.00    +0.000 A 
ATOM      3  C   UNL     1       2.448  18.477  -0.939  0.00  0.00    +0.000 A 
ATOM      4  C   UNL     1       2.481  18.176  -2.302  0.00  0.00    +0.000 A 
ATOM      5  C   UNL     1       1.300  18.160  -3.039  0.00  0.00    +0.000 A 
ATOM      6  C   UNL     1       0.099  18.445  -2.402  0.00  0.00    +0.000 A 
ENDROOT
BRANCH   1   8
ATOM      7  C   UNL     1      -1.433  18.704   0.824  0.00  0.00    +0.000 C 
ATOM      8  O   UNL     1      -1.211  19.007  -0.548  0.00  0.00    +0.000 OA
ENDBRANCH   1   8
BRANCH   6   9
ATOM      9  O   UNL     1      -1.050  18.423  -3.147  0.00  0.00    +0.000 OA
ATOM     10  H   UNL     1      -1.080  17.526  -3.531  0.00  0.00    +0.000 HD
ENDBRANCH   6   9
TORSDOF 2
ENDMDL
MODEL 3
REMARK VINA RESULT:    -3.964      1.281      2.569
REMARK INTER + INTRA:          -4.363
REMARK INTER:                  -4.311
REMARK INTRA:                  -0.052
REMARK UNBOUND:                -0.052
REMARK  Name = 
REMARK  3 active torsions:
REMARK  status: ('A' for Active; 'I' for Inactive)
REMARK    1  A    between atoms: C_1  and  O_2
REMARK    2  A    between atoms: O_2  and  C_3
REMARK    3  A    between atoms: C_8  and  O_9
REMARK                            x       y       z     vdW  Elec       q    Type
REMARK                         _______ _______ _______ _____ _____    ______ ____
ROOT
ATOM      1  C   UNL     1       1.444  18.602  -0.363  0.00  0.00    +0.000 A 
ATOM      2  C   UNL     1       0.742  18.848  -1.542  0.00  0.00    +0.000 A 
ATOM      3  C   UNL     1      -0.631  19.119  -1.496  0.00  0.00    +0.000 A 
ATOM      4  C   UNL     1      -1.307  19.144  -0.274  0.00  0.00    +0.000 A 
ATOM      5  C   UNL     1      -0.612  18.900   0.909  0.00  0.00    +0.000 A 
ATOM      6  C   UNL     1       0.749  18.632   0.853  0.00  0.00    +0.000 A 
ENDROOT
BRANCH   1   8
ATOM      7  C   UNL     1       3.677  19.308  -0.764  0.00  0.00    +0.000 C 
ATOM      8  O   UNL     1       2.783  18.323  -0.259  0.00  0.00    +0.000 OA
ENDBRANCH   1   8
BRANCH   6   9
ATOM      9  O   UNL     1       1.410  18.395   2.029  0.00  0.00    +0.000 OA
ATOM     10  H   UNL     1       1.900  17.565   1.876  0.00  0.00    +0.000 HD
ENDBRANCH   6   9
TORSDOF 2
ENDMDL
MODEL 4
REMARK VINA RESULT:    -3.960     14.881     15.982
REMARK INTER + INTRA:          -4.359
REMARK INTER:                  -4.321
REMARK INTRA:                  -0.038
REMARK UNBOUND:                -0.052
REMARK  Name = 
REMARK  3 active torsions:
REMARK  status: ('A' for Active; 'I' for Inactive)
REMARK    1  A    between atoms: C_1  and  O_2
REMARK    2  A    between atoms: O_2  and  C_3
REMARK    3  A    between atoms: C_8  and  O_9
REMARK                            x       y       z     vdW  Elec       q    Type
REMARK                         _______ _______ _______ _____ _____    ______ ____
ROOT
ATOM      1  C   UNL     1       0.690  12.153 -15.931  0.00  0.00    +0.000 A 
ATOM      2  C   UNL     1       1.576  12.377 -14.878  0.00  0.00    +0.000 A 
ATOM      3  C   UNL     1       1.266  11.918 -13.592  0.00  0.00    +0.000 A 
ATOM      4  C   UNL     1       0.071  11.235 -13.354  0.00  0.00    +0.000 A 
ATOM      5  C   UNL     1      -0.819  11.007 -14.401  0.00  0.00    +0.000 A 
ATOM      6  C   UNL     1      -0.503  11.467 -15.673  0.00  0.00    +0.000 A 
ENDROOT
BRANCH   1   8
ATOM      7  C   UNL     1       1.902  13.485 -17.482  0.00  0.00    +0.000 C 
ATOM      8  O   UNL     1       0.863  12.545 -17.234  0.00  0.00    +0.000 OA
ENDBRANCH   1   8
BRANCH   6   9
ATOM      9  O   UNL     1      -1.394  11.231 -16.685  0.00  0.00    +0.000 OA
ATOM     10  H   UNL     1      -0.977  10.532 -17.225  0.00  0.00    +0.000 HD
ENDBRANCH   6   9
TORSDOF 2
ENDMDL
MODEL 5
REMARK VINA RESULT:    -3.905      1.976      2.883
REMARK INTER + INTRA:          -4.299
REMARK INTER:                  -4.261
REMARK INTRA:                  -0.038
REMARK UNBOUND:                -0.052
REMARK  Name = 
REMARK  3 active torsions:
REMARK  status: ('A' for Active; 'I' for Inactive)
REMARK    1  A    between atoms: C_1  and  O_2
REMARK    2  A    between atoms: O_2  and  C_3
REMARK    3  A    between atoms: C_8  and  O_9
REMARK                            x       y       z     vdW  Elec       q    Type
REMARK                         _______ _______ _______ _____ _____    ______ ____
ROOT
ATOM      1  C   UNL     1       1.730  19.052  -0.178  0.00  0.00    +0.000 A 
ATOM      2  C   UNL     1       1.229  19.816  -1.231  0.00  0.00    +0.000 A 
ATOM      3  C   UNL     1       2.045  20.114  -2.329  0.00  0.00    +0.000 A 
ATOM      4  C   UNL     1       3.361  19.652  -2.379  0.00  0.00    +0.000 A 
ATOM      5  C   UNL     1       3.869  18.887  -1.331  0.00  0.00    +0.000 A 
ATOM      6  C   UNL     1       3.053  18.597  -0.246  0.00  0.00    +0.000 A 
ENDROOT
BRANCH   1   8
ATOM      7  C   UNL     1      -0.370  18.773   0.898  0.00  0.00    +0.000 C 
ATOM      8  O   UNL     1       1.049  18.685   0.955  0.00  0.00    +0.000 OA
ENDBRANCH   1   8
BRANCH   6   9
ATOM      9  O   UNL     1       3.575  17.844   0.772  0.00  0.00    +0.000 OA
ATOM     10  H   UNL     1       2.815  17.341   1.123  0.00  0.00    +0.000 HD
ENDBRANCH   6   9
TORSDOF 2
ENDMDL
MODEL 6
REMARK VINA RESULT:    -3.902      1.112      2.730
REMARK INTER + INTRA:          -4.295
REMARK INTER:                  -4.250
REMARK INTRA:                  -0.045
REMARK UNBOUND:                -0.052
REMARK  Name = 
REMARK  3 active torsions:
REMARK  status: ('A' for Active; 'I' for Inactive)
REMARK    1  A    between atoms: C_1  and  O_2
REMARK    2  A    between atoms: O_2  and  C_3
REMARK    3  A    between atoms: C_8  and  O_9
REMARK                            x       y       z     vdW  Elec       q    Type
REMARK                         _______ _______ _______ _____ _____    ______ ____
ROOT
ATOM      1  C   UNL     1       1.458  18.398  -1.648  0.00  0.00    +0.000 A 
ATOM      2  C   UNL     1       0.121  18.791  -1.656  0.00  0.00    +0.000 A 
ATOM      3  C   UNL     1      -0.508  19.158  -0.459  0.00  0.00    +0.000 A 
ATOM      4  C   UNL     1       0.196  19.134   0.746  0.00  0.00    +0.000 A 
ATOM      5  C   UNL     1       1.533  18.743   0.762  0.00  0.00    +0.000 A 
ATOM      6  C   UNL     1       2.148  18.380  -0.429  0.00  0.00    +0.000 A 
ENDROOT
BRANCH   1   8
ATOM      7  C   UNL     1       2.029  18.782  -3.922  0.00  0.00    +0.000 C 
ATOM      8  O   UNL     1       2.197  18.013  -2.738  0.00  0.00    +0.000 OA
ENDBRANCH   1   8
BRANCH   6   9
ATOM      9  O   UNL     1       3.462  17.999  -0.388  0.00  0.00    +0.000 OA
ATOM     10  H   UNL     1       3.902  18.551  -1.062  0.00  0.00    +0.000 HD
ENDBRANCH   6   9
TORSDOF 2
ENDMDL
MODEL 7
REMARK VINA RESULT:    -3.899      1.222      1.745
REMARK INTER + INTRA:          -4.292
REMARK INTER:                  -4.242
REMARK INTRA:                  -0.050
REMARK UNBOUND:                -0.052
REMARK  Name = 
REMARK  3 active torsions:
REMARK  status: ('A' for Active; 'I' for Inactive)
REMARK    1  A    between atoms: C_1  and  O_2
REMARK    2  A    between atoms: O_2  and  C_3
REMARK    3  A    between atoms: C_8  and  O_9
REMARK                            x       y       z     vdW  Elec       q    Type
REMARK                         _______ _______ _______ _____ _____    ______ ____
ROOT
ATOM      1  C   UNL     1       1.782  18.384  -1.723  0.00  0.00    +0.000 A 
ATOM      2  C   UNL     1       1.409  18.743  -0.429  0.00  0.00    +0.000 A 
ATOM      3  C   UNL     1       0.077  19.074  -0.151  0.00  0.00    +0.000 A 
ATOM      4  C   UNL     1      -0.885  19.048  -1.163  0.00  0.00    +0.000 A 
ATOM      5  C   UNL     1      -0.520  18.691  -2.458  0.00  0.00    +0.000 A 
ATOM      6  C   UNL     1       0.804  18.364  -2.725  0.00  0.00    +0.000 A 
ENDROOT
BRANCH   1   8
ATOM      7  C   UNL     1       4.083  18.964  -1.847  0.00  0.00    +0.000 C 
ATOM      8  O   UNL     1       3.043  18.038  -2.138  0.00  0.00    +0.000 OA
ENDBRANCH   1   8
BRANCH   6   9
ATOM      9  O   UNL     1       1.138  18.016  -4.007  0.00  0.00    +0.000 OA
ATOM     10  H   UNL     1       1.754  17.265  -3.907  0.00  0.00    +0.000 HD
ENDBRANCH   6   9
TORSDOF 2
ENDMDL
MODEL 8
REMARK VINA RESULT:    -3.711      1.958      2.321
REMARK INTER + INTRA:          -4.088
REMARK INTER:                  -4.039
REMARK INTRA:                  -0.049
REMARK UNBOUND:                -0.052
REMARK  Name = 
REMARK  3 active torsions:
REMARK  status: ('A' for Active; 'I' for Inactive)
REMARK    1  A    between atoms: C_1  and  O_2
REMARK    2  A    between atoms: O_2  and  C_3
REMARK    3  A    between atoms: C_8  and  O_9
REMARK                            x       y       z     vdW  Elec       q    Type
REMARK                         _______ _______ _______ _____ _____    ______ ____
ROOT
ATOM      1  C   UNL     1       2.254  19.467  -0.930  0.00  0.00    +0.000 A 
ATOM      2  C   UNL     1       1.410  18.383  -1.166  0.00  0.00    +0.000 A 
ATOM      3  C   UNL     1       1.133  17.985  -2.480  0.00  0.00    +0.000 A 
ATOM      4  C   UNL     1       1.697  18.668  -3.560  0.00  0.00    +0.000 A 
ATOM      5  C   UNL     1       2.541  19.752  -3.332  0.00  0.00    +0.000 A 
ATOM      6  C   UNL     1       2.810  20.140  -2.025  0.00  0.00    +0.000 A 
ENDROOT
BRANCH   1   8
ATOM      7  C   UNL     1       1.548  20.255   1.198  0.00  0.00    +0.000 C 
ATOM      8  O   UNL     1       2.611  19.965   0.298  0.00  0.00    +0.000 OA
ENDBRANCH   1   8
BRANCH   6   9
ATOM      9  O   UNL     1       3.643  21.208  -1.826  0.00  0.00    +0.000 OA
ATOM     10  H   UNL     1       3.241  21.702  -1.086  0.00  0.00    +0.000 HD
ENDBRANCH   6   9
TORSDOF 2
ENDMDL
MODEL 9
REMARK VINA RESULT:    -3.704     14.191     15.464
REMARK INTER + INTRA:          -4.080
REMARK INTER:                  -4.043
REMARK INTRA:                  -0.037
REMARK UNBOUND:                -0.052
REMARK  Name = 
REMARK  3 active torsions:
REMARK  status: ('A' for Active; 'I' for Inactive)
REMARK    1  A    between atoms: C_1  and  O_2
REMARK    2  A    between atoms: O_2  and  C_3
REMARK    3  A    between atoms: C_8  and  O_9
REMARK                            x       y       z     vdW  Elec       q    Type
REMARK                         _______ _______ _______ _____ _____    ______ ____
ROOT
ATOM      1  C   UNL     1       0.893  12.392 -15.448  0.00  0.00    +0.000 A 
ATOM      2  C   UNL     1      -0.261  11.985 -16.116  0.00  0.00    +0.000 A 
ATOM      3  C   UNL     1      -1.230  11.231 -15.442  0.00  0.00    +0.000 A 
ATOM      4  C   UNL     1      -1.051  10.882 -14.103  0.00  0.00    +0.000 A 
ATOM      5  C   UNL     1       0.099  11.286 -13.428  0.00  0.00    +0.000 A 
ATOM      6  C   UNL     1       1.055  12.033 -14.104  0.00  0.00    +0.000 A 
ENDROOT
BRANCH   1   8
ATOM      7  C   UNL     1       1.812  13.468 -17.357  0.00  0.00    +0.000 C 
ATOM      8  O   UNL     1       1.921  13.129 -15.980  0.00  0.00    +0.000 OA
ENDBRANCH   1   8
BRANCH   6   9
ATOM      9  O   UNL     1       2.177  12.418 -13.420  0.00  0.00    +0.000 OA
ATOM     10  H   UNL     1       2.922  12.150 -13.993  0.00  0.00    +0.000 HD
ENDBRANCH   6   9
TORSDOF 2
ENDMDL
