MODEL 1
REMARK VINA RESULT:    -4.323      0.000      0.000
REMARK INTER + INTRA:          -6.171
REMARK INTER:                  -5.840
REMARK INTRA:                  -0.332
REMARK UNBOUND:                -0.332
REMARK  Name = 
REMARK  10 active torsions:
REMARK  status: ('A' for Active; 'I' for Inactive)
REMARK    1  A    between atoms: C_1  and  C_2
REMARK    2  A    between atoms: C_5  and  N_8
REMARK    3  A    between atoms: N_8  and  C_9
REMARK    4  A    between atoms: N_8  and  C_13
REMARK    5  A    between atoms: C_9  and  C_10
REMARK    6  A    between atoms: C_10  and  C_11
REMARK    7  A    between atoms: C_10  and  O_12
REMARK    8  A    between atoms: C_13  and  C_14
REMARK    9  A    between atoms: C_14  and  C_15
REMARK   10  A    between atoms: C_14  and  O_16
REMARK                            x       y       z     vdW  Elec       q    Type
REMARK                         _______ _______ _______ _____ _____    ______ ____
ROOT
ATOM      1  N   UNL     1       1.356  19.333  -0.708  0.00  0.00    +0.000 N 
ENDROOT
BRANCH   1   6
ATOM      2  C   UNL     1       6.697  21.305  -1.663  0.00  0.00    +0.000 C 
ATOM      3  C   UNL     1       5.321  20.774  -1.402  0.00  0.00    +0.000 A 
ATOM      4  C   UNL     1       4.709  19.904  -2.298  0.00  0.00    +0.000 A 
ATOM      5  C   UNL     1       3.407  19.433  -2.064  0.00  0.00    +0.000 A 
ATOM      6  C   UNL     1       2.647  19.822  -0.946  0.00  0.00    +0.000 A 
ATOM      7  C   UNL     1       3.297  20.701  -0.060  0.00  0.00    +0.000 A 
ATOM      8  C   UNL     1       4.600  21.177  -0.282  0.00  0.00    +0.000 A 
ENDBRANCH   1   6
BRANCH   1   9
ATOM      9  C   UNL     1       0.697  18.457  -1.707  0.00  0.00    +0.000 C 
BRANCH   9  10
ATOM     10  C   UNL     1      -0.526  19.126  -2.379  0.00  0.00    +0.000 C 
ATOM     11  C   UNL     1      -0.121  20.412  -3.090  0.00  0.00    +0.000 C 
BRANCH  10  12
ATOM     12  O   UNL     1      -1.124  18.253  -3.347  0.00  0.00    +0.000 OA
ATOM     13  H   UNL     1      -1.780  18.764  -3.849  0.00  0.00    +0.000 HD
ENDBRANCH  10  12
ENDBRANCH   9  10
ENDBRANCH   1   9
BRANCH   1  14
ATOM     14  C   UNL     1       0.428  20.031   0.218  0.00  0.00    +0.000 C 
BRANCH  14  15
ATOM     15  C   UNL     1       0.069  19.164   1.449  0.00  0.00    +0.000 C 
ATOM     16  C   UNL     1      -1.155  18.284   1.226  0.00  0.00    +0.000 C 
BRANCH  15  17
ATOM     17  O   UNL     1       1.154  18.321   1.835  0.00  0.00    +0.000 OA
ATOM     18  H   UNL     1       1.943  18.899   1.812  0.00  0.00    +0.000 HD
ENDBRANCH  15  17
ENDBRANCH  14  15
ENDBRANCH   1  14
TORSDOF 7
ENDMDL
MODEL 2
REMARK VINA RESULT:    -3.893     18.233     19.737
REMARK INTER + INTRA:          -5.590
REMARK INTER:                  -5.074
REMARK INTRA:                  -0.516
REMARK UNBOUND:                -0.332
REMARK  Name = 
REMARK  10 active torsions:
REMARK  status: ('A' for Active; 'I' for Inactive)
REMARK    1  A    between atoms: C_1  and  C_2
REMARK    2  A    between atoms: C_5  and  N_8
REMARK    3  A    between atoms: N_8  and  C_9
REMARK    4  A    between atoms: N_8  and  C_13
REMARK    5  A    between atoms: C_9  and  C_10
REMARK    6  A    between atoms: C_10  and  C_11
REMARK    7  A    between atoms: C_10  and  O_12
REMARK    8  A    between atoms: C_13  and  C_14
REMARK    9  A    between atoms: C_14  and  C_15
REMARK   10  A    between atoms: C_14  and  O_16
REMARK                            x       y       z     vdW  Elec       q    Type
REMARK                         _______ _______ _______ _____ _____    ______ ____
ROOT
ATOM      1  N   UNL     1      19.838  16.365  -8.208  0.00  0.00    +0.000 N 
ENDROOT
BRANCH   1   6
ATOM      2  C   UNL     1      18.749  20.190 -12.393  0.00  0.00    +0.000 C 
ATOM      3  C   UNL     1      19.040  19.216 -11.292  0.00  0.00    +0.000 A 
ATOM      4  C   UNL     1      20.264  18.559 -11.225  0.00  0.00    +0.000 A 
ATOM      5  C   UNL     1      20.520  17.625 -10.208  0.00  0.00    +0.000 A 
ATOM      6  C   UNL     1      19.569  17.284  -9.230  0.00  0.00    +0.000 A 
ATOM      7  C   UNL     1      18.343  17.968  -9.328  0.00  0.00    +0.000 A 
ATOM      8  C   UNL     1      18.075  18.907 -10.338  0.00  0.00    +0.000 A 
ENDBRANCH   1   6
BRANCH   1   9
ATOM      9  C   UNL     1      20.530  15.091  -8.516  0.00  0.00    +0.000 C 
BRANCH   9  10
ATOM     10  C   UNL     1      19.742  14.206  -9.513  0.00  0.00    +0.000 C 
ATOM     11  C   UNL     1      20.682  13.297 -10.296  0.00  0.00    +0.000 C 
BRANCH  10  12
ATOM     12  O   UNL     1      18.792  13.378  -8.827  0.00  0.00    +0.000 OA
ATOM     13  H   UNL     1      19.080  13.293  -7.902  0.00  0.00    +0.000 HD
ENDBRANCH  10  12
ENDBRANCH   9  10
ENDBRANCH   1   9
BRANCH   1  14
ATOM     14  C   UNL     1      19.041  16.356  -6.954  0.00  0.00    +0.000 C 
BRANCH  14  15
ATOM     15  C   UNL     1      19.713  17.180  -5.829  0.00  0.00    +0.000 C 
ATOM     16  C   UNL     1      19.119  18.575  -5.672  0.00  0.00    +0.000 C 
BRANCH  15  17
ATOM     17  O   UNL     1      19.626  16.519  -4.567  0.00  0.00    +0.000 OA
ATOM     18  H   UNL     1      20.373  15.887  -4.561  0.00  0.00    +0.000 HD
ENDBRANCH  15  17
ENDBRANCH  14  15
ENDBRANCH   1  14
TORSDOF 7
ENDMDL
MODEL 3
REMARK VINA RESULT:    -3.867     16.455     18.865
REMARK INTER + INTRA:          -5.555
REMARK INTER:                  -5.364
REMARK INTRA:                  -0.190
REMARK UNBOUND:                -0.332
REMARK  Name = 
REMARK  10 active torsions:
REMARK  status: ('A' for Active; 'I' for Inactive)
REMARK    1  A    between atoms: C_1  and  C_2
REMARK    2  A    between atoms: C_5  and  N_8
REMARK    3  A    between atoms: N_8  and  C_9
REMARK    4  A    between atoms: N_8  and  C_13
REMARK    5  A    between atoms: C_9  and  C_10
REMARK    6  A    between atoms: C_10  and  C_11
REMARK    7  A    between atoms: C_10  and  O_12
REMARK    8  A    between atoms: C_13  and  C_14
REMARK    9  A    between atoms: C_14  and  C_15
REMARK   10  A    between atoms: C_14  and  O_16
REMARK                            x       y       z     vdW  Elec       q    Type
REMARK                         _______ _______ _______ _____ _____    ______ ____
ROOT
ATOM      1  N   UNL     1      19.122  17.236  -8.231  0.00  0.00    +0.000 N 
ENDROOT
BRANCH   1   6
ATOM      2  C   UNL     1      15.147  21.349  -9.005  0.00  0.00    +0.000 C 
ATOM      3  C   UNL     1      16.180  20.288  -8.780  0.00  0.00    +0.000 A 
ATOM      4  C   UNL     1      17.531  20.554  -8.974  0.00  0.00    +0.000 A 
ATOM      5  C   UNL     1      18.493  19.547  -8.790  0.00  0.00    +0.000 A 
ATOM      6  C   UNL     1      18.156  18.230  -8.431  0.00  0.00    +0.000 A 
ATOM      7  C   UNL     1      16.782  17.997  -8.241  0.00  0.00    +0.000 A 
ATOM      8  C   UNL     1      15.810  18.996  -8.419  0.00  0.00    +0.000 A 
ENDBRANCH   1   6
BRANCH   1   9
ATOM      9  C   UNL     1      19.080  16.393  -7.011  0.00  0.00    +0.000 C 
BRANCH   9  10
ATOM     10  C   UNL     1      19.824  17.033  -5.813  0.00  0.00    +0.000 C 
ATOM     11  C   UNL     1      19.172  18.350  -5.408  0.00  0.00    +0.000 C 
BRANCH  10  12
ATOM     12  O   UNL     1      19.811  16.162  -4.674  0.00  0.00    +0.000 OA
ATOM     13  H   UNL     1      18.885  16.013  -4.419  0.00  0.00    +0.000 HD
ENDBRANCH  10  12
ENDBRANCH   9  10
ENDBRANCH   1   9
BRANCH   1  14
ATOM     14  C   UNL     1      20.450  17.308  -8.894  0.00  0.00    +0.000 C 
BRANCH  14  15
ATOM     15  C   UNL     1      20.516  16.429 -10.165  0.00  0.00    +0.000 C 
ATOM     16  C   UNL     1      20.555  14.936  -9.861  0.00  0.00    +0.000 C 
BRANCH  15  17
ATOM     17  O   UNL     1      19.412  16.675 -11.035  0.00  0.00    +0.000 OA
ATOM     18  H   UNL     1      19.206  17.624 -10.919  0.00  0.00    +0.000 HD
ENDBRANCH  15  17
ENDBRANCH  14  15
ENDBRANCH   1  14
TORSDOF 7
ENDMDL
MODEL 4
REMARK VINA RESULT:    -3.836     16.429     18.869
REMARK INTER + INTRA:          -5.513
REMARK INTER:                  -5.092
REMARK INTRA:                  -0.421
REMARK UNBOUND:                -0.332
REMARK  Name = 
REMARK  10 active torsions:
REMARK  status: ('A' for Active; 'I' for Inactive)
REMARK    1  A    between atoms: C_1  and  C_2
REMARK    2  A    between atoms: C_5  and  N_8
REMARK    3  A    between atoms: N_8  and  C_9
REMARK    4  A    between atoms: N_8  and  C_13
REMARK    5  A    between atoms: C_9  and  C_10
REMARK    6  A    between atoms: C_10  and  C_11
REMARK    7  A    between atoms: C_10  and  O_12
REMARK    8  A    between atoms: C_13  and  C_14
REMARK    9  A    between atoms: C_14  and  C_15
REMARK   10  A    between atoms: C_14  and  O_16
REMARK                            x       y       z     vdW  Elec       q    Type
REMARK                         _______ _______ _______ _____ _____    ______ ____
ROOT
ATOM      1  N   UNL     1      19.581  17.544  -7.991  0.00  0.00    +0.000 N 
ENDROOT
BRANCH   1   6
ATOM      2  C   UNL     1      15.177  21.153  -8.941  0.00  0.00    +0.000 C 
ATOM      3  C   UNL     1      16.320  20.223  -8.671  0.00  0.00    +0.000 A 
ATOM      4  C   UNL     1      17.636  20.639  -8.846  0.00  0.00    +0.000 A 
ATOM      5  C   UNL     1      18.702  19.754  -8.619  0.00  0.00    +0.000 A 
ATOM      6  C   UNL     1      18.512  18.415  -8.234  0.00  0.00    +0.000 A 
ATOM      7  C   UNL     1      17.169  18.030  -8.064  0.00  0.00    +0.000 A 
ATOM      8  C   UNL     1      16.093  18.905  -8.285  0.00  0.00    +0.000 A 
ENDBRANCH   1   6
BRANCH   1   9
ATOM      9  C   UNL     1      20.573  17.269  -9.058  0.00  0.00    +0.000 C 
BRANCH   9  10
ATOM     10  C   UNL     1      19.915  16.947 -10.422  0.00  0.00    +0.000 C 
ATOM     11  C   UNL     1      20.617  17.688 -11.554  0.00  0.00    +0.000 C 
BRANCH  10  12
ATOM     12  O   UNL     1      19.976  15.542 -10.704  0.00  0.00    +0.000 OA
ATOM     13  H   UNL     1      19.618  15.065  -9.937  0.00  0.00    +0.000 HD
ENDBRANCH  10  12
ENDBRANCH   9  10
ENDBRANCH   1   9
BRANCH   1  14
ATOM     14  C   UNL     1      19.502  16.507  -6.930  0.00  0.00    +0.000 C 
BRANCH  14  15
ATOM     15  C   UNL     1      20.316  16.895  -5.672  0.00  0.00    +0.000 C 
ATOM     16  C   UNL     1      20.543  18.397  -5.545  0.00  0.00    +0.000 C 
BRANCH  15  17
ATOM     17  O   UNL     1      19.685  16.442  -4.475  0.00  0.00    +0.000 OA
ATOM     18  H   UNL     1      19.783  15.468  -4.491  0.00  0.00    +0.000 HD
ENDBRANCH  15  17
ENDBRANCH  14  15
ENDBRANCH   1  14
TORSDOF 7
ENDMDL
MODEL 5
REMARK VINA RESULT:    -3.833      0.433      3.125
REMARK INTER + INTRA:          -5.509
REMARK INTER:                  -5.793
REMARK INTRA:                   0.284
REMARK UNBOUND:                -0.332
REMARK  Name = 
REMARK  10 active torsions:
REMARK  status: ('A' for Active; 'I' for Inactive)
REMARK    1  A    between atoms: C_1  and  C_2
REMARK    2  A    between atoms: C_5  and  N_8
REMARK    3  A    between atoms: N_8  and  C_9
REMARK    4  A    between atoms: N_8  and  C_13
REMARK    5  A    between atoms: C_9  and  C_10
REMARK    6  A    between atoms: C_10  and  C_11
REMARK    7  A    between atoms: C_10  and  O_12
REMARK    8  A    between atoms: C_13  and  C_14
REMARK    9  A    between atoms: C_14  and  C_15
REMARK   10  A    between atoms: C_14  and  O_16
REMARK                            x       y       z     vdW  Elec       q    Type
REMARK                         _______ _______ _______ _____ _____    ______ ____
ROOT
ATOM      1  N   UNL     1       0.914  19.841  -0.831  0.00  0.00    +0.000 N 
ENDROOT
BRANCH   1   6
ATOM      2  C   UNL     1       6.481  20.967  -1.865  0.00  0.00    +0.000 C 
ATOM      3  C   UNL     1       5.043  20.654  -1.585  0.00  0.00    +0.000 A 
ATOM      4  C   UNL     1       4.268  19.966  -2.514  0.00  0.00    +0.000 A 
ATOM      5  C   UNL     1       2.913  19.701  -2.259  0.00  0.00    +0.000 A 
ATOM      6  C   UNL     1       2.261  20.125  -1.087  0.00  0.00    +0.000 A 
ATOM      7  C   UNL     1       3.075  20.816  -0.171  0.00  0.00    +0.000 A 
ATOM      8  C   UNL     1       4.432  21.086  -0.412  0.00  0.00    +0.000 A 
ENDBRANCH   1   6
BRANCH   1   9
ATOM      9  C   UNL     1       0.281  20.307   0.426  0.00  0.00    +0.000 C 
BRANCH   9  10
ATOM     10  C   UNL     1       0.179  19.193   1.496  0.00  0.00    +0.000 C 
ATOM     11  C   UNL     1      -1.018  18.288   1.227  0.00  0.00    +0.000 C 
BRANCH  10  12
ATOM     12  O   UNL     1       1.359  18.378   1.505  0.00  0.00    +0.000 OA
ATOM     13  H   UNL     1       1.442  17.958   0.633  0.00  0.00    +0.000 HD
ENDBRANCH  10  12
ENDBRANCH   9  10
ENDBRANCH   1   9
BRANCH   1  14
ATOM     14  C   UNL     1       0.233  18.694  -1.485  0.00  0.00    +0.000 C 
BRANCH  14  15
ATOM     15  C   UNL     1      -0.927  19.148  -2.403  0.00  0.00    +0.000 C 
ATOM     16  C   UNL     1      -0.720  20.541  -2.986  0.00  0.00    +0.000 C 
BRANCH  15  17
ATOM     17  O   UNL     1      -1.129  18.241  -3.485  0.00  0.00    +0.000 OA
ATOM     18  H   UNL     1      -0.685  18.659  -4.251  0.00  0.00    +0.000 HD
ENDBRANCH  15  17
ENDBRANCH  14  15
ENDBRANCH   1  14
TORSDOF 7
ENDMDL
MODEL 6
REMARK VINA RESULT:    -3.798      2.232      4.598
REMARK INTER + INTRA:          -5.461
REMARK INTER:                  -5.102
REMARK INTRA:                  -0.359
REMARK UNBOUND:                -0.332
REMARK  Name = 
REMARK  10 active torsions:
REMARK  status: ('A' for Active; 'I' for Inactive)
REMARK    1  A    between atoms: C_1  and  C_2
REMARK    2  A    between atoms: C_5  and  N_8
REMARK    3  A    between atoms: N_8  and  C_9
REMARK    4  A    between atoms: N_8  and  C_13
REMARK    5  A    between atoms: C_9  and  C_10
REMARK    6  A    between atoms: C_10  and  C_11
REMARK    7  A    between atoms: C_10  and  O_12
REMARK    8  A    between atoms: C_13  and  C_14
REMARK    9  A    between atoms: C_14  and  C_15
REMARK   10  A    between atoms: C_14  and  O_16
REMARK                            x       y       z     vdW  Elec       q    Type
REMARK                         _______ _______ _______ _____ _____    ______ ____
ROOT
ATOM      1  N   UNL     1       2.397  18.777  -1.588  0.00  0.00    +0.000 N 
ENDROOT
BRANCH   1   6
ATOM      2  C   UNL     1      -1.433  21.349   1.881  0.00  0.00    +0.000 C 
ATOM      3  C   UNL     1      -0.421  20.693   0.993  0.00  0.00    +0.000 A 
ATOM      4  C   UNL     1      -0.033  21.283  -0.205  0.00  0.00    +0.000 A 
ATOM      5  C   UNL     1       0.894  20.649  -1.048  0.00  0.00    +0.000 A 
ATOM      6  C   UNL     1       1.458  19.395  -0.752  0.00  0.00    +0.000 A 
ATOM      7  C   UNL     1       1.045  18.829   0.468  0.00  0.00    +0.000 A 
ATOM      8  C   UNL     1       0.120  19.454   1.321  0.00  0.00    +0.000 A 
ENDBRANCH   1   6
BRANCH   1   9
ATOM      9  C   UNL     1       2.011  17.594  -2.394  0.00  0.00    +0.000 C 
BRANCH   9  10
ATOM     10  C   UNL     1       1.241  17.972  -3.684  0.00  0.00    +0.000 C 
ATOM     11  C   UNL     1      -0.231  18.229  -3.384  0.00  0.00    +0.000 C 
BRANCH  10  12
ATOM     12  O   UNL     1       1.786  19.157  -4.280  0.00  0.00    +0.000 OA
ATOM     13  H   UNL     1       2.734  19.009  -4.433  0.00  0.00    +0.000 HD
ENDBRANCH  10  12
ENDBRANCH   9  10
ENDBRANCH   1   9
BRANCH   1  14
ATOM     14  C   UNL     1       3.855  18.914  -1.340  0.00  0.00    +0.000 C 
BRANCH  14  15
ATOM     15  C   UNL     1       4.308  20.394  -1.316  0.00  0.00    +0.000 C 
ATOM     16  C   UNL     1       4.403  20.970   0.092  0.00  0.00    +0.000 C 
BRANCH  15  17
ATOM     17  O   UNL     1       5.574  20.568  -1.951  0.00  0.00    +0.000 OA
ATOM     18  H   UNL     1       5.743  21.531  -1.917  0.00  0.00    +0.000 HD
ENDBRANCH  15  17
ENDBRANCH  14  15
ENDBRANCH   1  14
TORSDOF 7
ENDMDL
MODEL 7
REMARK VINA RESULT:    -3.750     12.497     15.417
REMARK INTER + INTRA:          -5.398
REMARK INTER:                  -4.922
REMARK INTRA:                  -0.475
REMARK UNBOUND:                -0.332
REMARK  Name = 
REMARK  10 active torsions:
REMARK  status: ('A' for Active; 'I' for Inactive)
REMARK    1  A    between atoms: C_1  and  C_2
REMARK    2  A    between atoms: C_5  and  N_8
REMARK    3  A    between atoms: N_8  and  C_9
REMARK    4  A    between atoms: N_8  and  C_13
REMARK    5  A    between atoms: C_9  and  C_10
REMARK    6  A    between atoms: C_10  and  C_11
REMARK    7  A    between atoms: C_10  and  O_12
REMARK    8  A    between atoms: C_13  and  C_14
REMARK    9  A    between atoms: C_14  and  C_15
REMARK   10  A    between atoms: C_14  and  O_16
REMARK                            x       y       z     vdW  Elec       q    Type
REMARK                         _______ _______ _______ _____ _____    ______ ____
ROOT
ATOM      1  N   UNL     1      15.558  17.856   4.217  0.00  0.00    +0.000 N 
ENDROOT
BRANCH   1   6
ATOM      2  C   UNL     1      16.505  12.163   4.354  0.00  0.00    +0.000 C 
ATOM      3  C   UNL     1      16.259  13.639   4.293  0.00  0.00    +0.000 A 
ATOM      4  C   UNL     1      17.318  14.539   4.248  0.00  0.00    +0.000 A 
ATOM      5  C   UNL     1      17.081  15.923   4.222  0.00  0.00    +0.000 A 
ATOM      6  C   UNL     1      15.788  16.475   4.263  0.00  0.00    +0.000 A 
ATOM      7  C   UNL     1      14.741  15.536   4.306  0.00  0.00    +0.000 A 
ATOM      8  C   UNL     1      14.964  14.149   4.330  0.00  0.00    +0.000 A 
ENDBRANCH   1   6
BRANCH   1   9
ATOM      9  C   UNL     1      14.335  18.385   3.568  0.00  0.00    +0.000 C 
BRANCH   9  10
ATOM     10  C   UNL     1      13.234  18.770   4.586  0.00  0.00    +0.000 C 
ATOM     11  C   UNL     1      12.757  20.200   4.357  0.00  0.00    +0.000 C 
BRANCH  10  12
ATOM     12  O   UNL     1      12.100  17.900   4.473  0.00  0.00    +0.000 OA
ATOM     13  H   UNL     1      11.555  18.210   3.731  0.00  0.00    +0.000 HD
ENDBRANCH  10  12
ENDBRANCH   9  10
ENDBRANCH   1   9
BRANCH   1  14
ATOM     14  C   UNL     1      16.679  18.825   4.321  0.00  0.00    +0.000 C 
BRANCH  14  15
ATOM     15  C   UNL     1      16.964  19.535   2.975  0.00  0.00    +0.000 C 
ATOM     16  C   UNL     1      17.743  20.835   3.136  0.00  0.00    +0.000 C 
BRANCH  15  17
ATOM     17  O   UNL     1      17.688  18.695   2.078  0.00  0.00    +0.000 OA
ATOM     18  H   UNL     1      17.054  18.483   1.363  0.00  0.00    +0.000 HD
ENDBRANCH  15  17
ENDBRANCH  14  15
ENDBRANCH   1  14
TORSDOF 7
ENDMDL
MODEL 8
REMARK VINA RESULT:    -3.685     16.987     18.916
REMARK INTER + INTRA:          -5.309
REMARK INTER:                  -4.840
REMARK INTRA:                  -0.469
REMARK UNBOUND:                -0.332
REMARK  Name = 
REMARK  10 active torsions:
REMARK  status: ('A' for Active; 'I' for Inactive)
REMARK    1  A    between atoms: C_1  and  C_2
REMARK    2  A    between atoms: C_5  and  N_8
REMARK    3  A    between atoms: N_8  and  C_9
REMARK    4  A    between atoms: N_8  and  C_13
REMARK    5  A    between atoms: C_9  and  C_10
REMARK    6  A    between atoms: C_10  and  C_11
REMARK    7  A    between atoms: C_10  and  O_12
REMARK    8  A    between atoms: C_13  and  C_14
REMARK    9  A    between atoms: C_14  and  C_15
REMARK   10  A    between atoms: C_14  and  O_16
REMARK                            x       y       z     vdW  Elec       q    Type
REMARK                         _______ _______ _______ _____ _____    ______ ____
ROOT
ATOM      1  N   UNL     1      19.088  17.127  -7.511  0.00  0.00    +0.000 N 
ENDROOT
BRANCH   1   6
ATOM      2  C   UNL     1      15.768  20.013 -11.250  0.00  0.00    +0.000 C 
ATOM      3  C   UNL     1      16.620  19.242 -10.289  0.00  0.00    +0.000 A 
ATOM      4  C   UNL     1      16.164  18.945  -9.009  0.00  0.00    +0.000 A 
ATOM      5  C   UNL     1      16.979  18.249  -8.101  0.00  0.00    +0.000 A 
ATOM      6  C   UNL     1      18.287  17.838  -8.414  0.00  0.00    +0.000 A 
ATOM      7  C   UNL     1      18.715  18.153  -9.717  0.00  0.00    +0.000 A 
ATOM      8  C   UNL     1      17.909  18.847 -10.635  0.00  0.00    +0.000 A 
ENDBRANCH   1   6
BRANCH   1   9
ATOM      9  C   UNL     1      20.442  17.623  -7.168  0.00  0.00    +0.000 C 
BRANCH   9  10
ATOM     10  C   UNL     1      20.436  18.602  -5.968  0.00  0.00    +0.000 C 
ATOM     11  C   UNL     1      20.391  20.049  -6.445  0.00  0.00    +0.000 C 
BRANCH  10  12
ATOM     12  O   UNL     1      19.298  18.376  -5.125  0.00  0.00    +0.000 OA
ATOM     13  H   UNL     1      18.863  17.558  -5.418  0.00  0.00    +0.000 HD
ENDBRANCH  10  12
ENDBRANCH   9  10
ENDBRANCH   1   9
BRANCH   1  14
ATOM     14  C   UNL     1      18.875  15.676  -7.273  0.00  0.00    +0.000 C 
BRANCH  14  15
ATOM     15  C   UNL     1      19.207  14.824  -8.521  0.00  0.00    +0.000 C 
ATOM     16  C   UNL     1      20.688  14.480  -8.636  0.00  0.00    +0.000 C 
BRANCH  15  17
ATOM     17  O   UNL     1      18.468  13.604  -8.539  0.00  0.00    +0.000 OA
ATOM     18  H   UNL     1      18.176  13.499  -9.467  0.00  0.00    +0.000 HD
ENDBRANCH  15  17
ENDBRANCH  14  15
ENDBRANCH   1  14
TORSDOF 7
ENDMDL
MODEL 9
REMARK VINA RESULT:    -3.203      2.048      4.150
REMARK INTER + INTRA:          -4.658
REMARK INTER:                  -4.105
REMARK INTRA:                  -0.553
REMARK UNBOUND:                -0.332
REMARK  Name = 
REMARK  10 active torsions:
REMARK  status: ('A' for Active; 'I' for Inactive)
REMARK    1  A    between atoms: C_1  and  C_2
REMARK    2  A    between atoms: C_5  and  N_8
REMARK    3  A    between atoms: N_8  and  C_9
REMARK    4  A    between atoms: N_8  and  C_13
REMARK    5  A    between atoms: C_9  and  C_10
REMARK    6  A    between atoms: C_10  and  C_11
REMARK    7  A    between atoms: C_10  and  O_12
REMARK    8  A    between atoms: C_13  and  C_14
REMARK    9  A    between atoms: C_14  and  C_15
REMARK   10  A    between atoms: C_14  and  O_16
REMARK                            x       y       z     vdW  Elec       q    Type
REMARK                         _______ _______ _______ _____ _____    ______ ____
ROOT
ATOM      1  N   UNL     1       1.407  20.275   0.450  0.00  0.00    +0.000 N 
ENDROOT
BRANCH   1   6
ATOM      2  C   UNL     1       2.247  18.332  -4.921  0.00  0.00    +0.000 C 
ATOM      3  C   UNL     1       2.053  18.843  -3.526  0.00  0.00    +0.000 A 
ATOM      4  C   UNL     1       2.192  17.998  -2.430  0.00  0.00    +0.000 A 
ATOM      5  C   UNL     1       1.979  18.475  -1.127  0.00  0.00    +0.000 A 
ATOM      6  C   UNL     1       1.598  19.801  -0.854  0.00  0.00    +0.000 A 
ATOM      7  C   UNL     1       1.469  20.627  -1.986  0.00  0.00    +0.000 A 
ATOM      8  C   UNL     1       1.681  20.164  -3.294  0.00  0.00    +0.000 A 
ENDBRANCH   1   6
BRANCH   1   9
ATOM      9  C   UNL     1       2.370  21.234   1.041  0.00  0.00    +0.000 C 
BRANCH   9  10
ATOM     10  C   UNL     1       3.823  20.698   1.048  0.00  0.00    +0.000 C 
ATOM     11  C   UNL     1       4.650  21.350  -0.053  0.00  0.00    +0.000 C 
BRANCH  10  12
ATOM     12  O   UNL     1       4.464  20.966   2.303  0.00  0.00    +0.000 OA
ATOM     13  H   UNL     1       3.775  21.045   2.983  0.00  0.00    +0.000 HD
ENDBRANCH  10  12
ENDBRANCH   9  10
ENDBRANCH   1   9
BRANCH   1  14
ATOM     14  C   UNL     1       0.604  19.508   1.437  0.00  0.00    +0.000 C 
BRANCH  14  15
ATOM     15  C   UNL     1      -0.916  19.621   1.168  0.00  0.00    +0.000 C 
ATOM     16  C   UNL     1      -1.346  21.017   0.733  0.00  0.00    +0.000 C 
BRANCH  15  17
ATOM     17  O   UNL     1      -1.345  18.695   0.171  0.00  0.00    +0.000 OA
ATOM     18  H   UNL     1      -2.147  19.098  -0.220  0.00  0.00    +0.000 HD
ENDBRANCH  15  17
ENDBRANCH  14  15
ENDBRANCH   1  14
TORSDOF 7
ENDMDL
