MODEL 1
REMARK VINA RESULT:    -3.852      0.000      0.000
REMARK INTER + INTRA:          -4.240
REMARK INTER:                  -4.190
REMARK INTRA:                  -0.050
REMARK UNBOUND:                -0.050
REMARK  Name = 
REMARK  3 active torsions:
REMARK  status: ('A' for Active; 'I' for Inactive)
REMARK    1  A    between atoms: C_1  and  O_2
REMARK    2  A    between atoms: O_2  and  C_3
REMARK    3  A    between atoms: C_8  and  O_9
REMARK                            x       y       z     vdW  Elec       q    Type
REMARK                         _______ _______ _______ _____ _____    ______ ____
ROOT
ATOM      1  C   UNL     1      10.474  -7.687   3.506  0.00  0.00    +0.000 A 
ATOM      2  C   UNL     1      10.534  -7.329   2.160  0.00  0.00    +0.000 A 
ATOM      3  C   UNL     1      11.749  -6.915   1.599  0.00  0.00    +0.000 A 
ATOM      4  C   UNL     1      12.905  -6.855   2.380  0.00  0.00    +0.000 A 
ATOM      5  C   UNL     1      12.853  -7.212   3.726  0.00  0.00    +0.000 A 
ATOM      6  C   UNL     1      11.644  -7.621   4.273  0.00  0.00    +0.000 A 
ENDROOT
BRANCH   1   8
ATOM      7  C   UNL     1       8.367  -7.123   4.449  0.00  0.00    +0.000 C 
ATOM      8  O   UNL     1       9.359  -8.108   4.185  0.00  0.00    +0.000 OA
ENDBRANCH   1   8
BRANCH   6   9
ATOM      9  O   UNL     1      11.618  -7.966   5.598  0.00  0.00    +0.000 OA
ATOM     10  H   UNL     1      11.298  -7.166   6.057  0.00  0.00    +0.000 HD
ENDBRANCH   6   9
TORSDOF 2
ENDMDL
MODEL 2
REMARK VINA RESULT:    -3.839      1.920      2.834
REMARK INTER + INTRA:          -4.226
REMARK INTER:                  -4.211
REMARK INTRA:                  -0.015
REMARK UNBOUND:                -0.050
REMARK  Name = 
REMARK  3 active torsions:
REMARK  status: ('A' for Active; 'I' for Inactive)
REMARK    1  A    between atoms: C_1  and  O_2
REMARK    2  A    between atoms: O_2  and  C_3
REMARK    3  A    between atoms: C_8  and  O_9
REMARK                            x       y       z     vdW  Elec       q    Type
REMARK                         _______ _______ _______ _____ _____    ______ ____
ROOT
ATOM      1  C   UNL     1       9.270  -7.394   2.374  0.00  0.00    +0.000 A 
ATOM      2  C   UNL     1      10.600  -7.640   2.035  0.00  0.00    +0.000 A 
ATOM      3  C   UNL     1      11.580  -7.682   3.035  0.00  0.00    +0.000 A 
ATOM      4  C   UNL     1      11.235  -7.478   4.373  0.00  0.00    +0.000 A 
ATOM      5  C   UNL     1       9.909  -7.232   4.719  0.00  0.00    +0.000 A 
ATOM      6  C   UNL     1       8.943  -7.192   3.720  0.00  0.00    +0.000 A 
ENDROOT
BRANCH   1   8
ATOM      7  C   UNL     1       7.647  -8.564   1.091  0.00  0.00    +0.000 C 
ATOM      8  O   UNL     1       8.211  -7.325   1.504  0.00  0.00    +0.000 OA
ENDBRANCH   1   8
BRANCH   6   9
ATOM      9  O   UNL     1       7.646  -6.949   4.085  0.00  0.00    +0.000 OA
ATOM     10  H   UNL     1       7.493  -7.524   4.859  0.00  0.00    +0.000 HD
ENDBRANCH   6   9
TORSDOF 2
ENDMDL
MODEL 3
REMARK VINA RESULT:    -3.773      1.581      3.132
REMARK INTER + INTRA:          -4.154
REMARK INTER:                  -4.106
REMARK INTRA:                  -0.048
REMARK UNBOUND:                -0.050
REMARK  Name = 
REMARK  3 active torsions:
REMARK  status: ('A' for Active; 'I' for Inactive)
REMARK    1  A    between atoms: C_1  and  O_2
REMARK    2  A    between atoms: O_2  and  C_3
REMARK    3  A    between atoms: C_8  and  O_9
REMARK                            x       y       z     vdW  Elec       q    Type
REMARK                         _______ _______ _______ _____ _____    ______ ____
ROOT
ATOM      1  C   UNL     1      10.159  -7.721   3.869  0.00  0.00    +0.000 A 
ATOM      2  C   UNL     1      10.762  -8.372   2.794  0.00  0.00    +0.000 A 
ATOM      3  C   UNL     1      10.084  -8.480   1.573  0.00  0.00    +0.000 A 
ATOM      4  C   UNL     1       8.805  -7.940   1.423  0.00  0.00    +0.000 A 
ATOM      5  C   UNL     1       8.197  -7.288   2.493  0.00  0.00    +0.000 A 
ATOM      6  C   UNL     1       8.876  -7.186   3.700  0.00  0.00    +0.000 A 
ENDROOT
BRANCH   1   8
ATOM      7  C   UNL     1      12.029  -7.031   5.164  0.00  0.00    +0.000 C 
ATOM      8  O   UNL     1      10.702  -7.542   5.116  0.00  0.00    +0.000 OA
ENDBRANCH   1   8
BRANCH   6   9
ATOM      9  O   UNL     1       8.258  -6.540   4.738  0.00  0.00    +0.000 OA
ATOM     10  H   UNL     1       7.588  -5.971   4.312  0.00  0.00    +0.000 HD
ENDBRANCH   6   9
TORSDOF 2
ENDMDL
MODEL 4
REMARK VINA RESULT:    -3.711      2.115      2.891
REMARK INTER + INTRA:          -4.086
REMARK INTER:                  -4.040
REMARK INTRA:                  -0.046
REMARK UNBOUND:                -0.050
REMARK  Name = 
REMARK  3 active torsions:
REMARK  status: ('A' for Active; 'I' for Inactive)
REMARK    1  A    between atoms: C_1  and  O_2
REMARK    2  A    between atoms: O_2  and  C_3
REMARK    3  A    between atoms: C_8  and  O_9
REMARK                            x       y       z     vdW  Elec       q    Type
REMARK                         _______ _______ _______ _____ _____    ______ ____
ROOT
ATOM      1  C   UNL     1      10.814  -7.708   1.952  0.00  0.00    +0.000 A 
ATOM      2  C   UNL     1      11.274  -7.419   3.236  0.00  0.00    +0.000 A 
ATOM      3  C   UNL     1      12.629  -7.132   3.446  0.00  0.00    +0.000 A 
ATOM      4  C   UNL     1      13.526  -7.134   2.376  0.00  0.00    +0.000 A 
ATOM      5  C   UNL     1      13.074  -7.422   1.090  0.00  0.00    +0.000 A 
ATOM      6  C   UNL     1      11.728  -7.705   0.892  0.00  0.00    +0.000 A 
ENDROOT
BRANCH   1   8
ATOM      7  C   UNL     1       8.506  -7.179   2.157  0.00  0.00    +0.000 C 
ATOM      8  O   UNL     1       9.521  -8.006   1.602  0.00  0.00    +0.000 OA
ENDBRANCH   1   8
BRANCH   6   9
ATOM      9  O   UNL     1      11.307  -7.985  -0.381  0.00  0.00    +0.000 OA
ATOM     10  H   UNL     1      11.931  -7.505  -0.959  0.00  0.00    +0.000 HD
ENDBRANCH   6   9
TORSDOF 2
ENDMDL
MODEL 5
REMARK VINA RESULT:    -3.673      2.923      4.640
REMARK INTER + INTRA:          -4.046
REMARK INTER:                  -3.996
REMARK INTRA:                  -0.049
REMARK UNBOUND:                -0.050
REMARK  Name = 
REMARK  3 active torsions:
REMARK  status: ('A' for Active; 'I' for Inactive)
REMARK    1  A    between atoms: C_1  and  O_2
REMARK    2  A    between atoms: O_2  and  C_3
REMARK    3  A    between atoms: C_8  and  O_9
REMARK                            x       y       z     vdW  Elec       q    Type
REMARK                         _______ _______ _______ _____ _____    ______ ____
ROOT
ATOM      1  C   UNL     1      14.160  -7.667   2.137  0.00  0.00    +0.000 A 
ATOM      2  C   UNL     1      14.728  -8.443   3.146  0.00  0.00    +0.000 A 
ATOM      3  C   UNL     1      14.164  -8.445   4.428  0.00  0.00    +0.000 A 
ATOM      4  C   UNL     1      13.034  -7.674   4.706  0.00  0.00    +0.000 A 
ATOM      5  C   UNL     1      12.461  -6.896   3.703  0.00  0.00    +0.000 A 
ATOM      6  C   UNL     1      13.027  -6.899   2.434  0.00  0.00    +0.000 A 
ENDROOT
BRANCH   1   8
ATOM      7  C   UNL     1      15.814  -6.847   0.640  0.00  0.00    +0.000 C 
ATOM      8  O   UNL     1      14.604  -7.568   0.843  0.00  0.00    +0.000 OA
ENDBRANCH   1   8
BRANCH   6   9
ATOM      9  O   UNL     1      12.445  -6.127   1.465  0.00  0.00    +0.000 OA
ATOM     10  H   UNL     1      12.775  -6.495   0.623  0.00  0.00    +0.000 HD
ENDBRANCH   6   9
TORSDOF 2
ENDMDL
MODEL 6
REMARK VINA RESULT:    -3.646      1.342      2.090
REMARK INTER + INTRA:          -4.016
REMARK INTER:                  -3.964
REMARK INTRA:                  -0.052
REMARK UNBOUND:                -0.050
REMARK  Name = 
REMARK  3 active torsions:
REMARK  status: ('A' for Active; 'I' for Inactive)
REMARK    1  A    between atoms: C_1  and  O_2
REMARK    2  A    between atoms: O_2  and  C_3
REMARK    3  A    between atoms: C_8  and  O_9
REMARK                            x       y       z     vdW  Elec       q    Type
REMARK                         _______ _______ _______ _____ _____    ______ ____
ROOT
ATOM      1  C   UNL     1      10.821  -7.358   2.948  0.00  0.00    +0.000 A 
ATOM      2  C   UNL     1      12.102  -7.339   2.398  0.00  0.00    +0.000 A 
ATOM      3  C   UNL     1      13.224  -7.419   3.234  0.00  0.00    +0.000 A 
ATOM      4  C   UNL     1      13.069  -7.518   4.618  0.00  0.00    +0.000 A 
ATOM      5  C   UNL     1      11.792  -7.539   5.174  0.00  0.00    +0.000 A 
ATOM      6  C   UNL     1      10.686  -7.458   4.338  0.00  0.00    +0.000 A 
ENDROOT
BRANCH   1   8
ATOM      7  C   UNL     1       9.299  -8.418   1.462  0.00  0.00    +0.000 C 
ATOM      8  O   UNL     1       9.640  -7.286   2.254  0.00  0.00    +0.000 OA
ENDBRANCH   1   8
BRANCH   6   9
ATOM      9  O   UNL     1       9.441  -7.480   4.908  0.00  0.00    +0.000 OA
ATOM     10  H   UNL     1       9.600  -7.316   5.858  0.00  0.00    +0.000 HD
ENDBRANCH   6   9
TORSDOF 2
ENDMDL
MODEL 7
REMARK VINA RESULT:    -3.634      1.239      3.118
REMARK INTER + INTRA:          -4.003
REMARK INTER:                  -3.957
REMARK INTRA:                  -0.046
REMARK UNBOUND:                -0.050
REMARK  Name = 
REMARK  3 active torsions:
REMARK  status: ('A' for Active; 'I' for Inactive)
REMARK    1  A    between atoms: C_1  and  O_2
REMARK    2  A    between atoms: O_2  and  C_3
REMARK    3  A    between atoms: C_8  and  O_9
REMARK                            x       y       z     vdW  Elec       q    Type
REMARK                         _______ _______ _______ _____ _____    ______ ____
ROOT
ATOM      1  C   UNL     1      11.017  -7.540   3.179  0.00  0.00    +0.000 A 
ATOM      2  C   UNL     1      10.093  -7.352   2.152  0.00  0.00    +0.000 A 
ATOM      3  C   UNL     1       8.729  -7.235   2.451  0.00  0.00    +0.000 A 
ATOM      4  C   UNL     1       8.286  -7.306   3.773  0.00  0.00    +0.000 A 
ATOM      5  C   UNL     1       9.204  -7.493   4.804  0.00  0.00    +0.000 A 
ATOM      6  C   UNL     1      10.554  -7.608   4.498  0.00  0.00    +0.000 A 
ENDROOT
BRANCH   1   8
ATOM      7  C   UNL     1      13.011  -6.750   2.154  0.00  0.00    +0.000 C 
ATOM      8  O   UNL     1      12.375  -7.670   3.033  0.00  0.00    +0.000 OA
ENDBRANCH   1   8
BRANCH   6   9
ATOM      9  O   UNL     1      11.437  -7.792   5.529  0.00  0.00    +0.000 OA
ATOM     10  H   UNL     1      12.294  -7.480   5.180  0.00  0.00    +0.000 HD
ENDBRANCH   6   9
TORSDOF 2
ENDMDL
MODEL 8
REMARK VINA RESULT:    -3.630      2.492      3.607
REMARK INTER + INTRA:          -3.998
REMARK INTER:                  -3.947
REMARK INTRA:                  -0.051
REMARK UNBOUND:                -0.050
REMARK  Name = 
REMARK  3 active torsions:
REMARK  status: ('A' for Active; 'I' for Inactive)
REMARK    1  A    between atoms: C_1  and  O_2
REMARK    2  A    between atoms: O_2  and  C_3
REMARK    3  A    between atoms: C_8  and  O_9
REMARK                            x       y       z     vdW  Elec       q    Type
REMARK                         _______ _______ _______ _____ _____    ______ ____
ROOT
ATOM      1  C   UNL     1      12.092  -7.212   1.390  0.00  0.00    +0.000 A 
ATOM      2  C   UNL     1      13.303  -6.706   1.861  0.00  0.00    +0.000 A 
ATOM      3  C   UNL     1      14.498  -7.026   1.203  0.00  0.00    +0.000 A 
ATOM      4  C   UNL     1      14.487  -7.851   0.077  0.00  0.00    +0.000 A 
ATOM      5  C   UNL     1      13.281  -8.360  -0.399  0.00  0.00    +0.000 A 
ATOM      6  C   UNL     1      12.101  -8.038   0.259  0.00  0.00    +0.000 A 
ENDROOT
BRANCH   1   8
ATOM      7  C   UNL     1      10.585  -7.600   3.186  0.00  0.00    +0.000 C 
ATOM      8  O   UNL     1      10.853  -6.984   1.932  0.00  0.00    +0.000 OA
ENDBRANCH   1   8
BRANCH   6   9
ATOM      9  O   UNL     1      10.928  -8.550  -0.227  0.00  0.00    +0.000 OA
ATOM     10  H   UNL     1      11.185  -9.035  -1.035  0.00  0.00    +0.000 HD
ENDBRANCH   6   9
TORSDOF 2
ENDMDL
MODEL 9
REMARK VINA RESULT:    -3.557      5.493      6.606
REMARK INTER + INTRA:          -3.919
REMARK INTER:                  -3.880
REMARK INTRA:                  -0.039
REMARK UNBOUND:                -0.050
REMARK  Name = 
REMARK  3 active torsions:
REMARK  status: ('A' for Active; 'I' for Inactive)
REMARK    1  A    between atoms: C_1  and  O_2
REMARK    2  A    between atoms: O_2  and  C_3
REMARK    3  A    between atoms: C_8  and  O_9
REMARK                            x       y       z     vdW  Elec       q    Type
REMARK                         _______ _______ _______ _____ _____    ______ ____
ROOT
ATOM      1  C   UNL     1      14.437  -8.237  -0.998  0.00  0.00    +0.000 A 
ATOM      2  C   UNL     1      15.299  -7.407  -0.283  0.00  0.00    +0.000 A 
ATOM      3  C   UNL     1      16.544  -7.060  -0.822  0.00  0.00    +0.000 A 
ATOM      4  C   UNL     1      16.932  -7.540  -2.074  0.00  0.00    +0.000 A 
ATOM      5  C   UNL     1      16.076  -8.369  -2.795  0.00  0.00    +0.000 A 
ATOM      6  C   UNL     1      14.843  -8.709  -2.253  0.00  0.00    +0.000 A 
ENDROOT
BRANCH   1   8
ATOM      7  C   UNL     1      12.560  -7.883   0.415  0.00  0.00    +0.000 C 
ATOM      8  O   UNL     1      13.195  -8.658  -0.595  0.00  0.00    +0.000 OA
ENDBRANCH   1   8
BRANCH   6   9
ATOM      9  O   UNL     1      14.019  -9.525  -2.981  0.00  0.00    +0.000 OA
ATOM     10  H   UNL     1      14.273 -10.431  -2.719  0.00  0.00    +0.000 HD
ENDBRANCH   6   9
TORSDOF 2
ENDMDL
