MODEL 1
REMARK VINA RESULT:    -3.913      0.000      0.000
REMARK INTER + INTRA:          -4.278
REMARK INTER:                  -4.256
REMARK INTRA:                  -0.023
REMARK UNBOUND:                -0.023
REMARK  Name = 
REMARK  3 active torsions:
REMARK  status: ('A' for Active; 'I' for Inactive)
REMARK    1  A    between atoms: C_1  and  O_2
REMARK    2  A    between atoms: O_2  and  C_3
REMARK    3  A    between atoms: C_8  and  O_9
REMARK                            x       y       z     vdW  Elec       q    Type
REMARK                         _______ _______ _______ _____ _____    ______ ____
ROOT
ATOM      1  C   UNL     1       9.175  -7.325   2.359  0.00  0.00    +0.000 A 
ATOM      2  C   UNL     1      10.505  -7.552   2.008  0.00  0.00    +0.000 A 
ATOM      3  C   UNL     1      11.487  -7.639   3.003  0.00  0.00    +0.000 A 
ATOM      4  C   UNL     1      11.144  -7.499   4.349  0.00  0.00    +0.000 A 
ATOM      5  C   UNL     1       9.818  -7.272   4.708  0.00  0.00    +0.000 A 
ATOM      6  C   UNL     1       8.851  -7.187   3.715  0.00  0.00    +0.000 A 
ENDROOT
BRANCH   1   8
ATOM      7  C   UNL     1       7.574  -8.436   1.000  0.00  0.00    +0.000 C 
ATOM      8  O   UNL     1       8.115  -7.217   1.496  0.00  0.00    +0.000 OA
ENDBRANCH   1   8
BRANCH   6   9
ATOM      9  O   UNL     1       7.553  -6.964   4.092  0.00  0.00    +0.000 OA
ATOM     10  H   UNL     1       7.617  -6.597   4.995  0.00  0.00    +0.000 HD
ENDBRANCH   6   9
TORSDOF 2
ENDMDL
MODEL 2
REMARK VINA RESULT:    -3.876      1.948      2.880
REMARK INTER + INTRA:          -4.239
REMARK INTER:                  -4.188
REMARK INTRA:                  -0.051
REMARK UNBOUND:                -0.023
REMARK  Name = 
REMARK  3 active torsions:
REMARK  status: ('A' for Active; 'I' for Inactive)
REMARK    1  A    between atoms: C_1  and  O_2
REMARK    2  A    between atoms: O_2  and  C_3
REMARK    3  A    between atoms: C_8  and  O_9
REMARK                            x       y       z     vdW  Elec       q    Type
REMARK                         _______ _______ _______ _____ _____    ______ ____
ROOT
ATOM      1  C   UNL     1      10.448  -7.686   3.508  0.00  0.00    +0.000 A 
ATOM      2  C   UNL     1      10.501  -7.301   2.169  0.00  0.00    +0.000 A 
ATOM      3  C   UNL     1      11.714  -6.877   1.611  0.00  0.00    +0.000 A 
ATOM      4  C   UNL     1      12.874  -6.835   2.387  0.00  0.00    +0.000 A 
ATOM      5  C   UNL     1      12.829  -7.218   3.725  0.00  0.00    +0.000 A 
ATOM      6  C   UNL     1      11.622  -7.637   4.271  0.00  0.00    +0.000 A 
ENDROOT
BRANCH   1   8
ATOM      7  C   UNL     1       8.335  -7.144   4.451  0.00  0.00    +0.000 C 
ATOM      8  O   UNL     1       9.335  -8.120   4.184  0.00  0.00    +0.000 OA
ENDBRANCH   1   8
BRANCH   6   9
ATOM      9  O   UNL     1      11.602  -8.009   5.588  0.00  0.00    +0.000 OA
ATOM     10  H   UNL     1      10.860  -8.640   5.657  0.00  0.00    +0.000 HD
ENDBRANCH   6   9
TORSDOF 2
ENDMDL
MODEL 3
REMARK VINA RESULT:    -3.840      1.460      3.173
REMARK INTER + INTRA:          -4.200
REMARK INTER:                  -4.155
REMARK INTRA:                  -0.045
REMARK UNBOUND:                -0.023
REMARK  Name = 
REMARK  3 active torsions:
REMARK  status: ('A' for Active; 'I' for Inactive)
REMARK    1  A    between atoms: C_1  and  O_2
REMARK    2  A    between atoms: O_2  and  C_3
REMARK    3  A    between atoms: C_8  and  O_9
REMARK                            x       y       z     vdW  Elec       q    Type
REMARK                         _______ _______ _______ _____ _____    ______ ____
ROOT
ATOM      1  C   UNL     1      10.192  -7.639   3.807  0.00  0.00    +0.000 A 
ATOM      2  C   UNL     1      10.837  -8.221   2.717  0.00  0.00    +0.000 A 
ATOM      3  C   UNL     1      10.166  -8.350   1.494  0.00  0.00    +0.000 A 
ATOM      4  C   UNL     1       8.852  -7.899   1.357  0.00  0.00    +0.000 A 
ATOM      5  C   UNL     1       8.201  -7.316   2.442  0.00  0.00    +0.000 A 
ATOM      6  C   UNL     1       8.874  -7.193   3.651  0.00  0.00    +0.000 A 
ENDROOT
BRANCH   1   8
ATOM      7  C   UNL     1      12.069  -6.992   5.113  0.00  0.00    +0.000 C 
ATOM      8  O   UNL     1      10.723  -7.450   5.058  0.00  0.00    +0.000 OA
ENDBRANCH   1   8
BRANCH   6   9
ATOM      9  O   UNL     1       8.213  -6.616   4.703  0.00  0.00    +0.000 OA
ATOM     10  H   UNL     1       8.249  -7.283   5.414  0.00  0.00    +0.000 HD
ENDBRANCH   6   9
TORSDOF 2
ENDMDL
MODEL 4
REMARK VINA RESULT:    -3.774      2.843      3.922
REMARK INTER + INTRA:          -4.128
REMARK INTER:                  -4.087
REMARK INTRA:                  -0.041
REMARK UNBOUND:                -0.023
REMARK  Name = 
REMARK  3 active torsions:
REMARK  status: ('A' for Active; 'I' for Inactive)
REMARK    1  A    between atoms: C_1  and  O_2
REMARK    2  A    between atoms: O_2  and  C_3
REMARK    3  A    between atoms: C_8  and  O_9
REMARK                            x       y       z     vdW  Elec       q    Type
REMARK                         _______ _______ _______ _____ _____    ______ ____
ROOT
ATOM      1  C   UNL     1      12.219  -7.891   0.421  0.00  0.00    +0.000 A 
ATOM      2  C   UNL     1      13.139  -7.152   1.164  0.00  0.00    +0.000 A 
ATOM      3  C   UNL     1      12.871  -6.847   2.504  0.00  0.00    +0.000 A 
ATOM      4  C   UNL     1      11.687  -7.276   3.106  0.00  0.00    +0.000 A 
ATOM      5  C   UNL     1      10.763  -8.016   2.370  0.00  0.00    +0.000 A 
ATOM      6  C   UNL     1      11.037  -8.314   1.042  0.00  0.00    +0.000 A 
ENDROOT
BRANCH   1   8
ATOM      7  C   UNL     1      13.674  -8.462  -1.369  0.00  0.00    +0.000 C 
ATOM      8  O   UNL     1      12.348  -8.261  -0.893  0.00  0.00    +0.000 OA
ENDBRANCH   1   8
BRANCH   6   9
ATOM      9  O   UNL     1      10.114  -9.042   0.339  0.00  0.00    +0.000 OA
ATOM     10  H   UNL     1      10.643  -9.648  -0.214  0.00  0.00    +0.000 HD
ENDBRANCH   6   9
TORSDOF 2
ENDMDL
MODEL 5
REMARK VINA RESULT:    -3.760      1.957      3.334
REMARK INTER + INTRA:          -4.112
REMARK INTER:                  -4.065
REMARK INTRA:                  -0.047
REMARK UNBOUND:                -0.023
REMARK  Name = 
REMARK  3 active torsions:
REMARK  status: ('A' for Active; 'I' for Inactive)
REMARK    1  A    between atoms: C_1  and  O_2
REMARK    2  A    between atoms: O_2  and  C_3
REMARK    3  A    between atoms: C_8  and  O_9
REMARK                            x       y       z     vdW  Elec       q    Type
REMARK                         _______ _______ _______ _____ _____    ______ ____
ROOT
ATOM      1  C   UNL     1      10.781  -7.704   1.823  0.00  0.00    +0.000 A 
ATOM      2  C   UNL     1      11.227  -7.363   3.099  0.00  0.00    +0.000 A 
ATOM      3  C   UNL     1      12.573  -7.036   3.306  0.00  0.00    +0.000 A 
ATOM      4  C   UNL     1      13.476  -7.049   2.241  0.00  0.00    +0.000 A 
ATOM      5  C   UNL     1      13.038  -7.388   0.963  0.00  0.00    +0.000 A 
ATOM      6  C   UNL     1      11.701  -7.711   0.767  0.00  0.00    +0.000 A 
ENDROOT
BRANCH   1   8
ATOM      7  C   UNL     1       8.462  -7.205   1.971  0.00  0.00    +0.000 C 
ATOM      8  O   UNL     1       9.498  -8.045   1.476  0.00  0.00    +0.000 OA
ENDBRANCH   1   8
BRANCH   6   9
ATOM      9  O   UNL     1      11.294  -8.041  -0.498  0.00  0.00    +0.000 OA
ATOM     10  H   UNL     1      11.969  -7.652  -1.086  0.00  0.00    +0.000 HD
ENDBRANCH   6   9
TORSDOF 2
ENDMDL
MODEL 6
REMARK VINA RESULT:    -3.661      1.751      3.121
REMARK INTER + INTRA:          -4.005
REMARK INTER:                  -3.952
REMARK INTRA:                  -0.053
REMARK UNBOUND:                -0.023
REMARK  Name = 
REMARK  3 active torsions:
REMARK  status: ('A' for Active; 'I' for Inactive)
REMARK    1  A    between atoms: C_1  and  O_2
REMARK    2  A    between atoms: O_2  and  C_3
REMARK    3  A    between atoms: C_8  and  O_9
REMARK                            x       y       z     vdW  Elec       q    Type
REMARK                         _______ _______ _______ _____ _____    ______ ____
ROOT
ATOM      1  C   UNL     1      10.500  -7.996   2.584  0.00  0.00    +0.000 A 
ATOM      2  C   UNL     1      11.495  -7.243   3.206  0.00  0.00    +0.000 A 
ATOM      3  C   UNL     1      12.651  -6.890   2.498  0.00  0.00    +0.000 A 
ATOM      4  C   UNL     1      12.816  -7.286   1.170  0.00  0.00    +0.000 A 
ATOM      5  C   UNL     1      11.826  -8.038   0.541  0.00  0.00    +0.000 A 
ATOM      6  C   UNL     1      10.683  -8.384   1.251  0.00  0.00    +0.000 A 
ENDROOT
BRANCH   1   8
ATOM      7  C   UNL     1       8.376  -7.398   3.466  0.00  0.00    +0.000 C 
ATOM      8  O   UNL     1       9.323  -8.412   3.152  0.00  0.00    +0.000 OA
ENDBRANCH   1   8
BRANCH   6   9
ATOM      9  O   UNL     1       9.724  -9.124   0.612  0.00  0.00    +0.000 OA
ATOM     10  H   UNL     1      10.106  -9.321  -0.265  0.00  0.00    +0.000 HD
ENDBRANCH   6   9
TORSDOF 2
ENDMDL
MODEL 7
REMARK VINA RESULT:    -3.642      3.800      4.969
REMARK INTER + INTRA:          -3.984
REMARK INTER:                  -3.946
REMARK INTRA:                  -0.038
REMARK UNBOUND:                -0.023
REMARK  Name = 
REMARK  3 active torsions:
REMARK  status: ('A' for Active; 'I' for Inactive)
REMARK    1  A    between atoms: C_1  and  O_2
REMARK    2  A    between atoms: O_2  and  C_3
REMARK    3  A    between atoms: C_8  and  O_9
REMARK                            x       y       z     vdW  Elec       q    Type
REMARK                         _______ _______ _______ _____ _____    ______ ____
ROOT
ATOM      1  C   UNL     1      14.146  -7.566   1.971  0.00  0.00    +0.000 A 
ATOM      2  C   UNL     1      14.777  -8.388   2.904  0.00  0.00    +0.000 A 
ATOM      3  C   UNL     1      14.271  -8.486   4.206  0.00  0.00    +0.000 A 
ATOM      4  C   UNL     1      13.135  -7.765   4.580  0.00  0.00    +0.000 A 
ATOM      5  C   UNL     1      12.499  -6.942   3.654  0.00  0.00    +0.000 A 
ATOM      6  C   UNL     1      13.008  -6.850   2.365  0.00  0.00    +0.000 A 
ENDROOT
BRANCH   1   8
ATOM      7  C   UNL     1      15.474  -8.298   0.142  0.00  0.00    +0.000 C 
ATOM      8  O   UNL     1      14.530  -7.374   0.668  0.00  0.00    +0.000 OA
ENDBRANCH   1   8
BRANCH   6   9
ATOM      9  O   UNL     1      12.366  -6.035   1.472  0.00  0.00    +0.000 OA
ATOM     10  H   UNL     1      11.780  -5.479   2.020  0.00  0.00    +0.000 HD
ENDBRANCH   6   9
TORSDOF 2
ENDMDL
MODEL 8
REMARK VINA RESULT:    -3.641      2.234      3.301
REMARK INTER + INTRA:          -3.983
REMARK INTER:                  -3.936
REMARK INTRA:                  -0.047
REMARK UNBOUND:                -0.023
REMARK  Name = 
REMARK  3 active torsions:
REMARK  status: ('A' for Active; 'I' for Inactive)
REMARK    1  A    between atoms: C_1  and  O_2
REMARK    2  A    between atoms: O_2  and  C_3
REMARK    3  A    between atoms: C_8  and  O_9
REMARK                            x       y       z     vdW  Elec       q    Type
REMARK                         _______ _______ _______ _____ _____    ______ ____
ROOT
ATOM      1  C   UNL     1      11.045  -7.573   3.189  0.00  0.00    +0.000 A 
ATOM      2  C   UNL     1      10.188  -7.382   2.106  0.00  0.00    +0.000 A 
ATOM      3  C   UNL     1       8.820  -7.178   2.324  0.00  0.00    +0.000 A 
ATOM      4  C   UNL     1       8.304  -7.164   3.622  0.00  0.00    +0.000 A 
ATOM      5  C   UNL     1       9.154  -7.353   4.709  0.00  0.00    +0.000 A 
ATOM      6  C   UNL     1      10.510  -7.555   4.483  0.00  0.00    +0.000 A 
ENDROOT
BRANCH   1   8
ATOM      7  C   UNL     1      13.138  -6.907   2.282  0.00  0.00    +0.000 C 
ATOM      8  O   UNL     1      12.399  -7.783   3.124  0.00  0.00    +0.000 OA
ENDBRANCH   1   8
BRANCH   6   9
ATOM      9  O   UNL     1      11.326  -7.739   5.567  0.00  0.00    +0.000 OA
ATOM     10  H   UNL     1      10.753  -8.152   6.242  0.00  0.00    +0.000 HD
ENDBRANCH   6   9
TORSDOF 2
ENDMDL
MODEL 9
REMARK VINA RESULT:    -3.617      6.710      8.116
REMARK INTER + INTRA:          -3.957
REMARK INTER:                  -3.916
REMARK INTRA:                  -0.041
REMARK UNBOUND:                -0.023
REMARK  Name = 
REMARK  3 active torsions:
REMARK  status: ('A' for Active; 'I' for Inactive)
REMARK    1  A    between atoms: C_1  and  O_2
REMARK    2  A    between atoms: O_2  and  C_3
REMARK    3  A    between atoms: C_8  and  O_9
REMARK                            x       y       z     vdW  Elec       q    Type
REMARK                         _______ _______ _______ _____ _____    ______ ____
ROOT
ATOM      1  C   UNL     1      14.933  -7.992  -1.404  0.00  0.00    +0.000 A 
ATOM      2  C   UNL     1      16.008  -7.237  -0.937  0.00  0.00    +0.000 A 
ATOM      3  C   UNL     1      17.243  -7.295  -1.595  0.00  0.00    +0.000 A 
ATOM      4  C   UNL     1      17.408  -8.106  -2.719  0.00  0.00    +0.000 A 
ATOM      5  C   UNL     1      16.339  -8.863  -3.193  0.00  0.00    +0.000 A 
ATOM      6  C   UNL     1      15.118  -8.800  -2.534  0.00  0.00    +0.000 A 
ENDROOT
BRANCH   1   8
ATOM      7  C   UNL     1      13.583  -7.849   0.546  0.00  0.00    +0.000 C 
ATOM      8  O   UNL     1      13.674  -8.034  -0.862  0.00  0.00    +0.000 OA
ENDBRANCH   1   8
BRANCH   6   9
ATOM      9  O   UNL     1      14.082  -9.553  -3.018  0.00  0.00    +0.000 OA
ATOM     10  H   UNL     1      13.876  -9.163  -3.888  0.00  0.00    +0.000 HD
ENDBRANCH   6   9
TORSDOF 2
ENDMDL
