MODEL 1
REMARK VINA RESULT:    -4.874      0.000      0.000
REMARK INTER + INTRA:          -5.344
REMARK INTER:                  -5.302
REMARK INTRA:                  -0.042
REMARK UNBOUND:                -0.042
REMARK  Name = 
REMARK  3 active torsions:
REMARK  status: ('A' for Active; 'I' for Inactive)
REMARK    1  A    between atoms: C_1  and  O_2
REMARK    2  A    between atoms: O_2  and  C_3
REMARK    3  A    between atoms: C_8  and  O_9
REMARK                            x       y       z     vdW  Elec       q    Type
REMARK                         _______ _______ _______ _____ _____    ______ ____
ROOT
ATOM      1  C   UNL     1       2.915  13.890  -1.483  0.00  0.00    +0.000 A 
ATOM      2  C   UNL     1       3.379  14.914  -2.306  0.00  0.00    +0.000 A 
ATOM      3  C   UNL     1       3.633  14.662  -3.660  0.00  0.00    +0.000 A 
ATOM      4  C   UNL     1       3.427  13.389  -4.195  0.00  0.00    +0.000 A 
ATOM      5  C   UNL     1       2.963  12.360  -3.378  0.00  0.00    +0.000 A 
ATOM      6  C   UNL     1       2.713  12.619  -2.036  0.00  0.00    +0.000 A 
ENDROOT
BRANCH   1   8
ATOM      7  C   UNL     1       3.430  14.889   0.611  0.00  0.00    +0.000 C 
ATOM      8  O   UNL     1       2.626  13.992  -0.145  0.00  0.00    +0.000 OA
ENDBRANCH   1   8
BRANCH   6   9
ATOM      9  O   UNL     1       2.258  11.592  -1.253  0.00  0.00    +0.000 OA
ATOM     10  H   UNL     1       1.802  12.030  -0.509  0.00  0.00    +0.000 HD
ENDBRANCH   6   9
TORSDOF 2
ENDMDL
MODEL 2
REMARK VINA RESULT:    -4.836      2.016      2.711
REMARK INTER + INTRA:          -5.302
REMARK INTER:                  -5.261
REMARK INTRA:                  -0.041
REMARK UNBOUND:                -0.042
REMARK  Name = 
REMARK  3 active torsions:
REMARK  status: ('A' for Active; 'I' for Inactive)
REMARK    1  A    between atoms: C_1  and  O_2
REMARK    2  A    between atoms: O_2  and  C_3
REMARK    3  A    between atoms: C_8  and  O_9
REMARK                            x       y       z     vdW  Elec       q    Type
REMARK                         _______ _______ _______ _____ _____    ______ ____
ROOT
ATOM      1  C   UNL     1       3.022  13.975  -2.450  0.00  0.00    +0.000 A 
ATOM      2  C   UNL     1       2.434  13.085  -1.552  0.00  0.00    +0.000 A 
ATOM      3  C   UNL     1       2.391  11.717  -1.849  0.00  0.00    +0.000 A 
ATOM      4  C   UNL     1       2.934  11.234  -3.041  0.00  0.00    +0.000 A 
ATOM      5  C   UNL     1       3.523  12.117  -3.943  0.00  0.00    +0.000 A 
ATOM      6  C   UNL     1       3.561  13.472  -3.640  0.00  0.00    +0.000 A 
ENDROOT
BRANCH   1   8
ATOM      7  C   UNL     1       2.112  15.968  -1.530  0.00  0.00    +0.000 C 
ATOM      8  O   UNL     1       3.133  15.333  -2.290  0.00  0.00    +0.000 OA
ENDBRANCH   1   8
BRANCH   6   9
ATOM      9  O   UNL     1       4.145  14.320  -4.543  0.00  0.00    +0.000 OA
ATOM     10  H   UNL     1       3.489  14.411  -5.260  0.00  0.00    +0.000 HD
ENDBRANCH   6   9
TORSDOF 2
ENDMDL
MODEL 3
REMARK VINA RESULT:    -4.800      2.118      3.563
REMARK INTER + INTRA:          -5.264
REMARK INTER:                  -5.216
REMARK INTRA:                  -0.047
REMARK UNBOUND:                -0.042
REMARK  Name = 
REMARK  3 active torsions:
REMARK  status: ('A' for Active; 'I' for Inactive)
REMARK    1  A    between atoms: C_1  and  O_2
REMARK    2  A    between atoms: O_2  and  C_3
REMARK    3  A    between atoms: C_8  and  O_9
REMARK                            x       y       z     vdW  Elec       q    Type
REMARK                         _______ _______ _______ _____ _____    ______ ____
ROOT
ATOM      1  C   UNL     1       2.474  13.192  -2.530  0.00  0.00    +0.000 A 
ATOM      2  C   UNL     1       3.028  13.410  -1.269  0.00  0.00    +0.000 A 
ATOM      3  C   UNL     1       2.344  14.191  -0.330  0.00  0.00    +0.000 A 
ATOM      4  C   UNL     1       1.107  14.756  -0.646  0.00  0.00    +0.000 A 
ATOM      5  C   UNL     1       0.546  14.542  -1.903  0.00  0.00    +0.000 A 
ATOM      6  C   UNL     1       1.233  13.766  -2.829  0.00  0.00    +0.000 A 
ENDROOT
BRANCH   1   8
ATOM      7  C   UNL     1       3.026  11.040  -3.375  0.00  0.00    +0.000 C 
ATOM      8  O   UNL     1       3.030  12.453  -3.543  0.00  0.00    +0.000 OA
ENDBRANCH   1   8
BRANCH   6   9
ATOM      9  O   UNL     1       0.662  13.570  -4.058  0.00  0.00    +0.000 OA
ATOM     10  H   UNL     1       0.449  12.618  -4.084  0.00  0.00    +0.000 HD
ENDBRANCH   6   9
TORSDOF 2
ENDMDL
MODEL 4
REMARK VINA RESULT:    -4.712      1.992      3.207
REMARK INTER + INTRA:          -5.168
REMARK INTER:                  -5.125
REMARK INTRA:                  -0.042
REMARK UNBOUND:                -0.042
REMARK  Name = 
REMARK  3 active torsions:
REMARK  status: ('A' for Active; 'I' for Inactive)
REMARK    1  A    between atoms: C_1  and  O_2
REMARK    2  A    between atoms: O_2  and  C_3
REMARK    3  A    between atoms: C_8  and  O_9
REMARK                            x       y       z     vdW  Elec       q    Type
REMARK                         _______ _______ _______ _____ _____    ______ ____
ROOT
ATOM      1  C   UNL     1       3.062  14.088  -3.417  0.00  0.00    +0.000 A 
ATOM      2  C   UNL     1       3.480  15.060  -2.510  0.00  0.00    +0.000 A 
ATOM      3  C   UNL     1       3.480  14.782  -1.137  0.00  0.00    +0.000 A 
ATOM      4  C   UNL     1       3.063  13.535  -0.668  0.00  0.00    +0.000 A 
ATOM      5  C   UNL     1       2.645  12.558  -1.568  0.00  0.00    +0.000 A 
ATOM      6  C   UNL     1       2.648  12.843  -2.928  0.00  0.00    +0.000 A 
ENDROOT
BRANCH   1   8
ATOM      7  C   UNL     1       1.947  15.012  -5.302  0.00  0.00    +0.000 C 
ATOM      8  O   UNL     1       3.009  14.221  -4.782  0.00  0.00    +0.000 OA
ENDBRANCH   1   8
BRANCH   6   9
ATOM      9  O   UNL     1       2.232  11.867  -3.794  0.00  0.00    +0.000 OA
ATOM     10  H   UNL     1       1.801  11.199  -3.227  0.00  0.00    +0.000 HD
ENDBRANCH   6   9
TORSDOF 2
ENDMDL
MODEL 5
REMARK VINA RESULT:    -4.638      2.156      3.708
REMARK INTER + INTRA:          -5.087
REMARK INTER:                  -5.045
REMARK INTRA:                  -0.042
REMARK UNBOUND:                -0.042
REMARK  Name = 
REMARK  3 active torsions:
REMARK  status: ('A' for Active; 'I' for Inactive)
REMARK    1  A    between atoms: C_1  and  O_2
REMARK    2  A    between atoms: O_2  and  C_3
REMARK    3  A    between atoms: C_8  and  O_9
REMARK                            x       y       z     vdW  Elec       q    Type
REMARK                         _______ _______ _______ _____ _____    ______ ____
ROOT
ATOM      1  C   UNL     1       2.568  13.854  -2.865  0.00  0.00    +0.000 A 
ATOM      2  C   UNL     1       1.214  13.591  -2.659  0.00  0.00    +0.000 A 
ATOM      3  C   UNL     1       0.432  14.485  -1.917  0.00  0.00    +0.000 A 
ATOM      4  C   UNL     1       0.999  15.642  -1.379  0.00  0.00    +0.000 A 
ATOM      5  C   UNL     1       2.350  15.913  -1.581  0.00  0.00    +0.000 A 
ATOM      6  C   UNL     1       3.118  15.020  -2.318  0.00  0.00    +0.000 A 
ENDROOT
BRANCH   1   8
ATOM      7  C   UNL     1       3.241  11.665  -3.500  0.00  0.00    +0.000 C 
ATOM      8  O   UNL     1       3.449  13.071  -3.566  0.00  0.00    +0.000 OA
ENDBRANCH   1   8
BRANCH   6   9
ATOM      9  O   UNL     1       4.444  15.307  -2.502  0.00  0.00    +0.000 OA
ATOM     10  H   UNL     1       4.452  16.190  -2.918  0.00  0.00    +0.000 HD
ENDBRANCH   6   9
TORSDOF 2
ENDMDL
MODEL 6
REMARK VINA RESULT:    -4.551      1.706      3.437
REMARK INTER + INTRA:          -4.993
REMARK INTER:                  -4.941
REMARK INTRA:                  -0.052
REMARK UNBOUND:                -0.042
REMARK  Name = 
REMARK  3 active torsions:
REMARK  status: ('A' for Active; 'I' for Inactive)
REMARK    1  A    between atoms: C_1  and  O_2
REMARK    2  A    between atoms: O_2  and  C_3
REMARK    3  A    between atoms: C_8  and  O_9
REMARK                            x       y       z     vdW  Elec       q    Type
REMARK                         _______ _______ _______ _____ _____    ______ ____
ROOT
ATOM      1  C   UNL     1       2.011  13.205  -1.642  0.00  0.00    +0.000 A 
ATOM      2  C   UNL     1       0.902  13.790  -2.252  0.00  0.00    +0.000 A 
ATOM      3  C   UNL     1       0.434  15.033  -1.808  0.00  0.00    +0.000 A 
ATOM      4  C   UNL     1       1.070  15.695  -0.756  0.00  0.00    +0.000 A 
ATOM      5  C   UNL     1       2.179  15.117  -0.142  0.00  0.00    +0.000 A 
ATOM      6  C   UNL     1       2.636  13.884  -0.589  0.00  0.00    +0.000 A 
ENDROOT
BRANCH   1   8
ATOM      7  C   UNL     1       3.061  11.866  -3.301  0.00  0.00    +0.000 C 
ATOM      8  O   UNL     1       2.575  11.999  -1.970  0.00  0.00    +0.000 OA
ENDBRANCH   1   8
BRANCH   6   9
ATOM      9  O   UNL     1       3.728  13.337   0.031  0.00  0.00    +0.000 OA
ATOM     10  H   UNL     1       4.464  13.941  -0.184  0.00  0.00    +0.000 HD
ENDBRANCH   6   9
TORSDOF 2
ENDMDL
MODEL 7
REMARK VINA RESULT:    -4.507      1.338      2.032
REMARK INTER + INTRA:          -4.944
REMARK INTER:                  -4.911
REMARK INTRA:                  -0.034
REMARK UNBOUND:                -0.042
REMARK  Name = 
REMARK  3 active torsions:
REMARK  status: ('A' for Active; 'I' for Inactive)
REMARK    1  A    between atoms: C_1  and  O_2
REMARK    2  A    between atoms: O_2  and  C_3
REMARK    3  A    between atoms: C_8  and  O_9
REMARK                            x       y       z     vdW  Elec       q    Type
REMARK                         _______ _______ _______ _____ _____    ______ ____
ROOT
ATOM      1  C   UNL     1       2.874  14.309  -2.351  0.00  0.00    +0.000 A 
ATOM      2  C   UNL     1       3.316  14.055  -3.649  0.00  0.00    +0.000 A 
ATOM      3  C   UNL     1       3.470  12.735  -4.090  0.00  0.00    +0.000 A 
ATOM      4  C   UNL     1       3.186  11.666  -3.238  0.00  0.00    +0.000 A 
ATOM      5  C   UNL     1       2.744  11.912  -1.940  0.00  0.00    +0.000 A 
ATOM      6  C   UNL     1       2.594  13.224  -1.511  0.00  0.00    +0.000 A 
ENDROOT
BRANCH   1   8
ATOM      7  C   UNL     1       1.494  16.235  -2.166  0.00  0.00    +0.000 C 
ATOM      8  O   UNL     1       2.679  15.544  -1.788  0.00  0.00    +0.000 OA
ENDBRANCH   1   8
BRANCH   6   9
ATOM      9  O   UNL     1       2.158  13.440  -0.231  0.00  0.00    +0.000 OA
ATOM     10  H   UNL     1       2.756  12.907   0.328  0.00  0.00    +0.000 HD
ENDBRANCH   6   9
TORSDOF 2
ENDMDL
MODEL 8
REMARK VINA RESULT:    -4.447      1.838      2.531
REMARK INTER + INTRA:          -4.879
REMARK INTER:                  -4.837
REMARK INTRA:                  -0.043
REMARK UNBOUND:                -0.042
REMARK  Name = 
REMARK  3 active torsions:
REMARK  status: ('A' for Active; 'I' for Inactive)
REMARK    1  A    between atoms: C_1  and  O_2
REMARK    2  A    between atoms: O_2  and  C_3
REMARK    3  A    between atoms: C_8  and  O_9
REMARK                            x       y       z     vdW  Elec       q    Type
REMARK                         _______ _______ _______ _____ _____    ______ ____
ROOT
ATOM      1  C   UNL     1       2.820  14.412  -1.560  0.00  0.00    +0.000 A 
ATOM      2  C   UNL     1       1.518  13.920  -1.492  0.00  0.00    +0.000 A 
ATOM      3  C   UNL     1       0.725  13.874  -2.646  0.00  0.00    +0.000 A 
ATOM      4  C   UNL     1       1.229  14.320  -3.869  0.00  0.00    +0.000 A 
ATOM      5  C   UNL     1       2.530  14.814  -3.945  0.00  0.00    +0.000 A 
ATOM      6  C   UNL     1       3.308  14.855  -2.796  0.00  0.00    +0.000 A 
ENDROOT
BRANCH   1   8
ATOM      7  C   UNL     1       3.150  14.829   0.756  0.00  0.00    +0.000 C 
ATOM      8  O   UNL     1       3.704  14.516  -0.517  0.00  0.00    +0.000 OA
ENDBRANCH   1   8
BRANCH   6   9
ATOM      9  O   UNL     1       4.583  15.345  -2.896  0.00  0.00    +0.000 OA
ATOM     10  H   UNL     1       4.504  16.128  -3.474  0.00  0.00    +0.000 HD
ENDBRANCH   6   9
TORSDOF 2
ENDMDL
MODEL 9
REMARK VINA RESULT:    -4.261      2.289      3.146
REMARK INTER + INTRA:          -4.677
REMARK INTER:                  -4.639
REMARK INTRA:                  -0.038
REMARK UNBOUND:                -0.042
REMARK  Name = 
REMARK  3 active torsions:
REMARK  status: ('A' for Active; 'I' for Inactive)
REMARK    1  A    between atoms: C_1  and  O_2
REMARK    2  A    between atoms: O_2  and  C_3
REMARK    3  A    between atoms: C_8  and  O_9
REMARK                            x       y       z     vdW  Elec       q    Type
REMARK                         _______ _______ _______ _____ _____    ______ ____
ROOT
ATOM      1  C   UNL     1       1.950  15.746  -1.194  0.00  0.00    +0.000 A 
ATOM      2  C   UNL     1       0.824  15.224  -1.829  0.00  0.00    +0.000 A 
ATOM      3  C   UNL     1       0.791  13.873  -2.199  0.00  0.00    +0.000 A 
ATOM      4  C   UNL     1       1.882  13.042  -1.937  0.00  0.00    +0.000 A 
ATOM      5  C   UNL     1       3.011  13.555  -1.302  0.00  0.00    +0.000 A 
ATOM      6  C   UNL     1       3.034  14.896  -0.940  0.00  0.00    +0.000 A 
ENDROOT
BRANCH   1   8
ATOM      7  C   UNL     1       1.240  18.009  -1.341  0.00  0.00    +0.000 C 
ATOM      8  O   UNL     1       2.120  17.042  -0.779  0.00  0.00    +0.000 OA
ENDBRANCH   1   8
BRANCH   6   9
ATOM      9  O   UNL     1       4.155  15.378  -0.317  0.00  0.00    +0.000 OA
ATOM     10  H   UNL     1       4.622  15.888  -1.007  0.00  0.00    +0.000 HD
ENDBRANCH   6   9
TORSDOF 2
ENDMDL
