MODEL 1
REMARK VINA RESULT:    -4.145      0.000      0.000
REMARK INTER + INTRA:          -4.560
REMARK INTER:                  -4.509
REMARK INTRA:                  -0.052
REMARK UNBOUND:                -0.052
REMARK  Name = 
REMARK  3 active torsions:
REMARK  status: ('A' for Active; 'I' for Inactive)
REMARK    1  A    between atoms: C_1  and  O_2
REMARK    2  A    between atoms: O_2  and  C_3
REMARK    3  A    between atoms: C_8  and  O_9
REMARK                            x       y       z     vdW  Elec       q    Type
REMARK                         _______ _______ _______ _____ _____    ______ ____
ROOT
ATOM      1  C   UNL     1       1.661  18.505  -0.689  0.00  0.00    +0.000 A 
ATOM      2  C   UNL     1       0.456  19.070  -0.274  0.00  0.00    +0.000 A 
ATOM      3  C   UNL     1      -0.620  19.157  -1.167  0.00  0.00    +0.000 A 
ATOM      4  C   UNL     1      -0.496  18.682  -2.473  0.00  0.00    +0.000 A 
ATOM      5  C   UNL     1       0.705  18.115  -2.895  0.00  0.00    +0.000 A 
ATOM      6  C   UNL     1       1.767  18.034  -2.004  0.00  0.00    +0.000 A 
ENDROOT
BRANCH   1   8
ATOM      7  C   UNL     1       3.489  19.549   0.413  0.00  0.00    +0.000 C 
ATOM      8  O   UNL     1       2.792  18.357   0.073  0.00  0.00    +0.000 OA
ENDBRANCH   1   8
BRANCH   6   9
ATOM      9  O   UNL     1       2.937  17.473  -2.441  0.00  0.00    +0.000 OA
ATOM     10  H   UNL     1       3.587  17.677  -1.742  0.00  0.00    +0.000 HD
ENDBRANCH   6   9
TORSDOF 2
ENDMDL
MODEL 2
REMARK VINA RESULT:    -4.102      2.155      3.081
REMARK INTER + INTRA:          -4.514
REMARK INTER:                  -4.472
REMARK INTRA:                  -0.042
REMARK UNBOUND:                -0.052
REMARK  Name = 
REMARK  3 active torsions:
REMARK  status: ('A' for Active; 'I' for Inactive)
REMARK    1  A    between atoms: C_1  and  O_2
REMARK    2  A    between atoms: O_2  and  C_3
REMARK    3  A    between atoms: C_8  and  O_9
REMARK                            x       y       z     vdW  Elec       q    Type
REMARK                         _______ _______ _______ _____ _____    ______ ____
ROOT
ATOM      1  C   UNL     1       0.061  18.752  -1.109  0.00  0.00    +0.000 A 
ATOM      2  C   UNL     1       1.251  18.766  -0.382  0.00  0.00    +0.000 A 
ATOM      3  C   UNL     1       2.461  18.454  -1.015  0.00  0.00    +0.000 A 
ATOM      4  C   UNL     1       2.487  18.127  -2.372  0.00  0.00    +0.000 A 
ATOM      5  C   UNL     1       1.302  18.111  -3.105  0.00  0.00    +0.000 A 
ATOM      6  C   UNL     1       0.107  18.422  -2.469  0.00  0.00    +0.000 A 
ENDROOT
BRANCH   1   8
ATOM      7  C   UNL     1      -1.431  18.699   0.739  0.00  0.00    +0.000 C 
ATOM      8  O   UNL     1      -1.190  19.034  -0.622  0.00  0.00    +0.000 OA
ENDBRANCH   1   8
BRANCH   6   9
ATOM      9  O   UNL     1      -1.045  18.399  -3.210  0.00  0.00    +0.000 OA
ATOM     10  H   UNL     1      -1.735  18.101  -2.588  0.00  0.00    +0.000 HD
ENDBRANCH   6   9
TORSDOF 2
ENDMDL
MODEL 3
REMARK VINA RESULT:    -4.015      1.795      3.124
REMARK INTER + INTRA:          -4.418
REMARK INTER:                  -4.372
REMARK INTRA:                  -0.047
REMARK UNBOUND:                -0.052
REMARK  Name = 
REMARK  3 active torsions:
REMARK  status: ('A' for Active; 'I' for Inactive)
REMARK    1  A    between atoms: C_1  and  O_2
REMARK    2  A    between atoms: O_2  and  C_3
REMARK    3  A    between atoms: C_8  and  O_9
REMARK                            x       y       z     vdW  Elec       q    Type
REMARK                         _______ _______ _______ _____ _____    ______ ____
ROOT
ATOM      1  C   UNL     1       1.393  18.474  -2.391  0.00  0.00    +0.000 A 
ATOM      2  C   UNL     1       2.274  18.580  -1.316  0.00  0.00    +0.000 A 
ATOM      3  C   UNL     1       1.775  18.743  -0.017  0.00  0.00    +0.000 A 
ATOM      4  C   UNL     1       0.399  18.801   0.211  0.00  0.00    +0.000 A 
ATOM      5  C   UNL     1      -0.487  18.695  -0.859  0.00  0.00    +0.000 A 
ATOM      6  C   UNL     1       0.016  18.534  -2.143  0.00  0.00    +0.000 A 
ENDROOT
BRANCH   1   8
ATOM      7  C   UNL     1       2.281  19.452  -4.367  0.00  0.00    +0.000 C 
ATOM      8  O   UNL     1       1.738  18.313  -3.709  0.00  0.00    +0.000 OA
ENDBRANCH   1   8
BRANCH   6   9
ATOM      9  O   UNL     1      -0.875  18.433  -3.179  0.00  0.00    +0.000 OA
ATOM     10  H   UNL     1      -1.369  19.274  -3.164  0.00  0.00    +0.000 HD
ENDBRANCH   6   9
TORSDOF 2
ENDMDL
MODEL 4
REMARK VINA RESULT:    -4.003      1.927      3.195
REMARK INTER + INTRA:          -4.406
REMARK INTER:                  -4.355
REMARK INTRA:                  -0.051
REMARK UNBOUND:                -0.052
REMARK  Name = 
REMARK  3 active torsions:
REMARK  status: ('A' for Active; 'I' for Inactive)
REMARK    1  A    between atoms: C_1  and  O_2
REMARK    2  A    between atoms: O_2  and  C_3
REMARK    3  A    between atoms: C_8  and  O_9
REMARK                            x       y       z     vdW  Elec       q    Type
REMARK                         _______ _______ _______ _____ _____    ______ ____
ROOT
ATOM      1  C   UNL     1       0.070  18.769  -1.818  0.00  0.00    +0.000 A 
ATOM      2  C   UNL     1       0.387  19.201  -0.531  0.00  0.00    +0.000 A 
ATOM      3  C   UNL     1       1.655  18.939   0.003  0.00  0.00    +0.000 A 
ATOM      4  C   UNL     1       2.608  18.247  -0.745  0.00  0.00    +0.000 A 
ATOM      5  C   UNL     1       2.300  17.813  -2.032  0.00  0.00    +0.000 A 
ATOM      6  C   UNL     1       1.040  18.076  -2.553  0.00  0.00    +0.000 A 
ENDROOT
BRANCH   1   8
ATOM      7  C   UNL     1      -1.433  20.284  -2.864  0.00  0.00    +0.000 C 
ATOM      8  O   UNL     1      -1.126  18.954  -2.464  0.00  0.00    +0.000 OA
ENDBRANCH   1   8
BRANCH   6   9
ATOM      9  O   UNL     1       0.760  17.640  -3.821  0.00  0.00    +0.000 OA
ATOM     10  H   UNL     1       1.607  17.713  -4.301  0.00  0.00    +0.000 HD
ENDBRANCH   6   9
TORSDOF 2
ENDMDL
MODEL 5
REMARK VINA RESULT:    -3.963      1.358      2.579
REMARK INTER + INTRA:          -4.362
REMARK INTER:                  -4.324
REMARK INTRA:                  -0.038
REMARK UNBOUND:                -0.052
REMARK  Name = 
REMARK  3 active torsions:
REMARK  status: ('A' for Active; 'I' for Inactive)
REMARK    1  A    between atoms: C_1  and  O_2
REMARK    2  A    between atoms: O_2  and  C_3
REMARK    3  A    between atoms: C_8  and  O_9
REMARK                            x       y       z     vdW  Elec       q    Type
REMARK                         _______ _______ _______ _____ _____    ______ ____
ROOT
ATOM      1  C   UNL     1       1.532  18.657  -0.360  0.00  0.00    +0.000 A 
ATOM      2  C   UNL     1       0.834  18.892  -1.543  0.00  0.00    +0.000 A 
ATOM      3  C   UNL     1      -0.555  19.075  -1.512  0.00  0.00    +0.000 A 
ATOM      4  C   UNL     1      -1.248  19.023  -0.301  0.00  0.00    +0.000 A 
ATOM      5  C   UNL     1      -0.557  18.789   0.886  0.00  0.00    +0.000 A 
ATOM      6  C   UNL     1       0.820  18.608   0.845  0.00  0.00    +0.000 A 
ENDROOT
BRANCH   1   8
ATOM      7  C   UNL     1       3.680  18.830  -1.362  0.00  0.00    +0.000 C 
ATOM      8  O   UNL     1       2.885  18.460  -0.242  0.00  0.00    +0.000 OA
ENDBRANCH   1   8
BRANCH   6   9
ATOM      9  O   UNL     1       1.478  18.379   2.024  0.00  0.00    +0.000 OA
ATOM     10  H   UNL     1       1.023  18.946   2.676  0.00  0.00    +0.000 HD
ENDBRANCH   6   9
TORSDOF 2
ENDMDL
MODEL 6
REMARK VINA RESULT:    -3.963     14.886     15.971
REMARK INTER + INTRA:          -4.362
REMARK INTER:                  -4.324
REMARK INTRA:                  -0.038
REMARK UNBOUND:                -0.052
REMARK  Name = 
REMARK  3 active torsions:
REMARK  status: ('A' for Active; 'I' for Inactive)
REMARK    1  A    between atoms: C_1  and  O_2
REMARK    2  A    between atoms: O_2  and  C_3
REMARK    3  A    between atoms: C_8  and  O_9
REMARK                            x       y       z     vdW  Elec       q    Type
REMARK                         _______ _______ _______ _____ _____    ______ ____
ROOT
ATOM      1  C   UNL     1       0.672  12.151 -15.935  0.00  0.00    +0.000 A 
ATOM      2  C   UNL     1       1.566  12.357 -14.886  0.00  0.00    +0.000 A 
ATOM      3  C   UNL     1       1.252  11.900 -13.599  0.00  0.00    +0.000 A 
ATOM      4  C   UNL     1       0.047  11.238 -13.358  0.00  0.00    +0.000 A 
ATOM      5  C   UNL     1      -0.852  11.028 -14.402  0.00  0.00    +0.000 A 
ATOM      6  C   UNL     1      -0.532  11.485 -15.674  0.00  0.00    +0.000 A 
ENDROOT
BRANCH   1   8
ATOM      7  C   UNL     1       1.871  13.499 -17.481  0.00  0.00    +0.000 C 
ATOM      8  O   UNL     1       0.847  12.542 -17.238  0.00  0.00    +0.000 OA
ENDBRANCH   1   8
BRANCH   6   9
ATOM      9  O   UNL     1      -1.431  11.267 -16.684  0.00  0.00    +0.000 OA
ATOM     10  H   UNL     1      -1.484  10.296 -16.764  0.00  0.00    +0.000 HD
ENDBRANCH   6   9
TORSDOF 2
ENDMDL
MODEL 7
REMARK VINA RESULT:    -3.906      1.140      2.740
REMARK INTER + INTRA:          -4.300
REMARK INTER:                  -4.254
REMARK INTRA:                  -0.046
REMARK UNBOUND:                -0.052
REMARK  Name = 
REMARK  3 active torsions:
REMARK  status: ('A' for Active; 'I' for Inactive)
REMARK    1  A    between atoms: C_1  and  O_2
REMARK    2  A    between atoms: O_2  and  C_3
REMARK    3  A    between atoms: C_8  and  O_9
REMARK                            x       y       z     vdW  Elec       q    Type
REMARK                         _______ _______ _______ _____ _____    ______ ____
ROOT
ATOM      1  C   UNL     1       1.451  18.396  -1.529  0.00  0.00    +0.000 A 
ATOM      2  C   UNL     1       0.118  18.804  -1.505  0.00  0.00    +0.000 A 
ATOM      3  C   UNL     1      -0.474  19.190  -0.296  0.00  0.00    +0.000 A 
ATOM      4  C   UNL     1       0.262  19.170   0.891  0.00  0.00    +0.000 A 
ATOM      5  C   UNL     1       1.594  18.764   0.875  0.00  0.00    +0.000 A 
ATOM      6  C   UNL     1       2.173  18.382  -0.329  0.00  0.00    +0.000 A 
ENDROOT
BRANCH   1   8
ATOM      7  C   UNL     1       1.986  18.769  -3.814  0.00  0.00    +0.000 C 
ATOM      8  O   UNL     1       2.156  17.992  -2.634  0.00  0.00    +0.000 OA
ENDBRANCH   1   8
BRANCH   6   9
ATOM      9  O   UNL     1       3.484  17.986  -0.320  0.00  0.00    +0.000 OA
ATOM     10  H   UNL     1       3.981  18.781  -0.046  0.00  0.00    +0.000 HD
ENDBRANCH   6   9
TORSDOF 2
ENDMDL
MODEL 8
REMARK VINA RESULT:    -3.897      1.841      2.167
REMARK INTER + INTRA:          -4.290
REMARK INTER:                  -4.238
REMARK INTRA:                  -0.052
REMARK UNBOUND:                -0.052
REMARK  Name = 
REMARK  3 active torsions:
REMARK  status: ('A' for Active; 'I' for Inactive)
REMARK    1  A    between atoms: C_1  and  O_2
REMARK    2  A    between atoms: O_2  and  C_3
REMARK    3  A    between atoms: C_8  and  O_9
REMARK                            x       y       z     vdW  Elec       q    Type
REMARK                         _______ _______ _______ _____ _____    ______ ____
ROOT
ATOM      1  C   UNL     1       2.919  19.248  -1.238  0.00  0.00    +0.000 A 
ATOM      2  C   UNL     1       1.851  18.358  -1.123  0.00  0.00    +0.000 A 
ATOM      3  C   UNL     1       1.097  18.022  -2.254  0.00  0.00    +0.000 A 
ATOM      4  C   UNL     1       1.406  18.571  -3.500  0.00  0.00    +0.000 A 
ATOM      5  C   UNL     1       2.471  19.460  -3.623  0.00  0.00    +0.000 A 
ATOM      6  C   UNL     1       3.213  19.789  -2.495  0.00  0.00    +0.000 A 
ENDROOT
BRANCH   1   8
ATOM      7  C   UNL     1       3.118  20.377   0.844  0.00  0.00    +0.000 C 
ATOM      8  O   UNL     1       3.739  19.666  -0.220  0.00  0.00    +0.000 OA
ENDBRANCH   1   8
BRANCH   6   9
ATOM      9  O   UNL     1       4.256  20.664  -2.641  0.00  0.00    +0.000 OA
ATOM     10  H   UNL     1       4.171  21.003  -3.552  0.00  0.00    +0.000 HD
ENDBRANCH   6   9
TORSDOF 2
ENDMDL
