MODEL 1
REMARK VINA RESULT:    -4.875      0.000      0.000
REMARK INTER + INTRA:          -5.346
REMARK INTER:                  -5.303
REMARK INTRA:                  -0.043
REMARK UNBOUND:                -0.043
REMARK  Name = 
REMARK  3 active torsions:
REMARK  status: ('A' for Active; 'I' for Inactive)
REMARK    1  A    between atoms: C_1  and  O_2
REMARK    2  A    between atoms: O_2  and  C_3
REMARK    3  A    between atoms: C_8  and  O_9
REMARK                            x       y       z     vdW  Elec       q    Type
REMARK                         _______ _______ _______ _____ _____    ______ ____
ROOT
ATOM      1  C   UNL     1       2.903  13.882  -1.470  0.00  0.00    +0.000 A 
ATOM      2  C   UNL     1       3.378  14.914  -2.278  0.00  0.00    +0.000 A 
ATOM      3  C   UNL     1       3.647  14.676  -3.631  0.00  0.00    +0.000 A 
ATOM      4  C   UNL     1       3.442  13.408  -4.181  0.00  0.00    +0.000 A 
ATOM      5  C   UNL     1       2.967  12.373  -3.380  0.00  0.00    +0.000 A 
ATOM      6  C   UNL     1       2.704  12.618  -2.038  0.00  0.00    +0.000 A 
ENDROOT
BRANCH   1   8
ATOM      7  C   UNL     1       3.417  14.836   0.645  0.00  0.00    +0.000 C 
ATOM      8  O   UNL     1       2.600  13.971  -0.134  0.00  0.00    +0.000 OA
ENDBRANCH   1   8
BRANCH   6   9
ATOM      9  O   UNL     1       2.238  11.584  -1.271  0.00  0.00    +0.000 OA
ATOM     10  H   UNL     1       1.837  12.014  -0.492  0.00  0.00    +0.000 HD
ENDBRANCH   6   9
TORSDOF 2
ENDMDL
MODEL 2
REMARK VINA RESULT:    -4.826      2.023      2.754
REMARK INTER + INTRA:          -5.291
REMARK INTER:                  -5.245
REMARK INTRA:                  -0.046
REMARK UNBOUND:                -0.043
REMARK  Name = 
REMARK  3 active torsions:
REMARK  status: ('A' for Active; 'I' for Inactive)
REMARK    1  A    between atoms: C_1  and  O_2
REMARK    2  A    between atoms: O_2  and  C_3
REMARK    3  A    between atoms: C_8  and  O_9
REMARK                            x       y       z     vdW  Elec       q    Type
REMARK                         _______ _______ _______ _____ _____    ______ ____
ROOT
ATOM      1  C   UNL     1       3.016  13.974  -2.446  0.00  0.00    +0.000 A 
ATOM      2  C   UNL     1       2.434  13.083  -1.546  0.00  0.00    +0.000 A 
ATOM      3  C   UNL     1       2.397  11.714  -1.841  0.00  0.00    +0.000 A 
ATOM      4  C   UNL     1       2.940  11.233  -3.035  0.00  0.00    +0.000 A 
ATOM      5  C   UNL     1       3.524  12.118  -3.939  0.00  0.00    +0.000 A 
ATOM      6  C   UNL     1       3.555  13.473  -3.637  0.00  0.00    +0.000 A 
ENDROOT
BRANCH   1   8
ATOM      7  C   UNL     1       1.969  16.006  -1.795  0.00  0.00    +0.000 C 
ATOM      8  O   UNL     1       3.121  15.333  -2.288  0.00  0.00    +0.000 OA
ENDBRANCH   1   8
BRANCH   6   9
ATOM      9  O   UNL     1       4.134  14.323  -4.541  0.00  0.00    +0.000 OA
ATOM     10  H   UNL     1       3.700  14.115  -5.391  0.00  0.00    +0.000 HD
ENDBRANCH   6   9
TORSDOF 2
ENDMDL
MODEL 3
REMARK VINA RESULT:    -4.793      2.091      3.548
REMARK INTER + INTRA:          -5.255
REMARK INTER:                  -5.213
REMARK INTRA:                  -0.043
REMARK UNBOUND:                -0.043
REMARK  Name = 
REMARK  3 active torsions:
REMARK  status: ('A' for Active; 'I' for Inactive)
REMARK    1  A    between atoms: C_1  and  O_2
REMARK    2  A    between atoms: O_2  and  C_3
REMARK    3  A    between atoms: C_8  and  O_9
REMARK                            x       y       z     vdW  Elec       q    Type
REMARK                         _______ _______ _______ _____ _____    ______ ____
ROOT
ATOM      1  C   UNL     1       2.491  13.180  -2.504  0.00  0.00    +0.000 A 
ATOM      2  C   UNL     1       3.057  13.403  -1.250  0.00  0.00    +0.000 A 
ATOM      3  C   UNL     1       2.374  14.176  -0.302  0.00  0.00    +0.000 A 
ATOM      4  C   UNL     1       1.127  14.727  -0.603  0.00  0.00    +0.000 A 
ATOM      5  C   UNL     1       0.555  14.508  -1.854  0.00  0.00    +0.000 A 
ATOM      6  C   UNL     1       1.239  13.741  -2.788  0.00  0.00    +0.000 A 
ENDROOT
BRANCH   1   8
ATOM      7  C   UNL     1       3.022  11.033  -3.375  0.00  0.00    +0.000 C 
ATOM      8  O   UNL     1       3.043  12.448  -3.525  0.00  0.00    +0.000 OA
ENDBRANCH   1   8
BRANCH   6   9
ATOM      9  O   UNL     1       0.657  13.539  -4.011  0.00  0.00    +0.000 OA
ATOM     10  H   UNL     1       1.323  13.045  -4.525  0.00  0.00    +0.000 HD
ENDBRANCH   6   9
TORSDOF 2
ENDMDL
MODEL 4
REMARK VINA RESULT:    -4.634      2.153      3.704
REMARK INTER + INTRA:          -5.083
REMARK INTER:                  -5.042
REMARK INTRA:                  -0.041
REMARK UNBOUND:                -0.043
REMARK  Name = 
REMARK  3 active torsions:
REMARK  status: ('A' for Active; 'I' for Inactive)
REMARK    1  A    between atoms: C_1  and  O_2
REMARK    2  A    between atoms: O_2  and  C_3
REMARK    3  A    between atoms: C_8  and  O_9
REMARK                            x       y       z     vdW  Elec       q    Type
REMARK                         _______ _______ _______ _____ _____    ______ ____
ROOT
ATOM      1  C   UNL     1       2.582  13.837  -2.846  0.00  0.00    +0.000 A 
ATOM      2  C   UNL     1       1.231  13.553  -2.648  0.00  0.00    +0.000 A 
ATOM      3  C   UNL     1       0.427  14.447  -1.929  0.00  0.00    +0.000 A 
ATOM      4  C   UNL     1       0.967  15.623  -1.407  0.00  0.00    +0.000 A 
ATOM      5  C   UNL     1       2.316  15.914  -1.601  0.00  0.00    +0.000 A 
ATOM      6  C   UNL     1       3.106  15.022  -2.315  0.00  0.00    +0.000 A 
ENDROOT
BRANCH   1   8
ATOM      7  C   UNL     1       3.260  11.653  -3.491  0.00  0.00    +0.000 C 
ATOM      8  O   UNL     1       3.484  13.057  -3.525  0.00  0.00    +0.000 OA
ENDBRANCH   1   8
BRANCH   6   9
ATOM      9  O   UNL     1       4.429  15.329  -2.492  0.00  0.00    +0.000 OA
ATOM     10  H   UNL     1       4.442  16.294  -2.642  0.00  0.00    +0.000 HD
ENDBRANCH   6   9
TORSDOF 2
ENDMDL
MODEL 5
REMARK VINA RESULT:    -4.622      2.190      3.330
REMARK INTER + INTRA:          -5.070
REMARK INTER:                  -5.024
REMARK INTRA:                  -0.047
REMARK UNBOUND:                -0.043
REMARK  Name = 
REMARK  3 active torsions:
REMARK  status: ('A' for Active; 'I' for Inactive)
REMARK    1  A    between atoms: C_1  and  O_2
REMARK    2  A    between atoms: O_2  and  C_3
REMARK    3  A    between atoms: C_8  and  O_9
REMARK                            x       y       z     vdW  Elec       q    Type
REMARK                         _______ _______ _______ _____ _____    ______ ____
ROOT
ATOM      1  C   UNL     1       3.151  14.234  -3.554  0.00  0.00    +0.000 A 
ATOM      2  C   UNL     1       2.987  15.076  -2.455  0.00  0.00    +0.000 A 
ATOM      3  C   UNL     1       2.906  14.535  -1.166  0.00  0.00    +0.000 A 
ATOM      4  C   UNL     1       2.988  13.155  -0.971  0.00  0.00    +0.000 A 
ATOM      5  C   UNL     1       3.153  12.308  -2.064  0.00  0.00    +0.000 A 
ATOM      6  C   UNL     1       3.232  12.853  -3.339  0.00  0.00    +0.000 A 
ENDROOT
BRANCH   1   8
ATOM      7  C   UNL     1       2.043  15.071  -5.482  0.00  0.00    +0.000 C 
ATOM      8  O   UNL     1       3.244  14.623  -4.867  0.00  0.00    +0.000 OA
ENDBRANCH   1   8
BRANCH   6   9
ATOM      9  O   UNL     1       3.393  12.000  -4.398  0.00  0.00    +0.000 OA
ATOM     10  H   UNL     1       2.494  11.878  -4.758  0.00  0.00    +0.000 HD
ENDBRANCH   6   9
TORSDOF 2
ENDMDL
MODEL 6
REMARK VINA RESULT:    -4.570      1.460      2.277
REMARK INTER + INTRA:          -5.013
REMARK INTER:                  -4.975
REMARK INTRA:                  -0.038
REMARK UNBOUND:                -0.043
REMARK  Name = 
REMARK  3 active torsions:
REMARK  status: ('A' for Active; 'I' for Inactive)
REMARK    1  A    between atoms: C_1  and  O_2
REMARK    2  A    between atoms: O_2  and  C_3
REMARK    3  A    between atoms: C_8  and  O_9
REMARK                            x       y       z     vdW  Elec       q    Type
REMARK                         _______ _______ _______ _____ _____    ______ ____
ROOT
ATOM      1  C   UNL     1       2.838  13.944  -2.583  0.00  0.00    +0.000 A 
ATOM      2  C   UNL     1       3.305  13.538  -3.832  0.00  0.00    +0.000 A 
ATOM      3  C   UNL     1       3.448  12.174  -4.116  0.00  0.00    +0.000 A 
ATOM      4  C   UNL     1       3.128  11.214  -3.155  0.00  0.00    +0.000 A 
ATOM      5  C   UNL     1       2.660  11.611  -1.904  0.00  0.00    +0.000 A 
ATOM      6  C   UNL     1       2.521  12.966  -1.632  0.00  0.00    +0.000 A 
ENDROOT
BRANCH   1   8
ATOM      7  C   UNL     1       1.498  15.905  -2.671  0.00  0.00    +0.000 C 
ATOM      8  O   UNL     1       2.650  15.238  -2.168  0.00  0.00    +0.000 OA
ENDBRANCH   1   8
BRANCH   6   9
ATOM      9  O   UNL     1       2.060  13.333  -0.395  0.00  0.00    +0.000 OA
ATOM     10  H   UNL     1       1.761  14.256  -0.505  0.00  0.00    +0.000 HD
ENDBRANCH   6   9
TORSDOF 2
ENDMDL
MODEL 7
REMARK VINA RESULT:    -4.548      1.755      3.477
REMARK INTER + INTRA:          -4.989
REMARK INTER:                  -4.943
REMARK INTRA:                  -0.046
REMARK UNBOUND:                -0.043
REMARK  Name = 
REMARK  3 active torsions:
REMARK  status: ('A' for Active; 'I' for Inactive)
REMARK    1  A    between atoms: C_1  and  O_2
REMARK    2  A    between atoms: O_2  and  C_3
REMARK    3  A    between atoms: C_8  and  O_9
REMARK                            x       y       z     vdW  Elec       q    Type
REMARK                         _______ _______ _______ _____ _____    ______ ____
ROOT
ATOM      1  C   UNL     1       1.902  13.397  -1.548  0.00  0.00    +0.000 A 
ATOM      2  C   UNL     1       0.790  14.045  -2.084  0.00  0.00    +0.000 A 
ATOM      3  C   UNL     1       0.406  15.298  -1.591  0.00  0.00    +0.000 A 
ATOM      4  C   UNL     1       1.129  15.906  -0.563  0.00  0.00    +0.000 A 
ATOM      5  C   UNL     1       2.241  15.265  -0.022  0.00  0.00    +0.000 A 
ATOM      6  C   UNL     1       2.615  14.022  -0.517  0.00  0.00    +0.000 A 
ENDROOT
BRANCH   1   8
ATOM      7  C   UNL     1       3.064  12.121  -3.182  0.00  0.00    +0.000 C 
ATOM      8  O   UNL     1       2.390  12.173  -1.930  0.00  0.00    +0.000 OA
ENDBRANCH   1   8
BRANCH   6   9
ATOM      9  O   UNL     1       3.711  13.412   0.030  0.00  0.00    +0.000 OA
ATOM     10  H   UNL     1       4.434  13.586  -0.602  0.00  0.00    +0.000 HD
ENDBRANCH   6   9
TORSDOF 2
ENDMDL
MODEL 8
REMARK VINA RESULT:    -4.462      1.913      2.573
REMARK INTER + INTRA:          -4.896
REMARK INTER:                  -4.859
REMARK INTRA:                  -0.038
REMARK UNBOUND:                -0.043
REMARK  Name = 
REMARK  3 active torsions:
REMARK  status: ('A' for Active; 'I' for Inactive)
REMARK    1  A    between atoms: C_1  and  O_2
REMARK    2  A    between atoms: O_2  and  C_3
REMARK    3  A    between atoms: C_8  and  O_9
REMARK                            x       y       z     vdW  Elec       q    Type
REMARK                         _______ _______ _______ _____ _____    ______ ____
ROOT
ATOM      1  C   UNL     1       2.835  14.663  -1.449  0.00  0.00    +0.000 A 
ATOM      2  C   UNL     1       1.535  14.211  -1.223  0.00  0.00    +0.000 A 
ATOM      3  C   UNL     1       0.675  13.984  -2.304  0.00  0.00    +0.000 A 
ATOM      4  C   UNL     1       1.109  14.208  -3.613  0.00  0.00    +0.000 A 
ATOM      5  C   UNL     1       2.406  14.659  -3.847  0.00  0.00    +0.000 A 
ATOM      6  C   UNL     1       3.252  14.882  -2.768  0.00  0.00    +0.000 A 
ENDROOT
BRANCH   1   8
ATOM      7  C   UNL     1       3.353  14.838   0.864  0.00  0.00    +0.000 C 
ATOM      8  O   UNL     1       3.780  14.927  -0.490  0.00  0.00    +0.000 OA
ENDBRANCH   1   8
BRANCH   6   9
ATOM      9  O   UNL     1       4.522  15.326  -3.023  0.00  0.00    +0.000 OA
ATOM     10  H   UNL     1       5.010  15.173  -2.191  0.00  0.00    +0.000 HD
ENDBRANCH   6   9
TORSDOF 2
ENDMDL
MODEL 9
REMARK VINA RESULT:    -4.231     12.456     13.987
REMARK INTER + INTRA:          -4.645
REMARK INTER:                  -4.607
REMARK INTRA:                  -0.037
REMARK UNBOUND:                -0.043
REMARK  Name = 
REMARK  3 active torsions:
REMARK  status: ('A' for Active; 'I' for Inactive)
REMARK    1  A    between atoms: C_1  and  O_2
REMARK    2  A    between atoms: O_2  and  C_3
REMARK    3  A    between atoms: C_8  and  O_9
REMARK                            x       y       z     vdW  Elec       q    Type
REMARK                         _______ _______ _______ _____ _____    ______ ____
ROOT
ATOM      1  C   UNL     1      -0.367  14.508 -15.699  0.00  0.00    +0.000 A 
ATOM      2  C   UNL     1       0.114  15.816 -15.690  0.00  0.00    +0.000 A 
ATOM      3  C   UNL     1       0.228  16.512 -14.480  0.00  0.00    +0.000 A 
ATOM      4  C   UNL     1      -0.137  15.904 -13.277  0.00  0.00    +0.000 A 
ATOM      5  C   UNL     1      -0.619  14.597 -13.278  0.00  0.00    +0.000 A 
ATOM      6  C   UNL     1      -0.729  13.915 -14.483  0.00  0.00    +0.000 A 
ENDROOT
BRANCH   1   8
ATOM      7  C   UNL     1      -0.149  14.273 -18.054  0.00  0.00    +0.000 C 
ATOM      8  O   UNL     1      -0.532  13.712 -16.804  0.00  0.00    +0.000 OA
ENDBRANCH   1   8
BRANCH   6   9
ATOM      9  O   UNL     1      -1.205  12.631 -14.458  0.00  0.00    +0.000 OA
ATOM     10  H   UNL     1      -1.468  12.482 -13.530  0.00  0.00    +0.000 HD
ENDBRANCH   6   9
TORSDOF 2
ENDMDL
