MODEL 1
REMARK VINA RESULT:    -5.334      0.000      0.000
REMARK INTER + INTRA:          -7.679
REMARK INTER:                  -7.205
REMARK INTRA:                  -0.474
REMARK UNBOUND:                -0.474
REMARK  Name = 
REMARK  10 active torsions:
REMARK  status: ('A' for Active; 'I' for Inactive)
REMARK    1  A    between atoms: C_1  and  C_2
REMARK    2  A    between atoms: C_5  and  N_8
REMARK    3  A    between atoms: N_8  and  C_9
REMARK    4  A    between atoms: N_8  and  C_13
REMARK    5  A    between atoms: C_9  and  C_10
REMARK    6  A    between atoms: C_10  and  C_11
REMARK    7  A    between atoms: C_10  and  O_12
REMARK    8  A    between atoms: C_13  and  C_14
REMARK    9  A    between atoms: C_14  and  C_15
REMARK   10  A    between atoms: C_14  and  O_16
REMARK                            x       y       z     vdW  Elec       q    Type
REMARK                         _______ _______ _______ _____ _____    ______ ____
ROOT
ATOM      1  N   UNL     1      15.191  -8.496   0.252  0.00  0.00    +0.000 N 
ENDROOT
BRANCH   1   6
ATOM      2  C   UNL     1      12.489  -7.196   5.185  0.00  0.00    +0.000 C 
ATOM      3  C   UNL     1      13.206  -7.514   3.909  0.00  0.00    +0.000 A 
ATOM      4  C   UNL     1      12.792  -6.964   2.700  0.00  0.00    +0.000 A 
ATOM      5  C   UNL     1      13.449  -7.290   1.503  0.00  0.00    +0.000 A 
ATOM      6  C   UNL     1      14.528  -8.191   1.447  0.00  0.00    +0.000 A 
ATOM      7  C   UNL     1      14.920  -8.726   2.687  0.00  0.00    +0.000 A 
ATOM      8  C   UNL     1      14.273  -8.407   3.893  0.00  0.00    +0.000 A 
ENDBRANCH   1   6
BRANCH   1   9
ATOM      9  C   UNL     1      15.534  -7.416  -0.705  0.00  0.00    +0.000 C 
BRANCH   9  10
ATOM     10  C   UNL     1      16.656  -6.486  -0.183  0.00  0.00    +0.000 C 
ATOM     11  C   UNL     1      17.658  -6.169  -1.287  0.00  0.00    +0.000 C 
BRANCH  10  12
ATOM     12  O   UNL     1      16.116  -5.247   0.297  0.00  0.00    +0.000 OA
ATOM     13  H   UNL     1      15.380  -4.993  -0.285  0.00  0.00    +0.000 HD
ENDBRANCH  10  12
ENDBRANCH   9  10
ENDBRANCH   1   9
BRANCH   1  14
ATOM     14  C   UNL     1      15.120  -9.856  -0.341  0.00  0.00    +0.000 C 
BRANCH  14  15
ATOM     15  C   UNL     1      15.839  -9.935  -1.710  0.00  0.00    +0.000 C 
ATOM     16  C   UNL     1      17.102 -10.788  -1.676  0.00  0.00    +0.000 C 
BRANCH  15  17
ATOM     17  O   UNL     1      14.982 -10.454  -2.726  0.00  0.00    +0.000 OA
ATOM     18  H   UNL     1      14.349 -11.030  -2.252  0.00  0.00    +0.000 HD
ENDBRANCH  15  17
ENDBRANCH  14  15
ENDBRANCH   1  14
TORSDOF 7
ENDMDL
MODEL 2
REMARK VINA RESULT:    -5.296      0.261      3.368
REMARK INTER + INTRA:          -7.628
REMARK INTER:                  -7.145
REMARK INTRA:                  -0.483
REMARK UNBOUND:                -0.474
REMARK  Name = 
REMARK  10 active torsions:
REMARK  status: ('A' for Active; 'I' for Inactive)
REMARK    1  A    between atoms: C_1  and  C_2
REMARK    2  A    between atoms: C_5  and  N_8
REMARK    3  A    between atoms: N_8  and  C_9
REMARK    4  A    between atoms: N_8  and  C_13
REMARK    5  A    between atoms: C_9  and  C_10
REMARK    6  A    between atoms: C_10  and  C_11
REMARK    7  A    between atoms: C_10  and  O_12
REMARK    8  A    between atoms: C_13  and  C_14
REMARK    9  A    between atoms: C_14  and  C_15
REMARK   10  A    between atoms: C_14  and  O_16
REMARK                            x       y       z     vdW  Elec       q    Type
REMARK                         _______ _______ _______ _____ _____    ______ ____
ROOT
ATOM      1  N   UNL     1      14.851  -8.438  -0.117  0.00  0.00    +0.000 N 
ENDROOT
BRANCH   1   6
ATOM      2  C   UNL     1      12.648  -7.223   5.079  0.00  0.00    +0.000 C 
ATOM      3  C   UNL     1      13.203  -7.557   3.729  0.00  0.00    +0.000 A 
ATOM      4  C   UNL     1      14.285  -8.421   3.595  0.00  0.00    +0.000 A 
ATOM      5  C   UNL     1      14.820  -8.707   2.328  0.00  0.00    +0.000 A 
ATOM      6  C   UNL     1      14.324  -8.133   1.144  0.00  0.00    +0.000 A 
ATOM      7  C   UNL     1      13.230  -7.266   1.317  0.00  0.00    +0.000 A 
ATOM      8  C   UNL     1      12.683  -6.972   2.577  0.00  0.00    +0.000 A 
ENDBRANCH   1   6
BRANCH   1   9
ATOM      9  C   UNL     1      15.321  -9.812  -0.414  0.00  0.00    +0.000 C 
BRANCH   9  10
ATOM     10  C   UNL     1      16.002  -9.928  -1.800  0.00  0.00    +0.000 C 
ATOM     11  C   UNL     1      17.248 -10.802  -1.723  0.00  0.00    +0.000 C 
BRANCH  10  12
ATOM     12  O   UNL     1      15.112 -10.506  -2.764  0.00  0.00    +0.000 OA
ATOM     13  H   UNL     1      15.515 -10.408  -3.643  0.00  0.00    +0.000 HD
ENDBRANCH  10  12
ENDBRANCH   9  10
ENDBRANCH   1   9
BRANCH   1  14
ATOM     14  C   UNL     1      15.427  -7.380  -0.986  0.00  0.00    +0.000 C 
BRANCH  14  15
ATOM     15  C   UNL     1      16.550  -6.586  -0.274  0.00  0.00    +0.000 C 
ATOM     16  C   UNL     1      17.737  -6.283  -1.180  0.00  0.00    +0.000 C 
BRANCH  15  17
ATOM     17  O   UNL     1      16.069  -5.351   0.253  0.00  0.00    +0.000 OA
ATOM     18  H   UNL     1      16.358  -5.345   1.188  0.00  0.00    +0.000 HD
ENDBRANCH  15  17
ENDBRANCH  14  15
ENDBRANCH   1  14
TORSDOF 7
ENDMDL
MODEL 3
REMARK VINA RESULT:    -5.237      5.092      7.582
REMARK INTER + INTRA:          -7.548
REMARK INTER:                  -7.456
REMARK INTRA:                  -0.092
REMARK UNBOUND:                -0.474
REMARK  Name = 
REMARK  10 active torsions:
REMARK  status: ('A' for Active; 'I' for Inactive)
REMARK    1  A    between atoms: C_1  and  C_2
REMARK    2  A    between atoms: C_5  and  N_8
REMARK    3  A    between atoms: N_8  and  C_9
REMARK    4  A    between atoms: N_8  and  C_13
REMARK    5  A    between atoms: C_9  and  C_10
REMARK    6  A    between atoms: C_10  and  C_11
REMARK    7  A    between atoms: C_10  and  O_12
REMARK    8  A    between atoms: C_13  and  C_14
REMARK    9  A    between atoms: C_14  and  C_15
REMARK   10  A    between atoms: C_14  and  O_16
REMARK                            x       y       z     vdW  Elec       q    Type
REMARK                         _______ _______ _______ _____ _____    ______ ____
ROOT
ATOM      1  N   UNL     1       9.415  -7.769   3.092  0.00  0.00    +0.000 N 
ENDROOT
BRANCH   1   6
ATOM      2  C   UNL     1      14.860  -7.022   1.328  0.00  0.00    +0.000 C 
ATOM      3  C   UNL     1      13.451  -7.240   1.787  0.00  0.00    +0.000 A 
ATOM      4  C   UNL     1      12.420  -7.416   0.870  0.00  0.00    +0.000 A 
ATOM      5  C   UNL     1      11.097  -7.590   1.305  0.00  0.00    +0.000 A 
ATOM      6  C   UNL     1      10.734  -7.575   2.664  0.00  0.00    +0.000 A 
ATOM      7  C   UNL     1      11.802  -7.398   3.563  0.00  0.00    +0.000 A 
ATOM      8  C   UNL     1      13.130  -7.224   3.141  0.00  0.00    +0.000 A 
ENDBRANCH   1   6
BRANCH   1   9
ATOM      9  C   UNL     1       8.291  -7.169   2.334  0.00  0.00    +0.000 C 
BRANCH   9  10
ATOM     10  C   UNL     1       7.971  -7.936   1.027  0.00  0.00    +0.000 C 
ATOM     11  C   UNL     1       7.449  -9.335   1.331  0.00  0.00    +0.000 C 
BRANCH  10  12
ATOM     12  O   UNL     1       6.976  -7.248   0.257  0.00  0.00    +0.000 OA
ATOM     13  H   UNL     1       7.104  -6.293   0.383  0.00  0.00    +0.000 HD
ENDBRANCH  10  12
ENDBRANCH   9  10
ENDBRANCH   1   9
BRANCH   1  14
ATOM     14  C   UNL     1       9.106  -8.101   4.507  0.00  0.00    +0.000 C 
BRANCH  14  15
ATOM     15  C   UNL     1       7.587  -8.267   4.750  0.00  0.00    +0.000 C 
ATOM     16  C   UNL     1       7.142  -9.724   4.800  0.00  0.00    +0.000 C 
BRANCH  15  17
ATOM     17  O   UNL     1       7.175  -7.638   5.963  0.00  0.00    +0.000 OA
ATOM     18  H   UNL     1       7.619  -6.765   5.958  0.00  0.00    +0.000 HD
ENDBRANCH  15  17
ENDBRANCH  14  15
ENDBRANCH   1  14
TORSDOF 7
ENDMDL
MODEL 4
REMARK VINA RESULT:    -5.222      5.132      7.164
REMARK INTER + INTRA:          -7.529
REMARK INTER:                  -7.023
REMARK INTRA:                  -0.506
REMARK UNBOUND:                -0.474
REMARK  Name = 
REMARK  10 active torsions:
REMARK  status: ('A' for Active; 'I' for Inactive)
REMARK    1  A    between atoms: C_1  and  C_2
REMARK    2  A    between atoms: C_5  and  N_8
REMARK    3  A    between atoms: N_8  and  C_9
REMARK    4  A    between atoms: N_8  and  C_13
REMARK    5  A    between atoms: C_9  and  C_10
REMARK    6  A    between atoms: C_10  and  C_11
REMARK    7  A    between atoms: C_10  and  O_12
REMARK    8  A    between atoms: C_13  and  C_14
REMARK    9  A    between atoms: C_14  and  C_15
REMARK   10  A    between atoms: C_14  and  O_16
REMARK                            x       y       z     vdW  Elec       q    Type
REMARK                         _______ _______ _______ _____ _____    ______ ____
ROOT
ATOM      1  N   UNL     1      10.037  -7.806   3.654  0.00  0.00    +0.000 N 
ENDROOT
BRANCH   1   6
ATOM      2  C   UNL     1      15.333  -9.366   5.340  0.00  0.00    +0.000 C 
ATOM      3  C   UNL     1      13.968  -8.956   4.880  0.00  0.00    +0.000 A 
ATOM      4  C   UNL     1      13.522  -7.649   5.043  0.00  0.00    +0.000 A 
ATOM      5  C   UNL     1      12.230  -7.277   4.637  0.00  0.00    +0.000 A 
ATOM      6  C   UNL     1      11.317  -8.188   4.074  0.00  0.00    +0.000 A 
ATOM      7  C   UNL     1      11.803  -9.499   3.922  0.00  0.00    +0.000 A 
ATOM      8  C   UNL     1      13.093  -9.884   4.322  0.00  0.00    +0.000 A 
ENDBRANCH   1   6
BRANCH   1   9
ATOM      9  C   UNL     1       9.778  -7.524   2.221  0.00  0.00    +0.000 C 
BRANCH   9  10
ATOM     10  C   UNL     1       9.172  -8.736   1.472  0.00  0.00    +0.000 C 
ATOM     11  C   UNL     1       7.746  -8.441   1.021  0.00  0.00    +0.000 C 
BRANCH  10  12
ATOM     12  O   UNL     1       9.946  -9.062   0.309  0.00  0.00    +0.000 OA
ATOM     13  H   UNL     1      10.693  -8.442   0.261  0.00  0.00    +0.000 HD
ENDBRANCH  10  12
ENDBRANCH   9  10
ENDBRANCH   1   9
BRANCH   1  14
ATOM     14  C   UNL     1       9.071  -7.185   4.596  0.00  0.00    +0.000 C 
BRANCH  14  15
ATOM     15  C   UNL     1       7.799  -8.046   4.781  0.00  0.00    +0.000 C 
ATOM     16  C   UNL     1       8.085  -9.543   4.797  0.00  0.00    +0.000 C 
BRANCH  15  17
ATOM     17  O   UNL     1       7.109  -7.716   5.986  0.00  0.00    +0.000 OA
ATOM     18  H   UNL     1       7.305  -8.452   6.599  0.00  0.00    +0.000 HD
ENDBRANCH  15  17
ENDBRANCH  14  15
ENDBRANCH   1  14
TORSDOF 7
ENDMDL
MODEL 5
REMARK VINA RESULT:    -5.149      7.180      9.039
REMARK INTER + INTRA:          -7.430
REMARK INTER:                  -6.684
REMARK INTRA:                  -0.745
REMARK UNBOUND:                -0.474
REMARK  Name = 
REMARK  10 active torsions:
REMARK  status: ('A' for Active; 'I' for Inactive)
REMARK    1  A    between atoms: C_1  and  C_2
REMARK    2  A    between atoms: C_5  and  N_8
REMARK    3  A    between atoms: N_8  and  C_9
REMARK    4  A    between atoms: N_8  and  C_13
REMARK    5  A    between atoms: C_9  and  C_10
REMARK    6  A    between atoms: C_10  and  C_11
REMARK    7  A    between atoms: C_10  and  O_12
REMARK    8  A    between atoms: C_13  and  C_14
REMARK    9  A    between atoms: C_14  and  C_15
REMARK   10  A    between atoms: C_14  and  O_16
REMARK                            x       y       z     vdW  Elec       q    Type
REMARK                         _______ _______ _______ _____ _____    ______ ____
ROOT
ATOM      1  N   UNL     1       8.365  -9.388   3.141  0.00  0.00    +0.000 N 
ENDROOT
BRANCH   1   6
ATOM      2  C   UNL     1       3.421 -12.342   2.741  0.00  0.00    +0.000 C 
ATOM      3  C   UNL     1       4.717 -11.597   2.842  0.00  0.00    +0.000 A 
ATOM      4  C   UNL     1       5.314 -11.366   4.077  0.00  0.00    +0.000 A 
ATOM      5  C   UNL     1       6.513 -10.641   4.168  0.00  0.00    +0.000 A 
ATOM      6  C   UNL     1       7.159 -10.094   3.045  0.00  0.00    +0.000 A 
ATOM      7  C   UNL     1       6.528 -10.348   1.813  0.00  0.00    +0.000 A 
ATOM      8  C   UNL     1       5.330 -11.074   1.707  0.00  0.00    +0.000 A 
ENDBRANCH   1   6
BRANCH   1   9
ATOM      9  C   UNL     1       8.850  -8.584   1.993  0.00  0.00    +0.000 C 
BRANCH   9  10
ATOM     10  C   UNL     1       8.301  -7.137   2.000  0.00  0.00    +0.000 C 
ATOM     11  C   UNL     1       7.374  -6.900   0.813  0.00  0.00    +0.000 C 
BRANCH  10  12
ATOM     12  O   UNL     1       7.562  -6.872   3.200  0.00  0.00    +0.000 OA
ATOM     13  H   UNL     1       8.058  -7.245   3.948  0.00  0.00    +0.000 HD
ENDBRANCH  10  12
ENDBRANCH   9  10
ENDBRANCH   1   9
BRANCH   1  14
ATOM     14  C   UNL     1       9.417  -9.792   4.109  0.00  0.00    +0.000 C 
BRANCH  14  15
ATOM     15  C   UNL     1       9.592  -8.757   5.246  0.00  0.00    +0.000 C 
ATOM     16  C   UNL     1      10.644  -7.699   4.938  0.00  0.00    +0.000 C 
BRANCH  15  17
ATOM     17  O   UNL     1       8.367  -8.089   5.545  0.00  0.00    +0.000 OA
ATOM     18  H   UNL     1       8.284  -8.136   6.518  0.00  0.00    +0.000 HD
ENDBRANCH  15  17
ENDBRANCH  14  15
ENDBRANCH   1  14
TORSDOF 7
ENDMDL
MODEL 6
REMARK VINA RESULT:    -5.067      4.487      7.075
REMARK INTER + INTRA:          -7.318
REMARK INTER:                  -6.712
REMARK INTRA:                  -0.607
REMARK UNBOUND:                -0.474
REMARK  Name = 
REMARK  10 active torsions:
REMARK  status: ('A' for Active; 'I' for Inactive)
REMARK    1  A    between atoms: C_1  and  C_2
REMARK    2  A    between atoms: C_5  and  N_8
REMARK    3  A    between atoms: N_8  and  C_9
REMARK    4  A    between atoms: N_8  and  C_13
REMARK    5  A    between atoms: C_9  and  C_10
REMARK    6  A    between atoms: C_10  and  C_11
REMARK    7  A    between atoms: C_10  and  O_12
REMARK    8  A    between atoms: C_13  and  C_14
REMARK    9  A    between atoms: C_14  and  C_15
REMARK   10  A    between atoms: C_14  and  O_16
REMARK                            x       y       z     vdW  Elec       q    Type
REMARK                         _______ _______ _______ _____ _____    ______ ____
ROOT
ATOM      1  N   UNL     1      10.512  -7.874   2.801  0.00  0.00    +0.000 N 
ENDROOT
BRANCH   1   6
ATOM      2  C   UNL     1      15.408  -7.412  -0.222  0.00  0.00    +0.000 C 
ATOM      3  C   UNL     1      14.147  -7.552   0.575  0.00  0.00    +0.000 A 
ATOM      4  C   UNL     1      13.086  -8.317   0.104  0.00  0.00    +0.000 A 
ATOM      5  C   UNL     1      11.895  -8.420   0.841  0.00  0.00    +0.000 A 
ATOM      6  C   UNL     1      11.695  -7.751   2.062  0.00  0.00    +0.000 A 
ATOM      7  C   UNL     1      12.789  -6.988   2.508  0.00  0.00    +0.000 A 
ATOM      8  C   UNL     1      13.987  -6.879   1.782  0.00  0.00    +0.000 A 
ENDBRANCH   1   6
BRANCH   1   9
ATOM      9  C   UNL     1      10.570  -8.112   4.263  0.00  0.00    +0.000 C 
BRANCH   9  10
ATOM     10  C   UNL     1       9.478  -9.094   4.755  0.00  0.00    +0.000 C 
ATOM     11  C   UNL     1      10.087 -10.209   5.597  0.00  0.00    +0.000 C 
BRANCH  10  12
ATOM     12  O   UNL     1       8.500  -8.417   5.556  0.00  0.00    +0.000 OA
ATOM     13  H   UNL     1       8.601  -7.461   5.411  0.00  0.00    +0.000 HD
ENDBRANCH  10  12
ENDBRANCH   9  10
ENDBRANCH   1   9
BRANCH   1  14
ATOM     14  C   UNL     1       9.239  -8.281   2.152  0.00  0.00    +0.000 C 
BRANCH  14  15
ATOM     15  C   UNL     1       8.302  -7.076   1.896  0.00  0.00    +0.000 C 
ATOM     16  C   UNL     1       7.340  -7.299   0.736  0.00  0.00    +0.000 C 
BRANCH  15  17
ATOM     17  O   UNL     1       7.531  -6.752   3.053  0.00  0.00    +0.000 OA
ATOM     18  H   UNL     1       7.716  -5.806   3.223  0.00  0.00    +0.000 HD
ENDBRANCH  15  17
ENDBRANCH  14  15
ENDBRANCH   1  14
TORSDOF 7
ENDMDL
MODEL 7
REMARK VINA RESULT:    -5.032      5.086      7.772
REMARK INTER + INTRA:          -7.271
REMARK INTER:                  -6.775
REMARK INTRA:                  -0.496
REMARK UNBOUND:                -0.474
REMARK  Name = 
REMARK  10 active torsions:
REMARK  status: ('A' for Active; 'I' for Inactive)
REMARK    1  A    between atoms: C_1  and  C_2
REMARK    2  A    between atoms: C_5  and  N_8
REMARK    3  A    between atoms: N_8  and  C_9
REMARK    4  A    between atoms: N_8  and  C_13
REMARK    5  A    between atoms: C_9  and  C_10
REMARK    6  A    between atoms: C_10  and  C_11
REMARK    7  A    between atoms: C_10  and  O_12
REMARK    8  A    between atoms: C_13  and  C_14
REMARK    9  A    between atoms: C_14  and  C_15
REMARK   10  A    between atoms: C_14  and  O_16
REMARK                            x       y       z     vdW  Elec       q    Type
REMARK                         _______ _______ _______ _____ _____    ______ ____
ROOT
ATOM      1  N   UNL     1       8.990  -8.290   2.356  0.00  0.00    +0.000 N 
ENDROOT
BRANCH   1   6
ATOM      2  C   UNL     1      14.476  -7.187   0.938  0.00  0.00    +0.000 C 
ATOM      3  C   UNL     1      13.061  -7.492   1.320  0.00  0.00    +0.000 A 
ATOM      4  C   UNL     1      12.274  -8.329   0.535  0.00  0.00    +0.000 A 
ATOM      5  C   UNL     1      10.937  -8.588   0.882  0.00  0.00    +0.000 A 
ATOM      6  C   UNL     1      10.317  -8.012   2.005  0.00  0.00    +0.000 A 
ATOM      7  C   UNL     1      11.143  -7.173   2.776  0.00  0.00    +0.000 A 
ATOM      8  C   UNL     1      12.481  -6.907   2.442  0.00  0.00    +0.000 A 
ENDBRANCH   1   6
BRANCH   1   9
ATOM      9  C   UNL     1       8.099  -8.988   1.399  0.00  0.00    +0.000 C 
BRANCH   9  10
ATOM     10  C   UNL     1       7.791 -10.446   1.819  0.00  0.00    +0.000 C 
ATOM     11  C   UNL     1       6.290 -10.712   1.804  0.00  0.00    +0.000 C 
BRANCH  10  12
ATOM     12  O   UNL     1       8.417 -11.381   0.931  0.00  0.00    +0.000 OA
ATOM     13  H   UNL     1       8.371 -12.262   1.338  0.00  0.00    +0.000 HD
ENDBRANCH  10  12
ENDBRANCH   9  10
ENDBRANCH   1   9
BRANCH   1  14
ATOM     14  C   UNL     1       8.288  -7.498   3.399  0.00  0.00    +0.000 C 
BRANCH  14  15
ATOM     15  C   UNL     1       7.976  -8.339   4.660  0.00  0.00    +0.000 C 
ATOM     16  C   UNL     1       9.185  -9.105   5.184  0.00  0.00    +0.000 C 
BRANCH  15  17
ATOM     17  O   UNL     1       7.472  -7.530   5.721  0.00  0.00    +0.000 OA
ATOM     18  H   UNL     1       6.501  -7.643   5.686  0.00  0.00    +0.000 HD
ENDBRANCH  15  17
ENDBRANCH  14  15
ENDBRANCH   1  14
TORSDOF 7
ENDMDL
MODEL 8
REMARK VINA RESULT:    -4.968      3.188      6.182
REMARK INTER + INTRA:          -7.185
REMARK INTER:                  -6.659
REMARK INTRA:                  -0.526
REMARK UNBOUND:                -0.474
REMARK  Name = 
REMARK  10 active torsions:
REMARK  status: ('A' for Active; 'I' for Inactive)
REMARK    1  A    between atoms: C_1  and  C_2
REMARK    2  A    between atoms: C_5  and  N_8
REMARK    3  A    between atoms: N_8  and  C_9
REMARK    4  A    between atoms: N_8  and  C_13
REMARK    5  A    between atoms: C_9  and  C_10
REMARK    6  A    between atoms: C_10  and  C_11
REMARK    7  A    between atoms: C_10  and  O_12
REMARK    8  A    between atoms: C_13  and  C_14
REMARK    9  A    between atoms: C_14  and  C_15
REMARK   10  A    between atoms: C_14  and  O_16
REMARK                            x       y       z     vdW  Elec       q    Type
REMARK                         _______ _______ _______ _____ _____    ______ ____
ROOT
ATOM      1  N   UNL     1      12.061  -7.416   2.060  0.00  0.00    +0.000 N 
ENDROOT
BRANCH   1   6
ATOM      2  C   UNL     1      16.603  -7.627  -1.497  0.00  0.00    +0.000 C 
ATOM      3  C   UNL     1      15.433  -7.593  -0.563  0.00  0.00    +0.000 A 
ATOM      4  C   UNL     1      14.235  -8.216  -0.895  0.00  0.00    +0.000 A 
ATOM      5  C   UNL     1      13.131  -8.156  -0.029  0.00  0.00    +0.000 A 
ATOM      6  C   UNL     1      13.159  -7.457   1.191  0.00  0.00    +0.000 A 
ATOM      7  C   UNL     1      14.387  -6.840   1.496  0.00  0.00    +0.000 A 
ATOM      8  C   UNL     1      15.499  -6.895   0.640  0.00  0.00    +0.000 A 
ENDBRANCH   1   6
BRANCH   1   9
ATOM      9  C   UNL     1      10.687  -7.287   1.516  0.00  0.00    +0.000 C 
BRANCH   9  10
ATOM     10  C   UNL     1       9.846  -8.574   1.697  0.00  0.00    +0.000 C 
ATOM     11  C   UNL     1       8.391  -8.236   1.999  0.00  0.00    +0.000 C 
BRANCH  10  12
ATOM     12  O   UNL     1       9.878  -9.381   0.512  0.00  0.00    +0.000 OA
ATOM     13  H   UNL     1      10.699  -9.181   0.033  0.00  0.00    +0.000 HD
ENDBRANCH  10  12
ENDBRANCH   9  10
ENDBRANCH   1   9
BRANCH   1  14
ATOM     14  C   UNL     1      12.215  -6.992   3.475  0.00  0.00    +0.000 C 
BRANCH  14  15
ATOM     15  C   UNL     1      12.480  -8.189   4.418  0.00  0.00    +0.000 C 
ATOM     16  C   UNL     1      13.900  -8.212   4.973  0.00  0.00    +0.000 C 
BRANCH  15  17
ATOM     17  O   UNL     1      11.575  -8.202   5.521  0.00  0.00    +0.000 OA
ATOM     18  H   UNL     1      10.688  -8.297   5.120  0.00  0.00    +0.000 HD
ENDBRANCH  15  17
ENDBRANCH  14  15
ENDBRANCH   1  14
TORSDOF 7
ENDMDL
MODEL 9
REMARK VINA RESULT:    -4.890      4.713      6.887
REMARK INTER + INTRA:          -7.079
REMARK INTER:                  -6.502
REMARK INTRA:                  -0.577
REMARK UNBOUND:                -0.474
REMARK  Name = 
REMARK  10 active torsions:
REMARK  status: ('A' for Active; 'I' for Inactive)
REMARK    1  A    between atoms: C_1  and  C_2
REMARK    2  A    between atoms: C_5  and  N_8
REMARK    3  A    between atoms: N_8  and  C_9
REMARK    4  A    between atoms: N_8  and  C_13
REMARK    5  A    between atoms: C_9  and  C_10
REMARK    6  A    between atoms: C_10  and  C_11
REMARK    7  A    between atoms: C_10  and  O_12
REMARK    8  A    between atoms: C_13  and  C_14
REMARK    9  A    between atoms: C_14  and  C_15
REMARK   10  A    between atoms: C_14  and  O_16
REMARK                            x       y       z     vdW  Elec       q    Type
REMARK                         _______ _______ _______ _____ _____    ______ ____
ROOT
ATOM      1  N   UNL     1      10.233  -9.039   3.717  0.00  0.00    +0.000 N 
ENDROOT
BRANCH   1   6
ATOM      2  C   UNL     1      14.871  -7.184   0.823  0.00  0.00    +0.000 C 
ATOM      3  C   UNL     1      13.681  -7.683   1.585  0.00  0.00    +0.000 A 
ATOM      4  C   UNL     1      12.824  -8.628   1.031  0.00  0.00    +0.000 A 
ATOM      5  C   UNL     1      11.693  -9.070   1.737  0.00  0.00    +0.000 A 
ATOM      6  C   UNL     1      11.351  -8.579   3.010  0.00  0.00    +0.000 A 
ATOM      7  C   UNL     1      12.242  -7.627   3.540  0.00  0.00    +0.000 A 
ATOM      8  C   UNL     1      13.377  -7.178   2.845  0.00  0.00    +0.000 A 
ENDBRANCH   1   6
BRANCH   1   9
ATOM      9  C   UNL     1       8.873  -8.867   3.152  0.00  0.00    +0.000 C 
BRANCH   9  10
ATOM     10  C   UNL     1       8.567  -7.400   2.761  0.00  0.00    +0.000 C 
ATOM     11  C   UNL     1       8.050  -7.313   1.331  0.00  0.00    +0.000 C 
BRANCH  10  12
ATOM     12  O   UNL     1       7.575  -6.833   3.628  0.00  0.00    +0.000 OA
ATOM     13  H   UNL     1       7.040  -6.211   3.107  0.00  0.00    +0.000 HD
ENDBRANCH  10  12
ENDBRANCH   9  10
ENDBRANCH   1   9
BRANCH   1  14
ATOM     14  C   UNL     1      10.278  -9.224   5.190  0.00  0.00    +0.000 C 
BRANCH  14  15
ATOM     15  C   UNL     1      10.491 -10.705   5.587  0.00  0.00    +0.000 C 
ATOM     16  C   UNL     1      11.928 -11.176   5.398  0.00  0.00    +0.000 C 
BRANCH  15  17
ATOM     17  O   UNL     1      10.122 -10.946   6.944  0.00  0.00    +0.000 OA
ATOM     18  H   UNL     1       9.663 -11.810   6.932  0.00  0.00    +0.000 HD
ENDBRANCH  15  17
ENDBRANCH  14  15
ENDBRANCH   1  14
TORSDOF 7
ENDMDL
