MODEL 1
REMARK VINA RESULT:    -5.335      0.000      0.000
REMARK INTER + INTRA:          -7.689
REMARK INTER:                  -7.206
REMARK INTRA:                  -0.483
REMARK UNBOUND:                -0.483
REMARK  Name = 
REMARK  10 active torsions:
REMARK  status: ('A' for Active; 'I' for Inactive)
REMARK    1  A    between atoms: C_1  and  C_2
REMARK    2  A    between atoms: C_5  and  N_8
REMARK    3  A    between atoms: N_8  and  C_9
REMARK    4  A    between atoms: N_8  and  C_13
REMARK    5  A    between atoms: C_9  and  C_10
REMARK    6  A    between atoms: C_10  and  C_11
REMARK    7  A    between atoms: C_10  and  O_12
REMARK    8  A    between atoms: C_13  and  C_14
REMARK    9  A    between atoms: C_14  and  C_15
REMARK   10  A    between atoms: C_14  and  O_16
REMARK                            x       y       z     vdW  Elec       q    Type
REMARK                         _______ _______ _______ _____ _____    ______ ____
ROOT
ATOM      1  N   UNL     1      15.045  -8.445   0.216  0.00  0.00    +0.000 N 
ENDROOT
BRANCH   1   6
ATOM      2  C   UNL     1      12.284  -7.063   5.094  0.00  0.00    +0.000 C 
ATOM      3  C   UNL     1      13.016  -7.402   3.831  0.00  0.00    +0.000 A 
ATOM      4  C   UNL     1      12.584  -6.914   2.603  0.00  0.00    +0.000 A 
ATOM      5  C   UNL     1      13.256  -7.259   1.419  0.00  0.00    +0.000 A 
ATOM      6  C   UNL     1      14.368  -8.120   1.398  0.00  0.00    +0.000 A 
ATOM      7  C   UNL     1      14.778  -8.592   2.658  0.00  0.00    +0.000 A 
ATOM      8  C   UNL     1      14.117  -8.253   3.850  0.00  0.00    +0.000 A 
ENDBRANCH   1   6
BRANCH   1   9
ATOM      9  C   UNL     1      15.432  -7.376  -0.737  0.00  0.00    +0.000 C 
BRANCH   9  10
ATOM     10  C   UNL     1      16.582  -6.486  -0.206  0.00  0.00    +0.000 C 
ATOM     11  C   UNL     1      17.576  -6.160  -1.314  0.00  0.00    +0.000 C 
BRANCH  10  12
ATOM     12  O   UNL     1      16.076  -5.248   0.315  0.00  0.00    +0.000 OA
ATOM     13  H   UNL     1      15.406  -5.456   0.988  0.00  0.00    +0.000 HD
ENDBRANCH  10  12
ENDBRANCH   9  10
ENDBRANCH   1   9
BRANCH   1  14
ATOM     14  C   UNL     1      14.952  -9.804  -0.375  0.00  0.00    +0.000 C 
BRANCH  14  15
ATOM     15  C   UNL     1      15.755  -9.925  -1.693  0.00  0.00    +0.000 C 
ATOM     16  C   UNL     1      17.015 -10.771  -1.552  0.00  0.00    +0.000 C 
BRANCH  15  17
ATOM     17  O   UNL     1      14.965 -10.481  -2.742  0.00  0.00    +0.000 OA
ATOM     18  H   UNL     1      14.577 -11.295  -2.363  0.00  0.00    +0.000 HD
ENDBRANCH  15  17
ENDBRANCH  14  15
ENDBRANCH   1  14
TORSDOF 7
ENDMDL
MODEL 2
REMARK VINA RESULT:    -5.282      0.247      3.147
REMARK INTER + INTRA:          -7.617
REMARK INTER:                  -7.120
REMARK INTRA:                  -0.498
REMARK UNBOUND:                -0.483
REMARK  Name = 
REMARK  10 active torsions:
REMARK  status: ('A' for Active; 'I' for Inactive)
REMARK    1  A    between atoms: C_1  and  C_2
REMARK    2  A    between atoms: C_5  and  N_8
REMARK    3  A    between atoms: N_8  and  C_9
REMARK    4  A    between atoms: N_8  and  C_13
REMARK    5  A    between atoms: C_9  and  C_10
REMARK    6  A    between atoms: C_10  and  C_11
REMARK    7  A    between atoms: C_10  and  O_12
REMARK    8  A    between atoms: C_13  and  C_14
REMARK    9  A    between atoms: C_14  and  C_15
REMARK   10  A    between atoms: C_14  and  O_16
REMARK                            x       y       z     vdW  Elec       q    Type
REMARK                         _______ _______ _______ _____ _____    ______ ____
ROOT
ATOM      1  N   UNL     1      14.806  -8.435  -0.052  0.00  0.00    +0.000 N 
ENDROOT
BRANCH   1   6
ATOM      2  C   UNL     1      12.646  -7.209   5.159  0.00  0.00    +0.000 C 
ATOM      3  C   UNL     1      13.223  -7.508   3.810  0.00  0.00    +0.000 A 
ATOM      4  C   UNL     1      12.691  -6.932   2.661  0.00  0.00    +0.000 A 
ATOM      5  C   UNL     1      13.216  -7.239   1.396  0.00  0.00    +0.000 A 
ATOM      6  C   UNL     1      14.274  -8.148   1.211  0.00  0.00    +0.000 A 
ATOM      7  C   UNL     1      14.789  -8.710   2.394  0.00  0.00    +0.000 A 
ATOM      8  C   UNL     1      14.274  -8.409   3.666  0.00  0.00    +0.000 A 
ENDBRANCH   1   6
BRANCH   1   9
ATOM      9  C   UNL     1      15.262  -9.809  -0.372  0.00  0.00    +0.000 C 
BRANCH   9  10
ATOM     10  C   UNL     1      15.957  -9.905  -1.752  0.00  0.00    +0.000 C 
ATOM     11  C   UNL     1      17.213 -10.764  -1.671  0.00  0.00    +0.000 C 
BRANCH  10  12
ATOM     12  O   UNL     1      15.082 -10.488  -2.729  0.00  0.00    +0.000 OA
ATOM     13  H   UNL     1      14.584  -9.770  -3.153  0.00  0.00    +0.000 HD
ENDBRANCH  10  12
ENDBRANCH   9  10
ENDBRANCH   1   9
BRANCH   1  14
ATOM     14  C   UNL     1      15.401  -7.368  -0.897  0.00  0.00    +0.000 C 
BRANCH  14  15
ATOM     15  C   UNL     1      16.509  -6.583  -0.153  0.00  0.00    +0.000 C 
ATOM     16  C   UNL     1      17.742  -6.328  -1.011  0.00  0.00    +0.000 C 
BRANCH  15  17
ATOM     17  O   UNL     1      16.035  -5.325   0.324  0.00  0.00    +0.000 OA
ATOM     18  H   UNL     1      16.265  -5.311   1.275  0.00  0.00    +0.000 HD
ENDBRANCH  15  17
ENDBRANCH  14  15
ENDBRANCH   1  14
TORSDOF 7
ENDMDL
MODEL 3
REMARK VINA RESULT:    -5.263      5.057      7.256
REMARK INTER + INTRA:          -7.592
REMARK INTER:                  -7.170
REMARK INTRA:                  -0.422
REMARK UNBOUND:                -0.483
REMARK  Name = 
REMARK  10 active torsions:
REMARK  status: ('A' for Active; 'I' for Inactive)
REMARK    1  A    between atoms: C_1  and  C_2
REMARK    2  A    between atoms: C_5  and  N_8
REMARK    3  A    between atoms: N_8  and  C_9
REMARK    4  A    between atoms: N_8  and  C_13
REMARK    5  A    between atoms: C_9  and  C_10
REMARK    6  A    between atoms: C_10  and  C_11
REMARK    7  A    between atoms: C_10  and  O_12
REMARK    8  A    between atoms: C_13  and  C_14
REMARK    9  A    between atoms: C_14  and  C_15
REMARK   10  A    between atoms: C_14  and  O_16
REMARK                            x       y       z     vdW  Elec       q    Type
REMARK                         _______ _______ _______ _____ _____    ______ ____
ROOT
ATOM      1  N   UNL     1       9.814  -7.745   3.633  0.00  0.00    +0.000 N 
ENDROOT
BRANCH   1   6
ATOM      2  C   UNL     1      15.188  -9.149   5.209  0.00  0.00    +0.000 C 
ATOM      3  C   UNL     1      13.802  -8.774   4.779  0.00  0.00    +0.000 A 
ATOM      4  C   UNL     1      13.234  -7.567   5.173  0.00  0.00    +0.000 A 
ATOM      5  C   UNL     1      11.924  -7.234   4.792  0.00  0.00    +0.000 A 
ATOM      6  C   UNL     1      11.113  -8.091   4.026  0.00  0.00    +0.000 A 
ATOM      7  C   UNL     1      11.721  -9.302   3.644  0.00  0.00    +0.000 A 
ATOM      8  C   UNL     1      13.031  -9.646   4.016  0.00  0.00    +0.000 A 
ENDBRANCH   1   6
BRANCH   1   9
ATOM      9  C   UNL     1       9.499  -7.549   2.198  0.00  0.00    +0.000 C 
BRANCH   9  10
ATOM     10  C   UNL     1       8.983  -8.840   1.515  0.00  0.00    +0.000 C 
ATOM     11  C   UNL     1       7.543  -8.670   1.046  0.00  0.00    +0.000 C 
BRANCH  10  12
ATOM     12  O   UNL     1       9.786  -9.175   0.375  0.00  0.00    +0.000 OA
ATOM     13  H   UNL     1      10.719  -9.143   0.643  0.00  0.00    +0.000 HD
ENDBRANCH  10  12
ENDBRANCH   9  10
ENDBRANCH   1   9
BRANCH   1  14
ATOM     14  C   UNL     1       8.879  -7.077   4.574  0.00  0.00    +0.000 C 
BRANCH  14  15
ATOM     15  C   UNL     1       7.622  -7.936   4.857  0.00  0.00    +0.000 C 
ATOM     16  C   UNL     1       7.902  -9.434   4.831  0.00  0.00    +0.000 C 
BRANCH  15  17
ATOM     17  O   UNL     1       7.038  -7.617   6.119  0.00  0.00    +0.000 OA
ATOM     18  H   UNL     1       7.670  -7.959   6.783  0.00  0.00    +0.000 HD
ENDBRANCH  15  17
ENDBRANCH  14  15
ENDBRANCH   1  14
TORSDOF 7
ENDMDL
MODEL 4
REMARK VINA RESULT:    -5.249      1.105      3.111
REMARK INTER + INTRA:          -7.573
REMARK INTER:                  -7.152
REMARK INTRA:                  -0.421
REMARK UNBOUND:                -0.483
REMARK  Name = 
REMARK  10 active torsions:
REMARK  status: ('A' for Active; 'I' for Inactive)
REMARK    1  A    between atoms: C_1  and  C_2
REMARK    2  A    between atoms: C_5  and  N_8
REMARK    3  A    between atoms: N_8  and  C_9
REMARK    4  A    between atoms: N_8  and  C_13
REMARK    5  A    between atoms: C_9  and  C_10
REMARK    6  A    between atoms: C_10  and  C_11
REMARK    7  A    between atoms: C_10  and  O_12
REMARK    8  A    between atoms: C_13  and  C_14
REMARK    9  A    between atoms: C_14  and  C_15
REMARK   10  A    between atoms: C_14  and  O_16
REMARK                            x       y       z     vdW  Elec       q    Type
REMARK                         _______ _______ _______ _____ _____    ______ ____
ROOT
ATOM      1  N   UNL     1      15.461  -8.199   0.304  0.00  0.00    +0.000 N 
ENDROOT
BRANCH   1   6
ATOM      2  C   UNL     1      12.124  -7.040   4.870  0.00  0.00    +0.000 C 
ATOM      3  C   UNL     1      12.976  -7.361   3.680  0.00  0.00    +0.000 A 
ATOM      4  C   UNL     1      14.115  -8.149   3.809  0.00  0.00    +0.000 A 
ATOM      5  C   UNL     1      14.926  -8.422   2.695  0.00  0.00    +0.000 A 
ATOM      6  C   UNL     1      14.659  -7.907   1.414  0.00  0.00    +0.000 A 
ATOM      7  C   UNL     1      13.499  -7.117   1.321  0.00  0.00    +0.000 A 
ATOM      8  C   UNL     1      12.677  -6.838   2.426  0.00  0.00    +0.000 A 
ENDBRANCH   1   6
BRANCH   1   9
ATOM      9  C   UNL     1      15.004  -9.184  -0.706  0.00  0.00    +0.000 C 
BRANCH   9  10
ATOM     10  C   UNL     1      14.588  -8.522  -2.043  0.00  0.00    +0.000 C 
ATOM     11  C   UNL     1      15.794  -8.329  -2.954  0.00  0.00    +0.000 C 
BRANCH  10  12
ATOM     12  O   UNL     1      13.629  -9.329  -2.740  0.00  0.00    +0.000 OA
ATOM     13  H   UNL     1      13.901  -9.382  -3.672  0.00  0.00    +0.000 HD
ENDBRANCH  10  12
ENDBRANCH   9  10
ENDBRANCH   1   9
BRANCH   1  14
ATOM     14  C   UNL     1      16.929  -7.975   0.337  0.00  0.00    +0.000 C 
BRANCH  14  15
ATOM     15  C   UNL     1      17.306  -6.518  -0.024  0.00  0.00    +0.000 C 
ATOM     16  C   UNL     1      18.424  -6.425  -1.056  0.00  0.00    +0.000 C 
BRANCH  15  17
ATOM     17  O   UNL     1      16.183  -5.791  -0.523  0.00  0.00    +0.000 OA
ATOM     18  H   UNL     1      15.852  -6.323  -1.274  0.00  0.00    +0.000 HD
ENDBRANCH  15  17
ENDBRANCH  14  15
ENDBRANCH   1  14
TORSDOF 7
ENDMDL
MODEL 5
REMARK VINA RESULT:    -5.181      5.016      7.500
REMARK INTER + INTRA:          -7.481
REMARK INTER:                  -7.289
REMARK INTRA:                  -0.192
REMARK UNBOUND:                -0.483
REMARK  Name = 
REMARK  10 active torsions:
REMARK  status: ('A' for Active; 'I' for Inactive)
REMARK    1  A    between atoms: C_1  and  C_2
REMARK    2  A    between atoms: C_5  and  N_8
REMARK    3  A    between atoms: N_8  and  C_9
REMARK    4  A    between atoms: N_8  and  C_13
REMARK    5  A    between atoms: C_9  and  C_10
REMARK    6  A    between atoms: C_10  and  C_11
REMARK    7  A    between atoms: C_10  and  O_12
REMARK    8  A    between atoms: C_13  and  C_14
REMARK    9  A    between atoms: C_14  and  C_15
REMARK   10  A    between atoms: C_14  and  O_16
REMARK                            x       y       z     vdW  Elec       q    Type
REMARK                         _______ _______ _______ _____ _____    ______ ____
ROOT
ATOM      1  N   UNL     1       9.417  -7.732   3.125  0.00  0.00    +0.000 N 
ENDROOT
BRANCH   1   6
ATOM      2  C   UNL     1      14.871  -7.117   1.336  0.00  0.00    +0.000 C 
ATOM      3  C   UNL     1      13.460  -7.302   1.803  0.00  0.00    +0.000 A 
ATOM      4  C   UNL     1      12.430  -7.525   0.894  0.00  0.00    +0.000 A 
ATOM      5  C   UNL     1      11.104  -7.667   1.335  0.00  0.00    +0.000 A 
ATOM      6  C   UNL     1      10.738  -7.570   2.690  0.00  0.00    +0.000 A 
ATOM      7  C   UNL     1      11.805  -7.347   3.580  0.00  0.00    +0.000 A 
ATOM      8  C   UNL     1      13.135  -7.205   3.153  0.00  0.00    +0.000 A 
ENDBRANCH   1   6
BRANCH   1   9
ATOM      9  C   UNL     1       8.318  -7.001   2.451  0.00  0.00    +0.000 C 
BRANCH   9  10
ATOM     10  C   UNL     1       7.944  -7.611   1.078  0.00  0.00    +0.000 C 
ATOM     11  C   UNL     1       7.574  -9.083   1.219  0.00  0.00    +0.000 C 
BRANCH  10  12
ATOM     12  O   UNL     1       6.825  -6.926   0.497  0.00  0.00    +0.000 OA
ATOM     13  H   UNL     1       7.016  -5.973   0.511  0.00  0.00    +0.000 HD
ENDBRANCH  10  12
ENDBRANCH   9  10
ENDBRANCH   1   9
BRANCH   1  14
ATOM     14  C   UNL     1       9.112  -8.182   4.508  0.00  0.00    +0.000 C 
BRANCH  14  15
ATOM     15  C   UNL     1       7.590  -8.299   4.761  0.00  0.00    +0.000 C 
ATOM     16  C   UNL     1       7.091  -9.739   4.762  0.00  0.00    +0.000 C 
BRANCH  15  17
ATOM     17  O   UNL     1       7.215  -7.701   6.001  0.00  0.00    +0.000 OA
ATOM     18  H   UNL     1       7.520  -8.328   6.687  0.00  0.00    +0.000 HD
ENDBRANCH  15  17
ENDBRANCH  14  15
ENDBRANCH   1  14
TORSDOF 7
ENDMDL
MODEL 6
REMARK VINA RESULT:    -5.123      7.038      8.925
REMARK INTER + INTRA:          -7.402
REMARK INTER:                  -6.657
REMARK INTRA:                  -0.745
REMARK UNBOUND:                -0.483
REMARK  Name = 
REMARK  10 active torsions:
REMARK  status: ('A' for Active; 'I' for Inactive)
REMARK    1  A    between atoms: C_1  and  C_2
REMARK    2  A    between atoms: C_5  and  N_8
REMARK    3  A    between atoms: N_8  and  C_9
REMARK    4  A    between atoms: N_8  and  C_13
REMARK    5  A    between atoms: C_9  and  C_10
REMARK    6  A    between atoms: C_10  and  C_11
REMARK    7  A    between atoms: C_10  and  O_12
REMARK    8  A    between atoms: C_13  and  C_14
REMARK    9  A    between atoms: C_14  and  C_15
REMARK   10  A    between atoms: C_14  and  O_16
REMARK                            x       y       z     vdW  Elec       q    Type
REMARK                         _______ _______ _______ _____ _____    ______ ____
ROOT
ATOM      1  N   UNL     1       8.388  -9.375   3.150  0.00  0.00    +0.000 N 
ENDROOT
BRANCH   1   6
ATOM      2  C   UNL     1       3.455 -12.352   2.782  0.00  0.00    +0.000 C 
ATOM      3  C   UNL     1       4.748 -11.601   2.875  0.00  0.00    +0.000 A 
ATOM      4  C   UNL     1       5.340 -11.349   4.108  0.00  0.00    +0.000 A 
ATOM      5  C   UNL     1       6.537 -10.618   4.191  0.00  0.00    +0.000 A 
ATOM      6  C   UNL     1       7.184 -10.087   3.061  0.00  0.00    +0.000 A 
ATOM      7  C   UNL     1       6.558 -10.363   1.832  0.00  0.00    +0.000 A 
ATOM      8  C   UNL     1       5.363 -11.094   1.734  0.00  0.00    +0.000 A 
ENDBRANCH   1   6
BRANCH   1   9
ATOM      9  C   UNL     1       8.866  -8.577   1.996  0.00  0.00    +0.000 C 
BRANCH   9  10
ATOM     10  C   UNL     1       8.309  -7.132   1.993  0.00  0.00    +0.000 C 
ATOM     11  C   UNL     1       7.381  -6.908   0.806  0.00  0.00    +0.000 C 
BRANCH  10  12
ATOM     12  O   UNL     1       7.569  -6.864   3.193  0.00  0.00    +0.000 OA
ATOM     13  H   UNL     1       6.654  -7.160   3.055  0.00  0.00    +0.000 HD
ENDBRANCH  10  12
ENDBRANCH   9  10
ENDBRANCH   1   9
BRANCH   1  14
ATOM     14  C   UNL     1       9.444  -9.769   4.118  0.00  0.00    +0.000 C 
BRANCH  14  15
ATOM     15  C   UNL     1       9.620  -8.724   5.247  0.00  0.00    +0.000 C 
ATOM     16  C   UNL     1      10.669  -7.666   4.926  0.00  0.00    +0.000 C 
BRANCH  15  17
ATOM     17  O   UNL     1       8.395  -8.056   5.543  0.00  0.00    +0.000 OA
ATOM     18  H   UNL     1       8.642  -7.333   6.153  0.00  0.00    +0.000 HD
ENDBRANCH  15  17
ENDBRANCH  14  15
ENDBRANCH   1  14
TORSDOF 7
ENDMDL
MODEL 7
REMARK VINA RESULT:    -5.106      4.824      7.548
REMARK INTER + INTRA:          -7.379
REMARK INTER:                  -6.908
REMARK INTRA:                  -0.471
REMARK UNBOUND:                -0.483
REMARK  Name = 
REMARK  10 active torsions:
REMARK  status: ('A' for Active; 'I' for Inactive)
REMARK    1  A    between atoms: C_1  and  C_2
REMARK    2  A    between atoms: C_5  and  N_8
REMARK    3  A    between atoms: N_8  and  C_9
REMARK    4  A    between atoms: N_8  and  C_13
REMARK    5  A    between atoms: C_9  and  C_10
REMARK    6  A    between atoms: C_10  and  C_11
REMARK    7  A    between atoms: C_10  and  O_12
REMARK    8  A    between atoms: C_13  and  C_14
REMARK    9  A    between atoms: C_14  and  C_15
REMARK   10  A    between atoms: C_14  and  O_16
REMARK                            x       y       z     vdW  Elec       q    Type
REMARK                         _______ _______ _______ _____ _____    ______ ____
ROOT
ATOM      1  N   UNL     1       9.202  -8.113   2.415  0.00  0.00    +0.000 N 
ENDROOT
BRANCH   1   6
ATOM      2  C   UNL     1      14.711  -6.937   1.149  0.00  0.00    +0.000 C 
ATOM      3  C   UNL     1      13.288  -7.265   1.486  0.00  0.00    +0.000 A 
ATOM      4  C   UNL     1      12.443  -7.833   0.539  0.00  0.00    +0.000 A 
ATOM      5  C   UNL     1      11.102  -8.110   0.851  0.00  0.00    +0.000 A 
ATOM      6  C   UNL     1      10.535  -7.815   2.105  0.00  0.00    +0.000 A 
ATOM      7  C   UNL     1      11.419  -7.243   3.037  0.00  0.00    +0.000 A 
ATOM      8  C   UNL     1      12.763  -6.963   2.739  0.00  0.00    +0.000 A 
ENDBRANCH   1   6
BRANCH   1   9
ATOM      9  C   UNL     1       8.340  -8.793   1.419  0.00  0.00    +0.000 C 
BRANCH   9  10
ATOM     10  C   UNL     1       8.030 -10.262   1.797  0.00  0.00    +0.000 C 
ATOM     11  C   UNL     1       6.526 -10.507   1.843  0.00  0.00    +0.000 C 
BRANCH  10  12
ATOM     12  O   UNL     1       8.599 -11.171   0.845  0.00  0.00    +0.000 OA
ATOM     13  H   UNL     1       9.215 -10.671   0.283  0.00  0.00    +0.000 HD
ENDBRANCH  10  12
ENDBRANCH   9  10
ENDBRANCH   1   9
BRANCH   1  14
ATOM     14  C   UNL     1       8.468  -7.353   3.460  0.00  0.00    +0.000 C 
BRANCH  14  15
ATOM     15  C   UNL     1       8.064  -8.247   4.657  0.00  0.00    +0.000 C 
ATOM     16  C   UNL     1       9.223  -9.064   5.214  0.00  0.00    +0.000 C 
BRANCH  15  17
ATOM     17  O   UNL     1       7.510  -7.480   5.725  0.00  0.00    +0.000 OA
ATOM     18  H   UNL     1       7.997  -6.632   5.705  0.00  0.00    +0.000 HD
ENDBRANCH  15  17
ENDBRANCH  14  15
ENDBRANCH   1  14
TORSDOF 7
ENDMDL
MODEL 8
REMARK VINA RESULT:    -5.030      4.411      7.040
REMARK INTER + INTRA:          -7.277
REMARK INTER:                  -6.683
REMARK INTRA:                  -0.594
REMARK UNBOUND:                -0.483
REMARK  Name = 
REMARK  10 active torsions:
REMARK  status: ('A' for Active; 'I' for Inactive)
REMARK    1  A    between atoms: C_1  and  C_2
REMARK    2  A    between atoms: C_5  and  N_8
REMARK    3  A    between atoms: N_8  and  C_9
REMARK    4  A    between atoms: N_8  and  C_13
REMARK    5  A    between atoms: C_9  and  C_10
REMARK    6  A    between atoms: C_10  and  C_11
REMARK    7  A    between atoms: C_10  and  O_12
REMARK    8  A    between atoms: C_13  and  C_14
REMARK    9  A    between atoms: C_14  and  C_15
REMARK   10  A    between atoms: C_14  and  O_16
REMARK                            x       y       z     vdW  Elec       q    Type
REMARK                         _______ _______ _______ _____ _____    ______ ____
ROOT
ATOM      1  N   UNL     1      10.526  -7.910   2.836  0.00  0.00    +0.000 N 
ENDROOT
BRANCH   1   6
ATOM      2  C   UNL     1      15.428  -7.453  -0.179  0.00  0.00    +0.000 C 
ATOM      3  C   UNL     1      14.145  -7.555   0.588  0.00  0.00    +0.000 A 
ATOM      4  C   UNL     1      13.903  -6.738   1.688  0.00  0.00    +0.000 A 
ATOM      5  C   UNL     1      12.712  -6.859   2.421  0.00  0.00    +0.000 A 
ATOM      6  C   UNL     1      11.721  -7.808   2.112  0.00  0.00    +0.000 A 
ATOM      7  C   UNL     1      11.998  -8.615   0.993  0.00  0.00    +0.000 A 
ATOM      8  C   UNL     1      13.184  -8.503   0.250  0.00  0.00    +0.000 A 
ENDBRANCH   1   6
BRANCH   1   9
ATOM      9  C   UNL     1      10.562  -8.142   4.300  0.00  0.00    +0.000 C 
BRANCH   9  10
ATOM     10  C   UNL     1       9.482  -9.145   4.775  0.00  0.00    +0.000 C 
ATOM     11  C   UNL     1      10.101 -10.248   5.626  0.00  0.00    +0.000 C 
BRANCH  10  12
ATOM     12  O   UNL     1       8.479  -8.488   5.561  0.00  0.00    +0.000 OA
ATOM     13  H   UNL     1       8.890  -7.723   5.997  0.00  0.00    +0.000 HD
ENDBRANCH  10  12
ENDBRANCH   9  10
ENDBRANCH   1   9
BRANCH   1  14
ATOM     14  C   UNL     1       9.256  -8.301   2.173  0.00  0.00    +0.000 C 
BRANCH  14  15
ATOM     15  C   UNL     1       8.323  -7.089   1.936  0.00  0.00    +0.000 C 
ATOM     16  C   UNL     1       7.357  -7.294   0.775  0.00  0.00    +0.000 C 
BRANCH  15  17
ATOM     17  O   UNL     1       7.557  -6.778   3.099  0.00  0.00    +0.000 OA
ATOM     18  H   UNL     1       6.628  -6.949   2.843  0.00  0.00    +0.000 HD
ENDBRANCH  15  17
ENDBRANCH  14  15
ENDBRANCH   1  14
TORSDOF 7
ENDMDL
MODEL 9
REMARK VINA RESULT:    -4.962      4.221      6.706
REMARK INTER + INTRA:          -7.186
REMARK INTER:                  -6.771
REMARK INTRA:                  -0.415
REMARK UNBOUND:                -0.483
REMARK  Name = 
REMARK  10 active torsions:
REMARK  status: ('A' for Active; 'I' for Inactive)
REMARK    1  A    between atoms: C_1  and  C_2
REMARK    2  A    between atoms: C_5  and  N_8
REMARK    3  A    between atoms: N_8  and  C_9
REMARK    4  A    between atoms: N_8  and  C_13
REMARK    5  A    between atoms: C_9  and  C_10
REMARK    6  A    between atoms: C_10  and  C_11
REMARK    7  A    between atoms: C_10  and  O_12
REMARK    8  A    between atoms: C_13  and  C_14
REMARK    9  A    between atoms: C_14  and  C_15
REMARK   10  A    between atoms: C_14  and  O_16
REMARK                            x       y       z     vdW  Elec       q    Type
REMARK                         _______ _______ _______ _____ _____    ______ ____
ROOT
ATOM      1  N   UNL     1      10.146  -7.217   3.050  0.00  0.00    +0.000 N 
ENDROOT
BRANCH   1   6
ATOM      2  C   UNL     1      15.740  -8.105   1.930  0.00  0.00    +0.000 C 
ATOM      3  C   UNL     1      14.294  -7.854   2.234  0.00  0.00    +0.000 A 
ATOM      4  C   UNL     1      13.691  -8.419   3.352  0.00  0.00    +0.000 A 
ATOM      5  C   UNL     1      12.328  -8.205   3.615  0.00  0.00    +0.000 A 
ATOM      6  C   UNL     1      11.500  -7.443   2.771  0.00  0.00    +0.000 A 
ATOM      7  C   UNL     1      12.144  -6.885   1.651  0.00  0.00    +0.000 A 
ATOM      8  C   UNL     1      13.507  -7.090   1.378  0.00  0.00    +0.000 A 
ENDBRANCH   1   6
BRANCH   1   9
ATOM      9  C   UNL     1       9.678  -7.148   4.456  0.00  0.00    +0.000 C 
BRANCH   9  10
ATOM     10  C   UNL     1       8.551  -8.163   4.764  0.00  0.00    +0.000 C 
ATOM     11  C   UNL     1       9.128  -9.492   5.236  0.00  0.00    +0.000 C 
BRANCH  10  12
ATOM     12  O   UNL     1       7.679  -7.668   5.789  0.00  0.00    +0.000 OA
ATOM     13  H   UNL     1       6.949  -8.301   5.895  0.00  0.00    +0.000 HD
ENDBRANCH  10  12
ENDBRANCH   9  10
ENDBRANCH   1   9
BRANCH   1  14
ATOM     14  C   UNL     1       9.092  -7.544   2.057  0.00  0.00    +0.000 C 
BRANCH  14  15
ATOM     15  C   UNL     1       9.146  -9.025   1.613  0.00  0.00    +0.000 C 
ATOM     16  C   UNL     1       7.769  -9.673   1.517  0.00  0.00    +0.000 C 
BRANCH  15  17
ATOM     17  O   UNL     1       9.793  -9.174   0.350  0.00  0.00    +0.000 OA
ATOM     18  H   UNL     1      10.084 -10.108   0.324  0.00  0.00    +0.000 HD
ENDBRANCH  15  17
ENDBRANCH  14  15
ENDBRANCH   1  14
TORSDOF 7
ENDMDL
