MODEL 1
REMARK VINA RESULT:    -4.873      0.000      0.000
REMARK INTER + INTRA:          -5.343
REMARK INTER:                  -5.300
REMARK INTRA:                  -0.043
REMARK UNBOUND:                -0.043
REMARK  Name = 
REMARK  3 active torsions:
REMARK  status: ('A' for Active; 'I' for Inactive)
REMARK    1  A    between atoms: C_1  and  O_2
REMARK    2  A    between atoms: O_2  and  C_3
REMARK    3  A    between atoms: C_8  and  O_9
REMARK                            x       y       z     vdW  Elec       q    Type
REMARK                         _______ _______ _______ _____ _____    ______ ____
ROOT
ATOM      1  C   UNL     1       2.894  13.882  -1.460  0.00  0.00    +0.000 A 
ATOM      2  C   UNL     1       3.369  14.918  -2.264  0.00  0.00    +0.000 A 
ATOM      3  C   UNL     1       3.647  14.682  -3.616  0.00  0.00    +0.000 A 
ATOM      4  C   UNL     1       3.452  13.415  -4.169  0.00  0.00    +0.000 A 
ATOM      5  C   UNL     1       2.977  12.376  -3.372  0.00  0.00    +0.000 A 
ATOM      6  C   UNL     1       2.704  12.618  -2.032  0.00  0.00    +0.000 A 
ENDROOT
BRANCH   1   8
ATOM      7  C   UNL     1       3.394  14.832   0.660  0.00  0.00    +0.000 C 
ATOM      8  O   UNL     1       2.583  13.968  -0.127  0.00  0.00    +0.000 OA
ENDBRANCH   1   8
BRANCH   6   9
ATOM      9  O   UNL     1       2.239  11.581  -1.269  0.00  0.00    +0.000 OA
ATOM     10  H   UNL     1       2.529  11.791  -0.361  0.00  0.00    +0.000 HD
ENDBRANCH   6   9
TORSDOF 2
ENDMDL
MODEL 2
REMARK VINA RESULT:    -4.826      2.021      2.750
REMARK INTER + INTRA:          -5.292
REMARK INTER:                  -5.247
REMARK INTRA:                  -0.045
REMARK UNBOUND:                -0.043
REMARK  Name = 
REMARK  3 active torsions:
REMARK  status: ('A' for Active; 'I' for Inactive)
REMARK    1  A    between atoms: C_1  and  O_2
REMARK    2  A    between atoms: O_2  and  C_3
REMARK    3  A    between atoms: C_8  and  O_9
REMARK                            x       y       z     vdW  Elec       q    Type
REMARK                         _______ _______ _______ _____ _____    ______ ____
ROOT
ATOM      1  C   UNL     1       3.017  13.960  -2.447  0.00  0.00    +0.000 A 
ATOM      2  C   UNL     1       2.440  13.068  -1.544  0.00  0.00    +0.000 A 
ATOM      3  C   UNL     1       2.400  11.700  -1.841  0.00  0.00    +0.000 A 
ATOM      4  C   UNL     1       2.935  11.219  -3.037  0.00  0.00    +0.000 A 
ATOM      5  C   UNL     1       3.514  12.104  -3.944  0.00  0.00    +0.000 A 
ATOM      6  C   UNL     1       3.549  13.459  -3.642  0.00  0.00    +0.000 A 
ENDROOT
BRANCH   1   8
ATOM      7  C   UNL     1       1.993  15.985  -1.742  0.00  0.00    +0.000 C 
ATOM      8  O   UNL     1       3.124  15.319  -2.289  0.00  0.00    +0.000 OA
ENDBRANCH   1   8
BRANCH   6   9
ATOM      9  O   UNL     1       4.123  14.309  -4.549  0.00  0.00    +0.000 OA
ATOM     10  H   UNL     1       3.628  14.161  -5.377  0.00  0.00    +0.000 HD
ENDBRANCH   6   9
TORSDOF 2
ENDMDL
MODEL 3
REMARK VINA RESULT:    -4.805      2.100      3.554
REMARK INTER + INTRA:          -5.269
REMARK INTER:                  -5.224
REMARK INTRA:                  -0.045
REMARK UNBOUND:                -0.043
REMARK  Name = 
REMARK  3 active torsions:
REMARK  status: ('A' for Active; 'I' for Inactive)
REMARK    1  A    between atoms: C_1  and  O_2
REMARK    2  A    between atoms: O_2  and  C_3
REMARK    3  A    between atoms: C_8  and  O_9
REMARK                            x       y       z     vdW  Elec       q    Type
REMARK                         _______ _______ _______ _____ _____    ______ ____
ROOT
ATOM      1  C   UNL     1       2.486  13.159  -2.547  0.00  0.00    +0.000 A 
ATOM      2  C   UNL     1       3.044  13.380  -1.289  0.00  0.00    +0.000 A 
ATOM      3  C   UNL     1       2.360  14.158  -0.347  0.00  0.00    +0.000 A 
ATOM      4  C   UNL     1       1.119  14.717  -0.658  0.00  0.00    +0.000 A 
ATOM      5  C   UNL     1       0.554  14.500  -1.913  0.00  0.00    +0.000 A 
ATOM      6  C   UNL     1       1.240  13.727  -2.841  0.00  0.00    +0.000 A 
ENDROOT
BRANCH   1   8
ATOM      7  C   UNL     1       3.028  11.009  -3.402  0.00  0.00    +0.000 C 
ATOM      8  O   UNL     1       3.041  12.422  -3.563  0.00  0.00    +0.000 OA
ENDBRANCH   1   8
BRANCH   6   9
ATOM      9  O   UNL     1       0.665  13.528  -4.068  0.00  0.00    +0.000 OA
ATOM     10  H   UNL     1       0.039  14.270  -4.172  0.00  0.00    +0.000 HD
ENDBRANCH   6   9
TORSDOF 2
ENDMDL
MODEL 4
REMARK VINA RESULT:    -4.630      2.177      3.701
REMARK INTER + INTRA:          -5.079
REMARK INTER:                  -5.034
REMARK INTRA:                  -0.045
REMARK UNBOUND:                -0.043
REMARK  Name = 
REMARK  3 active torsions:
REMARK  status: ('A' for Active; 'I' for Inactive)
REMARK    1  A    between atoms: C_1  and  O_2
REMARK    2  A    between atoms: O_2  and  C_3
REMARK    3  A    between atoms: C_8  and  O_9
REMARK                            x       y       z     vdW  Elec       q    Type
REMARK                         _______ _______ _______ _____ _____    ______ ____
ROOT
ATOM      1  C   UNL     1       2.523  13.861  -2.882  0.00  0.00    +0.000 A 
ATOM      2  C   UNL     1       1.166  13.604  -2.692  0.00  0.00    +0.000 A 
ATOM      3  C   UNL     1       0.383  14.495  -1.948  0.00  0.00    +0.000 A 
ATOM      4  C   UNL     1       0.951  15.643  -1.392  0.00  0.00    +0.000 A 
ATOM      5  C   UNL     1       2.305  15.907  -1.578  0.00  0.00    +0.000 A 
ATOM      6  C   UNL     1       3.075  15.018  -2.317  0.00  0.00    +0.000 A 
ENDROOT
BRANCH   1   8
ATOM      7  C   UNL     1       3.301  11.675  -3.392  0.00  0.00    +0.000 C 
ATOM      8  O   UNL     1       3.407  13.081  -3.583  0.00  0.00    +0.000 OA
ENDBRANCH   1   8
BRANCH   6   9
ATOM      9  O   UNL     1       4.405  15.299  -2.485  0.00  0.00    +0.000 OA
ATOM     10  H   UNL     1       4.690  15.671  -1.629  0.00  0.00    +0.000 HD
ENDBRANCH   6   9
TORSDOF 2
ENDMDL
MODEL 5
REMARK VINA RESULT:    -4.566      1.439      2.272
REMARK INTER + INTRA:          -5.010
REMARK INTER:                  -4.974
REMARK INTRA:                  -0.036
REMARK UNBOUND:                -0.043
REMARK  Name = 
REMARK  3 active torsions:
REMARK  status: ('A' for Active; 'I' for Inactive)
REMARK    1  A    between atoms: C_1  and  O_2
REMARK    2  A    between atoms: O_2  and  C_3
REMARK    3  A    between atoms: C_8  and  O_9
REMARK                            x       y       z     vdW  Elec       q    Type
REMARK                         _______ _______ _______ _____ _____    ______ ____
ROOT
ATOM      1  C   UNL     1       2.835  14.019  -2.570  0.00  0.00    +0.000 A 
ATOM      2  C   UNL     1       3.304  13.613  -3.819  0.00  0.00    +0.000 A 
ATOM      3  C   UNL     1       3.461  12.250  -4.098  0.00  0.00    +0.000 A 
ATOM      4  C   UNL     1       3.151  11.289  -3.133  0.00  0.00    +0.000 A 
ATOM      5  C   UNL     1       2.681  11.687  -1.883  0.00  0.00    +0.000 A 
ATOM      6  C   UNL     1       2.530  13.042  -1.615  0.00  0.00    +0.000 A 
ENDROOT
BRANCH   1   8
ATOM      7  C   UNL     1       1.470  15.962  -2.654  0.00  0.00    +0.000 C 
ATOM      8  O   UNL     1       2.635  15.313  -2.160  0.00  0.00    +0.000 OA
ENDBRANCH   1   8
BRANCH   6   9
ATOM      9  O   UNL     1       2.067  13.408  -0.379  0.00  0.00    +0.000 OA
ATOM     10  H   UNL     1       1.312  12.813  -0.210  0.00  0.00    +0.000 HD
ENDBRANCH   6   9
TORSDOF 2
ENDMDL
MODEL 6
REMARK VINA RESULT:    -4.519      2.095      3.446
REMARK INTER + INTRA:          -4.958
REMARK INTER:                  -4.935
REMARK INTRA:                  -0.023
REMARK UNBOUND:                -0.043
REMARK  Name = 
REMARK  3 active torsions:
REMARK  status: ('A' for Active; 'I' for Inactive)
REMARK    1  A    between atoms: C_1  and  O_2
REMARK    2  A    between atoms: O_2  and  C_3
REMARK    3  A    between atoms: C_8  and  O_9
REMARK                            x       y       z     vdW  Elec       q    Type
REMARK                         _______ _______ _______ _____ _____    ______ ____
ROOT
ATOM      1  C   UNL     1       2.677  13.076  -2.654  0.00  0.00    +0.000 A 
ATOM      2  C   UNL     1       1.577  13.274  -1.819  0.00  0.00    +0.000 A 
ATOM      3  C   UNL     1       0.868  14.480  -1.871  0.00  0.00    +0.000 A 
ATOM      4  C   UNL     1       1.254  15.491  -2.753  0.00  0.00    +0.000 A 
ATOM      5  C   UNL     1       2.351  15.301  -3.590  0.00  0.00    +0.000 A 
ATOM      6  C   UNL     1       3.049  14.101  -3.532  0.00  0.00    +0.000 A 
ENDROOT
BRANCH   1   8
ATOM      7  C   UNL     1       2.944  10.854  -3.453  0.00  0.00    +0.000 C 
ATOM      8  O   UNL     1       3.460  11.951  -2.710  0.00  0.00    +0.000 OA
ENDBRANCH   1   8
BRANCH   6   9
ATOM      9  O   UNL     1       4.124  13.937  -4.365  0.00  0.00    +0.000 OA
ATOM     10  H   UNL     1       3.837  13.264  -5.011  0.00  0.00    +0.000 HD
ENDBRANCH   6   9
TORSDOF 2
ENDMDL
MODEL 7
REMARK VINA RESULT:    -4.476      1.974      2.685
REMARK INTER + INTRA:          -4.911
REMARK INTER:                  -4.865
REMARK INTRA:                  -0.046
REMARK UNBOUND:                -0.043
REMARK  Name = 
REMARK  3 active torsions:
REMARK  status: ('A' for Active; 'I' for Inactive)
REMARK    1  A    between atoms: C_1  and  O_2
REMARK    2  A    between atoms: O_2  and  C_3
REMARK    3  A    between atoms: C_8  and  O_9
REMARK                            x       y       z     vdW  Elec       q    Type
REMARK                         _______ _______ _______ _____ _____    ______ ____
ROOT
ATOM      1  C   UNL     1       2.453  13.446  -3.025  0.00  0.00    +0.000 A 
ATOM      2  C   UNL     1       3.654  13.764  -3.659  0.00  0.00    +0.000 A 
ATOM      3  C   UNL     1       3.652  14.602  -4.782  0.00  0.00    +0.000 A 
ATOM      4  C   UNL     1       2.453  15.123  -5.273  0.00  0.00    +0.000 A 
ATOM      5  C   UNL     1       1.250  14.811  -4.645  0.00  0.00    +0.000 A 
ATOM      6  C   UNL     1       1.262  13.979  -3.532  0.00  0.00    +0.000 A 
ENDROOT
BRANCH   1   8
ATOM      7  C   UNL     1       3.028  11.416  -1.931  0.00  0.00    +0.000 C 
ATOM      8  O   UNL     1       2.306  12.642  -1.923  0.00  0.00    +0.000 OA
ENDBRANCH   1   8
BRANCH   6   9
ATOM      9  O   UNL     1       0.067  13.686  -2.931  0.00  0.00    +0.000 OA
ATOM     10  H   UNL     1      -0.250  14.540  -2.580  0.00  0.00    +0.000 HD
ENDBRANCH   6   9
TORSDOF 2
ENDMDL
MODEL 8
REMARK VINA RESULT:    -4.246     12.415     13.938
REMARK INTER + INTRA:          -4.661
REMARK INTER:                  -4.624
REMARK INTRA:                  -0.037
REMARK UNBOUND:                -0.043
REMARK  Name = 
REMARK  3 active torsions:
REMARK  status: ('A' for Active; 'I' for Inactive)
REMARK    1  A    between atoms: C_1  and  O_2
REMARK    2  A    between atoms: O_2  and  C_3
REMARK    3  A    between atoms: C_8  and  O_9
REMARK                            x       y       z     vdW  Elec       q    Type
REMARK                         _______ _______ _______ _____ _____    ______ ____
ROOT
ATOM      1  C   UNL     1      -0.335  14.573 -15.640  0.00  0.00    +0.000 A 
ATOM      2  C   UNL     1       0.127  15.887 -15.589  0.00  0.00    +0.000 A 
ATOM      3  C   UNL     1       0.201  16.556 -14.360  0.00  0.00    +0.000 A 
ATOM      4  C   UNL     1      -0.186  15.915 -13.182  0.00  0.00    +0.000 A 
ATOM      5  C   UNL     1      -0.647  14.602 -13.224  0.00  0.00    +0.000 A 
ATOM      6  C   UNL     1      -0.718  13.947 -14.447  0.00  0.00    +0.000 A 
ENDROOT
BRANCH   1   8
ATOM      7  C   UNL     1      -0.055  14.396 -17.993  0.00  0.00    +0.000 C 
ATOM      8  O   UNL     1      -0.461  13.800 -16.767  0.00  0.00    +0.000 OA
ENDBRANCH   1   8
BRANCH   6   9
ATOM      9  O   UNL     1      -1.175  12.656 -14.464  0.00  0.00    +0.000 OA
ATOM     10  H   UNL     1      -1.249  12.431 -15.411  0.00  0.00    +0.000 HD
ENDBRANCH   6   9
TORSDOF 2
ENDMDL
MODEL 9
REMARK VINA RESULT:    -4.150     13.118     14.534
REMARK INTER + INTRA:          -4.557
REMARK INTER:                  -4.519
REMARK INTRA:                  -0.038
REMARK UNBOUND:                -0.043
REMARK  Name = 
REMARK  3 active torsions:
REMARK  status: ('A' for Active; 'I' for Inactive)
REMARK    1  A    between atoms: C_1  and  O_2
REMARK    2  A    between atoms: O_2  and  C_3
REMARK    3  A    between atoms: C_8  and  O_9
REMARK                            x       y       z     vdW  Elec       q    Type
REMARK                         _______ _______ _______ _____ _____    ______ ____
ROOT
ATOM      1  C   UNL     1      -0.301  14.557 -15.964  0.00  0.00    +0.000 A 
ATOM      2  C   UNL     1      -0.668  13.798 -14.853  0.00  0.00    +0.000 A 
ATOM      3  C   UNL     1      -0.633  14.367 -13.574  0.00  0.00    +0.000 A 
ATOM      4  C   UNL     1      -0.231  15.693 -13.400  0.00  0.00    +0.000 A 
ATOM      5  C   UNL     1       0.137  16.457 -14.505  0.00  0.00    +0.000 A 
ATOM      6  C   UNL     1       0.099  15.884 -15.770  0.00  0.00    +0.000 A 
ENDROOT
BRANCH   1   8
ATOM      7  C   UNL     1      -0.964  12.911 -17.545  0.00  0.00    +0.000 C 
ATOM      8  O   UNL     1      -0.287  14.131 -17.268  0.00  0.00    +0.000 OA
ENDBRANCH   1   8
BRANCH   6   9
ATOM      9  O   UNL     1       0.465  16.656 -16.840  0.00  0.00    +0.000 OA
ATOM     10  H   UNL     1       0.899  17.437 -16.447  0.00  0.00    +0.000 HD
ENDBRANCH   6   9
TORSDOF 2
ENDMDL
