MODEL 1
REMARK VINA RESULT:    -4.343      0.000      0.000
REMARK INTER + INTRA:          -6.173
REMARK INTER:                  -5.866
REMARK INTRA:                  -0.307
REMARK UNBOUND:                -0.307
REMARK  Name = 
REMARK  10 active torsions:
REMARK  status: ('A' for Active; 'I' for Inactive)
REMARK    1  A    between atoms: C_1  and  C_2
REMARK    2  A    between atoms: C_5  and  N_8
REMARK    3  A    between atoms: N_8  and  C_9
REMARK    4  A    between atoms: N_8  and  C_13
REMARK    5  A    between atoms: C_9  and  C_10
REMARK    6  A    between atoms: C_10  and  C_11
REMARK    7  A    between atoms: C_10  and  O_12
REMARK    8  A    between atoms: C_13  and  C_14
REMARK    9  A    between atoms: C_14  and  C_15
REMARK   10  A    between atoms: C_14  and  O_16
REMARK                            x       y       z     vdW  Elec       q    Type
REMARK                         _______ _______ _______ _____ _____    ______ ____
ROOT
ATOM      1  N   UNL     1       1.383  19.333  -0.744  0.00  0.00    +0.000 N 
ENDROOT
BRANCH   1   6
ATOM      2  C   UNL     1       6.732  21.282  -1.700  0.00  0.00    +0.000 C 
ATOM      3  C   UNL     1       5.354  20.756  -1.441  0.00  0.00    +0.000 A 
ATOM      4  C   UNL     1       4.703  19.965  -2.381  0.00  0.00    +0.000 A 
ATOM      5  C   UNL     1       3.399  19.499  -2.146  0.00  0.00    +0.000 A 
ATOM      6  C   UNL     1       2.676  19.816  -0.981  0.00  0.00    +0.000 A 
ATOM      7  C   UNL     1       3.366  20.616  -0.052  0.00  0.00    +0.000 A 
ATOM      8  C   UNL     1       4.671  21.087  -0.274  0.00  0.00    +0.000 A 
ENDBRANCH   1   6
BRANCH   1   9
ATOM      9  C   UNL     1       0.733  18.435  -1.730  0.00  0.00    +0.000 C 
BRANCH   9  10
ATOM     10  C   UNL     1      -0.521  19.068  -2.381  0.00  0.00    +0.000 C 
ATOM     11  C   UNL     1      -0.167  20.364  -3.100  0.00  0.00    +0.000 C 
BRANCH  10  12
ATOM     12  O   UNL     1      -1.110  18.176  -3.337  0.00  0.00    +0.000 OA
ATOM     13  H   UNL     1      -1.847  17.713  -2.904  0.00  0.00    +0.000 HD
ENDBRANCH  10  12
ENDBRANCH   9  10
ENDBRANCH   1   9
BRANCH   1  14
ATOM     14  C   UNL     1       0.448  20.050   0.160  0.00  0.00    +0.000 C 
BRANCH  14  15
ATOM     15  C   UNL     1       0.068  19.203   1.398  0.00  0.00    +0.000 C 
ATOM     16  C   UNL     1      -1.166  18.336   1.177  0.00  0.00    +0.000 C 
BRANCH  15  17
ATOM     17  O   UNL     1       1.139  18.351   1.803  0.00  0.00    +0.000 OA
ATOM     18  H   UNL     1       1.606  18.122   0.975  0.00  0.00    +0.000 HD
ENDBRANCH  15  17
ENDBRANCH  14  15
ENDBRANCH   1  14
TORSDOF 7
ENDMDL
MODEL 2
REMARK VINA RESULT:    -3.936      2.351      4.689
REMARK INTER + INTRA:          -5.623
REMARK INTER:                  -5.153
REMARK INTRA:                  -0.470
REMARK UNBOUND:                -0.307
REMARK  Name = 
REMARK  10 active torsions:
REMARK  status: ('A' for Active; 'I' for Inactive)
REMARK    1  A    between atoms: C_1  and  C_2
REMARK    2  A    between atoms: C_5  and  N_8
REMARK    3  A    between atoms: N_8  and  C_9
REMARK    4  A    between atoms: N_8  and  C_13
REMARK    5  A    between atoms: C_9  and  C_10
REMARK    6  A    between atoms: C_10  and  C_11
REMARK    7  A    between atoms: C_10  and  O_12
REMARK    8  A    between atoms: C_13  and  C_14
REMARK    9  A    between atoms: C_14  and  C_15
REMARK   10  A    between atoms: C_14  and  O_16
REMARK                            x       y       z     vdW  Elec       q    Type
REMARK                         _______ _______ _______ _____ _____    ______ ____
ROOT
ATOM      1  N   UNL     1       2.453  19.072  -1.666  0.00  0.00    +0.000 N 
ENDROOT
BRANCH   1   6
ATOM      2  C   UNL     1      -1.433  21.349   1.946  0.00  0.00    +0.000 C 
ATOM      3  C   UNL     1      -0.407  20.772   1.020  0.00  0.00    +0.000 A 
ATOM      4  C   UNL     1      -0.160  21.349  -0.222  0.00  0.00    +0.000 A 
ATOM      5  C   UNL     1       0.781  20.787  -1.099  0.00  0.00    +0.000 A 
ATOM      6  C   UNL     1       1.501  19.617  -0.794  0.00  0.00    +0.000 A 
ATOM      7  C   UNL     1       1.227  19.062   0.469  0.00  0.00    +0.000 A 
ATOM      8  C   UNL     1       0.290  19.615   1.357  0.00  0.00    +0.000 A 
ENDBRANCH   1   6
BRANCH   1   9
ATOM      9  C   UNL     1       2.057  18.024  -2.638  0.00  0.00    +0.000 C 
BRANCH   9  10
ATOM     10  C   UNL     1       1.603  18.609  -3.998  0.00  0.00    +0.000 C 
ATOM     11  C   UNL     1       2.351  19.899  -4.314  0.00  0.00    +0.000 C 
BRANCH  10  12
ATOM     12  O   UNL     1       1.848  17.681  -5.064  0.00  0.00    +0.000 OA
ATOM     13  H   UNL     1       2.421  18.116  -5.717  0.00  0.00    +0.000 HD
ENDBRANCH  10  12
ENDBRANCH   9  10
ENDBRANCH   1   9
BRANCH   1  14
ATOM     14  C   UNL     1       3.902  19.107  -1.341  0.00  0.00    +0.000 C 
BRANCH  14  15
ATOM     15  C   UNL     1       4.480  20.541  -1.407  0.00  0.00    +0.000 C 
ATOM     16  C   UNL     1       4.585  21.209  -0.041  0.00  0.00    +0.000 C 
BRANCH  15  17
ATOM     17  O   UNL     1       5.774  20.560  -2.009  0.00  0.00    +0.000 OA
ATOM     18  H   UNL     1       6.395  20.363  -1.279  0.00  0.00    +0.000 HD
ENDBRANCH  15  17
ENDBRANCH  14  15
ENDBRANCH   1  14
TORSDOF 7
ENDMDL
MODEL 3
REMARK VINA RESULT:    -3.865     16.478     18.861
REMARK INTER + INTRA:          -5.528
REMARK INTER:                  -5.348
REMARK INTRA:                  -0.180
REMARK UNBOUND:                -0.307
REMARK  Name = 
REMARK  10 active torsions:
REMARK  status: ('A' for Active; 'I' for Inactive)
REMARK    1  A    between atoms: C_1  and  C_2
REMARK    2  A    between atoms: C_5  and  N_8
REMARK    3  A    between atoms: N_8  and  C_9
REMARK    4  A    between atoms: N_8  and  C_13
REMARK    5  A    between atoms: C_9  and  C_10
REMARK    6  A    between atoms: C_10  and  C_11
REMARK    7  A    between atoms: C_10  and  O_12
REMARK    8  A    between atoms: C_13  and  C_14
REMARK    9  A    between atoms: C_14  and  C_15
REMARK   10  A    between atoms: C_14  and  O_16
REMARK                            x       y       z     vdW  Elec       q    Type
REMARK                         _______ _______ _______ _____ _____    ______ ____
ROOT
ATOM      1  N   UNL     1      19.119  17.202  -8.276  0.00  0.00    +0.000 N 
ENDROOT
BRANCH   1   6
ATOM      2  C   UNL     1      15.186  21.350  -9.088  0.00  0.00    +0.000 C 
ATOM      3  C   UNL     1      16.209  20.280  -8.853  0.00  0.00    +0.000 A 
ATOM      4  C   UNL     1      17.561  20.525  -9.070  0.00  0.00    +0.000 A 
ATOM      5  C   UNL     1      18.512  19.510  -8.877  0.00  0.00    +0.000 A 
ATOM      6  C   UNL     1      18.163  18.204  -8.485  0.00  0.00    +0.000 A 
ATOM      7  C   UNL     1      16.788  17.994  -8.274  0.00  0.00    +0.000 A 
ATOM      8  C   UNL     1      15.827  19.001  -8.461  0.00  0.00    +0.000 A 
ENDBRANCH   1   6
BRANCH   1   9
ATOM      9  C   UNL     1      19.060  16.361  -7.057  0.00  0.00    +0.000 C 
BRANCH   9  10
ATOM     10  C   UNL     1      19.803  16.993  -5.855  0.00  0.00    +0.000 C 
ATOM     11  C   UNL     1      19.187  18.335  -5.477  0.00  0.00    +0.000 C 
BRANCH  10  12
ATOM     12  O   UNL     1      19.744  16.138  -4.705  0.00  0.00    +0.000 OA
ATOM     13  H   UNL     1      18.814  15.898  -4.556  0.00  0.00    +0.000 HD
ENDBRANCH  10  12
ENDBRANCH   9  10
ENDBRANCH   1   9
BRANCH   1  14
ATOM     14  C   UNL     1      20.452  17.263  -8.928  0.00  0.00    +0.000 C 
BRANCH  14  15
ATOM     15  C   UNL     1      20.517  16.397 -10.209  0.00  0.00    +0.000 C 
ATOM     16  C   UNL     1      20.519  14.900  -9.922  0.00  0.00    +0.000 C 
BRANCH  15  17
ATOM     17  O   UNL     1      19.429  16.677 -11.089  0.00  0.00    +0.000 OA
ATOM     18  H   UNL     1      19.822  17.198 -11.819  0.00  0.00    +0.000 HD
ENDBRANCH  15  17
ENDBRANCH  14  15
ENDBRANCH   1  14
TORSDOF 7
ENDMDL
MODEL 4
REMARK VINA RESULT:    -3.861     18.268     19.668
REMARK INTER + INTRA:          -5.522
REMARK INTER:                  -5.036
REMARK INTRA:                  -0.486
REMARK UNBOUND:                -0.307
REMARK  Name = 
REMARK  10 active torsions:
REMARK  status: ('A' for Active; 'I' for Inactive)
REMARK    1  A    between atoms: C_1  and  C_2
REMARK    2  A    between atoms: C_5  and  N_8
REMARK    3  A    between atoms: N_8  and  C_9
REMARK    4  A    between atoms: N_8  and  C_13
REMARK    5  A    between atoms: C_9  and  C_10
REMARK    6  A    between atoms: C_10  and  C_11
REMARK    7  A    between atoms: C_10  and  O_12
REMARK    8  A    between atoms: C_13  and  C_14
REMARK    9  A    between atoms: C_14  and  C_15
REMARK   10  A    between atoms: C_14  and  O_16
REMARK                            x       y       z     vdW  Elec       q    Type
REMARK                         _______ _______ _______ _____ _____    ______ ____
ROOT
ATOM      1  N   UNL     1      19.843  16.355  -8.152  0.00  0.00    +0.000 N 
ENDROOT
BRANCH   1   6
ATOM      2  C   UNL     1      18.496  20.168 -12.272  0.00  0.00    +0.000 C 
ATOM      3  C   UNL     1      18.837  19.160 -11.218  0.00  0.00    +0.000 A 
ATOM      4  C   UNL     1      17.923  18.829 -10.224  0.00  0.00    +0.000 A 
ATOM      5  C   UNL     1      18.259  17.905  -9.220  0.00  0.00    +0.000 A 
ATOM      6  C   UNL     1      19.521  17.290  -9.144  0.00  0.00    +0.000 A 
ATOM      7  C   UNL     1      20.420  17.647 -10.166  0.00  0.00    +0.000 A 
ATOM      8  C   UNL     1      20.096  18.567 -11.177  0.00  0.00    +0.000 A 
ENDBRANCH   1   6
BRANCH   1   9
ATOM      9  C   UNL     1      20.564  15.110  -8.509  0.00  0.00    +0.000 C 
BRANCH   9  10
ATOM     10  C   UNL     1      19.767  14.215  -9.489  0.00  0.00    +0.000 C 
ATOM     11  C   UNL     1      20.690  13.245 -10.216  0.00  0.00    +0.000 C 
BRANCH  10  12
ATOM     12  O   UNL     1      18.775  13.447  -8.793  0.00  0.00    +0.000 OA
ATOM     13  H   UNL     1      18.969  13.494  -7.842  0.00  0.00    +0.000 HD
ENDBRANCH  10  12
ENDBRANCH   9  10
ENDBRANCH   1   9
BRANCH   1  14
ATOM     14  C   UNL     1      19.080  16.291  -6.879  0.00  0.00    +0.000 C 
BRANCH  14  15
ATOM     15  C   UNL     1      19.762  17.097  -5.748  0.00  0.00    +0.000 C 
ATOM     16  C   UNL     1      19.224  18.517  -5.615  0.00  0.00    +0.000 C 
BRANCH  15  17
ATOM     17  O   UNL     1      19.622  16.452  -4.483  0.00  0.00    +0.000 OA
ATOM     18  H   UNL     1      19.982  17.089  -3.833  0.00  0.00    +0.000 HD
ENDBRANCH  15  17
ENDBRANCH  14  15
ENDBRANCH   1  14
TORSDOF 7
ENDMDL
MODEL 5
REMARK VINA RESULT:    -3.845     16.352     18.660
REMARK INTER + INTRA:          -5.501
REMARK INTER:                  -5.024
REMARK INTRA:                  -0.478
REMARK UNBOUND:                -0.307
REMARK  Name = 
REMARK  10 active torsions:
REMARK  status: ('A' for Active; 'I' for Inactive)
REMARK    1  A    between atoms: C_1  and  C_2
REMARK    2  A    between atoms: C_5  and  N_8
REMARK    3  A    between atoms: N_8  and  C_9
REMARK    4  A    between atoms: N_8  and  C_13
REMARK    5  A    between atoms: C_9  and  C_10
REMARK    6  A    between atoms: C_10  and  C_11
REMARK    7  A    between atoms: C_10  and  O_12
REMARK    8  A    between atoms: C_13  and  C_14
REMARK    9  A    between atoms: C_14  and  C_15
REMARK   10  A    between atoms: C_14  and  O_16
REMARK                            x       y       z     vdW  Elec       q    Type
REMARK                         _______ _______ _______ _____ _____    ______ ____
ROOT
ATOM      1  N   UNL     1      19.321  17.653  -8.030  0.00  0.00    +0.000 N 
ENDROOT
BRANCH   1   6
ATOM      2  C   UNL     1      15.015  21.349  -9.093  0.00  0.00    +0.000 C 
ATOM      3  C   UNL     1      16.133  20.384  -8.842  0.00  0.00    +0.000 A 
ATOM      4  C   UNL     1      15.873  19.059  -8.511  0.00  0.00    +0.000 A 
ATOM      5  C   UNL     1      16.924  18.166  -8.247  0.00  0.00    +0.000 A 
ATOM      6  C   UNL     1      18.276  18.553  -8.276  0.00  0.00    +0.000 A 
ATOM      7  C   UNL     1      18.503  19.900  -8.615  0.00  0.00    +0.000 A 
ATOM      8  C   UNL     1      17.460  20.802  -8.884  0.00  0.00    +0.000 A 
ENDBRANCH   1   6
BRANCH   1   9
ATOM      9  C   UNL     1      20.295  17.335  -9.102  0.00  0.00    +0.000 C 
BRANCH   9  10
ATOM     10  C   UNL     1      19.614  16.983 -10.447  0.00  0.00    +0.000 C 
ATOM     11  C   UNL     1      20.112  17.893 -11.564  0.00  0.00    +0.000 C 
BRANCH  10  12
ATOM     12  O   UNL     1      19.888  15.627 -10.824  0.00  0.00    +0.000 OA
ATOM     13  H   UNL     1      19.599  15.049 -10.099  0.00  0.00    +0.000 HD
ENDBRANCH  10  12
ENDBRANCH   9  10
ENDBRANCH   1   9
BRANCH   1  14
ATOM     14  C   UNL     1      19.220  16.633  -6.955  0.00  0.00    +0.000 C 
BRANCH  14  15
ATOM     15  C   UNL     1      20.148  16.953  -5.758  0.00  0.00    +0.000 C 
ATOM     16  C   UNL     1      20.361  18.447  -5.547  0.00  0.00    +0.000 C 
BRANCH  15  17
ATOM     17  O   UNL     1      19.648  16.402  -4.541  0.00  0.00    +0.000 OA
ATOM     18  H   UNL     1      18.981  15.742  -4.818  0.00  0.00    +0.000 HD
ENDBRANCH  15  17
ENDBRANCH  14  15
ENDBRANCH   1  14
TORSDOF 7
ENDMDL
MODEL 6
REMARK VINA RESULT:    -3.787     17.080     18.951
REMARK INTER + INTRA:          -5.423
REMARK INTER:                  -4.805
REMARK INTRA:                  -0.618
REMARK UNBOUND:                -0.307
REMARK  Name = 
REMARK  10 active torsions:
REMARK  status: ('A' for Active; 'I' for Inactive)
REMARK    1  A    between atoms: C_1  and  C_2
REMARK    2  A    between atoms: C_5  and  N_8
REMARK    3  A    between atoms: N_8  and  C_9
REMARK    4  A    between atoms: N_8  and  C_13
REMARK    5  A    between atoms: C_9  and  C_10
REMARK    6  A    between atoms: C_10  and  C_11
REMARK    7  A    between atoms: C_10  and  O_12
REMARK    8  A    between atoms: C_13  and  C_14
REMARK    9  A    between atoms: C_14  and  C_15
REMARK   10  A    between atoms: C_14  and  O_16
REMARK                            x       y       z     vdW  Elec       q    Type
REMARK                         _______ _______ _______ _____ _____    ______ ____
ROOT
ATOM      1  N   UNL     1      19.243  17.082  -7.413  0.00  0.00    +0.000 N 
ENDROOT
BRANCH   1   6
ATOM      2  C   UNL     1      15.989  19.942 -11.229  0.00  0.00    +0.000 C 
ATOM      3  C   UNL     1      16.837  19.221 -10.226  0.00  0.00    +0.000 A 
ATOM      4  C   UNL     1      18.210  19.099 -10.407  0.00  0.00    +0.000 A 
ATOM      5  C   UNL     1      18.995  18.396  -9.478  0.00  0.00    +0.000 A 
ATOM      6  C   UNL     1      18.451  17.765  -8.345  0.00  0.00    +0.000 A 
ATOM      7  C   UNL     1      17.060  17.910  -8.194  0.00  0.00    +0.000 A 
ATOM      8  C   UNL     1      16.264  18.612  -9.113  0.00  0.00    +0.000 A 
ENDBRANCH   1   6
BRANCH   1   9
ATOM      9  C   UNL     1      20.558  17.634  -7.008  0.00  0.00    +0.000 C 
BRANCH   9  10
ATOM     10  C   UNL     1      20.455  18.616  -5.815  0.00  0.00    +0.000 C 
ATOM     11  C   UNL     1      20.508  20.062  -6.294  0.00  0.00    +0.000 C 
BRANCH  10  12
ATOM     12  O   UNL     1      19.226  18.429  -5.100  0.00  0.00    +0.000 OA
ATOM     13  H   UNL     1      19.209  19.059  -4.360  0.00  0.00    +0.000 HD
ENDBRANCH  10  12
ENDBRANCH   9  10
ENDBRANCH   1   9
BRANCH   1  14
ATOM     14  C   UNL     1      19.085  15.621  -7.194  0.00  0.00    +0.000 C 
BRANCH  14  15
ATOM     15  C   UNL     1      19.245  14.813  -8.504  0.00  0.00    +0.000 C 
ATOM     16  C   UNL     1      20.689  14.423  -8.795  0.00  0.00    +0.000 C 
BRANCH  15  17
ATOM     17  O   UNL     1      18.461  13.621  -8.487  0.00  0.00    +0.000 OA
ATOM     18  H   UNL     1      17.792  13.768  -7.788  0.00  0.00    +0.000 HD
ENDBRANCH  15  17
ENDBRANCH  14  15
ENDBRANCH   1  14
TORSDOF 7
ENDMDL
MODEL 7
REMARK VINA RESULT:    -3.714      0.544      3.102
REMARK INTER + INTRA:          -5.324
REMARK INTER:                  -5.453
REMARK INTRA:                   0.129
REMARK UNBOUND:                -0.307
REMARK  Name = 
REMARK  10 active torsions:
REMARK  status: ('A' for Active; 'I' for Inactive)
REMARK    1  A    between atoms: C_1  and  C_2
REMARK    2  A    between atoms: C_5  and  N_8
REMARK    3  A    between atoms: N_8  and  C_9
REMARK    4  A    between atoms: N_8  and  C_13
REMARK    5  A    between atoms: C_9  and  C_10
REMARK    6  A    between atoms: C_10  and  C_11
REMARK    7  A    between atoms: C_10  and  O_12
REMARK    8  A    between atoms: C_13  and  C_14
REMARK    9  A    between atoms: C_14  and  C_15
REMARK   10  A    between atoms: C_14  and  O_16
REMARK                            x       y       z     vdW  Elec       q    Type
REMARK                         _______ _______ _______ _____ _____    ______ ____
ROOT
ATOM      1  N   UNL     1       0.826  19.895  -1.050  0.00  0.00    +0.000 N 
ENDROOT
BRANCH   1   6
ATOM      2  C   UNL     1       6.452  21.011  -1.708  0.00  0.00    +0.000 C 
ATOM      3  C   UNL     1       4.998  20.701  -1.523  0.00  0.00    +0.000 A 
ATOM      4  C   UNL     1       4.314  19.912  -2.442  0.00  0.00    +0.000 A 
ATOM      5  C   UNL     1       2.944  19.650  -2.280  0.00  0.00    +0.000 A 
ATOM      6  C   UNL     1       2.188  20.177  -1.216  0.00  0.00    +0.000 A 
ATOM      7  C   UNL     1       2.913  20.968  -0.306  0.00  0.00    +0.000 A 
ATOM      8  C   UNL     1       4.284  21.236  -0.455  0.00  0.00    +0.000 A 
ENDBRANCH   1   6
BRANCH   1   9
ATOM      9  C   UNL     1       0.121  20.333   0.178  0.00  0.00    +0.000 C 
BRANCH   9  10
ATOM     10  C   UNL     1       0.076  19.234   1.268  0.00  0.00    +0.000 C 
ATOM     11  C   UNL     1      -1.196  18.403   1.151  0.00  0.00    +0.000 C 
BRANCH  10  12
ATOM     12  O   UNL     1       1.198  18.348   1.153  0.00  0.00    +0.000 OA
ATOM     13  H   UNL     1       0.947  17.493   1.540  0.00  0.00    +0.000 HD
ENDBRANCH  10  12
ENDBRANCH   9  10
ENDBRANCH   1   9
BRANCH   1  14
ATOM     14  C   UNL     1       0.180  18.770  -1.774  0.00  0.00    +0.000 C 
BRANCH  14  15
ATOM     15  C   UNL     1      -1.090  19.219  -2.536  0.00  0.00    +0.000 C 
ATOM     16  C   UNL     1      -0.960  20.606  -3.154  0.00  0.00    +0.000 C 
BRANCH  15  17
ATOM     17  O   UNL     1      -1.433  18.303  -3.574  0.00  0.00    +0.000 OA
ATOM     18  H   UNL     1      -2.047  18.797  -4.154  0.00  0.00    +0.000 HD
ENDBRANCH  15  17
ENDBRANCH  14  15
ENDBRANCH   1  14
TORSDOF 7
ENDMDL
MODEL 8
REMARK VINA RESULT:    -3.481     16.649     19.438
REMARK INTER + INTRA:          -5.009
REMARK INTER:                  -4.262
REMARK INTRA:                  -0.747
REMARK UNBOUND:                -0.307
REMARK  Name = 
REMARK  10 active torsions:
REMARK  status: ('A' for Active; 'I' for Inactive)
REMARK    1  A    between atoms: C_1  and  C_2
REMARK    2  A    between atoms: C_5  and  N_8
REMARK    3  A    between atoms: N_8  and  C_9
REMARK    4  A    between atoms: N_8  and  C_13
REMARK    5  A    between atoms: C_9  and  C_10
REMARK    6  A    between atoms: C_10  and  C_11
REMARK    7  A    between atoms: C_10  and  O_12
REMARK    8  A    between atoms: C_13  and  C_14
REMARK    9  A    between atoms: C_14  and  C_15
REMARK   10  A    between atoms: C_14  and  O_16
REMARK                            x       y       z     vdW  Elec       q    Type
REMARK                         _______ _______ _______ _____ _____    ______ ____
ROOT
ATOM      1  N   UNL     1      19.256  18.132  -8.706  0.00  0.00    +0.000 N 
ENDROOT
BRANCH   1   6
ATOM      2  C   UNL     1      19.942  17.505 -14.403  0.00  0.00    +0.000 C 
ATOM      3  C   UNL     1      19.786  17.678 -12.924  0.00  0.00    +0.000 A 
ATOM      4  C   UNL     1      20.188  16.682 -12.041  0.00  0.00    +0.000 A 
ATOM      5  C   UNL     1      20.012  16.837 -10.656  0.00  0.00    +0.000 A 
ATOM      6  C   UNL     1      19.410  17.975 -10.089  0.00  0.00    +0.000 A 
ATOM      7  C   UNL     1      19.018  18.963 -11.010  0.00  0.00    +0.000 A 
ATOM      8  C   UNL     1      19.190  18.821 -12.397  0.00  0.00    +0.000 A 
ENDBRANCH   1   6
BRANCH   1   9
ATOM      9  C   UNL     1      18.165  18.982  -8.171  0.00  0.00    +0.000 C 
BRANCH   9  10
ATOM     10  C   UNL     1      16.806  18.243  -8.107  0.00  0.00    +0.000 C 
ATOM     11  C   UNL     1      15.816  18.834  -9.105  0.00  0.00    +0.000 C 
BRANCH  10  12
ATOM     12  O   UNL     1      16.962  16.850  -8.408  0.00  0.00    +0.000 OA
ATOM     13  H   UNL     1      16.792  16.725  -9.356  0.00  0.00    +0.000 HD
ENDBRANCH  10  12
ENDBRANCH   9  10
ENDBRANCH   1   9
BRANCH   1  14
ATOM     14  C   UNL     1      20.395  17.920  -7.776  0.00  0.00    +0.000 C 
BRANCH  14  15
ATOM     15  C   UNL     1      20.149  16.736  -6.810  0.00  0.00    +0.000 C 
ATOM     16  C   UNL     1      19.566  17.167  -5.469  0.00  0.00    +0.000 C 
BRANCH  15  17
ATOM     17  O   UNL     1      19.273  15.765  -7.380  0.00  0.00    +0.000 OA
ATOM     18  H   UNL     1      19.069  16.102  -8.276  0.00  0.00    +0.000 HD
ENDBRANCH  15  17
ENDBRANCH  14  15
ENDBRANCH   1  14
TORSDOF 7
ENDMDL
MODEL 9
REMARK VINA RESULT:    -3.318     16.427     18.711
REMARK INTER + INTRA:          -4.790
REMARK INTER:                  -4.255
REMARK INTRA:                  -0.535
REMARK UNBOUND:                -0.307
REMARK  Name = 
REMARK  10 active torsions:
REMARK  status: ('A' for Active; 'I' for Inactive)
REMARK    1  A    between atoms: C_1  and  C_2
REMARK    2  A    between atoms: C_5  and  N_8
REMARK    3  A    between atoms: N_8  and  C_9
REMARK    4  A    between atoms: N_8  and  C_13
REMARK    5  A    between atoms: C_9  and  C_10
REMARK    6  A    between atoms: C_10  and  C_11
REMARK    7  A    between atoms: C_10  and  O_12
REMARK    8  A    between atoms: C_13  and  C_14
REMARK    9  A    between atoms: C_14  and  C_15
REMARK   10  A    between atoms: C_14  and  O_16
REMARK                            x       y       z     vdW  Elec       q    Type
REMARK                         _______ _______ _______ _____ _____    ______ ____
ROOT
ATOM      1  N   UNL     1      19.777  18.071  -8.482  0.00  0.00    +0.000 N 
ENDROOT
BRANCH   1   6
ATOM      2  C   UNL     1      15.047  21.350  -8.927  0.00  0.00    +0.000 C 
ATOM      3  C   UNL     1      16.274  20.495  -8.836  0.00  0.00    +0.000 A 
ATOM      4  C   UNL     1      16.177  19.132  -8.578  0.00  0.00    +0.000 A 
ATOM      5  C   UNL     1      17.332  18.341  -8.464  0.00  0.00    +0.000 A 
ATOM      6  C   UNL     1      18.630  18.869  -8.577  0.00  0.00    +0.000 A 
ATOM      7  C   UNL     1      18.690  20.250  -8.840  0.00  0.00    +0.000 A 
ATOM      8  C   UNL     1      17.543  21.052  -8.958  0.00  0.00    +0.000 A 
ENDBRANCH   1   6
BRANCH   1   9
ATOM      9  C   UNL     1      19.929  16.880  -9.352  0.00  0.00    +0.000 C 
BRANCH   9  10
ATOM     10  C   UNL     1      20.077  15.564  -8.549  0.00  0.00    +0.000 C 
ATOM     11  C   UNL     1      18.719  15.051  -8.087  0.00  0.00    +0.000 C 
BRANCH  10  12
ATOM     12  O   UNL     1      20.691  14.541  -9.346  0.00  0.00    +0.000 OA
ATOM     13  H   UNL     1      20.280  13.692  -9.114  0.00  0.00    +0.000 HD
ENDBRANCH  10  12
ENDBRANCH   9  10
ENDBRANCH   1   9
BRANCH   1  14
ATOM     14  C   UNL     1      20.596  18.047  -7.243  0.00  0.00    +0.000 C 
BRANCH  14  15
ATOM     15  C   UNL     1      19.728  18.142  -5.966  0.00  0.00    +0.000 C 
ATOM     16  C   UNL     1      19.785  16.886  -5.106  0.00  0.00    +0.000 C 
BRANCH  15  17
ATOM     17  O   UNL     1      20.106  19.252  -5.153  0.00  0.00    +0.000 OA
ATOM     18  H   UNL     1      20.854  18.926  -4.612  0.00  0.00    +0.000 HD
ENDBRANCH  15  17
ENDBRANCH  14  15
ENDBRANCH   1  14
TORSDOF 7
ENDMDL
