MODEL 1
REMARK VINA RESULT:    -3.849      0.000      0.000
REMARK INTER + INTRA:          -4.238
REMARK INTER:                  -4.187
REMARK INTRA:                  -0.051
REMARK UNBOUND:                -0.051
REMARK  Name = 
REMARK  3 active torsions:
REMARK  status: ('A' for Active; 'I' for Inactive)
REMARK    1  A    between atoms: C_1  and  O_2
REMARK    2  A    between atoms: O_2  and  C_3
REMARK    3  A    between atoms: C_8  and  O_9
REMARK                            x       y       z     vdW  Elec       q    Type
REMARK                         _______ _______ _______ _____ _____    ______ ____
ROOT
ATOM      1  C   UNL     1      10.444  -7.696   3.501  0.00  0.00    +0.000 A 
ATOM      2  C   UNL     1      10.499  -7.309   2.163  0.00  0.00    +0.000 A 
ATOM      3  C   UNL     1      11.713  -6.883   1.608  0.00  0.00    +0.000 A 
ATOM      4  C   UNL     1      12.871  -6.841   2.386  0.00  0.00    +0.000 A 
ATOM      5  C   UNL     1      12.824  -7.227   3.723  0.00  0.00    +0.000 A 
ATOM      6  C   UNL     1      11.616  -7.648   4.266  0.00  0.00    +0.000 A 
ENDROOT
BRANCH   1   8
ATOM      7  C   UNL     1       8.329  -7.159   4.441  0.00  0.00    +0.000 C 
ATOM      8  O   UNL     1       9.331  -8.132   4.174  0.00  0.00    +0.000 OA
ENDBRANCH   1   8
BRANCH   6   9
ATOM      9  O   UNL     1      11.595  -8.023   5.583  0.00  0.00    +0.000 OA
ATOM     10  H   UNL     1      10.780  -7.621   5.942  0.00  0.00    +0.000 HD
ENDBRANCH   6   9
TORSDOF 2
ENDMDL
MODEL 2
REMARK VINA RESULT:    -3.840      1.962      2.877
REMARK INTER + INTRA:          -4.228
REMARK INTER:                  -4.210
REMARK INTRA:                  -0.018
REMARK UNBOUND:                -0.051
REMARK  Name = 
REMARK  3 active torsions:
REMARK  status: ('A' for Active; 'I' for Inactive)
REMARK    1  A    between atoms: C_1  and  O_2
REMARK    2  A    between atoms: O_2  and  C_3
REMARK    3  A    between atoms: C_8  and  O_9
REMARK                            x       y       z     vdW  Elec       q    Type
REMARK                         _______ _______ _______ _____ _____    ______ ____
ROOT
ATOM      1  C   UNL     1       9.240  -7.429   2.390  0.00  0.00    +0.000 A 
ATOM      2  C   UNL     1      10.573  -7.715   2.096  0.00  0.00    +0.000 A 
ATOM      3  C   UNL     1      11.522  -7.765   3.124  0.00  0.00    +0.000 A 
ATOM      4  C   UNL     1      11.144  -7.529   4.448  0.00  0.00    +0.000 A 
ATOM      5  C   UNL     1       9.815  -7.243   4.750  0.00  0.00    +0.000 A 
ATOM      6  C   UNL     1       8.881  -7.196   3.723  0.00  0.00    +0.000 A 
ENDROOT
BRANCH   1   8
ATOM      7  C   UNL     1       7.636  -8.580   1.068  0.00  0.00    +0.000 C 
ATOM      8  O   UNL     1       8.210  -7.348   1.489  0.00  0.00    +0.000 OA
ENDBRANCH   1   8
BRANCH   6   9
ATOM      9  O   UNL     1       7.580  -6.913   4.046  0.00  0.00    +0.000 OA
ATOM     10  H   UNL     1       7.296  -6.257   3.380  0.00  0.00    +0.000 HD
ENDBRANCH   6   9
TORSDOF 2
ENDMDL
MODEL 3
REMARK VINA RESULT:    -3.747      2.178      2.944
REMARK INTER + INTRA:          -4.127
REMARK INTER:                  -4.082
REMARK INTRA:                  -0.045
REMARK UNBOUND:                -0.051
REMARK  Name = 
REMARK  3 active torsions:
REMARK  status: ('A' for Active; 'I' for Inactive)
REMARK    1  A    between atoms: C_1  and  O_2
REMARK    2  A    between atoms: O_2  and  C_3
REMARK    3  A    between atoms: C_8  and  O_9
REMARK                            x       y       z     vdW  Elec       q    Type
REMARK                         _______ _______ _______ _____ _____    ______ ____
ROOT
ATOM      1  C   UNL     1      10.776  -7.694   1.834  0.00  0.00    +0.000 A 
ATOM      2  C   UNL     1      11.186  -7.391   3.131  0.00  0.00    +0.000 A 
ATOM      3  C   UNL     1      12.529  -7.089   3.389  0.00  0.00    +0.000 A 
ATOM      4  C   UNL     1      13.465  -7.090   2.353  0.00  0.00    +0.000 A 
ATOM      5  C   UNL     1      13.064  -7.390   1.053  0.00  0.00    +0.000 A 
ATOM      6  C   UNL     1      11.729  -7.689   0.808  0.00  0.00    +0.000 A 
ENDROOT
BRANCH   1   8
ATOM      7  C   UNL     1       8.451  -7.239   2.014  0.00  0.00    +0.000 C 
ATOM      8  O   UNL     1       9.500  -8.008   1.438  0.00  0.00    +0.000 OA
ENDBRANCH   1   8
BRANCH   6   9
ATOM      9  O   UNL     1      11.358  -7.982  -0.478  0.00  0.00    +0.000 OA
ATOM     10  H   UNL     1      10.729  -8.722  -0.392  0.00  0.00    +0.000 HD
ENDBRANCH   6   9
TORSDOF 2
ENDMDL
MODEL 4
REMARK VINA RESULT:    -3.730      2.770      4.256
REMARK INTER + INTRA:          -4.108
REMARK INTER:                  -4.063
REMARK INTRA:                  -0.045
REMARK UNBOUND:                -0.051
REMARK  Name = 
REMARK  3 active torsions:
REMARK  status: ('A' for Active; 'I' for Inactive)
REMARK    1  A    between atoms: C_1  and  O_2
REMARK    2  A    between atoms: O_2  and  C_3
REMARK    3  A    between atoms: C_8  and  O_9
REMARK                            x       y       z     vdW  Elec       q    Type
REMARK                         _______ _______ _______ _____ _____    ______ ____
ROOT
ATOM      1  C   UNL     1      11.959  -7.851   0.556  0.00  0.00    +0.000 A 
ATOM      2  C   UNL     1      12.795  -7.042   1.324  0.00  0.00    +0.000 A 
ATOM      3  C   UNL     1      12.509  -6.827   2.679  0.00  0.00    +0.000 A 
ATOM      4  C   UNL     1      11.390  -7.417   3.268  0.00  0.00    +0.000 A 
ATOM      5  C   UNL     1      10.550  -8.227   2.507  0.00  0.00    +0.000 A 
ATOM      6  C   UNL     1      10.841  -8.435   1.165  0.00  0.00    +0.000 A 
ENDROOT
BRANCH   1   8
ATOM      7  C   UNL     1      13.440  -8.428  -1.210  0.00  0.00    +0.000 C 
ATOM      8  O   UNL     1      12.115  -8.147  -0.774  0.00  0.00    +0.000 OA
ENDBRANCH   1   8
BRANCH   6   9
ATOM      9  O   UNL     1      10.000  -9.234   0.437  0.00  0.00    +0.000 OA
ATOM     10  H   UNL     1      10.000  -8.845  -0.458  0.00  0.00    +0.000 HD
ENDBRANCH   6   9
TORSDOF 2
ENDMDL
MODEL 5
REMARK VINA RESULT:    -3.688      1.667      3.183
REMARK INTER + INTRA:          -4.063
REMARK INTER:                  -4.010
REMARK INTRA:                  -0.052
REMARK UNBOUND:                -0.051
REMARK  Name = 
REMARK  3 active torsions:
REMARK  status: ('A' for Active; 'I' for Inactive)
REMARK    1  A    between atoms: C_1  and  O_2
REMARK    2  A    between atoms: O_2  and  C_3
REMARK    3  A    between atoms: C_8  and  O_9
REMARK                            x       y       z     vdW  Elec       q    Type
REMARK                         _______ _______ _______ _____ _____    ______ ____
ROOT
ATOM      1  C   UNL     1      10.038  -7.912   3.780  0.00  0.00    +0.000 A 
ATOM      2  C   UNL     1      10.574  -8.643   2.721  0.00  0.00    +0.000 A 
ATOM      3  C   UNL     1       9.887  -8.714   1.502  0.00  0.00    +0.000 A 
ATOM      4  C   UNL     1       8.666  -8.058   1.338  0.00  0.00    +0.000 A 
ATOM      5  C   UNL     1       8.125  -7.325   2.392  0.00  0.00    +0.000 A 
ATOM      6  C   UNL     1       8.812  -7.260   3.597  0.00  0.00    +0.000 A 
ENDROOT
BRANCH   1   8
ATOM      7  C   UNL     1      11.847  -7.079   5.077  0.00  0.00    +0.000 C 
ATOM      8  O   UNL     1      10.597  -7.757   5.023  0.00  0.00    +0.000 OA
ENDBRANCH   1   8
BRANCH   6   9
ATOM      9  O   UNL     1       8.260  -6.534   4.618  0.00  0.00    +0.000 OA
ATOM     10  H   UNL     1       8.801  -6.754   5.401  0.00  0.00    +0.000 HD
ENDBRANCH   6   9
TORSDOF 2
ENDMDL
MODEL 6
REMARK VINA RESULT:    -3.672      1.090      2.967
REMARK INTER + INTRA:          -4.045
REMARK INTER:                  -3.992
REMARK INTRA:                  -0.053
REMARK UNBOUND:                -0.051
REMARK  Name = 
REMARK  3 active torsions:
REMARK  status: ('A' for Active; 'I' for Inactive)
REMARK    1  A    between atoms: C_1  and  O_2
REMARK    2  A    between atoms: O_2  and  C_3
REMARK    3  A    between atoms: C_8  and  O_9
REMARK                            x       y       z     vdW  Elec       q    Type
REMARK                         _______ _______ _______ _____ _____    ______ ____
ROOT
ATOM      1  C   UNL     1      12.382  -7.405   4.098  0.00  0.00    +0.000 A 
ATOM      2  C   UNL     1      12.726  -6.901   2.844  0.00  0.00    +0.000 A 
ATOM      3  C   UNL     1      11.765  -6.841   1.827  0.00  0.00    +0.000 A 
ATOM      4  C   UNL     1      10.461  -7.284   2.058  0.00  0.00    +0.000 A 
ATOM      5  C   UNL     1      10.110  -7.789   3.308  0.00  0.00    +0.000 A 
ATOM      6  C   UNL     1      11.070  -7.845   4.311  0.00  0.00    +0.000 A 
ENDROOT
BRANCH   1   8
ATOM      7  C   UNL     1      14.308  -8.425   5.046  0.00  0.00    +0.000 C 
ATOM      8  O   UNL     1      13.216  -7.523   5.181  0.00  0.00    +0.000 OA
ENDBRANCH   1   8
BRANCH   6   9
ATOM      9  O   UNL     1      10.701  -8.345   5.531  0.00  0.00    +0.000 OA
ATOM     10  H   UNL     1       9.857  -8.807   5.366  0.00  0.00    +0.000 HD
ENDBRANCH   6   9
TORSDOF 2
ENDMDL
MODEL 7
REMARK VINA RESULT:    -3.642      1.221      3.115
REMARK INTER + INTRA:          -4.012
REMARK INTER:                  -3.967
REMARK INTRA:                  -0.045
REMARK UNBOUND:                -0.051
REMARK  Name = 
REMARK  3 active torsions:
REMARK  status: ('A' for Active; 'I' for Inactive)
REMARK    1  A    between atoms: C_1  and  O_2
REMARK    2  A    between atoms: O_2  and  C_3
REMARK    3  A    between atoms: C_8  and  O_9
REMARK                            x       y       z     vdW  Elec       q    Type
REMARK                         _______ _______ _______ _____ _____    ______ ____
ROOT
ATOM      1  C   UNL     1      11.005  -7.540   3.170  0.00  0.00    +0.000 A 
ATOM      2  C   UNL     1      10.113  -7.342   2.117  0.00  0.00    +0.000 A 
ATOM      3  C   UNL     1       8.743  -7.209   2.376  0.00  0.00    +0.000 A 
ATOM      4  C   UNL     1       8.260  -7.273   3.684  0.00  0.00    +0.000 A 
ATOM      5  C   UNL     1       9.145  -7.470   4.742  0.00  0.00    +0.000 A 
ATOM      6  C   UNL     1      10.502  -7.602   4.476  0.00  0.00    +0.000 A 
ENDROOT
BRANCH   1   8
ATOM      7  C   UNL     1      13.029  -6.816   2.157  0.00  0.00    +0.000 C 
ATOM      8  O   UNL     1      12.365  -7.687   3.065  0.00  0.00    +0.000 OA
ENDBRANCH   1   8
BRANCH   6   9
ATOM      9  O   UNL     1      11.352  -7.795   5.532  0.00  0.00    +0.000 OA
ATOM     10  H   UNL     1      10.871  -8.398   6.131  0.00  0.00    +0.000 HD
ENDBRANCH   6   9
TORSDOF 2
ENDMDL
MODEL 8
REMARK VINA RESULT:    -3.602      1.255      2.275
REMARK INTER + INTRA:          -3.969
REMARK INTER:                  -3.931
REMARK INTRA:                  -0.038
REMARK UNBOUND:                -0.051
REMARK  Name = 
REMARK  3 active torsions:
REMARK  status: ('A' for Active; 'I' for Inactive)
REMARK    1  A    between atoms: C_1  and  O_2
REMARK    2  A    between atoms: O_2  and  C_3
REMARK    3  A    between atoms: C_8  and  O_9
REMARK                            x       y       z     vdW  Elec       q    Type
REMARK                         _______ _______ _______ _____ _____    ______ ____
ROOT
ATOM      1  C   UNL     1      10.248  -7.576   3.849  0.00  0.00    +0.000 A 
ATOM      2  C   UNL     1      11.105  -7.401   4.935  0.00  0.00    +0.000 A 
ATOM      3  C   UNL     1      12.470  -7.170   4.719  0.00  0.00    +0.000 A 
ATOM      4  C   UNL     1      12.981  -7.113   3.422  0.00  0.00    +0.000 A 
ATOM      5  C   UNL     1      12.132  -7.286   2.332  0.00  0.00    +0.000 A 
ATOM      6  C   UNL     1      10.780  -7.516   2.555  0.00  0.00    +0.000 A 
ENDROOT
BRANCH   1   8
ATOM      7  C   UNL     1       8.275  -7.603   5.173  0.00  0.00    +0.000 C 
ATOM      8  O   UNL     1       8.898  -7.810   3.911  0.00  0.00    +0.000 OA
ENDBRANCH   1   8
BRANCH   6   9
ATOM      9  O   UNL     1       9.964  -7.683   1.468  0.00  0.00    +0.000 OA
ATOM     10  H   UNL     1       9.339  -8.385   1.732  0.00  0.00    +0.000 HD
ENDBRANCH   6   9
TORSDOF 2
ENDMDL
MODEL 9
REMARK VINA RESULT:    -3.597      5.977      7.111
REMARK INTER + INTRA:          -3.964
REMARK INTER:                  -3.922
REMARK INTRA:                  -0.042
REMARK UNBOUND:                -0.051
REMARK  Name = 
REMARK  3 active torsions:
REMARK  status: ('A' for Active; 'I' for Inactive)
REMARK    1  A    between atoms: C_1  and  O_2
REMARK    2  A    between atoms: O_2  and  C_3
REMARK    3  A    between atoms: C_8  and  O_9
REMARK                            x       y       z     vdW  Elec       q    Type
REMARK                         _______ _______ _______ _____ _____    ______ ____
ROOT
ATOM      1  C   UNL     1      14.866  -8.017  -1.344  0.00  0.00    +0.000 A 
ATOM      2  C   UNL     1      15.897  -7.236  -0.822  0.00  0.00    +0.000 A 
ATOM      3  C   UNL     1      17.158  -7.245  -1.431  0.00  0.00    +0.000 A 
ATOM      4  C   UNL     1      17.393  -8.032  -2.560  0.00  0.00    +0.000 A 
ATOM      5  C   UNL     1      16.368  -8.814  -3.088  0.00  0.00    +0.000 A 
ATOM      6  C   UNL     1      15.120  -8.799  -2.477  0.00  0.00    +0.000 A 
ENDROOT
BRANCH   1   8
ATOM      7  C   UNL     1      13.439  -7.977   0.556  0.00  0.00    +0.000 C 
ATOM      8  O   UNL     1      13.588  -8.106  -0.853  0.00  0.00    +0.000 OA
ENDBRANCH   1   8
BRANCH   6   9
ATOM      9  O   UNL     1      14.129  -9.576  -3.013  0.00  0.00    +0.000 OA
ATOM     10  H   UNL     1      14.524 -10.466  -3.091  0.00  0.00    +0.000 HD
ENDBRANCH   6   9
TORSDOF 2
ENDMDL
