MODEL 1
REMARK VINA RESULT:    -5.293      0.000      0.000
REMARK INTER + INTRA:          -7.641
REMARK INTER:                  -7.149
REMARK INTRA:                  -0.491
REMARK UNBOUND:                -0.491
REMARK  Name = 
REMARK  10 active torsions:
REMARK  status: ('A' for Active; 'I' for Inactive)
REMARK    1  A    between atoms: C_1  and  C_2
REMARK    2  A    between atoms: C_5  and  N_8
REMARK    3  A    between atoms: N_8  and  C_9
REMARK    4  A    between atoms: N_8  and  C_13
REMARK    5  A    between atoms: C_9  and  C_10
REMARK    6  A    between atoms: C_10  and  C_11
REMARK    7  A    between atoms: C_10  and  O_12
REMARK    8  A    between atoms: C_13  and  C_14
REMARK    9  A    between atoms: C_14  and  C_15
REMARK   10  A    between atoms: C_14  and  O_16
REMARK                            x       y       z     vdW  Elec       q    Type
REMARK                         _______ _______ _______ _____ _____    ______ ____
ROOT
ATOM      1  N   UNL     1      15.179  -8.521   0.226  0.00  0.00    +0.000 N 
ENDROOT
BRANCH   1   6
ATOM      2  C   UNL     1      12.453  -7.183   5.136  0.00  0.00    +0.000 C 
ATOM      3  C   UNL     1      13.176  -7.511   3.866  0.00  0.00    +0.000 A 
ATOM      4  C   UNL     1      12.764  -6.976   2.650  0.00  0.00    +0.000 A 
ATOM      5  C   UNL     1      13.427  -7.311   1.458  0.00  0.00    +0.000 A 
ATOM      6  C   UNL     1      14.510  -8.207   1.416  0.00  0.00    +0.000 A 
ATOM      7  C   UNL     1      14.902  -8.727   2.663  0.00  0.00    +0.000 A 
ATOM      8  C   UNL     1      14.249  -8.399   3.863  0.00  0.00    +0.000 A 
ENDBRANCH   1   6
BRANCH   1   9
ATOM      9  C   UNL     1      15.482  -7.456  -0.760  0.00  0.00    +0.000 C 
BRANCH   9  10
ATOM     10  C   UNL     1      16.642  -6.534  -0.311  0.00  0.00    +0.000 C 
ATOM     11  C   UNL     1      17.606  -6.271  -1.461  0.00  0.00    +0.000 C 
BRANCH  10  12
ATOM     12  O   UNL     1      16.145  -5.270   0.150  0.00  0.00    +0.000 OA
ATOM     13  H   UNL     1      15.671  -5.419   0.985  0.00  0.00    +0.000 HD
ENDBRANCH  10  12
ENDBRANCH   9  10
ENDBRANCH   1   9
BRANCH   1  14
ATOM     14  C   UNL     1      15.153  -9.898  -0.330  0.00  0.00    +0.000 C 
BRANCH  14  15
ATOM     15  C   UNL     1      15.931 -10.005  -1.664  0.00  0.00    +0.000 C 
ATOM     16  C   UNL     1      17.181 -10.872  -1.561  0.00  0.00    +0.000 C 
BRANCH  15  17
ATOM     17  O   UNL     1      15.115 -10.528  -2.710  0.00  0.00    +0.000 OA
ATOM     18  H   UNL     1      15.341  -9.994  -3.498  0.00  0.00    +0.000 HD
ENDBRANCH  15  17
ENDBRANCH  14  15
ENDBRANCH   1  14
TORSDOF 7
ENDMDL
MODEL 2
REMARK VINA RESULT:    -5.279      0.248      3.342
REMARK INTER + INTRA:          -7.621
REMARK INTER:                  -7.122
REMARK INTRA:                  -0.500
REMARK UNBOUND:                -0.491
REMARK  Name = 
REMARK  10 active torsions:
REMARK  status: ('A' for Active; 'I' for Inactive)
REMARK    1  A    between atoms: C_1  and  C_2
REMARK    2  A    between atoms: C_5  and  N_8
REMARK    3  A    between atoms: N_8  and  C_9
REMARK    4  A    between atoms: N_8  and  C_13
REMARK    5  A    between atoms: C_9  and  C_10
REMARK    6  A    between atoms: C_10  and  C_11
REMARK    7  A    between atoms: C_10  and  O_12
REMARK    8  A    between atoms: C_13  and  C_14
REMARK    9  A    between atoms: C_14  and  C_15
REMARK   10  A    between atoms: C_14  and  O_16
REMARK                            x       y       z     vdW  Elec       q    Type
REMARK                         _______ _______ _______ _____ _____    ______ ____
ROOT
ATOM      1  N   UNL     1      14.800  -8.419  -0.095  0.00  0.00    +0.000 N 
ENDROOT
BRANCH   1   6
ATOM      2  C   UNL     1      12.649  -7.209   5.124  0.00  0.00    +0.000 C 
ATOM      3  C   UNL     1      13.191  -7.542   3.768  0.00  0.00    +0.000 A 
ATOM      4  C   UNL     1      14.285  -8.390   3.624  0.00  0.00    +0.000 A 
ATOM      5  C   UNL     1      14.808  -8.674   2.352  0.00  0.00    +0.000 A 
ATOM      6  C   UNL     1      14.286  -8.115   1.172  0.00  0.00    +0.000 A 
ATOM      7  C   UNL     1      13.180  -7.265   1.355  0.00  0.00    +0.000 A 
ATOM      8  C   UNL     1      12.646  -6.973   2.621  0.00  0.00    +0.000 A 
ENDBRANCH   1   6
BRANCH   1   9
ATOM      9  C   UNL     1      15.241  -9.800  -0.407  0.00  0.00    +0.000 C 
BRANCH   9  10
ATOM     10  C   UNL     1      15.964  -9.905  -1.772  0.00  0.00    +0.000 C 
ATOM     11  C   UNL     1      17.235 -10.739  -1.653  0.00  0.00    +0.000 C 
BRANCH  10  12
ATOM     12  O   UNL     1      15.120 -10.520  -2.755  0.00  0.00    +0.000 OA
ATOM     13  H   UNL     1      14.510 -11.120  -2.296  0.00  0.00    +0.000 HD
ENDBRANCH  10  12
ENDBRANCH   9  10
ENDBRANCH   1   9
BRANCH   1  14
ATOM     14  C   UNL     1      15.393  -7.365  -0.957  0.00  0.00    +0.000 C 
BRANCH  14  15
ATOM     15  C   UNL     1      16.527  -6.592  -0.240  0.00  0.00    +0.000 C 
ATOM     16  C   UNL     1      17.733  -6.330  -1.134  0.00  0.00    +0.000 C 
BRANCH  15  17
ATOM     17  O   UNL     1      16.072  -5.338   0.266  0.00  0.00    +0.000 OA
ATOM     18  H   UNL     1      15.230  -5.540   0.723  0.00  0.00    +0.000 HD
ENDBRANCH  15  17
ENDBRANCH  14  15
ENDBRANCH   1  14
TORSDOF 7
ENDMDL
MODEL 3
REMARK VINA RESULT:    -5.189      5.136      7.605
REMARK INTER + INTRA:          -7.501
REMARK INTER:                  -7.292
REMARK INTRA:                  -0.209
REMARK UNBOUND:                -0.491
REMARK  Name = 
REMARK  10 active torsions:
REMARK  status: ('A' for Active; 'I' for Inactive)
REMARK    1  A    between atoms: C_1  and  C_2
REMARK    2  A    between atoms: C_5  and  N_8
REMARK    3  A    between atoms: N_8  and  C_9
REMARK    4  A    between atoms: N_8  and  C_13
REMARK    5  A    between atoms: C_9  and  C_10
REMARK    6  A    between atoms: C_10  and  C_11
REMARK    7  A    between atoms: C_10  and  O_12
REMARK    8  A    between atoms: C_13  and  C_14
REMARK    9  A    between atoms: C_14  and  C_15
REMARK   10  A    between atoms: C_14  and  O_16
REMARK                            x       y       z     vdW  Elec       q    Type
REMARK                         _______ _______ _______ _____ _____    ______ ____
ROOT
ATOM      1  N   UNL     1       9.384  -7.721   3.100  0.00  0.00    +0.000 N 
ENDROOT
BRANCH   1   6
ATOM      2  C   UNL     1      14.846  -7.087   1.341  0.00  0.00    +0.000 C 
ATOM      3  C   UNL     1      13.433  -7.276   1.800  0.00  0.00    +0.000 A 
ATOM      4  C   UNL     1      12.409  -7.501   0.886  0.00  0.00    +0.000 A 
ATOM      5  C   UNL     1      11.081  -7.647   1.320  0.00  0.00    +0.000 A 
ATOM      6  C   UNL     1      10.708  -7.554   2.673  0.00  0.00    +0.000 A 
ATOM      7  C   UNL     1      11.769  -7.328   3.569  0.00  0.00    +0.000 A 
ATOM      8  C   UNL     1      13.101  -7.182   3.149  0.00  0.00    +0.000 A 
ENDBRANCH   1   6
BRANCH   1   9
ATOM      9  C   UNL     1       8.290  -6.972   2.438  0.00  0.00    +0.000 C 
BRANCH   9  10
ATOM     10  C   UNL     1       7.894  -7.574   1.067  0.00  0.00    +0.000 C 
ATOM     11  C   UNL     1       7.486  -9.035   1.212  0.00  0.00    +0.000 C 
BRANCH  10  12
ATOM     12  O   UNL     1       6.792  -6.860   0.490  0.00  0.00    +0.000 OA
ATOM     13  H   UNL     1       7.139  -6.293  -0.219  0.00  0.00    +0.000 HD
ENDBRANCH  10  12
ENDBRANCH   9  10
ENDBRANCH   1   9
BRANCH   1  14
ATOM     14  C   UNL     1       9.074  -8.197   4.472  0.00  0.00    +0.000 C 
BRANCH  14  15
ATOM     15  C   UNL     1       7.550  -8.280   4.731  0.00  0.00    +0.000 C 
ATOM     16  C   UNL     1       7.025  -9.710   4.770  0.00  0.00    +0.000 C 
BRANCH  15  17
ATOM     17  O   UNL     1       7.188  -7.643   5.955  0.00  0.00    +0.000 OA
ATOM     18  H   UNL     1       6.608  -6.900   5.692  0.00  0.00    +0.000 HD
ENDBRANCH  15  17
ENDBRANCH  14  15
ENDBRANCH   1  14
TORSDOF 7
ENDMDL
MODEL 4
REMARK VINA RESULT:    -5.156      5.050      7.213
REMARK INTER + INTRA:          -7.456
REMARK INTER:                  -6.890
REMARK INTRA:                  -0.566
REMARK UNBOUND:                -0.491
REMARK  Name = 
REMARK  10 active torsions:
REMARK  status: ('A' for Active; 'I' for Inactive)
REMARK    1  A    between atoms: C_1  and  C_2
REMARK    2  A    between atoms: C_5  and  N_8
REMARK    3  A    between atoms: N_8  and  C_9
REMARK    4  A    between atoms: N_8  and  C_13
REMARK    5  A    between atoms: C_9  and  C_10
REMARK    6  A    between atoms: C_10  and  C_11
REMARK    7  A    between atoms: C_10  and  O_12
REMARK    8  A    between atoms: C_13  and  C_14
REMARK    9  A    between atoms: C_14  and  C_15
REMARK   10  A    between atoms: C_14  and  O_16
REMARK                            x       y       z     vdW  Elec       q    Type
REMARK                         _______ _______ _______ _____ _____    ______ ____
ROOT
ATOM      1  N   UNL     1       9.955  -7.905   3.780  0.00  0.00    +0.000 N 
ENDROOT
BRANCH   1   6
ATOM      2  C   UNL     1      15.338  -9.374   5.261  0.00  0.00    +0.000 C 
ATOM      3  C   UNL     1      13.947  -8.997   4.853  0.00  0.00    +0.000 A 
ATOM      4  C   UNL     1      13.616  -7.673   4.583  0.00  0.00    +0.000 A 
ATOM      5  C   UNL     1      12.303  -7.321   4.230  0.00  0.00    +0.000 A 
ATOM      6  C   UNL     1      11.258  -8.260   4.151  0.00  0.00    +0.000 A 
ATOM      7  C   UNL     1      11.630  -9.589   4.428  0.00  0.00    +0.000 A 
ATOM      8  C   UNL     1      12.940  -9.954   4.781  0.00  0.00    +0.000 A 
ENDBRANCH   1   6
BRANCH   1   9
ATOM      9  C   UNL     1       9.656  -7.545   2.373  0.00  0.00    +0.000 C 
BRANCH   9  10
ATOM     10  C   UNL     1       9.290  -8.774   1.504  0.00  0.00    +0.000 C 
ATOM     11  C   UNL     1       7.828  -8.722   1.075  0.00  0.00    +0.000 C 
BRANCH  10  12
ATOM     12  O   UNL     1      10.099  -8.826   0.321  0.00  0.00    +0.000 OA
ATOM     13  H   UNL     1      10.020  -9.718  -0.059  0.00  0.00    +0.000 HD
ENDBRANCH  10  12
ENDBRANCH   9  10
ENDBRANCH   1   9
BRANCH   1  14
ATOM     14  C   UNL     1       8.986  -7.384   4.777  0.00  0.00    +0.000 C 
BRANCH  14  15
ATOM     15  C   UNL     1       7.669  -8.197   4.792  0.00  0.00    +0.000 C 
ATOM     16  C   UNL     1       7.893  -9.703   4.728  0.00  0.00    +0.000 C 
BRANCH  15  17
ATOM     17  O   UNL     1       6.888  -7.915   5.952  0.00  0.00    +0.000 OA
ATOM     18  H   UNL     1       7.300  -7.120   6.347  0.00  0.00    +0.000 HD
ENDBRANCH  15  17
ENDBRANCH  14  15
ENDBRANCH   1  14
TORSDOF 7
ENDMDL
MODEL 5
REMARK VINA RESULT:    -5.128      7.135      9.005
REMARK INTER + INTRA:          -7.418
REMARK INTER:                  -6.674
REMARK INTRA:                  -0.743
REMARK UNBOUND:                -0.491
REMARK  Name = 
REMARK  10 active torsions:
REMARK  status: ('A' for Active; 'I' for Inactive)
REMARK    1  A    between atoms: C_1  and  C_2
REMARK    2  A    between atoms: C_5  and  N_8
REMARK    3  A    between atoms: N_8  and  C_9
REMARK    4  A    between atoms: N_8  and  C_13
REMARK    5  A    between atoms: C_9  and  C_10
REMARK    6  A    between atoms: C_10  and  C_11
REMARK    7  A    between atoms: C_10  and  O_12
REMARK    8  A    between atoms: C_13  and  C_14
REMARK    9  A    between atoms: C_14  and  C_15
REMARK   10  A    between atoms: C_14  and  O_16
REMARK                            x       y       z     vdW  Elec       q    Type
REMARK                         _______ _______ _______ _____ _____    ______ ____
ROOT
ATOM      1  N   UNL     1       8.397  -9.358   3.118  0.00  0.00    +0.000 N 
ENDROOT
BRANCH   1   6
ATOM      2  C   UNL     1       3.457 -12.323   2.751  0.00  0.00    +0.000 C 
ATOM      3  C   UNL     1       4.752 -11.575   2.843  0.00  0.00    +0.000 A 
ATOM      4  C   UNL     1       5.359 -11.347   4.074  0.00  0.00    +0.000 A 
ATOM      5  C   UNL     1       6.557 -10.619   4.157  0.00  0.00    +0.000 A 
ATOM      6  C   UNL     1       7.192 -10.066   3.030  0.00  0.00    +0.000 A 
ATOM      7  C   UNL     1       6.551 -10.318   1.803  0.00  0.00    +0.000 A 
ATOM      8  C   UNL     1       5.354 -11.046   1.705  0.00  0.00    +0.000 A 
ENDBRANCH   1   6
BRANCH   1   9
ATOM      9  C   UNL     1       8.865  -8.541   1.972  0.00  0.00    +0.000 C 
BRANCH   9  10
ATOM     10  C   UNL     1       8.300  -7.100   1.992  0.00  0.00    +0.000 C 
ATOM     11  C   UNL     1       7.351  -6.871   0.821  0.00  0.00    +0.000 C 
BRANCH  10  12
ATOM     12  O   UNL     1       7.578  -6.846   3.205  0.00  0.00    +0.000 OA
ATOM     13  H   UNL     1       8.141  -7.112   3.951  0.00  0.00    +0.000 HD
ENDBRANCH  10  12
ENDBRANCH   9  10
ENDBRANCH   1   9
BRANCH   1  14
ATOM     14  C   UNL     1       9.462  -9.767   4.069  0.00  0.00    +0.000 C 
BRANCH  14  15
ATOM     15  C   UNL     1       9.654  -8.739   5.210  0.00  0.00    +0.000 C 
ATOM     16  C   UNL     1      10.703  -7.680   4.892  0.00  0.00    +0.000 C 
BRANCH  15  17
ATOM     17  O   UNL     1       8.434  -8.072   5.529  0.00  0.00    +0.000 OA
ATOM     18  H   UNL     1       7.863  -8.202   4.746  0.00  0.00    +0.000 HD
ENDBRANCH  15  17
ENDBRANCH  14  15
ENDBRANCH   1  14
TORSDOF 7
ENDMDL
MODEL 6
REMARK VINA RESULT:    -5.126      4.729      7.369
REMARK INTER + INTRA:          -7.416
REMARK INTER:                  -7.084
REMARK INTRA:                  -0.332
REMARK UNBOUND:                -0.491
REMARK  Name = 
REMARK  10 active torsions:
REMARK  status: ('A' for Active; 'I' for Inactive)
REMARK    1  A    between atoms: C_1  and  C_2
REMARK    2  A    between atoms: C_5  and  N_8
REMARK    3  A    between atoms: N_8  and  C_9
REMARK    4  A    between atoms: N_8  and  C_13
REMARK    5  A    between atoms: C_9  and  C_10
REMARK    6  A    between atoms: C_10  and  C_11
REMARK    7  A    between atoms: C_10  and  O_12
REMARK    8  A    between atoms: C_13  and  C_14
REMARK    9  A    between atoms: C_14  and  C_15
REMARK   10  A    between atoms: C_14  and  O_16
REMARK                            x       y       z     vdW  Elec       q    Type
REMARK                         _______ _______ _______ _____ _____    ______ ____
ROOT
ATOM      1  N   UNL     1       9.686  -7.369   2.999  0.00  0.00    +0.000 N 
ENDROOT
BRANCH   1   6
ATOM      2  C   UNL     1      15.337  -7.764   1.890  0.00  0.00    +0.000 C 
ATOM      3  C   UNL     1      13.874  -7.637   2.184  0.00  0.00    +0.000 A 
ATOM      4  C   UNL     1      13.370  -7.940   3.444  0.00  0.00    +0.000 A 
ATOM      5  C   UNL     1      11.993  -7.848   3.706  0.00  0.00    +0.000 A 
ATOM      6  C   UNL     1      11.055  -7.477   2.726  0.00  0.00    +0.000 A 
ATOM      7  C   UNL     1      11.600  -7.177   1.464  0.00  0.00    +0.000 A 
ATOM      8  C   UNL     1      12.975  -7.262   1.190  0.00  0.00    +0.000 A 
ENDBRANCH   1   6
BRANCH   1   9
ATOM      9  C   UNL     1       8.747  -6.940   1.934  0.00  0.00    +0.000 C 
BRANCH   9  10
ATOM     10  C   UNL     1       7.952  -8.120   1.324  0.00  0.00    +0.000 C 
ATOM     11  C   UNL     1       6.933  -7.622   0.306  0.00  0.00    +0.000 C 
BRANCH  10  12
ATOM     12  O   UNL     1       8.827  -9.043   0.661  0.00  0.00    +0.000 OA
ATOM     13  H   UNL     1       9.593  -9.199   1.238  0.00  0.00    +0.000 HD
ENDBRANCH  10  12
ENDBRANCH   9  10
ENDBRANCH   1   9
BRANCH   1  14
ATOM     14  C   UNL     1       9.191  -7.168   4.385  0.00  0.00    +0.000 C 
BRANCH  14  15
ATOM     15  C   UNL     1       7.938  -8.025   4.688  0.00  0.00    +0.000 C 
ATOM     16  C   UNL     1       8.230  -9.520   4.734  0.00  0.00    +0.000 C 
BRANCH  15  17
ATOM     17  O   UNL     1       7.334  -7.654   5.927  0.00  0.00    +0.000 OA
ATOM     18  H   UNL     1       6.933  -8.479   6.269  0.00  0.00    +0.000 HD
ENDBRANCH  15  17
ENDBRANCH  14  15
ENDBRANCH   1  14
TORSDOF 7
ENDMDL
MODEL 7
REMARK VINA RESULT:    -5.089      5.140      7.589
REMARK INTER + INTRA:          -7.365
REMARK INTER:                  -6.962
REMARK INTRA:                  -0.403
REMARK UNBOUND:                -0.491
REMARK  Name = 
REMARK  10 active torsions:
REMARK  status: ('A' for Active; 'I' for Inactive)
REMARK    1  A    between atoms: C_1  and  C_2
REMARK    2  A    between atoms: C_5  and  N_8
REMARK    3  A    between atoms: N_8  and  C_9
REMARK    4  A    between atoms: N_8  and  C_13
REMARK    5  A    between atoms: C_9  and  C_10
REMARK    6  A    between atoms: C_10  and  C_11
REMARK    7  A    between atoms: C_10  and  O_12
REMARK    8  A    between atoms: C_13  and  C_14
REMARK    9  A    between atoms: C_14  and  C_15
REMARK   10  A    between atoms: C_14  and  O_16
REMARK                            x       y       z     vdW  Elec       q    Type
REMARK                         _______ _______ _______ _____ _____    ______ ____
ROOT
ATOM      1  N   UNL     1       9.190  -7.370   2.623  0.00  0.00    +0.000 N 
ENDROOT
BRANCH   1   6
ATOM      2  C   UNL     1      14.845  -7.525   1.471  0.00  0.00    +0.000 C 
ATOM      3  C   UNL     1      13.377  -7.460   1.765  0.00  0.00    +0.000 A 
ATOM      4  C   UNL     1      12.917  -7.227   3.057  0.00  0.00    +0.000 A 
ATOM      5  C   UNL     1      11.540  -7.197   3.331  0.00  0.00    +0.000 A 
ATOM      6  C   UNL     1      10.562  -7.420   2.345  0.00  0.00    +0.000 A 
ATOM      7  C   UNL     1      11.063  -7.651   1.051  0.00  0.00    +0.000 A 
ATOM      8  C   UNL     1      12.438  -7.681   0.762  0.00  0.00    +0.000 A 
ENDBRANCH   1   6
BRANCH   1   9
ATOM      9  C   UNL     1       8.720  -7.162   4.013  0.00  0.00    +0.000 C 
BRANCH   9  10
ATOM     10  C   UNL     1       7.824  -8.317   4.523  0.00  0.00    +0.000 C 
ATOM     11  C   UNL     1       8.666  -9.515   4.945  0.00  0.00    +0.000 C 
BRANCH  10  12
ATOM     12  O   UNL     1       7.043  -7.903   5.653  0.00  0.00    +0.000 OA
ATOM     13  H   UNL     1       7.507  -7.167   6.086  0.00  0.00    +0.000 HD
ENDBRANCH  10  12
ENDBRANCH   9  10
ENDBRANCH   1   9
BRANCH   1  14
ATOM     14  C   UNL     1       8.199  -8.005   1.717  0.00  0.00    +0.000 C 
BRANCH  14  15
ATOM     15  C   UNL     1       7.558  -6.985   0.745  0.00  0.00    +0.000 C 
ATOM     16  C   UNL     1       6.417  -7.575  -0.076  0.00  0.00    +0.000 C 
BRANCH  15  17
ATOM     17  O   UNL     1       7.060  -5.840   1.435  0.00  0.00    +0.000 OA
ATOM     18  H   UNL     1       7.828  -5.490   1.931  0.00  0.00    +0.000 HD
ENDBRANCH  15  17
ENDBRANCH  14  15
ENDBRANCH   1  14
TORSDOF 7
ENDMDL
MODEL 8
REMARK VINA RESULT:    -4.950      4.523      6.851
REMARK INTER + INTRA:          -7.177
REMARK INTER:                  -6.499
REMARK INTRA:                  -0.678
REMARK UNBOUND:                -0.491
REMARK  Name = 
REMARK  10 active torsions:
REMARK  status: ('A' for Active; 'I' for Inactive)
REMARK    1  A    between atoms: C_1  and  C_2
REMARK    2  A    between atoms: C_5  and  N_8
REMARK    3  A    between atoms: N_8  and  C_9
REMARK    4  A    between atoms: N_8  and  C_13
REMARK    5  A    between atoms: C_9  and  C_10
REMARK    6  A    between atoms: C_10  and  C_11
REMARK    7  A    between atoms: C_10  and  O_12
REMARK    8  A    between atoms: C_13  and  C_14
REMARK    9  A    between atoms: C_14  and  C_15
REMARK   10  A    between atoms: C_14  and  O_16
REMARK                            x       y       z     vdW  Elec       q    Type
REMARK                         _______ _______ _______ _____ _____    ______ ____
ROOT
ATOM      1  N   UNL     1      10.471  -8.144   3.499  0.00  0.00    +0.000 N 
ENDROOT
BRANCH   1   6
ATOM      2  C   UNL     1      14.938  -7.507  -0.103  0.00  0.00    +0.000 C 
ATOM      3  C   UNL     1      13.794  -7.683   0.849  0.00  0.00    +0.000 A 
ATOM      4  C   UNL     1      12.994  -8.820   0.802  0.00  0.00    +0.000 A 
ATOM      5  C   UNL     1      11.905  -8.966   1.676  0.00  0.00    +0.000 A 
ATOM      6  C   UNL     1      11.547  -7.983   2.617  0.00  0.00    +0.000 A 
ATOM      7  C   UNL     1      12.379  -6.848   2.637  0.00  0.00    +0.000 A 
ATOM      8  C   UNL     1      13.473  -6.691   1.770  0.00  0.00    +0.000 A 
ENDBRANCH   1   6
BRANCH   1   9
ATOM      9  C   UNL     1       9.255  -7.309   3.348  0.00  0.00    +0.000 C 
BRANCH   9  10
ATOM     10  C   UNL     1       8.628  -7.412   1.937  0.00  0.00    +0.000 C 
ATOM     11  C   UNL     1       8.040  -8.799   1.702  0.00  0.00    +0.000 C 
BRANCH  10  12
ATOM     12  O   UNL     1       7.577  -6.451   1.769  0.00  0.00    +0.000 OA
ATOM     13  H   UNL     1       7.943  -5.684   1.298  0.00  0.00    +0.000 HD
ENDBRANCH  10  12
ENDBRANCH   9  10
ENDBRANCH   1   9
BRANCH   1  14
ATOM     14  C   UNL     1      10.667  -8.723   4.853  0.00  0.00    +0.000 C 
BRANCH  14  15
ATOM     15  C   UNL     1       9.780  -9.969   5.089  0.00  0.00    +0.000 C 
ATOM     16  C   UNL     1       9.984 -11.057   4.041  0.00  0.00    +0.000 C 
BRANCH  15  17
ATOM     17  O   UNL     1      10.010 -10.545   6.374  0.00  0.00    +0.000 OA
ATOM     18  H   UNL     1       9.240 -10.275   6.913  0.00  0.00    +0.000 HD
ENDBRANCH  15  17
ENDBRANCH  14  15
ENDBRANCH   1  14
TORSDOF 7
ENDMDL
MODEL 9
REMARK VINA RESULT:    -4.921      3.849      5.921
REMARK INTER + INTRA:          -7.138
REMARK INTER:                  -6.584
REMARK INTRA:                  -0.553
REMARK UNBOUND:                -0.491
REMARK  Name = 
REMARK  10 active torsions:
REMARK  status: ('A' for Active; 'I' for Inactive)
REMARK    1  A    between atoms: C_1  and  C_2
REMARK    2  A    between atoms: C_5  and  N_8
REMARK    3  A    between atoms: N_8  and  C_9
REMARK    4  A    between atoms: N_8  and  C_13
REMARK    5  A    between atoms: C_9  and  C_10
REMARK    6  A    between atoms: C_10  and  C_11
REMARK    7  A    between atoms: C_10  and  O_12
REMARK    8  A    between atoms: C_13  and  C_14
REMARK    9  A    between atoms: C_14  and  C_15
REMARK   10  A    between atoms: C_14  and  O_16
REMARK                            x       y       z     vdW  Elec       q    Type
REMARK                         _______ _______ _______ _____ _____    ______ ____
ROOT
ATOM      1  N   UNL     1      10.929  -8.174   2.903  0.00  0.00    +0.000 N 
ENDROOT
BRANCH   1   6
ATOM      2  C   UNL     1      15.717  -9.748   5.720  0.00  0.00    +0.000 C 
ATOM      3  C   UNL     1      14.488  -9.332   4.969  0.00  0.00    +0.000 A 
ATOM      4  C   UNL     1      13.974  -8.047   5.097  0.00  0.00    +0.000 A 
ATOM      5  C   UNL     1      12.805  -7.672   4.414  0.00  0.00    +0.000 A 
ATOM      6  C   UNL     1      12.083  -8.560   3.596  0.00  0.00    +0.000 A 
ATOM      7  C   UNL     1      12.634  -9.851   3.489  0.00  0.00    +0.000 A 
ATOM      8  C   UNL     1      13.803 -10.238   4.164  0.00  0.00    +0.000 A 
ENDBRANCH   1   6
BRANCH   1   9
ATOM      9  C   UNL     1      11.017  -7.176   1.811  0.00  0.00    +0.000 C 
BRANCH   9  10
ATOM     10  C   UNL     1      11.358  -7.813   0.441  0.00  0.00    +0.000 C 
ATOM     11  C   UNL     1      12.862  -8.004   0.288  0.00  0.00    +0.000 C 
BRANCH  10  12
ATOM     12  O   UNL     1      10.730  -9.095   0.300  0.00  0.00    +0.000 OA
ATOM     13  H   UNL     1      10.880  -9.405  -0.609  0.00  0.00    +0.000 HD
ENDBRANCH  10  12
ENDBRANCH   9  10
ENDBRANCH   1   9
BRANCH   1  14
ATOM     14  C   UNL     1       9.582  -8.315   3.514  0.00  0.00    +0.000 C 
BRANCH  14  15
ATOM     15  C   UNL     1       8.474  -7.689   2.634  0.00  0.00    +0.000 C 
ATOM     16  C   UNL     1       7.620  -8.728   1.916  0.00  0.00    +0.000 C 
BRANCH  15  17
ATOM     17  O   UNL     1       7.604  -6.853   3.397  0.00  0.00    +0.000 OA
ATOM     18  H   UNL     1       7.930  -6.922   4.317  0.00  0.00    +0.000 HD
ENDBRANCH  15  17
ENDBRANCH  14  15
ENDBRANCH   1  14
TORSDOF 7
ENDMDL
