MODEL 1
REMARK VINA RESULT:    -6.006      0.000      0.000
REMARK INTER + INTRA:          -8.637
REMARK INTER:                  -8.112
REMARK INTRA:                  -0.524
REMARK UNBOUND:                -0.524
REMARK  Name = 
REMARK  10 active torsions:
REMARK  status: ('A' for Active; 'I' for Inactive)
REMARK    1  A    between atoms: C_1  and  C_2
REMARK    2  A    between atoms: C_5  and  N_8
REMARK    3  A    between atoms: N_8  and  C_9
REMARK    4  A    between atoms: N_8  and  C_13
REMARK    5  A    between atoms: C_9  and  C_10
REMARK    6  A    between atoms: C_10  and  C_11
REMARK    7  A    between atoms: C_10  and  O_12
REMARK    8  A    between atoms: C_13  and  C_14
REMARK    9  A    between atoms: C_14  and  C_15
REMARK   10  A    between atoms: C_14  and  O_16
REMARK                            x       y       z     vdW  Elec       q    Type
REMARK                         _______ _______ _______ _____ _____    ______ ____
ROOT
ATOM      1  N   UNL     1       1.342  14.823  -2.281  0.00  0.00    +0.000 N 
ENDROOT
BRANCH   1   6
ATOM      2  C   UNL     1      -0.946  19.725  -0.265  0.00  0.00    +0.000 C 
ATOM      3  C   UNL     1      -0.341  18.450  -0.766  0.00  0.00    +0.000 A 
ATOM      4  C   UNL     1       0.874  18.453  -1.444  0.00  0.00    +0.000 A 
ATOM      5  C   UNL     1       1.422  17.258  -1.937  0.00  0.00    +0.000 A 
ATOM      6  C   UNL     1       0.780  16.013  -1.803  0.00  0.00    +0.000 A 
ATOM      7  C   UNL     1      -0.445  16.047  -1.111  0.00  0.00    +0.000 A 
ATOM      8  C   UNL     1      -1.003  17.235  -0.611  0.00  0.00    +0.000 A 
ENDBRANCH   1   6
BRANCH   1   9
ATOM      9  C   UNL     1       1.149  14.426  -3.696  0.00  0.00    +0.000 C 
BRANCH   9  10
ATOM     10  C   UNL     1       2.264  14.963  -4.627  0.00  0.00    +0.000 C 
ATOM     11  C   UNL     1       3.566  14.201  -4.415  0.00  0.00    +0.000 C 
BRANCH  10  12
ATOM     12  O   UNL     1       1.891  14.830  -6.006  0.00  0.00    +0.000 OA
ATOM     13  H   UNL     1       1.975  13.894  -6.252  0.00  0.00    +0.000 HD
ENDBRANCH  10  12
ENDBRANCH   9  10
ENDBRANCH   1   9
BRANCH   1  14
ATOM     14  C   UNL     1       1.678  13.707  -1.359  0.00  0.00    +0.000 C 
BRANCH  14  15
ATOM     15  C   UNL     1       3.087  13.865  -0.740  0.00  0.00    +0.000 C 
ATOM     16  C   UNL     1       3.072  14.568   0.613  0.00  0.00    +0.000 C 
BRANCH  15  17
ATOM     17  O   UNL     1       3.735  12.605  -0.575  0.00  0.00    +0.000 OA
ATOM     18  H   UNL     1       3.131  12.081  -0.011  0.00  0.00    +0.000 HD
ENDBRANCH  15  17
ENDBRANCH  14  15
ENDBRANCH   1  14
TORSDOF 7
ENDMDL
MODEL 2
REMARK VINA RESULT:    -5.849      1.242      1.962
REMARK INTER + INTRA:          -8.425
REMARK INTER:                  -8.091
REMARK INTRA:                  -0.334
REMARK UNBOUND:                -0.524
REMARK  Name = 
REMARK  10 active torsions:
REMARK  status: ('A' for Active; 'I' for Inactive)
REMARK    1  A    between atoms: C_1  and  C_2
REMARK    2  A    between atoms: C_5  and  N_8
REMARK    3  A    between atoms: N_8  and  C_9
REMARK    4  A    between atoms: N_8  and  C_13
REMARK    5  A    between atoms: C_9  and  C_10
REMARK    6  A    between atoms: C_10  and  C_11
REMARK    7  A    between atoms: C_10  and  O_12
REMARK    8  A    between atoms: C_13  and  C_14
REMARK    9  A    between atoms: C_14  and  C_15
REMARK   10  A    between atoms: C_14  and  O_16
REMARK                            x       y       z     vdW  Elec       q    Type
REMARK                         _______ _______ _______ _____ _____    ______ ____
ROOT
ATOM      1  N   UNL     1       1.801  14.860  -2.673  0.00  0.00    +0.000 N 
ENDROOT
BRANCH   1   6
ATOM      2  C   UNL     1      -0.751  18.982   0.463  0.00  0.00    +0.000 C 
ATOM      3  C   UNL     1      -0.110  17.910  -0.364  0.00  0.00    +0.000 A 
ATOM      4  C   UNL     1      -0.150  16.578   0.037  0.00  0.00    +0.000 A 
ATOM      5  C   UNL     1       0.478  15.581  -0.727  0.00  0.00    +0.000 A 
ATOM      6  C   UNL     1       1.193  15.862  -1.906  0.00  0.00    +0.000 A 
ATOM      7  C   UNL     1       1.211  17.218  -2.281  0.00  0.00    +0.000 A 
ATOM      8  C   UNL     1       0.585  18.225  -1.528  0.00  0.00    +0.000 A 
ENDBRANCH   1   6
BRANCH   1   9
ATOM      9  C   UNL     1       1.222  14.472  -3.981  0.00  0.00    +0.000 C 
BRANCH   9  10
ATOM     10  C   UNL     1       1.916  15.170  -5.176  0.00  0.00    +0.000 C 
ATOM     11  C   UNL     1       3.426  14.970  -5.121  0.00  0.00    +0.000 C 
BRANCH  10  12
ATOM     12  O   UNL     1       1.444  14.645  -6.424  0.00  0.00    +0.000 OA
ATOM     13  H   UNL     1       2.121  14.041  -6.772  0.00  0.00    +0.000 HD
ENDBRANCH  10  12
ENDBRANCH   9  10
ENDBRANCH   1   9
BRANCH   1  14
ATOM     14  C   UNL     1       2.671  13.833  -2.045  0.00  0.00    +0.000 C 
BRANCH  14  15
ATOM     15  C   UNL     1       2.298  12.399  -2.492  0.00  0.00    +0.000 C 
ATOM     16  C   UNL     1       3.410  11.705  -3.269  0.00  0.00    +0.000 C 
BRANCH  15  17
ATOM     17  O   UNL     1       1.954  11.573  -1.380  0.00  0.00    +0.000 OA
ATOM     18  H   UNL     1       1.119  11.949  -1.036  0.00  0.00    +0.000 HD
ENDBRANCH  15  17
ENDBRANCH  14  15
ENDBRANCH   1  14
TORSDOF 7
ENDMDL
MODEL 3
REMARK VINA RESULT:    -5.727      1.188      1.837
REMARK INTER + INTRA:          -8.260
REMARK INTER:                  -7.708
REMARK INTRA:                  -0.552
REMARK UNBOUND:                -0.524
REMARK  Name = 
REMARK  10 active torsions:
REMARK  status: ('A' for Active; 'I' for Inactive)
REMARK    1  A    between atoms: C_1  and  C_2
REMARK    2  A    between atoms: C_5  and  N_8
REMARK    3  A    between atoms: N_8  and  C_9
REMARK    4  A    between atoms: N_8  and  C_13
REMARK    5  A    between atoms: C_9  and  C_10
REMARK    6  A    between atoms: C_10  and  C_11
REMARK    7  A    between atoms: C_10  and  O_12
REMARK    8  A    between atoms: C_13  and  C_14
REMARK    9  A    between atoms: C_14  and  C_15
REMARK   10  A    between atoms: C_14  and  O_16
REMARK                            x       y       z     vdW  Elec       q    Type
REMARK                         _______ _______ _______ _____ _____    ______ ____
ROOT
ATOM      1  N   UNL     1       1.141  15.295  -0.972  0.00  0.00    +0.000 N 
ENDROOT
BRANCH   1   6
ATOM      2  C   UNL     1      -1.313  20.500  -1.430  0.00  0.00    +0.000 C 
ATOM      3  C   UNL     1      -0.683  19.144  -1.335  0.00  0.00    +0.000 A 
ATOM      4  C   UNL     1      -1.400  18.055  -0.851  0.00  0.00    +0.000 A 
ATOM      5  C   UNL     1      -0.795  16.793  -0.735  0.00  0.00    +0.000 A 
ATOM      6  C   UNL     1       0.550  16.560  -1.072  0.00  0.00    +0.000 A 
ATOM      7  C   UNL     1       1.244  17.683  -1.559  0.00  0.00    +0.000 A 
ATOM      8  C   UNL     1       0.651  18.950  -1.682  0.00  0.00    +0.000 A 
ENDBRANCH   1   6
BRANCH   1   9
ATOM      9  C   UNL     1       0.710  14.200  -1.874  0.00  0.00    +0.000 C 
BRANCH   9  10
ATOM     10  C   UNL     1       1.156  14.419  -3.341  0.00  0.00    +0.000 C 
ATOM     11  C   UNL     1       2.674  14.354  -3.464  0.00  0.00    +0.000 C 
BRANCH  10  12
ATOM     12  O   UNL     1       0.597  13.419  -4.204  0.00  0.00    +0.000 OA
ATOM     13  H   UNL     1       0.531  12.590  -3.702  0.00  0.00    +0.000 HD
ENDBRANCH  10  12
ENDBRANCH   9  10
ENDBRANCH   1   9
BRANCH   1  14
ATOM     14  C   UNL     1       1.794  14.847   0.285  0.00  0.00    +0.000 C 
BRANCH  14  15
ATOM     15  C   UNL     1       3.319  14.645   0.112  0.00  0.00    +0.000 C 
ATOM     16  C   UNL     1       4.124  15.087   1.329  0.00  0.00    +0.000 C 
BRANCH  15  17
ATOM     17  O   UNL     1       3.642  13.283  -0.161  0.00  0.00    +0.000 OA
ATOM     18  H   UNL     1       3.875  13.264  -1.111  0.00  0.00    +0.000 HD
ENDBRANCH  15  17
ENDBRANCH  14  15
ENDBRANCH   1  14
TORSDOF 7
ENDMDL
MODEL 4
REMARK VINA RESULT:    -5.710      0.922      3.229
REMARK INTER + INTRA:          -8.237
REMARK INTER:                  -7.848
REMARK INTRA:                  -0.389
REMARK UNBOUND:                -0.524
REMARK  Name = 
REMARK  10 active torsions:
REMARK  status: ('A' for Active; 'I' for Inactive)
REMARK    1  A    between atoms: C_1  and  C_2
REMARK    2  A    between atoms: C_5  and  N_8
REMARK    3  A    between atoms: N_8  and  C_9
REMARK    4  A    between atoms: N_8  and  C_13
REMARK    5  A    between atoms: C_9  and  C_10
REMARK    6  A    between atoms: C_10  and  C_11
REMARK    7  A    between atoms: C_10  and  O_12
REMARK    8  A    between atoms: C_13  and  C_14
REMARK    9  A    between atoms: C_14  and  C_15
REMARK   10  A    between atoms: C_14  and  O_16
REMARK                            x       y       z     vdW  Elec       q    Type
REMARK                         _______ _______ _______ _____ _____    ______ ____
ROOT
ATOM      1  N   UNL     1       1.748  15.509  -2.221  0.00  0.00    +0.000 N 
ENDROOT
BRANCH   1   6
ATOM      2  C   UNL     1      -1.771  19.421   0.154  0.00  0.00    +0.000 C 
ATOM      3  C   UNL     1      -0.846  18.403  -0.440  0.00  0.00    +0.000 A 
ATOM      4  C   UNL     1       0.342  18.788  -1.051  0.00  0.00    +0.000 A 
ATOM      5  C   UNL     1       1.191  17.832  -1.633  0.00  0.00    +0.000 A 
ATOM      6  C   UNL     1       0.888  16.459  -1.656  0.00  0.00    +0.000 A 
ATOM      7  C   UNL     1      -0.320  16.105  -1.027  0.00  0.00    +0.000 A 
ATOM      8  C   UNL     1      -1.177  17.051  -0.440  0.00  0.00    +0.000 A 
ENDBRANCH   1   6
BRANCH   1   9
ATOM      9  C   UNL     1       3.094  15.286  -1.640  0.00  0.00    +0.000 C 
BRANCH   9  10
ATOM     10  C   UNL     1       3.112  14.153  -0.584  0.00  0.00    +0.000 C 
ATOM     11  C   UNL     1       3.060  14.723   0.828  0.00  0.00    +0.000 C 
BRANCH  10  12
ATOM     12  O   UNL     1       1.990  13.276  -0.751  0.00  0.00    +0.000 OA
ATOM     13  H   UNL     1       1.904  13.074  -1.698  0.00  0.00    +0.000 HD
ENDBRANCH  10  12
ENDBRANCH   9  10
ENDBRANCH   1   9
BRANCH   1  14
ATOM     14  C   UNL     1       1.601  15.084  -3.636  0.00  0.00    +0.000 C 
BRANCH  14  15
ATOM     15  C   UNL     1       2.965  14.761  -4.294  0.00  0.00    +0.000 C 
ATOM     16  C   UNL     1       3.313  13.277  -4.254  0.00  0.00    +0.000 C 
BRANCH  15  17
ATOM     17  O   UNL     1       3.008  15.188  -5.654  0.00  0.00    +0.000 OA
ATOM     18  H   UNL     1       3.172  14.373  -6.170  0.00  0.00    +0.000 HD
ENDBRANCH  15  17
ENDBRANCH  14  15
ENDBRANCH   1  14
TORSDOF 7
ENDMDL
MODEL 5
REMARK VINA RESULT:    -5.628      1.178      3.293
REMARK INTER + INTRA:          -8.127
REMARK INTER:                  -7.654
REMARK INTRA:                  -0.473
REMARK UNBOUND:                -0.524
REMARK  Name = 
REMARK  10 active torsions:
REMARK  status: ('A' for Active; 'I' for Inactive)
REMARK    1  A    between atoms: C_1  and  C_2
REMARK    2  A    between atoms: C_5  and  N_8
REMARK    3  A    between atoms: N_8  and  C_9
REMARK    4  A    between atoms: N_8  and  C_13
REMARK    5  A    between atoms: C_9  and  C_10
REMARK    6  A    between atoms: C_10  and  C_11
REMARK    7  A    between atoms: C_10  and  O_12
REMARK    8  A    between atoms: C_13  and  C_14
REMARK    9  A    between atoms: C_14  and  C_15
REMARK   10  A    between atoms: C_14  and  O_16
REMARK                            x       y       z     vdW  Elec       q    Type
REMARK                         _______ _______ _______ _____ _____    ______ ____
ROOT
ATOM      1  N   UNL     1       1.201  15.444  -1.565  0.00  0.00    +0.000 N 
ENDROOT
BRANCH   1   6
ATOM      2  C   UNL     1      -1.743  20.295  -0.504  0.00  0.00    +0.000 C 
ATOM      3  C   UNL     1      -0.969  19.038  -0.756  0.00  0.00    +0.000 A 
ATOM      4  C   UNL     1       0.291  19.080  -1.343  0.00  0.00    +0.000 A 
ATOM      5  C   UNL     1       0.999  17.896  -1.605  0.00  0.00    +0.000 A 
ATOM      6  C   UNL     1       0.481  16.620  -1.319  0.00  0.00    +0.000 A 
ATOM      7  C   UNL     1      -0.794  16.615  -0.725  0.00  0.00    +0.000 A 
ATOM      8  C   UNL     1      -1.512  17.792  -0.456  0.00  0.00    +0.000 A 
ENDBRANCH   1   6
BRANCH   1   9
ATOM      9  C   UNL     1       1.595  14.564  -0.439  0.00  0.00    +0.000 C 
BRANCH   9  10
ATOM     10  C   UNL     1       3.130  14.390  -0.323  0.00  0.00    +0.000 C 
ATOM     11  C   UNL     1       3.631  14.871   1.034  0.00  0.00    +0.000 C 
BRANCH  10  12
ATOM     12  O   UNL     1       3.504  13.014  -0.472  0.00  0.00    +0.000 OA
ATOM     13  H   UNL     1       3.795  12.685   0.395  0.00  0.00    +0.000 HD
ENDBRANCH  10  12
ENDBRANCH   9  10
ENDBRANCH   1   9
BRANCH   1  14
ATOM     14  C   UNL     1       2.016  15.285  -2.797  0.00  0.00    +0.000 C 
BRANCH  14  15
ATOM     15  C   UNL     1       1.283  14.458  -3.880  0.00  0.00    +0.000 C 
ATOM     16  C   UNL     1       1.615  14.902  -5.300  0.00  0.00    +0.000 C 
BRANCH  15  17
ATOM     17  O   UNL     1       1.580  13.067  -3.772  0.00  0.00    +0.000 OA
ATOM     18  H   UNL     1       0.995  12.632  -4.425  0.00  0.00    +0.000 HD
ENDBRANCH  15  17
ENDBRANCH  14  15
ENDBRANCH   1  14
TORSDOF 7
ENDMDL
MODEL 6
REMARK VINA RESULT:    -5.348      3.455      5.922
REMARK INTER + INTRA:          -7.749
REMARK INTER:                  -7.290
REMARK INTRA:                  -0.458
REMARK UNBOUND:                -0.524
REMARK  Name = 
REMARK  10 active torsions:
REMARK  status: ('A' for Active; 'I' for Inactive)
REMARK    1  A    between atoms: C_1  and  C_2
REMARK    2  A    between atoms: C_5  and  N_8
REMARK    3  A    between atoms: N_8  and  C_9
REMARK    4  A    between atoms: N_8  and  C_13
REMARK    5  A    between atoms: C_9  and  C_10
REMARK    6  A    between atoms: C_10  and  C_11
REMARK    7  A    between atoms: C_10  and  O_12
REMARK    8  A    between atoms: C_13  and  C_14
REMARK    9  A    between atoms: C_14  and  C_15
REMARK   10  A    between atoms: C_14  and  O_16
REMARK                            x       y       z     vdW  Elec       q    Type
REMARK                         _______ _______ _______ _____ _____    ______ ____
ROOT
ATOM      1  N   UNL     1      -0.361  17.840  -0.490  0.00  0.00    +0.000 N 
ENDROOT
BRANCH   1   6
ATOM      2  C   UNL     1       2.837  13.295  -2.051  0.00  0.00    +0.000 C 
ATOM      3  C   UNL     1       2.005  14.464  -1.623  0.00  0.00    +0.000 A 
ATOM      4  C   UNL     1       0.627  14.469  -1.815  0.00  0.00    +0.000 A 
ATOM      5  C   UNL     1      -0.144  15.581  -1.440  0.00  0.00    +0.000 A 
ATOM      6  C   UNL     1       0.417  16.743  -0.880  0.00  0.00    +0.000 A 
ATOM      7  C   UNL     1       1.811  16.702  -0.699  0.00  0.00    +0.000 A 
ATOM      8  C   UNL     1       2.595  15.596  -1.068  0.00  0.00    +0.000 A 
ENDBRANCH   1   6
BRANCH   1   9
ATOM      9  C   UNL     1       0.192  19.213  -0.580  0.00  0.00    +0.000 C 
BRANCH   9  10
ATOM     10  C   UNL     1       0.337  19.707  -2.040  0.00  0.00    +0.000 C 
ATOM     11  C   UNL     1      -0.826  20.612  -2.428  0.00  0.00    +0.000 C 
BRANCH  10  12
ATOM     12  O   UNL     1       1.554  20.447  -2.214  0.00  0.00    +0.000 OA
ATOM     13  H   UNL     1       2.280  19.928  -1.831  0.00  0.00    +0.000 HD
ENDBRANCH  10  12
ENDBRANCH   9  10
ENDBRANCH   1   9
BRANCH   1  14
ATOM     14  C   UNL     1      -1.490  17.683   0.463  0.00  0.00    +0.000 C 
BRANCH  14  15
ATOM     15  C   UNL     1      -2.568  18.777   0.278  0.00  0.00    +0.000 C 
ATOM     16  C   UNL     1      -3.916  18.221  -0.166  0.00  0.00    +0.000 C 
BRANCH  15  17
ATOM     17  O   UNL     1      -2.772  19.525   1.476  0.00  0.00    +0.000 OA
ATOM     18  H   UNL     1      -2.081  20.217   1.462  0.00  0.00    +0.000 HD
ENDBRANCH  15  17
ENDBRANCH  14  15
ENDBRANCH   1  14
TORSDOF 7
ENDMDL
MODEL 7
REMARK VINA RESULT:    -5.299      3.422      6.268
REMARK INTER + INTRA:          -7.682
REMARK INTER:                  -7.198
REMARK INTRA:                  -0.484
REMARK UNBOUND:                -0.524
REMARK  Name = 
REMARK  10 active torsions:
REMARK  status: ('A' for Active; 'I' for Inactive)
REMARK    1  A    between atoms: C_1  and  C_2
REMARK    2  A    between atoms: C_5  and  N_8
REMARK    3  A    between atoms: N_8  and  C_9
REMARK    4  A    between atoms: N_8  and  C_13
REMARK    5  A    between atoms: C_9  and  C_10
REMARK    6  A    between atoms: C_10  and  C_11
REMARK    7  A    between atoms: C_10  and  O_12
REMARK    8  A    between atoms: C_13  and  C_14
REMARK    9  A    between atoms: C_14  and  C_15
REMARK   10  A    between atoms: C_14  and  O_16
REMARK                            x       y       z     vdW  Elec       q    Type
REMARK                         _______ _______ _______ _____ _____    ______ ____
ROOT
ATOM      1  N   UNL     1      -0.110  18.273  -0.816  0.00  0.00    +0.000 N 
ENDROOT
BRANCH   1   6
ATOM      2  C   UNL     1       2.583  13.230  -1.620  0.00  0.00    +0.000 C 
ATOM      3  C   UNL     1       1.880  14.533  -1.387  0.00  0.00    +0.000 A 
ATOM      4  C   UNL     1       0.520  14.667  -1.649  0.00  0.00    +0.000 A 
ATOM      5  C   UNL     1      -0.127  15.898  -1.458  0.00  0.00    +0.000 A 
ATOM      6  C   UNL     1       0.547  17.054  -1.023  0.00  0.00    +0.000 A 
ATOM      7  C   UNL     1       1.919  16.881  -0.766  0.00  0.00    +0.000 A 
ATOM      8  C   UNL     1       2.579  15.654  -0.951  0.00  0.00    +0.000 A 
ENDBRANCH   1   6
BRANCH   1   9
ATOM      9  C   UNL     1      -0.710  18.580   0.505  0.00  0.00    +0.000 C 
BRANCH   9  10
ATOM     10  C   UNL     1      -2.228  18.870   0.422  0.00  0.00    +0.000 C 
ATOM     11  C   UNL     1      -3.031  17.574   0.410  0.00  0.00    +0.000 C 
BRANCH  10  12
ATOM     12  O   UNL     1      -2.665  19.653   1.541  0.00  0.00    +0.000 OA
ATOM     13  H   UNL     1      -3.581  19.400   1.747  0.00  0.00    +0.000 HD
ENDBRANCH  10  12
ENDBRANCH   9  10
ENDBRANCH   1   9
BRANCH   1  14
ATOM     14  C   UNL     1      -0.674  19.045  -1.952  0.00  0.00    +0.000 C 
BRANCH  14  15
ATOM     15  C   UNL     1       0.141  20.326  -2.251  0.00  0.00    +0.000 C 
ATOM     16  C   UNL     1      -0.285  21.520  -1.404  0.00  0.00    +0.000 C 
BRANCH  15  17
ATOM     17  O   UNL     1       1.539  20.120  -2.052  0.00  0.00    +0.000 OA
ATOM     18  H   UNL     1       1.597  19.454  -1.337  0.00  0.00    +0.000 HD
ENDBRANCH  15  17
ENDBRANCH  14  15
ENDBRANCH   1  14
TORSDOF 7
ENDMDL
MODEL 8
REMARK VINA RESULT:    -4.950      9.350     12.382
REMARK INTER + INTRA:          -7.210
REMARK INTER:                  -7.036
REMARK INTRA:                  -0.174
REMARK UNBOUND:                -0.524
REMARK  Name = 
REMARK  10 active torsions:
REMARK  status: ('A' for Active; 'I' for Inactive)
REMARK    1  A    between atoms: C_1  and  C_2
REMARK    2  A    between atoms: C_5  and  N_8
REMARK    3  A    between atoms: N_8  and  C_9
REMARK    4  A    between atoms: N_8  and  C_13
REMARK    5  A    between atoms: C_9  and  C_10
REMARK    6  A    between atoms: C_10  and  C_11
REMARK    7  A    between atoms: C_10  and  O_12
REMARK    8  A    between atoms: C_13  and  C_14
REMARK    9  A    between atoms: C_14  and  C_15
REMARK   10  A    between atoms: C_14  and  O_16
REMARK                            x       y       z     vdW  Elec       q    Type
REMARK                         _______ _______ _______ _____ _____    ______ ____
ROOT
ATOM      1  N   UNL     1      -0.961  16.964 -11.669  0.00  0.00    +0.000 N 
ENDROOT
BRANCH   1   6
ATOM      2  C   UNL     1       0.136  14.305 -16.675  0.00  0.00    +0.000 C 
ATOM      3  C   UNL     1      -0.126  14.989 -15.368  0.00  0.00    +0.000 A 
ATOM      4  C   UNL     1      -0.702  14.302 -14.304  0.00  0.00    +0.000 A 
ATOM      5  C   UNL     1      -0.972  14.956 -13.091  0.00  0.00    +0.000 A 
ATOM      6  C   UNL     1      -0.706  16.322 -12.888  0.00  0.00    +0.000 A 
ATOM      7  C   UNL     1      -0.122  16.985 -13.983  0.00  0.00    +0.000 A 
ATOM      8  C   UNL     1       0.155  16.342 -15.201  0.00  0.00    +0.000 A 
ENDBRANCH   1   6
BRANCH   1   9
ATOM      9  C   UNL     1      -1.151  16.165 -10.434  0.00  0.00    +0.000 C 
BRANCH   9  10
ATOM     10  C   UNL     1      -2.429  16.561  -9.654  0.00  0.00    +0.000 C 
ATOM     11  C   UNL     1      -3.275  15.334  -9.336  0.00  0.00    +0.000 C 
BRANCH  10  12
ATOM     12  O   UNL     1      -2.098  17.205  -8.416  0.00  0.00    +0.000 OA
ATOM     13  H   UNL     1      -2.926  17.416  -7.955  0.00  0.00    +0.000 HD
ENDBRANCH  10  12
ENDBRANCH   9  10
ENDBRANCH   1   9
BRANCH   1  14
ATOM     14  C   UNL     1      -1.545  18.329 -11.626  0.00  0.00    +0.000 C 
BRANCH  14  15
ATOM     15  C   UNL     1      -2.905  18.406 -12.359  0.00  0.00    +0.000 C 
ATOM     16  C   UNL     1      -4.025  18.962 -11.489  0.00  0.00    +0.000 C 
BRANCH  15  17
ATOM     17  O   UNL     1      -2.824  19.205 -13.539  0.00  0.00    +0.000 OA
ATOM     18  H   UNL     1      -2.553  20.092 -13.225  0.00  0.00    +0.000 HD
ENDBRANCH  15  17
ENDBRANCH  14  15
ENDBRANCH   1  14
TORSDOF 7
ENDMDL
MODEL 9
REMARK VINA RESULT:    -4.928      9.535     11.937
REMARK INTER + INTRA:          -7.180
REMARK INTER:                  -6.949
REMARK INTRA:                  -0.231
REMARK UNBOUND:                -0.524
REMARK  Name = 
REMARK  10 active torsions:
REMARK  status: ('A' for Active; 'I' for Inactive)
REMARK    1  A    between atoms: C_1  and  C_2
REMARK    2  A    between atoms: C_5  and  N_8
REMARK    3  A    between atoms: N_8  and  C_9
REMARK    4  A    between atoms: N_8  and  C_13
REMARK    5  A    between atoms: C_9  and  C_10
REMARK    6  A    between atoms: C_10  and  C_11
REMARK    7  A    between atoms: C_10  and  O_12
REMARK    8  A    between atoms: C_13  and  C_14
REMARK    9  A    between atoms: C_14  and  C_15
REMARK   10  A    between atoms: C_14  and  O_16
REMARK                            x       y       z     vdW  Elec       q    Type
REMARK                         _______ _______ _______ _____ _____    ______ ____
ROOT
ATOM      1  N   UNL     1      -1.229  16.300 -11.466  0.00  0.00    +0.000 N 
ENDROOT
BRANCH   1   6
ATOM      2  C   UNL     1       0.209  14.601 -16.793  0.00  0.00    +0.000 C 
ATOM      3  C   UNL     1      -0.141  15.036 -15.403  0.00  0.00    +0.000 A 
ATOM      4  C   UNL     1      -0.710  14.147 -14.498  0.00  0.00    +0.000 A 
ATOM      5  C   UNL     1      -1.064  14.568 -13.205  0.00  0.00    +0.000 A 
ATOM      6  C   UNL     1      -0.891  15.892 -12.762  0.00  0.00    +0.000 A 
ATOM      7  C   UNL     1      -0.312  16.763 -13.703  0.00  0.00    +0.000 A 
ATOM      8  C   UNL     1       0.048  16.354 -14.998  0.00  0.00    +0.000 A 
ENDBRANCH   1   6
BRANCH   1   9
ATOM      9  C   UNL     1      -0.614  17.519 -10.887  0.00  0.00    +0.000 C 
BRANCH   9  10
ATOM     10  C   UNL     1      -1.626  18.679 -10.720  0.00  0.00    +0.000 C 
ATOM     11  C   UNL     1      -2.763  18.561 -11.728  0.00  0.00    +0.000 C 
BRANCH  10  12
ATOM     12  O   UNL     1      -2.197  18.679  -9.404  0.00  0.00    +0.000 OA
ATOM     13  H   UNL     1      -1.592  18.199  -8.814  0.00  0.00    +0.000 HD
ENDBRANCH  10  12
ENDBRANCH   9  10
ENDBRANCH   1   9
BRANCH   1  14
ATOM     14  C   UNL     1      -1.759  15.335 -10.469  0.00  0.00    +0.000 C 
BRANCH  14  15
ATOM     15  C   UNL     1      -3.232  15.631 -10.096  0.00  0.00    +0.000 C 
ATOM     16  C   UNL     1      -4.210  15.318 -11.221  0.00  0.00    +0.000 C 
BRANCH  15  17
ATOM     17  O   UNL     1      -3.639  14.900  -8.940  0.00  0.00    +0.000 OA
ATOM     18  H   UNL     1      -3.578  15.539  -8.202  0.00  0.00    +0.000 HD
ENDBRANCH  15  17
ENDBRANCH  14  15
ENDBRANCH   1  14
TORSDOF 7
ENDMDL
