MODEL 1
REMARK VINA RESULT:    -6.005      0.000      0.000
REMARK INTER + INTRA:          -8.631
REMARK INTER:                  -8.111
REMARK INTRA:                  -0.520
REMARK UNBOUND:                -0.520
REMARK  Name = 
REMARK  10 active torsions:
REMARK  status: ('A' for Active; 'I' for Inactive)
REMARK    1  A    between atoms: C_1  and  C_2
REMARK    2  A    between atoms: C_5  and  N_8
REMARK    3  A    between atoms: N_8  and  C_9
REMARK    4  A    between atoms: N_8  and  C_13
REMARK    5  A    between atoms: C_9  and  C_10
REMARK    6  A    between atoms: C_10  and  C_11
REMARK    7  A    between atoms: C_10  and  O_12
REMARK    8  A    between atoms: C_13  and  C_14
REMARK    9  A    between atoms: C_14  and  C_15
REMARK   10  A    between atoms: C_14  and  O_16
REMARK                            x       y       z     vdW  Elec       q    Type
REMARK                         _______ _______ _______ _____ _____    ______ ____
ROOT
ATOM      1  N   UNL     1       1.343  14.847  -2.253  0.00  0.00    +0.000 N 
ENDROOT
BRANCH   1   6
ATOM      2  C   UNL     1      -0.967  19.729  -0.215  0.00  0.00    +0.000 C 
ATOM      3  C   UNL     1      -0.355  18.459  -0.722  0.00  0.00    +0.000 A 
ATOM      4  C   UNL     1       0.849  18.473  -1.417  0.00  0.00    +0.000 A 
ATOM      5  C   UNL     1       1.402  17.283  -1.916  0.00  0.00    +0.000 A 
ATOM      6  C   UNL     1       0.776  16.032  -1.769  0.00  0.00    +0.000 A 
ATOM      7  C   UNL     1      -0.438  16.055  -1.060  0.00  0.00    +0.000 A 
ATOM      8  C   UNL     1      -1.002  17.238  -0.553  0.00  0.00    +0.000 A 
ENDBRANCH   1   6
BRANCH   1   9
ATOM      9  C   UNL     1       1.153  14.455  -3.671  0.00  0.00    +0.000 C 
BRANCH   9  10
ATOM     10  C   UNL     1       2.274  14.989  -4.596  0.00  0.00    +0.000 C 
ATOM     11  C   UNL     1       3.559  14.190  -4.411  0.00  0.00    +0.000 C 
BRANCH  10  12
ATOM     12  O   UNL     1       1.889  14.898  -5.975  0.00  0.00    +0.000 OA
ATOM     13  H   UNL     1       2.363  15.590  -6.466  0.00  0.00    +0.000 HD
ENDBRANCH  10  12
ENDBRANCH   9  10
ENDBRANCH   1   9
BRANCH   1  14
ATOM     14  C   UNL     1       1.684  13.728  -1.337  0.00  0.00    +0.000 C 
BRANCH  14  15
ATOM     15  C   UNL     1       3.105  13.872  -0.742  0.00  0.00    +0.000 C 
ATOM     16  C   UNL     1       3.121  14.584   0.606  0.00  0.00    +0.000 C 
BRANCH  15  17
ATOM     17  O   UNL     1       3.740  12.605  -0.580  0.00  0.00    +0.000 OA
ATOM     18  H   UNL     1       3.046  11.947  -0.785  0.00  0.00    +0.000 HD
ENDBRANCH  15  17
ENDBRANCH  14  15
ENDBRANCH   1  14
TORSDOF 7
ENDMDL
MODEL 2
REMARK VINA RESULT:    -5.909      1.123      1.921
REMARK INTER + INTRA:          -8.501
REMARK INTER:                  -8.109
REMARK INTRA:                  -0.392
REMARK UNBOUND:                -0.520
REMARK  Name = 
REMARK  10 active torsions:
REMARK  status: ('A' for Active; 'I' for Inactive)
REMARK    1  A    between atoms: C_1  and  C_2
REMARK    2  A    between atoms: C_5  and  N_8
REMARK    3  A    between atoms: N_8  and  C_9
REMARK    4  A    between atoms: N_8  and  C_13
REMARK    5  A    between atoms: C_9  and  C_10
REMARK    6  A    between atoms: C_10  and  C_11
REMARK    7  A    between atoms: C_10  and  O_12
REMARK    8  A    between atoms: C_13  and  C_14
REMARK    9  A    between atoms: C_14  and  C_15
REMARK   10  A    between atoms: C_14  and  O_16
REMARK                            x       y       z     vdW  Elec       q    Type
REMARK                         _______ _______ _______ _____ _____    ______ ____
ROOT
ATOM      1  N   UNL     1       1.697  14.782  -2.510  0.00  0.00    +0.000 N 
ENDROOT
BRANCH   1   6
ATOM      2  C   UNL     1      -0.905  19.167   0.195  0.00  0.00    +0.000 C 
ATOM      3  C   UNL     1      -0.242  18.035  -0.528  0.00  0.00    +0.000 A 
ATOM      4  C   UNL     1      -0.792  16.758  -0.512  0.00  0.00    +0.000 A 
ATOM      5  C   UNL     1      -0.151  15.694  -1.166  0.00  0.00    +0.000 A 
ATOM      6  C   UNL     1       1.073  15.843  -1.843  0.00  0.00    +0.000 A 
ATOM      7  C   UNL     1       1.599  17.148  -1.841  0.00  0.00    +0.000 A 
ATOM      8  C   UNL     1       0.967  18.222  -1.192  0.00  0.00    +0.000 A 
ENDBRANCH   1   6
BRANCH   1   9
ATOM      9  C   UNL     1       1.216  14.357  -3.847  0.00  0.00    +0.000 C 
BRANCH   9  10
ATOM     10  C   UNL     1       1.913  15.114  -5.004  0.00  0.00    +0.000 C 
ATOM     11  C   UNL     1       3.423  14.912  -4.956  0.00  0.00    +0.000 C 
BRANCH  10  12
ATOM     12  O   UNL     1       1.443  14.651  -6.278  0.00  0.00    +0.000 OA
ATOM     13  H   UNL     1       1.471  15.398  -6.899  0.00  0.00    +0.000 HD
ENDBRANCH  10  12
ENDBRANCH   9  10
ENDBRANCH   1   9
BRANCH   1  14
ATOM     14  C   UNL     1       2.462  13.749  -1.765  0.00  0.00    +0.000 C 
BRANCH  14  15
ATOM     15  C   UNL     1       2.296  12.340  -2.384  0.00  0.00    +0.000 C 
ATOM     16  C   UNL     1       3.551  11.843  -3.091  0.00  0.00    +0.000 C 
BRANCH  15  17
ATOM     17  O   UNL     1       1.931  11.372  -1.400  0.00  0.00    +0.000 OA
ATOM     18  H   UNL     1       1.636  11.895  -0.628  0.00  0.00    +0.000 HD
ENDBRANCH  15  17
ENDBRANCH  14  15
ENDBRANCH   1  14
TORSDOF 7
ENDMDL
MODEL 3
REMARK VINA RESULT:    -5.734      0.819      3.224
REMARK INTER + INTRA:          -8.265
REMARK INTER:                  -7.941
REMARK INTRA:                  -0.324
REMARK UNBOUND:                -0.520
REMARK  Name = 
REMARK  10 active torsions:
REMARK  status: ('A' for Active; 'I' for Inactive)
REMARK    1  A    between atoms: C_1  and  C_2
REMARK    2  A    between atoms: C_5  and  N_8
REMARK    3  A    between atoms: N_8  and  C_9
REMARK    4  A    between atoms: N_8  and  C_13
REMARK    5  A    between atoms: C_9  and  C_10
REMARK    6  A    between atoms: C_10  and  C_11
REMARK    7  A    between atoms: C_10  and  O_12
REMARK    8  A    between atoms: C_13  and  C_14
REMARK    9  A    between atoms: C_14  and  C_15
REMARK   10  A    between atoms: C_14  and  O_16
REMARK                            x       y       z     vdW  Elec       q    Type
REMARK                         _______ _______ _______ _____ _____    ______ ____
ROOT
ATOM      1  N   UNL     1       1.743  15.337  -2.147  0.00  0.00    +0.000 N 
ENDROOT
BRANCH   1   6
ATOM      2  C   UNL     1      -1.648  19.376   0.200  0.00  0.00    +0.000 C 
ATOM      3  C   UNL     1      -0.759  18.323  -0.386  0.00  0.00    +0.000 A 
ATOM      4  C   UNL     1       0.491  18.650  -0.901  0.00  0.00    +0.000 A 
ATOM      5  C   UNL     1       1.309  17.664  -1.477  0.00  0.00    +0.000 A 
ATOM      6  C   UNL     1       0.915  16.318  -1.589  0.00  0.00    +0.000 A 
ATOM      7  C   UNL     1      -0.354  16.024  -1.057  0.00  0.00    +0.000 A 
ATOM      8  C   UNL     1      -1.181  17.000  -0.476  0.00  0.00    +0.000 A 
ENDBRANCH   1   6
BRANCH   1   9
ATOM      9  C   UNL     1       3.141  15.187  -1.676  0.00  0.00    +0.000 C 
BRANCH   9  10
ATOM     10  C   UNL     1       3.290  14.112  -0.572  0.00  0.00    +0.000 C 
ATOM     11  C   UNL     1       3.297  14.749   0.813  0.00  0.00    +0.000 C 
BRANCH  10  12
ATOM     12  O   UNL     1       2.209  13.169  -0.622  0.00  0.00    +0.000 OA
ATOM     13  H   UNL     1       1.963  13.043  -1.553  0.00  0.00    +0.000 HD
ENDBRANCH  10  12
ENDBRANCH   9  10
ENDBRANCH   1   9
BRANCH   1  14
ATOM     14  C   UNL     1       1.479  14.787  -3.502  0.00  0.00    +0.000 C 
BRANCH  14  15
ATOM     15  C   UNL     1       2.778  14.618  -4.327  0.00  0.00    +0.000 C 
ATOM     16  C   UNL     1       3.354  13.209  -4.255  0.00  0.00    +0.000 C 
BRANCH  15  17
ATOM     17  O   UNL     1       2.575  14.942  -5.701  0.00  0.00    +0.000 OA
ATOM     18  H   UNL     1       3.214  15.659  -5.888  0.00  0.00    +0.000 HD
ENDBRANCH  15  17
ENDBRANCH  14  15
ENDBRANCH   1  14
TORSDOF 7
ENDMDL
MODEL 4
REMARK VINA RESULT:    -5.733      1.740      3.402
REMARK INTER + INTRA:          -8.264
REMARK INTER:                  -8.059
REMARK INTRA:                  -0.205
REMARK UNBOUND:                -0.520
REMARK  Name = 
REMARK  10 active torsions:
REMARK  status: ('A' for Active; 'I' for Inactive)
REMARK    1  A    between atoms: C_1  and  C_2
REMARK    2  A    between atoms: C_5  and  N_8
REMARK    3  A    between atoms: N_8  and  C_9
REMARK    4  A    between atoms: N_8  and  C_13
REMARK    5  A    between atoms: C_9  and  C_10
REMARK    6  A    between atoms: C_10  and  C_11
REMARK    7  A    between atoms: C_10  and  O_12
REMARK    8  A    between atoms: C_13  and  C_14
REMARK    9  A    between atoms: C_14  and  C_15
REMARK   10  A    between atoms: C_14  and  O_16
REMARK                            x       y       z     vdW  Elec       q    Type
REMARK                         _______ _______ _______ _____ _____    ______ ____
ROOT
ATOM      1  N   UNL     1       2.268  14.238  -2.505  0.00  0.00    +0.000 N 
ENDROOT
BRANCH   1   6
ATOM      2  C   UNL     1      -0.615  18.512   0.094  0.00  0.00    +0.000 C 
ATOM      3  C   UNL     1       0.128  17.413  -0.603  0.00  0.00    +0.000 A 
ATOM      4  C   UNL     1      -0.512  16.230  -0.955  0.00  0.00    +0.000 A 
ATOM      5  C   UNL     1       0.196  15.191  -1.580  0.00  0.00    +0.000 A 
ATOM      6  C   UNL     1       1.572  15.270  -1.863  0.00  0.00    +0.000 A 
ATOM      7  C   UNL     1       2.186  16.482  -1.496  0.00  0.00    +0.000 A 
ATOM      8  C   UNL     1       1.488  17.529  -0.871  0.00  0.00    +0.000 A 
ENDBRANCH   1   6
BRANCH   1   9
ATOM      9  C   UNL     1       2.283  12.876  -1.920  0.00  0.00    +0.000 C 
BRANCH   9  10
ATOM     10  C   UNL     1       3.089  11.866  -2.773  0.00  0.00    +0.000 C 
ATOM     11  C   UNL     1       3.813  10.860  -1.886  0.00  0.00    +0.000 C 
BRANCH  10  12
ATOM     12  O   UNL     1       2.227  11.138  -3.659  0.00  0.00    +0.000 OA
ATOM     13  H   UNL     1       2.457  10.196  -3.596  0.00  0.00    +0.000 HD
ENDBRANCH  10  12
ENDBRANCH   9  10
ENDBRANCH   1   9
BRANCH   1  14
ATOM     14  C   UNL     1       3.387  14.530  -3.438  0.00  0.00    +0.000 C 
BRANCH  14  15
ATOM     15  C   UNL     1       2.916  14.598  -4.911  0.00  0.00    +0.000 C 
ATOM     16  C   UNL     1       1.462  15.028  -5.057  0.00  0.00    +0.000 C 
BRANCH  15  17
ATOM     17  O   UNL     1       3.720  15.491  -5.680  0.00  0.00    +0.000 OA
ATOM     18  H   UNL     1       4.048  16.153  -5.038  0.00  0.00    +0.000 HD
ENDBRANCH  15  17
ENDBRANCH  14  15
ENDBRANCH   1  14
TORSDOF 7
ENDMDL
MODEL 5
REMARK VINA RESULT:    -5.679      0.884      3.428
REMARK INTER + INTRA:          -8.191
REMARK INTER:                  -7.825
REMARK INTRA:                  -0.365
REMARK UNBOUND:                -0.520
REMARK  Name = 
REMARK  10 active torsions:
REMARK  status: ('A' for Active; 'I' for Inactive)
REMARK    1  A    between atoms: C_1  and  C_2
REMARK    2  A    between atoms: C_5  and  N_8
REMARK    3  A    between atoms: N_8  and  C_9
REMARK    4  A    between atoms: N_8  and  C_13
REMARK    5  A    between atoms: C_9  and  C_10
REMARK    6  A    between atoms: C_10  and  C_11
REMARK    7  A    between atoms: C_10  and  O_12
REMARK    8  A    between atoms: C_13  and  C_14
REMARK    9  A    between atoms: C_14  and  C_15
REMARK   10  A    between atoms: C_14  and  O_16
REMARK                            x       y       z     vdW  Elec       q    Type
REMARK                         _______ _______ _______ _____ _____    ______ ____
ROOT
ATOM      1  N   UNL     1       1.707  15.499  -2.198  0.00  0.00    +0.000 N 
ENDROOT
BRANCH   1   6
ATOM      2  C   UNL     1      -1.764  19.568  -0.024  0.00  0.00    +0.000 C 
ATOM      3  C   UNL     1      -0.876  18.513  -0.610  0.00  0.00    +0.000 A 
ATOM      4  C   UNL     1      -1.185  17.164  -0.476  0.00  0.00    +0.000 A 
ATOM      5  C   UNL     1      -0.333  16.178  -1.001  0.00  0.00    +0.000 A 
ATOM      6  C   UNL     1       0.872  16.486  -1.659  0.00  0.00    +0.000 A 
ATOM      7  C   UNL     1       1.151  17.860  -1.778  0.00  0.00    +0.000 A 
ATOM      8  C   UNL     1       0.307  18.855  -1.259  0.00  0.00    +0.000 A 
ENDBRANCH   1   6
BRANCH   1   9
ATOM      9  C   UNL     1       3.059  15.278  -1.630  0.00  0.00    +0.000 C 
BRANCH   9  10
ATOM     10  C   UNL     1       3.091  14.139  -0.582  0.00  0.00    +0.000 C 
ATOM     11  C   UNL     1       3.142  14.701   0.834  0.00  0.00    +0.000 C 
BRANCH  10  12
ATOM     12  O   UNL     1       1.926  13.309  -0.688  0.00  0.00    +0.000 OA
ATOM     13  H   UNL     1       2.131  12.448  -0.287  0.00  0.00    +0.000 HD
ENDBRANCH  10  12
ENDBRANCH   9  10
ENDBRANCH   1   9
BRANCH   1  14
ATOM     14  C   UNL     1       1.529  15.018  -3.592  0.00  0.00    +0.000 C 
BRANCH  14  15
ATOM     15  C   UNL     1       2.882  14.749  -4.294  0.00  0.00    +0.000 C 
ATOM     16  C   UNL     1       3.287  13.280  -4.274  0.00  0.00    +0.000 C 
BRANCH  15  17
ATOM     17  O   UNL     1       2.866  15.184  -5.653  0.00  0.00    +0.000 OA
ATOM     18  H   UNL     1       2.669  14.380  -6.173  0.00  0.00    +0.000 HD
ENDBRANCH  15  17
ENDBRANCH  14  15
ENDBRANCH   1  14
TORSDOF 7
ENDMDL
MODEL 6
REMARK VINA RESULT:    -5.588      1.625      1.864
REMARK INTER + INTRA:          -8.069
REMARK INTER:                  -7.565
REMARK INTRA:                  -0.504
REMARK UNBOUND:                -0.520
REMARK  Name = 
REMARK  10 active torsions:
REMARK  status: ('A' for Active; 'I' for Inactive)
REMARK    1  A    between atoms: C_1  and  C_2
REMARK    2  A    between atoms: C_5  and  N_8
REMARK    3  A    between atoms: N_8  and  C_9
REMARK    4  A    between atoms: N_8  and  C_13
REMARK    5  A    between atoms: C_9  and  C_10
REMARK    6  A    between atoms: C_10  and  C_11
REMARK    7  A    between atoms: C_10  and  O_12
REMARK    8  A    between atoms: C_13  and  C_14
REMARK    9  A    between atoms: C_14  and  C_15
REMARK   10  A    between atoms: C_14  and  O_16
REMARK                            x       y       z     vdW  Elec       q    Type
REMARK                         _______ _______ _______ _____ _____    ______ ____
ROOT
ATOM      1  N   UNL     1       2.266  15.257  -2.328  0.00  0.00    +0.000 N 
ENDROOT
BRANCH   1   6
ATOM      2  C   UNL     1      -1.846  18.846  -0.448  0.00  0.00    +0.000 C 
ATOM      3  C   UNL     1      -0.768  17.916  -0.914  0.00  0.00    +0.000 A 
ATOM      4  C   UNL     1       0.370  18.402  -1.549  0.00  0.00    +0.000 A 
ATOM      5  C   UNL     1       1.364  17.523  -2.010  0.00  0.00    +0.000 A 
ATOM      6  C   UNL     1       1.263  16.126  -1.884  0.00  0.00    +0.000 A 
ATOM      7  C   UNL     1       0.100  15.670  -1.235  0.00  0.00    +0.000 A 
ATOM      8  C   UNL     1      -0.900  16.538  -0.767  0.00  0.00    +0.000 A 
ENDBRANCH   1   6
BRANCH   1   9
ATOM      9  C   UNL     1       1.908  14.031  -3.082  0.00  0.00    +0.000 C 
BRANCH   9  10
ATOM     10  C   UNL     1       3.047  12.982  -3.099  0.00  0.00    +0.000 C 
ATOM     11  C   UNL     1       2.636  11.719  -2.352  0.00  0.00    +0.000 C 
BRANCH  10  12
ATOM     12  O   UNL     1       3.387  12.613  -4.443  0.00  0.00    +0.000 OA
ATOM     13  H   UNL     1       2.744  13.029  -5.041  0.00  0.00    +0.000 HD
ENDBRANCH  10  12
ENDBRANCH   9  10
ENDBRANCH   1   9
BRANCH   1  14
ATOM     14  C   UNL     1       3.598  15.218  -1.670  0.00  0.00    +0.000 C 
BRANCH  14  15
ATOM     15  C   UNL     1       3.503  15.472  -0.146  0.00  0.00    +0.000 C 
ATOM     16  C   UNL     1       3.019  14.257   0.635  0.00  0.00    +0.000 C 
BRANCH  15  17
ATOM     17  O   UNL     1       4.758  15.876   0.399  0.00  0.00    +0.000 OA
ATOM     18  H   UNL     1       5.339  15.095   0.303  0.00  0.00    +0.000 HD
ENDBRANCH  15  17
ENDBRANCH  14  15
ENDBRANCH   1  14
TORSDOF 7
ENDMDL
MODEL 7
REMARK VINA RESULT:    -5.313      3.456      5.809
REMARK INTER + INTRA:          -7.696
REMARK INTER:                  -7.218
REMARK INTRA:                  -0.478
REMARK UNBOUND:                -0.520
REMARK  Name = 
REMARK  10 active torsions:
REMARK  status: ('A' for Active; 'I' for Inactive)
REMARK    1  A    between atoms: C_1  and  C_2
REMARK    2  A    between atoms: C_5  and  N_8
REMARK    3  A    between atoms: N_8  and  C_9
REMARK    4  A    between atoms: N_8  and  C_13
REMARK    5  A    between atoms: C_9  and  C_10
REMARK    6  A    between atoms: C_10  and  C_11
REMARK    7  A    between atoms: C_10  and  O_12
REMARK    8  A    between atoms: C_13  and  C_14
REMARK    9  A    between atoms: C_14  and  C_15
REMARK   10  A    between atoms: C_14  and  O_16
REMARK                            x       y       z     vdW  Elec       q    Type
REMARK                         _______ _______ _______ _____ _____    ______ ____
ROOT
ATOM      1  N   UNL     1      -0.251  17.904  -0.420  0.00  0.00    +0.000 N 
ENDROOT
BRANCH   1   6
ATOM      2  C   UNL     1       2.677  13.267  -2.222  0.00  0.00    +0.000 C 
ATOM      3  C   UNL     1       1.919  14.480  -1.777  0.00  0.00    +0.000 A 
ATOM      4  C   UNL     1       2.577  15.561  -1.200  0.00  0.00    +0.000 A 
ATOM      5  C   UNL     1       1.858  16.684  -0.758  0.00  0.00    +0.000 A 
ATOM      6  C   UNL     1       0.458  16.774  -0.846  0.00  0.00    +0.000 A 
ATOM      7  C   UNL     1      -0.174  15.664  -1.436  0.00  0.00    +0.000 A 
ATOM      8  C   UNL     1       0.533  14.536  -1.884  0.00  0.00    +0.000 A 
ENDBRANCH   1   6
BRANCH   1   9
ATOM      9  C   UNL     1       0.350  19.253  -0.556  0.00  0.00    +0.000 C 
BRANCH   9  10
ATOM     10  C   UNL     1       0.428  19.730  -2.027  0.00  0.00    +0.000 C 
ATOM     11  C   UNL     1      -0.800  20.552  -2.399  0.00  0.00    +0.000 C 
BRANCH  10  12
ATOM     12  O   UNL     1       1.589  20.543  -2.243  0.00  0.00    +0.000 OA
ATOM     13  H   UNL     1       1.486  21.360  -1.727  0.00  0.00    +0.000 HD
ENDBRANCH  10  12
ENDBRANCH   9  10
ENDBRANCH   1   9
BRANCH   1  14
ATOM     14  C   UNL     1      -1.325  17.799   0.601  0.00  0.00    +0.000 C 
BRANCH  14  15
ATOM     15  C   UNL     1      -2.494  18.774   0.321  0.00  0.00    +0.000 C 
ATOM     16  C   UNL     1      -3.752  18.075  -0.181  0.00  0.00    +0.000 C 
BRANCH  15  17
ATOM     17  O   UNL     1      -2.841  19.528   1.482  0.00  0.00    +0.000 OA
ATOM     18  H   UNL     1      -2.024  20.007   1.726  0.00  0.00    +0.000 HD
ENDBRANCH  15  17
ENDBRANCH  14  15
ENDBRANCH   1  14
TORSDOF 7
ENDMDL
MODEL 8
REMARK VINA RESULT:    -5.277      3.459      6.244
REMARK INTER + INTRA:          -7.649
REMARK INTER:                  -7.203
REMARK INTRA:                  -0.446
REMARK UNBOUND:                -0.520
REMARK  Name = 
REMARK  10 active torsions:
REMARK  status: ('A' for Active; 'I' for Inactive)
REMARK    1  A    between atoms: C_1  and  C_2
REMARK    2  A    between atoms: C_5  and  N_8
REMARK    3  A    between atoms: N_8  and  C_9
REMARK    4  A    between atoms: N_8  and  C_13
REMARK    5  A    between atoms: C_9  and  C_10
REMARK    6  A    between atoms: C_10  and  C_11
REMARK    7  A    between atoms: C_10  and  O_12
REMARK    8  A    between atoms: C_13  and  C_14
REMARK    9  A    between atoms: C_14  and  C_15
REMARK   10  A    between atoms: C_14  and  O_16
REMARK                            x       y       z     vdW  Elec       q    Type
REMARK                         _______ _______ _______ _____ _____    ______ ____
ROOT
ATOM      1  N   UNL     1      -0.212  17.947  -0.017  0.00  0.00    +0.000 N 
ENDROOT
BRANCH   1   6
ATOM      2  C   UNL     1       2.539  13.640  -2.704  0.00  0.00    +0.000 C 
ATOM      3  C   UNL     1       1.826  14.745  -1.985  0.00  0.00    +0.000 A 
ATOM      4  C   UNL     1       0.437  14.782  -1.930  0.00  0.00    +0.000 A 
ATOM      5  C   UNL     1      -0.226  15.836  -1.281  0.00  0.00    +0.000 A 
ATOM      6  C   UNL     1       0.456  16.909  -0.679  0.00  0.00    +0.000 A 
ATOM      7  C   UNL     1       1.859  16.838  -0.752  0.00  0.00    +0.000 A 
ATOM      8  C   UNL     1       2.535  15.788  -1.397  0.00  0.00    +0.000 A 
ENDBRANCH   1   6
BRANCH   1   9
ATOM      9  C   UNL     1      -1.520  17.693   0.634  0.00  0.00    +0.000 C 
BRANCH   9  10
ATOM     10  C   UNL     1      -2.577  18.772   0.295  0.00  0.00    +0.000 C 
ATOM     11  C   UNL     1      -3.834  18.138  -0.290  0.00  0.00    +0.000 C 
BRANCH  10  12
ATOM     12  O   UNL     1      -2.955  19.508   1.466  0.00  0.00    +0.000 OA
ATOM     13  H   UNL     1      -3.109  20.432   1.205  0.00  0.00    +0.000 HD
ENDBRANCH  10  12
ENDBRANCH   9  10
ENDBRANCH   1   9
BRANCH   1  14
ATOM     14  C   UNL     1       0.054  19.369  -0.352  0.00  0.00    +0.000 C 
BRANCH  14  15
ATOM     15  C   UNL     1       0.188  19.595  -1.877  0.00  0.00    +0.000 C 
ATOM     16  C   UNL     1      -0.893  20.507  -2.446  0.00  0.00    +0.000 C 
BRANCH  15  17
ATOM     17  O   UNL     1       1.458  20.148  -2.219  0.00  0.00    +0.000 OA
ATOM     18  H   UNL     1       1.821  20.486  -1.376  0.00  0.00    +0.000 HD
ENDBRANCH  15  17
ENDBRANCH  14  15
ENDBRANCH   1  14
TORSDOF 7
ENDMDL
MODEL 9
REMARK VINA RESULT:    -4.941      9.532     11.946
REMARK INTER + INTRA:          -7.195
REMARK INTER:                  -6.973
REMARK INTRA:                  -0.222
REMARK UNBOUND:                -0.520
REMARK  Name = 
REMARK  10 active torsions:
REMARK  status: ('A' for Active; 'I' for Inactive)
REMARK    1  A    between atoms: C_1  and  C_2
REMARK    2  A    between atoms: C_5  and  N_8
REMARK    3  A    between atoms: N_8  and  C_9
REMARK    4  A    between atoms: N_8  and  C_13
REMARK    5  A    between atoms: C_9  and  C_10
REMARK    6  A    between atoms: C_10  and  C_11
REMARK    7  A    between atoms: C_10  and  O_12
REMARK    8  A    between atoms: C_13  and  C_14
REMARK    9  A    between atoms: C_14  and  C_15
REMARK   10  A    between atoms: C_14  and  O_16
REMARK                            x       y       z     vdW  Elec       q    Type
REMARK                         _______ _______ _______ _____ _____    ______ ____
ROOT
ATOM      1  N   UNL     1      -1.218  16.300 -11.450  0.00  0.00    +0.000 N 
ENDROOT
BRANCH   1   6
ATOM      2  C   UNL     1       0.191  14.610 -16.788  0.00  0.00    +0.000 C 
ATOM      3  C   UNL     1      -0.152  15.043 -15.395  0.00  0.00    +0.000 A 
ATOM      4  C   UNL     1      -0.725  14.154 -14.492  0.00  0.00    +0.000 A 
ATOM      5  C   UNL     1      -1.072  14.573 -13.197  0.00  0.00    +0.000 A 
ATOM      6  C   UNL     1      -0.888  15.894 -12.749  0.00  0.00    +0.000 A 
ATOM      7  C   UNL     1      -0.304  16.764 -13.688  0.00  0.00    +0.000 A 
ATOM      8  C   UNL     1       0.050  16.358 -14.985  0.00  0.00    +0.000 A 
ENDBRANCH   1   6
BRANCH   1   9
ATOM      9  C   UNL     1      -0.615  17.529 -10.880  0.00  0.00    +0.000 C 
BRANCH   9  10
ATOM     10  C   UNL     1      -1.632  18.689 -10.743  0.00  0.00    +0.000 C 
ATOM     11  C   UNL     1      -2.771  18.535 -11.744  0.00  0.00    +0.000 C 
BRANCH  10  12
ATOM     12  O   UNL     1      -2.199  18.724  -9.426  0.00  0.00    +0.000 OA
ATOM     13  H   UNL     1      -3.166  18.739  -9.515  0.00  0.00    +0.000 HD
ENDBRANCH  10  12
ENDBRANCH   9  10
ENDBRANCH   1   9
BRANCH   1  14
ATOM     14  C   UNL     1      -1.726  15.329 -10.447  0.00  0.00    +0.000 C 
BRANCH  14  15
ATOM     15  C   UNL     1      -3.191  15.619 -10.043  0.00  0.00    +0.000 C 
ATOM     16  C   UNL     1      -4.185  15.363 -11.169  0.00  0.00    +0.000 C 
BRANCH  15  17
ATOM     17  O   UNL     1      -3.591  14.841  -8.916  0.00  0.00    +0.000 OA
ATOM     18  H   UNL     1      -2.926  15.036  -8.225  0.00  0.00    +0.000 HD
ENDBRANCH  15  17
ENDBRANCH  14  15
ENDBRANCH   1  14
TORSDOF 7
ENDMDL
