MODEL 1
REMARK VINA RESULT:    -4.270      0.000      0.000
REMARK INTER + INTRA:          -6.134
REMARK INTER:                  -5.768
REMARK INTRA:                  -0.366
REMARK UNBOUND:                -0.366
REMARK  Name = 
REMARK  10 active torsions:
REMARK  status: ('A' for Active; 'I' for Inactive)
REMARK    1  A    between atoms: C_1  and  C_2
REMARK    2  A    between atoms: C_5  and  N_8
REMARK    3  A    between atoms: N_8  and  C_9
REMARK    4  A    between atoms: N_8  and  C_13
REMARK    5  A    between atoms: C_9  and  C_10
REMARK    6  A    between atoms: C_10  and  C_11
REMARK    7  A    between atoms: C_10  and  O_12
REMARK    8  A    between atoms: C_13  and  C_14
REMARK    9  A    between atoms: C_14  and  C_15
REMARK   10  A    between atoms: C_14  and  O_16
REMARK                            x       y       z     vdW  Elec       q    Type
REMARK                         _______ _______ _______ _____ _____    ______ ____
ROOT
ATOM      1  N   UNL     1       1.450  19.340  -0.814  0.00  0.00    +0.000 N 
ENDROOT
BRANCH   1   6
ATOM      2  C   UNL     1       6.804  21.303  -1.712  0.00  0.00    +0.000 C 
ATOM      3  C   UNL     1       5.425  20.773  -1.469  0.00  0.00    +0.000 A 
ATOM      4  C   UNL     1       4.756  20.045  -2.448  0.00  0.00    +0.000 A 
ATOM      5  C   UNL     1       3.451  19.576  -2.226  0.00  0.00    +0.000 A 
ATOM      6  C   UNL     1       2.744  19.828  -1.036  0.00  0.00    +0.000 A 
ATOM      7  C   UNL     1       3.451  20.565  -0.068  0.00  0.00    +0.000 A 
ATOM      8  C   UNL     1       4.757  21.037  -0.276  0.00  0.00    +0.000 A 
ENDBRANCH   1   6
BRANCH   1   9
ATOM      9  C   UNL     1       0.803  18.463  -1.819  0.00  0.00    +0.000 C 
BRANCH   9  10
ATOM     10  C   UNL     1      -0.476  19.090  -2.427  0.00  0.00    +0.000 C 
ATOM     11  C   UNL     1      -0.156  20.396  -3.143  0.00  0.00    +0.000 C 
BRANCH  10  12
ATOM     12  O   UNL     1      -1.083  18.201  -3.375  0.00  0.00    +0.000 OA
ATOM     13  H   UNL     1      -1.957  18.558  -3.607  0.00  0.00    +0.000 HD
ENDBRANCH  10  12
ENDBRANCH   9  10
ENDBRANCH   1   9
BRANCH   1  14
ATOM     14  C   UNL     1       0.511  20.040   0.101  0.00  0.00    +0.000 C 
BRANCH  14  15
ATOM     15  C   UNL     1       0.186  19.199   1.359  0.00  0.00    +0.000 C 
ATOM     16  C   UNL     1      -1.081  18.366   1.212  0.00  0.00    +0.000 C 
BRANCH  15  17
ATOM     17  O   UNL     1       1.257  18.319   1.696  0.00  0.00    +0.000 OA
ATOM     18  H   UNL     1       2.071  18.815   1.475  0.00  0.00    +0.000 HD
ENDBRANCH  15  17
ENDBRANCH  14  15
ENDBRANCH   1  14
TORSDOF 7
ENDMDL
MODEL 2
REMARK VINA RESULT:    -3.765      2.313      4.649
REMARK INTER + INTRA:          -5.452
REMARK INTER:                  -5.065
REMARK INTRA:                  -0.386
REMARK UNBOUND:                -0.366
REMARK  Name = 
REMARK  10 active torsions:
REMARK  status: ('A' for Active; 'I' for Inactive)
REMARK    1  A    between atoms: C_1  and  C_2
REMARK    2  A    between atoms: C_5  and  N_8
REMARK    3  A    between atoms: N_8  and  C_9
REMARK    4  A    between atoms: N_8  and  C_13
REMARK    5  A    between atoms: C_9  and  C_10
REMARK    6  A    between atoms: C_10  and  C_11
REMARK    7  A    between atoms: C_10  and  O_12
REMARK    8  A    between atoms: C_13  and  C_14
REMARK    9  A    between atoms: C_14  and  C_15
REMARK   10  A    between atoms: C_14  and  O_16
REMARK                            x       y       z     vdW  Elec       q    Type
REMARK                         _______ _______ _______ _____ _____    ______ ____
ROOT
ATOM      1  N   UNL     1       2.378  19.007  -1.687  0.00  0.00    +0.000 N 
ENDROOT
BRANCH   1   6
ATOM      2  C   UNL     1      -1.434  21.350   1.961  0.00  0.00    +0.000 C 
ATOM      3  C   UNL     1      -0.426  20.755   1.025  0.00  0.00    +0.000 A 
ATOM      4  C   UNL     1      -0.180  21.329  -0.218  0.00  0.00    +0.000 A 
ATOM      5  C   UNL     1       0.743  20.751  -1.104  0.00  0.00    +0.000 A 
ATOM      6  C   UNL     1       1.444  19.568  -0.807  0.00  0.00    +0.000 A 
ATOM      7  C   UNL     1       1.172  19.016   0.458  0.00  0.00    +0.000 A 
ATOM      8  C   UNL     1       0.252  19.586   1.354  0.00  0.00    +0.000 A 
ENDBRANCH   1   6
BRANCH   1   9
ATOM      9  C   UNL     1       1.964  17.937  -2.627  0.00  0.00    +0.000 C 
BRANCH   9  10
ATOM     10  C   UNL     1       1.519  18.487  -4.004  0.00  0.00    +0.000 C 
ATOM     11  C   UNL     1       2.147  19.849  -4.277  0.00  0.00    +0.000 C 
BRANCH  10  12
ATOM     12  O   UNL     1       1.905  17.600  -5.063  0.00  0.00    +0.000 OA
ATOM     13  H   UNL     1       2.846  17.386  -4.948  0.00  0.00    +0.000 HD
ENDBRANCH  10  12
ENDBRANCH   9  10
ENDBRANCH   1   9
BRANCH   1  14
ATOM     14  C   UNL     1       3.834  19.054  -1.396  0.00  0.00    +0.000 C 
BRANCH  14  15
ATOM     15  C   UNL     1       4.378  20.502  -1.369  0.00  0.00    +0.000 C 
ATOM     16  C   UNL     1       4.458  21.087   0.036  0.00  0.00    +0.000 C 
BRANCH  15  17
ATOM     17  O   UNL     1       5.674  20.589  -1.959  0.00  0.00    +0.000 OA
ATOM     18  H   UNL     1       5.711  19.850  -2.599  0.00  0.00    +0.000 HD
ENDBRANCH  15  17
ENDBRANCH  14  15
ENDBRANCH   1  14
TORSDOF 7
ENDMDL
MODEL 3
REMARK VINA RESULT:    -3.732     12.513     15.437
REMARK INTER + INTRA:          -5.407
REMARK INTER:                  -4.933
REMARK INTRA:                  -0.474
REMARK UNBOUND:                -0.366
REMARK  Name = 
REMARK  10 active torsions:
REMARK  status: ('A' for Active; 'I' for Inactive)
REMARK    1  A    between atoms: C_1  and  C_2
REMARK    2  A    between atoms: C_5  and  N_8
REMARK    3  A    between atoms: N_8  and  C_9
REMARK    4  A    between atoms: N_8  and  C_13
REMARK    5  A    between atoms: C_9  and  C_10
REMARK    6  A    between atoms: C_10  and  C_11
REMARK    7  A    between atoms: C_10  and  O_12
REMARK    8  A    between atoms: C_13  and  C_14
REMARK    9  A    between atoms: C_14  and  C_15
REMARK   10  A    between atoms: C_14  and  O_16
REMARK                            x       y       z     vdW  Elec       q    Type
REMARK                         _______ _______ _______ _____ _____    ______ ____
ROOT
ATOM      1  N   UNL     1      15.610  17.810   4.239  0.00  0.00    +0.000 N 
ENDROOT
BRANCH   1   6
ATOM      2  C   UNL     1      16.592  12.123   4.373  0.00  0.00    +0.000 C 
ATOM      3  C   UNL     1      16.337  13.598   4.313  0.00  0.00    +0.000 A 
ATOM      4  C   UNL     1      17.391  14.505   4.304  0.00  0.00    +0.000 A 
ATOM      5  C   UNL     1      17.145  15.888   4.278  0.00  0.00    +0.000 A 
ATOM      6  C   UNL     1      15.847  16.430   4.284  0.00  0.00    +0.000 A 
ATOM      7  C   UNL     1      14.806  15.484   4.291  0.00  0.00    +0.000 A 
ATOM      8  C   UNL     1      15.038  14.099   4.315  0.00  0.00    +0.000 A 
ENDBRANCH   1   6
BRANCH   1   9
ATOM      9  C   UNL     1      14.391  18.333   3.575  0.00  0.00    +0.000 C 
BRANCH   9  10
ATOM     10  C   UNL     1      13.281  18.723   4.581  0.00  0.00    +0.000 C 
ATOM     11  C   UNL     1      12.807  20.152   4.342  0.00  0.00    +0.000 C 
BRANCH  10  12
ATOM     12  O   UNL     1      12.147  17.853   4.459  0.00  0.00    +0.000 OA
ATOM     13  H   UNL     1      12.431  17.053   3.987  0.00  0.00    +0.000 HD
ENDBRANCH  10  12
ENDBRANCH   9  10
ENDBRANCH   1   9
BRANCH   1  14
ATOM     14  C   UNL     1      16.723  18.786   4.360  0.00  0.00    +0.000 C 
BRANCH  14  15
ATOM     15  C   UNL     1      17.052  19.467   3.010  0.00  0.00    +0.000 C 
ATOM     16  C   UNL     1      17.800  20.785   3.170  0.00  0.00    +0.000 C 
BRANCH  15  17
ATOM     17  O   UNL     1      17.830  18.617   2.167  0.00  0.00    +0.000 OA
ATOM     18  H   UNL     1      18.603  18.363   2.710  0.00  0.00    +0.000 HD
ENDBRANCH  15  17
ENDBRANCH  14  15
ENDBRANCH   1  14
TORSDOF 7
ENDMDL
MODEL 4
REMARK VINA RESULT:    -3.714     17.007     18.841
REMARK INTER + INTRA:          -5.383
REMARK INTER:                  -4.985
REMARK INTRA:                  -0.398
REMARK UNBOUND:                -0.366
REMARK  Name = 
REMARK  10 active torsions:
REMARK  status: ('A' for Active; 'I' for Inactive)
REMARK    1  A    between atoms: C_1  and  C_2
REMARK    2  A    between atoms: C_5  and  N_8
REMARK    3  A    between atoms: N_8  and  C_9
REMARK    4  A    between atoms: N_8  and  C_13
REMARK    5  A    between atoms: C_9  and  C_10
REMARK    6  A    between atoms: C_10  and  C_11
REMARK    7  A    between atoms: C_10  and  O_12
REMARK    8  A    between atoms: C_13  and  C_14
REMARK    9  A    between atoms: C_14  and  C_15
REMARK   10  A    between atoms: C_14  and  O_16
REMARK                            x       y       z     vdW  Elec       q    Type
REMARK                         _______ _______ _______ _____ _____    ______ ____
ROOT
ATOM      1  N   UNL     1      19.171  17.059  -7.385  0.00  0.00    +0.000 N 
ENDROOT
BRANCH   1   6
ATOM      2  C   UNL     1      15.944  20.070 -11.107  0.00  0.00    +0.000 C 
ATOM      3  C   UNL     1      16.781  19.269 -10.157  0.00  0.00    +0.000 A 
ATOM      4  C   UNL     1      16.192  18.522  -9.142  0.00  0.00    +0.000 A 
ATOM      5  C   UNL     1      16.983  17.797  -8.235  0.00  0.00    +0.000 A 
ATOM      6  C   UNL     1      18.389  17.800  -8.280  0.00  0.00    +0.000 A 
ATOM      7  C   UNL     1      18.949  18.564  -9.320  0.00  0.00    +0.000 A 
ATOM      8  C   UNL     1      18.170  19.292 -10.235  0.00  0.00    +0.000 A 
ENDBRANCH   1   6
BRANCH   1   9
ATOM      9  C   UNL     1      20.523  17.537  -7.008  0.00  0.00    +0.000 C 
BRANCH   9  10
ATOM     10  C   UNL     1      20.563  18.177  -5.599  0.00  0.00    +0.000 C 
ATOM     11  C   UNL     1      20.308  19.678  -5.675  0.00  0.00    +0.000 C 
BRANCH  10  12
ATOM     12  O   UNL     1      19.566  17.600  -4.744  0.00  0.00    +0.000 OA
ATOM     13  H   UNL     1      19.806  17.802  -3.824  0.00  0.00    +0.000 HD
ENDBRANCH  10  12
ENDBRANCH   9  10
ENDBRANCH   1   9
BRANCH   1  14
ATOM     14  C   UNL     1      18.945  15.604  -7.189  0.00  0.00    +0.000 C 
BRANCH  14  15
ATOM     15  C   UNL     1      19.191  14.795  -8.485  0.00  0.00    +0.000 C 
ATOM     16  C   UNL     1      20.662  14.481  -8.726  0.00  0.00    +0.000 C 
BRANCH  15  17
ATOM     17  O   UNL     1      18.471  13.563  -8.482  0.00  0.00    +0.000 OA
ATOM     18  H   UNL     1      19.109  12.898  -8.153  0.00  0.00    +0.000 HD
ENDBRANCH  15  17
ENDBRANCH  14  15
ENDBRANCH   1  14
TORSDOF 7
ENDMDL
MODEL 5
REMARK VINA RESULT:    -3.713     16.267     18.601
REMARK INTER + INTRA:          -5.382
REMARK INTER:                  -4.913
REMARK INTRA:                  -0.469
REMARK UNBOUND:                -0.366
REMARK  Name = 
REMARK  10 active torsions:
REMARK  status: ('A' for Active; 'I' for Inactive)
REMARK    1  A    between atoms: C_1  and  C_2
REMARK    2  A    between atoms: C_5  and  N_8
REMARK    3  A    between atoms: N_8  and  C_9
REMARK    4  A    between atoms: N_8  and  C_13
REMARK    5  A    between atoms: C_9  and  C_10
REMARK    6  A    between atoms: C_10  and  C_11
REMARK    7  A    between atoms: C_10  and  O_12
REMARK    8  A    between atoms: C_13  and  C_14
REMARK    9  A    between atoms: C_14  and  C_15
REMARK   10  A    between atoms: C_14  and  O_16
REMARK                            x       y       z     vdW  Elec       q    Type
REMARK                         _______ _______ _______ _____ _____    ______ ____
ROOT
ATOM      1  N   UNL     1      19.360  17.756  -8.140  0.00  0.00    +0.000 N 
ENDROOT
BRANCH   1   6
ATOM      2  C   UNL     1      14.951  21.350  -9.129  0.00  0.00    +0.000 C 
ATOM      3  C   UNL     1      16.096  20.412  -8.897  0.00  0.00    +0.000 A 
ATOM      4  C   UNL     1      15.872  19.079  -8.567  0.00  0.00    +0.000 A 
ATOM      5  C   UNL     1      16.949  18.212  -8.321  0.00  0.00    +0.000 A 
ATOM      6  C   UNL     1      18.290  18.631  -8.368  0.00  0.00    +0.000 A 
ATOM      7  C   UNL     1      18.479  19.984  -8.707  0.00  0.00    +0.000 A 
ATOM      8  C   UNL     1      17.412  20.861  -8.957  0.00  0.00    +0.000 A 
ENDBRANCH   1   6
BRANCH   1   9
ATOM      9  C   UNL     1      20.356  17.505  -9.210  0.00  0.00    +0.000 C 
BRANCH   9  10
ATOM     10  C   UNL     1      19.711  16.994 -10.522  0.00  0.00    +0.000 C 
ATOM     11  C   UNL     1      20.237  17.768 -11.725  0.00  0.00    +0.000 C 
BRANCH  10  12
ATOM     12  O   UNL     1      19.998  15.604 -10.729  0.00  0.00    +0.000 OA
ATOM     13  H   UNL     1      19.496  15.305 -11.506  0.00  0.00    +0.000 HD
ENDBRANCH  10  12
ENDBRANCH   9  10
ENDBRANCH   1   9
BRANCH   1  14
ATOM     14  C   UNL     1      19.279  16.697  -7.102  0.00  0.00    +0.000 C 
BRANCH  14  15
ATOM     15  C   UNL     1      20.066  17.073  -5.823  0.00  0.00    +0.000 C 
ATOM     16  C   UNL     1      19.889  18.531  -5.417  0.00  0.00    +0.000 C 
BRANCH  15  17
ATOM     17  O   UNL     1      19.690  16.257  -4.714  0.00  0.00    +0.000 OA
ATOM     18  H   UNL     1      20.064  15.375  -4.911  0.00  0.00    +0.000 HD
ENDBRANCH  15  17
ENDBRANCH  14  15
ENDBRANCH   1  14
TORSDOF 7
ENDMDL
MODEL 6
REMARK VINA RESULT:    -3.452     16.562     19.656
REMARK INTER + INTRA:          -5.029
REMARK INTER:                  -4.495
REMARK INTRA:                  -0.534
REMARK UNBOUND:                -0.366
REMARK  Name = 
REMARK  10 active torsions:
REMARK  status: ('A' for Active; 'I' for Inactive)
REMARK    1  A    between atoms: C_1  and  C_2
REMARK    2  A    between atoms: C_5  and  N_8
REMARK    3  A    between atoms: N_8  and  C_9
REMARK    4  A    between atoms: N_8  and  C_13
REMARK    5  A    between atoms: C_9  and  C_10
REMARK    6  A    between atoms: C_10  and  C_11
REMARK    7  A    between atoms: C_10  and  O_12
REMARK    8  A    between atoms: C_13  and  C_14
REMARK    9  A    between atoms: C_14  and  C_15
REMARK   10  A    between atoms: C_14  and  O_16
REMARK                            x       y       z     vdW  Elec       q    Type
REMARK                         _______ _______ _______ _____ _____    ______ ____
ROOT
ATOM      1  N   UNL     1      19.893  18.071  -8.473  0.00  0.00    +0.000 N 
ENDROOT
BRANCH   1   6
ATOM      2  C   UNL     1      20.691  13.243 -11.536  0.00  0.00    +0.000 C 
ATOM      3  C   UNL     1      20.459  14.493 -10.744  0.00  0.00    +0.000 A 
ATOM      4  C   UNL     1      20.433  15.738 -11.365  0.00  0.00    +0.000 A 
ATOM      5  C   UNL     1      20.245  16.909 -10.613  0.00  0.00    +0.000 A 
ATOM      6  C   UNL     1      20.099  16.901  -9.214  0.00  0.00    +0.000 A 
ATOM      7  C   UNL     1      20.129  15.625  -8.621  0.00  0.00    +0.000 A 
ATOM      8  C   UNL     1      20.314  14.446  -9.361  0.00  0.00    +0.000 A 
ENDBRANCH   1   6
BRANCH   1   9
ATOM      9  C   UNL     1      20.545  18.239  -7.152  0.00  0.00    +0.000 C 
BRANCH   9  10
ATOM     10  C   UNL     1      19.531  18.288  -5.983  0.00  0.00    +0.000 C 
ATOM     11  C   UNL     1      19.557  16.990  -5.185  0.00  0.00    +0.000 C 
BRANCH  10  12
ATOM     12  O   UNL     1      19.830  19.367  -5.087  0.00  0.00    +0.000 OA
ATOM     13  H   UNL     1      19.566  20.198  -5.517  0.00  0.00    +0.000 HD
ENDBRANCH  10  12
ENDBRANCH   9  10
ENDBRANCH   1   9
BRANCH   1  14
ATOM     14  C   UNL     1      18.688  18.913  -8.686  0.00  0.00    +0.000 C 
BRANCH  14  15
ATOM     15  C   UNL     1      17.389  18.073  -8.740  0.00  0.00    +0.000 C 
ATOM     16  C   UNL     1      16.286  18.616  -7.841  0.00  0.00    +0.000 C 
BRANCH  15  17
ATOM     17  O   UNL     1      16.874  17.985 -10.068  0.00  0.00    +0.000 OA
ATOM     18  H   UNL     1      17.358  17.240 -10.478  0.00  0.00    +0.000 HD
ENDBRANCH  15  17
ENDBRANCH  14  15
ENDBRANCH   1  14
TORSDOF 7
ENDMDL
MODEL 7
REMARK VINA RESULT:    -3.450     16.576     19.364
REMARK INTER + INTRA:          -5.026
REMARK INTER:                  -4.279
REMARK INTRA:                  -0.747
REMARK UNBOUND:                -0.366
REMARK  Name = 
REMARK  10 active torsions:
REMARK  status: ('A' for Active; 'I' for Inactive)
REMARK    1  A    between atoms: C_1  and  C_2
REMARK    2  A    between atoms: C_5  and  N_8
REMARK    3  A    between atoms: N_8  and  C_9
REMARK    4  A    between atoms: N_8  and  C_13
REMARK    5  A    between atoms: C_9  and  C_10
REMARK    6  A    between atoms: C_10  and  C_11
REMARK    7  A    between atoms: C_10  and  O_12
REMARK    8  A    between atoms: C_13  and  C_14
REMARK    9  A    between atoms: C_14  and  C_15
REMARK   10  A    between atoms: C_14  and  O_16
REMARK                            x       y       z     vdW  Elec       q    Type
REMARK                         _______ _______ _______ _____ _____    ______ ____
ROOT
ATOM      1  N   UNL     1      19.260  18.151  -8.711  0.00  0.00    +0.000 N 
ENDROOT
BRANCH   1   6
ATOM      2  C   UNL     1      19.900  17.512 -14.413  0.00  0.00    +0.000 C 
ATOM      3  C   UNL     1      19.756  17.690 -12.933  0.00  0.00    +0.000 A 
ATOM      4  C   UNL     1      20.201  16.712 -12.049  0.00  0.00    +0.000 A 
ATOM      5  C   UNL     1      20.037  16.870 -10.663  0.00  0.00    +0.000 A 
ATOM      6  C   UNL     1      19.403  17.990 -10.095  0.00  0.00    +0.000 A 
ATOM      7  C   UNL     1      18.967  18.959 -11.018  0.00  0.00    +0.000 A 
ATOM      8  C   UNL     1      19.128  18.815 -12.406  0.00  0.00    +0.000 A 
ENDBRANCH   1   6
BRANCH   1   9
ATOM      9  C   UNL     1      18.168  18.996  -8.170  0.00  0.00    +0.000 C 
BRANCH   9  10
ATOM     10  C   UNL     1      16.817  18.246  -8.079  0.00  0.00    +0.000 C 
ATOM     11  C   UNL     1      15.824  18.785  -9.102  0.00  0.00    +0.000 C 
BRANCH  10  12
ATOM     12  O   UNL     1      16.990  16.843  -8.324  0.00  0.00    +0.000 OA
ATOM     13  H   UNL     1      17.914  16.615  -8.132  0.00  0.00    +0.000 HD
ENDBRANCH  10  12
ENDBRANCH   9  10
ENDBRANCH   1   9
BRANCH   1  14
ATOM     14  C   UNL     1      20.408  17.948  -7.790  0.00  0.00    +0.000 C 
BRANCH  14  15
ATOM     15  C   UNL     1      20.182  16.756  -6.829  0.00  0.00    +0.000 C 
ATOM     16  C   UNL     1      19.620  17.175  -5.476  0.00  0.00    +0.000 C 
BRANCH  15  17
ATOM     17  O   UNL     1      19.302  15.785  -7.392  0.00  0.00    +0.000 OA
ATOM     18  H   UNL     1      19.549  15.737  -8.337  0.00  0.00    +0.000 HD
ENDBRANCH  15  17
ENDBRANCH  14  15
ENDBRANCH   1  14
TORSDOF 7
ENDMDL
MODEL 8
REMARK VINA RESULT:    -3.422     13.159     16.114
REMARK INTER + INTRA:          -4.988
REMARK INTER:                  -4.468
REMARK INTRA:                  -0.520
REMARK UNBOUND:                -0.366
REMARK  Name = 
REMARK  10 active torsions:
REMARK  status: ('A' for Active; 'I' for Inactive)
REMARK    1  A    between atoms: C_1  and  C_2
REMARK    2  A    between atoms: C_5  and  N_8
REMARK    3  A    between atoms: N_8  and  C_9
REMARK    4  A    between atoms: N_8  and  C_13
REMARK    5  A    between atoms: C_9  and  C_10
REMARK    6  A    between atoms: C_10  and  C_11
REMARK    7  A    between atoms: C_10  and  O_12
REMARK    8  A    between atoms: C_13  and  C_14
REMARK    9  A    between atoms: C_14  and  C_15
REMARK   10  A    between atoms: C_14  and  O_16
REMARK                            x       y       z     vdW  Elec       q    Type
REMARK                         _______ _______ _______ _____ _____    ______ ____
ROOT
ATOM      1  N   UNL     1      16.383  15.667   3.654  0.00  0.00    +0.000 N 
ENDROOT
BRANCH   1   6
ATOM      2  C   UNL     1      12.754  20.048   4.637  0.00  0.00    +0.000 C 
ATOM      3  C   UNL     1      13.704  18.913   4.406  0.00  0.00    +0.000 A 
ATOM      4  C   UNL     1      14.980  19.141   3.901  0.00  0.00    +0.000 A 
ATOM      5  C   UNL     1      15.855  18.070   3.658  0.00  0.00    +0.000 A 
ATOM      6  C   UNL     1      15.498  16.728   3.881  0.00  0.00    +0.000 A 
ATOM      7  C   UNL     1      14.201  16.536   4.393  0.00  0.00    +0.000 A 
ATOM      8  C   UNL     1      13.317  17.598   4.643  0.00  0.00    +0.000 A 
ENDBRANCH   1   6
BRANCH   1   9
ATOM      9  C   UNL     1      16.459  14.544   4.619  0.00  0.00    +0.000 C 
BRANCH   9  10
ATOM     10  C   UNL     1      16.463  13.158   3.929  0.00  0.00    +0.000 C 
ATOM     11  C   UNL     1      17.424  12.203   4.627  0.00  0.00    +0.000 C 
BRANCH  10  12
ATOM     12  O   UNL     1      15.156  12.568   3.951  0.00  0.00    +0.000 OA
ATOM     13  H   UNL     1      14.629  13.030   4.624  0.00  0.00    +0.000 HD
ENDBRANCH  10  12
ENDBRANCH   9  10
ENDBRANCH   1   9
BRANCH   1  14
ATOM     14  C   UNL     1      17.584  15.837   2.798  0.00  0.00    +0.000 C 
BRANCH  14  15
ATOM     15  C   UNL     1      18.864  16.091   3.630  0.00  0.00    +0.000 C 
ATOM     16  C   UNL     1      19.994  15.122   3.303  0.00  0.00    +0.000 C 
BRANCH  15  17
ATOM     17  O   UNL     1      19.355  17.419   3.451  0.00  0.00    +0.000 OA
ATOM     18  H   UNL     1      19.452  17.524   2.483  0.00  0.00    +0.000 HD
ENDBRANCH  15  17
ENDBRANCH  14  15
ENDBRANCH   1  14
TORSDOF 7
ENDMDL
