MODEL 1
REMARK VINA RESULT:    -4.150      0.000      0.000
REMARK INTER + INTRA:          -6.015
REMARK INTER:                  -5.605
REMARK INTRA:                  -0.410
REMARK UNBOUND:                -0.410
REMARK  Name = 
REMARK  10 active torsions:
REMARK  status: ('A' for Active; 'I' for Inactive)
REMARK    1  A    between atoms: C_1  and  C_2
REMARK    2  A    between atoms: C_5  and  N_8
REMARK    3  A    between atoms: N_8  and  C_9
REMARK    4  A    between atoms: N_8  and  C_13
REMARK    5  A    between atoms: C_9  and  C_10
REMARK    6  A    between atoms: C_10  and  C_11
REMARK    7  A    between atoms: C_10  and  O_12
REMARK    8  A    between atoms: C_13  and  C_14
REMARK    9  A    between atoms: C_14  and  C_15
REMARK   10  A    between atoms: C_14  and  O_16
REMARK                            x       y       z     vdW  Elec       q    Type
REMARK                         _______ _______ _______ _____ _____    ______ ____
ROOT
ATOM      1  N   UNL     1       1.403  20.468   0.594  0.00  0.00    +0.000 N 
ENDROOT
BRANCH   1   6
ATOM      2  C   UNL     1       2.279  18.551  -4.781  0.00  0.00    +0.000 C 
ATOM      3  C   UNL     1       2.028  19.041  -3.388  0.00  0.00    +0.000 A 
ATOM      4  C   UNL     1       1.631  20.353  -3.152  0.00  0.00    +0.000 A 
ATOM      5  C   UNL     1       1.426  20.815  -1.842  0.00  0.00    +0.000 A 
ATOM      6  C   UNL     1       1.628  20.006  -0.709  0.00  0.00    +0.000 A 
ATOM      7  C   UNL     1       2.028  18.685  -0.985  0.00  0.00    +0.000 A 
ATOM      8  C   UNL     1       2.234  18.210  -2.291  0.00  0.00    +0.000 A 
ENDBRANCH   1   6
BRANCH   1   9
ATOM      9  C   UNL     1       0.022  20.548   1.126  0.00  0.00    +0.000 C 
BRANCH   9  10
ATOM     10  C   UNL     1      -0.494  19.190   1.662  0.00  0.00    +0.000 C 
ATOM     11  C   UNL     1      -1.356  18.485   0.621  0.00  0.00    +0.000 C 
BRANCH  10  12
ATOM     12  O   UNL     1       0.596  18.322   1.999  0.00  0.00    +0.000 OA
ATOM     13  H   UNL     1       0.877  18.528   2.906  0.00  0.00    +0.000 HD
ENDBRANCH  10  12
ENDBRANCH   9  10
ENDBRANCH   1   9
BRANCH   1  14
ATOM     14  C   UNL     1       2.389  21.342   1.280  0.00  0.00    +0.000 C 
BRANCH  14  15
ATOM     15  C   UNL     1       3.828  20.779   1.196  0.00  0.00    +0.000 C 
ATOM     16  C   UNL     1       4.628  21.350   0.032  0.00  0.00    +0.000 C 
BRANCH  15  17
ATOM     17  O   UNL     1       4.560  21.022   2.397  0.00  0.00    +0.000 OA
ATOM     18  H   UNL     1       5.263  21.652   2.141  0.00  0.00    +0.000 HD
ENDBRANCH  15  17
ENDBRANCH  14  15
ENDBRANCH   1  14
TORSDOF 7
ENDMDL
MODEL 2
REMARK VINA RESULT:    -3.799     17.033     18.983
REMARK INTER + INTRA:          -5.541
REMARK INTER:                  -5.361
REMARK INTRA:                  -0.180
REMARK UNBOUND:                -0.410
REMARK  Name = 
REMARK  10 active torsions:
REMARK  status: ('A' for Active; 'I' for Inactive)
REMARK    1  A    between atoms: C_1  and  C_2
REMARK    2  A    between atoms: C_5  and  N_8
REMARK    3  A    between atoms: N_8  and  C_9
REMARK    4  A    between atoms: N_8  and  C_13
REMARK    5  A    between atoms: C_9  and  C_10
REMARK    6  A    between atoms: C_10  and  C_11
REMARK    7  A    between atoms: C_10  and  O_12
REMARK    8  A    between atoms: C_13  and  C_14
REMARK    9  A    between atoms: C_14  and  C_15
REMARK   10  A    between atoms: C_14  and  O_16
REMARK                            x       y       z     vdW  Elec       q    Type
REMARK                         _______ _______ _______ _____ _____    ______ ____
ROOT
ATOM      1  N   UNL     1      19.135  17.244  -8.231  0.00  0.00    +0.000 N 
ENDROOT
BRANCH   1   6
ATOM      2  C   UNL     1      15.147  21.350  -8.987  0.00  0.00    +0.000 C 
ATOM      3  C   UNL     1      16.184  20.291  -8.767  0.00  0.00    +0.000 A 
ATOM      4  C   UNL     1      17.534  20.561  -8.964  0.00  0.00    +0.000 A 
ATOM      5  C   UNL     1      18.499  19.556  -8.785  0.00  0.00    +0.000 A 
ATOM      6  C   UNL     1      18.166  18.237  -8.427  0.00  0.00    +0.000 A 
ATOM      7  C   UNL     1      16.793  18.000  -8.234  0.00  0.00    +0.000 A 
ATOM      8  C   UNL     1      15.818  18.997  -8.407  0.00  0.00    +0.000 A 
ENDBRANCH   1   6
BRANCH   1   9
ATOM      9  C   UNL     1      19.097  16.398  -7.015  0.00  0.00    +0.000 C 
BRANCH   9  10
ATOM     10  C   UNL     1      19.827  17.042  -5.811  0.00  0.00    +0.000 C 
ATOM     11  C   UNL     1      19.155  18.347  -5.401  0.00  0.00    +0.000 C 
BRANCH  10  12
ATOM     12  O   UNL     1      19.825  16.165  -4.677  0.00  0.00    +0.000 OA
ATOM     13  H   UNL     1      20.548  16.433  -4.086  0.00  0.00    +0.000 HD
ENDBRANCH  10  12
ENDBRANCH   9  10
ENDBRANCH   1   9
BRANCH   1  14
ATOM     14  C   UNL     1      20.462  17.323  -8.895  0.00  0.00    +0.000 C 
BRANCH  14  15
ATOM     15  C   UNL     1      20.538  16.427 -10.155  0.00  0.00    +0.000 C 
ATOM     16  C   UNL     1      20.551  14.938  -9.832  0.00  0.00    +0.000 C 
BRANCH  15  17
ATOM     17  O   UNL     1      19.452  16.676 -11.046  0.00  0.00    +0.000 OA
ATOM     18  H   UNL     1      18.773  16.013 -10.809  0.00  0.00    +0.000 HD
ENDBRANCH  15  17
ENDBRANCH  14  15
ENDBRANCH   1  14
TORSDOF 7
ENDMDL
MODEL 3
REMARK VINA RESULT:    -3.468      2.846      5.414
REMARK INTER + INTRA:          -5.094
REMARK INTER:                  -4.733
REMARK INTRA:                  -0.361
REMARK UNBOUND:                -0.410
REMARK  Name = 
REMARK  10 active torsions:
REMARK  status: ('A' for Active; 'I' for Inactive)
REMARK    1  A    between atoms: C_1  and  C_2
REMARK    2  A    between atoms: C_5  and  N_8
REMARK    3  A    between atoms: N_8  and  C_9
REMARK    4  A    between atoms: N_8  and  C_13
REMARK    5  A    between atoms: C_9  and  C_10
REMARK    6  A    between atoms: C_10  and  C_11
REMARK    7  A    between atoms: C_10  and  O_12
REMARK    8  A    between atoms: C_13  and  C_14
REMARK    9  A    between atoms: C_14  and  C_15
REMARK   10  A    between atoms: C_14  and  O_16
REMARK                            x       y       z     vdW  Elec       q    Type
REMARK                         _______ _______ _______ _____ _____    ______ ____
ROOT
ATOM      1  N   UNL     1       1.786  20.517  -1.755  0.00  0.00    +0.000 N 
ENDROOT
BRANCH   1   6
ATOM      2  C   UNL     1       2.962  21.350   3.836  0.00  0.00    +0.000 C 
ATOM      3  C   UNL     1       2.658  21.109   2.389  0.00  0.00    +0.000 A 
ATOM      4  C   UNL     1       3.679  21.016   1.450  0.00  0.00    +0.000 A 
ATOM      5  C   UNL     1       3.386  20.820   0.090  0.00  0.00    +0.000 A 
ATOM      6  C   UNL     1       2.071  20.732  -0.400  0.00  0.00    +0.000 A 
ATOM      7  C   UNL     1       1.064  20.828   0.578  0.00  0.00    +0.000 A 
ATOM      8  C   UNL     1       1.343  21.022   1.941  0.00  0.00    +0.000 A 
ENDBRANCH   1   6
BRANCH   1   9
ATOM      9  C   UNL     1       2.832  19.977  -2.657  0.00  0.00    +0.000 C 
BRANCH   9  10
ATOM     10  C   UNL     1       2.688  18.454  -2.897  0.00  0.00    +0.000 C 
ATOM     11  C   UNL     1       2.005  17.777  -1.715  0.00  0.00    +0.000 C 
BRANCH  10  12
ATOM     12  O   UNL     1       1.909  18.189  -4.072  0.00  0.00    +0.000 OA
ATOM     13  H   UNL     1       2.404  17.565  -4.628  0.00  0.00    +0.000 HD
ENDBRANCH  10  12
ENDBRANCH   9  10
ENDBRANCH   1   9
BRANCH   1  14
ATOM     14  C   UNL     1       0.693  21.255  -2.437  0.00  0.00    +0.000 C 
BRANCH  14  15
ATOM     15  C   UNL     1      -0.436  20.313  -2.920  0.00  0.00    +0.000 C 
ATOM     16  C   UNL     1      -1.125  19.571  -1.781  0.00  0.00    +0.000 C 
BRANCH  15  17
ATOM     17  O   UNL     1      -1.434  21.019  -3.655  0.00  0.00    +0.000 OA
ATOM     18  H   UNL     1      -2.235  20.461  -3.595  0.00  0.00    +0.000 HD
ENDBRANCH  15  17
ENDBRANCH  14  15
ENDBRANCH   1  14
TORSDOF 7
ENDMDL
MODEL 4
REMARK VINA RESULT:    -3.462      1.982      3.794
REMARK INTER + INTRA:          -5.086
REMARK INTER:                  -4.635
REMARK INTRA:                  -0.451
REMARK UNBOUND:                -0.410
REMARK  Name = 
REMARK  10 active torsions:
REMARK  status: ('A' for Active; 'I' for Inactive)
REMARK    1  A    between atoms: C_1  and  C_2
REMARK    2  A    between atoms: C_5  and  N_8
REMARK    3  A    between atoms: N_8  and  C_9
REMARK    4  A    between atoms: N_8  and  C_13
REMARK    5  A    between atoms: C_9  and  C_10
REMARK    6  A    between atoms: C_10  and  C_11
REMARK    7  A    between atoms: C_10  and  O_12
REMARK    8  A    between atoms: C_13  and  C_14
REMARK    9  A    between atoms: C_14  and  C_15
REMARK   10  A    between atoms: C_14  and  O_16
REMARK                            x       y       z     vdW  Elec       q    Type
REMARK                         _______ _______ _______ _____ _____    ______ ____
ROOT
ATOM      1  N   UNL     1       0.615  20.603  -0.338  0.00  0.00    +0.000 N 
ENDROOT
BRANCH   1   6
ATOM      2  C   UNL     1       6.156  20.605  -1.959  0.00  0.00    +0.000 C 
ATOM      3  C   UNL     1       4.721  20.581  -1.529  0.00  0.00    +0.000 A 
ATOM      4  C   UNL     1       3.722  20.154  -2.398  0.00  0.00    +0.000 A 
ATOM      5  C   UNL     1       2.376  20.163  -2.000  0.00  0.00    +0.000 A 
ATOM      6  C   UNL     1       1.958  20.616  -0.736  0.00  0.00    +0.000 A 
ATOM      7  C   UNL     1       2.995  21.038   0.117  0.00  0.00    +0.000 A 
ATOM      8  C   UNL     1       4.346  21.033  -0.267  0.00  0.00    +0.000 A 
ENDBRANCH   1   6
BRANCH   1   9
ATOM      9  C   UNL     1      -0.405  21.316  -1.144  0.00  0.00    +0.000 C 
BRANCH   9  10
ATOM     10  C   UNL     1      -1.317  20.355  -1.945  0.00  0.00    +0.000 C 
ATOM     11  C   UNL     1      -1.431  20.797  -3.399  0.00  0.00    +0.000 C 
BRANCH  10  12
ATOM     12  O   UNL     1      -0.798  19.018  -1.926  0.00  0.00    +0.000 OA
ATOM     13  H   UNL     1      -0.087  18.980  -1.265  0.00  0.00    +0.000 HD
ENDBRANCH  10  12
ENDBRANCH   9  10
ENDBRANCH   1   9
BRANCH   1  14
ATOM     14  C   UNL     1       0.234  20.357   1.076  0.00  0.00    +0.000 C 
BRANCH  14  15
ATOM     15  C   UNL     1       0.018  18.853   1.370  0.00  0.00    +0.000 C 
ATOM     16  C   UNL     1      -1.434  18.415   1.217  0.00  0.00    +0.000 C 
BRANCH  15  17
ATOM     17  O   UNL     1       0.820  18.030   0.524  0.00  0.00    +0.000 OA
ATOM     18  H   UNL     1       1.489  18.634   0.145  0.00  0.00    +0.000 HD
ENDBRANCH  15  17
ENDBRANCH  14  15
ENDBRANCH   1  14
TORSDOF 7
ENDMDL
MODEL 5
REMARK VINA RESULT:    -3.428     17.872     19.752
REMARK INTER + INTRA:          -5.039
REMARK INTER:                  -4.284
REMARK INTRA:                  -0.755
REMARK UNBOUND:                -0.410
REMARK  Name = 
REMARK  10 active torsions:
REMARK  status: ('A' for Active; 'I' for Inactive)
REMARK    1  A    between atoms: C_1  and  C_2
REMARK    2  A    between atoms: C_5  and  N_8
REMARK    3  A    between atoms: N_8  and  C_9
REMARK    4  A    between atoms: N_8  and  C_13
REMARK    5  A    between atoms: C_9  and  C_10
REMARK    6  A    between atoms: C_10  and  C_11
REMARK    7  A    between atoms: C_10  and  O_12
REMARK    8  A    between atoms: C_13  and  C_14
REMARK    9  A    between atoms: C_14  and  C_15
REMARK   10  A    between atoms: C_14  and  O_16
REMARK                            x       y       z     vdW  Elec       q    Type
REMARK                         _______ _______ _______ _____ _____    ______ ____
ROOT
ATOM      1  N   UNL     1      19.259  18.141  -8.701  0.00  0.00    +0.000 N 
ENDROOT
BRANCH   1   6
ATOM      2  C   UNL     1      19.929  17.474 -14.396  0.00  0.00    +0.000 C 
ATOM      3  C   UNL     1      19.777  17.659 -12.917  0.00  0.00    +0.000 A 
ATOM      4  C   UNL     1      20.213  16.683 -12.027  0.00  0.00    +0.000 A 
ATOM      5  C   UNL     1      20.040  16.848 -10.643  0.00  0.00    +0.000 A 
ATOM      6  C   UNL     1      19.410  17.974 -10.083  0.00  0.00    +0.000 A 
ATOM      7  C   UNL     1      18.984  18.941 -11.013  0.00  0.00    +0.000 A 
ATOM      8  C   UNL     1      19.152  18.789 -12.399  0.00  0.00    +0.000 A 
ENDBRANCH   1   6
BRANCH   1   9
ATOM      9  C   UNL     1      18.179  19.008  -8.171  0.00  0.00    +0.000 C 
BRANCH   9  10
ATOM     10  C   UNL     1      16.814  18.282  -8.084  0.00  0.00    +0.000 C 
ATOM     11  C   UNL     1      15.833  18.842  -9.107  0.00  0.00    +0.000 C 
BRANCH  10  12
ATOM     12  O   UNL     1      16.962  16.877  -8.333  0.00  0.00    +0.000 OA
ATOM     13  H   UNL     1      16.940  16.737  -9.295  0.00  0.00    +0.000 HD
ENDBRANCH  10  12
ENDBRANCH   9  10
ENDBRANCH   1   9
BRANCH   1  14
ATOM     14  C   UNL     1      20.396  17.921  -7.771  0.00  0.00    +0.000 C 
BRANCH  14  15
ATOM     15  C   UNL     1      20.149  16.727  -6.818  0.00  0.00    +0.000 C 
ATOM     16  C   UNL     1      19.590  17.146  -5.464  0.00  0.00    +0.000 C 
BRANCH  15  17
ATOM     17  O   UNL     1      19.254  15.774  -7.389  0.00  0.00    +0.000 OA
ATOM     18  H   UNL     1      18.530  15.683  -6.736  0.00  0.00    +0.000 HD
ENDBRANCH  15  17
ENDBRANCH  14  15
ENDBRANCH   1  14
TORSDOF 7
ENDMDL
MODEL 6
REMARK VINA RESULT:    -3.324     13.051     15.350
REMARK INTER + INTRA:          -4.899
REMARK INTER:                  -4.438
REMARK INTRA:                  -0.461
REMARK UNBOUND:                -0.410
REMARK  Name = 
REMARK  10 active torsions:
REMARK  status: ('A' for Active; 'I' for Inactive)
REMARK    1  A    between atoms: C_1  and  C_2
REMARK    2  A    between atoms: C_5  and  N_8
REMARK    3  A    between atoms: N_8  and  C_9
REMARK    4  A    between atoms: N_8  and  C_13
REMARK    5  A    between atoms: C_9  and  C_10
REMARK    6  A    between atoms: C_10  and  C_11
REMARK    7  A    between atoms: C_10  and  O_12
REMARK    8  A    between atoms: C_13  and  C_14
REMARK    9  A    between atoms: C_14  and  C_15
REMARK   10  A    between atoms: C_14  and  O_16
REMARK                            x       y       z     vdW  Elec       q    Type
REMARK                         _______ _______ _______ _____ _____    ______ ____
ROOT
ATOM      1  N   UNL     1      15.558  16.064   4.206  0.00  0.00    +0.000 N 
ENDROOT
BRANCH   1   6
ATOM      2  C   UNL     1      12.646  21.032   4.626  0.00  0.00    +0.000 C 
ATOM      3  C   UNL     1      13.398  19.743   4.493  0.00  0.00    +0.000 A 
ATOM      4  C   UNL     1      12.751  18.520   4.642  0.00  0.00    +0.000 A 
ATOM      5  C   UNL     1      13.466  17.315   4.546  0.00  0.00    +0.000 A 
ATOM      6  C   UNL     1      14.854  17.270   4.321  0.00  0.00    +0.000 A 
ATOM      7  C   UNL     1      15.474  18.524   4.172  0.00  0.00    +0.000 A 
ATOM      8  C   UNL     1      14.771  19.736   4.264  0.00  0.00    +0.000 A 
ENDBRANCH   1   6
BRANCH   1   9
ATOM      9  C   UNL     1      17.034  16.049   4.341  0.00  0.00    +0.000 C 
BRANCH   9  10
ATOM     10  C   UNL     1      17.762  16.196   2.982  0.00  0.00    +0.000 C 
ATOM     11  C   UNL     1      18.793  17.317   3.034  0.00  0.00    +0.000 C 
BRANCH  10  12
ATOM     12  O   UNL     1      18.441  14.983   2.628  0.00  0.00    +0.000 OA
ATOM     13  H   UNL     1      18.538  14.447   3.432  0.00  0.00    +0.000 HD
ENDBRANCH  10  12
ENDBRANCH   9  10
ENDBRANCH   1   9
BRANCH   1  14
ATOM     14  C   UNL     1      14.986  14.907   3.470  0.00  0.00    +0.000 C 
BRANCH  14  15
ATOM     15  C   UNL     1      14.728  13.695   4.397  0.00  0.00    +0.000 C 
ATOM     16  C   UNL     1      13.247  13.430   4.640  0.00  0.00    +0.000 C 
BRANCH  15  17
ATOM     17  O   UNL     1      15.311  12.501   3.878  0.00  0.00    +0.000 OA
ATOM     18  H   UNL     1      14.551  11.937   3.628  0.00  0.00    +0.000 HD
ENDBRANCH  15  17
ENDBRANCH  14  15
ENDBRANCH   1  14
TORSDOF 7
ENDMDL
MODEL 7
REMARK VINA RESULT:    -3.229     14.444     17.085
REMARK INTER + INTRA:          -4.772
REMARK INTER:                  -4.227
REMARK INTRA:                  -0.545
REMARK UNBOUND:                -0.410
REMARK  Name = 
REMARK  10 active torsions:
REMARK  status: ('A' for Active; 'I' for Inactive)
REMARK    1  A    between atoms: C_1  and  C_2
REMARK    2  A    between atoms: C_5  and  N_8
REMARK    3  A    between atoms: N_8  and  C_9
REMARK    4  A    between atoms: N_8  and  C_13
REMARK    5  A    between atoms: C_9  and  C_10
REMARK    6  A    between atoms: C_10  and  C_11
REMARK    7  A    between atoms: C_10  and  O_12
REMARK    8  A    between atoms: C_13  and  C_14
REMARK    9  A    between atoms: C_14  and  C_15
REMARK   10  A    between atoms: C_14  and  O_16
REMARK                            x       y       z     vdW  Elec       q    Type
REMARK                         _______ _______ _______ _____ _____    ______ ____
ROOT
ATOM      1  N   UNL     1      17.381  18.529   3.806  0.00  0.00    +0.000 N 
ENDROOT
BRANCH   1   6
ATOM      2  C   UNL     1      20.691  13.847   3.139  0.00  0.00    +0.000 C 
ATOM      3  C   UNL     1      19.848  15.075   3.297  0.00  0.00    +0.000 A 
ATOM      4  C   UNL     1      20.064  15.959   4.349  0.00  0.00    +0.000 A 
ATOM      5  C   UNL     1      19.251  17.092   4.510  0.00  0.00    +0.000 A 
ATOM      6  C   UNL     1      18.176  17.386   3.651  0.00  0.00    +0.000 A 
ATOM      7  C   UNL     1      17.988  16.472   2.598  0.00  0.00    +0.000 A 
ATOM      8  C   UNL     1      18.795  15.336   2.425  0.00  0.00    +0.000 A 
ENDBRANCH   1   6
BRANCH   1   9
ATOM      9  C   UNL     1      17.978  19.877   3.648  0.00  0.00    +0.000 C 
BRANCH   9  10
ATOM     10  C   UNL     1      17.699  20.498   2.257  0.00  0.00    +0.000 C 
ATOM     11  C   UNL     1      18.920  21.247   1.738  0.00  0.00    +0.000 C 
BRANCH  10  12
ATOM     12  O   UNL     1      17.359  19.484   1.300  0.00  0.00    +0.000 OA
ATOM     13  H   UNL     1      17.592  18.621   1.680  0.00  0.00    +0.000 HD
ENDBRANCH  10  12
ENDBRANCH   9  10
ENDBRANCH   1   9
BRANCH   1  14
ATOM     14  C   UNL     1      16.127  18.492   4.602  0.00  0.00    +0.000 C 
BRANCH  14  15
ATOM     15  C   UNL     1      14.929  17.960   3.778  0.00  0.00    +0.000 C 
ATOM     16  C   UNL     1      13.584  18.478   4.274  0.00  0.00    +0.000 C 
BRANCH  15  17
ATOM     17  O   UNL     1      15.049  18.294   2.397  0.00  0.00    +0.000 OA
ATOM     18  H   UNL     1      16.006  18.436   2.253  0.00  0.00    +0.000 HD
ENDBRANCH  15  17
ENDBRANCH  14  15
ENDBRANCH   1  14
TORSDOF 7
ENDMDL
