MODEL 1
REMARK VINA RESULT:    -4.142      0.000      0.000
REMARK INTER + INTRA:          -4.557
REMARK INTER:                  -4.505
REMARK INTRA:                  -0.052
REMARK UNBOUND:                -0.052
REMARK  Name = 
REMARK  3 active torsions:
REMARK  status: ('A' for Active; 'I' for Inactive)
REMARK    1  A    between atoms: C_1  and  O_2
REMARK    2  A    between atoms: O_2  and  C_3
REMARK    3  A    between atoms: C_8  and  O_9
REMARK                            x       y       z     vdW  Elec       q    Type
REMARK                         _______ _______ _______ _____ _____    ______ ____
ROOT
ATOM      1  C   UNL     1       1.672  18.498  -0.709  0.00  0.00    +0.000 A 
ATOM      2  C   UNL     1       0.455  19.052  -0.312  0.00  0.00    +0.000 A 
ATOM      3  C   UNL     1      -0.604  19.139  -1.224  0.00  0.00    +0.000 A 
ATOM      4  C   UNL     1      -0.452  18.675  -2.532  0.00  0.00    +0.000 A 
ATOM      5  C   UNL     1       0.760  18.121  -2.936  0.00  0.00    +0.000 A 
ATOM      6  C   UNL     1       1.806  18.039  -2.025  0.00  0.00    +0.000 A 
ENDROOT
BRANCH   1   8
ATOM      7  C   UNL     1       3.455  19.547   0.459  0.00  0.00    +0.000 C 
ATOM      8  O   UNL     1       2.789  18.351   0.073  0.00  0.00    +0.000 OA
ENDBRANCH   1   8
BRANCH   6   9
ATOM      9  O   UNL     1       2.988  17.490  -2.445  0.00  0.00    +0.000 OA
ATOM     10  H   UNL     1       3.627  17.707  -1.740  0.00  0.00    +0.000 HD
ENDBRANCH   6   9
TORSDOF 2
ENDMDL
MODEL 2
REMARK VINA RESULT:    -4.074      2.161      3.075
REMARK INTER + INTRA:          -4.484
REMARK INTER:                  -4.442
REMARK INTRA:                  -0.042
REMARK UNBOUND:                -0.052
REMARK  Name = 
REMARK  3 active torsions:
REMARK  status: ('A' for Active; 'I' for Inactive)
REMARK    1  A    between atoms: C_1  and  O_2
REMARK    2  A    between atoms: O_2  and  C_3
REMARK    3  A    between atoms: C_8  and  O_9
REMARK                            x       y       z     vdW  Elec       q    Type
REMARK                         _______ _______ _______ _____ _____    ______ ____
ROOT
ATOM      1  C   UNL     1       0.063  18.729  -1.110  0.00  0.00    +0.000 A 
ATOM      2  C   UNL     1       1.254  18.724  -0.385  0.00  0.00    +0.000 A 
ATOM      3  C   UNL     1       2.451  18.351  -1.009  0.00  0.00    +0.000 A 
ATOM      4  C   UNL     1       2.462  17.982  -2.355  0.00  0.00    +0.000 A 
ATOM      5  C   UNL     1       1.276  17.984  -3.086  0.00  0.00    +0.000 A 
ATOM      6  C   UNL     1       0.093  18.355  -2.459  0.00  0.00    +0.000 A 
ENDROOT
BRANCH   1   8
ATOM      7  C   UNL     1      -1.434  18.767   0.736  0.00  0.00    +0.000 C 
ATOM      8  O   UNL     1      -1.177  19.068  -0.631  0.00  0.00    +0.000 OA
ENDBRANCH   1   8
BRANCH   6   9
ATOM      9  O   UNL     1      -1.059  18.349  -3.198  0.00  0.00    +0.000 OA
ATOM     10  H   UNL     1      -0.921  17.654  -3.869  0.00  0.00    +0.000 HD
ENDBRANCH   6   9
TORSDOF 2
ENDMDL
MODEL 3
REMARK VINA RESULT:    -3.968     14.850     15.951
REMARK INTER + INTRA:          -4.369
REMARK INTER:                  -4.330
REMARK INTRA:                  -0.038
REMARK UNBOUND:                -0.052
REMARK  Name = 
REMARK  3 active torsions:
REMARK  status: ('A' for Active; 'I' for Inactive)
REMARK    1  A    between atoms: C_1  and  O_2
REMARK    2  A    between atoms: O_2  and  C_3
REMARK    3  A    between atoms: C_8  and  O_9
REMARK                            x       y       z     vdW  Elec       q    Type
REMARK                         _______ _______ _______ _____ _____    ______ ____
ROOT
ATOM      1  C   UNL     1       0.679  12.172 -15.944  0.00  0.00    +0.000 A 
ATOM      2  C   UNL     1       1.557  12.389 -14.883  0.00  0.00    +0.000 A 
ATOM      3  C   UNL     1       1.225  11.945 -13.597  0.00  0.00    +0.000 A 
ATOM      4  C   UNL     1       0.016  11.285 -13.366  0.00  0.00    +0.000 A 
ATOM      5  C   UNL     1      -0.866  11.064 -14.421  0.00  0.00    +0.000 A 
ATOM      6  C   UNL     1      -0.529  11.508 -15.693  0.00  0.00    +0.000 A 
ENDROOT
BRANCH   1   8
ATOM      7  C   UNL     1       1.875  13.532 -17.482  0.00  0.00    +0.000 C 
ATOM      8  O   UNL     1       0.873  12.551 -17.248  0.00  0.00    +0.000 OA
ENDBRANCH   1   8
BRANCH   6   9
ATOM      9  O   UNL     1      -1.413  11.280 -16.714  0.00  0.00    +0.000 OA
ATOM     10  H   UNL     1      -2.047  12.020 -16.664  0.00  0.00    +0.000 HD
ENDBRANCH   6   9
TORSDOF 2
ENDMDL
MODEL 4
REMARK VINA RESULT:    -3.966      1.905      3.152
REMARK INTER + INTRA:          -4.366
REMARK INTER:                  -4.314
REMARK INTRA:                  -0.053
REMARK UNBOUND:                -0.052
REMARK  Name = 
REMARK  3 active torsions:
REMARK  status: ('A' for Active; 'I' for Inactive)
REMARK    1  A    between atoms: C_1  and  O_2
REMARK    2  A    between atoms: O_2  and  C_3
REMARK    3  A    between atoms: C_8  and  O_9
REMARK                            x       y       z     vdW  Elec       q    Type
REMARK                         _______ _______ _______ _____ _____    ______ ____
ROOT
ATOM      1  C   UNL     1       0.357  18.651  -1.826  0.00  0.00    +0.000 A 
ATOM      2  C   UNL     1       0.621  18.910  -0.482  0.00  0.00    +0.000 A 
ATOM      3  C   UNL     1       1.921  18.759   0.018  0.00  0.00    +0.000 A 
ATOM      4  C   UNL     1       2.959  18.349  -0.821  0.00  0.00    +0.000 A 
ATOM      5  C   UNL     1       2.703  18.089  -2.166  0.00  0.00    +0.000 A 
ATOM      6  C   UNL     1       1.411  18.240  -2.652  0.00  0.00    +0.000 A 
ENDROOT
BRANCH   1   8
ATOM      7  C   UNL     1      -1.434  20.056  -2.507  0.00  0.00    +0.000 C 
ATOM      8  O   UNL     1      -0.861  18.755  -2.448  0.00  0.00    +0.000 OA
ENDBRANCH   1   8
BRANCH   6   9
ATOM      9  O   UNL     1       1.184  17.978  -3.977  0.00  0.00    +0.000 OA
ATOM     10  H   UNL     1       0.336  18.419  -4.176  0.00  0.00    +0.000 HD
ENDBRANCH   6   9
TORSDOF 2
ENDMDL
MODEL 5
REMARK VINA RESULT:    -3.960      1.392      2.597
REMARK INTER + INTRA:          -4.359
REMARK INTER:                  -4.321
REMARK INTRA:                  -0.038
REMARK UNBOUND:                -0.052
REMARK  Name = 
REMARK  3 active torsions:
REMARK  status: ('A' for Active; 'I' for Inactive)
REMARK    1  A    between atoms: C_1  and  O_2
REMARK    2  A    between atoms: O_2  and  C_3
REMARK    3  A    between atoms: C_8  and  O_9
REMARK                            x       y       z     vdW  Elec       q    Type
REMARK                         _______ _______ _______ _____ _____    ______ ____
ROOT
ATOM      1  C   UNL     1       1.579  18.697  -0.353  0.00  0.00    +0.000 A 
ATOM      2  C   UNL     1       0.903  18.970  -1.542  0.00  0.00    +0.000 A 
ATOM      3  C   UNL     1      -0.482  19.178  -1.528  0.00  0.00    +0.000 A 
ATOM      4  C   UNL     1      -1.195  19.114  -0.329  0.00  0.00    +0.000 A 
ATOM      5  C   UNL     1      -0.527  18.843   0.863  0.00  0.00    +0.000 A 
ATOM      6  C   UNL     1       0.846  18.638   0.839  0.00  0.00    +0.000 A 
ENDROOT
BRANCH   1   8
ATOM      7  C   UNL     1       3.739  18.809  -1.335  0.00  0.00    +0.000 C 
ATOM      8  O   UNL     1       2.925  18.473  -0.219  0.00  0.00    +0.000 OA
ENDBRANCH   1   8
BRANCH   6   9
ATOM      9  O   UNL     1       1.481  18.373   2.023  0.00  0.00    +0.000 OA
ATOM     10  H   UNL     1       0.761  18.161   2.648  0.00  0.00    +0.000 HD
ENDBRANCH   6   9
TORSDOF 2
ENDMDL
MODEL 6
REMARK VINA RESULT:    -3.913      1.852      2.198
REMARK INTER + INTRA:          -4.309
REMARK INTER:                  -4.260
REMARK INTRA:                  -0.049
REMARK UNBOUND:                -0.052
REMARK  Name = 
REMARK  3 active torsions:
REMARK  status: ('A' for Active; 'I' for Inactive)
REMARK    1  A    between atoms: C_1  and  O_2
REMARK    2  A    between atoms: O_2  and  C_3
REMARK    3  A    between atoms: C_8  and  O_9
REMARK                            x       y       z     vdW  Elec       q    Type
REMARK                         _______ _______ _______ _____ _____    ______ ____
ROOT
ATOM      1  C   UNL     1       3.025  19.150  -1.302  0.00  0.00    +0.000 A 
ATOM      2  C   UNL     1       1.971  18.240  -1.232  0.00  0.00    +0.000 A 
ATOM      3  C   UNL     1       1.195  17.980  -2.368  0.00  0.00    +0.000 A 
ATOM      4  C   UNL     1       1.469  18.625  -3.575  0.00  0.00    +0.000 A 
ATOM      5  C   UNL     1       2.521  19.535  -3.653  0.00  0.00    +0.000 A 
ATOM      6  C   UNL     1       3.285  19.787  -2.521  0.00  0.00    +0.000 A 
ENDROOT
BRANCH   1   8
ATOM      7  C   UNL     1       3.305  20.315   0.750  0.00  0.00    +0.000 C 
ATOM      8  O   UNL     1       3.863  19.501  -0.273  0.00  0.00    +0.000 OA
ENDBRANCH   1   8
BRANCH   6   9
ATOM      9  O   UNL     1       4.314  20.686  -2.622  0.00  0.00    +0.000 OA
ATOM     10  H   UNL     1       3.893  21.512  -2.926  0.00  0.00    +0.000 HD
ENDBRANCH   6   9
TORSDOF 2
ENDMDL
MODEL 7
REMARK VINA RESULT:    -3.907      1.132      2.725
REMARK INTER + INTRA:          -4.302
REMARK INTER:                  -4.255
REMARK INTRA:                  -0.047
REMARK UNBOUND:                -0.052
REMARK  Name = 
REMARK  3 active torsions:
REMARK  status: ('A' for Active; 'I' for Inactive)
REMARK    1  A    between atoms: C_1  and  O_2
REMARK    2  A    between atoms: O_2  and  C_3
REMARK    3  A    between atoms: C_8  and  O_9
REMARK                            x       y       z     vdW  Elec       q    Type
REMARK                         _______ _______ _______ _____ _____    ______ ____
ROOT
ATOM      1  C   UNL     1       1.449  18.410  -1.621  0.00  0.00    +0.000 A 
ATOM      2  C   UNL     1       0.110  18.797  -1.609  0.00  0.00    +0.000 A 
ATOM      3  C   UNL     1      -0.507  19.145  -0.401  0.00  0.00    +0.000 A 
ATOM      4  C   UNL     1       0.210  19.107   0.797  0.00  0.00    +0.000 A 
ATOM      5  C   UNL     1       1.548  18.721   0.793  0.00  0.00    +0.000 A 
ATOM      6  C   UNL     1       2.152  18.378  -0.410  0.00  0.00    +0.000 A 
ENDROOT
BRANCH   1   8
ATOM      7  C   UNL     1       2.084  18.898  -3.859  0.00  0.00    +0.000 C 
ATOM      8  O   UNL     1       2.177  18.044  -2.724  0.00  0.00    +0.000 OA
ENDBRANCH   1   8
BRANCH   6   9
ATOM      9  O   UNL     1       3.468  18.002  -0.389  0.00  0.00    +0.000 OA
ATOM     10  H   UNL     1       3.931  18.689  -0.905  0.00  0.00    +0.000 HD
ENDBRANCH   6   9
TORSDOF 2
ENDMDL
MODEL 8
REMARK VINA RESULT:    -3.901      1.807      3.215
REMARK INTER + INTRA:          -4.295
REMARK INTER:                  -4.244
REMARK INTRA:                  -0.051
REMARK UNBOUND:                -0.052
REMARK  Name = 
REMARK  3 active torsions:
REMARK  status: ('A' for Active; 'I' for Inactive)
REMARK    1  A    between atoms: C_1  and  O_2
REMARK    2  A    between atoms: O_2  and  C_3
REMARK    3  A    between atoms: C_8  and  O_9
REMARK                            x       y       z     vdW  Elec       q    Type
REMARK                         _______ _______ _______ _____ _____    ______ ____
ROOT
ATOM      1  C   UNL     1       1.675  18.507  -2.135  0.00  0.00    +0.000 A 
ATOM      2  C   UNL     1       2.715  18.648  -1.218  0.00  0.00    +0.000 A 
ATOM      3  C   UNL     1       2.431  18.793   0.146  0.00  0.00    +0.000 A 
ATOM      4  C   UNL     1       1.109  18.800   0.596  0.00  0.00    +0.000 A 
ATOM      5  C   UNL     1       0.064  18.659  -0.314  0.00  0.00    +0.000 A 
ATOM      6  C   UNL     1       0.356  18.516  -1.665  0.00  0.00    +0.000 A 
ENDROOT
BRANCH   1   8
ATOM      7  C   UNL     1       2.248  19.500  -4.217  0.00  0.00    +0.000 C 
ATOM      8  O   UNL     1       1.805  18.358  -3.493  0.00  0.00    +0.000 OA
ENDBRANCH   1   8
BRANCH   6   9
ATOM      9  O   UNL     1      -0.688  18.380  -2.540  0.00  0.00    +0.000 OA
ATOM     10  H   UNL     1      -1.075  19.274  -2.606  0.00  0.00    +0.000 HD
ENDBRANCH   6   9
TORSDOF 2
ENDMDL
MODEL 9
REMARK VINA RESULT:    -3.518     14.284     15.735
REMARK INTER + INTRA:          -3.879
REMARK INTER:                  -3.841
REMARK INTRA:                  -0.037
REMARK UNBOUND:                -0.052
REMARK  Name = 
REMARK  3 active torsions:
REMARK  status: ('A' for Active; 'I' for Inactive)
REMARK    1  A    between atoms: C_1  and  O_2
REMARK    2  A    between atoms: O_2  and  C_3
REMARK    3  A    between atoms: C_8  and  O_9
REMARK                            x       y       z     vdW  Elec       q    Type
REMARK                         _______ _______ _______ _____ _____    ______ ____
ROOT
ATOM      1  C   UNL     1      -0.308  11.709 -15.377  0.00  0.00    +0.000 A 
ATOM      2  C   UNL     1       0.823  12.394 -15.818  0.00  0.00    +0.000 A 
ATOM      3  C   UNL     1       1.903  12.595 -14.950  0.00  0.00    +0.000 A 
ATOM      4  C   UNL     1       1.856  12.114 -13.640  0.00  0.00    +0.000 A 
ATOM      5  C   UNL     1       0.730  11.428 -13.192  0.00  0.00    +0.000 A 
ATOM      6  C   UNL     1      -0.336  11.233 -14.060  0.00  0.00    +0.000 A 
ENDROOT
BRANCH   1   8
ATOM      7  C   UNL     1      -1.431  11.894 -17.463  0.00  0.00    +0.000 C 
ATOM      8  O   UNL     1      -1.434  11.441 -16.114  0.00  0.00    +0.000 OA
ENDBRANCH   1   8
BRANCH   6   9
ATOM      9  O   UNL     1      -1.433  10.556 -13.597  0.00  0.00    +0.000 OA
ATOM     10  H   UNL     1      -2.179  10.901 -14.123  0.00  0.00    +0.000 HD
ENDBRANCH   6   9
TORSDOF 2
ENDMDL
