MODEL 1
REMARK VINA RESULT:    -3.853      0.000      0.000
REMARK INTER + INTRA:          -4.241
REMARK INTER:                  -4.191
REMARK INTRA:                  -0.050
REMARK UNBOUND:                -0.050
REMARK  Name = 
REMARK  3 active torsions:
REMARK  status: ('A' for Active; 'I' for Inactive)
REMARK    1  A    between atoms: C_1  and  O_2
REMARK    2  A    between atoms: O_2  and  C_3
REMARK    3  A    between atoms: C_8  and  O_9
REMARK                            x       y       z     vdW  Elec       q    Type
REMARK                         _______ _______ _______ _____ _____    ______ ____
ROOT
ATOM      1  C   UNL     1      10.463  -7.681   3.518  0.00  0.00    +0.000 A 
ATOM      2  C   UNL     1      10.520  -7.340   2.167  0.00  0.00    +0.000 A 
ATOM      3  C   UNL     1      11.734  -6.933   1.600  0.00  0.00    +0.000 A 
ATOM      4  C   UNL     1      12.892  -6.866   2.378  0.00  0.00    +0.000 A 
ATOM      5  C   UNL     1      12.842  -7.206   3.728  0.00  0.00    +0.000 A 
ATOM      6  C   UNL     1      11.634  -7.608   4.282  0.00  0.00    +0.000 A 
ENDROOT
BRANCH   1   8
ATOM      7  C   UNL     1       8.352  -7.108   4.448  0.00  0.00    +0.000 C 
ATOM      8  O   UNL     1       9.348  -8.094   4.203  0.00  0.00    +0.000 OA
ENDBRANCH   1   8
BRANCH   6   9
ATOM      9  O   UNL     1      11.610  -7.937   5.611  0.00  0.00    +0.000 OA
ATOM     10  H   UNL     1      10.662  -8.018   5.830  0.00  0.00    +0.000 HD
ENDBRANCH   6   9
TORSDOF 2
ENDMDL
MODEL 2
REMARK VINA RESULT:    -3.694      2.940      4.652
REMARK INTER + INTRA:          -4.069
REMARK INTER:                  -4.016
REMARK INTRA:                  -0.052
REMARK UNBOUND:                -0.050
REMARK  Name = 
REMARK  3 active torsions:
REMARK  status: ('A' for Active; 'I' for Inactive)
REMARK    1  A    between atoms: C_1  and  O_2
REMARK    2  A    between atoms: O_2  and  C_3
REMARK    3  A    between atoms: C_8  and  O_9
REMARK                            x       y       z     vdW  Elec       q    Type
REMARK                         _______ _______ _______ _____ _____    ______ ____
ROOT
ATOM      1  C   UNL     1      14.141  -7.598   2.072  0.00  0.00    +0.000 A 
ATOM      2  C   UNL     1      14.751  -8.396   3.039  0.00  0.00    +0.000 A 
ATOM      3  C   UNL     1      14.219  -8.456   4.333  0.00  0.00    +0.000 A 
ATOM      4  C   UNL     1      13.079  -7.721   4.665  0.00  0.00    +0.000 A 
ATOM      5  C   UNL     1      12.464  -6.922   3.705  0.00  0.00    +0.000 A 
ATOM      6  C   UNL     1      12.999  -6.868   2.424  0.00  0.00    +0.000 A 
ENDROOT
BRANCH   1   8
ATOM      7  C   UNL     1      15.839  -6.872   0.576  0.00  0.00    +0.000 C 
ATOM      8  O   UNL     1      14.551  -7.443   0.772  0.00  0.00    +0.000 OA
ENDBRANCH   1   8
BRANCH   6   9
ATOM      9  O   UNL     1      12.377  -6.075   1.497  0.00  0.00    +0.000 OA
ATOM     10  H   UNL     1      11.553  -5.783   1.932  0.00  0.00    +0.000 HD
ENDBRANCH   6   9
TORSDOF 2
ENDMDL
MODEL 3
REMARK VINA RESULT:    -3.665      1.744      2.678
REMARK INTER + INTRA:          -4.037
REMARK INTER:                  -3.986
REMARK INTRA:                  -0.051
REMARK UNBOUND:                -0.050
REMARK  Name = 
REMARK  3 active torsions:
REMARK  status: ('A' for Active; 'I' for Inactive)
REMARK    1  A    between atoms: C_1  and  O_2
REMARK    2  A    between atoms: O_2  and  C_3
REMARK    3  A    between atoms: C_8  and  O_9
REMARK                            x       y       z     vdW  Elec       q    Type
REMARK                         _______ _______ _______ _____ _____    ______ ____
ROOT
ATOM      1  C   UNL     1      10.621  -7.988   2.430  0.00  0.00    +0.000 A 
ATOM      2  C   UNL     1      11.620  -7.241   3.052  0.00  0.00    +0.000 A 
ATOM      3  C   UNL     1      12.797  -6.931   2.358  0.00  0.00    +0.000 A 
ATOM      4  C   UNL     1      12.980  -7.368   1.044  0.00  0.00    +0.000 A 
ATOM      5  C   UNL     1      11.986  -8.114   0.416  0.00  0.00    +0.000 A 
ATOM      6  C   UNL     1      10.822  -8.417   1.112  0.00  0.00    +0.000 A 
ENDROOT
BRANCH   1   8
ATOM      7  C   UNL     1       8.581  -7.314   3.444  0.00  0.00    +0.000 C 
ATOM      8  O   UNL     1       9.424  -8.363   2.985  0.00  0.00    +0.000 OA
ENDBRANCH   1   8
BRANCH   6   9
ATOM      9  O   UNL     1       9.860  -9.152   0.473  0.00  0.00    +0.000 OA
ATOM     10  H   UNL     1       9.106  -9.168   1.094  0.00  0.00    +0.000 HD
ENDBRANCH   6   9
TORSDOF 2
ENDMDL
MODEL 4
REMARK VINA RESULT:    -3.663      1.931      2.594
REMARK INTER + INTRA:          -4.035
REMARK INTER:                  -3.994
REMARK INTRA:                  -0.041
REMARK UNBOUND:                -0.050
REMARK  Name = 
REMARK  3 active torsions:
REMARK  status: ('A' for Active; 'I' for Inactive)
REMARK    1  A    between atoms: C_1  and  O_2
REMARK    2  A    between atoms: O_2  and  C_3
REMARK    3  A    between atoms: C_8  and  O_9
REMARK                            x       y       z     vdW  Elec       q    Type
REMARK                         _______ _______ _______ _____ _____    ______ ____
ROOT
ATOM      1  C   UNL     1      10.570  -7.491   2.757  0.00  0.00    +0.000 A 
ATOM      2  C   UNL     1      10.312  -7.615   4.121  0.00  0.00    +0.000 A 
ATOM      3  C   UNL     1      11.363  -7.517   5.043  0.00  0.00    +0.000 A 
ATOM      4  C   UNL     1      12.670  -7.297   4.605  0.00  0.00    +0.000 A 
ATOM      5  C   UNL     1      12.935  -7.172   3.244  0.00  0.00    +0.000 A 
ATOM      6  C   UNL     1      11.887  -7.270   2.337  0.00  0.00    +0.000 A 
ENDROOT
BRANCH   1   8
ATOM      7  C   UNL     1       8.319  -7.162   2.070  0.00  0.00    +0.000 C 
ATOM      8  O   UNL     1       9.644  -7.565   1.747  0.00  0.00    +0.000 OA
ENDBRANCH   1   8
BRANCH   6   9
ATOM      9  O   UNL     1      12.172  -7.144   1.003  0.00  0.00    +0.000 OA
ATOM     10  H   UNL     1      12.161  -8.057   0.659  0.00  0.00    +0.000 HD
ENDBRANCH   6   9
TORSDOF 2
ENDMDL
MODEL 5
REMARK VINA RESULT:    -3.646      1.231      3.123
REMARK INTER + INTRA:          -4.016
REMARK INTER:                  -3.971
REMARK INTRA:                  -0.045
REMARK UNBOUND:                -0.050
REMARK  Name = 
REMARK  3 active torsions:
REMARK  status: ('A' for Active; 'I' for Inactive)
REMARK    1  A    between atoms: C_1  and  O_2
REMARK    2  A    between atoms: O_2  and  C_3
REMARK    3  A    between atoms: C_8  and  O_9
REMARK                            x       y       z     vdW  Elec       q    Type
REMARK                         _______ _______ _______ _____ _____    ______ ____
ROOT
ATOM      1  C   UNL     1      10.987  -7.532   3.171  0.00  0.00    +0.000 A 
ATOM      2  C   UNL     1      10.087  -7.350   2.122  0.00  0.00    +0.000 A 
ATOM      3  C   UNL     1       8.716  -7.244   2.386  0.00  0.00    +0.000 A 
ATOM      4  C   UNL     1       8.240  -7.320   3.697  0.00  0.00    +0.000 A 
ATOM      5  C   UNL     1       9.133  -7.501   4.750  0.00  0.00    +0.000 A 
ATOM      6  C   UNL     1      10.492  -7.606   4.478  0.00  0.00    +0.000 A 
ENDROOT
BRANCH   1   8
ATOM      7  C   UNL     1      12.992  -6.770   2.146  0.00  0.00    +0.000 C 
ATOM      8  O   UNL     1      12.349  -7.651   3.059  0.00  0.00    +0.000 OA
ENDBRANCH   1   8
BRANCH   6   9
ATOM      9  O   UNL     1      11.350  -7.784   5.530  0.00  0.00    +0.000 OA
ATOM     10  H   UNL     1      12.240  -7.770   5.130  0.00  0.00    +0.000 HD
ENDBRANCH   6   9
TORSDOF 2
ENDMDL
MODEL 6
REMARK VINA RESULT:    -3.602      1.944      3.530
REMARK INTER + INTRA:          -3.968
REMARK INTER:                  -3.929
REMARK INTRA:                  -0.040
REMARK UNBOUND:                -0.050
REMARK  Name = 
REMARK  3 active torsions:
REMARK  status: ('A' for Active; 'I' for Inactive)
REMARK    1  A    between atoms: C_1  and  O_2
REMARK    2  A    between atoms: O_2  and  C_3
REMARK    3  A    between atoms: C_8  and  O_9
REMARK                            x       y       z     vdW  Elec       q    Type
REMARK                         _______ _______ _______ _____ _____    ______ ____
ROOT
ATOM      1  C   UNL     1       9.676  -8.064   3.533  0.00  0.00    +0.000 A 
ATOM      2  C   UNL     1      10.446  -9.041   2.904  0.00  0.00    +0.000 A 
ATOM      3  C   UNL     1       9.972  -9.667   1.744  0.00  0.00    +0.000 A 
ATOM      4  C   UNL     1       8.729  -9.321   1.211  0.00  0.00    +0.000 A 
ATOM      5  C   UNL     1       7.953  -8.345   1.834  0.00  0.00    +0.000 A 
ATOM      6  C   UNL     1       8.432  -7.730   2.984  0.00  0.00    +0.000 A 
ENDROOT
BRANCH   1   8
ATOM      7  C   UNL     1      11.401  -7.264   4.958  0.00  0.00    +0.000 C 
ATOM      8  O   UNL     1      10.012  -7.373   4.669  0.00  0.00    +0.000 OA
ENDBRANCH   1   8
BRANCH   6   9
ATOM      9  O   UNL     1       7.651  -6.775   3.578  0.00  0.00    +0.000 OA
ATOM     10  H   UNL     1       6.766  -7.182   3.642  0.00  0.00    +0.000 HD
ENDBRANCH   6   9
TORSDOF 2
ENDMDL
MODEL 7
REMARK VINA RESULT:    -3.590      3.346      4.127
REMARK INTER + INTRA:          -3.955
REMARK INTER:                  -3.905
REMARK INTRA:                  -0.050
REMARK UNBOUND:                -0.050
REMARK  Name = 
REMARK  3 active torsions:
REMARK  status: ('A' for Active; 'I' for Inactive)
REMARK    1  A    between atoms: C_1  and  O_2
REMARK    2  A    between atoms: O_2  and  C_3
REMARK    3  A    between atoms: C_8  and  O_9
REMARK                            x       y       z     vdW  Elec       q    Type
REMARK                         _______ _______ _______ _____ _____    ______ ____
ROOT
ATOM      1  C   UNL     1       7.369  -9.470   3.726  0.00  0.00    +0.000 A 
ATOM      2  C   UNL     1       7.555  -9.735   2.370  0.00  0.00    +0.000 A 
ATOM      3  C   UNL     1       8.053  -8.736   1.523  0.00  0.00    +0.000 A 
ATOM      4  C   UNL     1       8.365  -7.472   2.027  0.00  0.00    +0.000 A 
ATOM      5  C   UNL     1       8.183  -7.200   3.381  0.00  0.00    +0.000 A 
ATOM      6  C   UNL     1       7.688  -8.197   4.213  0.00  0.00    +0.000 A 
ENDROOT
BRANCH   1   8
ATOM      7  C   UNL     1       5.646 -10.972   4.376  0.00  0.00    +0.000 C 
ATOM      8  O   UNL     1       6.892 -10.348   4.666  0.00  0.00    +0.000 OA
ENDBRANCH   1   8
BRANCH   6   9
ATOM      9  O   UNL     1       7.517  -7.905   5.540  0.00  0.00    +0.000 OA
ATOM     10  H   UNL     1       6.848  -7.195   5.554  0.00  0.00    +0.000 HD
ENDBRANCH   6   9
TORSDOF 2
ENDMDL
MODEL 8
REMARK VINA RESULT:    -3.577      6.075      7.236
REMARK INTER + INTRA:          -3.941
REMARK INTER:                  -3.900
REMARK INTRA:                  -0.040
REMARK UNBOUND:                -0.050
REMARK  Name = 
REMARK  3 active torsions:
REMARK  status: ('A' for Active; 'I' for Inactive)
REMARK    1  A    between atoms: C_1  and  O_2
REMARK    2  A    between atoms: O_2  and  C_3
REMARK    3  A    between atoms: C_8  and  O_9
REMARK                            x       y       z     vdW  Elec       q    Type
REMARK                         _______ _______ _______ _____ _____    ______ ____
ROOT
ATOM      1  C   UNL     1      15.000  -8.001  -1.402  0.00  0.00    +0.000 A 
ATOM      2  C   UNL     1      16.069  -7.230  -0.948  0.00  0.00    +0.000 A 
ATOM      3  C   UNL     1      17.298  -7.274  -1.618  0.00  0.00    +0.000 A 
ATOM      4  C   UNL     1      17.463  -8.087  -2.741  0.00  0.00    +0.000 A 
ATOM      5  C   UNL     1      16.399  -8.860  -3.201  0.00  0.00    +0.000 A 
ATOM      6  C   UNL     1      15.184  -8.810  -2.530  0.00  0.00    +0.000 A 
ENDROOT
BRANCH   1   8
ATOM      7  C   UNL     1      13.658  -7.784   0.547  0.00  0.00    +0.000 C 
ATOM      8  O   UNL     1      13.747  -8.057  -0.846  0.00  0.00    +0.000 OA
ENDBRANCH   1   8
BRANCH   6   9
ATOM      9  O   UNL     1      14.153  -9.579  -3.000  0.00  0.00    +0.000 OA
ATOM     10  H   UNL     1      14.267  -9.580  -3.970  0.00  0.00    +0.000 HD
ENDBRANCH   6   9
TORSDOF 2
ENDMDL
MODEL 9
REMARK VINA RESULT:    -3.537      3.226      4.827
REMARK INTER + INTRA:          -3.897
REMARK INTER:                  -3.859
REMARK INTRA:                  -0.038
REMARK UNBOUND:                -0.050
REMARK  Name = 
REMARK  3 active torsions:
REMARK  status: ('A' for Active; 'I' for Inactive)
REMARK    1  A    between atoms: C_1  and  O_2
REMARK    2  A    between atoms: O_2  and  C_3
REMARK    3  A    between atoms: C_8  and  O_9
REMARK                            x       y       z     vdW  Elec       q    Type
REMARK                         _______ _______ _______ _____ _____    ______ ____
ROOT
ATOM      1  C   UNL     1      13.354  -7.703   0.747  0.00  0.00    +0.000 A 
ATOM      2  C   UNL     1      13.914  -7.401   1.987  0.00  0.00    +0.000 A 
ATOM      3  C   UNL     1      13.084  -7.171   3.092  0.00  0.00    +0.000 A 
ATOM      4  C   UNL     1      11.695  -7.240   2.960  0.00  0.00    +0.000 A 
ATOM      5  C   UNL     1      11.129  -7.541   1.724  0.00  0.00    +0.000 A 
ATOM      6  C   UNL     1      11.960  -7.768   0.634  0.00  0.00    +0.000 A 
ENDROOT
BRANCH   1   8
ATOM      7  C   UNL     1      15.430  -7.639  -0.409  0.00  0.00    +0.000 C 
ATOM      8  O   UNL     1      14.042  -7.951  -0.415  0.00  0.00    +0.000 OA
ENDBRANCH   1   8
BRANCH   6   9
ATOM      9  O   UNL     1      11.380  -8.063  -0.571  0.00  0.00    +0.000 OA
ATOM     10  H   UNL     1      11.904  -8.807  -0.924  0.00  0.00    +0.000 HD
ENDBRANCH   6   9
TORSDOF 2
ENDMDL
