MODEL 1
REMARK VINA RESULT:    -5.329      0.000      0.000
REMARK INTER + INTRA:          -7.671
REMARK INTER:                  -7.198
REMARK INTRA:                  -0.474
REMARK UNBOUND:                -0.474
REMARK  Name = 
REMARK  10 active torsions:
REMARK  status: ('A' for Active; 'I' for Inactive)
REMARK    1  A    between atoms: C_1  and  C_2
REMARK    2  A    between atoms: C_5  and  N_8
REMARK    3  A    between atoms: N_8  and  C_9
REMARK    4  A    between atoms: N_8  and  C_13
REMARK    5  A    between atoms: C_9  and  C_10
REMARK    6  A    between atoms: C_10  and  C_11
REMARK    7  A    between atoms: C_10  and  O_12
REMARK    8  A    between atoms: C_13  and  C_14
REMARK    9  A    between atoms: C_14  and  C_15
REMARK   10  A    between atoms: C_14  and  O_16
REMARK                            x       y       z     vdW  Elec       q    Type
REMARK                         _______ _______ _______ _____ _____    ______ ____
ROOT
ATOM      1  N   UNL     1      15.265  -8.484   0.238  0.00  0.00    +0.000 N 
ENDROOT
BRANCH   1   6
ATOM      2  C   UNL     1      12.481  -7.175   5.123  0.00  0.00    +0.000 C 
ATOM      3  C   UNL     1      13.219  -7.495   3.859  0.00  0.00    +0.000 A 
ATOM      4  C   UNL     1      12.805  -6.972   2.638  0.00  0.00    +0.000 A 
ATOM      5  C   UNL     1      13.483  -7.300   1.452  0.00  0.00    +0.000 A 
ATOM      6  C   UNL     1      14.582  -8.177   1.421  0.00  0.00    +0.000 A 
ATOM      7  C   UNL     1      14.974  -8.685   2.674  0.00  0.00    +0.000 A 
ATOM      8  C   UNL     1      14.307  -8.363   3.867  0.00  0.00    +0.000 A 
ENDBRANCH   1   6
BRANCH   1   9
ATOM      9  C   UNL     1      15.593  -7.411  -0.731  0.00  0.00    +0.000 C 
BRANCH   9  10
ATOM     10  C   UNL     1      16.692  -6.451  -0.214  0.00  0.00    +0.000 C 
ATOM     11  C   UNL     1      17.691  -6.121  -1.317  0.00  0.00    +0.000 C 
BRANCH  10  12
ATOM     12  O   UNL     1      16.122  -5.219   0.251  0.00  0.00    +0.000 OA
ATOM     13  H   UNL     1      15.278  -5.085  -0.210  0.00  0.00    +0.000 HD
ENDBRANCH  10  12
ENDBRANCH   9  10
ENDBRANCH   1   9
BRANCH   1  14
ATOM     14  C   UNL     1      15.232  -9.854  -0.335  0.00  0.00    +0.000 C 
BRANCH  14  15
ATOM     15  C   UNL     1      15.906  -9.922  -1.727  0.00  0.00    +0.000 C 
ATOM     16  C   UNL     1      17.192 -10.740  -1.732  0.00  0.00    +0.000 C 
BRANCH  15  17
ATOM     17  O   UNL     1      15.029 -10.470  -2.711  0.00  0.00    +0.000 OA
ATOM     18  H   UNL     1      15.227  -9.973  -3.530  0.00  0.00    +0.000 HD
ENDBRANCH  15  17
ENDBRANCH  14  15
ENDBRANCH   1  14
TORSDOF 7
ENDMDL
MODEL 2
REMARK VINA RESULT:    -5.290      0.247      3.361
REMARK INTER + INTRA:          -7.620
REMARK INTER:                  -7.115
REMARK INTRA:                  -0.504
REMARK UNBOUND:                -0.474
REMARK  Name = 
REMARK  10 active torsions:
REMARK  status: ('A' for Active; 'I' for Inactive)
REMARK    1  A    between atoms: C_1  and  C_2
REMARK    2  A    between atoms: C_5  and  N_8
REMARK    3  A    between atoms: N_8  and  C_9
REMARK    4  A    between atoms: N_8  and  C_13
REMARK    5  A    between atoms: C_9  and  C_10
REMARK    6  A    between atoms: C_10  and  C_11
REMARK    7  A    between atoms: C_10  and  O_12
REMARK    8  A    between atoms: C_13  and  C_14
REMARK    9  A    between atoms: C_14  and  C_15
REMARK   10  A    between atoms: C_14  and  O_16
REMARK                            x       y       z     vdW  Elec       q    Type
REMARK                         _______ _______ _______ _____ _____    ______ ____
ROOT
ATOM      1  N   UNL     1      14.847  -8.426  -0.078  0.00  0.00    +0.000 N 
ENDROOT
BRANCH   1   6
ATOM      2  C   UNL     1      12.661  -7.231   5.130  0.00  0.00    +0.000 C 
ATOM      3  C   UNL     1      13.212  -7.560   3.776  0.00  0.00    +0.000 A 
ATOM      4  C   UNL     1      14.299  -8.417   3.636  0.00  0.00    +0.000 A 
ATOM      5  C   UNL     1      14.830  -8.698   2.367  0.00  0.00    +0.000 A 
ATOM      6  C   UNL     1      14.324  -8.126   1.186  0.00  0.00    +0.000 A 
ATOM      7  C   UNL     1      13.225  -7.266   1.365  0.00  0.00    +0.000 A 
ATOM      8  C   UNL     1      12.683  -6.978   2.628  0.00  0.00    +0.000 A 
ENDBRANCH   1   6
BRANCH   1   9
ATOM      9  C   UNL     1      15.304  -9.802  -0.386  0.00  0.00    +0.000 C 
BRANCH   9  10
ATOM     10  C   UNL     1      16.010  -9.907  -1.760  0.00  0.00    +0.000 C 
ATOM     11  C   UNL     1      17.266 -10.765  -1.664  0.00  0.00    +0.000 C 
BRANCH  10  12
ATOM     12  O   UNL     1      15.144 -10.496  -2.740  0.00  0.00    +0.000 OA
ATOM     13  H   UNL     1      14.867 -11.368  -2.413  0.00  0.00    +0.000 HD
ENDBRANCH  10  12
ENDBRANCH   9  10
ENDBRANCH   1   9
BRANCH   1  14
ATOM     14  C   UNL     1      15.432  -7.367  -0.940  0.00  0.00    +0.000 C 
BRANCH  14  15
ATOM     15  C   UNL     1      16.553  -6.580  -0.219  0.00  0.00    +0.000 C 
ATOM     16  C   UNL     1      17.772  -6.330  -1.100  0.00  0.00    +0.000 C 
BRANCH  15  17
ATOM     17  O   UNL     1      16.089  -5.319   0.260  0.00  0.00    +0.000 OA
ATOM     18  H   UNL     1      15.137  -5.454   0.446  0.00  0.00    +0.000 HD
ENDBRANCH  15  17
ENDBRANCH  14  15
ENDBRANCH   1  14
TORSDOF 7
ENDMDL
MODEL 3
REMARK VINA RESULT:    -5.274      5.121      7.235
REMARK INTER + INTRA:          -7.597
REMARK INTER:                  -7.123
REMARK INTRA:                  -0.475
REMARK UNBOUND:                -0.474
REMARK  Name = 
REMARK  10 active torsions:
REMARK  status: ('A' for Active; 'I' for Inactive)
REMARK    1  A    between atoms: C_1  and  C_2
REMARK    2  A    between atoms: C_5  and  N_8
REMARK    3  A    between atoms: N_8  and  C_9
REMARK    4  A    between atoms: N_8  and  C_13
REMARK    5  A    between atoms: C_9  and  C_10
REMARK    6  A    between atoms: C_10  and  C_11
REMARK    7  A    between atoms: C_10  and  O_12
REMARK    8  A    between atoms: C_13  and  C_14
REMARK    9  A    between atoms: C_14  and  C_15
REMARK   10  A    between atoms: C_14  and  O_16
REMARK                            x       y       z     vdW  Elec       q    Type
REMARK                         _______ _______ _______ _____ _____    ______ ____
ROOT
ATOM      1  N   UNL     1      10.009  -7.774   3.623  0.00  0.00    +0.000 N 
ENDROOT
BRANCH   1   6
ATOM      2  C   UNL     1      15.309  -9.288   5.338  0.00  0.00    +0.000 C 
ATOM      3  C   UNL     1      13.944  -8.885   4.873  0.00  0.00    +0.000 A 
ATOM      4  C   UNL     1      13.386  -7.671   5.261  0.00  0.00    +0.000 A 
ATOM      5  C   UNL     1      12.093  -7.312   4.846  0.00  0.00    +0.000 A 
ATOM      6  C   UNL     1      11.290  -8.147   4.050  0.00  0.00    +0.000 A 
ATOM      7  C   UNL     1      11.886  -9.365   3.674  0.00  0.00    +0.000 A 
ATOM      8  C   UNL     1      13.179  -9.736   4.080  0.00  0.00    +0.000 A 
ENDBRANCH   1   6
BRANCH   1   9
ATOM      9  C   UNL     1       9.747  -7.525   2.185  0.00  0.00    +0.000 C 
BRANCH   9  10
ATOM     10  C   UNL     1       9.102  -8.739   1.474  0.00  0.00    +0.000 C 
ATOM     11  C   UNL     1       7.687  -8.410   1.011  0.00  0.00    +0.000 C 
BRANCH  10  12
ATOM     12  O   UNL     1       9.866  -9.128   0.324  0.00  0.00    +0.000 OA
ATOM     13  H   UNL     1      10.102 -10.065   0.422  0.00  0.00    +0.000 HD
ENDBRANCH  10  12
ENDBRANCH   9  10
ENDBRANCH   1   9
BRANCH   1  14
ATOM     14  C   UNL     1       9.046  -7.131   4.554  0.00  0.00    +0.000 C 
BRANCH  14  15
ATOM     15  C   UNL     1       7.788  -8.001   4.786  0.00  0.00    +0.000 C 
ATOM     16  C   UNL     1       8.089  -9.495   4.818  0.00  0.00    +0.000 C 
BRANCH  15  17
ATOM     17  O   UNL     1       7.126  -7.658   6.003  0.00  0.00    +0.000 OA
ATOM     18  H   UNL     1       6.187  -7.889   5.854  0.00  0.00    +0.000 HD
ENDBRANCH  15  17
ENDBRANCH  14  15
ENDBRANCH   1  14
TORSDOF 7
ENDMDL
MODEL 4
REMARK VINA RESULT:    -5.191      5.094      7.677
REMARK INTER + INTRA:          -7.486
REMARK INTER:                  -7.344
REMARK INTRA:                  -0.142
REMARK UNBOUND:                -0.474
REMARK  Name = 
REMARK  10 active torsions:
REMARK  status: ('A' for Active; 'I' for Inactive)
REMARK    1  A    between atoms: C_1  and  C_2
REMARK    2  A    between atoms: C_5  and  N_8
REMARK    3  A    between atoms: N_8  and  C_9
REMARK    4  A    between atoms: N_8  and  C_13
REMARK    5  A    between atoms: C_9  and  C_10
REMARK    6  A    between atoms: C_10  and  C_11
REMARK    7  A    between atoms: C_10  and  O_12
REMARK    8  A    between atoms: C_13  and  C_14
REMARK    9  A    between atoms: C_14  and  C_15
REMARK   10  A    between atoms: C_14  and  O_16
REMARK                            x       y       z     vdW  Elec       q    Type
REMARK                         _______ _______ _______ _____ _____    ______ ____
ROOT
ATOM      1  N   UNL     1       9.420  -7.816   3.123  0.00  0.00    +0.000 N 
ENDROOT
BRANCH   1   6
ATOM      2  C   UNL     1      14.878  -7.013   1.423  0.00  0.00    +0.000 C 
ATOM      3  C   UNL     1      13.458  -7.196   1.864  0.00  0.00    +0.000 A 
ATOM      4  C   UNL     1      13.134  -7.276   3.215  0.00  0.00    +0.000 A 
ATOM      5  C   UNL     1      11.805  -7.478   3.621  0.00  0.00    +0.000 A 
ATOM      6  C   UNL     1      10.745  -7.634   2.710  0.00  0.00    +0.000 A 
ATOM      7  C   UNL     1      11.109  -7.546   1.354  0.00  0.00    +0.000 A 
ATOM      8  C   UNL     1      12.434  -7.342   0.933  0.00  0.00    +0.000 A 
ENDBRANCH   1   6
BRANCH   1   9
ATOM      9  C   UNL     1       8.308  -7.231   2.335  0.00  0.00    +0.000 C 
BRANCH   9  10
ATOM     10  C   UNL     1       8.031  -8.005   1.023  0.00  0.00    +0.000 C 
ATOM     11  C   UNL     1       7.732  -9.472   1.309  0.00  0.00    +0.000 C 
BRANCH  10  12
ATOM     12  O   UNL     1       6.906  -7.450   0.326  0.00  0.00    +0.000 OA
ATOM     13  H   UNL     1       6.309  -8.179   0.090  0.00  0.00    +0.000 HD
ENDBRANCH  10  12
ENDBRANCH   9  10
ENDBRANCH   1   9
BRANCH   1  14
ATOM     14  C   UNL     1       9.090  -8.114   4.540  0.00  0.00    +0.000 C 
BRANCH  14  15
ATOM     15  C   UNL     1       7.564  -8.218   4.776  0.00  0.00    +0.000 C 
ATOM     16  C   UNL     1       7.060  -9.655   4.822  0.00  0.00    +0.000 C 
BRANCH  15  17
ATOM     17  O   UNL     1       7.173  -7.574   5.988  0.00  0.00    +0.000 OA
ATOM     18  H   UNL     1       7.617  -6.702   5.966  0.00  0.00    +0.000 HD
ENDBRANCH  15  17
ENDBRANCH  14  15
ENDBRANCH   1  14
TORSDOF 7
ENDMDL
MODEL 5
REMARK VINA RESULT:    -5.187      5.111      7.493
REMARK INTER + INTRA:          -7.480
REMARK INTER:                  -6.656
REMARK INTRA:                  -0.823
REMARK UNBOUND:                -0.474
REMARK  Name = 
REMARK  10 active torsions:
REMARK  status: ('A' for Active; 'I' for Inactive)
REMARK    1  A    between atoms: C_1  and  C_2
REMARK    2  A    between atoms: C_5  and  N_8
REMARK    3  A    between atoms: N_8  and  C_9
REMARK    4  A    between atoms: N_8  and  C_13
REMARK    5  A    between atoms: C_9  and  C_10
REMARK    6  A    between atoms: C_10  and  C_11
REMARK    7  A    between atoms: C_10  and  O_12
REMARK    8  A    between atoms: C_13  and  C_14
REMARK    9  A    between atoms: C_14  and  C_15
REMARK   10  A    between atoms: C_14  and  O_16
REMARK                            x       y       z     vdW  Elec       q    Type
REMARK                         _______ _______ _______ _____ _____    ______ ____
ROOT
ATOM      1  N   UNL     1       8.732  -8.443   2.144  0.00  0.00    +0.000 N 
ENDROOT
BRANCH   1   6
ATOM      2  C   UNL     1      14.307  -7.438   1.027  0.00  0.00    +0.000 C 
ATOM      3  C   UNL     1      12.866  -7.704   1.341  0.00  0.00    +0.000 A 
ATOM      4  C   UNL     1      12.316  -8.968   1.155  0.00  0.00    +0.000 A 
ATOM      5  C   UNL     1      10.958  -9.205   1.422  0.00  0.00    +0.000 A 
ATOM      6  C   UNL     1      10.082  -8.196   1.861  0.00  0.00    +0.000 A 
ATOM      7  C   UNL     1      10.672  -6.931   2.039  0.00  0.00    +0.000 A 
ATOM      8  C   UNL     1      12.029  -6.682   1.778  0.00  0.00    +0.000 A 
ENDBRANCH   1   6
BRANCH   1   9
ATOM      9  C   UNL     1       8.351  -9.136   3.398  0.00  0.00    +0.000 C 
BRANCH   9  10
ATOM     10  C   UNL     1       8.230  -8.172   4.603  0.00  0.00    +0.000 C 
ATOM     11  C   UNL     1       9.554  -8.066   5.351  0.00  0.00    +0.000 C 
BRANCH  10  12
ATOM     12  O   UNL     1       7.856  -6.855   4.174  0.00  0.00    +0.000 OA
ATOM     13  H   UNL     1       6.965  -6.906   3.789  0.00  0.00    +0.000 HD
ENDBRANCH  10  12
ENDBRANCH   9  10
ENDBRANCH   1   9
BRANCH   1  14
ATOM     14  C   UNL     1       7.719  -8.512   1.059  0.00  0.00    +0.000 C 
BRANCH  14  15
ATOM     15  C   UNL     1       7.356  -7.112   0.510  0.00  0.00    +0.000 C 
ATOM     16  C   UNL     1       6.086  -7.109  -0.333  0.00  0.00    +0.000 C 
BRANCH  15  17
ATOM     17  O   UNL     1       7.192  -6.159   1.559  0.00  0.00    +0.000 OA
ATOM     18  H   UNL     1       6.496  -6.536   2.135  0.00  0.00    +0.000 HD
ENDBRANCH  15  17
ENDBRANCH  14  15
ENDBRANCH   1  14
TORSDOF 7
ENDMDL
MODEL 6
REMARK VINA RESULT:    -5.138      7.175      9.068
REMARK INTER + INTRA:          -7.414
REMARK INTER:                  -6.682
REMARK INTRA:                  -0.732
REMARK UNBOUND:                -0.474
REMARK  Name = 
REMARK  10 active torsions:
REMARK  status: ('A' for Active; 'I' for Inactive)
REMARK    1  A    between atoms: C_1  and  C_2
REMARK    2  A    between atoms: C_5  and  N_8
REMARK    3  A    between atoms: N_8  and  C_9
REMARK    4  A    between atoms: N_8  and  C_13
REMARK    5  A    between atoms: C_9  and  C_10
REMARK    6  A    between atoms: C_10  and  C_11
REMARK    7  A    between atoms: C_10  and  O_12
REMARK    8  A    between atoms: C_13  and  C_14
REMARK    9  A    between atoms: C_14  and  C_15
REMARK   10  A    between atoms: C_14  and  O_16
REMARK                            x       y       z     vdW  Elec       q    Type
REMARK                         _______ _______ _______ _____ _____    ______ ____
ROOT
ATOM      1  N   UNL     1       8.378  -9.376   3.132  0.00  0.00    +0.000 N 
ENDROOT
BRANCH   1   6
ATOM      2  C   UNL     1       3.418 -12.302   2.727  0.00  0.00    +0.000 C 
ATOM      3  C   UNL     1       4.717 -11.565   2.829  0.00  0.00    +0.000 A 
ATOM      4  C   UNL     1       5.319 -11.344   4.063  0.00  0.00    +0.000 A 
ATOM      5  C   UNL     1       6.522 -10.626   4.156  0.00  0.00    +0.000 A 
ATOM      6  C   UNL     1       7.168 -10.075   3.034  0.00  0.00    +0.000 A 
ATOM      7  C   UNL     1       6.533 -10.319   1.802  0.00  0.00    +0.000 A 
ATOM      8  C   UNL     1       5.331 -11.038   1.696  0.00  0.00    +0.000 A 
ENDBRANCH   1   6
BRANCH   1   9
ATOM      9  C   UNL     1       8.862  -8.566   1.988  0.00  0.00    +0.000 C 
BRANCH   9  10
ATOM     10  C   UNL     1       8.305  -7.122   1.997  0.00  0.00    +0.000 C 
ATOM     11  C   UNL     1       7.371  -6.890   0.815  0.00  0.00    +0.000 C 
BRANCH  10  12
ATOM     12  O   UNL     1       7.570  -6.861   3.201  0.00  0.00    +0.000 OA
ATOM     13  H   UNL     1       7.455  -5.900   3.283  0.00  0.00    +0.000 HD
ENDBRANCH  10  12
ENDBRANCH   9  10
ENDBRANCH   1   9
BRANCH   1  14
ATOM     14  C   UNL     1       9.431  -9.793   4.092  0.00  0.00    +0.000 C 
BRANCH  14  15
ATOM     15  C   UNL     1       9.619  -8.766   5.235  0.00  0.00    +0.000 C 
ATOM     16  C   UNL     1      10.657  -7.697   4.916  0.00  0.00    +0.000 C 
BRANCH  15  17
ATOM     17  O   UNL     1       8.394  -8.110   5.560  0.00  0.00    +0.000 OA
ATOM     18  H   UNL     1       7.747  -8.832   5.689  0.00  0.00    +0.000 HD
ENDBRANCH  15  17
ENDBRANCH  14  15
ENDBRANCH   1  14
TORSDOF 7
ENDMDL
MODEL 7
REMARK VINA RESULT:    -5.019      1.809      3.404
REMARK INTER + INTRA:          -7.254
REMARK INTER:                  -6.650
REMARK INTRA:                  -0.604
REMARK UNBOUND:                -0.474
REMARK  Name = 
REMARK  10 active torsions:
REMARK  status: ('A' for Active; 'I' for Inactive)
REMARK    1  A    between atoms: C_1  and  C_2
REMARK    2  A    between atoms: C_5  and  N_8
REMARK    3  A    between atoms: N_8  and  C_9
REMARK    4  A    between atoms: N_8  and  C_13
REMARK    5  A    between atoms: C_9  and  C_10
REMARK    6  A    between atoms: C_10  and  C_11
REMARK    7  A    between atoms: C_10  and  O_12
REMARK    8  A    between atoms: C_13  and  C_14
REMARK    9  A    between atoms: C_14  and  C_15
REMARK   10  A    between atoms: C_14  and  O_16
REMARK                            x       y       z     vdW  Elec       q    Type
REMARK                         _______ _______ _______ _____ _____    ______ ____
ROOT
ATOM      1  N   UNL     1      14.955  -8.197   0.192  0.00  0.00    +0.000 N 
ENDROOT
BRANCH   1   6
ATOM      2  C   UNL     1       9.622  -7.262   2.196  0.00  0.00    +0.000 C 
ATOM      3  C   UNL     1      11.012  -7.517   1.697  0.00  0.00    +0.000 A 
ATOM      4  C   UNL     1      12.036  -6.608   1.939  0.00  0.00    +0.000 A 
ATOM      5  C   UNL     1      13.329  -6.838   1.443  0.00  0.00    +0.000 A 
ATOM      6  C   UNL     1      13.658  -7.964   0.667  0.00  0.00    +0.000 A 
ATOM      7  C   UNL     1      12.599  -8.863   0.444  0.00  0.00    +0.000 A 
ATOM      8  C   UNL     1      11.301  -8.646   0.936  0.00  0.00    +0.000 A 
ENDBRANCH   1   6
BRANCH   1   9
ATOM      9  C   UNL     1      15.190  -9.215  -0.860  0.00  0.00    +0.000 C 
BRANCH   9  10
ATOM     10  C   UNL     1      14.928  -8.676  -2.287  0.00  0.00    +0.000 C 
ATOM     11  C   UNL     1      16.219  -8.617  -3.094  0.00  0.00    +0.000 C 
BRANCH  10  12
ATOM     12  O   UNL     1      14.001  -9.514  -2.992  0.00  0.00    +0.000 OA
ATOM     13  H   UNL     1      14.364  -9.686  -3.877  0.00  0.00    +0.000 HD
ENDBRANCH  10  12
ENDBRANCH   9  10
ENDBRANCH   1   9
BRANCH   1  14
ATOM     14  C   UNL     1      16.147  -7.861   1.013  0.00  0.00    +0.000 C 
BRANCH  14  15
ATOM     15  C   UNL     1      16.931  -6.657   0.438  0.00  0.00    +0.000 C 
ATOM     16  C   UNL     1      18.209  -7.064  -0.285  0.00  0.00    +0.000 C 
BRANCH  15  17
ATOM     17  O   UNL     1      16.136  -5.892  -0.467  0.00  0.00    +0.000 OA
ATOM     18  H   UNL     1      15.234  -6.265  -0.388  0.00  0.00    +0.000 HD
ENDBRANCH  15  17
ENDBRANCH  14  15
ENDBRANCH   1  14
TORSDOF 7
ENDMDL
MODEL 8
REMARK VINA RESULT:    -4.987      4.356      6.746
REMARK INTER + INTRA:          -7.210
REMARK INTER:                  -6.759
REMARK INTRA:                  -0.451
REMARK UNBOUND:                -0.474
REMARK  Name = 
REMARK  10 active torsions:
REMARK  status: ('A' for Active; 'I' for Inactive)
REMARK    1  A    between atoms: C_1  and  C_2
REMARK    2  A    between atoms: C_5  and  N_8
REMARK    3  A    between atoms: N_8  and  C_9
REMARK    4  A    between atoms: N_8  and  C_13
REMARK    5  A    between atoms: C_9  and  C_10
REMARK    6  A    between atoms: C_10  and  C_11
REMARK    7  A    between atoms: C_10  and  O_12
REMARK    8  A    between atoms: C_13  and  C_14
REMARK    9  A    between atoms: C_14  and  C_15
REMARK   10  A    between atoms: C_14  and  O_16
REMARK                            x       y       z     vdW  Elec       q    Type
REMARK                         _______ _______ _______ _____ _____    ______ ____
ROOT
ATOM      1  N   UNL     1      10.054  -7.186   3.051  0.00  0.00    +0.000 N 
ENDROOT
BRANCH   1   6
ATOM      2  C   UNL     1      15.662  -8.061   1.998  0.00  0.00    +0.000 C 
ATOM      3  C   UNL     1      14.202  -7.854   2.257  0.00  0.00    +0.000 A 
ATOM      4  C   UNL     1      13.442  -7.021   1.442  0.00  0.00    +0.000 A 
ATOM      5  C   UNL     1      12.080  -6.807   1.707  0.00  0.00    +0.000 A 
ATOM      6  C   UNL     1      11.418  -7.389   2.803  0.00  0.00    +0.000 A 
ATOM      7  C   UNL     1      12.215  -8.226   3.604  0.00  0.00    +0.000 A 
ATOM      8  C   UNL     1      13.578  -8.450   3.349  0.00  0.00    +0.000 A 
ENDBRANCH   1   6
BRANCH   1   9
ATOM      9  C   UNL     1       9.556  -7.100   4.445  0.00  0.00    +0.000 C 
BRANCH   9  10
ATOM     10  C   UNL     1       8.460  -8.148   4.757  0.00  0.00    +0.000 C 
ATOM     11  C   UNL     1       9.079  -9.462   5.218  0.00  0.00    +0.000 C 
BRANCH  10  12
ATOM     12  O   UNL     1       7.582  -7.683   5.791  0.00  0.00    +0.000 OA
ATOM     13  H   UNL     1       8.119  -7.218   6.455  0.00  0.00    +0.000 HD
ENDBRANCH  10  12
ENDBRANCH   9  10
ENDBRANCH   1   9
BRANCH   1  14
ATOM     14  C   UNL     1       9.027  -7.553   2.043  0.00  0.00    +0.000 C 
BRANCH  14  15
ATOM     15  C   UNL     1       9.152  -9.028   1.591  0.00  0.00    +0.000 C 
ATOM     16  C   UNL     1       7.808  -9.739   1.481  0.00  0.00    +0.000 C 
BRANCH  15  17
ATOM     17  O   UNL     1       9.815  -9.139   0.332  0.00  0.00    +0.000 OA
ATOM     18  H   UNL     1       9.682  -8.272  -0.101  0.00  0.00    +0.000 HD
ENDBRANCH  15  17
ENDBRANCH  14  15
ENDBRANCH   1  14
TORSDOF 7
ENDMDL
MODEL 9
REMARK VINA RESULT:    -4.981      3.208      6.218
REMARK INTER + INTRA:          -7.202
REMARK INTER:                  -6.668
REMARK INTRA:                  -0.534
REMARK UNBOUND:                -0.474
REMARK  Name = 
REMARK  10 active torsions:
REMARK  status: ('A' for Active; 'I' for Inactive)
REMARK    1  A    between atoms: C_1  and  C_2
REMARK    2  A    between atoms: C_5  and  N_8
REMARK    3  A    between atoms: N_8  and  C_9
REMARK    4  A    between atoms: N_8  and  C_13
REMARK    5  A    between atoms: C_9  and  C_10
REMARK    6  A    between atoms: C_10  and  C_11
REMARK    7  A    between atoms: C_10  and  O_12
REMARK    8  A    between atoms: C_13  and  C_14
REMARK    9  A    between atoms: C_14  and  C_15
REMARK   10  A    between atoms: C_14  and  O_16
REMARK                            x       y       z     vdW  Elec       q    Type
REMARK                         _______ _______ _______ _____ _____    ______ ____
ROOT
ATOM      1  N   UNL     1      12.097  -7.465   2.101  0.00  0.00    +0.000 N 
ENDROOT
BRANCH   1   6
ATOM      2  C   UNL     1      16.545  -7.612  -1.577  0.00  0.00    +0.000 C 
ATOM      3  C   UNL     1      15.399  -7.595  -0.612  0.00  0.00    +0.000 A 
ATOM      4  C   UNL     1      14.197  -8.223  -0.919  0.00  0.00    +0.000 A 
ATOM      5  C   UNL     1      13.116  -8.177  -0.023  0.00  0.00    +0.000 A 
ATOM      6  C   UNL     1      13.172  -7.489   1.203  0.00  0.00    +0.000 A 
ATOM      7  C   UNL     1      14.404  -6.868   1.481  0.00  0.00    +0.000 A 
ATOM      8  C   UNL     1      15.493  -6.908   0.595  0.00  0.00    +0.000 A 
ENDBRANCH   1   6
BRANCH   1   9
ATOM      9  C   UNL     1      10.707  -7.368   1.593  0.00  0.00    +0.000 C 
BRANCH   9  10
ATOM     10  C   UNL     1       9.902  -8.675   1.796  0.00  0.00    +0.000 C 
ATOM     11  C   UNL     1       8.526  -8.382   2.383  0.00  0.00    +0.000 C 
BRANCH  10  12
ATOM     12  O   UNL     1       9.717  -9.364   0.552  0.00  0.00    +0.000 OA
ATOM     13  H   UNL     1       9.774  -8.711  -0.165  0.00  0.00    +0.000 HD
ENDBRANCH  10  12
ENDBRANCH   9  10
ENDBRANCH   1   9
BRANCH   1  14
ATOM     14  C   UNL     1      12.280  -7.025   3.508  0.00  0.00    +0.000 C 
BRANCH  14  15
ATOM     15  C   UNL     1      12.559  -8.213   4.459  0.00  0.00    +0.000 C 
ATOM     16  C   UNL     1      13.967  -8.197   5.042  0.00  0.00    +0.000 C 
BRANCH  15  17
ATOM     17  O   UNL     1      11.632  -8.248   5.544  0.00  0.00    +0.000 OA
ATOM     18  H   UNL     1      11.283  -7.336   5.608  0.00  0.00    +0.000 HD
ENDBRANCH  15  17
ENDBRANCH  14  15
ENDBRANCH   1  14
TORSDOF 7
ENDMDL
