MODEL 1
REMARK VINA RESULT:    -4.878      0.000      0.000
REMARK INTER + INTRA:          -5.347
REMARK INTER:                  -5.305
REMARK INTRA:                  -0.042
REMARK UNBOUND:                -0.042
REMARK  Name = 
REMARK  3 active torsions:
REMARK  status: ('A' for Active; 'I' for Inactive)
REMARK    1  A    between atoms: C_1  and  O_2
REMARK    2  A    between atoms: O_2  and  C_3
REMARK    3  A    between atoms: C_8  and  O_9
REMARK                            x       y       z     vdW  Elec       q    Type
REMARK                         _______ _______ _______ _____ _____    ______ ____
ROOT
ATOM      1  C   UNL     1       2.923  13.875  -1.459  0.00  0.00    +0.000 A 
ATOM      2  C   UNL     1       3.392  14.909  -2.268  0.00  0.00    +0.000 A 
ATOM      3  C   UNL     1       3.650  14.675  -3.624  0.00  0.00    +0.000 A 
ATOM      4  C   UNL     1       3.442  13.409  -4.176  0.00  0.00    +0.000 A 
ATOM      5  C   UNL     1       2.973  12.371  -3.375  0.00  0.00    +0.000 A 
ATOM      6  C   UNL     1       2.720  12.612  -2.030  0.00  0.00    +0.000 A 
ENDROOT
BRANCH   1   8
ATOM      7  C   UNL     1       3.405  14.876   0.641  0.00  0.00    +0.000 C 
ATOM      8  O   UNL     1       2.629  13.960  -0.122  0.00  0.00    +0.000 OA
ENDBRANCH   1   8
BRANCH   6   9
ATOM      9  O   UNL     1       2.260  11.576  -1.263  0.00  0.00    +0.000 OA
ATOM     10  H   UNL     1       2.719  11.677  -0.407  0.00  0.00    +0.000 HD
ENDBRANCH   6   9
TORSDOF 2
ENDMDL
MODEL 2
REMARK VINA RESULT:    -4.843      2.027      2.730
REMARK INTER + INTRA:          -5.309
REMARK INTER:                  -5.266
REMARK INTRA:                  -0.043
REMARK UNBOUND:                -0.042
REMARK  Name = 
REMARK  3 active torsions:
REMARK  status: ('A' for Active; 'I' for Inactive)
REMARK    1  A    between atoms: C_1  and  O_2
REMARK    2  A    between atoms: O_2  and  C_3
REMARK    3  A    between atoms: C_8  and  O_9
REMARK                            x       y       z     vdW  Elec       q    Type
REMARK                         _______ _______ _______ _____ _____    ______ ____
ROOT
ATOM      1  C   UNL     1       3.040  13.985  -2.453  0.00  0.00    +0.000 A 
ATOM      2  C   UNL     1       2.457  13.095  -1.552  0.00  0.00    +0.000 A 
ATOM      3  C   UNL     1       2.403  11.728  -1.854  0.00  0.00    +0.000 A 
ATOM      4  C   UNL     1       2.929  11.247  -3.054  0.00  0.00    +0.000 A 
ATOM      5  C   UNL     1       3.513  12.130  -3.959  0.00  0.00    +0.000 A 
ATOM      6  C   UNL     1       3.562  13.484  -3.652  0.00  0.00    +0.000 A 
ENDROOT
BRANCH   1   8
ATOM      7  C   UNL     1       2.087  16.000  -1.629  0.00  0.00    +0.000 C 
ATOM      8  O   UNL     1       3.161  15.342  -2.290  0.00  0.00    +0.000 OA
ENDBRANCH   1   8
BRANCH   6   9
ATOM      9  O   UNL     1       4.141  14.332  -4.558  0.00  0.00    +0.000 OA
ATOM     10  H   UNL     1       3.479  15.036  -4.698  0.00  0.00    +0.000 HD
ENDBRANCH   6   9
TORSDOF 2
ENDMDL
MODEL 3
REMARK VINA RESULT:    -4.804      2.103      3.554
REMARK INTER + INTRA:          -5.267
REMARK INTER:                  -5.223
REMARK INTRA:                  -0.044
REMARK UNBOUND:                -0.042
REMARK  Name = 
REMARK  3 active torsions:
REMARK  status: ('A' for Active; 'I' for Inactive)
REMARK    1  A    between atoms: C_1  and  O_2
REMARK    2  A    between atoms: O_2  and  C_3
REMARK    3  A    between atoms: C_8  and  O_9
REMARK                            x       y       z     vdW  Elec       q    Type
REMARK                         _______ _______ _______ _____ _____    ______ ____
ROOT
ATOM      1  C   UNL     1       2.489  13.184  -2.525  0.00  0.00    +0.000 A 
ATOM      2  C   UNL     1       3.068  13.413  -1.277  0.00  0.00    +0.000 A 
ATOM      3  C   UNL     1       2.394  14.189  -0.326  0.00  0.00    +0.000 A 
ATOM      4  C   UNL     1       1.144  14.738  -0.616  0.00  0.00    +0.000 A 
ATOM      5  C   UNL     1       0.559  14.514  -1.861  0.00  0.00    +0.000 A 
ATOM      6  C   UNL     1       1.234  13.743  -2.799  0.00  0.00    +0.000 A 
ENDROOT
BRANCH   1   8
ATOM      7  C   UNL     1       3.018  11.035  -3.390  0.00  0.00    +0.000 C 
ATOM      8  O   UNL     1       3.032  12.449  -3.548  0.00  0.00    +0.000 OA
ENDBRANCH   1   8
BRANCH   6   9
ATOM      9  O   UNL     1       0.640  13.537  -4.015  0.00  0.00    +0.000 OA
ATOM     10  H   UNL     1      -0.033  14.241  -4.085  0.00  0.00    +0.000 HD
ENDBRANCH   6   9
TORSDOF 2
ENDMDL
MODEL 4
REMARK VINA RESULT:    -4.682      2.012      3.208
REMARK INTER + INTRA:          -5.134
REMARK INTER:                  -5.092
REMARK INTRA:                  -0.042
REMARK UNBOUND:                -0.042
REMARK  Name = 
REMARK  3 active torsions:
REMARK  status: ('A' for Active; 'I' for Inactive)
REMARK    1  A    between atoms: C_1  and  O_2
REMARK    2  A    between atoms: O_2  and  C_3
REMARK    3  A    between atoms: C_8  and  O_9
REMARK                            x       y       z     vdW  Elec       q    Type
REMARK                         _______ _______ _______ _____ _____    ______ ____
ROOT
ATOM      1  C   UNL     1       2.987  14.091  -3.423  0.00  0.00    +0.000 A 
ATOM      2  C   UNL     1       3.396  15.048  -2.495  0.00  0.00    +0.000 A 
ATOM      3  C   UNL     1       3.436  14.730  -1.132  0.00  0.00    +0.000 A 
ATOM      4  C   UNL     1       3.068  13.457  -0.692  0.00  0.00    +0.000 A 
ATOM      5  C   UNL     1       2.659  12.495  -1.612  0.00  0.00    +0.000 A 
ATOM      6  C   UNL     1       2.622  12.820  -2.962  0.00  0.00    +0.000 A 
ENDROOT
BRANCH   1   8
ATOM      7  C   UNL     1       1.801  15.033  -5.253  0.00  0.00    +0.000 C 
ATOM      8  O   UNL     1       2.900  14.263  -4.781  0.00  0.00    +0.000 OA
ENDBRANCH   1   8
BRANCH   6   9
ATOM      9  O   UNL     1       2.216  11.858  -3.848  0.00  0.00    +0.000 OA
ATOM     10  H   UNL     1       2.917  11.179  -3.816  0.00  0.00    +0.000 HD
ENDBRANCH   6   9
TORSDOF 2
ENDMDL
MODEL 5
REMARK VINA RESULT:    -4.640      2.210      3.726
REMARK INTER + INTRA:          -5.089
REMARK INTER:                  -5.042
REMARK INTRA:                  -0.047
REMARK UNBOUND:                -0.042
REMARK  Name = 
REMARK  3 active torsions:
REMARK  status: ('A' for Active; 'I' for Inactive)
REMARK    1  A    between atoms: C_1  and  O_2
REMARK    2  A    between atoms: O_2  and  C_3
REMARK    3  A    between atoms: C_8  and  O_9
REMARK                            x       y       z     vdW  Elec       q    Type
REMARK                         _______ _______ _______ _____ _____    ______ ____
ROOT
ATOM      1  C   UNL     1       2.496  13.899  -2.956  0.00  0.00    +0.000 A 
ATOM      2  C   UNL     1       1.138  13.656  -2.755  0.00  0.00    +0.000 A 
ATOM      3  C   UNL     1       0.383  14.524  -1.956  0.00  0.00    +0.000 A 
ATOM      4  C   UNL     1       0.981  15.634  -1.357  0.00  0.00    +0.000 A 
ATOM      5  C   UNL     1       2.337  15.884  -1.554  0.00  0.00    +0.000 A 
ATOM      6  C   UNL     1       3.078  15.018  -2.347  0.00  0.00    +0.000 A 
ENDROOT
BRANCH   1   8
ATOM      7  C   UNL     1       3.303  11.731  -3.501  0.00  0.00    +0.000 C 
ATOM      8  O   UNL     1       3.354  13.137  -3.709  0.00  0.00    +0.000 OA
ENDBRANCH   1   8
BRANCH   6   9
ATOM      9  O   UNL     1       4.409  15.284  -2.526  0.00  0.00    +0.000 OA
ATOM     10  H   UNL     1       4.723  14.587  -3.134  0.00  0.00    +0.000 HD
ENDBRANCH   6   9
TORSDOF 2
ENDMDL
MODEL 6
REMARK VINA RESULT:    -4.564      1.450      2.288
REMARK INTER + INTRA:          -5.005
REMARK INTER:                  -4.977
REMARK INTRA:                  -0.029
REMARK UNBOUND:                -0.042
REMARK  Name = 
REMARK  3 active torsions:
REMARK  status: ('A' for Active; 'I' for Inactive)
REMARK    1  A    between atoms: C_1  and  O_2
REMARK    2  A    between atoms: O_2  and  C_3
REMARK    3  A    between atoms: C_8  and  O_9
REMARK                            x       y       z     vdW  Elec       q    Type
REMARK                         _______ _______ _______ _____ _____    ______ ____
ROOT
ATOM      1  C   UNL     1       2.855  13.951  -2.565  0.00  0.00    +0.000 A 
ATOM      2  C   UNL     1       3.292  13.519  -3.817  0.00  0.00    +0.000 A 
ATOM      3  C   UNL     1       3.439  12.150  -4.072  0.00  0.00    +0.000 A 
ATOM      4  C   UNL     1       3.151  11.210  -3.081  0.00  0.00    +0.000 A 
ATOM      5  C   UNL     1       2.714  11.634  -1.828  0.00  0.00    +0.000 A 
ATOM      6  C   UNL     1       2.572  12.994  -1.583  0.00  0.00    +0.000 A 
ENDROOT
BRANCH   1   8
ATOM      7  C   UNL     1       1.470  15.881  -2.619  0.00  0.00    +0.000 C 
ATOM      8  O   UNL     1       2.668  15.253  -2.177  0.00  0.00    +0.000 OA
ENDBRANCH   1   8
BRANCH   6   9
ATOM      9  O   UNL     1       2.141  13.386  -0.344  0.00  0.00    +0.000 OA
ATOM     10  H   UNL     1       1.971  12.553   0.135  0.00  0.00    +0.000 HD
ENDBRANCH   6   9
TORSDOF 2
ENDMDL
MODEL 7
REMARK VINA RESULT:    -4.435      1.813      2.505
REMARK INTER + INTRA:          -4.866
REMARK INTER:                  -4.813
REMARK INTRA:                  -0.052
REMARK UNBOUND:                -0.042
REMARK  Name = 
REMARK  3 active torsions:
REMARK  status: ('A' for Active; 'I' for Inactive)
REMARK    1  A    between atoms: C_1  and  O_2
REMARK    2  A    between atoms: O_2  and  C_3
REMARK    3  A    between atoms: C_8  and  O_9
REMARK                            x       y       z     vdW  Elec       q    Type
REMARK                         _______ _______ _______ _____ _____    ______ ____
ROOT
ATOM      1  C   UNL     1       2.670  14.211  -1.626  0.00  0.00    +0.000 A 
ATOM      2  C   UNL     1       1.365  13.735  -1.740  0.00  0.00    +0.000 A 
ATOM      3  C   UNL     1       0.677  13.863  -2.953  0.00  0.00    +0.000 A 
ATOM      4  C   UNL     1       1.289  14.466  -4.054  0.00  0.00    +0.000 A 
ATOM      5  C   UNL     1       2.593  14.944  -3.948  0.00  0.00    +0.000 A 
ATOM      6  C   UNL     1       3.268  14.812  -2.741  0.00  0.00    +0.000 A 
ENDROOT
BRANCH   1   8
ATOM      7  C   UNL     1       2.993  14.862   0.636  0.00  0.00    +0.000 C 
ATOM      8  O   UNL     1       3.460  14.153  -0.506  0.00  0.00    +0.000 OA
ENDBRANCH   1   8
BRANCH   6   9
ATOM      9  O   UNL     1       4.549  15.289  -2.661  0.00  0.00    +0.000 OA
ATOM     10  H   UNL     1       4.790  15.198  -1.719  0.00  0.00    +0.000 HD
ENDBRANCH   6   9
TORSDOF 2
ENDMDL
MODEL 8
REMARK VINA RESULT:    -4.309      1.957      3.464
REMARK INTER + INTRA:          -4.729
REMARK INTER:                  -4.689
REMARK INTRA:                  -0.040
REMARK UNBOUND:                -0.042
REMARK  Name = 
REMARK  3 active torsions:
REMARK  status: ('A' for Active; 'I' for Inactive)
REMARK    1  A    between atoms: C_1  and  O_2
REMARK    2  A    between atoms: O_2  and  C_3
REMARK    3  A    between atoms: C_8  and  O_9
REMARK                            x       y       z     vdW  Elec       q    Type
REMARK                         _______ _______ _______ _____ _____    ______ ____
ROOT
ATOM      1  C   UNL     1       2.432  14.353  -2.113  0.00  0.00    +0.000 A 
ATOM      2  C   UNL     1       1.468  15.304  -2.443  0.00  0.00    +0.000 A 
ATOM      3  C   UNL     1       0.719  15.921  -1.432  0.00  0.00    +0.000 A 
ATOM      4  C   UNL     1       0.930  15.590  -0.093  0.00  0.00    +0.000 A 
ATOM      5  C   UNL     1       1.892  14.640   0.245  0.00  0.00    +0.000 A 
ATOM      6  C   UNL     1       2.630  14.034  -0.764  0.00  0.00    +0.000 A 
ENDROOT
BRANCH   1   8
ATOM      7  C   UNL     1       3.518  14.323  -4.226  0.00  0.00    +0.000 C 
ATOM      8  O   UNL     1       3.234  13.672  -2.994  0.00  0.00    +0.000 OA
ENDBRANCH   1   8
BRANCH   6   9
ATOM      9  O   UNL     1       3.570  13.103  -0.408  0.00  0.00    +0.000 OA
ATOM     10  H   UNL     1       3.065  12.278  -0.277  0.00  0.00    +0.000 HD
ENDBRANCH   6   9
TORSDOF 2
ENDMDL
MODEL 9
REMARK VINA RESULT:    -4.305      2.408      2.949
REMARK INTER + INTRA:          -4.724
REMARK INTER:                  -4.678
REMARK INTRA:                  -0.045
REMARK UNBOUND:                -0.042
REMARK  Name = 
REMARK  3 active torsions:
REMARK  status: ('A' for Active; 'I' for Inactive)
REMARK    1  A    between atoms: C_1  and  O_2
REMARK    2  A    between atoms: O_2  and  C_3
REMARK    3  A    between atoms: C_8  and  O_9
REMARK                            x       y       z     vdW  Elec       q    Type
REMARK                         _______ _______ _______ _____ _____    ______ ____
ROOT
ATOM      1  C   UNL     1       1.299  14.387  -2.426  0.00  0.00    +0.000 A 
ATOM      2  C   UNL     1       1.845  13.204  -1.930  0.00  0.00    +0.000 A 
ATOM      3  C   UNL     1       2.864  12.553  -2.637  0.00  0.00    +0.000 A 
ATOM      4  C   UNL     1       3.340  13.081  -3.839  0.00  0.00    +0.000 A 
ATOM      5  C   UNL     1       2.800  14.263  -4.341  0.00  0.00    +0.000 A 
ATOM      6  C   UNL     1       1.789  14.901  -3.633  0.00  0.00    +0.000 A 
ENDROOT
BRANCH   1   8
ATOM      7  C   UNL     1       0.659  15.876  -0.689  0.00  0.00    +0.000 C 
ATOM      8  O   UNL     1       0.301  15.127  -1.844  0.00  0.00    +0.000 OA
ENDBRANCH   1   8
BRANCH   6   9
ATOM      9  O   UNL     1       1.274  16.061  -4.146  0.00  0.00    +0.000 OA
ATOM     10  H   UNL     1       0.494  16.254  -3.592  0.00  0.00    +0.000 HD
ENDBRANCH   6   9
TORSDOF 2
ENDMDL
