MODEL 1
REMARK VINA RESULT:    -4.879      0.000      0.000
REMARK INTER + INTRA:          -5.349
REMARK INTER:                  -5.307
REMARK INTRA:                  -0.042
REMARK UNBOUND:                -0.042
REMARK  Name = 
REMARK  3 active torsions:
REMARK  status: ('A' for Active; 'I' for Inactive)
REMARK    1  A    between atoms: C_1  and  O_2
REMARK    2  A    between atoms: O_2  and  C_3
REMARK    3  A    between atoms: C_8  and  O_9
REMARK                            x       y       z     vdW  Elec       q    Type
REMARK                         _______ _______ _______ _____ _____    ______ ____
ROOT
ATOM      1  C   UNL     1       2.911  13.880  -1.463  0.00  0.00    +0.000 A 
ATOM      2  C   UNL     1       3.385  14.912  -2.272  0.00  0.00    +0.000 A 
ATOM      3  C   UNL     1       3.651  14.673  -3.626  0.00  0.00    +0.000 A 
ATOM      4  C   UNL     1       3.447  13.406  -4.175  0.00  0.00    +0.000 A 
ATOM      5  C   UNL     1       2.973  12.370  -3.373  0.00  0.00    +0.000 A 
ATOM      6  C   UNL     1       2.712  12.616  -2.031  0.00  0.00    +0.000 A 
ENDROOT
BRANCH   1   8
ATOM      7  C   UNL     1       3.407  14.859   0.645  0.00  0.00    +0.000 C 
ATOM      8  O   UNL     1       2.610  13.969  -0.127  0.00  0.00    +0.000 OA
ENDBRANCH   1   8
BRANCH   6   9
ATOM      9  O   UNL     1       2.247  11.581  -1.263  0.00  0.00    +0.000 OA
ATOM     10  H   UNL     1       1.408  11.316  -1.685  0.00  0.00    +0.000 HD
ENDBRANCH   6   9
TORSDOF 2
ENDMDL
MODEL 2
REMARK VINA RESULT:    -4.823      2.034      2.708
REMARK INTER + INTRA:          -5.288
REMARK INTER:                  -5.249
REMARK INTRA:                  -0.038
REMARK UNBOUND:                -0.042
REMARK  Name = 
REMARK  3 active torsions:
REMARK  status: ('A' for Active; 'I' for Inactive)
REMARK    1  A    between atoms: C_1  and  O_2
REMARK    2  A    between atoms: O_2  and  C_3
REMARK    3  A    between atoms: C_8  and  O_9
REMARK                            x       y       z     vdW  Elec       q    Type
REMARK                         _______ _______ _______ _____ _____    ______ ____
ROOT
ATOM      1  C   UNL     1       3.004  13.979  -2.496  0.00  0.00    +0.000 A 
ATOM      2  C   UNL     1       2.409  13.079  -1.613  0.00  0.00    +0.000 A 
ATOM      3  C   UNL     1       2.390  11.711  -1.915  0.00  0.00    +0.000 A 
ATOM      4  C   UNL     1       2.965  11.239  -3.097  0.00  0.00    +0.000 A 
ATOM      5  C   UNL     1       3.562  12.132  -3.983  0.00  0.00    +0.000 A 
ATOM      6  C   UNL     1       3.575  13.487  -3.676  0.00  0.00    +0.000 A 
ENDROOT
BRANCH   1   8
ATOM      7  C   UNL     1       2.220  15.919  -1.371  0.00  0.00    +0.000 C 
ATOM      8  O   UNL     1       3.094  15.338  -2.331  0.00  0.00    +0.000 OA
ENDBRANCH   1   8
BRANCH   6   9
ATOM      9  O   UNL     1       4.168  14.345  -4.564  0.00  0.00    +0.000 OA
ATOM     10  H   UNL     1       3.425  14.753  -5.048  0.00  0.00    +0.000 HD
ENDBRANCH   6   9
TORSDOF 2
ENDMDL
MODEL 3
REMARK VINA RESULT:    -4.806      2.115      3.553
REMARK INTER + INTRA:          -5.269
REMARK INTER:                  -5.224
REMARK INTRA:                  -0.045
REMARK UNBOUND:                -0.042
REMARK  Name = 
REMARK  3 active torsions:
REMARK  status: ('A' for Active; 'I' for Inactive)
REMARK    1  A    between atoms: C_1  and  O_2
REMARK    2  A    between atoms: O_2  and  C_3
REMARK    3  A    between atoms: C_8  and  O_9
REMARK                            x       y       z     vdW  Elec       q    Type
REMARK                         _______ _______ _______ _____ _____    ______ ____
ROOT
ATOM      1  C   UNL     1       2.468  13.204  -2.532  0.00  0.00    +0.000 A 
ATOM      2  C   UNL     1       3.035  13.445  -1.281  0.00  0.00    +0.000 A 
ATOM      3  C   UNL     1       2.349  14.225  -0.341  0.00  0.00    +0.000 A 
ATOM      4  C   UNL     1       1.099  14.766  -0.648  0.00  0.00    +0.000 A 
ATOM      5  C   UNL     1       0.527  14.530  -1.895  0.00  0.00    +0.000 A 
ATOM      6  C   UNL     1       1.214  13.755  -2.821  0.00  0.00    +0.000 A 
ENDROOT
BRANCH   1   8
ATOM      7  C   UNL     1       3.024  11.051  -3.371  0.00  0.00    +0.000 C 
ATOM      8  O   UNL     1       3.024  12.463  -3.545  0.00  0.00    +0.000 OA
ENDBRANCH   1   8
BRANCH   6   9
ATOM      9  O   UNL     1       0.631  13.537  -4.041  0.00  0.00    +0.000 OA
ATOM     10  H   UNL     1       1.099  14.138  -4.651  0.00  0.00    +0.000 HD
ENDBRANCH   6   9
TORSDOF 2
ENDMDL
MODEL 4
REMARK VINA RESULT:    -4.723      1.982      3.219
REMARK INTER + INTRA:          -5.179
REMARK INTER:                  -5.134
REMARK INTRA:                  -0.045
REMARK UNBOUND:                -0.042
REMARK  Name = 
REMARK  3 active torsions:
REMARK  status: ('A' for Active; 'I' for Inactive)
REMARK    1  A    between atoms: C_1  and  O_2
REMARK    2  A    between atoms: O_2  and  C_3
REMARK    3  A    between atoms: C_8  and  O_9
REMARK                            x       y       z     vdW  Elec       q    Type
REMARK                         _______ _______ _______ _____ _____    ______ ____
ROOT
ATOM      1  C   UNL     1       3.140  14.068  -3.416  0.00  0.00    +0.000 A 
ATOM      2  C   UNL     1       3.568  15.036  -2.509  0.00  0.00    +0.000 A 
ATOM      3  C   UNL     1       3.500  14.785  -1.133  0.00  0.00    +0.000 A 
ATOM      4  C   UNL     1       3.004  13.569  -0.659  0.00  0.00    +0.000 A 
ATOM      5  C   UNL     1       2.575  12.596  -1.559  0.00  0.00    +0.000 A 
ATOM      6  C   UNL     1       2.646  12.854  -2.922  0.00  0.00    +0.000 A 
ENDROOT
BRANCH   1   8
ATOM      7  C   UNL     1       2.161  15.025  -5.358  0.00  0.00    +0.000 C 
ATOM      8  O   UNL     1       3.148  14.177  -4.783  0.00  0.00    +0.000 OA
ENDBRANCH   1   8
BRANCH   6   9
ATOM      9  O   UNL     1       2.217  11.883  -3.787  0.00  0.00    +0.000 OA
ATOM     10  H   UNL     1       3.021  11.375  -4.009  0.00  0.00    +0.000 HD
ENDBRANCH   6   9
TORSDOF 2
ENDMDL
MODEL 5
REMARK VINA RESULT:    -4.641      2.171      3.711
REMARK INTER + INTRA:          -5.090
REMARK INTER:                  -5.047
REMARK INTRA:                  -0.043
REMARK UNBOUND:                -0.042
REMARK  Name = 
REMARK  3 active torsions:
REMARK  status: ('A' for Active; 'I' for Inactive)
REMARK    1  A    between atoms: C_1  and  O_2
REMARK    2  A    between atoms: O_2  and  C_3
REMARK    3  A    between atoms: C_8  and  O_9
REMARK                            x       y       z     vdW  Elec       q    Type
REMARK                         _______ _______ _______ _____ _____    ______ ____
ROOT
ATOM      1  C   UNL     1       2.549  13.870  -2.861  0.00  0.00    +0.000 A 
ATOM      2  C   UNL     1       1.194  13.607  -2.662  0.00  0.00    +0.000 A 
ATOM      3  C   UNL     1       0.411  14.495  -1.915  0.00  0.00    +0.000 A 
ATOM      4  C   UNL     1       0.977  15.646  -1.364  0.00  0.00    +0.000 A 
ATOM      5  C   UNL     1       2.329  15.917  -1.558  0.00  0.00    +0.000 A 
ATOM      6  C   UNL     1       3.099  15.030  -2.301  0.00  0.00    +0.000 A 
ENDROOT
BRANCH   1   8
ATOM      7  C   UNL     1       3.263  11.684  -3.458  0.00  0.00    +0.000 C 
ATOM      8  O   UNL     1       3.431  13.092  -3.567  0.00  0.00    +0.000 OA
ENDBRANCH   1   8
BRANCH   6   9
ATOM      9  O   UNL     1       4.426  15.317  -2.479  0.00  0.00    +0.000 OA
ATOM     10  H   UNL     1       4.652  14.923  -3.343  0.00  0.00    +0.000 HD
ENDBRANCH   6   9
TORSDOF 2
ENDMDL
MODEL 6
REMARK VINA RESULT:    -4.559      1.453      2.283
REMARK INTER + INTRA:          -5.001
REMARK INTER:                  -4.975
REMARK INTRA:                  -0.026
REMARK UNBOUND:                -0.042
REMARK  Name = 
REMARK  3 active torsions:
REMARK  status: ('A' for Active; 'I' for Inactive)
REMARK    1  A    between atoms: C_1  and  O_2
REMARK    2  A    between atoms: O_2  and  C_3
REMARK    3  A    between atoms: C_8  and  O_9
REMARK                            x       y       z     vdW  Elec       q    Type
REMARK                         _______ _______ _______ _____ _____    ______ ____
ROOT
ATOM      1  C   UNL     1       2.854  13.952  -2.585  0.00  0.00    +0.000 A 
ATOM      2  C   UNL     1       3.297  13.526  -3.837  0.00  0.00    +0.000 A 
ATOM      3  C   UNL     1       3.438  12.158  -4.100  0.00  0.00    +0.000 A 
ATOM      4  C   UNL     1       3.138  11.213  -3.117  0.00  0.00    +0.000 A 
ATOM      5  C   UNL     1       2.694  11.631  -1.865  0.00  0.00    +0.000 A 
ATOM      6  C   UNL     1       2.558  12.990  -1.612  0.00  0.00    +0.000 A 
ENDROOT
BRANCH   1   8
ATOM      7  C   UNL     1       1.475  15.887  -2.624  0.00  0.00    +0.000 C 
ATOM      8  O   UNL     1       2.672  15.253  -2.189  0.00  0.00    +0.000 OA
ENDBRANCH   1   8
BRANCH   6   9
ATOM      9  O   UNL     1       2.121  13.376  -0.373  0.00  0.00    +0.000 OA
ATOM     10  H   UNL     1       2.824  13.089   0.240  0.00  0.00    +0.000 HD
ENDBRANCH   6   9
TORSDOF 2
ENDMDL
MODEL 7
REMARK VINA RESULT:    -4.556      1.759      3.500
REMARK INTER + INTRA:          -4.998
REMARK INTER:                  -4.945
REMARK INTRA:                  -0.052
REMARK UNBOUND:                -0.042
REMARK  Name = 
REMARK  3 active torsions:
REMARK  status: ('A' for Active; 'I' for Inactive)
REMARK    1  A    between atoms: C_1  and  O_2
REMARK    2  A    between atoms: O_2  and  C_3
REMARK    3  A    between atoms: C_8  and  O_9
REMARK                            x       y       z     vdW  Elec       q    Type
REMARK                         _______ _______ _______ _____ _____    ______ ____
ROOT
ATOM      1  C   UNL     1       1.932  13.407  -1.585  0.00  0.00    +0.000 A 
ATOM      2  C   UNL     1       0.808  14.042  -2.110  0.00  0.00    +0.000 A 
ATOM      3  C   UNL     1       0.369  15.254  -1.561  0.00  0.00    +0.000 A 
ATOM      4  C   UNL     1       1.050  15.833  -0.488  0.00  0.00    +0.000 A 
ATOM      5  C   UNL     1       2.174  15.204   0.041  0.00  0.00    +0.000 A 
ATOM      6  C   UNL     1       2.602  14.002  -0.509  0.00  0.00    +0.000 A 
ENDROOT
BRANCH   1   8
ATOM      7  C   UNL     1       3.068  12.233  -3.311  0.00  0.00    +0.000 C 
ATOM      8  O   UNL     1       2.471  12.222  -2.020  0.00  0.00    +0.000 OA
ENDBRANCH   1   8
BRANCH   6   9
ATOM      9  O   UNL     1       3.710  13.403   0.028  0.00  0.00    +0.000 OA
ATOM     10  H   UNL     1       4.458  13.750  -0.495  0.00  0.00    +0.000 HD
ENDBRANCH   6   9
TORSDOF 2
ENDMDL
MODEL 8
REMARK VINA RESULT:    -4.499      1.975      2.722
REMARK INTER + INTRA:          -4.935
REMARK INTER:                  -4.893
REMARK INTRA:                  -0.042
REMARK UNBOUND:                -0.042
REMARK  Name = 
REMARK  3 active torsions:
REMARK  status: ('A' for Active; 'I' for Inactive)
REMARK    1  A    between atoms: C_1  and  O_2
REMARK    2  A    between atoms: O_2  and  C_3
REMARK    3  A    between atoms: C_8  and  O_9
REMARK                            x       y       z     vdW  Elec       q    Type
REMARK                         _______ _______ _______ _____ _____    ______ ____
ROOT
ATOM      1  C   UNL     1       2.419  13.379  -3.066  0.00  0.00    +0.000 A 
ATOM      2  C   UNL     1       3.621  13.677  -3.706  0.00  0.00    +0.000 A 
ATOM      3  C   UNL     1       3.634  14.558  -4.795  0.00  0.00    +0.000 A 
ATOM      4  C   UNL     1       2.450  15.142  -5.247  0.00  0.00    +0.000 A 
ATOM      5  C   UNL     1       1.245  14.850  -4.612  0.00  0.00    +0.000 A 
ATOM      6  C   UNL     1       1.241  13.975  -3.533  0.00  0.00    +0.000 A 
ENDROOT
BRANCH   1   8
ATOM      7  C   UNL     1       3.112  11.402  -1.944  0.00  0.00    +0.000 C 
ATOM      8  O   UNL     1       2.258  12.538  -1.994  0.00  0.00    +0.000 OA
ENDBRANCH   1   8
BRANCH   6   9
ATOM      9  O   UNL     1       0.044  13.703  -2.926  0.00  0.00    +0.000 OA
ATOM     10  H   UNL     1      -0.299  14.574  -2.651  0.00  0.00    +0.000 HD
ENDBRANCH   6   9
TORSDOF 2
ENDMDL
MODEL 9
REMARK VINA RESULT:    -4.470      1.930      2.572
REMARK INTER + INTRA:          -4.904
REMARK INTER:                  -4.866
REMARK INTRA:                  -0.038
REMARK UNBOUND:                -0.042
REMARK  Name = 
REMARK  3 active torsions:
REMARK  status: ('A' for Active; 'I' for Inactive)
REMARK    1  A    between atoms: C_1  and  O_2
REMARK    2  A    between atoms: O_2  and  C_3
REMARK    3  A    between atoms: C_8  and  O_9
REMARK                            x       y       z     vdW  Elec       q    Type
REMARK                         _______ _______ _______ _____ _____    ______ ____
ROOT
ATOM      1  C   UNL     1       2.757  14.763  -1.420  0.00  0.00    +0.000 A 
ATOM      2  C   UNL     1       1.446  14.339  -1.203  0.00  0.00    +0.000 A 
ATOM      3  C   UNL     1       0.619  14.039  -2.292  0.00  0.00    +0.000 A 
ATOM      4  C   UNL     1       1.096  14.161  -3.599  0.00  0.00    +0.000 A 
ATOM      5  C   UNL     1       2.404  14.583  -3.823  0.00  0.00    +0.000 A 
ATOM      6  C   UNL     1       3.218  14.879  -2.737  0.00  0.00    +0.000 A 
ENDROOT
BRANCH   1   8
ATOM      7  C   UNL     1       3.333  14.751   0.885  0.00  0.00    +0.000 C 
ATOM      8  O   UNL     1       3.674  15.090  -0.453  0.00  0.00    +0.000 OA
ENDBRANCH   1   8
BRANCH   6   9
ATOM      9  O   UNL     1       4.500  15.293  -2.983  0.00  0.00    +0.000 OA
ATOM     10  H   UNL     1       4.757  14.830  -3.803  0.00  0.00    +0.000 HD
ENDBRANCH   6   9
TORSDOF 2
ENDMDL
