MODEL 1
REMARK VINA RESULT:    -4.140      0.000      0.000
REMARK INTER + INTRA:          -4.556
REMARK INTER:                  -4.503
REMARK INTRA:                  -0.053
REMARK UNBOUND:                -0.053
REMARK  Name = 
REMARK  3 active torsions:
REMARK  status: ('A' for Active; 'I' for Inactive)
REMARK    1  A    between atoms: C_1  and  O_2
REMARK    2  A    between atoms: O_2  and  C_3
REMARK    3  A    between atoms: C_8  and  O_9
REMARK                            x       y       z     vdW  Elec       q    Type
REMARK                         _______ _______ _______ _____ _____    ______ ____
ROOT
ATOM      1  C   UNL     1       1.674  18.497  -0.699  0.00  0.00    +0.000 A 
ATOM      2  C   UNL     1       0.473  19.059  -0.267  0.00  0.00    +0.000 A 
ATOM      3  C   UNL     1      -0.612  19.150  -1.147  0.00  0.00    +0.000 A 
ATOM      4  C   UNL     1      -0.502  18.682  -2.458  0.00  0.00    +0.000 A 
ATOM      5  C   UNL     1       0.694  18.119  -2.896  0.00  0.00    +0.000 A 
ATOM      6  C   UNL     1       1.766  18.033  -2.017  0.00  0.00    +0.000 A 
ENDROOT
BRANCH   1   8
ATOM      7  C   UNL     1       3.492  19.538   0.423  0.00  0.00    +0.000 C 
ATOM      8  O   UNL     1       2.814  18.345   0.050  0.00  0.00    +0.000 OA
ENDBRANCH   1   8
BRANCH   6   9
ATOM      9  O   UNL     1       2.931  17.476  -2.471  0.00  0.00    +0.000 OA
ATOM     10  H   UNL     1       2.843  16.523  -2.278  0.00  0.00    +0.000 HD
ENDBRANCH   6   9
TORSDOF 2
ENDMDL
MODEL 2
REMARK VINA RESULT:    -4.079      2.155      3.081
REMARK INTER + INTRA:          -4.489
REMARK INTER:                  -4.447
REMARK INTRA:                  -0.042
REMARK UNBOUND:                -0.053
REMARK  Name = 
REMARK  3 active torsions:
REMARK  status: ('A' for Active; 'I' for Inactive)
REMARK    1  A    between atoms: C_1  and  O_2
REMARK    2  A    between atoms: O_2  and  C_3
REMARK    3  A    between atoms: C_8  and  O_9
REMARK                            x       y       z     vdW  Elec       q    Type
REMARK                         _______ _______ _______ _____ _____    ______ ____
ROOT
ATOM      1  C   UNL     1       0.062  18.732  -1.110  0.00  0.00    +0.000 A 
ATOM      2  C   UNL     1       1.252  18.731  -0.384  0.00  0.00    +0.000 A 
ATOM      3  C   UNL     1       2.451  18.357  -1.005  0.00  0.00    +0.000 A 
ATOM      4  C   UNL     1       2.464  17.984  -2.350  0.00  0.00    +0.000 A 
ATOM      5  C   UNL     1       1.280  17.984  -3.083  0.00  0.00    +0.000 A 
ATOM      6  C   UNL     1       0.096  18.355  -2.458  0.00  0.00    +0.000 A 
ENDROOT
BRANCH   1   8
ATOM      7  C   UNL     1      -1.434  18.783   0.736  0.00  0.00    +0.000 C 
ATOM      8  O   UNL     1      -1.178  19.073  -0.634  0.00  0.00    +0.000 OA
ENDBRANCH   1   8
BRANCH   6   9
ATOM      9  O   UNL     1      -1.056  18.347  -3.199  0.00  0.00    +0.000 OA
ATOM     10  H   UNL     1      -1.391  19.262  -3.148  0.00  0.00    +0.000 HD
ENDBRANCH   6   9
TORSDOF 2
ENDMDL
MODEL 3
REMARK VINA RESULT:    -4.011      1.781      3.111
REMARK INTER + INTRA:          -4.415
REMARK INTER:                  -4.369
REMARK INTRA:                  -0.046
REMARK UNBOUND:                -0.053
REMARK  Name = 
REMARK  3 active torsions:
REMARK  status: ('A' for Active; 'I' for Inactive)
REMARK    1  A    between atoms: C_1  and  O_2
REMARK    2  A    between atoms: O_2  and  C_3
REMARK    3  A    between atoms: C_8  and  O_9
REMARK                            x       y       z     vdW  Elec       q    Type
REMARK                         _______ _______ _______ _____ _____    ______ ____
ROOT
ATOM      1  C   UNL     1       1.391  18.464  -2.385  0.00  0.00    +0.000 A 
ATOM      2  C   UNL     1       2.266  18.583  -1.306  0.00  0.00    +0.000 A 
ATOM      3  C   UNL     1       1.762  18.755  -0.011  0.00  0.00    +0.000 A 
ATOM      4  C   UNL     1       0.384  18.810   0.210  0.00  0.00    +0.000 A 
ATOM      5  C   UNL     1      -0.497  18.692  -0.863  0.00  0.00    +0.000 A 
ATOM      6  C   UNL     1       0.013  18.521  -2.143  0.00  0.00    +0.000 A 
ENDROOT
BRANCH   1   8
ATOM      7  C   UNL     1       2.282  19.428  -4.366  0.00  0.00    +0.000 C 
ATOM      8  O   UNL     1       1.743  18.292  -3.700  0.00  0.00    +0.000 OA
ENDBRANCH   1   8
BRANCH   6   9
ATOM      9  O   UNL     1      -0.873  18.407  -3.182  0.00  0.00    +0.000 OA
ATOM     10  H   UNL     1      -1.528  19.114  -3.028  0.00  0.00    +0.000 HD
ENDBRANCH   6   9
TORSDOF 2
ENDMDL
MODEL 4
REMARK VINA RESULT:    -3.963      1.376      2.587
REMARK INTER + INTRA:          -4.363
REMARK INTER:                  -4.325
REMARK INTRA:                  -0.038
REMARK UNBOUND:                -0.053
REMARK  Name = 
REMARK  3 active torsions:
REMARK  status: ('A' for Active; 'I' for Inactive)
REMARK    1  A    between atoms: C_1  and  O_2
REMARK    2  A    between atoms: O_2  and  C_3
REMARK    3  A    between atoms: C_8  and  O_9
REMARK                            x       y       z     vdW  Elec       q    Type
REMARK                         _______ _______ _______ _____ _____    ______ ____
ROOT
ATOM      1  C   UNL     1       1.572  18.688  -0.332  0.00  0.00    +0.000 A 
ATOM      2  C   UNL     1       0.890  18.931  -1.524  0.00  0.00    +0.000 A 
ATOM      3  C   UNL     1      -0.498  19.117  -1.510  0.00  0.00    +0.000 A 
ATOM      4  C   UNL     1      -1.208  19.061  -0.309  0.00  0.00    +0.000 A 
ATOM      5  C   UNL     1      -0.533  18.820   0.885  0.00  0.00    +0.000 A 
ATOM      6  C   UNL     1       0.843  18.636   0.863  0.00  0.00    +0.000 A 
ENDROOT
BRANCH   1   8
ATOM      7  C   UNL     1       3.731  18.830  -1.316  0.00  0.00    +0.000 C 
ATOM      8  O   UNL     1       2.923  18.488  -0.197  0.00  0.00    +0.000 OA
ENDBRANCH   1   8
BRANCH   6   9
ATOM      9  O   UNL     1       1.484  18.400   2.050  0.00  0.00    +0.000 OA
ATOM     10  H   UNL     1       1.980  17.572   1.904  0.00  0.00    +0.000 HD
ENDBRANCH   6   9
TORSDOF 2
ENDMDL
MODEL 5
REMARK VINA RESULT:    -3.943     14.843     15.950
REMARK INTER + INTRA:          -4.341
REMARK INTER:                  -4.304
REMARK INTRA:                  -0.038
REMARK UNBOUND:                -0.053
REMARK  Name = 
REMARK  3 active torsions:
REMARK  status: ('A' for Active; 'I' for Inactive)
REMARK    1  A    between atoms: C_1  and  O_2
REMARK    2  A    between atoms: O_2  and  C_3
REMARK    3  A    between atoms: C_8  and  O_9
REMARK                            x       y       z     vdW  Elec       q    Type
REMARK                         _______ _______ _______ _____ _____    ______ ____
ROOT
ATOM      1  C   UNL     1       0.689  12.191 -15.924  0.00  0.00    +0.000 A 
ATOM      2  C   UNL     1       1.567  12.430 -14.868  0.00  0.00    +0.000 A 
ATOM      3  C   UNL     1       1.263  11.957 -13.585  0.00  0.00    +0.000 A 
ATOM      4  C   UNL     1       0.084  11.247 -13.353  0.00  0.00    +0.000 A 
ATOM      5  C   UNL     1      -0.799  11.005 -14.403  0.00  0.00    +0.000 A 
ATOM      6  C   UNL     1      -0.490  11.477 -15.673  0.00  0.00    +0.000 A 
ENDROOT
BRANCH   1   8
ATOM      7  C   UNL     1       1.942  13.476 -17.482  0.00  0.00    +0.000 C 
ATOM      8  O   UNL     1       0.856  12.593 -17.225  0.00  0.00    +0.000 OA
ENDBRANCH   1   8
BRANCH   6   9
ATOM      9  O   UNL     1      -1.373  11.227 -16.689  0.00  0.00    +0.000 OA
ATOM     10  H   UNL     1      -0.825  11.220 -17.497  0.00  0.00    +0.000 HD
ENDBRANCH   6   9
TORSDOF 2
ENDMDL
MODEL 6
REMARK VINA RESULT:    -3.900      1.128      2.730
REMARK INTER + INTRA:          -4.295
REMARK INTER:                  -4.249
REMARK INTRA:                  -0.045
REMARK UNBOUND:                -0.053
REMARK  Name = 
REMARK  3 active torsions:
REMARK  status: ('A' for Active; 'I' for Inactive)
REMARK    1  A    between atoms: C_1  and  O_2
REMARK    2  A    between atoms: O_2  and  C_3
REMARK    3  A    between atoms: C_8  and  O_9
REMARK                            x       y       z     vdW  Elec       q    Type
REMARK                         _______ _______ _______ _____ _____    ______ ____
ROOT
ATOM      1  C   UNL     1       1.436  18.361  -1.524  0.00  0.00    +0.000 A 
ATOM      2  C   UNL     1       0.097  18.746  -1.538  0.00  0.00    +0.000 A 
ATOM      3  C   UNL     1      -0.535  19.124  -0.346  0.00  0.00    +0.000 A 
ATOM      4  C   UNL     1       0.168  19.117   0.860  0.00  0.00    +0.000 A 
ATOM      5  C   UNL     1       1.507  18.734   0.882  0.00  0.00    +0.000 A 
ATOM      6  C   UNL     1       2.125  18.361  -0.304  0.00  0.00    +0.000 A 
ENDROOT
BRANCH   1   8
ATOM      7  C   UNL     1       2.014  18.730  -3.799  0.00  0.00    +0.000 C 
ATOM      8  O   UNL     1       2.179  17.968  -2.609  0.00  0.00    +0.000 OA
ENDBRANCH   1   8
BRANCH   6   9
ATOM      9  O   UNL     1       3.442  17.988  -0.258  0.00  0.00    +0.000 OA
ATOM     10  H   UNL     1       3.513  17.247  -0.890  0.00  0.00    +0.000 HD
ENDBRANCH   6   9
TORSDOF 2
ENDMDL
MODEL 7
REMARK VINA RESULT:    -3.868      1.726      3.192
REMARK INTER + INTRA:          -4.260
REMARK INTER:                  -4.208
REMARK INTRA:                  -0.052
REMARK UNBOUND:                -0.053
REMARK  Name = 
REMARK  3 active torsions:
REMARK  status: ('A' for Active; 'I' for Inactive)
REMARK    1  A    between atoms: C_1  and  O_2
REMARK    2  A    between atoms: O_2  and  C_3
REMARK    3  A    between atoms: C_8  and  O_9
REMARK                            x       y       z     vdW  Elec       q    Type
REMARK                         _______ _______ _______ _____ _____    ______ ____
ROOT
ATOM      1  C   UNL     1       1.743  19.210  -0.977  0.00  0.00    +0.000 A 
ATOM      2  C   UNL     1       2.069  20.511  -0.598  0.00  0.00    +0.000 A 
ATOM      3  C   UNL     1       3.353  21.012  -0.849  0.00  0.00    +0.000 A 
ATOM      4  C   UNL     1       4.313  20.216  -1.476  0.00  0.00    +0.000 A 
ATOM      5  C   UNL     1       3.995  18.915  -1.858  0.00  0.00    +0.000 A 
ATOM      6  C   UNL     1       2.719  18.426  -1.605  0.00  0.00    +0.000 A 
ENDROOT
BRANCH   1   8
ATOM      7  C   UNL     1      -0.593  19.204  -1.413  0.00  0.00    +0.000 C 
ATOM      8  O   UNL     1       0.532  18.591  -0.795  0.00  0.00    +0.000 OA
ENDBRANCH   1   8
BRANCH   6   9
ATOM      9  O   UNL     1       2.430  17.144  -1.990  0.00  0.00    +0.000 OA
ATOM     10  H   UNL     1       3.155  16.897  -2.594  0.00  0.00    +0.000 HD
ENDBRANCH   6   9
TORSDOF 2
ENDMDL
MODEL 8
REMARK VINA RESULT:    -3.825      1.908      3.192
REMARK INTER + INTRA:          -4.213
REMARK INTER:                  -4.160
REMARK INTRA:                  -0.052
REMARK UNBOUND:                -0.053
REMARK  Name = 
REMARK  3 active torsions:
REMARK  status: ('A' for Active; 'I' for Inactive)
REMARK    1  A    between atoms: C_1  and  O_2
REMARK    2  A    between atoms: O_2  and  C_3
REMARK    3  A    between atoms: C_8  and  O_9
REMARK                            x       y       z     vdW  Elec       q    Type
REMARK                         _______ _______ _______ _____ _____    ______ ____
ROOT
ATOM      1  C   UNL     1       0.235  18.721  -1.995  0.00  0.00    +0.000 A 
ATOM      2  C   UNL     1       0.402  18.999  -0.639  0.00  0.00    +0.000 A 
ATOM      3  C   UNL     1       1.651  18.807  -0.035  0.00  0.00    +0.000 A 
ATOM      4  C   UNL     1       2.734  18.338  -0.782  0.00  0.00    +0.000 A 
ATOM      5  C   UNL     1       2.574  18.059  -2.137  0.00  0.00    +0.000 A 
ATOM      6  C   UNL     1       1.332  18.252  -2.727  0.00  0.00    +0.000 A 
ENDROOT
BRANCH   1   8
ATOM      7  C   UNL     1      -1.434  20.183  -2.848  0.00  0.00    +0.000 C 
ATOM      8  O   UNL     1      -0.926  18.861  -2.714  0.00  0.00    +0.000 OA
ENDBRANCH   1   8
BRANCH   6   9
ATOM      9  O   UNL     1       1.199  17.971  -4.061  0.00  0.00    +0.000 OA
ATOM     10  H   UNL     1       0.881  18.803  -4.460  0.00  0.00    +0.000 HD
ENDBRANCH   6   9
TORSDOF 2
ENDMDL
