MODEL 1
REMARK VINA RESULT:    -4.329      0.000      0.000
REMARK INTER + INTRA:          -4.747
REMARK INTER:                  -4.709
REMARK INTRA:                  -0.037
REMARK UNBOUND:                -0.037
REMARK  Name = 
REMARK  3 active torsions:
REMARK  status: ('A' for Active; 'I' for Inactive)
REMARK    1  A    between atoms: C_1  and  O_2
REMARK    2  A    between atoms: O_2  and  C_3
REMARK    3  A    between atoms: C_8  and  O_9
REMARK                            x       y       z     vdW  Elec       q    Type
REMARK                         _______ _______ _______ _____ _____    ______ ____
ROOT
ATOM      1  C   UNL     1      -0.295  11.675 -15.350  0.00  0.00    +0.000 A 
ATOM      2  C   UNL     1       0.844  12.346 -15.792  0.00  0.00    +0.000 A 
ATOM      3  C   UNL     1       1.928  12.531 -14.924  0.00  0.00    +0.000 A 
ATOM      4  C   UNL     1       1.876  12.049 -13.615  0.00  0.00    +0.000 A 
ATOM      5  C   UNL     1       0.741  11.377 -13.166  0.00  0.00    +0.000 A 
ATOM      6  C   UNL     1      -0.329  11.199 -14.034  0.00  0.00    +0.000 A 
ENDROOT
BRANCH   1   8
ATOM      7  C   UNL     1      -1.407  11.852 -17.443  0.00  0.00    +0.000 C 
ATOM      8  O   UNL     1      -1.425  11.424 -16.087  0.00  0.00    +0.000 OA
ENDBRANCH   1   8
BRANCH   6   9
ATOM      9  O   UNL     1      -1.433  10.536 -13.570  0.00  0.00    +0.000 OA
ATOM     10  H   UNL     1      -1.904  11.191 -13.020  0.00  0.00    +0.000 HD
ENDBRANCH   6   9
TORSDOF 2
ENDMDL
MODEL 2
REMARK VINA RESULT:    -4.162     14.265     15.710
REMARK INTER + INTRA:          -4.564
REMARK INTER:                  -4.512
REMARK INTRA:                  -0.052
REMARK UNBOUND:                -0.037
REMARK  Name = 
REMARK  3 active torsions:
REMARK  status: ('A' for Active; 'I' for Inactive)
REMARK    1  A    between atoms: C_1  and  O_2
REMARK    2  A    between atoms: O_2  and  C_3
REMARK    3  A    between atoms: C_8  and  O_9
REMARK                            x       y       z     vdW  Elec       q    Type
REMARK                         _______ _______ _______ _____ _____    ______ ____
ROOT
ATOM      1  C   UNL     1       1.673  18.493  -0.730  0.00  0.00    +0.000 A 
ATOM      2  C   UNL     1       0.459  19.046  -0.325  0.00  0.00    +0.000 A 
ATOM      3  C   UNL     1      -0.606  19.133  -1.230  0.00  0.00    +0.000 A 
ATOM      4  C   UNL     1      -0.463  18.669  -2.539  0.00  0.00    +0.000 A 
ATOM      5  C   UNL     1       0.746  18.115  -2.951  0.00  0.00    +0.000 A 
ATOM      6  C   UNL     1       1.798  18.033  -2.047  0.00  0.00    +0.000 A 
ENDROOT
BRANCH   1   8
ATOM      7  C   UNL     1       3.467  19.542   0.422  0.00  0.00    +0.000 C 
ATOM      8  O   UNL     1       2.796  18.346   0.044  0.00  0.00    +0.000 OA
ENDBRANCH   1   8
BRANCH   6   9
ATOM      9  O   UNL     1       2.977  17.484  -2.475  0.00  0.00    +0.000 OA
ATOM     10  H   UNL     1       3.062  16.653  -1.971  0.00  0.00    +0.000 HD
ENDBRANCH   6   9
TORSDOF 2
ENDMDL
MODEL 3
REMARK VINA RESULT:    -4.103     13.957     15.276
REMARK INTER + INTRA:          -4.500
REMARK INTER:                  -4.459
REMARK INTRA:                  -0.041
REMARK UNBOUND:                -0.037
REMARK  Name = 
REMARK  3 active torsions:
REMARK  status: ('A' for Active; 'I' for Inactive)
REMARK    1  A    between atoms: C_1  and  O_2
REMARK    2  A    between atoms: O_2  and  C_3
REMARK    3  A    between atoms: C_8  and  O_9
REMARK                            x       y       z     vdW  Elec       q    Type
REMARK                         _______ _______ _______ _____ _____    ______ ____
ROOT
ATOM      1  C   UNL     1       0.057  18.733  -1.099  0.00  0.00    +0.000 A 
ATOM      2  C   UNL     1       1.247  18.729  -0.373  0.00  0.00    +0.000 A 
ATOM      3  C   UNL     1       2.445  18.358  -0.995  0.00  0.00    +0.000 A 
ATOM      4  C   UNL     1       2.459  17.990  -2.342  0.00  0.00    +0.000 A 
ATOM      5  C   UNL     1       1.274  17.992  -3.074  0.00  0.00    +0.000 A 
ATOM      6  C   UNL     1       0.090  18.361  -2.449  0.00  0.00    +0.000 A 
ENDROOT
BRANCH   1   8
ATOM      7  C   UNL     1      -1.434  18.790   0.750  0.00  0.00    +0.000 C 
ATOM      8  O   UNL     1      -1.184  19.072  -0.621  0.00  0.00    +0.000 OA
ENDBRANCH   1   8
BRANCH   6   9
ATOM      9  O   UNL     1      -1.061  18.355  -3.189  0.00  0.00    +0.000 OA
ATOM     10  H   UNL     1      -1.097  19.240  -3.600  0.00  0.00    +0.000 HD
ENDBRANCH   6   9
TORSDOF 2
ENDMDL
MODEL 4
REMARK VINA RESULT:    -4.016     13.741     14.911
REMARK INTER + INTRA:          -4.406
REMARK INTER:                  -4.355
REMARK INTRA:                  -0.051
REMARK UNBOUND:                -0.037
REMARK  Name = 
REMARK  3 active torsions:
REMARK  status: ('A' for Active; 'I' for Inactive)
REMARK    1  A    between atoms: C_1  and  O_2
REMARK    2  A    between atoms: O_2  and  C_3
REMARK    3  A    between atoms: C_8  and  O_9
REMARK                            x       y       z     vdW  Elec       q    Type
REMARK                         _______ _______ _______ _____ _____    ______ ____
ROOT
ATOM      1  C   UNL     1       0.111  18.936  -1.987  0.00  0.00    +0.000 A 
ATOM      2  C   UNL     1       0.384  19.413  -0.706  0.00  0.00    +0.000 A 
ATOM      3  C   UNL     1       1.611  19.121  -0.098  0.00  0.00    +0.000 A 
ATOM      4  C   UNL     1       2.567  18.354  -0.765  0.00  0.00    +0.000 A 
ATOM      5  C   UNL     1       2.302  17.874  -2.046  0.00  0.00    +0.000 A 
ATOM      6  C   UNL     1       1.082  18.167  -2.641  0.00  0.00    +0.000 A 
ENDROOT
BRANCH   1   8
ATOM      7  C   UNL     1      -1.425  20.495  -2.911  0.00  0.00    +0.000 C 
ATOM      8  O   UNL     1      -1.042  19.141  -2.701  0.00  0.00    +0.000 OA
ENDBRANCH   1   8
BRANCH   6   9
ATOM      9  O   UNL     1       0.845  17.684  -3.900  0.00  0.00    +0.000 OA
ATOM     10  H   UNL     1       1.623  17.132  -4.106  0.00  0.00    +0.000 HD
ENDBRANCH   6   9
TORSDOF 2
ENDMDL
MODEL 5
REMARK VINA RESULT:    -3.966      1.354      2.312
REMARK INTER + INTRA:          -4.352
REMARK INTER:                  -4.314
REMARK INTRA:                  -0.038
REMARK UNBOUND:                -0.037
REMARK  Name = 
REMARK  3 active torsions:
REMARK  status: ('A' for Active; 'I' for Inactive)
REMARK    1  A    between atoms: C_1  and  O_2
REMARK    2  A    between atoms: O_2  and  C_3
REMARK    3  A    between atoms: C_8  and  O_9
REMARK                            x       y       z     vdW  Elec       q    Type
REMARK                         _______ _______ _______ _____ _____    ______ ____
ROOT
ATOM      1  C   UNL     1       0.682  12.150 -15.932  0.00  0.00    +0.000 A 
ATOM      2  C   UNL     1       1.567  12.372 -14.878  0.00  0.00    +0.000 A 
ATOM      3  C   UNL     1       1.253  11.913 -13.592  0.00  0.00    +0.000 A 
ATOM      4  C   UNL     1       0.056  11.233 -13.356  0.00  0.00    +0.000 A 
ATOM      5  C   UNL     1      -0.833  11.007 -14.405  0.00  0.00    +0.000 A 
ATOM      6  C   UNL     1      -0.513  11.466 -15.676  0.00  0.00    +0.000 A 
ENDROOT
BRANCH   1   8
ATOM      7  C   UNL     1       1.906  13.472 -17.482  0.00  0.00    +0.000 C 
ATOM      8  O   UNL     1       0.858  12.542 -17.235  0.00  0.00    +0.000 OA
ENDBRANCH   1   8
BRANCH   6   9
ATOM      9  O   UNL     1      -1.402  11.232 -16.691  0.00  0.00    +0.000 OA
ATOM     10  H   UNL     1      -0.858  10.888 -17.424  0.00  0.00    +0.000 HD
ENDBRANCH   6   9
TORSDOF 2
ENDMDL
MODEL 6
REMARK VINA RESULT:    -3.938     14.423     15.859
REMARK INTER + INTRA:          -4.320
REMARK INTER:                  -4.269
REMARK INTRA:                  -0.051
REMARK UNBOUND:                -0.037
REMARK  Name = 
REMARK  3 active torsions:
REMARK  status: ('A' for Active; 'I' for Inactive)
REMARK    1  A    between atoms: C_1  and  O_2
REMARK    2  A    between atoms: O_2  and  C_3
REMARK    3  A    between atoms: C_8  and  O_9
REMARK                            x       y       z     vdW  Elec       q    Type
REMARK                         _______ _______ _______ _____ _____    ______ ____
ROOT
ATOM      1  C   UNL     1       2.996  19.186  -1.222  0.00  0.00    +0.000 A 
ATOM      2  C   UNL     1       1.954  18.264  -1.131  0.00  0.00    +0.000 A 
ATOM      3  C   UNL     1       1.204  17.942  -2.269  0.00  0.00    +0.000 A 
ATOM      4  C   UNL     1       1.489  18.540  -3.498  0.00  0.00    +0.000 A 
ATOM      5  C   UNL     1       2.529  19.462  -3.596  0.00  0.00    +0.000 A 
ATOM      6  C   UNL     1       3.268  19.775  -2.463  0.00  0.00    +0.000 A 
ENDROOT
BRANCH   1   8
ATOM      7  C   UNL     1       3.211  20.416   0.800  0.00  0.00    +0.000 C 
ATOM      8  O   UNL     1       3.810  19.594  -0.195  0.00  0.00    +0.000 OA
ENDBRANCH   1   8
BRANCH   6   9
ATOM      9  O   UNL     1       4.285  20.685  -2.585  0.00  0.00    +0.000 OA
ATOM     10  H   UNL     1       4.157  21.301  -1.838  0.00  0.00    +0.000 HD
ENDBRANCH   6   9
TORSDOF 2
ENDMDL
MODEL 7
REMARK VINA RESULT:    -3.930     14.428     15.542
REMARK INTER + INTRA:          -4.312
REMARK INTER:                  -4.299
REMARK INTRA:                  -0.013
REMARK UNBOUND:                -0.037
REMARK  Name = 
REMARK  3 active torsions:
REMARK  status: ('A' for Active; 'I' for Inactive)
REMARK    1  A    between atoms: C_1  and  O_2
REMARK    2  A    between atoms: O_2  and  C_3
REMARK    3  A    between atoms: C_8  and  O_9
REMARK                            x       y       z     vdW  Elec       q    Type
REMARK                         _______ _______ _______ _____ _____    ______ ____
ROOT
ATOM      1  C   UNL     1       3.492  19.450  -2.015  0.00  0.00    +0.000 A 
ATOM      2  C   UNL     1       2.844  19.984  -3.128  0.00  0.00    +0.000 A 
ATOM      3  C   UNL     1       1.673  19.386  -3.609  0.00  0.00    +0.000 A 
ATOM      4  C   UNL     1       1.147  18.255  -2.982  0.00  0.00    +0.000 A 
ATOM      5  C   UNL     1       1.788  17.716  -1.869  0.00  0.00    +0.000 A 
ATOM      6  C   UNL     1       2.950  18.316  -1.399  0.00  0.00    +0.000 A 
ENDROOT
BRANCH   1   8
ATOM      7  C   UNL     1       4.494  21.027  -0.546  0.00  0.00    +0.000 C 
ATOM      8  O   UNL     1       4.641  19.929  -1.438  0.00  0.00    +0.000 OA
ENDBRANCH   1   8
BRANCH   6   9
ATOM      9  O   UNL     1       3.562  17.768  -0.304  0.00  0.00    +0.000 OA
ATOM     10  H   UNL     1       2.931  17.905   0.428  0.00  0.00    +0.000 HD
ENDBRANCH   6   9
TORSDOF 2
ENDMDL
MODEL 8
REMARK VINA RESULT:    -3.925     15.625     16.377
REMARK INTER + INTRA:          -4.307
REMARK INTER:                  -4.269
REMARK INTRA:                  -0.038
REMARK UNBOUND:                -0.037
REMARK  Name = 
REMARK  3 active torsions:
REMARK  status: ('A' for Active; 'I' for Inactive)
REMARK    1  A    between atoms: C_1  and  O_2
REMARK    2  A    between atoms: O_2  and  C_3
REMARK    3  A    between atoms: C_8  and  O_9
REMARK                            x       y       z     vdW  Elec       q    Type
REMARK                         _______ _______ _______ _____ _____    ______ ____
ROOT
ATOM      1  C   UNL     1       1.640  18.952  -0.246  0.00  0.00    +0.000 A 
ATOM      2  C   UNL     1       1.103  19.654  -1.324  0.00  0.00    +0.000 A 
ATOM      3  C   UNL     1       1.907  19.961  -2.430  0.00  0.00    +0.000 A 
ATOM      4  C   UNL     1       3.246  19.569  -2.462  0.00  0.00    +0.000 A 
ATOM      5  C   UNL     1       3.790  18.867  -1.389  0.00  0.00    +0.000 A 
ATOM      6  C   UNL     1       2.986  18.567  -0.296  0.00  0.00    +0.000 A 
ENDROOT
BRANCH   1   8
ATOM      7  C   UNL     1      -0.437  18.761   0.892  0.00  0.00    +0.000 C 
ATOM      8  O   UNL     1       0.975  18.586   0.896  0.00  0.00    +0.000 OA
ENDBRANCH   1   8
BRANCH   6   9
ATOM      9  O   UNL     1       3.543  17.876   0.747  0.00  0.00    +0.000 OA
ATOM     10  H   UNL     1       4.157  17.244   0.326  0.00  0.00    +0.000 HD
ENDBRANCH   6   9
TORSDOF 2
ENDMDL
MODEL 9
REMARK VINA RESULT:    -3.917     14.515     15.731
REMARK INTER + INTRA:          -4.297
REMARK INTER:                  -4.247
REMARK INTRA:                  -0.051
REMARK UNBOUND:                -0.037
REMARK  Name = 
REMARK  3 active torsions:
REMARK  status: ('A' for Active; 'I' for Inactive)
REMARK    1  A    between atoms: C_1  and  O_2
REMARK    2  A    between atoms: O_2  and  C_3
REMARK    3  A    between atoms: C_8  and  O_9
REMARK                            x       y       z     vdW  Elec       q    Type
REMARK                         _______ _______ _______ _____ _____    ______ ____
ROOT
ATOM      1  C   UNL     1       1.341  18.371  -1.615  0.00  0.00    +0.000 A 
ATOM      2  C   UNL     1       0.013  18.791  -1.548  0.00  0.00    +0.000 A 
ATOM      3  C   UNL     1      -0.536  19.184  -0.321  0.00  0.00    +0.000 A 
ATOM      4  C   UNL     1       0.238  19.159   0.841  0.00  0.00    +0.000 A 
ATOM      5  C   UNL     1       1.565  18.741   0.782  0.00  0.00    +0.000 A 
ATOM      6  C   UNL     1       2.101  18.353  -0.439  0.00  0.00    +0.000 A 
ENDROOT
BRANCH   1   8
ATOM      7  C   UNL     1       2.031  18.873  -3.833  0.00  0.00    +0.000 C 
ATOM      8  O   UNL     1       2.006  17.960  -2.742  0.00  0.00    +0.000 OA
ENDBRANCH   1   8
BRANCH   6   9
ATOM      9  O   UNL     1       3.409  17.947  -0.471  0.00  0.00    +0.000 OA
ATOM     10  H   UNL     1       3.677  18.046  -1.405  0.00  0.00    +0.000 HD
ENDBRANCH   6   9
TORSDOF 2
ENDMDL
