MODEL 1
REMARK VINA RESULT:    -4.324      0.000      0.000
REMARK INTER + INTRA:          -4.741
REMARK INTER:                  -4.703
REMARK INTRA:                  -0.037
REMARK UNBOUND:                -0.037
REMARK  Name = 
REMARK  3 active torsions:
REMARK  status: ('A' for Active; 'I' for Inactive)
REMARK    1  A    between atoms: C_1  and  O_2
REMARK    2  A    between atoms: O_2  and  C_3
REMARK    3  A    between atoms: C_8  and  O_9
REMARK                            x       y       z     vdW  Elec       q    Type
REMARK                         _______ _______ _______ _____ _____    ______ ____
ROOT
ATOM      1  C   UNL     1      -0.303  11.615 -15.373  0.00  0.00    +0.000 A 
ATOM      2  C   UNL     1       0.828  12.287 -15.836  0.00  0.00    +0.000 A 
ATOM      3  C   UNL     1       1.903  12.527 -14.971  0.00  0.00    +0.000 A 
ATOM      4  C   UNL     1       1.852  12.099 -13.643  0.00  0.00    +0.000 A 
ATOM      5  C   UNL     1       0.726  11.427 -13.173  0.00  0.00    +0.000 A 
ATOM      6  C   UNL     1      -0.335  11.193 -14.038  0.00  0.00    +0.000 A 
ENDROOT
BRANCH   1   8
ATOM      7  C   UNL     1      -1.426  11.732 -17.463  0.00  0.00    +0.000 C 
ATOM      8  O   UNL     1      -1.424  11.313 -16.104  0.00  0.00    +0.000 OA
ENDBRANCH   1   8
BRANCH   6   9
ATOM      9  O   UNL     1      -1.431  10.531 -13.552  0.00  0.00    +0.000 OA
ATOM     10  H   UNL     1      -1.327   9.613 -13.869  0.00  0.00    +0.000 HD
ENDBRANCH   6   9
TORSDOF 2
ENDMDL
MODEL 2
REMARK VINA RESULT:    -4.153     14.293     15.785
REMARK INTER + INTRA:          -4.555
REMARK INTER:                  -4.503
REMARK INTRA:                  -0.052
REMARK UNBOUND:                -0.037
REMARK  Name = 
REMARK  3 active torsions:
REMARK  status: ('A' for Active; 'I' for Inactive)
REMARK    1  A    between atoms: C_1  and  O_2
REMARK    2  A    between atoms: O_2  and  C_3
REMARK    3  A    between atoms: C_8  and  O_9
REMARK                            x       y       z     vdW  Elec       q    Type
REMARK                         _______ _______ _______ _____ _____    ______ ____
ROOT
ATOM      1  C   UNL     1       1.680  18.508  -0.679  0.00  0.00    +0.000 A 
ATOM      2  C   UNL     1       0.446  19.037  -0.302  0.00  0.00    +0.000 A 
ATOM      3  C   UNL     1      -0.602  19.098  -1.229  0.00  0.00    +0.000 A 
ATOM      4  C   UNL     1      -0.422  18.633  -2.533  0.00  0.00    +0.000 A 
ATOM      5  C   UNL     1       0.808  18.102  -2.917  0.00  0.00    +0.000 A 
ATOM      6  C   UNL     1       1.842  18.046  -1.991  0.00  0.00    +0.000 A 
ENDROOT
BRANCH   1   8
ATOM      7  C   UNL     1       3.440  19.598   0.487  0.00  0.00    +0.000 C 
ATOM      8  O   UNL     1       2.789  18.388   0.119  0.00  0.00    +0.000 OA
ENDBRANCH   1   8
BRANCH   6   9
ATOM      9  O   UNL     1       3.041  17.521  -2.392  0.00  0.00    +0.000 OA
ATOM     10  H   UNL     1       3.370  17.031  -1.615  0.00  0.00    +0.000 HD
ENDBRANCH   6   9
TORSDOF 2
ENDMDL
MODEL 3
REMARK VINA RESULT:    -4.094     13.938     15.304
REMARK INTER + INTRA:          -4.490
REMARK INTER:                  -4.448
REMARK INTRA:                  -0.042
REMARK UNBOUND:                -0.037
REMARK  Name = 
REMARK  3 active torsions:
REMARK  status: ('A' for Active; 'I' for Inactive)
REMARK    1  A    between atoms: C_1  and  O_2
REMARK    2  A    between atoms: O_2  and  C_3
REMARK    3  A    between atoms: C_8  and  O_9
REMARK                            x       y       z     vdW  Elec       q    Type
REMARK                         _______ _______ _______ _____ _____    ______ ____
ROOT
ATOM      1  C   UNL     1       0.067  18.734  -1.101  0.00  0.00    +0.000 A 
ATOM      2  C   UNL     1       1.258  18.730  -0.377  0.00  0.00    +0.000 A 
ATOM      3  C   UNL     1       2.455  18.357  -1.001  0.00  0.00    +0.000 A 
ATOM      4  C   UNL     1       2.466  17.986  -2.346  0.00  0.00    +0.000 A 
ATOM      5  C   UNL     1       1.280  17.988  -3.077  0.00  0.00    +0.000 A 
ATOM      6  C   UNL     1       0.098  18.359  -2.450  0.00  0.00    +0.000 A 
ENDROOT
BRANCH   1   8
ATOM      7  C   UNL     1      -1.434  18.762   0.741  0.00  0.00    +0.000 C 
ATOM      8  O   UNL     1      -1.173  19.074  -0.622  0.00  0.00    +0.000 OA
ENDBRANCH   1   8
BRANCH   6   9
ATOM      9  O   UNL     1      -1.055  18.353  -3.189  0.00  0.00    +0.000 OA
ATOM     10  H   UNL     1      -1.066  17.479  -3.624  0.00  0.00    +0.000 HD
ENDBRANCH   6   9
TORSDOF 2
ENDMDL
MODEL 4
REMARK VINA RESULT:    -4.026     13.660     14.914
REMARK INTER + INTRA:          -4.417
REMARK INTER:                  -4.365
REMARK INTRA:                  -0.052
REMARK UNBOUND:                -0.037
REMARK  Name = 
REMARK  3 active torsions:
REMARK  status: ('A' for Active; 'I' for Inactive)
REMARK    1  A    between atoms: C_1  and  O_2
REMARK    2  A    between atoms: O_2  and  C_3
REMARK    3  A    between atoms: C_8  and  O_9
REMARK                            x       y       z     vdW  Elec       q    Type
REMARK                         _______ _______ _______ _____ _____    ______ ____
ROOT
ATOM      1  C   UNL     1       1.297  18.488  -2.397  0.00  0.00    +0.000 A 
ATOM      2  C   UNL     1       2.182  18.592  -1.325  0.00  0.00    +0.000 A 
ATOM      3  C   UNL     1       1.690  18.764  -0.025  0.00  0.00    +0.000 A 
ATOM      4  C   UNL     1       0.315  18.835   0.208  0.00  0.00    +0.000 A 
ATOM      5  C   UNL     1      -0.576  18.732  -0.858  0.00  0.00    +0.000 A 
ATOM      6  C   UNL     1      -0.078  18.561  -2.144  0.00  0.00    +0.000 A 
ENDROOT
BRANCH   1   8
ATOM      7  C   UNL     1       2.258  19.425  -4.358  0.00  0.00    +0.000 C 
ATOM      8  O   UNL     1       1.636  18.319  -3.716  0.00  0.00    +0.000 OA
ENDBRANCH   1   8
BRANCH   6   9
ATOM      9  O   UNL     1      -0.974  18.463  -3.176  0.00  0.00    +0.000 OA
ATOM     10  H   UNL     1      -0.613  19.041  -3.874  0.00  0.00    +0.000 HD
ENDBRANCH   6   9
TORSDOF 2
ENDMDL
MODEL 5
REMARK VINA RESULT:    -3.968      1.349      2.332
REMARK INTER + INTRA:          -4.353
REMARK INTER:                  -4.316
REMARK INTRA:                  -0.038
REMARK UNBOUND:                -0.037
REMARK  Name = 
REMARK  3 active torsions:
REMARK  status: ('A' for Active; 'I' for Inactive)
REMARK    1  A    between atoms: C_1  and  O_2
REMARK    2  A    between atoms: O_2  and  C_3
REMARK    3  A    between atoms: C_8  and  O_9
REMARK                            x       y       z     vdW  Elec       q    Type
REMARK                         _______ _______ _______ _____ _____    ______ ____
ROOT
ATOM      1  C   UNL     1       0.678  12.157 -15.924  0.00  0.00    +0.000 A 
ATOM      2  C   UNL     1       1.565  12.383 -14.872  0.00  0.00    +0.000 A 
ATOM      3  C   UNL     1       1.256  11.922 -13.586  0.00  0.00    +0.000 A 
ATOM      4  C   UNL     1       0.064  11.236 -13.347  0.00  0.00    +0.000 A 
ATOM      5  C   UNL     1      -0.826  11.005 -14.393  0.00  0.00    +0.000 A 
ATOM      6  C   UNL     1      -0.512  11.466 -15.665  0.00  0.00    +0.000 A 
ENDROOT
BRANCH   1   8
ATOM      7  C   UNL     1       1.911  13.462 -17.481  0.00  0.00    +0.000 C 
ATOM      8  O   UNL     1       0.849  12.550 -17.227  0.00  0.00    +0.000 OA
ENDBRANCH   1   8
BRANCH   6   9
ATOM      9  O   UNL     1      -1.403  11.227 -16.677  0.00  0.00    +0.000 OA
ATOM     10  H   UNL     1      -1.781  10.350 -16.474  0.00  0.00    +0.000 HD
ENDBRANCH   6   9
TORSDOF 2
ENDMDL
MODEL 6
REMARK VINA RESULT:    -3.916     14.553     15.815
REMARK INTER + INTRA:          -4.297
REMARK INTER:                  -4.251
REMARK INTRA:                  -0.045
REMARK UNBOUND:                -0.037
REMARK  Name = 
REMARK  3 active torsions:
REMARK  status: ('A' for Active; 'I' for Inactive)
REMARK    1  A    between atoms: C_1  and  O_2
REMARK    2  A    between atoms: O_2  and  C_3
REMARK    3  A    between atoms: C_8  and  O_9
REMARK                            x       y       z     vdW  Elec       q    Type
REMARK                         _______ _______ _______ _____ _____    ______ ____
ROOT
ATOM      1  C   UNL     1       1.451  18.390  -1.548  0.00  0.00    +0.000 A 
ATOM      2  C   UNL     1       0.119  18.801  -1.539  0.00  0.00    +0.000 A 
ATOM      3  C   UNL     1      -0.489  19.176  -0.335  0.00  0.00    +0.000 A 
ATOM      4  C   UNL     1       0.230  19.142   0.862  0.00  0.00    +0.000 A 
ATOM      5  C   UNL     1       1.561  18.734   0.861  0.00  0.00    +0.000 A 
ATOM      6  C   UNL     1       2.156  18.363  -0.339  0.00  0.00    +0.000 A 
ENDROOT
BRANCH   1   8
ATOM      7  C   UNL     1       2.005  18.775  -3.827  0.00  0.00    +0.000 C 
ATOM      8  O   UNL     1       2.171  17.996  -2.648  0.00  0.00    +0.000 OA
ENDBRANCH   1   8
BRANCH   6   9
ATOM      9  O   UNL     1       3.466  17.964  -0.315  0.00  0.00    +0.000 OA
ATOM     10  H   UNL     1       3.978  18.788  -0.425  0.00  0.00    +0.000 HD
ENDBRANCH   6   9
TORSDOF 2
ENDMDL
MODEL 7
REMARK VINA RESULT:    -3.893     15.485     16.335
REMARK INTER + INTRA:          -4.272
REMARK INTER:                  -4.235
REMARK INTRA:                  -0.038
REMARK UNBOUND:                -0.037
REMARK  Name = 
REMARK  3 active torsions:
REMARK  status: ('A' for Active; 'I' for Inactive)
REMARK    1  A    between atoms: C_1  and  O_2
REMARK    2  A    between atoms: O_2  and  C_3
REMARK    3  A    between atoms: C_8  and  O_9
REMARK                            x       y       z     vdW  Elec       q    Type
REMARK                         _______ _______ _______ _____ _____    ______ ____
ROOT
ATOM      1  C   UNL     1       1.564  18.869  -0.270  0.00  0.00    +0.000 A 
ATOM      2  C   UNL     1       0.996  19.447  -1.405  0.00  0.00    +0.000 A 
ATOM      3  C   UNL     1       1.783  19.677  -2.541  0.00  0.00    +0.000 A 
ATOM      4  C   UNL     1       3.135  19.332  -2.547  0.00  0.00    +0.000 A 
ATOM      5  C   UNL     1       3.710  18.753  -1.417  0.00  0.00    +0.000 A 
ATOM      6  C   UNL     1       2.922  18.529  -0.295  0.00  0.00    +0.000 A 
ENDROOT
BRANCH   1   8
ATOM      7  C   UNL     1      -0.497  18.741   0.906  0.00  0.00    +0.000 C 
ATOM      8  O   UNL     1       0.918  18.588   0.907  0.00  0.00    +0.000 OA
ENDBRANCH   1   8
BRANCH   6   9
ATOM      9  O   UNL     1       3.509  17.960   0.803  0.00  0.00    +0.000 OA
ATOM     10  H   UNL     1       3.273  18.549   1.545  0.00  0.00    +0.000 HD
ENDBRANCH   6   9
TORSDOF 2
ENDMDL
MODEL 8
REMARK VINA RESULT:    -3.723     14.602     15.801
REMARK INTER + INTRA:          -4.087
REMARK INTER:                  -4.034
REMARK INTRA:                  -0.052
REMARK UNBOUND:                -0.037
REMARK  Name = 
REMARK  3 active torsions:
REMARK  status: ('A' for Active; 'I' for Inactive)
REMARK    1  A    between atoms: C_1  and  O_2
REMARK    2  A    between atoms: O_2  and  C_3
REMARK    3  A    between atoms: C_8  and  O_9
REMARK                            x       y       z     vdW  Elec       q    Type
REMARK                         _______ _______ _______ _____ _____    ______ ____
ROOT
ATOM      1  C   UNL     1       1.617  19.359  -1.707  0.00  0.00    +0.000 A 
ATOM      2  C   UNL     1       1.667  20.563  -1.004  0.00  0.00    +0.000 A 
ATOM      3  C   UNL     1       2.557  20.711   0.067  0.00  0.00    +0.000 A 
ATOM      4  C   UNL     1       3.397  19.660   0.440  0.00  0.00    +0.000 A 
ATOM      5  C   UNL     1       3.354  18.455  -0.257  0.00  0.00    +0.000 A 
ATOM      6  C   UNL     1       2.468  18.317  -1.318  0.00  0.00    +0.000 A 
ENDROOT
BRANCH   1   8
ATOM      7  C   UNL     1      -0.592  18.972  -2.491  0.00  0.00    +0.000 C 
ATOM      8  O   UNL     1       0.799  19.075  -2.770  0.00  0.00    +0.000 OA
ENDBRANCH   1   8
BRANCH   6   9
ATOM      9  O   UNL     1       2.443  17.123  -1.989  0.00  0.00    +0.000 OA
ATOM     10  H   UNL     1       1.499  16.877  -2.023  0.00  0.00    +0.000 HD
ENDBRANCH   6   9
TORSDOF 2
ENDMDL
MODEL 9
REMARK VINA RESULT:    -3.708     15.197     16.438
REMARK INTER + INTRA:          -4.071
REMARK INTER:                  -4.025
REMARK INTRA:                  -0.046
REMARK UNBOUND:                -0.037
REMARK  Name = 
REMARK  3 active torsions:
REMARK  status: ('A' for Active; 'I' for Inactive)
REMARK    1  A    between atoms: C_1  and  O_2
REMARK    2  A    between atoms: O_2  and  C_3
REMARK    3  A    between atoms: C_8  and  O_9
REMARK                            x       y       z     vdW  Elec       q    Type
REMARK                         _______ _______ _______ _____ _____    ______ ____
ROOT
ATOM      1  C   UNL     1       2.752  18.807  -1.033  0.00  0.00    +0.000 A 
ATOM      2  C   UNL     1       3.578  19.512  -1.909  0.00  0.00    +0.000 A 
ATOM      3  C   UNL     1       4.397  20.539  -1.424  0.00  0.00    +0.000 A 
ATOM      4  C   UNL     1       4.394  20.866  -0.067  0.00  0.00    +0.000 A 
ATOM      5  C   UNL     1       3.572  20.167   0.814  0.00  0.00    +0.000 A 
ATOM      6  C   UNL     1       2.763  19.149   0.325  0.00  0.00    +0.000 A 
ENDROOT
BRANCH   1   8
ATOM      7  C   UNL     1       1.120  17.965  -2.541  0.00  0.00    +0.000 C 
ATOM      8  O   UNL     1       1.902  17.784  -1.367  0.00  0.00    +0.000 OA
ENDBRANCH   1   8
BRANCH   6   9
ATOM      9  O   UNL     1       1.964  18.476   1.210  0.00  0.00    +0.000 OA
ATOM     10  H   UNL     1       1.170  19.037   1.305  0.00  0.00    +0.000 HD
ENDBRANCH   6   9
TORSDOF 2
ENDMDL
