MODEL 1
REMARK VINA RESULT:    -3.906      0.000      0.000
REMARK INTER + INTRA:          -4.263
REMARK INTER:                  -4.248
REMARK INTRA:                  -0.015
REMARK UNBOUND:                -0.015
REMARK  Name = 
REMARK  3 active torsions:
REMARK  status: ('A' for Active; 'I' for Inactive)
REMARK    1  A    between atoms: C_1  and  O_2
REMARK    2  A    between atoms: O_2  and  C_3
REMARK    3  A    between atoms: C_8  and  O_9
REMARK                            x       y       z     vdW  Elec       q    Type
REMARK                         _______ _______ _______ _____ _____    ______ ____
ROOT
ATOM      1  C   UNL     1       9.222  -7.359   2.389  0.00  0.00    +0.000 A 
ATOM      2  C   UNL     1      10.559  -7.607   2.082  0.00  0.00    +0.000 A 
ATOM      3  C   UNL     1      11.510  -7.680   3.107  0.00  0.00    +0.000 A 
ATOM      4  C   UNL     1      11.130  -7.505   4.439  0.00  0.00    +0.000 A 
ATOM      5  C   UNL     1       9.796  -7.258   4.754  0.00  0.00    +0.000 A 
ATOM      6  C   UNL     1       8.860  -7.187   3.730  0.00  0.00    +0.000 A 
ENDROOT
BRANCH   1   8
ATOM      7  C   UNL     1       7.630  -8.485   1.030  0.00  0.00    +0.000 C 
ATOM      8  O   UNL     1       8.189  -7.261   1.492  0.00  0.00    +0.000 OA
ENDBRANCH   1   8
BRANCH   6   9
ATOM      9  O   UNL     1       7.554  -6.942   4.064  0.00  0.00    +0.000 OA
ATOM     10  H   UNL     1       7.136  -6.646   3.233  0.00  0.00    +0.000 HD
ENDBRANCH   6   9
TORSDOF 2
ENDMDL
MODEL 2
REMARK VINA RESULT:    -3.881      1.955      2.881
REMARK INTER + INTRA:          -4.236
REMARK INTER:                  -4.184
REMARK INTRA:                  -0.052
REMARK UNBOUND:                -0.015
REMARK  Name = 
REMARK  3 active torsions:
REMARK  status: ('A' for Active; 'I' for Inactive)
REMARK    1  A    between atoms: C_1  and  O_2
REMARK    2  A    between atoms: O_2  and  C_3
REMARK    3  A    between atoms: C_8  and  O_9
REMARK                            x       y       z     vdW  Elec       q    Type
REMARK                         _______ _______ _______ _____ _____    ______ ____
ROOT
ATOM      1  C   UNL     1      10.443  -7.703   3.498  0.00  0.00    +0.000 A 
ATOM      2  C   UNL     1      10.501  -7.293   2.167  0.00  0.00    +0.000 A 
ATOM      3  C   UNL     1      11.716  -6.861   1.620  0.00  0.00    +0.000 A 
ATOM      4  C   UNL     1      12.874  -6.837   2.400  0.00  0.00    +0.000 A 
ATOM      5  C   UNL     1      12.824  -7.245   3.731  0.00  0.00    +0.000 A 
ATOM      6  C   UNL     1      11.615  -7.671   4.265  0.00  0.00    +0.000 A 
ENDROOT
BRANCH   1   8
ATOM      7  C   UNL     1       8.326  -7.176   4.440  0.00  0.00    +0.000 C 
ATOM      8  O   UNL     1       9.328  -8.147   4.162  0.00  0.00    +0.000 OA
ENDBRANCH   1   8
BRANCH   6   9
ATOM      9  O   UNL     1      11.590  -8.068   5.575  0.00  0.00    +0.000 OA
ATOM     10  H   UNL     1      11.636  -7.238   6.087  0.00  0.00    +0.000 HD
ENDBRANCH   6   9
TORSDOF 2
ENDMDL
MODEL 3
REMARK VINA RESULT:    -3.836      1.441      3.150
REMARK INTER + INTRA:          -4.187
REMARK INTER:                  -4.146
REMARK INTRA:                  -0.041
REMARK UNBOUND:                -0.015
REMARK  Name = 
REMARK  3 active torsions:
REMARK  status: ('A' for Active; 'I' for Inactive)
REMARK    1  A    between atoms: C_1  and  O_2
REMARK    2  A    between atoms: O_2  and  C_3
REMARK    3  A    between atoms: C_8  and  O_9
REMARK                            x       y       z     vdW  Elec       q    Type
REMARK                         _______ _______ _______ _____ _____    ______ ____
ROOT
ATOM      1  C   UNL     1      10.158  -7.577   3.749  0.00  0.00    +0.000 A 
ATOM      2  C   UNL     1      10.852  -8.171   2.695  0.00  0.00    +0.000 A 
ATOM      3  C   UNL     1      10.218  -8.366   1.462  0.00  0.00    +0.000 A 
ATOM      4  C   UNL     1       8.891  -7.972   1.278  0.00  0.00    +0.000 A 
ATOM      5  C   UNL     1       8.191  -7.379   2.326  0.00  0.00    +0.000 A 
ATOM      6  C   UNL     1       8.828  -7.189   3.546  0.00  0.00    +0.000 A 
ENDROOT
BRANCH   1   8
ATOM      7  C   UNL     1      12.043  -7.050   5.097  0.00  0.00    +0.000 C 
ATOM      8  O   UNL     1      10.650  -7.326   5.005  0.00  0.00    +0.000 OA
ENDBRANCH   1   8
BRANCH   6   9
ATOM      9  O   UNL     1       8.120  -6.603   4.561  0.00  0.00    +0.000 OA
ATOM     10  H   UNL     1       8.642  -5.816   4.807  0.00  0.00    +0.000 HD
ENDBRANCH   6   9
TORSDOF 2
ENDMDL
MODEL 4
REMARK VINA RESULT:    -3.703      1.579      2.853
REMARK INTER + INTRA:          -4.042
REMARK INTER:                  -3.990
REMARK INTRA:                  -0.052
REMARK UNBOUND:                -0.015
REMARK  Name = 
REMARK  3 active torsions:
REMARK  status: ('A' for Active; 'I' for Inactive)
REMARK    1  A    between atoms: C_1  and  O_2
REMARK    2  A    between atoms: O_2  and  C_3
REMARK    3  A    between atoms: C_8  and  O_9
REMARK                            x       y       z     vdW  Elec       q    Type
REMARK                         _______ _______ _______ _____ _____    ______ ____
ROOT
ATOM      1  C   UNL     1      10.370  -7.752   3.278  0.00  0.00    +0.000 A 
ATOM      2  C   UNL     1      11.455  -7.455   4.102  0.00  0.00    +0.000 A 
ATOM      3  C   UNL     1      12.670  -7.044   3.538  0.00  0.00    +0.000 A 
ATOM      4  C   UNL     1      12.804  -6.929   2.153  0.00  0.00    +0.000 A 
ATOM      5  C   UNL     1      11.724  -7.223   1.324  0.00  0.00    +0.000 A 
ATOM      6  C   UNL     1      10.523  -7.631   1.892  0.00  0.00    +0.000 A 
ENDROOT
BRANCH   1   8
ATOM      7  C   UNL     1       8.365  -7.227   4.441  0.00  0.00    +0.000 C 
ATOM      8  O   UNL     1       9.128  -8.164   3.690  0.00  0.00    +0.000 OA
ENDBRANCH   1   8
BRANCH   6   9
ATOM      9  O   UNL     1       9.476  -7.914   1.056  0.00  0.00    +0.000 OA
ATOM     10  H   UNL     1       8.744  -7.354   1.377  0.00  0.00    +0.000 HD
ENDBRANCH   6   9
TORSDOF 2
ENDMDL
MODEL 5
REMARK VINA RESULT:    -3.700      2.224      3.256
REMARK INTER + INTRA:          -4.039
REMARK INTER:                  -3.996
REMARK INTRA:                  -0.043
REMARK UNBOUND:                -0.015
REMARK  Name = 
REMARK  3 active torsions:
REMARK  status: ('A' for Active; 'I' for Inactive)
REMARK    1  A    between atoms: C_1  and  O_2
REMARK    2  A    between atoms: O_2  and  C_3
REMARK    3  A    between atoms: C_8  and  O_9
REMARK                            x       y       z     vdW  Elec       q    Type
REMARK                         _______ _______ _______ _____ _____    ______ ____
ROOT
ATOM      1  C   UNL     1      10.973  -7.471   3.213  0.00  0.00    +0.000 A 
ATOM      2  C   UNL     1      10.058  -7.274   2.180  0.00  0.00    +0.000 A 
ATOM      3  C   UNL     1       8.687  -7.220   2.461  0.00  0.00    +0.000 A 
ATOM      4  C   UNL     1       8.227  -7.363   3.771  0.00  0.00    +0.000 A 
ATOM      5  C   UNL     1       9.135  -7.559   4.809  0.00  0.00    +0.000 A 
ATOM      6  C   UNL     1      10.493  -7.612   4.521  0.00  0.00    +0.000 A 
ENDROOT
BRANCH   1   8
ATOM      7  C   UNL     1      12.930  -6.700   2.107  0.00  0.00    +0.000 C 
ATOM      8  O   UNL     1      12.337  -7.545   3.085  0.00  0.00    +0.000 OA
ENDBRANCH   1   8
BRANCH   6   9
ATOM      9  O   UNL     1      11.366  -7.806   5.558  0.00  0.00    +0.000 OA
ATOM     10  H   UNL     1      11.956  -7.028   5.535  0.00  0.00    +0.000 HD
ENDBRANCH   6   9
TORSDOF 2
ENDMDL
MODEL 6
REMARK VINA RESULT:    -3.689      3.336      4.542
REMARK INTER + INTRA:          -4.027
REMARK INTER:                  -3.975
REMARK INTRA:                  -0.053
REMARK UNBOUND:                -0.015
REMARK  Name = 
REMARK  3 active torsions:
REMARK  status: ('A' for Active; 'I' for Inactive)
REMARK    1  A    between atoms: C_1  and  O_2
REMARK    2  A    between atoms: O_2  and  C_3
REMARK    3  A    between atoms: C_8  and  O_9
REMARK                            x       y       z     vdW  Elec       q    Type
REMARK                         _______ _______ _______ _____ _____    ______ ____
ROOT
ATOM      1  C   UNL     1      13.681  -7.805   2.506  0.00  0.00    +0.000 A 
ATOM      2  C   UNL     1      14.444  -8.356   3.535  0.00  0.00    +0.000 A 
ATOM      3  C   UNL     1      14.040  -8.199   4.867  0.00  0.00    +0.000 A 
ATOM      4  C   UNL     1      12.876  -7.492   5.175  0.00  0.00    +0.000 A 
ATOM      5  C   UNL     1      12.108  -6.939   4.153  0.00  0.00    +0.000 A 
ATOM      6  C   UNL     1      12.516  -7.100   2.835  0.00  0.00    +0.000 A 
ENDROOT
BRANCH   1   8
ATOM      7  C   UNL     1      15.139  -7.226   0.721  0.00  0.00    +0.000 C 
ATOM      8  O   UNL     1      13.955  -7.879   1.164  0.00  0.00    +0.000 OA
ENDBRANCH   1   8
BRANCH   6   9
ATOM      9  O   UNL     1      11.745  -6.547   1.847  0.00  0.00    +0.000 OA
ATOM     10  H   UNL     1      11.879  -5.584   1.937  0.00  0.00    +0.000 HD
ENDBRANCH   6   9
TORSDOF 2
ENDMDL
MODEL 7
REMARK VINA RESULT:    -3.688      1.736      2.836
REMARK INTER + INTRA:          -4.026
REMARK INTER:                  -3.987
REMARK INTRA:                  -0.039
REMARK UNBOUND:                -0.015
REMARK  Name = 
REMARK  3 active torsions:
REMARK  status: ('A' for Active; 'I' for Inactive)
REMARK    1  A    between atoms: C_1  and  O_2
REMARK    2  A    between atoms: O_2  and  C_3
REMARK    3  A    between atoms: C_8  and  O_9
REMARK                            x       y       z     vdW  Elec       q    Type
REMARK                         _______ _______ _______ _____ _____    ______ ____
ROOT
ATOM      1  C   UNL     1      10.589  -7.453   2.763  0.00  0.00    +0.000 A 
ATOM      2  C   UNL     1      10.313  -7.572   4.124  0.00  0.00    +0.000 A 
ATOM      3  C   UNL     1      11.353  -7.497   5.058  0.00  0.00    +0.000 A 
ATOM      4  C   UNL     1      12.670  -7.305   4.637  0.00  0.00    +0.000 A 
ATOM      5  C   UNL     1      12.955  -7.185   3.279  0.00  0.00    +0.000 A 
ATOM      6  C   UNL     1      11.916  -7.261   2.359  0.00  0.00    +0.000 A 
ENDROOT
BRANCH   1   8
ATOM      7  C   UNL     1       8.318  -7.262   2.091  0.00  0.00    +0.000 C 
ATOM      8  O   UNL     1       9.675  -7.508   1.742  0.00  0.00    +0.000 OA
ENDBRANCH   1   8
BRANCH   6   9
ATOM      9  O   UNL     1      12.220  -7.141   1.029  0.00  0.00    +0.000 OA
ATOM     10  H   UNL     1      11.359  -7.183   0.572  0.00  0.00    +0.000 HD
ENDBRANCH   6   9
TORSDOF 2
ENDMDL
MODEL 8
REMARK VINA RESULT:    -3.680      1.872      3.292
REMARK INTER + INTRA:          -4.018
REMARK INTER:                  -3.965
REMARK INTRA:                  -0.052
REMARK UNBOUND:                -0.015
REMARK  Name = 
REMARK  3 active torsions:
REMARK  status: ('A' for Active; 'I' for Inactive)
REMARK    1  A    between atoms: C_1  and  O_2
REMARK    2  A    between atoms: O_2  and  C_3
REMARK    3  A    between atoms: C_8  and  O_9
REMARK                            x       y       z     vdW  Elec       q    Type
REMARK                         _______ _______ _______ _____ _____    ______ ____
ROOT
ATOM      1  C   UNL     1      10.703  -7.989   2.345  0.00  0.00    +0.000 A 
ATOM      2  C   UNL     1      11.661  -7.229   3.014  0.00  0.00    +0.000 A 
ATOM      3  C   UNL     1      12.858  -6.889   2.371  0.00  0.00    +0.000 A 
ATOM      4  C   UNL     1      13.102  -7.308   1.061  0.00  0.00    +0.000 A 
ATOM      5  C   UNL     1      12.149  -8.067   0.387  0.00  0.00    +0.000 A 
ATOM      6  C   UNL     1      10.965  -8.400   1.032  0.00  0.00    +0.000 A 
ENDROOT
BRANCH   1   8
ATOM      7  C   UNL     1       8.528  -7.375   3.078  0.00  0.00    +0.000 C 
ATOM      8  O   UNL     1       9.493  -8.394   2.849  0.00  0.00    +0.000 OA
ENDBRANCH   1   8
BRANCH   6   9
ATOM      9  O   UNL     1      10.044  -9.148   0.348  0.00  0.00    +0.000 OA
ATOM     10  H   UNL     1       9.462  -8.492  -0.082  0.00  0.00    +0.000 HD
ENDBRANCH   6   9
TORSDOF 2
ENDMDL
MODEL 9
REMARK VINA RESULT:    -3.629      1.720      2.337
REMARK INTER + INTRA:          -3.962
REMARK INTER:                  -3.916
REMARK INTRA:                  -0.047
REMARK UNBOUND:                -0.015
REMARK  Name = 
REMARK  3 active torsions:
REMARK  status: ('A' for Active; 'I' for Inactive)
REMARK    1  A    between atoms: C_1  and  O_2
REMARK    2  A    between atoms: O_2  and  C_3
REMARK    3  A    between atoms: C_8  and  O_9
REMARK                            x       y       z     vdW  Elec       q    Type
REMARK                         _______ _______ _______ _____ _____    ______ ____
ROOT
ATOM      1  C   UNL     1       8.296  -9.008   2.529  0.00  0.00    +0.000 A 
ATOM      2  C   UNL     1       9.223  -9.743   1.791  0.00  0.00    +0.000 A 
ATOM      3  C   UNL     1      10.364  -9.115   1.277  0.00  0.00    +0.000 A 
ATOM      4  C   UNL     1      10.582  -7.753   1.495  0.00  0.00    +0.000 A 
ATOM      5  C   UNL     1       9.661  -7.012   2.232  0.00  0.00    +0.000 A 
ATOM      6  C   UNL     1       8.532  -7.644   2.738  0.00  0.00    +0.000 A 
ENDROOT
BRANCH   1   8
ATOM      7  C   UNL     1       6.342 -10.335   2.270  0.00  0.00    +0.000 C 
ATOM      8  O   UNL     1       7.140  -9.490   3.089  0.00  0.00    +0.000 OA
ENDBRANCH   1   8
BRANCH   6   9
ATOM      9  O   UNL     1       7.640  -6.894   3.459  0.00  0.00    +0.000 OA
ATOM     10  H   UNL     1       7.858  -5.969   3.237  0.00  0.00    +0.000 HD
ENDBRANCH   6   9
TORSDOF 2
ENDMDL
