MODEL 1
REMARK VINA RESULT:    -6.008      0.000      0.000
REMARK INTER + INTRA:          -8.638
REMARK INTER:                  -8.116
REMARK INTRA:                  -0.523
REMARK UNBOUND:                -0.523
REMARK  Name = 
REMARK  10 active torsions:
REMARK  status: ('A' for Active; 'I' for Inactive)
REMARK    1  A    between atoms: C_1  and  C_2
REMARK    2  A    between atoms: C_5  and  N_8
REMARK    3  A    between atoms: N_8  and  C_9
REMARK    4  A    between atoms: N_8  and  C_13
REMARK    5  A    between atoms: C_9  and  C_10
REMARK    6  A    between atoms: C_10  and  C_11
REMARK    7  A    between atoms: C_10  and  O_12
REMARK    8  A    between atoms: C_13  and  C_14
REMARK    9  A    between atoms: C_14  and  C_15
REMARK   10  A    between atoms: C_14  and  O_16
REMARK                            x       y       z     vdW  Elec       q    Type
REMARK                         _______ _______ _______ _____ _____    ______ ____
ROOT
ATOM      1  N   UNL     1       1.341  14.829  -2.269  0.00  0.00    +0.000 N 
ENDROOT
BRANCH   1   6
ATOM      2  C   UNL     1      -0.966  19.695  -0.191  0.00  0.00    +0.000 C 
ATOM      3  C   UNL     1      -0.356  18.429  -0.708  0.00  0.00    +0.000 A 
ATOM      4  C   UNL     1       0.862  18.445  -1.380  0.00  0.00    +0.000 A 
ATOM      5  C   UNL     1       1.415  17.258  -1.889  0.00  0.00    +0.000 A 
ATOM      6  C   UNL     1       0.775  16.011  -1.776  0.00  0.00    +0.000 A 
ATOM      7  C   UNL     1      -0.453  16.032  -1.090  0.00  0.00    +0.000 A 
ATOM      8  C   UNL     1      -1.016  17.211  -0.574  0.00  0.00    +0.000 A 
ENDBRANCH   1   6
BRANCH   1   9
ATOM      9  C   UNL     1       1.141  14.444  -3.687  0.00  0.00    +0.000 C 
BRANCH   9  10
ATOM     10  C   UNL     1       2.249  14.990  -4.620  0.00  0.00    +0.000 C 
ATOM     11  C   UNL     1       3.549  14.217  -4.434  0.00  0.00    +0.000 C 
BRANCH  10  12
ATOM     12  O   UNL     1       1.862  14.883  -5.997  0.00  0.00    +0.000 OA
ATOM     13  H   UNL     1       2.600  15.201  -6.543  0.00  0.00    +0.000 HD
ENDBRANCH  10  12
ENDBRANCH   9  10
ENDBRANCH   1   9
BRANCH   1  14
ATOM     14  C   UNL     1       1.692  13.707  -1.361  0.00  0.00    +0.000 C 
BRANCH  14  15
ATOM     15  C   UNL     1       3.109  13.863  -0.760  0.00  0.00    +0.000 C 
ATOM     16  C   UNL     1       3.115  14.586   0.582  0.00  0.00    +0.000 C 
BRANCH  15  17
ATOM     17  O   UNL     1       3.749  12.600  -0.583  0.00  0.00    +0.000 OA
ATOM     18  H   UNL     1       3.070  12.028  -0.172  0.00  0.00    +0.000 HD
ENDBRANCH  15  17
ENDBRANCH  14  15
ENDBRANCH   1  14
TORSDOF 7
ENDMDL
MODEL 2
REMARK VINA RESULT:    -5.865      1.075      1.913
REMARK INTER + INTRA:          -8.444
REMARK INTER:                  -8.192
REMARK INTRA:                  -0.252
REMARK UNBOUND:                -0.523
REMARK  Name = 
REMARK  10 active torsions:
REMARK  status: ('A' for Active; 'I' for Inactive)
REMARK    1  A    between atoms: C_1  and  C_2
REMARK    2  A    between atoms: C_5  and  N_8
REMARK    3  A    between atoms: N_8  and  C_9
REMARK    4  A    between atoms: N_8  and  C_13
REMARK    5  A    between atoms: C_9  and  C_10
REMARK    6  A    between atoms: C_10  and  C_11
REMARK    7  A    between atoms: C_10  and  O_12
REMARK    8  A    between atoms: C_13  and  C_14
REMARK    9  A    between atoms: C_14  and  C_15
REMARK   10  A    between atoms: C_14  and  O_16
REMARK                            x       y       z     vdW  Elec       q    Type
REMARK                         _______ _______ _______ _____ _____    ______ ____
ROOT
ATOM      1  N   UNL     1       1.728  14.784  -2.519  0.00  0.00    +0.000 N 
ENDROOT
BRANCH   1   6
ATOM      2  C   UNL     1      -0.875  19.180   0.170  0.00  0.00    +0.000 C 
ATOM      3  C   UNL     1      -0.212  18.045  -0.549  0.00  0.00    +0.000 A 
ATOM      4  C   UNL     1      -0.761  16.767  -0.527  0.00  0.00    +0.000 A 
ATOM      5  C   UNL     1      -0.119  15.701  -1.177  0.00  0.00    +0.000 A 
ATOM      6  C   UNL     1       1.104  15.848  -1.856  0.00  0.00    +0.000 A 
ATOM      7  C   UNL     1       1.629  17.153  -1.860  0.00  0.00    +0.000 A 
ATOM      8  C   UNL     1       0.996  18.229  -1.215  0.00  0.00    +0.000 A 
ENDBRANCH   1   6
BRANCH   1   9
ATOM      9  C   UNL     1       1.224  14.332  -3.838  0.00  0.00    +0.000 C 
BRANCH   9  10
ATOM     10  C   UNL     1       1.856  15.106  -5.020  0.00  0.00    +0.000 C 
ATOM     11  C   UNL     1       3.369  14.922  -5.047  0.00  0.00    +0.000 C 
BRANCH  10  12
ATOM     12  O   UNL     1       1.331  14.650  -6.275  0.00  0.00    +0.000 OA
ATOM     13  H   UNL     1       1.783  13.821  -6.506  0.00  0.00    +0.000 HD
ENDBRANCH  10  12
ENDBRANCH   9  10
ENDBRANCH   1   9
BRANCH   1  14
ATOM     14  C   UNL     1       2.523  13.774  -1.774  0.00  0.00    +0.000 C 
BRANCH  14  15
ATOM     15  C   UNL     1       2.288  12.339  -2.305  0.00  0.00    +0.000 C 
ATOM     16  C   UNL     1       3.378  11.868  -3.261  0.00  0.00    +0.000 C 
BRANCH  15  17
ATOM     17  O   UNL     1       2.194  11.393  -1.242  0.00  0.00    +0.000 OA
ATOM     18  H   UNL     1       1.577  11.796  -0.598  0.00  0.00    +0.000 HD
ENDBRANCH  15  17
ENDBRANCH  14  15
ENDBRANCH   1  14
TORSDOF 7
ENDMDL
MODEL 3
REMARK VINA RESULT:    -5.746      0.875      3.229
REMARK INTER + INTRA:          -8.284
REMARK INTER:                  -7.861
REMARK INTRA:                  -0.422
REMARK UNBOUND:                -0.523
REMARK  Name = 
REMARK  10 active torsions:
REMARK  status: ('A' for Active; 'I' for Inactive)
REMARK    1  A    between atoms: C_1  and  C_2
REMARK    2  A    between atoms: C_5  and  N_8
REMARK    3  A    between atoms: N_8  and  C_9
REMARK    4  A    between atoms: N_8  and  C_13
REMARK    5  A    between atoms: C_9  and  C_10
REMARK    6  A    between atoms: C_10  and  C_11
REMARK    7  A    between atoms: C_10  and  O_12
REMARK    8  A    between atoms: C_13  and  C_14
REMARK    9  A    between atoms: C_14  and  C_15
REMARK   10  A    between atoms: C_14  and  O_16
REMARK                            x       y       z     vdW  Elec       q    Type
REMARK                         _______ _______ _______ _____ _____    ______ ____
ROOT
ATOM      1  N   UNL     1       1.776  15.432  -2.160  0.00  0.00    +0.000 N 
ENDROOT
BRANCH   1   6
ATOM      2  C   UNL     1      -1.711  19.388   0.188  0.00  0.00    +0.000 C 
ATOM      3  C   UNL     1      -0.795  18.358  -0.399  0.00  0.00    +0.000 A 
ATOM      4  C   UNL     1       0.419  18.724  -0.969  0.00  0.00    +0.000 A 
ATOM      5  C   UNL     1       1.260  17.757  -1.544  0.00  0.00    +0.000 A 
ATOM      6  C   UNL     1       0.924  16.393  -1.602  0.00  0.00    +0.000 A 
ATOM      7  C   UNL     1      -0.310  16.059  -1.015  0.00  0.00    +0.000 A 
ATOM      8  C   UNL     1      -1.159  17.015  -0.434  0.00  0.00    +0.000 A 
ENDBRANCH   1   6
BRANCH   1   9
ATOM      9  C   UNL     1       3.143  15.244  -1.616  0.00  0.00    +0.000 C 
BRANCH   9  10
ATOM     10  C   UNL     1       3.212  14.136  -0.537  0.00  0.00    +0.000 C 
ATOM     11  C   UNL     1       3.103  14.730   0.862  0.00  0.00    +0.000 C 
BRANCH  10  12
ATOM     12  O   UNL     1       2.147  13.190  -0.702  0.00  0.00    +0.000 OA
ATOM     13  H   UNL     1       1.840  12.925   0.181  0.00  0.00    +0.000 HD
ENDBRANCH  10  12
ENDBRANCH   9  10
ENDBRANCH   1   9
BRANCH   1  14
ATOM     14  C   UNL     1       1.588  14.955  -3.554  0.00  0.00    +0.000 C 
BRANCH  14  15
ATOM     15  C   UNL     1       2.936  14.683  -4.266  0.00  0.00    +0.000 C 
ATOM     16  C   UNL     1       3.330  13.210  -4.261  0.00  0.00    +0.000 C 
BRANCH  15  17
ATOM     17  O   UNL     1       2.917  15.131  -5.620  0.00  0.00    +0.000 OA
ATOM     18  H   UNL     1       2.878  16.107  -5.563  0.00  0.00    +0.000 HD
ENDBRANCH  15  17
ENDBRANCH  14  15
ENDBRANCH   1  14
TORSDOF 7
ENDMDL
MODEL 4
REMARK VINA RESULT:    -5.726      1.736      3.403
REMARK INTER + INTRA:          -8.257
REMARK INTER:                  -8.051
REMARK INTRA:                  -0.206
REMARK UNBOUND:                -0.523
REMARK  Name = 
REMARK  10 active torsions:
REMARK  status: ('A' for Active; 'I' for Inactive)
REMARK    1  A    between atoms: C_1  and  C_2
REMARK    2  A    between atoms: C_5  and  N_8
REMARK    3  A    between atoms: N_8  and  C_9
REMARK    4  A    between atoms: N_8  and  C_13
REMARK    5  A    between atoms: C_9  and  C_10
REMARK    6  A    between atoms: C_10  and  C_11
REMARK    7  A    between atoms: C_10  and  O_12
REMARK    8  A    between atoms: C_13  and  C_14
REMARK    9  A    between atoms: C_14  and  C_15
REMARK   10  A    between atoms: C_14  and  O_16
REMARK                            x       y       z     vdW  Elec       q    Type
REMARK                         _______ _______ _______ _____ _____    ______ ____
ROOT
ATOM      1  N   UNL     1       2.249  14.218  -2.493  0.00  0.00    +0.000 N 
ENDROOT
BRANCH   1   6
ATOM      2  C   UNL     1      -0.597  18.494   0.142  0.00  0.00    +0.000 C 
ATOM      3  C   UNL     1       0.135  17.395  -0.564  0.00  0.00    +0.000 A 
ATOM      4  C   UNL     1      -0.506  16.205  -0.892  0.00  0.00    +0.000 A 
ATOM      5  C   UNL     1       0.194  15.166  -1.527  0.00  0.00    +0.000 A 
ATOM      6  C   UNL     1       1.562  15.251  -1.843  0.00  0.00    +0.000 A 
ATOM      7  C   UNL     1       2.177  16.469  -1.499  0.00  0.00    +0.000 A 
ATOM      8  C   UNL     1       1.489  17.517  -0.865  0.00  0.00    +0.000 A 
ENDBRANCH   1   6
BRANCH   1   9
ATOM      9  C   UNL     1       2.269  12.855  -1.910  0.00  0.00    +0.000 C 
BRANCH   9  10
ATOM     10  C   UNL     1       3.060  11.844  -2.774  0.00  0.00    +0.000 C 
ATOM     11  C   UNL     1       3.803  10.842  -1.899  0.00  0.00    +0.000 C 
BRANCH  10  12
ATOM     12  O   UNL     1       2.183  11.112  -3.642  0.00  0.00    +0.000 OA
ATOM     13  H   UNL     1       2.538  10.212  -3.740  0.00  0.00    +0.000 HD
ENDBRANCH  10  12
ENDBRANCH   9  10
ENDBRANCH   1   9
BRANCH   1  14
ATOM     14  C   UNL     1       3.357  14.509  -3.439  0.00  0.00    +0.000 C 
BRANCH  14  15
ATOM     15  C   UNL     1       2.870  14.575  -4.907  0.00  0.00    +0.000 C 
ATOM     16  C   UNL     1       1.432  15.063  -5.040  0.00  0.00    +0.000 C 
BRANCH  15  17
ATOM     17  O   UNL     1       3.699  15.422  -5.700  0.00  0.00    +0.000 OA
ATOM     18  H   UNL     1       3.591  15.096  -6.616  0.00  0.00    +0.000 HD
ENDBRANCH  15  17
ENDBRANCH  14  15
ENDBRANCH   1  14
TORSDOF 7
ENDMDL
MODEL 5
REMARK VINA RESULT:    -5.720      0.800      3.438
REMARK INTER + INTRA:          -8.248
REMARK INTER:                  -7.984
REMARK INTRA:                  -0.264
REMARK UNBOUND:                -0.523
REMARK  Name = 
REMARK  10 active torsions:
REMARK  status: ('A' for Active; 'I' for Inactive)
REMARK    1  A    between atoms: C_1  and  C_2
REMARK    2  A    between atoms: C_5  and  N_8
REMARK    3  A    between atoms: N_8  and  C_9
REMARK    4  A    between atoms: N_8  and  C_13
REMARK    5  A    between atoms: C_9  and  C_10
REMARK    6  A    between atoms: C_10  and  C_11
REMARK    7  A    between atoms: C_10  and  O_12
REMARK    8  A    between atoms: C_13  and  C_14
REMARK    9  A    between atoms: C_14  and  C_15
REMARK   10  A    between atoms: C_14  and  O_16
REMARK                            x       y       z     vdW  Elec       q    Type
REMARK                         _______ _______ _______ _____ _____    ______ ____
ROOT
ATOM      1  N   UNL     1       1.720  15.353  -2.143  0.00  0.00    +0.000 N 
ENDROOT
BRANCH   1   6
ATOM      2  C   UNL     1      -1.635  19.509   0.049  0.00  0.00    +0.000 C 
ATOM      3  C   UNL     1      -0.775  18.434  -0.542  0.00  0.00    +0.000 A 
ATOM      4  C   UNL     1      -1.181  17.104  -0.526  0.00  0.00    +0.000 A 
ATOM      5  C   UNL     1      -0.357  16.097  -1.054  0.00  0.00    +0.000 A 
ATOM      6  C   UNL     1       0.912  16.360  -1.600  0.00  0.00    +0.000 A 
ATOM      7  C   UNL     1       1.289  17.716  -1.601  0.00  0.00    +0.000 A 
ATOM      8  C   UNL     1       0.474  18.733  -1.078  0.00  0.00    +0.000 A 
ENDBRANCH   1   6
BRANCH   1   9
ATOM      9  C   UNL     1       3.120  15.193  -1.680  0.00  0.00    +0.000 C 
BRANCH   9  10
ATOM     10  C   UNL     1       3.267  14.114  -0.579  0.00  0.00    +0.000 C 
ATOM     11  C   UNL     1       3.287  14.749   0.807  0.00  0.00    +0.000 C 
BRANCH  10  12
ATOM     12  O   UNL     1       2.180  13.180  -0.624  0.00  0.00    +0.000 OA
ATOM     13  H   UNL     1       2.440  12.442  -1.200  0.00  0.00    +0.000 HD
ENDBRANCH  10  12
ENDBRANCH   9  10
ENDBRANCH   1   9
BRANCH   1  14
ATOM     14  C   UNL     1       1.436  14.778  -3.482  0.00  0.00    +0.000 C 
BRANCH  14  15
ATOM     15  C   UNL     1       2.709  14.676  -4.356  0.00  0.00    +0.000 C 
ATOM     16  C   UNL     1       3.375  13.306  -4.288  0.00  0.00    +0.000 C 
BRANCH  15  17
ATOM     17  O   UNL     1       2.433  14.965  -5.726  0.00  0.00    +0.000 OA
ATOM     18  H   UNL     1       1.526  15.333  -5.729  0.00  0.00    +0.000 HD
ENDBRANCH  15  17
ENDBRANCH  14  15
ENDBRANCH   1  14
TORSDOF 7
ENDMDL
MODEL 6
REMARK VINA RESULT:    -5.542      1.367      1.937
REMARK INTER + INTRA:          -8.009
REMARK INTER:                  -7.504
REMARK INTRA:                  -0.505
REMARK UNBOUND:                -0.523
REMARK  Name = 
REMARK  10 active torsions:
REMARK  status: ('A' for Active; 'I' for Inactive)
REMARK    1  A    between atoms: C_1  and  C_2
REMARK    2  A    between atoms: C_5  and  N_8
REMARK    3  A    between atoms: N_8  and  C_9
REMARK    4  A    between atoms: N_8  and  C_13
REMARK    5  A    between atoms: C_9  and  C_10
REMARK    6  A    between atoms: C_10  and  C_11
REMARK    7  A    between atoms: C_10  and  O_12
REMARK    8  A    between atoms: C_13  and  C_14
REMARK    9  A    between atoms: C_14  and  C_15
REMARK   10  A    between atoms: C_14  and  O_16
REMARK                            x       y       z     vdW  Elec       q    Type
REMARK                         _______ _______ _______ _____ _____    ______ ____
ROOT
ATOM      1  N   UNL     1       1.268  15.036  -0.962  0.00  0.00    +0.000 N 
ENDROOT
BRANCH   1   6
ATOM      2  C   UNL     1      -1.178  20.241  -1.470  0.00  0.00    +0.000 C 
ATOM      3  C   UNL     1      -0.551  18.884  -1.361  0.00  0.00    +0.000 A 
ATOM      4  C   UNL     1      -1.248  17.818  -0.801  0.00  0.00    +0.000 A 
ATOM      5  C   UNL     1      -0.645  16.556  -0.674  0.00  0.00    +0.000 A 
ATOM      6  C   UNL     1       0.679  16.302  -1.074  0.00  0.00    +0.000 A 
ATOM      7  C   UNL     1       1.353  17.402  -1.637  0.00  0.00    +0.000 A 
ATOM      8  C   UNL     1       0.761  18.668  -1.771  0.00  0.00    +0.000 A 
ENDBRANCH   1   6
BRANCH   1   9
ATOM      9  C   UNL     1       0.860  13.943  -1.877  0.00  0.00    +0.000 C 
BRANCH   9  10
ATOM     10  C   UNL     1       1.504  14.063  -3.280  0.00  0.00    +0.000 C 
ATOM     11  C   UNL     1       2.847  13.344  -3.326  0.00  0.00    +0.000 C 
BRANCH  10  12
ATOM     12  O   UNL     1       0.658  13.489  -4.286  0.00  0.00    +0.000 OA
ATOM     13  H   UNL     1       1.062  13.659  -5.153  0.00  0.00    +0.000 HD
ENDBRANCH  10  12
ENDBRANCH   9  10
ENDBRANCH   1   9
BRANCH   1  14
ATOM     14  C   UNL     1       1.888  14.586   0.311  0.00  0.00    +0.000 C 
BRANCH  14  15
ATOM     15  C   UNL     1       3.277  15.228   0.543  0.00  0.00    +0.000 C 
ATOM     16  C   UNL     1       4.037  14.607   1.709  0.00  0.00    +0.000 C 
BRANCH  15  17
ATOM     17  O   UNL     1       4.100  15.138  -0.619  0.00  0.00    +0.000 OA
ATOM     18  H   UNL     1       4.197  16.060  -0.932  0.00  0.00    +0.000 HD
ENDBRANCH  15  17
ENDBRANCH  14  15
ENDBRANCH   1  14
TORSDOF 7
ENDMDL
MODEL 7
REMARK VINA RESULT:    -5.346      3.479      5.936
REMARK INTER + INTRA:          -7.744
REMARK INTER:                  -7.286
REMARK INTRA:                  -0.458
REMARK UNBOUND:                -0.523
REMARK  Name = 
REMARK  10 active torsions:
REMARK  status: ('A' for Active; 'I' for Inactive)
REMARK    1  A    between atoms: C_1  and  C_2
REMARK    2  A    between atoms: C_5  and  N_8
REMARK    3  A    between atoms: N_8  and  C_9
REMARK    4  A    between atoms: N_8  and  C_13
REMARK    5  A    between atoms: C_9  and  C_10
REMARK    6  A    between atoms: C_10  and  C_11
REMARK    7  A    between atoms: C_10  and  O_12
REMARK    8  A    between atoms: C_13  and  C_14
REMARK    9  A    between atoms: C_14  and  C_15
REMARK   10  A    between atoms: C_14  and  O_16
REMARK                            x       y       z     vdW  Elec       q    Type
REMARK                         _______ _______ _______ _____ _____    ______ ____
ROOT
ATOM      1  N   UNL     1      -0.373  17.907  -0.492  0.00  0.00    +0.000 N 
ENDROOT
BRANCH   1   6
ATOM      2  C   UNL     1       2.833  13.357  -2.024  0.00  0.00    +0.000 C 
ATOM      3  C   UNL     1       1.998  14.528  -1.603  0.00  0.00    +0.000 A 
ATOM      4  C   UNL     1       0.621  14.528  -1.793  0.00  0.00    +0.000 A 
ATOM      5  C   UNL     1      -0.153  15.641  -1.425  0.00  0.00    +0.000 A 
ATOM      6  C   UNL     1       0.407  16.809  -0.875  0.00  0.00    +0.000 A 
ATOM      7  C   UNL     1       1.802  16.773  -0.696  0.00  0.00    +0.000 A 
ATOM      8  C   UNL     1       2.587  15.665  -1.058  0.00  0.00    +0.000 A 
ENDBRANCH   1   6
BRANCH   1   9
ATOM      9  C   UNL     1       0.178  19.280  -0.590  0.00  0.00    +0.000 C 
BRANCH   9  10
ATOM     10  C   UNL     1       0.346  19.757  -2.053  0.00  0.00    +0.000 C 
ATOM     11  C   UNL     1      -0.797  20.680  -2.460  0.00  0.00    +0.000 C 
BRANCH  10  12
ATOM     12  O   UNL     1       1.577  20.473  -2.224  0.00  0.00    +0.000 OA
ATOM     13  H   UNL     1       1.721  20.603  -3.176  0.00  0.00    +0.000 HD
ENDBRANCH  10  12
ENDBRANCH   9  10
ENDBRANCH   1   9
BRANCH   1  14
ATOM     14  C   UNL     1      -1.502  17.754   0.462  0.00  0.00    +0.000 C 
BRANCH  14  15
ATOM     15  C   UNL     1      -2.596  18.827   0.248  0.00  0.00    +0.000 C 
ATOM     16  C   UNL     1      -3.927  18.243  -0.211  0.00  0.00    +0.000 C 
BRANCH  15  17
ATOM     17  O   UNL     1      -2.832  19.583   1.435  0.00  0.00    +0.000 OA
ATOM     18  H   UNL     1      -2.815  18.926   2.161  0.00  0.00    +0.000 HD
ENDBRANCH  15  17
ENDBRANCH  14  15
ENDBRANCH   1  14
TORSDOF 7
ENDMDL
MODEL 8
REMARK VINA RESULT:    -5.274      3.460      6.270
REMARK INTER + INTRA:          -7.646
REMARK INTER:                  -7.106
REMARK INTRA:                  -0.541
REMARK UNBOUND:                -0.523
REMARK  Name = 
REMARK  10 active torsions:
REMARK  status: ('A' for Active; 'I' for Inactive)
REMARK    1  A    between atoms: C_1  and  C_2
REMARK    2  A    between atoms: C_5  and  N_8
REMARK    3  A    between atoms: N_8  and  C_9
REMARK    4  A    between atoms: N_8  and  C_13
REMARK    5  A    between atoms: C_9  and  C_10
REMARK    6  A    between atoms: C_10  and  C_11
REMARK    7  A    between atoms: C_10  and  O_12
REMARK    8  A    between atoms: C_13  and  C_14
REMARK    9  A    between atoms: C_14  and  C_15
REMARK   10  A    between atoms: C_14  and  O_16
REMARK                            x       y       z     vdW  Elec       q    Type
REMARK                         _______ _______ _______ _____ _____    ______ ____
ROOT
ATOM      1  N   UNL     1      -0.181  18.393  -0.885  0.00  0.00    +0.000 N 
ENDROOT
BRANCH   1   6
ATOM      2  C   UNL     1       2.318  13.260  -1.739  0.00  0.00    +0.000 C 
ATOM      3  C   UNL     1       1.692  14.602  -1.512  0.00  0.00    +0.000 A 
ATOM      4  C   UNL     1       1.217  14.966  -0.257  0.00  0.00    +0.000 A 
ATOM      5  C   UNL     1       0.604  16.213  -0.057  0.00  0.00    +0.000 A 
ATOM      6  C   UNL     1       0.414  17.143  -1.096  0.00  0.00    +0.000 A 
ATOM      7  C   UNL     1       0.907  16.742  -2.351  0.00  0.00    +0.000 A 
ATOM      8  C   UNL     1       1.524  15.498  -2.564  0.00  0.00    +0.000 A 
ENDBRANCH   1   6
BRANCH   1   9
ATOM      9  C   UNL     1      -0.764  18.726   0.437  0.00  0.00    +0.000 C 
BRANCH   9  10
ATOM     10  C   UNL     1      -2.298  18.933   0.382  0.00  0.00    +0.000 C 
ATOM     11  C   UNL     1      -3.029  17.596   0.386  0.00  0.00    +0.000 C 
BRANCH  10  12
ATOM     12  O   UNL     1      -2.755  19.694   1.509  0.00  0.00    +0.000 OA
ATOM     13  H   UNL     1      -2.773  20.631   1.253  0.00  0.00    +0.000 HD
ENDBRANCH  10  12
ENDBRANCH   9  10
ENDBRANCH   1   9
BRANCH   1  14
ATOM     14  C   UNL     1      -0.708  19.194  -2.019  0.00  0.00    +0.000 C 
BRANCH  14  15
ATOM     15  C   UNL     1       0.153  20.450  -2.298  0.00  0.00    +0.000 C 
ATOM     16  C   UNL     1      -0.267  21.660  -1.474  0.00  0.00    +0.000 C 
BRANCH  15  17
ATOM     17  O   UNL     1       1.537  20.205  -2.050  0.00  0.00    +0.000 OA
ATOM     18  H   UNL     1       1.586  19.967  -1.103  0.00  0.00    +0.000 HD
ENDBRANCH  15  17
ENDBRANCH  14  15
ENDBRANCH   1  14
TORSDOF 7
ENDMDL
MODEL 9
REMARK VINA RESULT:    -4.930      9.568     11.970
REMARK INTER + INTRA:          -7.181
REMARK INTER:                  -6.958
REMARK INTRA:                  -0.224
REMARK UNBOUND:                -0.523
REMARK  Name = 
REMARK  10 active torsions:
REMARK  status: ('A' for Active; 'I' for Inactive)
REMARK    1  A    between atoms: C_1  and  C_2
REMARK    2  A    between atoms: C_5  and  N_8
REMARK    3  A    between atoms: N_8  and  C_9
REMARK    4  A    between atoms: N_8  and  C_13
REMARK    5  A    between atoms: C_9  and  C_10
REMARK    6  A    between atoms: C_10  and  C_11
REMARK    7  A    between atoms: C_10  and  O_12
REMARK    8  A    between atoms: C_13  and  C_14
REMARK    9  A    between atoms: C_14  and  C_15
REMARK   10  A    between atoms: C_14  and  O_16
REMARK                            x       y       z     vdW  Elec       q    Type
REMARK                         _______ _______ _______ _____ _____    ______ ____
ROOT
ATOM      1  N   UNL     1      -1.233  16.297 -11.481  0.00  0.00    +0.000 N 
ENDROOT
BRANCH   1   6
ATOM      2  C   UNL     1       0.204  14.613 -16.812  0.00  0.00    +0.000 C 
ATOM      3  C   UNL     1      -0.146  15.044 -15.421  0.00  0.00    +0.000 A 
ATOM      4  C   UNL     1      -0.721  14.153 -14.520  0.00  0.00    +0.000 A 
ATOM      5  C   UNL     1      -1.075  14.571 -13.227  0.00  0.00    +0.000 A 
ATOM      6  C   UNL     1      -0.896  15.892 -12.778  0.00  0.00    +0.000 A 
ATOM      7  C   UNL     1      -0.311  16.764 -13.714  0.00  0.00    +0.000 A 
ATOM      8  C   UNL     1       0.050  16.359 -15.010  0.00  0.00    +0.000 A 
ENDBRANCH   1   6
BRANCH   1   9
ATOM      9  C   UNL     1      -0.615  17.511 -10.896  0.00  0.00    +0.000 C 
BRANCH   9  10
ATOM     10  C   UNL     1      -1.622  18.675 -10.728  0.00  0.00    +0.000 C 
ATOM     11  C   UNL     1      -2.759  18.563 -11.736  0.00  0.00    +0.000 C 
BRANCH  10  12
ATOM     12  O   UNL     1      -2.193  18.676  -9.412  0.00  0.00    +0.000 OA
ATOM     13  H   UNL     1      -2.875  17.984  -9.380  0.00  0.00    +0.000 HD
ENDBRANCH  10  12
ENDBRANCH   9  10
ENDBRANCH   1   9
BRANCH   1  14
ATOM     14  C   UNL     1      -1.769  15.330 -10.488  0.00  0.00    +0.000 C 
BRANCH  14  15
ATOM     15  C   UNL     1      -3.239  15.634 -10.111  0.00  0.00    +0.000 C 
ATOM     16  C   UNL     1      -4.221  15.337 -11.237  0.00  0.00    +0.000 C 
BRANCH  15  17
ATOM     17  O   UNL     1      -3.651  14.897  -8.960  0.00  0.00    +0.000 OA
ATOM     18  H   UNL     1      -3.455  15.483  -8.201  0.00  0.00    +0.000 HD
ENDBRANCH  15  17
ENDBRANCH  14  15
ENDBRANCH   1  14
TORSDOF 7
ENDMDL
