MODEL 1
REMARK VINA RESULT:    -4.877      0.000      0.000
REMARK INTER + INTRA:          -5.346
REMARK INTER:                  -5.305
REMARK INTRA:                  -0.041
REMARK UNBOUND:                -0.041
REMARK  Name = 
REMARK  3 active torsions:
REMARK  status: ('A' for Active; 'I' for Inactive)
REMARK    1  A    between atoms: C_1  and  O_2
REMARK    2  A    between atoms: O_2  and  C_3
REMARK    3  A    between atoms: C_8  and  O_9
REMARK                            x       y       z     vdW  Elec       q    Type
REMARK                         _______ _______ _______ _____ _____    ______ ____
ROOT
ATOM      1  C   UNL     1       2.928  13.870  -1.456  0.00  0.00    +0.000 A 
ATOM      2  C   UNL     1       3.396  14.906  -2.263  0.00  0.00    +0.000 A 
ATOM      3  C   UNL     1       3.650  14.675  -3.621  0.00  0.00    +0.000 A 
ATOM      4  C   UNL     1       3.439  13.411  -4.175  0.00  0.00    +0.000 A 
ATOM      5  C   UNL     1       2.972  12.371  -3.375  0.00  0.00    +0.000 A 
ATOM      6  C   UNL     1       2.723  12.609  -2.029  0.00  0.00    +0.000 A 
ENDROOT
BRANCH   1   8
ATOM      7  C   UNL     1       3.405  14.881   0.641  0.00  0.00    +0.000 C 
ATOM      8  O   UNL     1       2.640  13.953  -0.117  0.00  0.00    +0.000 OA
ENDBRANCH   1   8
BRANCH   6   9
ATOM      9  O   UNL     1       2.265  11.571  -1.263  0.00  0.00    +0.000 OA
ATOM     10  H   UNL     1       1.315  11.757  -1.136  0.00  0.00    +0.000 HD
ENDBRANCH   6   9
TORSDOF 2
ENDMDL
MODEL 2
REMARK VINA RESULT:    -4.807      2.038      2.780
REMARK INTER + INTRA:          -5.270
REMARK INTER:                  -5.223
REMARK INTRA:                  -0.048
REMARK UNBOUND:                -0.041
REMARK  Name = 
REMARK  3 active torsions:
REMARK  status: ('A' for Active; 'I' for Inactive)
REMARK    1  A    between atoms: C_1  and  O_2
REMARK    2  A    between atoms: O_2  and  C_3
REMARK    3  A    between atoms: C_8  and  O_9
REMARK                            x       y       z     vdW  Elec       q    Type
REMARK                         _______ _______ _______ _____ _____    ______ ____
ROOT
ATOM      1  C   UNL     1       2.964  13.959  -2.476  0.00  0.00    +0.000 A 
ATOM      2  C   UNL     1       2.396  13.054  -1.581  0.00  0.00    +0.000 A 
ATOM      3  C   UNL     1       2.394  11.685  -1.876  0.00  0.00    +0.000 A 
ATOM      4  C   UNL     1       2.959  11.217  -3.064  0.00  0.00    +0.000 A 
ATOM      5  C   UNL     1       3.529  12.115  -3.963  0.00  0.00    +0.000 A 
ATOM      6  C   UNL     1       3.526  13.471  -3.662  0.00  0.00    +0.000 A 
ENDROOT
BRANCH   1   8
ATOM      7  C   UNL     1       1.836  15.977  -1.924  0.00  0.00    +0.000 C 
ATOM      8  O   UNL     1       3.035  15.320  -2.317  0.00  0.00    +0.000 OA
ENDBRANCH   1   8
BRANCH   6   9
ATOM      9  O   UNL     1       4.092  14.334  -4.561  0.00  0.00    +0.000 OA
ATOM     10  H   UNL     1       3.627  14.159  -5.401  0.00  0.00    +0.000 HD
ENDBRANCH   6   9
TORSDOF 2
ENDMDL
MODEL 3
REMARK VINA RESULT:    -4.763      2.121      3.557
REMARK INTER + INTRA:          -5.222
REMARK INTER:                  -5.179
REMARK INTRA:                  -0.044
REMARK UNBOUND:                -0.041
REMARK  Name = 
REMARK  3 active torsions:
REMARK  status: ('A' for Active; 'I' for Inactive)
REMARK    1  A    between atoms: C_1  and  O_2
REMARK    2  A    between atoms: O_2  and  C_3
REMARK    3  A    between atoms: C_8  and  O_9
REMARK                            x       y       z     vdW  Elec       q    Type
REMARK                         _______ _______ _______ _____ _____    ______ ____
ROOT
ATOM      1  C   UNL     1       2.525  13.201  -2.546  0.00  0.00    +0.000 A 
ATOM      2  C   UNL     1       3.057  13.403  -1.273  0.00  0.00    +0.000 A 
ATOM      3  C   UNL     1       2.364  14.186  -0.341  0.00  0.00    +0.000 A 
ATOM      4  C   UNL     1       1.141  14.770  -0.678  0.00  0.00    +0.000 A 
ATOM      5  C   UNL     1       0.603  14.572  -1.947  0.00  0.00    +0.000 A 
ATOM      6  C   UNL     1       1.297  13.794  -2.865  0.00  0.00    +0.000 A 
ENDROOT
BRANCH   1   8
ATOM      7  C   UNL     1       3.035  11.047  -3.411  0.00  0.00    +0.000 C 
ATOM      8  O   UNL     1       3.091  12.462  -3.553  0.00  0.00    +0.000 OA
ENDBRANCH   1   8
BRANCH   6   9
ATOM      9  O   UNL     1       0.748  13.614  -4.106  0.00  0.00    +0.000 OA
ATOM     10  H   UNL     1       0.692  12.645  -4.215  0.00  0.00    +0.000 HD
ENDBRANCH   6   9
TORSDOF 2
ENDMDL
MODEL 4
REMARK VINA RESULT:    -4.632      2.201      3.720
REMARK INTER + INTRA:          -5.080
REMARK INTER:                  -5.034
REMARK INTRA:                  -0.046
REMARK UNBOUND:                -0.041
REMARK  Name = 
REMARK  3 active torsions:
REMARK  status: ('A' for Active; 'I' for Inactive)
REMARK    1  A    between atoms: C_1  and  O_2
REMARK    2  A    between atoms: O_2  and  C_3
REMARK    3  A    between atoms: C_8  and  O_9
REMARK                            x       y       z     vdW  Elec       q    Type
REMARK                         _______ _______ _______ _____ _____    ______ ____
ROOT
ATOM      1  C   UNL     1       2.517  13.885  -2.928  0.00  0.00    +0.000 A 
ATOM      2  C   UNL     1       1.163  13.634  -2.715  0.00  0.00    +0.000 A 
ATOM      3  C   UNL     1       0.403  14.511  -1.931  0.00  0.00    +0.000 A 
ATOM      4  C   UNL     1       0.993  15.639  -1.358  0.00  0.00    +0.000 A 
ATOM      5  C   UNL     1       2.346  15.897  -1.567  0.00  0.00    +0.000 A 
ATOM      6  C   UNL     1       3.091  15.021  -2.345  0.00  0.00    +0.000 A 
ENDROOT
BRANCH   1   8
ATOM      7  C   UNL     1       3.306  11.709  -3.466  0.00  0.00    +0.000 C 
ATOM      8  O   UNL     1       3.379  13.115  -3.668  0.00  0.00    +0.000 OA
ENDBRANCH   1   8
BRANCH   6   9
ATOM      9  O   UNL     1       4.420  15.296  -2.535  0.00  0.00    +0.000 OA
ATOM     10  H   UNL     1       4.851  15.023  -1.703  0.00  0.00    +0.000 HD
ENDBRANCH   6   9
TORSDOF 2
ENDMDL
MODEL 5
REMARK VINA RESULT:    -4.573      2.236      3.369
REMARK INTER + INTRA:          -5.016
REMARK INTER:                  -4.963
REMARK INTRA:                  -0.052
REMARK UNBOUND:                -0.041
REMARK  Name = 
REMARK  3 active torsions:
REMARK  status: ('A' for Active; 'I' for Inactive)
REMARK    1  A    between atoms: C_1  and  O_2
REMARK    2  A    between atoms: O_2  and  C_3
REMARK    3  A    between atoms: C_8  and  O_9
REMARK                            x       y       z     vdW  Elec       q    Type
REMARK                         _______ _______ _______ _____ _____    ______ ____
ROOT
ATOM      1  C   UNL     1       2.813  14.219  -3.587  0.00  0.00    +0.000 A 
ATOM      2  C   UNL     1       2.518  15.063  -2.518  0.00  0.00    +0.000 A 
ATOM      3  C   UNL     1       2.530  14.565  -1.209  0.00  0.00    +0.000 A 
ATOM      4  C   UNL     1       2.836  13.225  -0.965  0.00  0.00    +0.000 A 
ATOM      5  C   UNL     1       3.132  12.375  -2.028  0.00  0.00    +0.000 A 
ATOM      6  C   UNL     1       3.117  12.878  -3.323  0.00  0.00    +0.000 A 
ENDROOT
BRANCH   1   8
ATOM      7  C   UNL     1       1.612  15.029  -5.471  0.00  0.00    +0.000 C 
ATOM      8  O   UNL     1       2.837  14.569  -4.914  0.00  0.00    +0.000 OA
ENDBRANCH   1   8
BRANCH   6   9
ATOM      9  O   UNL     1       3.412  12.024  -4.352  0.00  0.00    +0.000 OA
ATOM     10  H   UNL     1       4.270  12.336  -4.696  0.00  0.00    +0.000 HD
ENDBRANCH   6   9
TORSDOF 2
ENDMDL
MODEL 6
REMARK VINA RESULT:    -4.568      1.460      2.294
REMARK INTER + INTRA:          -5.010
REMARK INTER:                  -4.973
REMARK INTRA:                  -0.037
REMARK UNBOUND:                -0.041
REMARK  Name = 
REMARK  3 active torsions:
REMARK  status: ('A' for Active; 'I' for Inactive)
REMARK    1  A    between atoms: C_1  and  O_2
REMARK    2  A    between atoms: O_2  and  C_3
REMARK    3  A    between atoms: C_8  and  O_9
REMARK                            x       y       z     vdW  Elec       q    Type
REMARK                         _______ _______ _______ _____ _____    ______ ____
ROOT
ATOM      1  C   UNL     1       2.838  13.971  -2.594  0.00  0.00    +0.000 A 
ATOM      2  C   UNL     1       3.298  13.550  -3.841  0.00  0.00    +0.000 A 
ATOM      3  C   UNL     1       3.448  12.183  -4.106  0.00  0.00    +0.000 A 
ATOM      4  C   UNL     1       3.141  11.235  -3.128  0.00  0.00    +0.000 A 
ATOM      5  C   UNL     1       2.681  11.648  -1.880  0.00  0.00    +0.000 A 
ATOM      6  C   UNL     1       2.535  13.006  -1.626  0.00  0.00    +0.000 A 
ENDROOT
BRANCH   1   8
ATOM      7  C   UNL     1       1.482  15.920  -2.699  0.00  0.00    +0.000 C 
ATOM      8  O   UNL     1       2.644  15.270  -2.198  0.00  0.00    +0.000 OA
ENDBRANCH   1   8
BRANCH   6   9
ATOM      9  O   UNL     1       2.080  13.388  -0.392  0.00  0.00    +0.000 OA
ATOM     10  H   UNL     1       2.049  12.562   0.127  0.00  0.00    +0.000 HD
ENDBRANCH   6   9
TORSDOF 2
ENDMDL
MODEL 7
REMARK VINA RESULT:    -4.560      1.752      3.471
REMARK INTER + INTRA:          -5.001
REMARK INTER:                  -4.950
REMARK INTRA:                  -0.051
REMARK UNBOUND:                -0.041
REMARK  Name = 
REMARK  3 active torsions:
REMARK  status: ('A' for Active; 'I' for Inactive)
REMARK    1  A    between atoms: C_1  and  O_2
REMARK    2  A    between atoms: O_2  and  C_3
REMARK    3  A    between atoms: C_8  and  O_9
REMARK                            x       y       z     vdW  Elec       q    Type
REMARK                         _______ _______ _______ _____ _____    ______ ____
ROOT
ATOM      1  C   UNL     1       1.882  13.359  -1.569  0.00  0.00    +0.000 A 
ATOM      2  C   UNL     1       0.777  14.022  -2.102  0.00  0.00    +0.000 A 
ATOM      3  C   UNL     1       0.426  15.292  -1.627  0.00  0.00    +0.000 A 
ATOM      4  C   UNL     1       1.175  15.903  -0.620  0.00  0.00    +0.000 A 
ATOM      5  C   UNL     1       2.281  15.247  -0.082  0.00  0.00    +0.000 A 
ATOM      6  C   UNL     1       2.621  13.988  -0.559  0.00  0.00    +0.000 A 
ENDROOT
BRANCH   1   8
ATOM      7  C   UNL     1       2.934  12.017  -3.223  0.00  0.00    +0.000 C 
ATOM      8  O   UNL     1       2.338  12.119  -1.935  0.00  0.00    +0.000 OA
ENDBRANCH   1   8
BRANCH   6   9
ATOM      9  O   UNL     1       3.712  13.363  -0.015  0.00  0.00    +0.000 OA
ATOM     10  H   UNL     1       4.480  13.837  -0.387  0.00  0.00    +0.000 HD
ENDBRANCH   6   9
TORSDOF 2
ENDMDL
MODEL 8
REMARK VINA RESULT:    -4.437      2.034      2.588
REMARK INTER + INTRA:          -4.868
REMARK INTER:                  -4.815
REMARK INTRA:                  -0.053
REMARK UNBOUND:                -0.041
REMARK  Name = 
REMARK  3 active torsions:
REMARK  status: ('A' for Active; 'I' for Inactive)
REMARK    1  A    between atoms: C_1  and  O_2
REMARK    2  A    between atoms: O_2  and  C_3
REMARK    3  A    between atoms: C_8  and  O_9
REMARK                            x       y       z     vdW  Elec       q    Type
REMARK                         _______ _______ _______ _____ _____    ______ ____
ROOT
ATOM      1  C   UNL     1       2.445  15.085  -1.228  0.00  0.00    +0.000 A 
ATOM      2  C   UNL     1       1.115  14.671  -1.169  0.00  0.00    +0.000 A 
ATOM      3  C   UNL     1       0.495  14.146  -2.310  0.00  0.00    +0.000 A 
ATOM      4  C   UNL     1       1.198  14.033  -3.510  0.00  0.00    +0.000 A 
ATOM      5  C   UNL     1       2.528  14.444  -3.577  0.00  0.00    +0.000 A 
ATOM      6  C   UNL     1       3.135  14.964  -2.441  0.00  0.00    +0.000 A 
ENDROOT
BRANCH   1   8
ATOM      7  C   UNL     1       3.431  14.757   0.909  0.00  0.00    +0.000 C 
ATOM      8  O   UNL     1       3.176  15.616  -0.196  0.00  0.00    +0.000 OA
ENDBRANCH   1   8
BRANCH   6   9
ATOM      9  O   UNL     1       4.443  15.361  -2.531  0.00  0.00    +0.000 OA
ATOM     10  H   UNL     1       4.709  15.133  -3.442  0.00  0.00    +0.000 HD
ENDBRANCH   6   9
TORSDOF 2
ENDMDL
MODEL 9
REMARK VINA RESULT:    -4.326      1.619      2.680
REMARK INTER + INTRA:          -4.747
REMARK INTER:                  -4.704
REMARK INTRA:                  -0.043
REMARK UNBOUND:                -0.041
REMARK  Name = 
REMARK  3 active torsions:
REMARK  status: ('A' for Active; 'I' for Inactive)
REMARK    1  A    between atoms: C_1  and  O_2
REMARK    2  A    between atoms: O_2  and  C_3
REMARK    3  A    between atoms: C_8  and  O_9
REMARK                            x       y       z     vdW  Elec       q    Type
REMARK                         _______ _______ _______ _____ _____    ______ ____
ROOT
ATOM      1  C   UNL     1       2.730  13.223  -2.538  0.00  0.00    +0.000 A 
ATOM      2  C   UNL     1       3.226  13.490  -3.813  0.00  0.00    +0.000 A 
ATOM      3  C   UNL     1       2.699  14.551  -4.561  0.00  0.00    +0.000 A 
ATOM      4  C   UNL     1       1.677  15.345  -4.038  0.00  0.00    +0.000 A 
ATOM      5  C   UNL     1       1.176  15.085  -2.765  0.00  0.00    +0.000 A 
ATOM      6  C   UNL     1       1.705  14.031  -2.031  0.00  0.00    +0.000 A 
ENDROOT
BRANCH   1   8
ATOM      7  C   UNL     1       3.536  10.999  -2.313  0.00  0.00    +0.000 C 
ATOM      8  O   UNL     1       3.149  12.222  -1.698  0.00  0.00    +0.000 OA
ENDBRANCH   1   8
BRANCH   6   9
ATOM      9  O   UNL     1       1.197  13.794  -0.781  0.00  0.00    +0.000 OA
ATOM     10  H   UNL     1       1.300  12.832  -0.649  0.00  0.00    +0.000 HD
ENDBRANCH   6   9
TORSDOF 2
ENDMDL
