MODEL 1
REMARK VINA RESULT:    -5.321      0.000      0.000
REMARK INTER + INTRA:          -7.660
REMARK INTER:                  -7.188
REMARK INTRA:                  -0.472
REMARK UNBOUND:                -0.472
REMARK  Name = 
REMARK  10 active torsions:
REMARK  status: ('A' for Active; 'I' for Inactive)
REMARK    1  A    between atoms: C_1  and  C_2
REMARK    2  A    between atoms: C_5  and  N_8
REMARK    3  A    between atoms: N_8  and  C_9
REMARK    4  A    between atoms: N_8  and  C_13
REMARK    5  A    between atoms: C_9  and  C_10
REMARK    6  A    between atoms: C_10  and  C_11
REMARK    7  A    between atoms: C_10  and  O_12
REMARK    8  A    between atoms: C_13  and  C_14
REMARK    9  A    between atoms: C_14  and  C_15
REMARK   10  A    between atoms: C_14  and  O_16
REMARK                            x       y       z     vdW  Elec       q    Type
REMARK                         _______ _______ _______ _____ _____    ______ ____
ROOT
ATOM      1  N   UNL     1      15.107  -8.453   0.198  0.00  0.00    +0.000 N 
ENDROOT
BRANCH   1   6
ATOM      2  C   UNL     1      12.479  -7.169   5.175  0.00  0.00    +0.000 C 
ATOM      3  C   UNL     1      13.177  -7.484   3.887  0.00  0.00    +0.000 A 
ATOM      4  C   UNL     1      12.738  -6.938   2.685  0.00  0.00    +0.000 A 
ATOM      5  C   UNL     1      13.378  -7.259   1.477  0.00  0.00    +0.000 A 
ATOM      6  C   UNL     1      14.462  -8.152   1.403  0.00  0.00    +0.000 A 
ATOM      7  C   UNL     1      14.880  -8.683   2.638  0.00  0.00    +0.000 A 
ATOM      8  C   UNL     1      14.251  -8.368   3.853  0.00  0.00    +0.000 A 
ENDBRANCH   1   6
BRANCH   1   9
ATOM      9  C   UNL     1      15.510  -7.363  -0.723  0.00  0.00    +0.000 C 
BRANCH   9  10
ATOM     10  C   UNL     1      16.642  -6.477  -0.145  0.00  0.00    +0.000 C 
ATOM     11  C   UNL     1      17.653  -6.111  -1.225  0.00  0.00    +0.000 C 
BRANCH  10  12
ATOM     12  O   UNL     1      16.115  -5.260   0.401  0.00  0.00    +0.000 OA
ATOM     13  H   UNL     1      15.145  -5.300   0.345  0.00  0.00    +0.000 HD
ENDBRANCH  10  12
ENDBRANCH   9  10
ENDBRANCH   1   9
BRANCH   1  14
ATOM     14  C   UNL     1      14.961  -9.787  -0.441  0.00  0.00    +0.000 C 
BRANCH  14  15
ATOM     15  C   UNL     1      15.798  -9.909  -1.737  0.00  0.00    +0.000 C 
ATOM     16  C   UNL     1      17.091 -10.692  -1.545  0.00  0.00    +0.000 C 
BRANCH  15  17
ATOM     17  O   UNL     1      15.057 -10.530  -2.786  0.00  0.00    +0.000 OA
ATOM     18  H   UNL     1      15.204 -11.490  -2.665  0.00  0.00    +0.000 HD
ENDBRANCH  15  17
ENDBRANCH  14  15
ENDBRANCH   1  14
TORSDOF 7
ENDMDL
MODEL 2
REMARK VINA RESULT:    -5.283      4.934      7.197
REMARK INTER + INTRA:          -7.609
REMARK INTER:                  -7.136
REMARK INTRA:                  -0.473
REMARK UNBOUND:                -0.472
REMARK  Name = 
REMARK  10 active torsions:
REMARK  status: ('A' for Active; 'I' for Inactive)
REMARK    1  A    between atoms: C_1  and  C_2
REMARK    2  A    between atoms: C_5  and  N_8
REMARK    3  A    between atoms: N_8  and  C_9
REMARK    4  A    between atoms: N_8  and  C_13
REMARK    5  A    between atoms: C_9  and  C_10
REMARK    6  A    between atoms: C_10  and  C_11
REMARK    7  A    between atoms: C_10  and  O_12
REMARK    8  A    between atoms: C_13  and  C_14
REMARK    9  A    between atoms: C_14  and  C_15
REMARK   10  A    between atoms: C_14  and  O_16
REMARK                            x       y       z     vdW  Elec       q    Type
REMARK                         _______ _______ _______ _____ _____    ______ ____
ROOT
ATOM      1  N   UNL     1       9.967  -7.777   3.671  0.00  0.00    +0.000 N 
ENDROOT
BRANCH   1   6
ATOM      2  C   UNL     1      15.368  -9.266   5.062  0.00  0.00    +0.000 C 
ATOM      3  C   UNL     1      13.975  -8.866   4.682  0.00  0.00    +0.000 A 
ATOM      4  C   UNL     1      13.383  -7.733   5.228  0.00  0.00    +0.000 A 
ATOM      5  C   UNL     1      12.066  -7.380   4.891  0.00  0.00    +0.000 A 
ATOM      6  C   UNL     1      11.273  -8.146   4.018  0.00  0.00    +0.000 A 
ATOM      7  C   UNL     1      11.904  -9.283   3.483  0.00  0.00    +0.000 A 
ATOM      8  C   UNL     1      13.221  -9.647   3.810  0.00  0.00    +0.000 A 
ENDBRANCH   1   6
BRANCH   1   9
ATOM      9  C   UNL     1       9.639  -7.434   2.266  0.00  0.00    +0.000 C 
BRANCH   9  10
ATOM     10  C   UNL     1       9.038  -8.627   1.482  0.00  0.00    +0.000 C 
ATOM     11  C   UNL     1       7.666  -8.273   0.920  0.00  0.00    +0.000 C 
BRANCH  10  12
ATOM     12  O   UNL     1       9.884  -9.002   0.387  0.00  0.00    +0.000 OA
ATOM     13  H   UNL     1      10.788  -8.710   0.591  0.00  0.00    +0.000 HD
ENDBRANCH  10  12
ENDBRANCH   9  10
ENDBRANCH   1   9
BRANCH   1  14
ATOM     14  C   UNL     1       9.029  -7.226   4.683  0.00  0.00    +0.000 C 
BRANCH  14  15
ATOM     15  C   UNL     1       7.727  -8.056   4.786  0.00  0.00    +0.000 C 
ATOM     16  C   UNL     1       7.973  -9.560   4.778  0.00  0.00    +0.000 C 
BRANCH  15  17
ATOM     17  O   UNL     1       6.988  -7.735   5.964  0.00  0.00    +0.000 OA
ATOM     18  H   UNL     1       7.176  -8.466   6.587  0.00  0.00    +0.000 HD
ENDBRANCH  15  17
ENDBRANCH  14  15
ENDBRANCH   1  14
TORSDOF 7
ENDMDL
MODEL 3
REMARK VINA RESULT:    -5.267      0.257      3.359
REMARK INTER + INTRA:          -7.587
REMARK INTER:                  -7.066
REMARK INTRA:                  -0.521
REMARK UNBOUND:                -0.472
REMARK  Name = 
REMARK  10 active torsions:
REMARK  status: ('A' for Active; 'I' for Inactive)
REMARK    1  A    between atoms: C_1  and  C_2
REMARK    2  A    between atoms: C_5  and  N_8
REMARK    3  A    between atoms: N_8  and  C_9
REMARK    4  A    between atoms: N_8  and  C_13
REMARK    5  A    between atoms: C_9  and  C_10
REMARK    6  A    between atoms: C_10  and  C_11
REMARK    7  A    between atoms: C_10  and  O_12
REMARK    8  A    between atoms: C_13  and  C_14
REMARK    9  A    between atoms: C_14  and  C_15
REMARK   10  A    between atoms: C_14  and  O_16
REMARK                            x       y       z     vdW  Elec       q    Type
REMARK                         _______ _______ _______ _____ _____    ______ ____
ROOT
ATOM      1  N   UNL     1      14.868  -8.412  -0.109  0.00  0.00    +0.000 N 
ENDROOT
BRANCH   1   6
ATOM      2  C   UNL     1      12.675  -7.255   5.105  0.00  0.00    +0.000 C 
ATOM      3  C   UNL     1      13.228  -7.574   3.750  0.00  0.00    +0.000 A 
ATOM      4  C   UNL     1      14.319  -8.424   3.606  0.00  0.00    +0.000 A 
ATOM      5  C   UNL     1      14.852  -8.696   2.335  0.00  0.00    +0.000 A 
ATOM      6  C   UNL     1      14.343  -8.121   1.157  0.00  0.00    +0.000 A 
ATOM      7  C   UNL     1      13.239  -7.268   1.340  0.00  0.00    +0.000 A 
ATOM      8  C   UNL     1      12.695  -6.989   2.605  0.00  0.00    +0.000 A 
ENDBRANCH   1   6
BRANCH   1   9
ATOM      9  C   UNL     1      15.353  -9.779  -0.416  0.00  0.00    +0.000 C 
BRANCH   9  10
ATOM     10  C   UNL     1      16.023  -9.879  -1.808  0.00  0.00    +0.000 C 
ATOM     11  C   UNL     1      17.323 -10.671  -1.732  0.00  0.00    +0.000 C 
BRANCH  10  12
ATOM     12  O   UNL     1      15.159 -10.532  -2.749  0.00  0.00    +0.000 OA
ATOM     13  H   UNL     1      15.368 -11.481  -2.742  0.00  0.00    +0.000 HD
ENDBRANCH  10  12
ENDBRANCH   9  10
ENDBRANCH   1   9
BRANCH   1  14
ATOM     14  C   UNL     1      15.426  -7.342  -0.974  0.00  0.00    +0.000 C 
BRANCH  14  15
ATOM     15  C   UNL     1      16.595  -6.590  -0.293  0.00  0.00    +0.000 C 
ATOM     16  C   UNL     1      17.781  -6.357  -1.222  0.00  0.00    +0.000 C 
BRANCH  15  17
ATOM     17  O   UNL     1      16.181  -5.325   0.220  0.00  0.00    +0.000 OA
ATOM     18  H   UNL     1      15.751  -5.527   1.075  0.00  0.00    +0.000 HD
ENDBRANCH  15  17
ENDBRANCH  14  15
ENDBRANCH   1  14
TORSDOF 7
ENDMDL
MODEL 4
REMARK VINA RESULT:    -5.199      5.089      7.637
REMARK INTER + INTRA:          -7.495
REMARK INTER:                  -7.370
REMARK INTRA:                  -0.125
REMARK UNBOUND:                -0.472
REMARK  Name = 
REMARK  10 active torsions:
REMARK  status: ('A' for Active; 'I' for Inactive)
REMARK    1  A    between atoms: C_1  and  C_2
REMARK    2  A    between atoms: C_5  and  N_8
REMARK    3  A    between atoms: N_8  and  C_9
REMARK    4  A    between atoms: N_8  and  C_13
REMARK    5  A    between atoms: C_9  and  C_10
REMARK    6  A    between atoms: C_10  and  C_11
REMARK    7  A    between atoms: C_10  and  O_12
REMARK    8  A    between atoms: C_13  and  C_14
REMARK    9  A    between atoms: C_14  and  C_15
REMARK   10  A    between atoms: C_14  and  O_16
REMARK                            x       y       z     vdW  Elec       q    Type
REMARK                         _______ _______ _______ _____ _____    ______ ____
ROOT
ATOM      1  N   UNL     1       9.416  -7.849   3.119  0.00  0.00    +0.000 N 
ENDROOT
BRANCH   1   6
ATOM      2  C   UNL     1      14.865  -7.027   1.399  0.00  0.00    +0.000 C 
ATOM      3  C   UNL     1      13.447  -7.215   1.844  0.00  0.00    +0.000 A 
ATOM      4  C   UNL     1      13.122  -7.252   3.196  0.00  0.00    +0.000 A 
ATOM      5  C   UNL     1      11.796  -7.459   3.608  0.00  0.00    +0.000 A 
ATOM      6  C   UNL     1      10.740  -7.662   2.701  0.00  0.00    +0.000 A 
ATOM      7  C   UNL     1      11.105  -7.617   1.343  0.00  0.00    +0.000 A 
ATOM      8  C   UNL     1      12.427  -7.409   0.917  0.00  0.00    +0.000 A 
ENDBRANCH   1   6
BRANCH   1   9
ATOM      9  C   UNL     1       8.303  -7.227   2.362  0.00  0.00    +0.000 C 
BRANCH   9  10
ATOM     10  C   UNL     1       7.967  -7.987   1.056  0.00  0.00    +0.000 C 
ATOM     11  C   UNL     1       7.483  -9.401   1.358  0.00  0.00    +0.000 C 
BRANCH  10  12
ATOM     12  O   UNL     1       6.937  -7.314   0.319  0.00  0.00    +0.000 OA
ATOM     13  H   UNL     1       6.641  -6.551   0.843  0.00  0.00    +0.000 HD
ENDBRANCH  10  12
ENDBRANCH   9  10
ENDBRANCH   1   9
BRANCH   1  14
ATOM     14  C   UNL     1       9.096  -8.197   4.527  0.00  0.00    +0.000 C 
BRANCH  14  15
ATOM     15  C   UNL     1       7.571  -8.270   4.778  0.00  0.00    +0.000 C 
ATOM     16  C   UNL     1       7.041  -9.698   4.841  0.00  0.00    +0.000 C 
BRANCH  15  17
ATOM     17  O   UNL     1       7.203  -7.609   5.988  0.00  0.00    +0.000 OA
ATOM     18  H   UNL     1       6.235  -7.482   5.923  0.00  0.00    +0.000 HD
ENDBRANCH  15  17
ENDBRANCH  14  15
ENDBRANCH   1  14
TORSDOF 7
ENDMDL
MODEL 5
REMARK VINA RESULT:    -5.180      5.067      7.394
REMARK INTER + INTRA:          -7.469
REMARK INTER:                  -6.674
REMARK INTRA:                  -0.795
REMARK UNBOUND:                -0.472
REMARK  Name = 
REMARK  10 active torsions:
REMARK  status: ('A' for Active; 'I' for Inactive)
REMARK    1  A    between atoms: C_1  and  C_2
REMARK    2  A    between atoms: C_5  and  N_8
REMARK    3  A    between atoms: N_8  and  C_9
REMARK    4  A    between atoms: N_8  and  C_13
REMARK    5  A    between atoms: C_9  and  C_10
REMARK    6  A    between atoms: C_10  and  C_11
REMARK    7  A    between atoms: C_10  and  O_12
REMARK    8  A    between atoms: C_13  and  C_14
REMARK    9  A    between atoms: C_14  and  C_15
REMARK   10  A    between atoms: C_14  and  O_16
REMARK                            x       y       z     vdW  Elec       q    Type
REMARK                         _______ _______ _______ _____ _____    ______ ____
ROOT
ATOM      1  N   UNL     1       8.747  -8.485   2.106  0.00  0.00    +0.000 N 
ENDROOT
BRANCH   1   6
ATOM      2  C   UNL     1      14.281  -7.553   0.750  0.00  0.00    +0.000 C 
ATOM      3  C   UNL     1      12.851  -7.799   1.125  0.00  0.00    +0.000 A 
ATOM      4  C   UNL     1      12.291  -9.067   1.011  0.00  0.00    +0.000 A 
ATOM      5  C   UNL     1      10.942  -9.286   1.336  0.00  0.00    +0.000 A 
ATOM      6  C   UNL     1      10.086  -8.256   1.765  0.00  0.00    +0.000 A 
ATOM      7  C   UNL     1      10.687  -6.988   1.871  0.00  0.00    +0.000 A 
ATOM      8  C   UNL     1      12.035  -6.756   1.551  0.00  0.00    +0.000 A 
ENDBRANCH   1   6
BRANCH   1   9
ATOM      9  C   UNL     1       8.409  -9.134   3.396  0.00  0.00    +0.000 C 
BRANCH   9  10
ATOM     10  C   UNL     1       8.387  -8.137   4.581  0.00  0.00    +0.000 C 
ATOM     11  C   UNL     1       9.769  -8.008   5.210  0.00  0.00    +0.000 C 
BRANCH  10  12
ATOM     12  O   UNL     1       7.971  -6.834   4.150  0.00  0.00    +0.000 OA
ATOM     13  H   UNL     1       8.546  -6.178   4.577  0.00  0.00    +0.000 HD
ENDBRANCH  10  12
ENDBRANCH   9  10
ENDBRANCH   1   9
BRANCH   1  14
ATOM     14  C   UNL     1       7.694  -8.583   1.063  0.00  0.00    +0.000 C 
BRANCH  14  15
ATOM     15  C   UNL     1       7.321  -7.200   0.478  0.00  0.00    +0.000 C 
ATOM     16  C   UNL     1       6.052  -7.228  -0.365  0.00  0.00    +0.000 C 
BRANCH  15  17
ATOM     17  O   UNL     1       7.149  -6.222   1.503  0.00  0.00    +0.000 OA
ATOM     18  H   UNL     1       6.256  -6.391   1.865  0.00  0.00    +0.000 HD
ENDBRANCH  15  17
ENDBRANCH  14  15
ENDBRANCH   1  14
TORSDOF 7
ENDMDL
MODEL 6
REMARK VINA RESULT:    -5.141      7.149      9.007
REMARK INTER + INTRA:          -7.417
REMARK INTER:                  -6.683
REMARK INTRA:                  -0.735
REMARK UNBOUND:                -0.472
REMARK  Name = 
REMARK  10 active torsions:
REMARK  status: ('A' for Active; 'I' for Inactive)
REMARK    1  A    between atoms: C_1  and  C_2
REMARK    2  A    between atoms: C_5  and  N_8
REMARK    3  A    between atoms: N_8  and  C_9
REMARK    4  A    between atoms: N_8  and  C_13
REMARK    5  A    between atoms: C_9  and  C_10
REMARK    6  A    between atoms: C_10  and  C_11
REMARK    7  A    between atoms: C_10  and  O_12
REMARK    8  A    between atoms: C_13  and  C_14
REMARK    9  A    between atoms: C_14  and  C_15
REMARK   10  A    between atoms: C_14  and  O_16
REMARK                            x       y       z     vdW  Elec       q    Type
REMARK                         _______ _______ _______ _____ _____    ______ ____
ROOT
ATOM      1  N   UNL     1       8.374  -9.384   3.134  0.00  0.00    +0.000 N 
ENDROOT
BRANCH   1   6
ATOM      2  C   UNL     1       3.420 -12.323   2.741  0.00  0.00    +0.000 C 
ATOM      3  C   UNL     1       4.718 -11.581   2.840  0.00  0.00    +0.000 A 
ATOM      4  C   UNL     1       5.325 -11.364   4.072  0.00  0.00    +0.000 A 
ATOM      5  C   UNL     1       6.526 -10.642   4.162  0.00  0.00    +0.000 A 
ATOM      6  C   UNL     1       7.165 -10.086   3.039  0.00  0.00    +0.000 A 
ATOM      7  C   UNL     1       6.526 -10.327   1.810  0.00  0.00    +0.000 A 
ATOM      8  C   UNL     1       5.325 -11.049   1.706  0.00  0.00    +0.000 A 
ENDBRANCH   1   6
BRANCH   1   9
ATOM      9  C   UNL     1       8.858  -8.580   1.985  0.00  0.00    +0.000 C 
BRANCH   9  10
ATOM     10  C   UNL     1       8.310  -7.132   1.992  0.00  0.00    +0.000 C 
ATOM     11  C   UNL     1       7.370  -6.900   0.815  0.00  0.00    +0.000 C 
BRANCH  10  12
ATOM     12  O   UNL     1       7.585  -6.862   3.200  0.00  0.00    +0.000 OA
ATOM     13  H   UNL     1       8.042  -7.308   3.932  0.00  0.00    +0.000 HD
ENDBRANCH  10  12
ENDBRANCH   9  10
ENDBRANCH   1   9
BRANCH   1  14
ATOM     14  C   UNL     1       9.427  -9.792   4.099  0.00  0.00    +0.000 C 
BRANCH  14  15
ATOM     15  C   UNL     1       9.609  -8.758   5.236  0.00  0.00    +0.000 C 
ATOM     16  C   UNL     1      10.653  -7.694   4.917  0.00  0.00    +0.000 C 
BRANCH  15  17
ATOM     17  O   UNL     1       8.384  -8.095   5.548  0.00  0.00    +0.000 OA
ATOM     18  H   UNL     1       8.227  -7.488   4.797  0.00  0.00    +0.000 HD
ENDBRANCH  15  17
ENDBRANCH  14  15
ENDBRANCH   1  14
TORSDOF 7
ENDMDL
MODEL 7
REMARK VINA RESULT:    -5.013      1.776      3.431
REMARK INTER + INTRA:          -7.244
REMARK INTER:                  -6.654
REMARK INTRA:                  -0.590
REMARK UNBOUND:                -0.472
REMARK  Name = 
REMARK  10 active torsions:
REMARK  status: ('A' for Active; 'I' for Inactive)
REMARK    1  A    between atoms: C_1  and  C_2
REMARK    2  A    between atoms: C_5  and  N_8
REMARK    3  A    between atoms: N_8  and  C_9
REMARK    4  A    between atoms: N_8  and  C_13
REMARK    5  A    between atoms: C_9  and  C_10
REMARK    6  A    between atoms: C_10  and  C_11
REMARK    7  A    between atoms: C_10  and  O_12
REMARK    8  A    between atoms: C_13  and  C_14
REMARK    9  A    between atoms: C_14  and  C_15
REMARK   10  A    between atoms: C_14  and  O_16
REMARK                            x       y       z     vdW  Elec       q    Type
REMARK                         _______ _______ _______ _____ _____    ______ ____
ROOT
ATOM      1  N   UNL     1      14.961  -8.203   0.213  0.00  0.00    +0.000 N 
ENDROOT
BRANCH   1   6
ATOM      2  C   UNL     1       9.632  -7.274   2.229  0.00  0.00    +0.000 C 
ATOM      3  C   UNL     1      11.009  -7.502   1.685  0.00  0.00    +0.000 A 
ATOM      4  C   UNL     1      11.300  -8.631   0.927  0.00  0.00    +0.000 A 
ATOM      5  C   UNL     1      12.600  -8.854   0.445  0.00  0.00    +0.000 A 
ATOM      6  C   UNL     1      13.672  -7.984   0.713  0.00  0.00    +0.000 A 
ATOM      7  C   UNL     1      13.341  -6.852   1.481  0.00  0.00    +0.000 A 
ATOM      8  C   UNL     1      12.044  -6.615   1.967  0.00  0.00    +0.000 A 
ENDBRANCH   1   6
BRANCH   1   9
ATOM      9  C   UNL     1      15.187  -9.220  -0.842  0.00  0.00    +0.000 C 
BRANCH   9  10
ATOM     10  C   UNL     1      14.910  -8.679  -2.266  0.00  0.00    +0.000 C 
ATOM     11  C   UNL     1      16.198  -8.594  -3.076  0.00  0.00    +0.000 C 
BRANCH  10  12
ATOM     12  O   UNL     1      13.997  -9.530  -2.972  0.00  0.00    +0.000 OA
ATOM     13  H   UNL     1      14.007  -9.272  -3.909  0.00  0.00    +0.000 HD
ENDBRANCH  10  12
ENDBRANCH   9  10
ENDBRANCH   1   9
BRANCH   1  14
ATOM     14  C   UNL     1      16.165  -7.853   1.011  0.00  0.00    +0.000 C 
BRANCH  14  15
ATOM     15  C   UNL     1      16.918  -6.633   0.428  0.00  0.00    +0.000 C 
ATOM     16  C   UNL     1      18.198  -7.013  -0.307  0.00  0.00    +0.000 C 
BRANCH  15  17
ATOM     17  O   UNL     1      16.098  -5.887  -0.470  0.00  0.00    +0.000 OA
ATOM     18  H   UNL     1      16.131  -6.382  -1.314  0.00  0.00    +0.000 HD
ENDBRANCH  15  17
ENDBRANCH  14  15
ENDBRANCH   1  14
TORSDOF 7
ENDMDL
MODEL 8
REMARK VINA RESULT:    -4.983      4.798      6.977
REMARK INTER + INTRA:          -7.203
REMARK INTER:                  -6.763
REMARK INTRA:                  -0.440
REMARK UNBOUND:                -0.472
REMARK  Name = 
REMARK  10 active torsions:
REMARK  status: ('A' for Active; 'I' for Inactive)
REMARK    1  A    between atoms: C_1  and  C_2
REMARK    2  A    between atoms: C_5  and  N_8
REMARK    3  A    between atoms: N_8  and  C_9
REMARK    4  A    between atoms: N_8  and  C_13
REMARK    5  A    between atoms: C_9  and  C_10
REMARK    6  A    between atoms: C_10  and  C_11
REMARK    7  A    between atoms: C_10  and  O_12
REMARK    8  A    between atoms: C_13  and  C_14
REMARK    9  A    between atoms: C_14  and  C_15
REMARK   10  A    between atoms: C_14  and  O_16
REMARK                            x       y       z     vdW  Elec       q    Type
REMARK                         _______ _______ _______ _____ _____    ______ ____
ROOT
ATOM      1  N   UNL     1       9.382  -8.606   2.203  0.00  0.00    +0.000 N 
ENDROOT
BRANCH   1   6
ATOM      2  C   UNL     1      14.774  -6.866   1.096  0.00  0.00    +0.000 C 
ATOM      3  C   UNL     1      13.384  -7.337   1.395  0.00  0.00    +0.000 A 
ATOM      4  C   UNL     1      12.691  -8.138   0.493  0.00  0.00    +0.000 A 
ATOM      5  C   UNL     1      11.377  -8.552   0.765  0.00  0.00    +0.000 A 
ATOM      6  C   UNL     1      10.685  -8.173   1.929  0.00  0.00    +0.000 A 
ATOM      7  C   UNL     1      11.416  -7.365   2.819  0.00  0.00    +0.000 A 
ATOM      8  C   UNL     1      12.732  -6.946   2.561  0.00  0.00    +0.000 A 
ENDBRANCH   1   6
BRANCH   1   9
ATOM      9  C   UNL     1       8.951  -8.825   3.605  0.00  0.00    +0.000 C 
BRANCH   9  10
ATOM     10  C   UNL     1       7.941  -7.759   4.096  0.00  0.00    +0.000 C 
ATOM     11  C   UNL     1       8.516  -6.960   5.260  0.00  0.00    +0.000 C 
BRANCH  10  12
ATOM     12  O   UNL     1       7.613  -6.839   3.046  0.00  0.00    +0.000 OA
ATOM     13  H   UNL     1       8.017  -5.981   3.259  0.00  0.00    +0.000 HD
ENDBRANCH  10  12
ENDBRANCH   9  10
ENDBRANCH   1   9
BRANCH   1  14
ATOM     14  C   UNL     1       8.582  -9.332   1.183  0.00  0.00    +0.000 C 
BRANCH  14  15
ATOM     15  C   UNL     1       8.008 -10.662   1.729  0.00  0.00    +0.000 C 
ATOM     16  C   UNL     1       6.485 -10.678   1.788  0.00  0.00    +0.000 C 
BRANCH  15  17
ATOM     17  O   UNL     1       8.431 -11.778   0.948  0.00  0.00    +0.000 OA
ATOM     18  H   UNL     1       8.861 -12.384   1.585  0.00  0.00    +0.000 HD
ENDBRANCH  15  17
ENDBRANCH  14  15
ENDBRANCH   1  14
TORSDOF 7
ENDMDL
MODEL 9
REMARK VINA RESULT:    -4.975      4.309      6.652
REMARK INTER + INTRA:          -7.193
REMARK INTER:                  -6.708
REMARK INTRA:                  -0.485
REMARK UNBOUND:                -0.472
REMARK  Name = 
REMARK  10 active torsions:
REMARK  status: ('A' for Active; 'I' for Inactive)
REMARK    1  A    between atoms: C_1  and  C_2
REMARK    2  A    between atoms: C_5  and  N_8
REMARK    3  A    between atoms: N_8  and  C_9
REMARK    4  A    between atoms: N_8  and  C_13
REMARK    5  A    between atoms: C_9  and  C_10
REMARK    6  A    between atoms: C_10  and  C_11
REMARK    7  A    between atoms: C_10  and  O_12
REMARK    8  A    between atoms: C_13  and  C_14
REMARK    9  A    between atoms: C_14  and  C_15
REMARK   10  A    between atoms: C_14  and  O_16
REMARK                            x       y       z     vdW  Elec       q    Type
REMARK                         _______ _______ _______ _____ _____    ______ ____
ROOT
ATOM      1  N   UNL     1      10.096  -7.231   3.064  0.00  0.00    +0.000 N 
ENDROOT
BRANCH   1   6
ATOM      2  C   UNL     1      15.703  -8.062   1.965  0.00  0.00    +0.000 C 
ATOM      3  C   UNL     1      14.242  -7.866   2.235  0.00  0.00    +0.000 A 
ATOM      4  C   UNL     1      13.480  -7.007   1.451  0.00  0.00    +0.000 A 
ATOM      5  C   UNL     1      12.118  -6.804   1.728  0.00  0.00    +0.000 A 
ATOM      6  C   UNL     1      11.460  -7.423   2.805  0.00  0.00    +0.000 A 
ATOM      7  C   UNL     1      12.261  -8.286   3.575  0.00  0.00    +0.000 A 
ATOM      8  C   UNL     1      13.623  -8.500   3.308  0.00  0.00    +0.000 A 
ENDBRANCH   1   6
BRANCH   1   9
ATOM      9  C   UNL     1       9.610  -7.145   4.462  0.00  0.00    +0.000 C 
BRANCH   9  10
ATOM     10  C   UNL     1       8.484  -8.163   4.769  0.00  0.00    +0.000 C 
ATOM     11  C   UNL     1       9.064  -9.491   5.242  0.00  0.00    +0.000 C 
BRANCH  10  12
ATOM     12  O   UNL     1       7.609  -7.670   5.793  0.00  0.00    +0.000 OA
ATOM     13  H   UNL     1       7.929  -8.001   6.648  0.00  0.00    +0.000 HD
ENDBRANCH  10  12
ENDBRANCH   9  10
ENDBRANCH   1   9
BRANCH   1  14
ATOM     14  C   UNL     1       9.064  -7.610   2.065  0.00  0.00    +0.000 C 
BRANCH  14  15
ATOM     15  C   UNL     1       9.219  -9.075   1.591  0.00  0.00    +0.000 C 
ATOM     16  C   UNL     1       7.892  -9.819   1.500  0.00  0.00    +0.000 C 
BRANCH  15  17
ATOM     17  O   UNL     1       9.857  -9.151   0.317  0.00  0.00    +0.000 OA
ATOM     18  H   UNL     1       9.687 -10.063   0.004  0.00  0.00    +0.000 HD
ENDBRANCH  15  17
ENDBRANCH  14  15
ENDBRANCH   1  14
TORSDOF 7
ENDMDL
