MODEL 1
REMARK VINA RESULT:    -5.996      0.000      0.000
REMARK INTER + INTRA:          -8.627
REMARK INTER:                  -8.099
REMARK INTRA:                  -0.528
REMARK UNBOUND:                -0.528
REMARK  Name = 
REMARK  10 active torsions:
REMARK  status: ('A' for Active; 'I' for Inactive)
REMARK    1  A    between atoms: C_1  and  C_2
REMARK    2  A    between atoms: C_5  and  N_8
REMARK    3  A    between atoms: N_8  and  C_9
REMARK    4  A    between atoms: N_8  and  C_13
REMARK    5  A    between atoms: C_9  and  C_10
REMARK    6  A    between atoms: C_10  and  C_11
REMARK    7  A    between atoms: C_10  and  O_12
REMARK    8  A    between atoms: C_13  and  C_14
REMARK    9  A    between atoms: C_14  and  C_15
REMARK   10  A    between atoms: C_14  and  O_16
REMARK                            x       y       z     vdW  Elec       q    Type
REMARK                         _______ _______ _______ _____ _____    ______ ____
ROOT
ATOM      1  N   UNL     1       1.346  14.830  -2.278  0.00  0.00    +0.000 N 
ENDROOT
BRANCH   1   6
ATOM      2  C   UNL     1      -0.894  19.763  -0.284  0.00  0.00    +0.000 C 
ATOM      3  C   UNL     1      -0.301  18.480  -0.780  0.00  0.00    +0.000 A 
ATOM      4  C   UNL     1       0.910  18.470  -1.464  0.00  0.00    +0.000 A 
ATOM      5  C   UNL     1       1.446  17.267  -1.953  0.00  0.00    +0.000 A 
ATOM      6  C   UNL     1       0.796  16.028  -1.806  0.00  0.00    +0.000 A 
ATOM      7  C   UNL     1      -0.424  16.076  -1.107  0.00  0.00    +0.000 A 
ATOM      8  C   UNL     1      -0.971  17.271  -0.611  0.00  0.00    +0.000 A 
ENDBRANCH   1   6
BRANCH   1   9
ATOM      9  C   UNL     1       1.158  14.434  -3.695  0.00  0.00    +0.000 C 
BRANCH   9  10
ATOM     10  C   UNL     1       2.292  14.945  -4.617  0.00  0.00    +0.000 C 
ATOM     11  C   UNL     1       3.563  14.126  -4.423  0.00  0.00    +0.000 C 
BRANCH  10  12
ATOM     12  O   UNL     1       1.913  14.856  -5.997  0.00  0.00    +0.000 OA
ATOM     13  H   UNL     1       1.547  15.715  -6.265  0.00  0.00    +0.000 HD
ENDBRANCH  10  12
ENDBRANCH   9  10
ENDBRANCH   1   9
BRANCH   1  14
ATOM     14  C   UNL     1       1.663  13.712  -1.354  0.00  0.00    +0.000 C 
BRANCH  14  15
ATOM     15  C   UNL     1       3.079  13.841  -0.743  0.00  0.00    +0.000 C 
ATOM     16  C   UNL     1       3.083  14.511   0.626  0.00  0.00    +0.000 C 
BRANCH  15  17
ATOM     17  O   UNL     1       3.716  12.571  -0.615  0.00  0.00    +0.000 OA
ATOM     18  H   UNL     1       3.013  11.966  -0.303  0.00  0.00    +0.000 HD
ENDBRANCH  15  17
ENDBRANCH  14  15
ENDBRANCH   1  14
TORSDOF 7
ENDMDL
MODEL 2
REMARK VINA RESULT:    -5.968      0.049      1.191
REMARK INTER + INTRA:          -8.589
REMARK INTER:                  -8.086
REMARK INTRA:                  -0.503
REMARK UNBOUND:                -0.528
REMARK  Name = 
REMARK  10 active torsions:
REMARK  status: ('A' for Active; 'I' for Inactive)
REMARK    1  A    between atoms: C_1  and  C_2
REMARK    2  A    between atoms: C_5  and  N_8
REMARK    3  A    between atoms: N_8  and  C_9
REMARK    4  A    between atoms: N_8  and  C_13
REMARK    5  A    between atoms: C_9  and  C_10
REMARK    6  A    between atoms: C_10  and  C_11
REMARK    7  A    between atoms: C_10  and  O_12
REMARK    8  A    between atoms: C_13  and  C_14
REMARK    9  A    between atoms: C_14  and  C_15
REMARK   10  A    between atoms: C_14  and  O_16
REMARK                            x       y       z     vdW  Elec       q    Type
REMARK                         _______ _______ _______ _____ _____    ______ ____
ROOT
ATOM      1  N   UNL     1       1.350  14.841  -2.269  0.00  0.00    +0.000 N 
ENDROOT
BRANCH   1   6
ATOM      2  C   UNL     1      -0.957  19.754  -0.303  0.00  0.00    +0.000 C 
ATOM      3  C   UNL     1      -0.371  18.482  -0.835  0.00  0.00    +0.000 A 
ATOM      4  C   UNL     1      -1.004  17.262  -0.627  0.00  0.00    +0.000 A 
ATOM      5  C   UNL     1      -0.434  16.069  -1.102  0.00  0.00    +0.000 A 
ATOM      6  C   UNL     1       0.797  16.032  -1.781  0.00  0.00    +0.000 A 
ATOM      7  C   UNL     1       1.408  17.284  -1.976  0.00  0.00    +0.000 A 
ATOM      8  C   UNL     1       0.848  18.484  -1.508  0.00  0.00    +0.000 A 
ENDBRANCH   1   6
BRANCH   1   9
ATOM      9  C   UNL     1       1.146  14.452  -3.685  0.00  0.00    +0.000 C 
BRANCH   9  10
ATOM     10  C   UNL     1       2.266  14.972  -4.619  0.00  0.00    +0.000 C 
ATOM     11  C   UNL     1       3.548  14.170  -4.431  0.00  0.00    +0.000 C 
BRANCH  10  12
ATOM     12  O   UNL     1       1.877  14.873  -5.995  0.00  0.00    +0.000 OA
ATOM     13  H   UNL     1       0.906  14.840  -6.033  0.00  0.00    +0.000 HD
ENDBRANCH  10  12
ENDBRANCH   9  10
ENDBRANCH   1   9
BRANCH   1  14
ATOM     14  C   UNL     1       1.688  13.719  -1.356  0.00  0.00    +0.000 C 
BRANCH  14  15
ATOM     15  C   UNL     1       3.104  13.865  -0.751  0.00  0.00    +0.000 C 
ATOM     16  C   UNL     1       3.110  14.570   0.601  0.00  0.00    +0.000 C 
BRANCH  15  17
ATOM     17  O   UNL     1       3.742  12.598  -0.590  0.00  0.00    +0.000 OA
ATOM     18  H   UNL     1       3.040  12.002  -0.259  0.00  0.00    +0.000 HD
ENDBRANCH  15  17
ENDBRANCH  14  15
ENDBRANCH   1  14
TORSDOF 7
ENDMDL
MODEL 3
REMARK VINA RESULT:    -5.676      0.895      3.229
REMARK INTER + INTRA:          -8.195
REMARK INTER:                  -7.823
REMARK INTRA:                  -0.372
REMARK UNBOUND:                -0.528
REMARK  Name = 
REMARK  10 active torsions:
REMARK  status: ('A' for Active; 'I' for Inactive)
REMARK    1  A    between atoms: C_1  and  C_2
REMARK    2  A    between atoms: C_5  and  N_8
REMARK    3  A    between atoms: N_8  and  C_9
REMARK    4  A    between atoms: N_8  and  C_13
REMARK    5  A    between atoms: C_9  and  C_10
REMARK    6  A    between atoms: C_10  and  C_11
REMARK    7  A    between atoms: C_10  and  O_12
REMARK    8  A    between atoms: C_13  and  C_14
REMARK    9  A    between atoms: C_14  and  C_15
REMARK   10  A    between atoms: C_14  and  O_16
REMARK                            x       y       z     vdW  Elec       q    Type
REMARK                         _______ _______ _______ _____ _____    ______ ____
ROOT
ATOM      1  N   UNL     1       1.703  15.485  -2.205  0.00  0.00    +0.000 N 
ENDROOT
BRANCH   1   6
ATOM      2  C   UNL     1      -1.800  19.525  -0.030  0.00  0.00    +0.000 C 
ATOM      3  C   UNL     1      -0.878  18.477  -0.573  0.00  0.00    +0.000 A 
ATOM      4  C   UNL     1       0.263  18.828  -1.287  0.00  0.00    +0.000 A 
ATOM      5  C   UNL     1       1.107  17.841  -1.820  0.00  0.00    +0.000 A 
ATOM      6  C   UNL     1       0.846  16.465  -1.689  0.00  0.00    +0.000 A 
ATOM      7  C   UNL     1      -0.314  16.146  -0.959  0.00  0.00    +0.000 A 
ATOM      8  C   UNL     1      -1.166  17.124  -0.420  0.00  0.00    +0.000 A 
ENDBRANCH   1   6
BRANCH   1   9
ATOM      9  C   UNL     1       3.057  15.302  -1.629  0.00  0.00    +0.000 C 
BRANCH   9  10
ATOM     10  C   UNL     1       3.111  14.170  -0.573  0.00  0.00    +0.000 C 
ATOM     11  C   UNL     1       3.121  14.743   0.840  0.00  0.00    +0.000 C 
BRANCH  10  12
ATOM     12  O   UNL     1       1.977  13.301  -0.691  0.00  0.00    +0.000 OA
ATOM     13  H   UNL     1       1.454  13.591  -1.457  0.00  0.00    +0.000 HD
ENDBRANCH  10  12
ENDBRANCH   9  10
ENDBRANCH   1   9
BRANCH   1  14
ATOM     14  C   UNL     1       1.541  14.975  -3.591  0.00  0.00    +0.000 C 
BRANCH  14  15
ATOM     15  C   UNL     1       2.901  14.752  -4.295  0.00  0.00    +0.000 C 
ATOM     16  C   UNL     1       3.362  13.299  -4.264  0.00  0.00    +0.000 C 
BRANCH  15  17
ATOM     17  O   UNL     1       2.866  15.175  -5.657  0.00  0.00    +0.000 OA
ATOM     18  H   UNL     1       3.621  14.721  -6.082  0.00  0.00    +0.000 HD
ENDBRANCH  15  17
ENDBRANCH  14  15
ENDBRANCH   1  14
TORSDOF 7
ENDMDL
MODEL 4
REMARK VINA RESULT:    -5.559      1.658      2.207
REMARK INTER + INTRA:          -8.037
REMARK INTER:                  -7.525
REMARK INTRA:                  -0.512
REMARK UNBOUND:                -0.528
REMARK  Name = 
REMARK  10 active torsions:
REMARK  status: ('A' for Active; 'I' for Inactive)
REMARK    1  A    between atoms: C_1  and  C_2
REMARK    2  A    between atoms: C_5  and  N_8
REMARK    3  A    between atoms: N_8  and  C_9
REMARK    4  A    between atoms: N_8  and  C_13
REMARK    5  A    between atoms: C_9  and  C_10
REMARK    6  A    between atoms: C_10  and  C_11
REMARK    7  A    between atoms: C_10  and  O_12
REMARK    8  A    between atoms: C_13  and  C_14
REMARK    9  A    between atoms: C_14  and  C_15
REMARK   10  A    between atoms: C_14  and  O_16
REMARK                            x       y       z     vdW  Elec       q    Type
REMARK                         _______ _______ _______ _____ _____    ______ ____
ROOT
ATOM      1  N   UNL     1       2.242  15.302  -2.266  0.00  0.00    +0.000 N 
ENDROOT
BRANCH   1   6
ATOM      2  C   UNL     1      -2.001  18.809  -0.527  0.00  0.00    +0.000 C 
ATOM      3  C   UNL     1      -0.912  17.896  -1.000  0.00  0.00    +0.000 A 
ATOM      4  C   UNL     1      -0.976  16.526  -0.768  0.00  0.00    +0.000 A 
ATOM      5  C   UNL     1       0.063  15.679  -1.187  0.00  0.00    +0.000 A 
ATOM      6  C   UNL     1       1.219  16.155  -1.833  0.00  0.00    +0.000 A 
ATOM      7  C   UNL     1       1.249  17.544  -2.053  0.00  0.00    +0.000 A 
ATOM      8  C   UNL     1       0.216  18.402  -1.640  0.00  0.00    +0.000 A 
ENDBRANCH   1   6
BRANCH   1   9
ATOM      9  C   UNL     1       1.915  14.087  -3.050  0.00  0.00    +0.000 C 
BRANCH   9  10
ATOM     10  C   UNL     1       3.076  13.063  -3.082  0.00  0.00    +0.000 C 
ATOM     11  C   UNL     1       2.678  11.765  -2.389  0.00  0.00    +0.000 C 
BRANCH  10  12
ATOM     12  O   UNL     1       3.448  12.749  -4.432  0.00  0.00    +0.000 OA
ATOM     13  H   UNL     1       4.401  12.561  -4.445  0.00  0.00    +0.000 HD
ENDBRANCH  10  12
ENDBRANCH   9  10
ENDBRANCH   1   9
BRANCH   1  14
ATOM     14  C   UNL     1       3.555  15.263  -1.573  0.00  0.00    +0.000 C 
BRANCH  14  15
ATOM     15  C   UNL     1       3.427  15.563  -0.060  0.00  0.00    +0.000 C 
ATOM     16  C   UNL     1       3.017  14.345   0.760  0.00  0.00    +0.000 C 
BRANCH  15  17
ATOM     17  O   UNL     1       4.644  16.072   0.482  0.00  0.00    +0.000 OA
ATOM     18  H   UNL     1       5.244  16.164  -0.286  0.00  0.00    +0.000 HD
ENDBRANCH  15  17
ENDBRANCH  14  15
ENDBRANCH   1  14
TORSDOF 7
ENDMDL
MODEL 5
REMARK VINA RESULT:    -5.496      1.631      3.576
REMARK INTER + INTRA:          -7.952
REMARK INTER:                  -7.443
REMARK INTRA:                  -0.509
REMARK UNBOUND:                -0.528
REMARK  Name = 
REMARK  10 active torsions:
REMARK  status: ('A' for Active; 'I' for Inactive)
REMARK    1  A    between atoms: C_1  and  C_2
REMARK    2  A    between atoms: C_5  and  N_8
REMARK    3  A    between atoms: N_8  and  C_9
REMARK    4  A    between atoms: N_8  and  C_13
REMARK    5  A    between atoms: C_9  and  C_10
REMARK    6  A    between atoms: C_10  and  C_11
REMARK    7  A    between atoms: C_10  and  O_12
REMARK    8  A    between atoms: C_13  and  C_14
REMARK    9  A    between atoms: C_14  and  C_15
REMARK   10  A    between atoms: C_14  and  O_16
REMARK                            x       y       z     vdW  Elec       q    Type
REMARK                         _______ _______ _______ _____ _____    ______ ____
ROOT
ATOM      1  N   UNL     1       2.002  14.758  -1.062  0.00  0.00    +0.000 N 
ENDROOT
BRANCH   1   6
ATOM      2  C   UNL     1      -1.468  19.369  -0.875  0.00  0.00    +0.000 C 
ATOM      3  C   UNL     1      -0.585  18.160  -0.937  0.00  0.00    +0.000 A 
ATOM      4  C   UNL     1      -0.634  17.188   0.055  0.00  0.00    +0.000 A 
ATOM      5  C   UNL     1       0.217  16.072   0.008  0.00  0.00    +0.000 A 
ATOM      6  C   UNL     1       1.169  15.883  -1.011  0.00  0.00    +0.000 A 
ATOM      7  C   UNL     1       1.190  16.885  -1.998  0.00  0.00    +0.000 A 
ATOM      8  C   UNL     1       0.342  18.005  -1.964  0.00  0.00    +0.000 A 
ENDBRANCH   1   6
BRANCH   1   9
ATOM      9  C   UNL     1       3.472  14.916  -0.951  0.00  0.00    +0.000 C 
BRANCH   9  10
ATOM     10  C   UNL     1       3.908  15.541   0.397  0.00  0.00    +0.000 C 
ATOM     11  C   UNL     1       3.806  14.524   1.527  0.00  0.00    +0.000 C 
BRANCH  10  12
ATOM     12  O   UNL     1       5.265  16.002   0.335  0.00  0.00    +0.000 OA
ATOM     13  H   UNL     1       5.558  16.197   1.241  0.00  0.00    +0.000 HD
ENDBRANCH  10  12
ENDBRANCH   9  10
ENDBRANCH   1   9
BRANCH   1  14
ATOM     14  C   UNL     1       1.556  13.502  -1.717  0.00  0.00    +0.000 C 
BRANCH  14  15
ATOM     15  C   UNL     1       2.040  13.403  -3.184  0.00  0.00    +0.000 C 
ATOM     16  C   UNL     1       2.889  12.167  -3.453  0.00  0.00    +0.000 C 
BRANCH  15  17
ATOM     17  O   UNL     1       0.947  13.397  -4.100  0.00  0.00    +0.000 OA
ATOM     18  H   UNL     1       0.197  13.018  -3.597  0.00  0.00    +0.000 HD
ENDBRANCH  15  17
ENDBRANCH  14  15
ENDBRANCH   1  14
TORSDOF 7
ENDMDL
MODEL 6
REMARK VINA RESULT:    -5.318      3.485      5.974
REMARK INTER + INTRA:          -7.711
REMARK INTER:                  -7.260
REMARK INTRA:                  -0.451
REMARK UNBOUND:                -0.528
REMARK  Name = 
REMARK  10 active torsions:
REMARK  status: ('A' for Active; 'I' for Inactive)
REMARK    1  A    between atoms: C_1  and  C_2
REMARK    2  A    between atoms: C_5  and  N_8
REMARK    3  A    between atoms: N_8  and  C_9
REMARK    4  A    between atoms: N_8  and  C_13
REMARK    5  A    between atoms: C_9  and  C_10
REMARK    6  A    between atoms: C_10  and  C_11
REMARK    7  A    between atoms: C_10  and  O_12
REMARK    8  A    between atoms: C_13  and  C_14
REMARK    9  A    between atoms: C_14  and  C_15
REMARK   10  A    between atoms: C_14  and  O_16
REMARK                            x       y       z     vdW  Elec       q    Type
REMARK                         _______ _______ _______ _____ _____    ______ ____
ROOT
ATOM      1  N   UNL     1      -0.451  17.901  -0.555  0.00  0.00    +0.000 N 
ENDROOT
BRANCH   1   6
ATOM      2  C   UNL     1       2.882  13.376  -1.875  0.00  0.00    +0.000 C 
ATOM      3  C   UNL     1       2.013  14.541  -1.509  0.00  0.00    +0.000 A 
ATOM      4  C   UNL     1       0.644  14.515  -1.750  0.00  0.00    +0.000 A 
ATOM      5  C   UNL     1      -0.160  15.621  -1.433  0.00  0.00    +0.000 A 
ATOM      6  C   UNL     1       0.359  16.809  -0.887  0.00  0.00    +0.000 A 
ATOM      7  C   UNL     1       1.747  16.799  -0.655  0.00  0.00    +0.000 A 
ATOM      8  C   UNL     1       2.563  15.698  -0.965  0.00  0.00    +0.000 A 
ENDBRANCH   1   6
BRANCH   1   9
ATOM      9  C   UNL     1       0.095  19.278  -0.617  0.00  0.00    +0.000 C 
BRANCH   9  10
ATOM     10  C   UNL     1       0.293  19.780  -2.069  0.00  0.00    +0.000 C 
ATOM     11  C   UNL     1      -0.813  20.750  -2.466  0.00  0.00    +0.000 C 
BRANCH  10  12
ATOM     12  O   UNL     1       1.550  20.456  -2.213  0.00  0.00    +0.000 OA
ATOM     13  H   UNL     1       1.510  20.997  -3.019  0.00  0.00    +0.000 HD
ENDBRANCH  10  12
ENDBRANCH   9  10
ENDBRANCH   1   9
BRANCH   1  14
ATOM     14  C   UNL     1      -1.638  17.739   0.324  0.00  0.00    +0.000 C 
BRANCH  14  15
ATOM     15  C   UNL     1      -2.618  18.931   0.208  0.00  0.00    +0.000 C 
ATOM     16  C   UNL     1      -3.999  18.525  -0.292  0.00  0.00    +0.000 C 
BRANCH  15  17
ATOM     17  O   UNL     1      -2.780  19.604   1.456  0.00  0.00    +0.000 OA
ATOM     18  H   UNL     1      -1.880  19.897   1.704  0.00  0.00    +0.000 HD
ENDBRANCH  15  17
ENDBRANCH  14  15
ENDBRANCH   1  14
TORSDOF 7
ENDMDL
MODEL 7
REMARK VINA RESULT:    -5.303      3.420      6.268
REMARK INTER + INTRA:          -7.691
REMARK INTER:                  -7.202
REMARK INTRA:                  -0.489
REMARK UNBOUND:                -0.528
REMARK  Name = 
REMARK  10 active torsions:
REMARK  status: ('A' for Active; 'I' for Inactive)
REMARK    1  A    between atoms: C_1  and  C_2
REMARK    2  A    between atoms: C_5  and  N_8
REMARK    3  A    between atoms: N_8  and  C_9
REMARK    4  A    between atoms: N_8  and  C_13
REMARK    5  A    between atoms: C_9  and  C_10
REMARK    6  A    between atoms: C_10  and  C_11
REMARK    7  A    between atoms: C_10  and  O_12
REMARK    8  A    between atoms: C_13  and  C_14
REMARK    9  A    between atoms: C_14  and  C_15
REMARK   10  A    between atoms: C_14  and  O_16
REMARK                            x       y       z     vdW  Elec       q    Type
REMARK                         _______ _______ _______ _____ _____    ______ ____
ROOT
ATOM      1  N   UNL     1      -0.090  18.261  -0.821  0.00  0.00    +0.000 N 
ENDROOT
BRANCH   1   6
ATOM      2  C   UNL     1       2.614  13.221  -1.602  0.00  0.00    +0.000 C 
ATOM      3  C   UNL     1       1.908  14.522  -1.375  0.00  0.00    +0.000 A 
ATOM      4  C   UNL     1       0.546  14.649  -1.624  0.00  0.00    +0.000 A 
ATOM      5  C   UNL     1      -0.105  15.879  -1.438  0.00  0.00    +0.000 A 
ATOM      6  C   UNL     1       0.569  17.042  -1.023  0.00  0.00    +0.000 A 
ATOM      7  C   UNL     1       1.945  16.877  -0.779  0.00  0.00    +0.000 A 
ATOM      8  C   UNL     1       2.607  15.651  -0.958  0.00  0.00    +0.000 A 
ENDBRANCH   1   6
BRANCH   1   9
ATOM      9  C   UNL     1      -0.701  18.568   0.495  0.00  0.00    +0.000 C 
BRANCH   9  10
ATOM     10  C   UNL     1      -2.221  18.843   0.401  0.00  0.00    +0.000 C 
ATOM     11  C   UNL     1      -3.013  17.541   0.408  0.00  0.00    +0.000 C 
BRANCH  10  12
ATOM     12  O   UNL     1      -2.669  19.641   1.506  0.00  0.00    +0.000 OA
ATOM     13  H   UNL     1      -2.060  20.392   1.602  0.00  0.00    +0.000 HD
ENDBRANCH  10  12
ENDBRANCH   9  10
ENDBRANCH   1   9
BRANCH   1  14
ATOM     14  C   UNL     1      -0.647  19.032  -1.963  0.00  0.00    +0.000 C 
BRANCH  14  15
ATOM     15  C   UNL     1       0.163  20.319  -2.249  0.00  0.00    +0.000 C 
ATOM     16  C   UNL     1      -0.275  21.505  -1.399  0.00  0.00    +0.000 C 
BRANCH  15  17
ATOM     17  O   UNL     1       1.561  20.119  -2.042  0.00  0.00    +0.000 OA
ATOM     18  H   UNL     1       1.998  20.787  -2.608  0.00  0.00    +0.000 HD
ENDBRANCH  15  17
ENDBRANCH  14  15
ENDBRANCH   1  14
TORSDOF 7
ENDMDL
MODEL 8
REMARK VINA RESULT:    -4.972      4.053      6.799
REMARK INTER + INTRA:          -7.244
REMARK INTER:                  -6.524
REMARK INTRA:                  -0.721
REMARK UNBOUND:                -0.528
REMARK  Name = 
REMARK  10 active torsions:
REMARK  status: ('A' for Active; 'I' for Inactive)
REMARK    1  A    between atoms: C_1  and  C_2
REMARK    2  A    between atoms: C_5  and  N_8
REMARK    3  A    between atoms: N_8  and  C_9
REMARK    4  A    between atoms: N_8  and  C_13
REMARK    5  A    between atoms: C_9  and  C_10
REMARK    6  A    between atoms: C_10  and  C_11
REMARK    7  A    between atoms: C_10  and  O_12
REMARK    8  A    between atoms: C_13  and  C_14
REMARK    9  A    between atoms: C_14  and  C_15
REMARK   10  A    between atoms: C_14  and  O_16
REMARK                            x       y       z     vdW  Elec       q    Type
REMARK                         _______ _______ _______ _____ _____    ______ ____
ROOT
ATOM      1  N   UNL     1      -1.739  19.981  -0.448  0.00  0.00    +0.000 N 
ENDROOT
BRANCH   1   6
ATOM      2  C   UNL     1       1.485  15.344  -1.642  0.00  0.00    +0.000 C 
ATOM      3  C   UNL     1       0.639  16.546  -1.355  0.00  0.00    +0.000 A 
ATOM      4  C   UNL     1       1.124  17.831  -1.578  0.00  0.00    +0.000 A 
ATOM      5  C   UNL     1       0.337  18.955  -1.279  0.00  0.00    +0.000 A 
ATOM      6  C   UNL     1      -0.953  18.856  -0.726  0.00  0.00    +0.000 A 
ATOM      7  C   UNL     1      -1.411  17.543  -0.516  0.00  0.00    +0.000 A 
ATOM      8  C   UNL     1      -0.635  16.410  -0.812  0.00  0.00    +0.000 A 
ENDBRANCH   1   6
BRANCH   1   9
ATOM      9  C   UNL     1      -1.290  21.327  -0.879  0.00  0.00    +0.000 C 
BRANCH   9  10
ATOM     10  C   UNL     1      -1.822  21.717  -2.280  0.00  0.00    +0.000 C 
ATOM     11  C   UNL     1      -0.674  21.920  -3.262  0.00  0.00    +0.000 C 
BRANCH  10  12
ATOM     12  O   UNL     1      -2.681  20.696  -2.807  0.00  0.00    +0.000 OA
ATOM     13  H   UNL     1      -3.508  20.706  -2.297  0.00  0.00    +0.000 HD
ENDBRANCH  10  12
ENDBRANCH   9  10
ENDBRANCH   1   9
BRANCH   1  14
ATOM     14  C   UNL     1      -2.719  19.978   0.668  0.00  0.00    +0.000 C 
BRANCH  14  15
ATOM     15  C   UNL     1      -4.181  19.942   0.163  0.00  0.00    +0.000 C 
ATOM     16  C   UNL     1      -4.802  21.327   0.023  0.00  0.00    +0.000 C 
BRANCH  15  17
ATOM     17  O   UNL     1      -4.287  19.281  -1.098  0.00  0.00    +0.000 OA
ATOM     18  H   UNL     1      -5.245  19.125  -1.222  0.00  0.00    +0.000 HD
ENDBRANCH  15  17
ENDBRANCH  14  15
ENDBRANCH   1  14
TORSDOF 7
ENDMDL
MODEL 9
REMARK VINA RESULT:    -4.929      9.540     11.941
REMARK INTER + INTRA:          -7.186
REMARK INTER:                  -6.940
REMARK INTRA:                  -0.246
REMARK UNBOUND:                -0.528
REMARK  Name = 
REMARK  10 active torsions:
REMARK  status: ('A' for Active; 'I' for Inactive)
REMARK    1  A    between atoms: C_1  and  C_2
REMARK    2  A    between atoms: C_5  and  N_8
REMARK    3  A    between atoms: N_8  and  C_9
REMARK    4  A    between atoms: N_8  and  C_13
REMARK    5  A    between atoms: C_9  and  C_10
REMARK    6  A    between atoms: C_10  and  C_11
REMARK    7  A    between atoms: C_10  and  O_12
REMARK    8  A    between atoms: C_13  and  C_14
REMARK    9  A    between atoms: C_14  and  C_15
REMARK   10  A    between atoms: C_14  and  O_16
REMARK                            x       y       z     vdW  Elec       q    Type
REMARK                         _______ _______ _______ _____ _____    ______ ____
ROOT
ATOM      1  N   UNL     1      -1.246  16.294 -11.466  0.00  0.00    +0.000 N 
ENDROOT
BRANCH   1   6
ATOM      2  C   UNL     1       0.209  14.578 -16.783  0.00  0.00    +0.000 C 
ATOM      3  C   UNL     1      -0.145  15.018 -15.395  0.00  0.00    +0.000 A 
ATOM      4  C   UNL     1      -0.709  14.129 -14.486  0.00  0.00    +0.000 A 
ATOM      5  C   UNL     1      -1.067  14.554 -13.196  0.00  0.00    +0.000 A 
ATOM      6  C   UNL     1      -0.904  15.881 -12.760  0.00  0.00    +0.000 A 
ATOM      7  C   UNL     1      -0.330  16.752 -13.704  0.00  0.00    +0.000 A 
ATOM      8  C   UNL     1       0.034  16.340 -14.997  0.00  0.00    +0.000 A 
ENDBRANCH   1   6
BRANCH   1   9
ATOM      9  C   UNL     1      -0.642  17.521 -10.893  0.00  0.00    +0.000 C 
BRANCH   9  10
ATOM     10  C   UNL     1      -1.660  18.678 -10.744  0.00  0.00    +0.000 C 
ATOM     11  C   UNL     1      -2.779  18.555 -11.772  0.00  0.00    +0.000 C 
BRANCH  10  12
ATOM     12  O   UNL     1      -2.254  18.676  -9.438  0.00  0.00    +0.000 OA
ATOM     13  H   UNL     1      -3.154  19.033  -9.516  0.00  0.00    +0.000 HD
ENDBRANCH  10  12
ENDBRANCH   9  10
ENDBRANCH   1   9
BRANCH   1  14
ATOM     14  C   UNL     1      -1.769  15.330 -10.464  0.00  0.00    +0.000 C 
BRANCH  14  15
ATOM     15  C   UNL     1      -3.242  15.619 -10.089  0.00  0.00    +0.000 C 
ATOM     16  C   UNL     1      -4.220  15.306 -11.215  0.00  0.00    +0.000 C 
BRANCH  15  17
ATOM     17  O   UNL     1      -3.647  14.883  -8.935  0.00  0.00    +0.000 OA
ATOM     18  H   UNL     1      -4.600  14.707  -9.069  0.00  0.00    +0.000 HD
ENDBRANCH  15  17
ENDBRANCH  14  15
ENDBRANCH   1  14
TORSDOF 7
ENDMDL
