MODEL 1
REMARK VINA RESULT:    -4.923      0.000      0.000
REMARK INTER + INTRA:          -7.274
REMARK INTER:                  -6.650
REMARK INTRA:                  -0.624
REMARK UNBOUND:                -0.624
REMARK  Name = 
REMARK  10 active torsions:
REMARK  status: ('A' for Active; 'I' for Inactive)
REMARK    1  A    between atoms: C_1  and  C_2
REMARK    2  A    between atoms: C_5  and  N_8
REMARK    3  A    between atoms: N_8  and  C_9
REMARK    4  A    between atoms: N_8  and  C_13
REMARK    5  A    between atoms: C_9  and  C_10
REMARK    6  A    between atoms: C_10  and  C_11
REMARK    7  A    between atoms: C_10  and  O_12
REMARK    8  A    between atoms: C_13  and  C_14
REMARK    9  A    between atoms: C_14  and  C_15
REMARK   10  A    between atoms: C_14  and  O_16
REMARK                            x       y       z     vdW  Elec       q    Type
REMARK                         _______ _______ _______ _____ _____    ______ ____
ROOT
ATOM      1  N   UNL     1       3.891   6.303 -13.950  0.00  0.00    +0.000 N 
ENDROOT
BRANCH   1   6
ATOM      2  C   UNL     1       8.315   2.741 -12.915  0.00  0.00    +0.000 C 
ATOM      3  C   UNL     1       7.177   3.682 -13.168  0.00  0.00    +0.000 A 
ATOM      4  C   UNL     1       6.012   3.613 -12.412  0.00  0.00    +0.000 A 
ATOM      5  C   UNL     1       4.937   4.478 -12.673  0.00  0.00    +0.000 A 
ATOM      6  C   UNL     1       4.960   5.431 -13.707  0.00  0.00    +0.000 A 
ATOM      7  C   UNL     1       6.154   5.474 -14.450  0.00  0.00    +0.000 A 
ATOM      8  C   UNL     1       7.238   4.617 -14.198  0.00  0.00    +0.000 A 
ENDBRANCH   1   6
BRANCH   1   9
ATOM      9  C   UNL     1       2.911   5.999 -15.020  0.00  0.00    +0.000 C 
BRANCH   9  10
ATOM     10  C   UNL     1       1.498   6.554 -14.714  0.00  0.00    +0.000 C 
ATOM     11  C   UNL     1       0.522   6.203 -15.831  0.00  0.00    +0.000 C 
BRANCH  10  12
ATOM     12  O   UNL     1       0.986   6.011 -13.490  0.00  0.00    +0.000 OA
ATOM     13  H   UNL     1       0.636   5.124 -13.676  0.00  0.00    +0.000 HD
ENDBRANCH  10  12
ENDBRANCH   9  10
ENDBRANCH   1   9
BRANCH   1  14
ATOM     14  C   UNL     1       3.963   7.734 -13.557  0.00  0.00    +0.000 C 
BRANCH  14  15
ATOM     15  C   UNL     1       3.684   7.941 -12.048  0.00  0.00    +0.000 C 
ATOM     16  C   UNL     1       4.532   9.044 -11.428  0.00  0.00    +0.000 C 
BRANCH  15  17
ATOM     17  O   UNL     1       2.312   8.246 -11.803  0.00  0.00    +0.000 OA
ATOM     18  H   UNL     1       1.831   7.890 -12.577  0.00  0.00    +0.000 HD
ENDBRANCH  15  17
ENDBRANCH  14  15
ENDBRANCH   1  14
TORSDOF 7
ENDMDL
MODEL 2
REMARK VINA RESULT:    -4.912      3.996      6.254
REMARK INTER + INTRA:          -7.259
REMARK INTER:                  -7.342
REMARK INTRA:                   0.083
REMARK UNBOUND:                -0.624
REMARK  Name = 
REMARK  10 active torsions:
REMARK  status: ('A' for Active; 'I' for Inactive)
REMARK    1  A    between atoms: C_1  and  C_2
REMARK    2  A    between atoms: C_5  and  N_8
REMARK    3  A    between atoms: N_8  and  C_9
REMARK    4  A    between atoms: N_8  and  C_13
REMARK    5  A    between atoms: C_9  and  C_10
REMARK    6  A    between atoms: C_10  and  C_11
REMARK    7  A    between atoms: C_10  and  O_12
REMARK    8  A    between atoms: C_13  and  C_14
REMARK    9  A    between atoms: C_14  and  C_15
REMARK   10  A    between atoms: C_14  and  O_16
REMARK                            x       y       z     vdW  Elec       q    Type
REMARK                         _______ _______ _______ _____ _____    ______ ____
ROOT
ATOM      1  N   UNL     1       7.486   3.534 -13.213  0.00  0.00    +0.000 N 
ENDROOT
BRANCH   1   6
ATOM      2  C   UNL     1       3.256   7.462 -13.309  0.00  0.00    +0.000 C 
ATOM      3  C   UNL     1       4.340   6.429 -13.301  0.00  0.00    +0.000 A 
ATOM      4  C   UNL     1       4.347   5.408 -12.356  0.00  0.00    +0.000 A 
ATOM      5  C   UNL     1       5.383   4.460 -12.333  0.00  0.00    +0.000 A 
ATOM      6  C   UNL     1       6.467   4.495 -13.229  0.00  0.00    +0.000 A 
ATOM      7  C   UNL     1       6.426   5.539 -14.171  0.00  0.00    +0.000 A 
ATOM      8  C   UNL     1       5.395   6.493 -14.206  0.00  0.00    +0.000 A 
ENDBRANCH   1   6
BRANCH   1   9
ATOM      9  C   UNL     1       7.175   2.116 -13.515  0.00  0.00    +0.000 C 
BRANCH   9  10
ATOM     10  C   UNL     1       7.405   1.755 -15.003  0.00  0.00    +0.000 C 
ATOM     11  C   UNL     1       7.844   2.978 -15.799  0.00  0.00    +0.000 C 
BRANCH  10  12
ATOM     12  O   UNL     1       8.419   0.749 -15.138  0.00  0.00    +0.000 OA
ATOM     13  H   UNL     1       8.702   0.730 -16.068  0.00  0.00    +0.000 HD
ENDBRANCH  10  12
ENDBRANCH   9  10
ENDBRANCH   1   9
BRANCH   1  14
ATOM     14  C   UNL     1       8.732   3.749 -12.435  0.00  0.00    +0.000 C 
BRANCH  14  15
ATOM     15  C   UNL     1       9.976   3.169 -13.151  0.00  0.00    +0.000 C 
ATOM     16  C   UNL     1      11.237   3.993 -12.923  0.00  0.00    +0.000 C 
BRANCH  15  17
ATOM     17  O   UNL     1      10.243   1.829 -12.741  0.00  0.00    +0.000 OA
ATOM     18  H   UNL     1      10.908   1.911 -12.028  0.00  0.00    +0.000 HD
ENDBRANCH  15  17
ENDBRANCH  14  15
ENDBRANCH   1  14
TORSDOF 7
ENDMDL
MODEL 3
REMARK VINA RESULT:    -4.705      0.616      3.267
REMARK INTER + INTRA:          -6.979
REMARK INTER:                  -6.311
REMARK INTRA:                  -0.668
REMARK UNBOUND:                -0.624
REMARK  Name = 
REMARK  10 active torsions:
REMARK  status: ('A' for Active; 'I' for Inactive)
REMARK    1  A    between atoms: C_1  and  C_2
REMARK    2  A    between atoms: C_5  and  N_8
REMARK    3  A    between atoms: N_8  and  C_9
REMARK    4  A    between atoms: N_8  and  C_13
REMARK    5  A    between atoms: C_9  and  C_10
REMARK    6  A    between atoms: C_10  and  C_11
REMARK    7  A    between atoms: C_10  and  O_12
REMARK    8  A    between atoms: C_13  and  C_14
REMARK    9  A    between atoms: C_14  and  C_15
REMARK   10  A    between atoms: C_14  and  O_16
REMARK                            x       y       z     vdW  Elec       q    Type
REMARK                         _______ _______ _______ _____ _____    ______ ____
ROOT
ATOM      1  N   UNL     1       3.528   6.403 -13.772  0.00  0.00    +0.000 N 
ENDROOT
BRANCH   1   6
ATOM      2  C   UNL     1       8.120   2.975 -13.067  0.00  0.00    +0.000 C 
ATOM      3  C   UNL     1       6.918   3.848 -13.265  0.00  0.00    +0.000 A 
ATOM      4  C   UNL     1       6.885   4.799 -14.278  0.00  0.00    +0.000 A 
ATOM      5  C   UNL     1       5.768   5.635 -14.441  0.00  0.00    +0.000 A 
ATOM      6  C   UNL     1       4.647   5.580 -13.593  0.00  0.00    +0.000 A 
ATOM      7  C   UNL     1       4.714   4.605 -12.580  0.00  0.00    +0.000 A 
ATOM      8  C   UNL     1       5.824   3.762 -12.408  0.00  0.00    +0.000 A 
ENDBRANCH   1   6
BRANCH   1   9
ATOM      9  C   UNL     1       3.595   7.838 -13.406  0.00  0.00    +0.000 C 
BRANCH   9  10
ATOM     10  C   UNL     1       3.543   8.070 -11.876  0.00  0.00    +0.000 C 
ATOM     11  C   UNL     1       4.574   9.107 -11.446  0.00  0.00    +0.000 C 
BRANCH  10  12
ATOM     12  O   UNL     1       2.249   8.536 -11.469  0.00  0.00    +0.000 OA
ATOM     13  H   UNL     1       1.729   7.767 -11.181  0.00  0.00    +0.000 HD
ENDBRANCH  10  12
ENDBRANCH   9  10
ENDBRANCH   1   9
BRANCH   1  14
ATOM     14  C   UNL     1       2.157   5.835 -13.826  0.00  0.00    +0.000 C 
BRANCH  14  15
ATOM     15  C   UNL     1       1.123   6.854 -14.363  0.00  0.00    +0.000 C 
ATOM     16  C   UNL     1       0.346   6.340 -15.570  0.00  0.00    +0.000 C 
BRANCH  15  17
ATOM     17  O   UNL     1       0.182   7.229 -13.359  0.00  0.00    +0.000 OA
ATOM     18  H   UNL     1       0.015   8.181 -13.511  0.00  0.00    +0.000 HD
ENDBRANCH  15  17
ENDBRANCH  14  15
ENDBRANCH   1  14
TORSDOF 7
ENDMDL
MODEL 4
REMARK VINA RESULT:    -4.496      3.083      5.680
REMARK INTER + INTRA:          -6.698
REMARK INTER:                  -6.777
REMARK INTRA:                   0.079
REMARK UNBOUND:                -0.624
REMARK  Name = 
REMARK  10 active torsions:
REMARK  status: ('A' for Active; 'I' for Inactive)
REMARK    1  A    between atoms: C_1  and  C_2
REMARK    2  A    between atoms: C_5  and  N_8
REMARK    3  A    between atoms: N_8  and  C_9
REMARK    4  A    between atoms: N_8  and  C_13
REMARK    5  A    between atoms: C_9  and  C_10
REMARK    6  A    between atoms: C_10  and  C_11
REMARK    7  A    between atoms: C_10  and  O_12
REMARK    8  A    between atoms: C_13  and  C_14
REMARK    9  A    between atoms: C_14  and  C_15
REMARK   10  A    between atoms: C_14  and  O_16
REMARK                            x       y       z     vdW  Elec       q    Type
REMARK                         _______ _______ _______ _____ _____    ______ ____
ROOT
ATOM      1  N   UNL     1       6.510   3.924 -13.805  0.00  0.00    +0.000 N 
ENDROOT
BRANCH   1   6
ATOM      2  C   UNL     1       3.516   8.417 -15.850  0.00  0.00    +0.000 C 
ATOM      3  C   UNL     1       4.284   7.256 -15.296  0.00  0.00    +0.000 A 
ATOM      4  C   UNL     1       5.600   7.407 -14.872  0.00  0.00    +0.000 A 
ATOM      5  C   UNL     1       6.325   6.309 -14.382  0.00  0.00    +0.000 A 
ATOM      6  C   UNL     1       5.787   5.011 -14.313  0.00  0.00    +0.000 A 
ATOM      7  C   UNL     1       4.454   4.896 -14.748  0.00  0.00    +0.000 A 
ATOM      8  C   UNL     1       3.717   5.986 -15.238  0.00  0.00    +0.000 A 
ENDBRANCH   1   6
BRANCH   1   9
ATOM      9  C   UNL     1       6.981   2.853 -14.717  0.00  0.00    +0.000 C 
BRANCH   9  10
ATOM     10  C   UNL     1       8.513   2.886 -14.940  0.00  0.00    +0.000 C 
ATOM     11  C   UNL     1       9.152   4.033 -14.166  0.00  0.00    +0.000 C 
BRANCH  10  12
ATOM     12  O   UNL     1       9.122   1.663 -14.504  0.00  0.00    +0.000 OA
ATOM     13  H   UNL     1       8.688   1.386 -13.680  0.00  0.00    +0.000 HD
ENDBRANCH  10  12
ENDBRANCH   9  10
ENDBRANCH   1   9
BRANCH   1  14
ATOM     14  C   UNL     1       6.397   3.525 -12.379  0.00  0.00    +0.000 C 
BRANCH  14  15
ATOM     15  C   UNL     1       4.935   3.571 -11.873  0.00  0.00    +0.000 C 
ATOM     16  C   UNL     1       4.574   2.396 -10.973  0.00  0.00    +0.000 C 
BRANCH  15  17
ATOM     17  O   UNL     1       4.664   4.775 -11.157  0.00  0.00    +0.000 OA
ATOM     18  H   UNL     1       4.105   4.500 -10.402  0.00  0.00    +0.000 HD
ENDBRANCH  15  17
ENDBRANCH  14  15
ENDBRANCH   1  14
TORSDOF 7
ENDMDL
MODEL 5
REMARK VINA RESULT:    -4.442      2.906      5.689
REMARK INTER + INTRA:          -6.624
REMARK INTER:                  -6.582
REMARK INTRA:                  -0.042
REMARK UNBOUND:                -0.624
REMARK  Name = 
REMARK  10 active torsions:
REMARK  status: ('A' for Active; 'I' for Inactive)
REMARK    1  A    between atoms: C_1  and  C_2
REMARK    2  A    between atoms: C_5  and  N_8
REMARK    3  A    between atoms: N_8  and  C_9
REMARK    4  A    between atoms: N_8  and  C_13
REMARK    5  A    between atoms: C_9  and  C_10
REMARK    6  A    between atoms: C_10  and  C_11
REMARK    7  A    between atoms: C_10  and  O_12
REMARK    8  A    between atoms: C_13  and  C_14
REMARK    9  A    between atoms: C_14  and  C_15
REMARK   10  A    between atoms: C_14  and  O_16
REMARK                            x       y       z     vdW  Elec       q    Type
REMARK                         _______ _______ _______ _____ _____    ______ ____
ROOT
ATOM      1  N   UNL     1       5.532   4.033 -12.784  0.00  0.00    +0.000 N 
ENDROOT
BRANCH   1   6
ATOM      2  C   UNL     1       3.488   7.978 -16.470  0.00  0.00    +0.000 C 
ATOM      3  C   UNL     1       4.016   6.971 -15.495  0.00  0.00    +0.000 A 
ATOM      4  C   UNL     1       5.381   6.861 -15.250  0.00  0.00    +0.000 A 
ATOM      5  C   UNL     1       5.872   5.895 -14.357  0.00  0.00    +0.000 A 
ATOM      6  C   UNL     1       5.037   4.982 -13.688  0.00  0.00    +0.000 A 
ATOM      7  C   UNL     1       3.664   5.123 -13.958  0.00  0.00    +0.000 A 
ATOM      8  C   UNL     1       3.159   6.087 -14.847  0.00  0.00    +0.000 A 
ENDBRANCH   1   6
BRANCH   1   9
ATOM      9  C   UNL     1       4.882   3.854 -11.464  0.00  0.00    +0.000 C 
BRANCH   9  10
ATOM     10  C   UNL     1       4.394   2.403 -11.227  0.00  0.00    +0.000 C 
ATOM     11  C   UNL     1       5.551   1.499 -10.821  0.00  0.00    +0.000 C 
BRANCH  10  12
ATOM     12  O   UNL     1       3.407   2.355 -10.188  0.00  0.00    +0.000 OA
ATOM     13  H   UNL     1       3.541   3.124  -9.609  0.00  0.00    +0.000 HD
ENDBRANCH  10  12
ENDBRANCH   9  10
ENDBRANCH   1   9
BRANCH   1  14
ATOM     14  C   UNL     1       6.941   3.566 -12.855  0.00  0.00    +0.000 C 
BRANCH  14  15
ATOM     15  C   UNL     1       7.254   2.857 -14.194  0.00  0.00    +0.000 C 
ATOM     16  C   UNL     1       8.566   3.314 -14.821  0.00  0.00    +0.000 C 
BRANCH  15  17
ATOM     17  O   UNL     1       7.308   1.440 -14.041  0.00  0.00    +0.000 OA
ATOM     18  H   UNL     1       8.036   1.282 -13.406  0.00  0.00    +0.000 HD
ENDBRANCH  15  17
ENDBRANCH  14  15
ENDBRANCH   1  14
TORSDOF 7
ENDMDL
MODEL 6
REMARK VINA RESULT:    -4.411      1.390      3.364
REMARK INTER + INTRA:          -6.583
REMARK INTER:                  -5.755
REMARK INTRA:                  -0.828
REMARK UNBOUND:                -0.624
REMARK  Name = 
REMARK  10 active torsions:
REMARK  status: ('A' for Active; 'I' for Inactive)
REMARK    1  A    between atoms: C_1  and  C_2
REMARK    2  A    between atoms: C_5  and  N_8
REMARK    3  A    between atoms: N_8  and  C_9
REMARK    4  A    between atoms: N_8  and  C_13
REMARK    5  A    between atoms: C_9  and  C_10
REMARK    6  A    between atoms: C_10  and  C_11
REMARK    7  A    between atoms: C_10  and  O_12
REMARK    8  A    between atoms: C_13  and  C_14
REMARK    9  A    between atoms: C_14  and  C_15
REMARK   10  A    between atoms: C_14  and  O_16
REMARK                            x       y       z     vdW  Elec       q    Type
REMARK                         _______ _______ _______ _____ _____    ______ ____
ROOT
ATOM      1  N   UNL     1       3.168   6.733 -13.308  0.00  0.00    +0.000 N 
ENDROOT
BRANCH   1   6
ATOM      2  C   UNL     1       7.706   3.164 -13.282  0.00  0.00    +0.000 C 
ATOM      3  C   UNL     1       6.541   4.106 -13.274  0.00  0.00    +0.000 A 
ATOM      4  C   UNL     1       5.519   3.970 -12.340  0.00  0.00    +0.000 A 
ATOM      5  C   UNL     1       4.414   4.837 -12.356  0.00  0.00    +0.000 A 
ATOM      6  C   UNL     1       4.263   5.860 -13.310  0.00  0.00    +0.000 A 
ATOM      7  C   UNL     1       5.316   5.969 -14.237  0.00  0.00    +0.000 A 
ATOM      8  C   UNL     1       6.427   5.110 -14.231  0.00  0.00    +0.000 A 
ENDBRANCH   1   6
BRANCH   1   9
ATOM      9  C   UNL     1       3.121   7.863 -12.349  0.00  0.00    +0.000 C 
BRANCH   9  10
ATOM     10  C   UNL     1       3.753   9.158 -12.916  0.00  0.00    +0.000 C 
ATOM     11  C   UNL     1       5.180   9.334 -12.412  0.00  0.00    +0.000 C 
BRANCH  10  12
ATOM     12  O   UNL     1       3.788   9.129 -14.350  0.00  0.00    +0.000 OA
ATOM     13  H   UNL     1       4.202   8.294 -14.624  0.00  0.00    +0.000 HD
ENDBRANCH  10  12
ENDBRANCH   9  10
ENDBRANCH   1   9
BRANCH   1  14
ATOM     14  C   UNL     1       1.848   6.313 -13.843  0.00  0.00    +0.000 C 
BRANCH  14  15
ATOM     15  C   UNL     1       1.833   6.263 -15.390  0.00  0.00    +0.000 C 
ATOM     16  C   UNL     1       0.430   6.147 -15.973  0.00  0.00    +0.000 C 
BRANCH  15  17
ATOM     17  O   UNL     1       2.455   7.414 -15.960  0.00  0.00    +0.000 OA
ATOM     18  H   UNL     1       3.330   7.470 -15.525  0.00  0.00    +0.000 HD
ENDBRANCH  15  17
ENDBRANCH  14  15
ENDBRANCH   1  14
TORSDOF 7
ENDMDL
MODEL 7
REMARK VINA RESULT:    -4.349     10.768     13.223
REMARK INTER + INTRA:          -6.498
REMARK INTER:                  -5.998
REMARK INTRA:                  -0.500
REMARK UNBOUND:                -0.624
REMARK  Name = 
REMARK  10 active torsions:
REMARK  status: ('A' for Active; 'I' for Inactive)
REMARK    1  A    between atoms: C_1  and  C_2
REMARK    2  A    between atoms: C_5  and  N_8
REMARK    3  A    between atoms: N_8  and  C_9
REMARK    4  A    between atoms: N_8  and  C_13
REMARK    5  A    between atoms: C_9  and  C_10
REMARK    6  A    between atoms: C_10  and  C_11
REMARK    7  A    between atoms: C_10  and  O_12
REMARK    8  A    between atoms: C_13  and  C_14
REMARK    9  A    between atoms: C_14  and  C_15
REMARK   10  A    between atoms: C_14  and  O_16
REMARK                            x       y       z     vdW  Elec       q    Type
REMARK                         _______ _______ _______ _____ _____    ______ ____
ROOT
ATOM      1  N   UNL     1       2.640   9.831  -1.301  0.00  0.00    +0.000 N 
ENDROOT
BRANCH   1   6
ATOM      2  C   UNL     1       0.194   6.402  -5.249  0.00  0.00    +0.000 C 
ATOM      3  C   UNL     1       0.813   7.311  -4.232  0.00  0.00    +0.000 A 
ATOM      4  C   UNL     1       1.926   8.082  -4.546  0.00  0.00    +0.000 A 
ATOM      5  C   UNL     1       2.521   8.909  -3.579  0.00  0.00    +0.000 A 
ATOM      6  C   UNL     1       2.054   8.990  -2.255  0.00  0.00    +0.000 A 
ATOM      7  C   UNL     1       0.925   8.198  -1.973  0.00  0.00    +0.000 A 
ATOM      8  C   UNL     1       0.320   7.368  -2.931  0.00  0.00    +0.000 A 
ENDBRANCH   1   6
BRANCH   1   9
ATOM      9  C   UNL     1       1.837  10.900  -0.659  0.00  0.00    +0.000 C 
BRANCH   9  10
ATOM     10  C   UNL     1       1.680  10.696   0.868  0.00  0.00    +0.000 C 
ATOM     11  C   UNL     1       1.346  12.012   1.561  0.00  0.00    +0.000 C 
BRANCH  10  12
ATOM     12  O   UNL     1       0.630   9.763   1.158  0.00  0.00    +0.000 OA
ATOM     13  H   UNL     1       0.996   8.866   1.085  0.00  0.00    +0.000 HD
ENDBRANCH  10  12
ENDBRANCH   9  10
ENDBRANCH   1   9
BRANCH   1  14
ATOM     14  C   UNL     1       4.109  10.048  -1.266  0.00  0.00    +0.000 C 
BRANCH  14  15
ATOM     15  C   UNL     1       4.860   8.856  -0.625  0.00  0.00    +0.000 C 
ATOM     16  C   UNL     1       6.255   8.646  -1.201  0.00  0.00    +0.000 C 
BRANCH  15  17
ATOM     17  O   UNL     1       4.984   9.009   0.788  0.00  0.00    +0.000 OA
ATOM     18  H   UNL     1       4.990   9.976   0.938  0.00  0.00    +0.000 HD
ENDBRANCH  15  17
ENDBRANCH  14  15
ENDBRANCH   1  14
TORSDOF 7
ENDMDL
MODEL 8
REMARK VINA RESULT:    -4.117      1.828      2.894
REMARK INTER + INTRA:          -6.186
REMARK INTER:                  -5.463
REMARK INTRA:                  -0.723
REMARK UNBOUND:                -0.624
REMARK  Name = 
REMARK  10 active torsions:
REMARK  status: ('A' for Active; 'I' for Inactive)
REMARK    1  A    between atoms: C_1  and  C_2
REMARK    2  A    between atoms: C_5  and  N_8
REMARK    3  A    between atoms: N_8  and  C_9
REMARK    4  A    between atoms: N_8  and  C_13
REMARK    5  A    between atoms: C_9  and  C_10
REMARK    6  A    between atoms: C_10  and  C_11
REMARK    7  A    between atoms: C_10  and  O_12
REMARK    8  A    between atoms: C_13  and  C_14
REMARK    9  A    between atoms: C_14  and  C_15
REMARK   10  A    between atoms: C_14  and  O_16
REMARK                            x       y       z     vdW  Elec       q    Type
REMARK                         _______ _______ _______ _____ _____    ______ ____
ROOT
ATOM      1  N   UNL     1       4.178   7.285 -13.739  0.00  0.00    +0.000 N 
ENDROOT
BRANCH   1   6
ATOM      2  C   UNL     1       7.320   2.482 -13.115  0.00  0.00    +0.000 C 
ATOM      3  C   UNL     1       6.520   3.741 -13.262  0.00  0.00    +0.000 A 
ATOM      4  C   UNL     1       5.459   4.017 -12.407  0.00  0.00    +0.000 A 
ATOM      5  C   UNL     1       4.694   5.184 -12.568  0.00  0.00    +0.000 A 
ATOM      6  C   UNL     1       4.932   6.114 -13.596  0.00  0.00    +0.000 A 
ATOM      7  C   UNL     1       6.014   5.804 -14.440  0.00  0.00    +0.000 A 
ATOM      8  C   UNL     1       6.788   4.641 -14.289  0.00  0.00    +0.000 A 
ENDBRANCH   1   6
BRANCH   1   9
ATOM      9  C   UNL     1       2.849   7.397 -13.091  0.00  0.00    +0.000 C 
BRANCH   9  10
ATOM     10  C   UNL     1       2.806   8.490 -11.995  0.00  0.00    +0.000 C 
ATOM     11  C   UNL     1       4.115   8.533 -11.217  0.00  0.00    +0.000 C 
BRANCH  10  12
ATOM     12  O   UNL     1       2.587   9.786 -12.569  0.00  0.00    +0.000 OA
ATOM     13  H   UNL     1       2.163  10.345 -11.897  0.00  0.00    +0.000 HD
ENDBRANCH  10  12
ENDBRANCH   9  10
ENDBRANCH   1   9
BRANCH   1  14
ATOM     14  C   UNL     1       4.391   8.202 -14.888  0.00  0.00    +0.000 C 
BRANCH  14  15
ATOM     15  C   UNL     1       5.432   9.302 -14.572  0.00  0.00    +0.000 C 
ATOM     16  C   UNL     1       6.503   9.441 -15.648  0.00  0.00    +0.000 C 
BRANCH  15  17
ATOM     17  O   UNL     1       4.815  10.577 -14.396  0.00  0.00    +0.000 OA
ATOM     18  H   UNL     1       4.376  10.526 -13.523  0.00  0.00    +0.000 HD
ENDBRANCH  15  17
ENDBRANCH  14  15
ENDBRANCH   1  14
TORSDOF 7
ENDMDL
MODEL 9
REMARK VINA RESULT:    -3.507      3.803      6.836
REMARK INTER + INTRA:          -5.362
REMARK INTER:                  -5.825
REMARK INTRA:                   0.463
REMARK UNBOUND:                -0.624
REMARK  Name = 
REMARK  10 active torsions:
REMARK  status: ('A' for Active; 'I' for Inactive)
REMARK    1  A    between atoms: C_1  and  C_2
REMARK    2  A    between atoms: C_5  and  N_8
REMARK    3  A    between atoms: N_8  and  C_9
REMARK    4  A    between atoms: N_8  and  C_13
REMARK    5  A    between atoms: C_9  and  C_10
REMARK    6  A    between atoms: C_10  and  C_11
REMARK    7  A    between atoms: C_10  and  O_12
REMARK    8  A    between atoms: C_13  and  C_14
REMARK    9  A    between atoms: C_14  and  C_15
REMARK   10  A    between atoms: C_14  and  O_16
REMARK                            x       y       z     vdW  Elec       q    Type
REMARK                         _______ _______ _______ _____ _____    ______ ____
ROOT
ATOM      1  N   UNL     1       7.663   3.705 -13.254  0.00  0.00    +0.000 N 
ENDROOT
BRANCH   1   6
ATOM      2  C   UNL     1       2.903   6.970 -13.362  0.00  0.00    +0.000 C 
ATOM      3  C   UNL     1       4.149   6.139 -13.319  0.00  0.00    +0.000 A 
ATOM      4  C   UNL     1       5.163   6.324 -14.251  0.00  0.00    +0.000 A 
ATOM      5  C   UNL     1       6.316   5.522 -14.224  0.00  0.00    +0.000 A 
ATOM      6  C   UNL     1       6.502   4.489 -13.288  0.00  0.00    +0.000 A 
ATOM      7  C   UNL     1       5.457   4.332 -12.359  0.00  0.00    +0.000 A 
ATOM      8  C   UNL     1       4.300   5.128 -12.374  0.00  0.00    +0.000 A 
ENDBRANCH   1   6
BRANCH   1   9
ATOM      9  C   UNL     1       8.940   4.245 -13.780  0.00  0.00    +0.000 C 
BRANCH   9  10
ATOM     10  C   UNL     1      10.177   3.704 -13.023  0.00  0.00    +0.000 C 
ATOM     11  C   UNL     1      11.420   4.522 -13.355  0.00  0.00    +0.000 C 
BRANCH  10  12
ATOM     12  O   UNL     1       9.976   3.758 -11.603  0.00  0.00    +0.000 OA
ATOM     13  H   UNL     1      10.468   4.521 -11.258  0.00  0.00    +0.000 HD
ENDBRANCH  10  12
ENDBRANCH   9  10
ENDBRANCH   1   9
BRANCH   1  14
ATOM     14  C   UNL     1       7.588   2.223 -13.197  0.00  0.00    +0.000 C 
BRANCH  14  15
ATOM     15  C   UNL     1       7.706   1.577 -14.599  0.00  0.00    +0.000 C 
ATOM     16  C   UNL     1       7.270   2.506 -15.725  0.00  0.00    +0.000 C 
BRANCH  15  17
ATOM     17  O   UNL     1       9.039   1.148 -14.871  0.00  0.00    +0.000 OA
ATOM     18  H   UNL     1       8.972   0.621 -15.693  0.00  0.00    +0.000 HD
ENDBRANCH  15  17
ENDBRANCH  14  15
ENDBRANCH   1  14
TORSDOF 7
ENDMDL
