MODEL 1
REMARK VINA RESULT:    -5.538      0.000      0.000
REMARK INTER + INTRA:          -6.064
REMARK INTER:                  -6.024
REMARK INTRA:                  -0.040
REMARK UNBOUND:                -0.040
REMARK  Name = 
REMARK  3 active torsions:
REMARK  status: ('A' for Active; 'I' for Inactive)
REMARK    1  A    between atoms: C_1  and  O_2
REMARK    2  A    between atoms: O_2  and  C_3
REMARK    3  A    between atoms: C_8  and  O_9
REMARK                            x       y       z     vdW  Elec       q    Type
REMARK                         _______ _______ _______ _____ _____    ______ ____
ROOT
ATOM      1  C   UNL     1       9.402   2.878 -14.063  0.00  0.00    +0.000 A 
ATOM      2  C   UNL     1       9.500   4.158 -14.609  0.00  0.00    +0.000 A 
ATOM      3  C   UNL     1      10.458   5.055 -14.122  0.00  0.00    +0.000 A 
ATOM      4  C   UNL     1      11.320   4.678 -13.089  0.00  0.00    +0.000 A 
ATOM      5  C   UNL     1      11.228   3.402 -12.539  0.00  0.00    +0.000 A 
ATOM      6  C   UNL     1      10.274   2.519 -13.029  0.00  0.00    +0.000 A 
ENDROOT
BRANCH   1   8
ATOM      7  C   UNL     1       7.298   2.343 -15.031  0.00  0.00    +0.000 C 
ATOM      8  O   UNL     1       8.515   1.902 -14.439  0.00  0.00    +0.000 OA
ENDBRANCH   1   8
BRANCH   6   9
ATOM      9  O   UNL     1      10.203   1.270 -12.472  0.00  0.00    +0.000 OA
ATOM     10  H   UNL     1      10.750   1.326 -11.665  0.00  0.00    +0.000 HD
ENDBRANCH   6   9
TORSDOF 2
ENDMDL
MODEL 2
REMARK VINA RESULT:    -4.685      1.570      1.995
REMARK INTER + INTRA:          -5.136
REMARK INTER:                  -5.083
REMARK INTRA:                  -0.052
REMARK UNBOUND:                -0.040
REMARK  Name = 
REMARK  3 active torsions:
REMARK  status: ('A' for Active; 'I' for Inactive)
REMARK    1  A    between atoms: C_1  and  O_2
REMARK    2  A    between atoms: O_2  and  C_3
REMARK    3  A    between atoms: C_8  and  O_9
REMARK                            x       y       z     vdW  Elec       q    Type
REMARK                         _______ _______ _______ _____ _____    ______ ____
ROOT
ATOM      1  C   UNL     1       8.356   3.865 -14.169  0.00  0.00    +0.000 A 
ATOM      2  C   UNL     1       9.411   4.773 -14.235  0.00  0.00    +0.000 A 
ATOM      3  C   UNL     1      10.627   4.480 -13.606  0.00  0.00    +0.000 A 
ATOM      4  C   UNL     1      10.793   3.281 -12.911  0.00  0.00    +0.000 A 
ATOM      5  C   UNL     1       9.744   2.367 -12.841  0.00  0.00    +0.000 A 
ATOM      6  C   UNL     1       8.541   2.667 -13.467  0.00  0.00    +0.000 A 
ENDROOT
BRANCH   1   8
ATOM      7  C   UNL     1       6.282   5.025 -14.169  0.00  0.00    +0.000 C 
ATOM      8  O   UNL     1       7.115   4.020 -14.734  0.00  0.00    +0.000 OA
ENDBRANCH   1   8
BRANCH   6   9
ATOM      9  O   UNL     1       7.524   1.754 -13.384  0.00  0.00    +0.000 OA
ATOM     10  H   UNL     1       7.674   1.290 -12.539  0.00  0.00    +0.000 HD
ENDBRANCH   6   9
TORSDOF 2
ENDMDL
MODEL 3
REMARK VINA RESULT:    -4.544      3.615      4.623
REMARK INTER + INTRA:          -4.983
REMARK INTER:                  -4.945
REMARK INTRA:                  -0.037
REMARK UNBOUND:                -0.040
REMARK  Name = 
REMARK  3 active torsions:
REMARK  status: ('A' for Active; 'I' for Inactive)
REMARK    1  A    between atoms: C_1  and  O_2
REMARK    2  A    between atoms: O_2  and  C_3
REMARK    3  A    between atoms: C_8  and  O_9
REMARK                            x       y       z     vdW  Elec       q    Type
REMARK                         _______ _______ _______ _____ _____    ______ ____
ROOT
ATOM      1  C   UNL     1       5.605   3.300 -12.234  0.00  0.00    +0.000 A 
ATOM      2  C   UNL     1       4.928   4.518 -12.284  0.00  0.00    +0.000 A 
ATOM      3  C   UNL     1       5.276   5.472 -13.249  0.00  0.00    +0.000 A 
ATOM      4  C   UNL     1       6.298   5.213 -14.164  0.00  0.00    +0.000 A 
ATOM      5  C   UNL     1       6.978   3.998 -14.120  0.00  0.00    +0.000 A 
ATOM      6  C   UNL     1       6.627   3.058 -13.160  0.00  0.00    +0.000 A 
ENDROOT
BRANCH   1   8
ATOM      7  C   UNL     1       4.315   2.476 -10.416  0.00  0.00    +0.000 C 
ATOM      8  O   UNL     1       5.372   2.280 -11.347  0.00  0.00    +0.000 OA
ENDBRANCH   1   8
BRANCH   6   9
ATOM      9  O   UNL     1       7.310   1.872 -13.136  0.00  0.00    +0.000 OA
ATOM     10  H   UNL     1       7.884   1.931 -12.349  0.00  0.00    +0.000 HD
ENDBRANCH   6   9
TORSDOF 2
ENDMDL
MODEL 4
REMARK VINA RESULT:    -4.432      2.803      4.058
REMARK INTER + INTRA:          -4.861
REMARK INTER:                  -4.821
REMARK INTRA:                  -0.040
REMARK UNBOUND:                -0.040
REMARK  Name = 
REMARK  3 active torsions:
REMARK  status: ('A' for Active; 'I' for Inactive)
REMARK    1  A    between atoms: C_1  and  O_2
REMARK    2  A    between atoms: O_2  and  C_3
REMARK    3  A    between atoms: C_8  and  O_9
REMARK                            x       y       z     vdW  Elec       q    Type
REMARK                         _______ _______ _______ _____ _____    ______ ____
ROOT
ATOM      1  C   UNL     1       7.137   3.917 -13.998  0.00  0.00    +0.000 A 
ATOM      2  C   UNL     1       6.514   5.155 -14.154  0.00  0.00    +0.000 A 
ATOM      3  C   UNL     1       5.432   5.502 -13.336  0.00  0.00    +0.000 A 
ATOM      4  C   UNL     1       4.968   4.615 -12.362  0.00  0.00    +0.000 A 
ATOM      5  C   UNL     1       5.586   3.377 -12.200  0.00  0.00    +0.000 A 
ATOM      6  C   UNL     1       6.658   3.042 -13.016  0.00  0.00    +0.000 A 
ENDROOT
BRANCH   1   8
ATOM      7  C   UNL     1       9.476   3.993 -14.410  0.00  0.00    +0.000 C 
ATOM      8  O   UNL     1       8.201   3.447 -14.726  0.00  0.00    +0.000 OA
ENDBRANCH   1   8
BRANCH   6   9
ATOM      9  O   UNL     1       7.249   1.819 -12.838  0.00  0.00    +0.000 OA
ATOM     10  H   UNL     1       7.786   1.683 -13.641  0.00  0.00    +0.000 HD
ENDBRANCH   6   9
TORSDOF 2
ENDMDL
MODEL 5
REMARK VINA RESULT:    -4.382      4.069      5.116
REMARK INTER + INTRA:          -4.806
REMARK INTER:                  -4.767
REMARK INTRA:                  -0.039
REMARK UNBOUND:                -0.040
REMARK  Name = 
REMARK  3 active torsions:
REMARK  status: ('A' for Active; 'I' for Inactive)
REMARK    1  A    between atoms: C_1  and  O_2
REMARK    2  A    between atoms: O_2  and  C_3
REMARK    3  A    between atoms: C_8  and  O_9
REMARK                            x       y       z     vdW  Elec       q    Type
REMARK                         _______ _______ _______ _____ _____    ______ ____
ROOT
ATOM      1  C   UNL     1       5.964   4.099 -13.020  0.00  0.00    +0.000 A 
ATOM      2  C   UNL     1       6.251   4.808 -14.185  0.00  0.00    +0.000 A 
ATOM      3  C   UNL     1       5.598   6.019 -14.447  0.00  0.00    +0.000 A 
ATOM      4  C   UNL     1       4.657   6.524 -13.547  0.00  0.00    +0.000 A 
ATOM      5  C   UNL     1       4.365   5.822 -12.380  0.00  0.00    +0.000 A 
ATOM      6  C   UNL     1       5.018   4.622 -12.129  0.00  0.00    +0.000 A 
ENDROOT
BRANCH   1   8
ATOM      7  C   UNL     1       7.798   2.597 -13.188  0.00  0.00    +0.000 C 
ATOM      8  O   UNL     1       6.523   2.906 -12.637  0.00  0.00    +0.000 OA
ENDBRANCH   1   8
BRANCH   6   9
ATOM      9  O   UNL     1       4.714   3.950 -10.976  0.00  0.00    +0.000 OA
ATOM     10  H   UNL     1       5.577   3.672 -10.615  0.00  0.00    +0.000 HD
ENDBRANCH   6   9
TORSDOF 2
ENDMDL
MODEL 6
REMARK VINA RESULT:    -4.360      2.321      3.192
REMARK INTER + INTRA:          -4.782
REMARK INTER:                  -4.745
REMARK INTRA:                  -0.037
REMARK UNBOUND:                -0.040
REMARK  Name = 
REMARK  3 active torsions:
REMARK  status: ('A' for Active; 'I' for Inactive)
REMARK    1  A    between atoms: C_1  and  O_2
REMARK    2  A    between atoms: O_2  and  C_3
REMARK    3  A    between atoms: C_8  and  O_9
REMARK                            x       y       z     vdW  Elec       q    Type
REMARK                         _______ _______ _______ _____ _____    ______ ____
ROOT
ATOM      1  C   UNL     1       7.103   3.389 -13.983  0.00  0.00    +0.000 A 
ATOM      2  C   UNL     1       7.849   3.878 -12.911  0.00  0.00    +0.000 A 
ATOM      3  C   UNL     1       9.175   3.462 -12.734  0.00  0.00    +0.000 A 
ATOM      4  C   UNL     1       9.758   2.558 -13.624  0.00  0.00    +0.000 A 
ATOM      5  C   UNL     1       9.019   2.065 -14.697  0.00  0.00    +0.000 A 
ATOM      6  C   UNL     1       7.705   2.483 -14.865  0.00  0.00    +0.000 A 
ENDROOT
BRANCH   1   8
ATOM      7  C   UNL     1       5.180   4.675 -13.440  0.00  0.00    +0.000 C 
ATOM      8  O   UNL     1       5.802   3.708 -14.277  0.00  0.00    +0.000 OA
ENDBRANCH   1   8
BRANCH   6   9
ATOM      9  O   UNL     1       6.999   1.985 -15.927  0.00  0.00    +0.000 OA
ATOM     10  H   UNL     1       6.062   2.075 -15.667  0.00  0.00    +0.000 HD
ENDBRANCH   6   9
TORSDOF 2
ENDMDL
MODEL 7
REMARK VINA RESULT:    -4.217      4.230      5.494
REMARK INTER + INTRA:          -4.627
REMARK INTER:                  -4.584
REMARK INTRA:                  -0.043
REMARK UNBOUND:                -0.040
REMARK  Name = 
REMARK  3 active torsions:
REMARK  status: ('A' for Active; 'I' for Inactive)
REMARK    1  A    between atoms: C_1  and  O_2
REMARK    2  A    between atoms: O_2  and  C_3
REMARK    3  A    between atoms: C_8  and  O_9
REMARK                            x       y       z     vdW  Elec       q    Type
REMARK                         _______ _______ _______ _____ _____    ______ ____
ROOT
ATOM      1  C   UNL     1       5.232   3.916 -12.244  0.00  0.00    +0.000 A 
ATOM      2  C   UNL     1       6.464   3.376 -12.610  0.00  0.00    +0.000 A 
ATOM      3  C   UNL     1       7.108   3.824 -13.771  0.00  0.00    +0.000 A 
ATOM      4  C   UNL     1       6.523   4.809 -14.568  0.00  0.00    +0.000 A 
ATOM      5  C   UNL     1       5.293   5.354 -14.209  0.00  0.00    +0.000 A 
ATOM      6  C   UNL     1       4.662   4.904 -13.057  0.00  0.00    +0.000 A 
ENDROOT
BRANCH   1   8
ATOM      7  C   UNL     1       4.533   2.208 -10.747  0.00  0.00    +0.000 C 
ATOM      8  O   UNL     1       4.492   3.574 -11.141  0.00  0.00    +0.000 OA
ENDBRANCH   1   8
BRANCH   6   9
ATOM      9  O   UNL     1       3.453   5.454 -12.724  0.00  0.00    +0.000 OA
ATOM     10  H   UNL     1       3.433   6.311 -13.192  0.00  0.00    +0.000 HD
ENDBRANCH   6   9
TORSDOF 2
ENDMDL
MODEL 8
REMARK VINA RESULT:    -4.195      4.278      5.155
REMARK INTER + INTRA:          -4.602
REMARK INTER:                  -4.551
REMARK INTRA:                  -0.051
REMARK UNBOUND:                -0.040
REMARK  Name = 
REMARK  3 active torsions:
REMARK  status: ('A' for Active; 'I' for Inactive)
REMARK    1  A    between atoms: C_1  and  O_2
REMARK    2  A    between atoms: O_2  and  C_3
REMARK    3  A    between atoms: C_8  and  O_9
REMARK                            x       y       z     vdW  Elec       q    Type
REMARK                         _______ _______ _______ _____ _____    ______ ____
ROOT
ATOM      1  C   UNL     1       5.014   5.129 -13.045  0.00  0.00    +0.000 A 
ATOM      2  C   UNL     1       5.797   5.393 -14.168  0.00  0.00    +0.000 A 
ATOM      3  C   UNL     1       6.866   4.547 -14.490  0.00  0.00    +0.000 A 
ATOM      4  C   UNL     1       7.157   3.439 -13.693  0.00  0.00    +0.000 A 
ATOM      5  C   UNL     1       6.380   3.168 -12.569  0.00  0.00    +0.000 A 
ATOM      6  C   UNL     1       5.321   4.012 -12.257  0.00  0.00    +0.000 A 
ENDROOT
BRANCH   1   8
ATOM      7  C   UNL     1       2.870   6.030 -13.533  0.00  0.00    +0.000 C 
ATOM      8  O   UNL     1       3.942   5.867 -12.612  0.00  0.00    +0.000 OA
ENDBRANCH   1   8
BRANCH   6   9
ATOM      9  O   UNL     1       4.571   3.726 -11.148  0.00  0.00    +0.000 OA
ATOM     10  H   UNL     1       5.206   3.746 -10.407  0.00  0.00    +0.000 HD
ENDBRANCH   6   9
TORSDOF 2
ENDMDL
MODEL 9
REMARK VINA RESULT:    -4.141      1.318      3.435
REMARK INTER + INTRA:          -4.544
REMARK INTER:                  -4.506
REMARK INTRA:                  -0.038
REMARK UNBOUND:                -0.040
REMARK  Name = 
REMARK  3 active torsions:
REMARK  status: ('A' for Active; 'I' for Inactive)
REMARK    1  A    between atoms: C_1  and  O_2
REMARK    2  A    between atoms: O_2  and  C_3
REMARK    3  A    between atoms: C_8  and  O_9
REMARK                            x       y       z     vdW  Elec       q    Type
REMARK                         _______ _______ _______ _____ _____    ______ ____
ROOT
ATOM      1  C   UNL     1       8.957   2.849 -13.809  0.00  0.00    +0.000 A 
ATOM      2  C   UNL     1       8.496   4.117 -13.458  0.00  0.00    +0.000 A 
ATOM      3  C   UNL     1       7.270   4.578 -13.956  0.00  0.00    +0.000 A 
ATOM      4  C   UNL     1       6.504   3.776 -14.804  0.00  0.00    +0.000 A 
ATOM      5  C   UNL     1       6.958   2.508 -15.159  0.00  0.00    +0.000 A 
ATOM      6  C   UNL     1       8.175   2.059 -14.660  0.00  0.00    +0.000 A 
ENDROOT
BRANCH   1   8
ATOM      7  C   UNL     1      11.114   3.146 -12.856  0.00  0.00    +0.000 C 
ATOM      8  O   UNL     1      10.132   2.271 -13.399  0.00  0.00    +0.000 OA
ENDBRANCH   1   8
BRANCH   6   9
ATOM      9  O   UNL     1       8.600   0.809 -15.023  0.00  0.00    +0.000 OA
ATOM     10  H   UNL     1       8.814   0.885 -15.973  0.00  0.00    +0.000 HD
ENDBRANCH   6   9
TORSDOF 2
ENDMDL
