MODEL 1
REMARK VINA RESULT:    -4.097      0.000      0.000
REMARK INTER + INTRA:          -4.497
REMARK INTER:                  -4.457
REMARK INTRA:                  -0.041
REMARK UNBOUND:                -0.041
REMARK  Name = 
REMARK  3 active torsions:
REMARK  status: ('A' for Active; 'I' for Inactive)
REMARK    1  A    between atoms: C_1  and  O_2
REMARK    2  A    between atoms: O_2  and  C_3
REMARK    3  A    between atoms: C_8  and  O_9
REMARK                            x       y       z     vdW  Elec       q    Type
REMARK                         _______ _______ _______ _____ _____    ______ ____
ROOT
ATOM      1  C   UNL     1      21.374   8.041   3.843  0.00  0.00    +0.000 A 
ATOM      2  C   UNL     1      20.860   9.303   3.549  0.00  0.00    +0.000 A 
ATOM      3  C   UNL     1      21.729  10.375   3.311  0.00  0.00    +0.000 A 
ATOM      4  C   UNL     1      23.112  10.190   3.368  0.00  0.00    +0.000 A 
ATOM      5  C   UNL     1      23.633   8.932   3.661  0.00  0.00    +0.000 A 
ATOM      6  C   UNL     1      22.764   7.875   3.895  0.00  0.00    +0.000 A 
ENDROOT
BRANCH   1   8
ATOM      7  C   UNL     1      19.350   7.097   4.654  0.00  0.00    +0.000 C 
ATOM      8  O   UNL     1      20.645   6.907   4.098  0.00  0.00    +0.000 OA
ENDBRANCH   1   8
BRANCH   6   9
ATOM      9  O   UNL     1      23.300   6.648   4.182  0.00  0.00    +0.000 OA
ATOM     10  H   UNL     1      23.911   6.811   4.926  0.00  0.00    +0.000 HD
ENDBRANCH   6   9
TORSDOF 2
ENDMDL
MODEL 2
REMARK VINA RESULT:    -3.893      8.863      9.674
REMARK INTER + INTRA:          -4.275
REMARK INTER:                  -4.222
REMARK INTRA:                  -0.053
REMARK UNBOUND:                -0.041
REMARK  Name = 
REMARK  3 active torsions:
REMARK  status: ('A' for Active; 'I' for Inactive)
REMARK    1  A    between atoms: C_1  and  O_2
REMARK    2  A    between atoms: O_2  and  C_3
REMARK    3  A    between atoms: C_8  and  O_9
REMARK                            x       y       z     vdW  Elec       q    Type
REMARK                         _______ _______ _______ _____ _____    ______ ____
ROOT
ATOM      1  C   UNL     1      27.699  15.861   5.276  0.00  0.00    +0.000 A 
ATOM      2  C   UNL     1      28.977  15.340   5.075  0.00  0.00    +0.000 A 
ATOM      3  C   UNL     1      29.299  14.727   3.858  0.00  0.00    +0.000 A 
ATOM      4  C   UNL     1      28.349  14.632   2.840  0.00  0.00    +0.000 A 
ATOM      5  C   UNL     1      27.070  15.150   3.032  0.00  0.00    +0.000 A 
ATOM      6  C   UNL     1      26.759  15.757   4.243  0.00  0.00    +0.000 A 
ENDROOT
BRANCH   1   8
ATOM      7  C   UNL     1      27.167  15.685   7.585  0.00  0.00    +0.000 C 
ATOM      8  O   UNL     1      27.247  16.484   6.411  0.00  0.00    +0.000 OA
ENDBRANCH   1   8
BRANCH   6   9
ATOM      9  O   UNL     1      25.496  16.259   4.409  0.00  0.00    +0.000 OA
ATOM     10  H   UNL     1      24.933  15.708   3.833  0.00  0.00    +0.000 HD
ENDBRANCH   6   9
TORSDOF 2
ENDMDL
MODEL 3
REMARK VINA RESULT:    -3.881     10.278     11.389
REMARK INTER + INTRA:          -4.262
REMARK INTER:                  -4.209
REMARK INTRA:                  -0.053
REMARK UNBOUND:                -0.041
REMARK  Name = 
REMARK  3 active torsions:
REMARK  status: ('A' for Active; 'I' for Inactive)
REMARK    1  A    between atoms: C_1  and  O_2
REMARK    2  A    between atoms: O_2  and  C_3
REMARK    3  A    between atoms: C_8  and  O_9
REMARK                            x       y       z     vdW  Elec       q    Type
REMARK                         _______ _______ _______ _____ _____    ______ ____
ROOT
ATOM      1  C   UNL     1      30.357  14.322   6.478  0.00  0.00    +0.000 A 
ATOM      2  C   UNL     1      30.088  15.407   7.312  0.00  0.00    +0.000 A 
ATOM      3  C   UNL     1      30.874  15.627   8.450  0.00  0.00    +0.000 A 
ATOM      4  C   UNL     1      31.928  14.767   8.759  0.00  0.00    +0.000 A 
ATOM      5  C   UNL     1      32.205  13.681   7.931  0.00  0.00    +0.000 A 
ATOM      6  C   UNL     1      31.420  13.469   6.805  0.00  0.00    +0.000 A 
ENDROOT
BRANCH   1   8
ATOM      7  C   UNL     1      29.738  14.914   4.262  0.00  0.00    +0.000 C 
ATOM      8  O   UNL     1      29.674  13.985   5.338  0.00  0.00    +0.000 OA
ENDBRANCH   1   8
BRANCH   6   9
ATOM      9  O   UNL     1      31.710  12.395   6.007  0.00  0.00    +0.000 OA
ATOM     10  H   UNL     1      32.674  12.270   6.100  0.00  0.00    +0.000 HD
ENDBRANCH   6   9
TORSDOF 2
ENDMDL
MODEL 4
REMARK VINA RESULT:    -3.820     10.059     11.381
REMARK INTER + INTRA:          -4.195
REMARK INTER:                  -4.157
REMARK INTRA:                  -0.039
REMARK UNBOUND:                -0.041
REMARK  Name = 
REMARK  3 active torsions:
REMARK  status: ('A' for Active; 'I' for Inactive)
REMARK    1  A    between atoms: C_1  and  O_2
REMARK    2  A    between atoms: O_2  and  C_3
REMARK    3  A    between atoms: C_8  and  O_9
REMARK                            x       y       z     vdW  Elec       q    Type
REMARK                         _______ _______ _______ _____ _____    ______ ____
ROOT
ATOM      1  C   UNL     1      29.811  14.841   7.445  0.00  0.00    +0.000 A 
ATOM      2  C   UNL     1      30.255  15.832   8.319  0.00  0.00    +0.000 A 
ATOM      3  C   UNL     1      31.621  16.131   8.401  0.00  0.00    +0.000 A 
ATOM      4  C   UNL     1      32.545  15.442   7.614  0.00  0.00    +0.000 A 
ATOM      5  C   UNL     1      32.108  14.450   6.738  0.00  0.00    +0.000 A 
ATOM      6  C   UNL     1      30.752  14.160   6.663  0.00  0.00    +0.000 A 
ENDROOT
BRANCH   1   8
ATOM      7  C   UNL     1      27.503  15.345   7.709  0.00  0.00    +0.000 C 
ATOM      8  O   UNL     1      28.510  14.445   7.262  0.00  0.00    +0.000 OA
ENDBRANCH   1   8
BRANCH   6   9
ATOM      9  O   UNL     1      30.347  13.182   5.796  0.00  0.00    +0.000 OA
ATOM     10  H   UNL     1      30.822  13.374   4.965  0.00  0.00    +0.000 HD
ENDBRANCH   6   9
TORSDOF 2
ENDMDL
MODEL 5
REMARK VINA RESULT:    -3.712     10.003     11.650
REMARK INTER + INTRA:          -4.079
REMARK INTER:                  -4.027
REMARK INTRA:                  -0.052
REMARK UNBOUND:                -0.041
REMARK  Name = 
REMARK  3 active torsions:
REMARK  status: ('A' for Active; 'I' for Inactive)
REMARK    1  A    between atoms: C_1  and  O_2
REMARK    2  A    between atoms: O_2  and  C_3
REMARK    3  A    between atoms: C_8  and  O_9
REMARK                            x       y       z     vdW  Elec       q    Type
REMARK                         _______ _______ _______ _____ _____    ______ ____
ROOT
ATOM      1  C   UNL     1      30.816  14.905   7.482  0.00  0.00    +0.000 A 
ATOM      2  C   UNL     1      30.566  15.863   8.463  0.00  0.00    +0.000 A 
ATOM      3  C   UNL     1      29.248  16.231   8.762  0.00  0.00    +0.000 A 
ATOM      4  C   UNL     1      28.178  15.645   8.082  0.00  0.00    +0.000 A 
ATOM      5  C   UNL     1      28.420  14.686   7.101  0.00  0.00    +0.000 A 
ATOM      6  C   UNL     1      29.731  14.327   6.811  0.00  0.00    +0.000 A 
ENDROOT
BRANCH   1   8
ATOM      7  C   UNL     1      32.942  15.421   6.554  0.00  0.00    +0.000 C 
ATOM      8  O   UNL     1      32.049  14.451   7.088  0.00  0.00    +0.000 OA
ENDBRANCH   1   8
BRANCH   6   9
ATOM      9  O   UNL     1      29.944  13.383   5.843  0.00  0.00    +0.000 OA
ATOM     10  H   UNL     1      29.647  13.806   5.014  0.00  0.00    +0.000 HD
ENDBRANCH   6   9
TORSDOF 2
ENDMDL
MODEL 6
REMARK VINA RESULT:    -3.704      9.412     10.191
REMARK INTER + INTRA:          -4.069
REMARK INTER:                  -4.023
REMARK INTRA:                  -0.046
REMARK UNBOUND:                -0.041
REMARK  Name = 
REMARK  3 active torsions:
REMARK  status: ('A' for Active; 'I' for Inactive)
REMARK    1  A    between atoms: C_1  and  O_2
REMARK    2  A    between atoms: O_2  and  C_3
REMARK    3  A    between atoms: C_8  and  O_9
REMARK                            x       y       z     vdW  Elec       q    Type
REMARK                         _______ _______ _______ _____ _____    ______ ____
ROOT
ATOM      1  C   UNL     1      29.081  15.131   4.961  0.00  0.00    +0.000 A 
ATOM      2  C   UNL     1      28.341  16.270   5.273  0.00  0.00    +0.000 A 
ATOM      3  C   UNL     1      28.110  16.609   6.612  0.00  0.00    +0.000 A 
ATOM      4  C   UNL     1      28.615  15.812   7.641  0.00  0.00    +0.000 A 
ATOM      5  C   UNL     1      29.356  14.672   7.337  0.00  0.00    +0.000 A 
ATOM      6  C   UNL     1      29.580  14.344   6.006  0.00  0.00    +0.000 A 
ENDROOT
BRANCH   1   8
ATOM      7  C   UNL     1      28.325  14.699   2.749  0.00  0.00    +0.000 C 
ATOM      8  O   UNL     1      29.383  14.680   3.701  0.00  0.00    +0.000 OA
ENDBRANCH   1   8
BRANCH   6   9
ATOM      9  O   UNL     1      30.310  13.219   5.732  0.00  0.00    +0.000 OA
ATOM     10  H   UNL     1      30.822  13.050   6.546  0.00  0.00    +0.000 HD
ENDBRANCH   6   9
TORSDOF 2
ENDMDL
MODEL 7
REMARK VINA RESULT:    -3.666      9.568     10.153
REMARK INTER + INTRA:          -4.028
REMARK INTER:                  -3.976
REMARK INTRA:                  -0.052
REMARK UNBOUND:                -0.041
REMARK  Name = 
REMARK  3 active torsions:
REMARK  status: ('A' for Active; 'I' for Inactive)
REMARK    1  A    between atoms: C_1  and  O_2
REMARK    2  A    between atoms: O_2  and  C_3
REMARK    3  A    between atoms: C_8  and  O_9
REMARK                            x       y       z     vdW  Elec       q    Type
REMARK                         _______ _______ _______ _____ _____    ______ ____
ROOT
ATOM      1  C   UNL     1      28.559  15.452   4.957  0.00  0.00    +0.000 A 
ATOM      2  C   UNL     1      29.479  14.810   5.784  0.00  0.00    +0.000 A 
ATOM      3  C   UNL     1      29.189  14.621   7.141  0.00  0.00    +0.000 A 
ATOM      4  C   UNL     1      27.980  15.073   7.675  0.00  0.00    +0.000 A 
ATOM      5  C   UNL     1      27.055  15.715   6.855  0.00  0.00    +0.000 A 
ATOM      6  C   UNL     1      27.352  15.898   5.511  0.00  0.00    +0.000 A 
ENDROOT
BRANCH   1   8
ATOM      7  C   UNL     1      28.842  14.570   2.769  0.00  0.00    +0.000 C 
ATOM      8  O   UNL     1      28.710  15.704   3.617  0.00  0.00    +0.000 OA
ENDBRANCH   1   8
BRANCH   6   9
ATOM      9  O   UNL     1      26.427  16.532   4.724  0.00  0.00    +0.000 OA
ATOM     10  H   UNL     1      26.946  16.918   3.993  0.00  0.00    +0.000 HD
ENDBRANCH   6   9
TORSDOF 2
ENDMDL
MODEL 8
REMARK VINA RESULT:    -3.612      8.759     10.022
REMARK INTER + INTRA:          -3.969
REMARK INTER:                  -3.916
REMARK INTRA:                  -0.052
REMARK UNBOUND:                -0.041
REMARK  Name = 
REMARK  3 active torsions:
REMARK  status: ('A' for Active; 'I' for Inactive)
REMARK    1  A    between atoms: C_1  and  O_2
REMARK    2  A    between atoms: O_2  and  C_3
REMARK    3  A    between atoms: C_8  and  O_9
REMARK                            x       y       z     vdW  Elec       q    Type
REMARK                         _______ _______ _______ _____ _____    ______ ____
ROOT
ATOM      1  C   UNL     1      28.007  16.069   3.277  0.00  0.00    +0.000 A 
ATOM      2  C   UNL     1      28.731  17.135   2.745  0.00  0.00    +0.000 A 
ATOM      3  C   UNL     1      28.571  17.488   1.400  0.00  0.00    +0.000 A 
ATOM      4  C   UNL     1      27.690  16.778   0.582  0.00  0.00    +0.000 A 
ATOM      5  C   UNL     1      26.962  15.712   1.106  0.00  0.00    +0.000 A 
ATOM      6  C   UNL     1      27.128  15.369   2.441  0.00  0.00    +0.000 A 
ENDROOT
BRANCH   1   8
ATOM      7  C   UNL     1      27.542  16.480   5.571  0.00  0.00    +0.000 C 
ATOM      8  O   UNL     1      28.064  15.614   4.570  0.00  0.00    +0.000 OA
ENDBRANCH   1   8
BRANCH   6   9
ATOM      9  O   UNL     1      26.402  14.317   2.933  0.00  0.00    +0.000 OA
ATOM     10  H   UNL     1      26.162  13.792   2.147  0.00  0.00    +0.000 HD
ENDBRANCH   6   9
TORSDOF 2
ENDMDL
MODEL 9
REMARK VINA RESULT:    -3.602     11.202     12.554
REMARK INTER + INTRA:          -3.958
REMARK INTER:                  -3.920
REMARK INTRA:                  -0.039
REMARK UNBOUND:                -0.041
REMARK  Name = 
REMARK  3 active torsions:
REMARK  status: ('A' for Active; 'I' for Inactive)
REMARK    1  A    between atoms: C_1  and  O_2
REMARK    2  A    between atoms: O_2  and  C_3
REMARK    3  A    between atoms: C_8  and  O_9
REMARK                            x       y       z     vdW  Elec       q    Type
REMARK                         _______ _______ _______ _____ _____    ______ ____
ROOT
ATOM      1  C   UNL     1      30.973  15.573   7.174  0.00  0.00    +0.000 A 
ATOM      2  C   UNL     1      30.596  16.812   6.658  0.00  0.00    +0.000 A 
ATOM      3  C   UNL     1      31.571  17.700   6.187  0.00  0.00    +0.000 A 
ATOM      4  C   UNL     1      32.923  17.354   6.229  0.00  0.00    +0.000 A 
ATOM      5  C   UNL     1      33.308  16.117   6.743  0.00  0.00    +0.000 A 
ATOM      6  C   UNL     1      32.334  15.243   7.208  0.00  0.00    +0.000 A 
ENDROOT
BRANCH   1   8
ATOM      7  C   UNL     1      28.762  14.708   7.291  0.00  0.00    +0.000 C 
ATOM      8  O   UNL     1      30.130  14.609   7.668  0.00  0.00    +0.000 OA
ENDBRANCH   1   8
BRANCH   6   9
ATOM      9  O   UNL     1      32.736  14.034   7.709  0.00  0.00    +0.000 OA
ATOM     10  H   UNL     1      32.946  13.496   6.921  0.00  0.00    +0.000 HD
ENDBRANCH   6   9
TORSDOF 2
ENDMDL
