MODEL 1
REMARK VINA RESULT:    -4.913      0.000      0.000
REMARK INTER + INTRA:          -7.258
REMARK INTER:                  -6.636
REMARK INTRA:                  -0.622
REMARK UNBOUND:                -0.622
REMARK  Name = 
REMARK  10 active torsions:
REMARK  status: ('A' for Active; 'I' for Inactive)
REMARK    1  A    between atoms: C_1  and  C_2
REMARK    2  A    between atoms: C_5  and  N_8
REMARK    3  A    between atoms: N_8  and  C_9
REMARK    4  A    between atoms: N_8  and  C_13
REMARK    5  A    between atoms: C_9  and  C_10
REMARK    6  A    between atoms: C_10  and  C_11
REMARK    7  A    between atoms: C_10  and  O_12
REMARK    8  A    between atoms: C_13  and  C_14
REMARK    9  A    between atoms: C_14  and  C_15
REMARK   10  A    between atoms: C_14  and  O_16
REMARK                            x       y       z     vdW  Elec       q    Type
REMARK                         _______ _______ _______ _____ _____    ______ ____
ROOT
ATOM      1  N   UNL     1       3.837   6.323 -13.918  0.00  0.00    +0.000 N 
ENDROOT
BRANCH   1   6
ATOM      2  C   UNL     1       8.314   2.804 -12.966  0.00  0.00    +0.000 C 
ATOM      3  C   UNL     1       7.142   3.701 -13.228  0.00  0.00    +0.000 A 
ATOM      4  C   UNL     1       7.181   4.647 -14.246  0.00  0.00    +0.000 A 
ATOM      5  C   UNL     1       6.091   5.505 -14.468  0.00  0.00    +0.000 A 
ATOM      6  C   UNL     1       4.928   5.478 -13.678  0.00  0.00    +0.000 A 
ATOM      7  C   UNL     1       4.923   4.507 -12.660  0.00  0.00    +0.000 A 
ATOM      8  C   UNL     1       6.005   3.642 -12.428  0.00  0.00    +0.000 A 
ENDBRANCH   1   6
BRANCH   1   9
ATOM      9  C   UNL     1       2.851   5.984 -14.972  0.00  0.00    +0.000 C 
BRANCH   9  10
ATOM     10  C   UNL     1       1.447   6.573 -14.692  0.00  0.00    +0.000 C 
ATOM     11  C   UNL     1       0.466   6.192 -15.794  0.00  0.00    +0.000 C 
BRANCH  10  12
ATOM     12  O   UNL     1       0.925   6.090 -13.446  0.00  0.00    +0.000 OA
ATOM     13  H   UNL     1      -0.019   6.315 -13.407  0.00  0.00    +0.000 HD
ENDBRANCH  10  12
ENDBRANCH   9  10
ENDBRANCH   1   9
BRANCH   1  14
ATOM     14  C   UNL     1       3.881   7.760 -13.543  0.00  0.00    +0.000 C 
BRANCH  14  15
ATOM     15  C   UNL     1       3.645   7.976 -12.029  0.00  0.00    +0.000 C 
ATOM     16  C   UNL     1       4.522   9.072 -11.435  0.00  0.00    +0.000 C 
BRANCH  15  17
ATOM     17  O   UNL     1       2.284   8.300 -11.749  0.00  0.00    +0.000 OA
ATOM     18  H   UNL     1       2.091   9.084 -12.302  0.00  0.00    +0.000 HD
ENDBRANCH  15  17
ENDBRANCH  14  15
ENDBRANCH   1  14
TORSDOF 7
ENDMDL
MODEL 2
REMARK VINA RESULT:    -4.906      4.020      6.388
REMARK INTER + INTRA:          -7.249
REMARK INTER:                  -7.297
REMARK INTRA:                   0.048
REMARK UNBOUND:                -0.622
REMARK  Name = 
REMARK  10 active torsions:
REMARK  status: ('A' for Active; 'I' for Inactive)
REMARK    1  A    between atoms: C_1  and  C_2
REMARK    2  A    between atoms: C_5  and  N_8
REMARK    3  A    between atoms: N_8  and  C_9
REMARK    4  A    between atoms: N_8  and  C_13
REMARK    5  A    between atoms: C_9  and  C_10
REMARK    6  A    between atoms: C_10  and  C_11
REMARK    7  A    between atoms: C_10  and  O_12
REMARK    8  A    between atoms: C_13  and  C_14
REMARK    9  A    between atoms: C_14  and  C_15
REMARK   10  A    between atoms: C_14  and  O_16
REMARK                            x       y       z     vdW  Elec       q    Type
REMARK                         _______ _______ _______ _____ _____    ______ ____
ROOT
ATOM      1  N   UNL     1       7.480   3.537 -13.223  0.00  0.00    +0.000 N 
ENDROOT
BRANCH   1   6
ATOM      2  C   UNL     1       3.226   7.439 -13.327  0.00  0.00    +0.000 C 
ATOM      3  C   UNL     1       4.317   6.412 -13.316  0.00  0.00    +0.000 A 
ATOM      4  C   UNL     1       4.319   5.381 -12.382  0.00  0.00    +0.000 A 
ATOM      5  C   UNL     1       5.361   4.439 -12.358  0.00  0.00    +0.000 A 
ATOM      6  C   UNL     1       6.455   4.491 -13.240  0.00  0.00    +0.000 A 
ATOM      7  C   UNL     1       6.419   5.545 -14.172  0.00  0.00    +0.000 A 
ATOM      8  C   UNL     1       5.382   6.492 -14.209  0.00  0.00    +0.000 A 
ENDBRANCH   1   6
BRANCH   1   9
ATOM      9  C   UNL     1       7.174   2.112 -13.493  0.00  0.00    +0.000 C 
BRANCH   9  10
ATOM     10  C   UNL     1       7.383   1.724 -14.977  0.00  0.00    +0.000 C 
ATOM     11  C   UNL     1       7.734   2.947 -15.816  0.00  0.00    +0.000 C 
BRANCH  10  12
ATOM     12  O   UNL     1       8.447   0.771 -15.115  0.00  0.00    +0.000 OA
ATOM     13  H   UNL     1       8.886   0.931 -15.967  0.00  0.00    +0.000 HD
ENDBRANCH  10  12
ENDBRANCH   9  10
ENDBRANCH   1   9
BRANCH   1  14
ATOM     14  C   UNL     1       8.737   3.773 -12.468  0.00  0.00    +0.000 C 
BRANCH  14  15
ATOM     15  C   UNL     1       9.976   3.207 -13.203  0.00  0.00    +0.000 C 
ATOM     16  C   UNL     1      11.232   4.044 -12.993  0.00  0.00    +0.000 C 
BRANCH  15  17
ATOM     17  O   UNL     1      10.263   1.870 -12.799  0.00  0.00    +0.000 OA
ATOM     18  H   UNL     1       9.464   1.573 -12.319  0.00  0.00    +0.000 HD
ENDBRANCH  15  17
ENDBRANCH  14  15
ENDBRANCH   1  14
TORSDOF 7
ENDMDL
MODEL 3
REMARK VINA RESULT:    -4.905      0.091      1.193
REMARK INTER + INTRA:          -7.247
REMARK INTER:                  -6.604
REMARK INTRA:                  -0.643
REMARK UNBOUND:                -0.622
REMARK  Name = 
REMARK  10 active torsions:
REMARK  status: ('A' for Active; 'I' for Inactive)
REMARK    1  A    between atoms: C_1  and  C_2
REMARK    2  A    between atoms: C_5  and  N_8
REMARK    3  A    between atoms: N_8  and  C_9
REMARK    4  A    between atoms: N_8  and  C_13
REMARK    5  A    between atoms: C_9  and  C_10
REMARK    6  A    between atoms: C_10  and  C_11
REMARK    7  A    between atoms: C_10  and  O_12
REMARK    8  A    between atoms: C_13  and  C_14
REMARK    9  A    between atoms: C_14  and  C_15
REMARK   10  A    between atoms: C_14  and  O_16
REMARK                            x       y       z     vdW  Elec       q    Type
REMARK                         _______ _______ _______ _____ _____    ______ ____
ROOT
ATOM      1  N   UNL     1       3.863   6.336 -13.990  0.00  0.00    +0.000 N 
ENDROOT
BRANCH   1   6
ATOM      2  C   UNL     1       8.219   2.687 -12.968  0.00  0.00    +0.000 C 
ATOM      3  C   UNL     1       7.099   3.651 -13.218  0.00  0.00    +0.000 A 
ATOM      4  C   UNL     1       5.940   3.614 -12.449  0.00  0.00    +0.000 A 
ATOM      5  C   UNL     1       4.881   4.500 -12.707  0.00  0.00    +0.000 A 
ATOM      6  C   UNL     1       4.915   5.443 -13.750  0.00  0.00    +0.000 A 
ATOM      7  C   UNL     1       6.102   5.453 -14.505  0.00  0.00    +0.000 A 
ATOM      8  C   UNL     1       7.169   4.574 -14.257  0.00  0.00    +0.000 A 
ENDBRANCH   1   6
BRANCH   1   9
ATOM      9  C   UNL     1       2.873   6.051 -15.056  0.00  0.00    +0.000 C 
BRANCH   9  10
ATOM     10  C   UNL     1       1.454   6.564 -14.711  0.00  0.00    +0.000 C 
ATOM     11  C   UNL     1       0.461   6.203 -15.810  0.00  0.00    +0.000 C 
BRANCH  10  12
ATOM     12  O   UNL     1       0.984   5.991 -13.482  0.00  0.00    +0.000 OA
ATOM     13  H   UNL     1       0.030   6.163 -13.415  0.00  0.00    +0.000 HD
ENDBRANCH  10  12
ENDBRANCH   9  10
ENDBRANCH   1   9
BRANCH   1  14
ATOM     14  C   UNL     1       3.964   7.765 -13.598  0.00  0.00    +0.000 C 
BRANCH  14  15
ATOM     15  C   UNL     1       3.724   7.974 -12.083  0.00  0.00    +0.000 C 
ATOM     16  C   UNL     1       4.517   9.141 -11.506  0.00  0.00    +0.000 C 
BRANCH  15  17
ATOM     17  O   UNL     1       2.344   8.191 -11.792  0.00  0.00    +0.000 OA
ATOM     18  H   UNL     1       2.257   9.160 -11.689  0.00  0.00    +0.000 HD
ENDBRANCH  15  17
ENDBRANCH  14  15
ENDBRANCH   1  14
TORSDOF 7
ENDMDL
MODEL 4
REMARK VINA RESULT:    -4.659      0.654      3.269
REMARK INTER + INTRA:          -6.915
REMARK INTER:                  -6.251
REMARK INTRA:                  -0.664
REMARK UNBOUND:                -0.622
REMARK  Name = 
REMARK  10 active torsions:
REMARK  status: ('A' for Active; 'I' for Inactive)
REMARK    1  A    between atoms: C_1  and  C_2
REMARK    2  A    between atoms: C_5  and  N_8
REMARK    3  A    between atoms: N_8  and  C_9
REMARK    4  A    between atoms: N_8  and  C_13
REMARK    5  A    between atoms: C_9  and  C_10
REMARK    6  A    between atoms: C_10  and  C_11
REMARK    7  A    between atoms: C_10  and  O_12
REMARK    8  A    between atoms: C_13  and  C_14
REMARK    9  A    between atoms: C_14  and  C_15
REMARK   10  A    between atoms: C_14  and  O_16
REMARK                            x       y       z     vdW  Elec       q    Type
REMARK                         _______ _______ _______ _____ _____    ______ ____
ROOT
ATOM      1  N   UNL     1       3.424   6.447 -13.757  0.00  0.00    +0.000 N 
ENDROOT
BRANCH   1   6
ATOM      2  C   UNL     1       8.011   3.016 -13.035  0.00  0.00    +0.000 C 
ATOM      3  C   UNL     1       6.831   3.923 -13.207  0.00  0.00    +0.000 A 
ATOM      4  C   UNL     1       5.717   3.810 -12.383  0.00  0.00    +0.000 A 
ATOM      5  C   UNL     1       4.601   4.643 -12.568  0.00  0.00    +0.000 A 
ATOM      6  C   UNL     1       4.532   5.606 -13.591  0.00  0.00    +0.000 A 
ATOM      7  C   UNL     1       5.677   5.694 -14.404  0.00  0.00    +0.000 A 
ATOM      8  C   UNL     1       6.800   4.869 -14.228  0.00  0.00    +0.000 A 
ENDBRANCH   1   6
BRANCH   1   9
ATOM      9  C   UNL     1       3.515   7.879 -13.385  0.00  0.00    +0.000 C 
BRANCH   9  10
ATOM     10  C   UNL     1       3.498   8.103 -11.853  0.00  0.00    +0.000 C 
ATOM     11  C   UNL     1       4.543   9.133 -11.441  0.00  0.00    +0.000 C 
BRANCH  10  12
ATOM     12  O   UNL     1       2.215   8.573 -11.416  0.00  0.00    +0.000 OA
ATOM     13  H   UNL     1       1.997   9.371 -11.926  0.00  0.00    +0.000 HD
ENDBRANCH  10  12
ENDBRANCH   9  10
ENDBRANCH   1   9
BRANCH   1  14
ATOM     14  C   UNL     1       2.044   5.900 -13.802  0.00  0.00    +0.000 C 
BRANCH  14  15
ATOM     15  C   UNL     1       1.016   6.948 -14.292  0.00  0.00    +0.000 C 
ATOM     16  C   UNL     1       0.151   6.447 -15.442  0.00  0.00    +0.000 C 
BRANCH  15  17
ATOM     17  O   UNL     1       0.151   7.370 -13.240  0.00  0.00    +0.000 OA
ATOM     18  H   UNL     1       0.683   7.997 -12.711  0.00  0.00    +0.000 HD
ENDBRANCH  15  17
ENDBRANCH  14  15
ENDBRANCH   1  14
TORSDOF 7
ENDMDL
MODEL 5
REMARK VINA RESULT:    -4.485      0.951      3.002
REMARK INTER + INTRA:          -6.679
REMARK INTER:                  -6.115
REMARK INTRA:                  -0.565
REMARK UNBOUND:                -0.622
REMARK  Name = 
REMARK  10 active torsions:
REMARK  status: ('A' for Active; 'I' for Inactive)
REMARK    1  A    between atoms: C_1  and  C_2
REMARK    2  A    between atoms: C_5  and  N_8
REMARK    3  A    between atoms: N_8  and  C_9
REMARK    4  A    between atoms: N_8  and  C_13
REMARK    5  A    between atoms: C_9  and  C_10
REMARK    6  A    between atoms: C_10  and  C_11
REMARK    7  A    between atoms: C_10  and  O_12
REMARK    8  A    between atoms: C_13  and  C_14
REMARK    9  A    between atoms: C_14  and  C_15
REMARK   10  A    between atoms: C_14  and  O_16
REMARK                            x       y       z     vdW  Elec       q    Type
REMARK                         _______ _______ _______ _____ _____    ______ ____
ROOT
ATOM      1  N   UNL     1       3.725   6.386 -13.524  0.00  0.00    +0.000 N 
ENDROOT
BRANCH   1   6
ATOM      2  C   UNL     1       8.193   2.748 -13.166  0.00  0.00    +0.000 C 
ATOM      3  C   UNL     1       7.022   3.676 -13.274  0.00  0.00    +0.000 A 
ATOM      4  C   UNL     1       6.984   4.668 -14.248  0.00  0.00    +0.000 A 
ATOM      5  C   UNL     1       5.897   5.555 -14.325  0.00  0.00    +0.000 A 
ATOM      6  C   UNL     1       4.814   5.511 -13.428  0.00  0.00    +0.000 A 
ATOM      7  C   UNL     1       4.885   4.495 -12.459  0.00  0.00    +0.000 A 
ATOM      8  C   UNL     1       5.965   3.601 -12.371  0.00  0.00    +0.000 A 
ENDBRANCH   1   6
BRANCH   1   9
ATOM      9  C   UNL     1       3.489   7.398 -12.466  0.00  0.00    +0.000 C 
BRANCH   9  10
ATOM     10  C   UNL     1       4.612   8.461 -12.391  0.00  0.00    +0.000 C 
ATOM     11  C   UNL     1       4.752   9.201 -13.717  0.00  0.00    +0.000 C 
BRANCH  10  12
ATOM     12  O   UNL     1       4.338   9.429 -11.369  0.00  0.00    +0.000 OA
ATOM     13  H   UNL     1       3.533   9.153 -10.901  0.00  0.00    +0.000 HD
ENDBRANCH  10  12
ENDBRANCH   9  10
ENDBRANCH   1   9
BRANCH   1  14
ATOM     14  C   UNL     1       2.528   6.039 -14.333  0.00  0.00    +0.000 C 
BRANCH  14  15
ATOM     15  C   UNL     1       1.329   6.970 -14.032  0.00  0.00    +0.000 C 
ATOM     16  C   UNL     1       0.829   7.720 -15.261  0.00  0.00    +0.000 C 
BRANCH  15  17
ATOM     17  O   UNL     1       0.230   6.250 -13.477  0.00  0.00    +0.000 OA
ATOM     18  H   UNL     1       0.086   6.649 -12.595  0.00  0.00    +0.000 HD
ENDBRANCH  15  17
ENDBRANCH  14  15
ENDBRANCH   1  14
TORSDOF 7
ENDMDL
MODEL 6
REMARK VINA RESULT:    -4.351     10.615     12.957
REMARK INTER + INTRA:          -6.499
REMARK INTER:                  -6.013
REMARK INTRA:                  -0.486
REMARK UNBOUND:                -0.622
REMARK  Name = 
REMARK  10 active torsions:
REMARK  status: ('A' for Active; 'I' for Inactive)
REMARK    1  A    between atoms: C_1  and  C_2
REMARK    2  A    between atoms: C_5  and  N_8
REMARK    3  A    between atoms: N_8  and  C_9
REMARK    4  A    between atoms: N_8  and  C_13
REMARK    5  A    between atoms: C_9  and  C_10
REMARK    6  A    between atoms: C_10  and  C_11
REMARK    7  A    between atoms: C_10  and  O_12
REMARK    8  A    between atoms: C_13  and  C_14
REMARK    9  A    between atoms: C_14  and  C_15
REMARK   10  A    between atoms: C_14  and  O_16
REMARK                            x       y       z     vdW  Elec       q    Type
REMARK                         _______ _______ _______ _____ _____    ______ ____
ROOT
ATOM      1  N   UNL     1       2.454   9.748  -1.563  0.00  0.00    +0.000 N 
ENDROOT
BRANCH   1   6
ATOM      2  C   UNL     1       0.064   6.138  -5.383  0.00  0.00    +0.000 C 
ATOM      3  C   UNL     1       0.669   7.093  -4.399  0.00  0.00    +0.000 A 
ATOM      4  C   UNL     1       1.775   7.864  -4.739  0.00  0.00    +0.000 A 
ATOM      5  C   UNL     1       2.356   8.736  -3.803  0.00  0.00    +0.000 A 
ATOM      6  C   UNL     1       1.882   8.863  -2.485  0.00  0.00    +0.000 A 
ATOM      7  C   UNL     1       0.761   8.069  -2.177  0.00  0.00    +0.000 A 
ATOM      8  C   UNL     1       0.169   7.196  -3.104  0.00  0.00    +0.000 A 
ENDBRANCH   1   6
BRANCH   1   9
ATOM      9  C   UNL     1       1.633  10.823  -0.957  0.00  0.00    +0.000 C 
BRANCH   9  10
ATOM     10  C   UNL     1       1.516  10.694   0.582  0.00  0.00    +0.000 C 
ATOM     11  C   UNL     1       0.960  11.974   1.195  0.00  0.00    +0.000 C 
BRANCH  10  12
ATOM     12  O   UNL     1       0.646   9.613   0.943  0.00  0.00    +0.000 OA
ATOM     13  H   UNL     1      -0.004   9.950   1.582  0.00  0.00    +0.000 HD
ENDBRANCH  10  12
ENDBRANCH   9  10
ENDBRANCH   1   9
BRANCH   1  14
ATOM     14  C   UNL     1       3.919   9.992  -1.538  0.00  0.00    +0.000 C 
BRANCH  14  15
ATOM     15  C   UNL     1       4.670   8.952  -0.672  0.00  0.00    +0.000 C 
ATOM     16  C   UNL     1       6.101   8.706  -1.137  0.00  0.00    +0.000 C 
BRANCH  15  17
ATOM     17  O   UNL     1       4.713   9.342   0.700  0.00  0.00    +0.000 OA
ATOM     18  H   UNL     1       5.659   9.305   0.944  0.00  0.00    +0.000 HD
ENDBRANCH  15  17
ENDBRANCH  14  15
ENDBRANCH   1  14
TORSDOF 7
ENDMDL
MODEL 7
REMARK VINA RESULT:    -4.262      1.856      3.611
REMARK INTER + INTRA:          -6.378
REMARK INTER:                  -5.589
REMARK INTRA:                  -0.789
REMARK UNBOUND:                -0.622
REMARK  Name = 
REMARK  10 active torsions:
REMARK  status: ('A' for Active; 'I' for Inactive)
REMARK    1  A    between atoms: C_1  and  C_2
REMARK    2  A    between atoms: C_5  and  N_8
REMARK    3  A    between atoms: N_8  and  C_9
REMARK    4  A    between atoms: N_8  and  C_13
REMARK    5  A    between atoms: C_9  and  C_10
REMARK    6  A    between atoms: C_10  and  C_11
REMARK    7  A    between atoms: C_10  and  O_12
REMARK    8  A    between atoms: C_13  and  C_14
REMARK    9  A    between atoms: C_14  and  C_15
REMARK   10  A    between atoms: C_14  and  O_16
REMARK                            x       y       z     vdW  Elec       q    Type
REMARK                         _______ _______ _______ _____ _____    ______ ____
ROOT
ATOM      1  N   UNL     1       3.877   7.200 -13.788  0.00  0.00    +0.000 N 
ENDROOT
BRANCH   1   6
ATOM      2  C   UNL     1       7.372   2.659 -13.087  0.00  0.00    +0.000 C 
ATOM      3  C   UNL     1       6.481   3.851 -13.255  0.00  0.00    +0.000 A 
ATOM      4  C   UNL     1       5.441   4.097 -12.365  0.00  0.00    +0.000 A 
ATOM      5  C   UNL     1       4.590   5.200 -12.545  0.00  0.00    +0.000 A 
ATOM      6  C   UNL     1       4.717   6.091 -13.625  0.00  0.00    +0.000 A 
ATOM      7  C   UNL     1       5.781   5.814 -14.504  0.00  0.00    +0.000 A 
ATOM      8  C   UNL     1       6.641   4.716 -14.334  0.00  0.00    +0.000 A 
ENDBRANCH   1   6
BRANCH   1   9
ATOM      9  C   UNL     1       4.352   8.554 -13.414  0.00  0.00    +0.000 C 
BRANCH   9  10
ATOM     10  C   UNL     1       4.813   9.387 -14.636  0.00  0.00    +0.000 C 
ATOM     11  C   UNL     1       6.333   9.472 -14.696  0.00  0.00    +0.000 C 
BRANCH  10  12
ATOM     12  O   UNL     1       4.352   8.801 -15.861  0.00  0.00    +0.000 OA
ATOM     13  H   UNL     1       5.126   8.469 -16.346  0.00  0.00    +0.000 HD
ENDBRANCH  10  12
ENDBRANCH   9  10
ENDBRANCH   1   9
BRANCH   1  14
ATOM     14  C   UNL     1       2.400   7.046 -13.829  0.00  0.00    +0.000 C 
BRANCH  14  15
ATOM     15  C   UNL     1       1.930   6.248 -15.069  0.00  0.00    +0.000 C 
ATOM     16  C   UNL     1       0.420   6.285 -15.268  0.00  0.00    +0.000 C 
BRANCH  15  17
ATOM     17  O   UNL     1       2.546   6.723 -16.265  0.00  0.00    +0.000 OA
ATOM     18  H   UNL     1       1.963   6.415 -16.989  0.00  0.00    +0.000 HD
ENDBRANCH  15  17
ENDBRANCH  14  15
ENDBRANCH   1  14
TORSDOF 7
ENDMDL
MODEL 8
REMARK VINA RESULT:    -4.211      3.332      5.665
REMARK INTER + INTRA:          -6.310
REMARK INTER:                  -5.860
REMARK INTRA:                  -0.450
REMARK UNBOUND:                -0.622
REMARK  Name = 
REMARK  10 active torsions:
REMARK  status: ('A' for Active; 'I' for Inactive)
REMARK    1  A    between atoms: C_1  and  C_2
REMARK    2  A    between atoms: C_5  and  N_8
REMARK    3  A    between atoms: N_8  and  C_9
REMARK    4  A    between atoms: N_8  and  C_13
REMARK    5  A    between atoms: C_9  and  C_10
REMARK    6  A    between atoms: C_10  and  C_11
REMARK    7  A    between atoms: C_10  and  O_12
REMARK    8  A    between atoms: C_13  and  C_14
REMARK    9  A    between atoms: C_14  and  C_15
REMARK   10  A    between atoms: C_14  and  O_16
REMARK                            x       y       z     vdW  Elec       q    Type
REMARK                         _______ _______ _______ _____ _____    ______ ____
ROOT
ATOM      1  N   UNL     1       5.642   4.355 -13.188  0.00  0.00    +0.000 N 
ENDROOT
BRANCH   1   6
ATOM      2  C   UNL     1       4.563   9.931 -14.223  0.00  0.00    +0.000 C 
ATOM      3  C   UNL     1       4.864   8.491 -13.942  0.00  0.00    +0.000 A 
ATOM      4  C   UNL     1       5.591   7.724 -14.846  0.00  0.00    +0.000 A 
ATOM      5  C   UNL     1       5.845   6.366 -14.591  0.00  0.00    +0.000 A 
ATOM      6  C   UNL     1       5.369   5.705 -13.445  0.00  0.00    +0.000 A 
ATOM      7  C   UNL     1       4.639   6.511 -12.552  0.00  0.00    +0.000 A 
ATOM      8  C   UNL     1       4.380   7.871 -12.794  0.00  0.00    +0.000 A 
ENDBRANCH   1   6
BRANCH   1   9
ATOM      9  C   UNL     1       4.651   3.520 -12.467  0.00  0.00    +0.000 C 
BRANCH   9  10
ATOM     10  C   UNL     1       5.259   2.787 -11.246  0.00  0.00    +0.000 C 
ATOM     11  C   UNL     1       4.202   2.540 -10.176  0.00  0.00    +0.000 C 
BRANCH  10  12
ATOM     12  O   UNL     1       5.808   1.519 -11.629  0.00  0.00    +0.000 OA
ATOM     13  H   UNL     1       5.195   0.824 -11.336  0.00  0.00    +0.000 HD
ENDBRANCH  10  12
ENDBRANCH   9  10
ENDBRANCH   1   9
BRANCH   1  14
ATOM     14  C   UNL     1       7.037   3.849 -13.140  0.00  0.00    +0.000 C 
BRANCH  14  15
ATOM     15  C   UNL     1       7.397   3.008 -14.389  0.00  0.00    +0.000 C 
ATOM     16  C   UNL     1       8.782   3.318 -14.942  0.00  0.00    +0.000 C 
BRANCH  15  17
ATOM     17  O   UNL     1       7.332   1.608 -14.119  0.00  0.00    +0.000 OA
ATOM     18  H   UNL     1       7.891   1.478 -13.326  0.00  0.00    +0.000 HD
ENDBRANCH  15  17
ENDBRANCH  14  15
ENDBRANCH   1  14
TORSDOF 7
ENDMDL
MODEL 9
REMARK VINA RESULT:    -4.136      8.968     11.149
REMARK INTER + INTRA:          -6.208
REMARK INTER:                  -5.847
REMARK INTRA:                  -0.361
REMARK UNBOUND:                -0.622
REMARK  Name = 
REMARK  10 active torsions:
REMARK  status: ('A' for Active; 'I' for Inactive)
REMARK    1  A    between atoms: C_1  and  C_2
REMARK    2  A    between atoms: C_5  and  N_8
REMARK    3  A    between atoms: N_8  and  C_9
REMARK    4  A    between atoms: N_8  and  C_13
REMARK    5  A    between atoms: C_9  and  C_10
REMARK    6  A    between atoms: C_10  and  C_11
REMARK    7  A    between atoms: C_10  and  O_12
REMARK    8  A    between atoms: C_13  and  C_14
REMARK    9  A    between atoms: C_14  and  C_15
REMARK   10  A    between atoms: C_14  and  O_16
REMARK                            x       y       z     vdW  Elec       q    Type
REMARK                         _______ _______ _______ _____ _____    ______ ____
ROOT
ATOM      1  N   UNL     1       1.477   8.624  -3.227  0.00  0.00    +0.000 N 
ENDROOT
BRANCH   1   6
ATOM      2  C   UNL     1      -1.459   6.796  -7.849  0.00  0.00    +0.000 C 
ATOM      3  C   UNL     1      -0.676   7.270  -6.663  0.00  0.00    +0.000 A 
ATOM      4  C   UNL     1      -0.145   6.366  -5.750  0.00  0.00    +0.000 A 
ATOM      5  C   UNL     1       0.562   6.817  -4.624  0.00  0.00    +0.000 A 
ATOM      6  C   UNL     1       0.754   8.182  -4.342  0.00  0.00    +0.000 A 
ATOM      7  C   UNL     1       0.206   9.067  -5.288  0.00  0.00    +0.000 A 
ATOM      8  C   UNL     1      -0.502   8.629  -6.419  0.00  0.00    +0.000 A 
ENDBRANCH   1   6
BRANCH   1   9
ATOM      9  C   UNL     1       2.892   9.043  -3.378  0.00  0.00    +0.000 C 
BRANCH   9  10
ATOM     10  C   UNL     1       3.539   8.514  -4.681  0.00  0.00    +0.000 C 
ATOM     11  C   UNL     1       4.052   9.663  -5.541  0.00  0.00    +0.000 C 
BRANCH  10  12
ATOM     12  O   UNL     1       4.646   7.648  -4.391  0.00  0.00    +0.000 OA
ATOM     13  H   UNL     1       5.002   7.895  -3.521  0.00  0.00    +0.000 HD
ENDBRANCH  10  12
ENDBRANCH   9  10
ENDBRANCH   1   9
BRANCH   1  14
ATOM     14  C   UNL     1       1.087   8.228  -1.850  0.00  0.00    +0.000 C 
BRANCH  14  15
ATOM     15  C   UNL     1       0.416   9.389  -1.076  0.00  0.00    +0.000 C 
ATOM     16  C   UNL     1      -1.041   9.606  -1.465  0.00  0.00    +0.000 C 
BRANCH  15  17
ATOM     17  O   UNL     1       0.471   9.182   0.335  0.00  0.00    +0.000 OA
ATOM     18  H   UNL     1      -0.462   9.183   0.627  0.00  0.00    +0.000 HD
ENDBRANCH  15  17
ENDBRANCH  14  15
ENDBRANCH   1  14
TORSDOF 7
ENDMDL
