MODEL 1
REMARK VINA RESULT:    -5.542      0.000      0.000
REMARK INTER + INTRA:          -6.068
REMARK INTER:                  -6.028
REMARK INTRA:                  -0.039
REMARK UNBOUND:                -0.039
REMARK  Name = 
REMARK  3 active torsions:
REMARK  status: ('A' for Active; 'I' for Inactive)
REMARK    1  A    between atoms: C_1  and  O_2
REMARK    2  A    between atoms: O_2  and  C_3
REMARK    3  A    between atoms: C_8  and  O_9
REMARK                            x       y       z     vdW  Elec       q    Type
REMARK                         _______ _______ _______ _____ _____    ______ ____
ROOT
ATOM      1  C   UNL     1       9.398   2.897 -14.056  0.00  0.00    +0.000 A 
ATOM      2  C   UNL     1       9.507   4.179 -14.594  0.00  0.00    +0.000 A 
ATOM      3  C   UNL     1      10.480   5.061 -14.108  0.00  0.00    +0.000 A 
ATOM      4  C   UNL     1      11.345   4.667 -13.085  0.00  0.00    +0.000 A 
ATOM      5  C   UNL     1      11.242   3.388 -12.543  0.00  0.00    +0.000 A 
ATOM      6  C   UNL     1      10.274   2.520 -13.030  0.00  0.00    +0.000 A 
ENDROOT
BRANCH   1   8
ATOM      7  C   UNL     1       7.302   2.391 -15.056  0.00  0.00    +0.000 C 
ATOM      8  O   UNL     1       8.496   1.934 -14.431  0.00  0.00    +0.000 OA
ENDBRANCH   1   8
BRANCH   6   9
ATOM      9  O   UNL     1      10.192   1.268 -12.481  0.00  0.00    +0.000 OA
ATOM     10  H   UNL     1       9.269   1.192 -12.173  0.00  0.00    +0.000 HD
ENDBRANCH   6   9
TORSDOF 2
ENDMDL
MODEL 2
REMARK VINA RESULT:    -4.684      1.544      1.970
REMARK INTER + INTRA:          -5.135
REMARK INTER:                  -5.082
REMARK INTRA:                  -0.053
REMARK UNBOUND:                -0.039
REMARK  Name = 
REMARK  3 active torsions:
REMARK  status: ('A' for Active; 'I' for Inactive)
REMARK    1  A    between atoms: C_1  and  O_2
REMARK    2  A    between atoms: O_2  and  C_3
REMARK    3  A    between atoms: C_8  and  O_9
REMARK                            x       y       z     vdW  Elec       q    Type
REMARK                         _______ _______ _______ _____ _____    ______ ____
ROOT
ATOM      1  C   UNL     1       8.362   3.864 -14.179  0.00  0.00    +0.000 A 
ATOM      2  C   UNL     1       9.412   4.779 -14.243  0.00  0.00    +0.000 A 
ATOM      3  C   UNL     1      10.629   4.493 -13.613  0.00  0.00    +0.000 A 
ATOM      4  C   UNL     1      10.802   3.295 -12.917  0.00  0.00    +0.000 A 
ATOM      5  C   UNL     1       9.758   2.376 -12.848  0.00  0.00    +0.000 A 
ATOM      6  C   UNL     1       8.554   2.668 -13.476  0.00  0.00    +0.000 A 
ENDROOT
BRANCH   1   8
ATOM      7  C   UNL     1       6.289   5.026 -14.195  0.00  0.00    +0.000 C 
ATOM      8  O   UNL     1       7.121   4.012 -14.745  0.00  0.00    +0.000 OA
ENDBRANCH   1   8
BRANCH   6   9
ATOM      9  O   UNL     1       7.542   1.748 -13.395  0.00  0.00    +0.000 OA
ATOM     10  H   UNL     1       7.237   1.797 -12.469  0.00  0.00    +0.000 HD
ENDBRANCH   6   9
TORSDOF 2
ENDMDL
MODEL 3
REMARK VINA RESULT:    -4.562      3.588      4.600
REMARK INTER + INTRA:          -5.002
REMARK INTER:                  -4.965
REMARK INTRA:                  -0.037
REMARK UNBOUND:                -0.039
REMARK  Name = 
REMARK  3 active torsions:
REMARK  status: ('A' for Active; 'I' for Inactive)
REMARK    1  A    between atoms: C_1  and  O_2
REMARK    2  A    between atoms: O_2  and  C_3
REMARK    3  A    between atoms: C_8  and  O_9
REMARK                            x       y       z     vdW  Elec       q    Type
REMARK                         _______ _______ _______ _____ _____    ______ ____
ROOT
ATOM      1  C   UNL     1       5.619   3.281 -12.245  0.00  0.00    +0.000 A 
ATOM      2  C   UNL     1       4.946   4.500 -12.305  0.00  0.00    +0.000 A 
ATOM      3  C   UNL     1       5.310   5.454 -13.263  0.00  0.00    +0.000 A 
ATOM      4  C   UNL     1       6.346   5.194 -14.163  0.00  0.00    +0.000 A 
ATOM      5  C   UNL     1       7.023   3.978 -14.109  0.00  0.00    +0.000 A 
ATOM      6  C   UNL     1       6.655   3.038 -13.156  0.00  0.00    +0.000 A 
ENDROOT
BRANCH   1   8
ATOM      7  C   UNL     1       4.335   2.480 -10.413  0.00  0.00    +0.000 C 
ATOM      8  O   UNL     1       5.370   2.259 -11.364  0.00  0.00    +0.000 OA
ENDBRANCH   1   8
BRANCH   6   9
ATOM      9  O   UNL     1       7.335   1.850 -13.123  0.00  0.00    +0.000 OA
ATOM     10  H   UNL     1       7.729   1.765 -14.012  0.00  0.00    +0.000 HD
ENDBRANCH   6   9
TORSDOF 2
ENDMDL
MODEL 4
REMARK VINA RESULT:    -4.453      2.782      4.062
REMARK INTER + INTRA:          -4.882
REMARK INTER:                  -4.858
REMARK INTRA:                  -0.024
REMARK UNBOUND:                -0.039
REMARK  Name = 
REMARK  3 active torsions:
REMARK  status: ('A' for Active; 'I' for Inactive)
REMARK    1  A    between atoms: C_1  and  O_2
REMARK    2  A    between atoms: O_2  and  C_3
REMARK    3  A    between atoms: C_8  and  O_9
REMARK                            x       y       z     vdW  Elec       q    Type
REMARK                         _______ _______ _______ _____ _____    ______ ____
ROOT
ATOM      1  C   UNL     1       7.053   3.858 -14.095  0.00  0.00    +0.000 A 
ATOM      2  C   UNL     1       6.454   5.100 -14.303  0.00  0.00    +0.000 A 
ATOM      3  C   UNL     1       5.417   5.526 -13.464  0.00  0.00    +0.000 A 
ATOM      4  C   UNL     1       4.975   4.715 -12.417  0.00  0.00    +0.000 A 
ATOM      5  C   UNL     1       5.568   3.473 -12.202  0.00  0.00    +0.000 A 
ATOM      6  C   UNL     1       6.596   3.058 -13.040  0.00  0.00    +0.000 A 
ENDROOT
BRANCH   1   8
ATOM      7  C   UNL     1       9.385   3.784 -14.548  0.00  0.00    +0.000 C 
ATOM      8  O   UNL     1       8.073   3.315 -14.835  0.00  0.00    +0.000 OA
ENDBRANCH   1   8
BRANCH   6   9
ATOM      9  O   UNL     1       7.164   1.834 -12.810  0.00  0.00    +0.000 OA
ATOM     10  H   UNL     1       7.281   1.793 -11.841  0.00  0.00    +0.000 HD
ENDBRANCH   6   9
TORSDOF 2
ENDMDL
MODEL 5
REMARK VINA RESULT:    -4.380      4.060      5.115
REMARK INTER + INTRA:          -4.804
REMARK INTER:                  -4.765
REMARK INTRA:                  -0.039
REMARK UNBOUND:                -0.039
REMARK  Name = 
REMARK  3 active torsions:
REMARK  status: ('A' for Active; 'I' for Inactive)
REMARK    1  A    between atoms: C_1  and  O_2
REMARK    2  A    between atoms: O_2  and  C_3
REMARK    3  A    between atoms: C_8  and  O_9
REMARK                            x       y       z     vdW  Elec       q    Type
REMARK                         _______ _______ _______ _____ _____    ______ ____
ROOT
ATOM      1  C   UNL     1       5.983   4.137 -13.018  0.00  0.00    +0.000 A 
ATOM      2  C   UNL     1       6.285   4.852 -14.177  0.00  0.00    +0.000 A 
ATOM      3  C   UNL     1       5.634   6.063 -14.441  0.00  0.00    +0.000 A 
ATOM      4  C   UNL     1       4.682   6.564 -13.551  0.00  0.00    +0.000 A 
ATOM      5  C   UNL     1       4.376   5.856 -12.391  0.00  0.00    +0.000 A 
ATOM      6  C   UNL     1       5.026   4.655 -12.137  0.00  0.00    +0.000 A 
ENDROOT
BRANCH   1   8
ATOM      7  C   UNL     1       7.766   2.584 -13.257  0.00  0.00    +0.000 C 
ATOM      8  O   UNL     1       6.539   2.943 -12.634  0.00  0.00    +0.000 OA
ENDBRANCH   1   8
BRANCH   6   9
ATOM      9  O   UNL     1       4.708   3.978 -10.990  0.00  0.00    +0.000 OA
ATOM     10  H   UNL     1       5.566   3.807 -10.556  0.00  0.00    +0.000 HD
ENDBRANCH   6   9
TORSDOF 2
ENDMDL
MODEL 6
REMARK VINA RESULT:    -4.221      4.214      5.506
REMARK INTER + INTRA:          -4.631
REMARK INTER:                  -4.586
REMARK INTRA:                  -0.044
REMARK UNBOUND:                -0.039
REMARK  Name = 
REMARK  3 active torsions:
REMARK  status: ('A' for Active; 'I' for Inactive)
REMARK    1  A    between atoms: C_1  and  O_2
REMARK    2  A    between atoms: O_2  and  C_3
REMARK    3  A    between atoms: C_8  and  O_9
REMARK                            x       y       z     vdW  Elec       q    Type
REMARK                         _______ _______ _______ _____ _____    ______ ____
ROOT
ATOM      1  C   UNL     1       5.246   3.927 -12.244  0.00  0.00    +0.000 A 
ATOM      2  C   UNL     1       6.479   3.402 -12.628  0.00  0.00    +0.000 A 
ATOM      3  C   UNL     1       7.092   3.845 -13.807  0.00  0.00    +0.000 A 
ATOM      4  C   UNL     1       6.477   4.812 -14.604  0.00  0.00    +0.000 A 
ATOM      5  C   UNL     1       5.245   5.342 -14.226  0.00  0.00    +0.000 A 
ATOM      6  C   UNL     1       4.644   4.896 -13.056  0.00  0.00    +0.000 A 
ENDROOT
BRANCH   1   8
ATOM      7  C   UNL     1       4.515   2.207 -10.777  0.00  0.00    +0.000 C 
ATOM      8  O   UNL     1       4.534   3.586 -11.122  0.00  0.00    +0.000 OA
ENDBRANCH   1   8
BRANCH   6   9
ATOM      9  O   UNL     1       3.433   5.431 -12.706  0.00  0.00    +0.000 OA
ATOM     10  H   UNL     1       3.179   4.959 -11.891  0.00  0.00    +0.000 HD
ENDBRANCH   6   9
TORSDOF 2
ENDMDL
MODEL 7
REMARK VINA RESULT:    -4.218      4.264      5.189
REMARK INTER + INTRA:          -4.627
REMARK INTER:                  -4.576
REMARK INTRA:                  -0.051
REMARK UNBOUND:                -0.039
REMARK  Name = 
REMARK  3 active torsions:
REMARK  status: ('A' for Active; 'I' for Inactive)
REMARK    1  A    between atoms: C_1  and  O_2
REMARK    2  A    between atoms: O_2  and  C_3
REMARK    3  A    between atoms: C_8  and  O_9
REMARK                            x       y       z     vdW  Elec       q    Type
REMARK                         _______ _______ _______ _____ _____    ______ ____
ROOT
ATOM      1  C   UNL     1       5.000   5.107 -13.044  0.00  0.00    +0.000 A 
ATOM      2  C   UNL     1       5.718   5.262 -14.229  0.00  0.00    +0.000 A 
ATOM      3  C   UNL     1       6.745   4.366 -14.548  0.00  0.00    +0.000 A 
ATOM      4  C   UNL     1       7.060   3.314 -13.685  0.00  0.00    +0.000 A 
ATOM      5  C   UNL     1       6.348   3.152 -12.499  0.00  0.00    +0.000 A 
ATOM      6  C   UNL     1       5.330   4.046 -12.191  0.00  0.00    +0.000 A 
ENDROOT
BRANCH   1   8
ATOM      7  C   UNL     1       2.870   6.062 -13.488  0.00  0.00    +0.000 C 
ATOM      8  O   UNL     1       3.975   5.906 -12.605  0.00  0.00    +0.000 OA
ENDBRANCH   1   8
BRANCH   6   9
ATOM      9  O   UNL     1       4.644   3.866 -11.020  0.00  0.00    +0.000 OA
ATOM     10  H   UNL     1       3.792   3.473 -11.289  0.00  0.00    +0.000 HD
ENDBRANCH   6   9
TORSDOF 2
ENDMDL
MODEL 8
REMARK VINA RESULT:    -4.215      1.911      2.918
REMARK INTER + INTRA:          -4.624
REMARK INTER:                  -4.580
REMARK INTRA:                  -0.044
REMARK UNBOUND:                -0.039
REMARK  Name = 
REMARK  3 active torsions:
REMARK  status: ('A' for Active; 'I' for Inactive)
REMARK    1  A    between atoms: C_1  and  O_2
REMARK    2  A    between atoms: O_2  and  C_3
REMARK    3  A    between atoms: C_8  and  O_9
REMARK                            x       y       z     vdW  Elec       q    Type
REMARK                         _______ _______ _______ _____ _____    ______ ____
ROOT
ATOM      1  C   UNL     1       7.740   2.969 -13.274  0.00  0.00    +0.000 A 
ATOM      2  C   UNL     1       8.783   3.616 -12.612  0.00  0.00    +0.000 A 
ATOM      3  C   UNL     1       9.877   4.104 -13.338  0.00  0.00    +0.000 A 
ATOM      4  C   UNL     1       9.932   3.948 -14.725  0.00  0.00    +0.000 A 
ATOM      5  C   UNL     1       8.894   3.304 -15.393  0.00  0.00    +0.000 A 
ATOM      6  C   UNL     1       7.813   2.823 -14.665  0.00  0.00    +0.000 A 
ENDROOT
BRANCH   1   8
ATOM      7  C   UNL     1       5.631   3.374 -12.257  0.00  0.00    +0.000 C 
ATOM      8  O   UNL     1       6.614   2.443 -12.694  0.00  0.00    +0.000 OA
ENDBRANCH   1   8
BRANCH   6   9
ATOM      9  O   UNL     1       6.805   2.193 -15.344  0.00  0.00    +0.000 OA
ATOM     10  H   UNL     1       7.245   1.769 -16.106  0.00  0.00    +0.000 HD
ENDBRANCH   6   9
TORSDOF 2
ENDMDL
MODEL 9
REMARK VINA RESULT:    -3.918      3.564      5.284
REMARK INTER + INTRA:          -4.301
REMARK INTER:                  -4.258
REMARK INTRA:                  -0.043
REMARK UNBOUND:                -0.039
REMARK  Name = 
REMARK  3 active torsions:
REMARK  status: ('A' for Active; 'I' for Inactive)
REMARK    1  A    between atoms: C_1  and  O_2
REMARK    2  A    between atoms: O_2  and  C_3
REMARK    3  A    between atoms: C_8  and  O_9
REMARK                            x       y       z     vdW  Elec       q    Type
REMARK                         _______ _______ _______ _____ _____    ______ ____
ROOT
ATOM      1  C   UNL     1       6.267   4.028 -14.040  0.00  0.00    +0.000 A 
ATOM      2  C   UNL     1       6.141   3.544 -12.738  0.00  0.00    +0.000 A 
ATOM      3  C   UNL     1       5.158   4.067 -11.889  0.00  0.00    +0.000 A 
ATOM      4  C   UNL     1       4.300   5.073 -12.336  0.00  0.00    +0.000 A 
ATOM      5  C   UNL     1       4.418   5.561 -13.635  0.00  0.00    +0.000 A 
ATOM      6  C   UNL     1       5.397   5.037 -14.470  0.00  0.00    +0.000 A 
ENDROOT
BRANCH   1   8
ATOM      7  C   UNL     1       7.484   2.222 -14.991  0.00  0.00    +0.000 C 
ATOM      8  O   UNL     1       7.180   3.611 -14.975  0.00  0.00    +0.000 OA
ENDBRANCH   1   8
BRANCH   6   9
ATOM      9  O   UNL     1       5.494   5.533 -15.743  0.00  0.00    +0.000 OA
ATOM     10  H   UNL     1       6.408   5.329 -16.019  0.00  0.00    +0.000 HD
ENDBRANCH   6   9
TORSDOF 2
ENDMDL
