MODEL 1
REMARK VINA RESULT:    -4.921      0.000      0.000
REMARK INTER + INTRA:          -7.278
REMARK INTER:                  -6.648
REMARK INTRA:                  -0.630
REMARK UNBOUND:                -0.630
REMARK  Name = 
REMARK  10 active torsions:
REMARK  status: ('A' for Active; 'I' for Inactive)
REMARK    1  A    between atoms: C_1  and  C_2
REMARK    2  A    between atoms: C_5  and  N_8
REMARK    3  A    between atoms: N_8  and  C_9
REMARK    4  A    between atoms: N_8  and  C_13
REMARK    5  A    between atoms: C_9  and  C_10
REMARK    6  A    between atoms: C_10  and  C_11
REMARK    7  A    between atoms: C_10  and  O_12
REMARK    8  A    between atoms: C_13  and  C_14
REMARK    9  A    between atoms: C_14  and  C_15
REMARK   10  A    between atoms: C_14  and  O_16
REMARK                            x       y       z     vdW  Elec       q    Type
REMARK                         _______ _______ _______ _____ _____    ______ ____
ROOT
ATOM      1  N   UNL     1       3.879   6.305 -13.962  0.00  0.00    +0.000 N 
ENDROOT
BRANCH   1   6
ATOM      2  C   UNL     1       8.308   2.740 -12.959  0.00  0.00    +0.000 C 
ATOM      3  C   UNL     1       7.169   3.682 -13.204  0.00  0.00    +0.000 A 
ATOM      4  C   UNL     1       6.004   3.604 -12.448  0.00  0.00    +0.000 A 
ATOM      5  C   UNL     1       4.927   4.470 -12.702  0.00  0.00    +0.000 A 
ATOM      6  C   UNL     1       4.949   5.432 -13.728  0.00  0.00    +0.000 A 
ATOM      7  C   UNL     1       6.143   5.483 -14.470  0.00  0.00    +0.000 A 
ATOM      8  C   UNL     1       7.228   4.625 -14.225  0.00  0.00    +0.000 A 
ENDBRANCH   1   6
BRANCH   1   9
ATOM      9  C   UNL     1       2.886   5.996 -15.019  0.00  0.00    +0.000 C 
BRANCH   9  10
ATOM     10  C   UNL     1       1.479   6.560 -14.703  0.00  0.00    +0.000 C 
ATOM     11  C   UNL     1       0.490   6.209 -15.809  0.00  0.00    +0.000 C 
BRANCH  10  12
ATOM     12  O   UNL     1       0.975   6.027 -13.471  0.00  0.00    +0.000 OA
ATOM     13  H   UNL     1       0.909   6.756 -12.832  0.00  0.00    +0.000 HD
ENDBRANCH  10  12
ENDBRANCH   9  10
ENDBRANCH   1   9
BRANCH   1  14
ATOM     14  C   UNL     1       3.957   7.737 -13.578  0.00  0.00    +0.000 C 
BRANCH  14  15
ATOM     15  C   UNL     1       3.717   7.951 -12.065  0.00  0.00    +0.000 C 
ATOM     16  C   UNL     1       4.572   9.065 -11.473  0.00  0.00    +0.000 C 
BRANCH  15  17
ATOM     17  O   UNL     1       2.350   8.247 -11.784  0.00  0.00    +0.000 OA
ATOM     18  H   UNL     1       2.372   8.814 -10.988  0.00  0.00    +0.000 HD
ENDBRANCH  15  17
ENDBRANCH  14  15
ENDBRANCH   1  14
TORSDOF 7
ENDMDL
MODEL 2
REMARK VINA RESULT:    -4.921      0.071      1.192
REMARK INTER + INTRA:          -7.277
REMARK INTER:                  -6.660
REMARK INTRA:                  -0.617
REMARK UNBOUND:                -0.630
REMARK  Name = 
REMARK  10 active torsions:
REMARK  status: ('A' for Active; 'I' for Inactive)
REMARK    1  A    between atoms: C_1  and  C_2
REMARK    2  A    between atoms: C_5  and  N_8
REMARK    3  A    between atoms: N_8  and  C_9
REMARK    4  A    between atoms: N_8  and  C_13
REMARK    5  A    between atoms: C_9  and  C_10
REMARK    6  A    between atoms: C_10  and  C_11
REMARK    7  A    between atoms: C_10  and  O_12
REMARK    8  A    between atoms: C_13  and  C_14
REMARK    9  A    between atoms: C_14  and  C_15
REMARK   10  A    between atoms: C_14  and  O_16
REMARK                            x       y       z     vdW  Elec       q    Type
REMARK                         _______ _______ _______ _____ _____    ______ ____
ROOT
ATOM      1  N   UNL     1       3.845   6.329 -13.936  0.00  0.00    +0.000 N 
ENDROOT
BRANCH   1   6
ATOM      2  C   UNL     1       8.303   2.793 -12.962  0.00  0.00    +0.000 C 
ATOM      3  C   UNL     1       7.137   3.694 -13.230  0.00  0.00    +0.000 A 
ATOM      4  C   UNL     1       7.190   4.651 -14.238  0.00  0.00    +0.000 A 
ATOM      5  C   UNL     1       6.105   5.513 -14.465  0.00  0.00    +0.000 A 
ATOM      6  C   UNL     1       4.931   5.480 -13.691  0.00  0.00    +0.000 A 
ATOM      7  C   UNL     1       4.911   4.498 -12.683  0.00  0.00    +0.000 A 
ATOM      8  C   UNL     1       5.988   3.629 -12.446  0.00  0.00    +0.000 A 
ENDBRANCH   1   6
BRANCH   1   9
ATOM      9  C   UNL     1       2.873   6.003 -15.007  0.00  0.00    +0.000 C 
BRANCH   9  10
ATOM     10  C   UNL     1       1.457   6.562 -14.723  0.00  0.00    +0.000 C 
ATOM     11  C   UNL     1       0.493   6.200 -15.846  0.00  0.00    +0.000 C 
BRANCH  10  12
ATOM     12  O   UNL     1       0.931   6.034 -13.498  0.00  0.00    +0.000 OA
ATOM     13  H   UNL     1       0.803   6.774 -12.881  0.00  0.00    +0.000 HD
ENDBRANCH  10  12
ENDBRANCH   9  10
ENDBRANCH   1   9
BRANCH   1  14
ATOM     14  C   UNL     1       3.886   7.762 -13.545  0.00  0.00    +0.000 C 
BRANCH  14  15
ATOM     15  C   UNL     1       3.598   7.964 -12.038  0.00  0.00    +0.000 C 
ATOM     16  C   UNL     1       4.478   9.031 -11.397  0.00  0.00    +0.000 C 
BRANCH  15  17
ATOM     17  O   UNL     1       2.235   8.317 -11.804  0.00  0.00    +0.000 OA
ATOM     18  H   UNL     1       2.185   9.275 -11.998  0.00  0.00    +0.000 HD
ENDBRANCH  15  17
ENDBRANCH  14  15
ENDBRANCH   1  14
TORSDOF 7
ENDMDL
MODEL 3
REMARK VINA RESULT:    -4.846      4.014      6.364
REMARK INTER + INTRA:          -7.176
REMARK INTER:                  -6.531
REMARK INTRA:                  -0.645
REMARK UNBOUND:                -0.630
REMARK  Name = 
REMARK  10 active torsions:
REMARK  status: ('A' for Active; 'I' for Inactive)
REMARK    1  A    between atoms: C_1  and  C_2
REMARK    2  A    between atoms: C_5  and  N_8
REMARK    3  A    between atoms: N_8  and  C_9
REMARK    4  A    between atoms: N_8  and  C_13
REMARK    5  A    between atoms: C_9  and  C_10
REMARK    6  A    between atoms: C_10  and  C_11
REMARK    7  A    between atoms: C_10  and  O_12
REMARK    8  A    between atoms: C_13  and  C_14
REMARK    9  A    between atoms: C_14  and  C_15
REMARK   10  A    between atoms: C_14  and  O_16
REMARK                            x       y       z     vdW  Elec       q    Type
REMARK                         _______ _______ _______ _____ _____    ______ ____
ROOT
ATOM      1  N   UNL     1       8.006   4.038 -13.824  0.00  0.00    +0.000 N 
ENDROOT
BRANCH   1   6
ATOM      2  C   UNL     1       2.856   6.566 -13.178  0.00  0.00    +0.000 C 
ATOM      3  C   UNL     1       4.203   5.928 -13.331  0.00  0.00    +0.000 A 
ATOM      4  C   UNL     1       5.043   6.274 -14.384  0.00  0.00    +0.000 A 
ATOM      5  C   UNL     1       6.291   5.650 -14.540  0.00  0.00    +0.000 A 
ATOM      6  C   UNL     1       6.751   4.642 -13.674  0.00  0.00    +0.000 A 
ATOM      7  C   UNL     1       5.878   4.318 -12.620  0.00  0.00    +0.000 A 
ATOM      8  C   UNL     1       4.627   4.936 -12.451  0.00  0.00    +0.000 A 
ENDBRANCH   1   6
BRANCH   1   9
ATOM      9  C   UNL     1       8.306   3.238 -15.036  0.00  0.00    +0.000 C 
BRANCH   9  10
ATOM     10  C   UNL     1       7.546   1.890 -15.069  0.00  0.00    +0.000 C 
ATOM     11  C   UNL     1       6.728   1.757 -16.348  0.00  0.00    +0.000 C 
BRANCH  10  12
ATOM     12  O   UNL     1       8.457   0.783 -15.007  0.00  0.00    +0.000 OA
ATOM     13  H   UNL     1       9.357   1.126 -15.136  0.00  0.00    +0.000 HD
ENDBRANCH  10  12
ENDBRANCH   9  10
ENDBRANCH   1   9
BRANCH   1  14
ATOM     14  C   UNL     1       8.856   3.728 -12.646  0.00  0.00    +0.000 C 
BRANCH  14  15
ATOM     15  C   UNL     1      10.181   3.036 -13.047  0.00  0.00    +0.000 C 
ATOM     16  C   UNL     1      11.416   3.743 -12.500  0.00  0.00    +0.000 C 
BRANCH  15  17
ATOM     17  O   UNL     1      10.220   1.678 -12.610  0.00  0.00    +0.000 OA
ATOM     18  H   UNL     1       9.377   1.289 -12.920  0.00  0.00    +0.000 HD
ENDBRANCH  15  17
ENDBRANCH  14  15
ENDBRANCH   1  14
TORSDOF 7
ENDMDL
MODEL 4
REMARK VINA RESULT:    -4.693      0.611      3.269
REMARK INTER + INTRA:          -6.969
REMARK INTER:                  -6.301
REMARK INTRA:                  -0.668
REMARK UNBOUND:                -0.630
REMARK  Name = 
REMARK  10 active torsions:
REMARK  status: ('A' for Active; 'I' for Inactive)
REMARK    1  A    between atoms: C_1  and  C_2
REMARK    2  A    between atoms: C_5  and  N_8
REMARK    3  A    between atoms: N_8  and  C_9
REMARK    4  A    between atoms: N_8  and  C_13
REMARK    5  A    between atoms: C_9  and  C_10
REMARK    6  A    between atoms: C_10  and  C_11
REMARK    7  A    between atoms: C_10  and  O_12
REMARK    8  A    between atoms: C_13  and  C_14
REMARK    9  A    between atoms: C_14  and  C_15
REMARK   10  A    between atoms: C_14  and  O_16
REMARK                            x       y       z     vdW  Elec       q    Type
REMARK                         _______ _______ _______ _____ _____    ______ ____
ROOT
ATOM      1  N   UNL     1       3.517   6.402 -13.776  0.00  0.00    +0.000 N 
ENDROOT
BRANCH   1   6
ATOM      2  C   UNL     1       8.119   2.988 -13.065  0.00  0.00    +0.000 C 
ATOM      3  C   UNL     1       6.914   3.857 -13.265  0.00  0.00    +0.000 A 
ATOM      4  C   UNL     1       6.882   4.811 -14.276  0.00  0.00    +0.000 A 
ATOM      5  C   UNL     1       5.762   5.644 -14.439  0.00  0.00    +0.000 A 
ATOM      6  C   UNL     1       4.639   5.582 -13.595  0.00  0.00    +0.000 A 
ATOM      7  C   UNL     1       4.705   4.605 -12.586  0.00  0.00    +0.000 A 
ATOM      8  C   UNL     1       5.818   3.765 -12.413  0.00  0.00    +0.000 A 
ENDBRANCH   1   6
BRANCH   1   9
ATOM      9  C   UNL     1       3.580   7.838 -13.412  0.00  0.00    +0.000 C 
BRANCH   9  10
ATOM     10  C   UNL     1       3.545   8.071 -11.882  0.00  0.00    +0.000 C 
ATOM     11  C   UNL     1       4.585   9.104 -11.464  0.00  0.00    +0.000 C 
BRANCH  10  12
ATOM     12  O   UNL     1       2.257   8.542 -11.462  0.00  0.00    +0.000 OA
ATOM     13  H   UNL     1       1.841   8.994 -12.215  0.00  0.00    +0.000 HD
ENDBRANCH  10  12
ENDBRANCH   9  10
ENDBRANCH   1   9
BRANCH   1  14
ATOM     14  C   UNL     1       2.147   5.830 -13.829  0.00  0.00    +0.000 C 
BRANCH  14  15
ATOM     15  C   UNL     1       1.107   6.853 -14.345  0.00  0.00    +0.000 C 
ATOM     16  C   UNL     1       0.319   6.351 -15.549  0.00  0.00    +0.000 C 
BRANCH  15  17
ATOM     17  O   UNL     1       0.175   7.216 -13.328  0.00  0.00    +0.000 OA
ATOM     18  H   UNL     1      -0.408   6.436 -13.228  0.00  0.00    +0.000 HD
ENDBRANCH  15  17
ENDBRANCH  14  15
ENDBRANCH   1  14
TORSDOF 7
ENDMDL
MODEL 5
REMARK VINA RESULT:    -4.515      2.888      5.528
REMARK INTER + INTRA:          -6.729
REMARK INTER:                  -6.287
REMARK INTRA:                  -0.442
REMARK UNBOUND:                -0.630
REMARK  Name = 
REMARK  10 active torsions:
REMARK  status: ('A' for Active; 'I' for Inactive)
REMARK    1  A    between atoms: C_1  and  C_2
REMARK    2  A    between atoms: C_5  and  N_8
REMARK    3  A    between atoms: N_8  and  C_9
REMARK    4  A    between atoms: N_8  and  C_13
REMARK    5  A    between atoms: C_9  and  C_10
REMARK    6  A    between atoms: C_10  and  C_11
REMARK    7  A    between atoms: C_10  and  O_12
REMARK    8  A    between atoms: C_13  and  C_14
REMARK    9  A    between atoms: C_14  and  C_15
REMARK   10  A    between atoms: C_14  and  O_16
REMARK                            x       y       z     vdW  Elec       q    Type
REMARK                         _______ _______ _______ _____ _____    ______ ____
ROOT
ATOM      1  N   UNL     1       5.651   4.134 -12.871  0.00  0.00    +0.000 N 
ENDROOT
BRANCH   1   6
ATOM      2  C   UNL     1       3.934   8.112 -16.687  0.00  0.00    +0.000 C 
ATOM      3  C   UNL     1       4.388   7.065 -15.715  0.00  0.00    +0.000 A 
ATOM      4  C   UNL     1       3.523   6.063 -15.289  0.00  0.00    +0.000 A 
ATOM      5  C   UNL     1       3.944   5.102 -14.356  0.00  0.00    +0.000 A 
ATOM      6  C   UNL     1       5.231   5.106 -13.787  0.00  0.00    +0.000 A 
ATOM      7  C   UNL     1       6.079   6.133 -14.242  0.00  0.00    +0.000 A 
ATOM      8  C   UNL     1       5.671   7.098 -15.177  0.00  0.00    +0.000 A 
ENDBRANCH   1   6
BRANCH   1   9
ATOM      9  C   UNL     1       4.984   4.018 -11.551  0.00  0.00    +0.000 C 
BRANCH   9  10
ATOM     10  C   UNL     1       4.497   2.580 -11.249  0.00  0.00    +0.000 C 
ATOM     11  C   UNL     1       4.723   2.224  -9.785  0.00  0.00    +0.000 C 
BRANCH  10  12
ATOM     12  O   UNL     1       3.096   2.442 -11.528  0.00  0.00    +0.000 OA
ATOM     13  H   UNL     1       2.941   1.537 -11.847  0.00  0.00    +0.000 HD
ENDBRANCH  10  12
ENDBRANCH   9  10
ENDBRANCH   1   9
BRANCH   1  14
ATOM     14  C   UNL     1       7.020   3.561 -12.931  0.00  0.00    +0.000 C 
BRANCH  14  15
ATOM     15  C   UNL     1       7.291   2.834 -14.270  0.00  0.00    +0.000 C 
ATOM     16  C   UNL     1       8.597   3.260 -14.930  0.00  0.00    +0.000 C 
BRANCH  15  17
ATOM     17  O   UNL     1       7.322   1.417 -14.104  0.00  0.00    +0.000 OA
ATOM     18  H   UNL     1       6.389   1.133 -14.182  0.00  0.00    +0.000 HD
ENDBRANCH  15  17
ENDBRANCH  14  15
ENDBRANCH   1  14
TORSDOF 7
ENDMDL
MODEL 6
REMARK VINA RESULT:    -4.471      3.063      5.613
REMARK INTER + INTRA:          -6.670
REMARK INTER:                  -6.641
REMARK INTRA:                  -0.029
REMARK UNBOUND:                -0.630
REMARK  Name = 
REMARK  10 active torsions:
REMARK  status: ('A' for Active; 'I' for Inactive)
REMARK    1  A    between atoms: C_1  and  C_2
REMARK    2  A    between atoms: C_5  and  N_8
REMARK    3  A    between atoms: N_8  and  C_9
REMARK    4  A    between atoms: N_8  and  C_13
REMARK    5  A    between atoms: C_9  and  C_10
REMARK    6  A    between atoms: C_10  and  C_11
REMARK    7  A    between atoms: C_10  and  O_12
REMARK    8  A    between atoms: C_13  and  C_14
REMARK    9  A    between atoms: C_14  and  C_15
REMARK   10  A    between atoms: C_14  and  O_16
REMARK                            x       y       z     vdW  Elec       q    Type
REMARK                         _______ _______ _______ _____ _____    ______ ____
ROOT
ATOM      1  N   UNL     1       6.515   4.054 -13.857  0.00  0.00    +0.000 N 
ENDROOT
BRANCH   1   6
ATOM      2  C   UNL     1       3.557   8.583 -15.874  0.00  0.00    +0.000 C 
ATOM      3  C   UNL     1       4.335   7.405 -15.373  0.00  0.00    +0.000 A 
ATOM      4  C   UNL     1       3.795   6.124 -15.411  0.00  0.00    +0.000 A 
ATOM      5  C   UNL     1       4.517   5.027 -14.912  0.00  0.00    +0.000 A 
ATOM      6  C   UNL     1       5.793   5.155 -14.335  0.00  0.00    +0.000 A 
ATOM      7  C   UNL     1       6.309   6.464 -14.315  0.00  0.00    +0.000 A 
ATOM      8  C   UNL     1       5.598   7.569 -14.812  0.00  0.00    +0.000 A 
ENDBRANCH   1   6
BRANCH   1   9
ATOM      9  C   UNL     1       6.981   3.007 -14.798  0.00  0.00    +0.000 C 
BRANCH   9  10
ATOM     10  C   UNL     1       8.521   2.992 -14.965  0.00  0.00    +0.000 C 
ATOM     11  C   UNL     1       9.164   4.134 -14.186  0.00  0.00    +0.000 C 
BRANCH  10  12
ATOM     12  O   UNL     1       9.079   1.760 -14.489  0.00  0.00    +0.000 OA
ATOM     13  H   UNL     1       9.671   1.964 -13.746  0.00  0.00    +0.000 HD
ENDBRANCH  10  12
ENDBRANCH   9  10
ENDBRANCH   1   9
BRANCH   1  14
ATOM     14  C   UNL     1       6.407   3.619 -12.441  0.00  0.00    +0.000 C 
BRANCH  14  15
ATOM     15  C   UNL     1       4.946   3.648 -11.932  0.00  0.00    +0.000 C 
ATOM     16  C   UNL     1       4.588   2.444 -11.068  0.00  0.00    +0.000 C 
BRANCH  15  17
ATOM     17  O   UNL     1       4.673   4.828 -11.178  0.00  0.00    +0.000 OA
ATOM     18  H   UNL     1       4.582   4.523 -10.253  0.00  0.00    +0.000 HD
ENDBRANCH  15  17
ENDBRANCH  14  15
ENDBRANCH   1  14
TORSDOF 7
ENDMDL
MODEL 7
REMARK VINA RESULT:    -4.392      1.317      3.081
REMARK INTER + INTRA:          -6.563
REMARK INTER:                  -5.910
REMARK INTRA:                  -0.653
REMARK UNBOUND:                -0.630
REMARK  Name = 
REMARK  10 active torsions:
REMARK  status: ('A' for Active; 'I' for Inactive)
REMARK    1  A    between atoms: C_1  and  C_2
REMARK    2  A    between atoms: C_5  and  N_8
REMARK    3  A    between atoms: N_8  and  C_9
REMARK    4  A    between atoms: N_8  and  C_13
REMARK    5  A    between atoms: C_9  and  C_10
REMARK    6  A    between atoms: C_10  and  C_11
REMARK    7  A    between atoms: C_10  and  O_12
REMARK    8  A    between atoms: C_13  and  C_14
REMARK    9  A    between atoms: C_14  and  C_15
REMARK   10  A    between atoms: C_14  and  O_16
REMARK                            x       y       z     vdW  Elec       q    Type
REMARK                         _______ _______ _______ _____ _____    ______ ____
ROOT
ATOM      1  N   UNL     1       3.537   6.515 -13.254  0.00  0.00    +0.000 N 
ENDROOT
BRANCH   1   6
ATOM      2  C   UNL     1       7.916   2.753 -13.296  0.00  0.00    +0.000 C 
ATOM      3  C   UNL     1       6.793   3.744 -13.270  0.00  0.00    +0.000 A 
ATOM      4  C   UNL     1       5.783   3.656 -12.318  0.00  0.00    +0.000 A 
ATOM      5  C   UNL     1       4.717   4.570 -12.317  0.00  0.00    +0.000 A 
ATOM      6  C   UNL     1       4.593   5.595 -13.272  0.00  0.00    +0.000 A 
ATOM      7  C   UNL     1       5.632   5.656 -14.219  0.00  0.00    +0.000 A 
ATOM      8  C   UNL     1       6.705   4.749 -14.229  0.00  0.00    +0.000 A 
ENDBRANCH   1   6
BRANCH   1   9
ATOM      9  C   UNL     1       3.571   7.668 -12.322  0.00  0.00    +0.000 C 
BRANCH   9  10
ATOM     10  C   UNL     1       2.344   8.600 -12.475  0.00  0.00    +0.000 C 
ATOM     11  C   UNL     1       2.068   9.354 -11.179  0.00  0.00    +0.000 C 
BRANCH  10  12
ATOM     12  O   UNL     1       2.557   9.565 -13.514  0.00  0.00    +0.000 OA
ATOM     13  H   UNL     1       1.691   9.810 -13.879  0.00  0.00    +0.000 HD
ENDBRANCH  10  12
ENDBRANCH   9  10
ENDBRANCH   1   9
BRANCH   1  14
ATOM     14  C   UNL     1       2.181   6.140 -13.733  0.00  0.00    +0.000 C 
BRANCH  14  15
ATOM     15  C   UNL     1       2.052   6.255 -15.271  0.00  0.00    +0.000 C 
ATOM     16  C   UNL     1       0.607   6.230 -15.755  0.00  0.00    +0.000 C 
BRANCH  15  17
ATOM     17  O   UNL     1       2.662   7.447 -15.763  0.00  0.00    +0.000 OA
ATOM     18  H   UNL     1       2.926   7.236 -16.681  0.00  0.00    +0.000 HD
ENDBRANCH  15  17
ENDBRANCH  14  15
ENDBRANCH   1  14
TORSDOF 7
ENDMDL
MODEL 8
REMARK VINA RESULT:    -4.319     10.960     13.381
REMARK INTER + INTRA:          -6.464
REMARK INTER:                  -6.036
REMARK INTRA:                  -0.427
REMARK UNBOUND:                -0.630
REMARK  Name = 
REMARK  10 active torsions:
REMARK  status: ('A' for Active; 'I' for Inactive)
REMARK    1  A    between atoms: C_1  and  C_2
REMARK    2  A    between atoms: C_5  and  N_8
REMARK    3  A    between atoms: N_8  and  C_9
REMARK    4  A    between atoms: N_8  and  C_13
REMARK    5  A    between atoms: C_9  and  C_10
REMARK    6  A    between atoms: C_10  and  C_11
REMARK    7  A    between atoms: C_10  and  O_12
REMARK    8  A    between atoms: C_13  and  C_14
REMARK    9  A    between atoms: C_14  and  C_15
REMARK   10  A    between atoms: C_14  and  O_16
REMARK                            x       y       z     vdW  Elec       q    Type
REMARK                         _______ _______ _______ _____ _____    ______ ____
ROOT
ATOM      1  N   UNL     1       2.597  10.004  -1.047  0.00  0.00    +0.000 N 
ENDROOT
BRANCH   1   6
ATOM      2  C   UNL     1       0.467   6.610  -5.203  0.00  0.00    +0.000 C 
ATOM      3  C   UNL     1       1.005   7.509  -4.132  0.00  0.00    +0.000 A 
ATOM      4  C   UNL     1       2.136   8.287  -4.354  0.00  0.00    +0.000 A 
ATOM      5  C   UNL     1       2.653   9.105  -3.336  0.00  0.00    +0.000 A 
ATOM      6  C   UNL     1       2.087   9.171  -2.050  0.00  0.00    +0.000 A 
ATOM      7  C   UNL     1       0.943   8.373  -1.863  0.00  0.00    +0.000 A 
ATOM      8  C   UNL     1       0.415   7.552  -2.872  0.00  0.00    +0.000 A 
ENDBRANCH   1   6
BRANCH   1   9
ATOM      9  C   UNL     1       1.747  11.070  -0.464  0.00  0.00    +0.000 C 
BRANCH   9  10
ATOM     10  C   UNL     1       1.402  10.817   1.024  0.00  0.00    +0.000 C 
ATOM     11  C   UNL     1       0.673  12.012   1.626  0.00  0.00    +0.000 C 
BRANCH  10  12
ATOM     12  O   UNL     1       0.560   9.664   1.168  0.00  0.00    +0.000 OA
ATOM     13  H   UNL     1      -0.207   9.917   1.707  0.00  0.00    +0.000 HD
ENDBRANCH  10  12
ENDBRANCH   9  10
ENDBRANCH   1   9
BRANCH   1  14
ATOM     14  C   UNL     1       4.059  10.215  -0.891  0.00  0.00    +0.000 C 
BRANCH  14  15
ATOM     15  C   UNL     1       4.780   8.948  -0.373  0.00  0.00    +0.000 C 
ATOM     16  C   UNL     1       6.091   8.666  -1.099  0.00  0.00    +0.000 C 
BRANCH  15  17
ATOM     17  O   UNL     1       5.058   9.033   1.024  0.00  0.00    +0.000 OA
ATOM     18  H   UNL     1       4.915   9.973   1.253  0.00  0.00    +0.000 HD
ENDBRANCH  15  17
ENDBRANCH  14  15
ENDBRANCH   1  14
TORSDOF 7
ENDMDL
MODEL 9
REMARK VINA RESULT:    -4.192      1.876      2.585
REMARK INTER + INTRA:          -6.292
REMARK INTER:                  -5.900
REMARK INTRA:                  -0.392
REMARK UNBOUND:                -0.630
REMARK  Name = 
REMARK  10 active torsions:
REMARK  status: ('A' for Active; 'I' for Inactive)
REMARK    1  A    between atoms: C_1  and  C_2
REMARK    2  A    between atoms: C_5  and  N_8
REMARK    3  A    between atoms: N_8  and  C_9
REMARK    4  A    between atoms: N_8  and  C_13
REMARK    5  A    between atoms: C_9  and  C_10
REMARK    6  A    between atoms: C_10  and  C_11
REMARK    7  A    between atoms: C_10  and  O_12
REMARK    8  A    between atoms: C_13  and  C_14
REMARK    9  A    between atoms: C_14  and  C_15
REMARK   10  A    between atoms: C_14  and  O_16
REMARK                            x       y       z     vdW  Elec       q    Type
REMARK                         _______ _______ _______ _____ _____    ______ ____
ROOT
ATOM      1  N   UNL     1       3.704   5.955 -14.414  0.00  0.00    +0.000 N 
ENDROOT
BRANCH   1   6
ATOM      2  C   UNL     1       8.404   3.041 -12.756  0.00  0.00    +0.000 C 
ATOM      3  C   UNL     1       7.192   3.816 -13.171  0.00  0.00    +0.000 A 
ATOM      4  C   UNL     1       5.983   3.666 -12.499  0.00  0.00    +0.000 A 
ATOM      5  C   UNL     1       4.842   4.373 -12.912  0.00  0.00    +0.000 A 
ATOM      6  C   UNL     1       4.842   5.239 -14.020  0.00  0.00    +0.000 A 
ATOM      7  C   UNL     1       6.081   5.368 -14.675  0.00  0.00    +0.000 A 
ATOM      8  C   UNL     1       7.230   4.669 -14.271  0.00  0.00    +0.000 A 
ENDBRANCH   1   6
BRANCH   1   9
ATOM      9  C   UNL     1       3.833   7.097 -15.351  0.00  0.00    +0.000 C 
BRANCH   9  10
ATOM     10  C   UNL     1       3.750   6.668 -16.836  0.00  0.00    +0.000 C 
ATOM     11  C   UNL     1       2.538   7.292 -17.517  0.00  0.00    +0.000 C 
BRANCH  10  12
ATOM     12  O   UNL     1       4.923   7.074 -17.555  0.00  0.00    +0.000 OA
ATOM     13  H   UNL     1       5.700   6.740 -17.078  0.00  0.00    +0.000 HD
ENDBRANCH  10  12
ENDBRANCH   9  10
ENDBRANCH   1   9
BRANCH   1  14
ATOM     14  C   UNL     1       2.476   5.967 -13.579  0.00  0.00    +0.000 C 
BRANCH  14  15
ATOM     15  C   UNL     1       1.502   7.098 -13.989  0.00  0.00    +0.000 C 
ATOM     16  C   UNL     1       0.224   6.582 -14.640  0.00  0.00    +0.000 C 
BRANCH  15  17
ATOM     17  O   UNL     1       1.134   7.908 -12.873  0.00  0.00    +0.000 OA
ATOM     18  H   UNL     1       0.396   8.463 -13.196  0.00  0.00    +0.000 HD
ENDBRANCH  15  17
ENDBRANCH  14  15
ENDBRANCH   1  14
TORSDOF 7
ENDMDL
