MODEL 1
REMARK VINA RESULT:    -3.207      0.000      0.000
REMARK INTER + INTRA:          -3.529
REMARK INTER:                  -3.488
REMARK INTRA:                  -0.041
REMARK UNBOUND:                -0.041
REMARK  Name = 
REMARK  3 active torsions:
REMARK  status: ('A' for Active; 'I' for Inactive)
REMARK    1  A    between atoms: C_1  and  O_2
REMARK    2  A    between atoms: O_2  and  C_3
REMARK    3  A    between atoms: C_8  and  O_9
REMARK                            x       y       z     vdW  Elec       q    Type
REMARK                         _______ _______ _______ _____ _____    ______ ____
ROOT
ATOM      1  C   UNL     1       6.809  12.110   4.150  0.00  0.00    +0.000 A 
ATOM      2  C   UNL     1       7.713  12.565   3.190  0.00  0.00    +0.000 A 
ATOM      3  C   UNL     1       8.490  13.702   3.444  0.00  0.00    +0.000 A 
ATOM      4  C   UNL     1       8.367  14.388   4.654  0.00  0.00    +0.000 A 
ATOM      5  C   UNL     1       7.467  13.939   5.618  0.00  0.00    +0.000 A 
ATOM      6  C   UNL     1       6.700  12.811   5.357  0.00  0.00    +0.000 A 
ENDROOT
BRANCH   1   8
ATOM      7  C   UNL     1       6.465   9.945   3.233  0.00  0.00    +0.000 C 
ATOM      8  O   UNL     1       5.988  11.017   4.037  0.00  0.00    +0.000 OA
ENDBRANCH   1   8
BRANCH   6   9
ATOM      9  O   UNL     1       5.822  12.389   6.320  0.00  0.00    +0.000 OA
ATOM     10  H   UNL     1       6.374  12.240   7.111  0.00  0.00    +0.000 HD
ENDBRANCH   6   9
TORSDOF 2
ENDMDL
MODEL 2
REMARK VINA RESULT:    -3.173      1.150      3.081
REMARK INTER + INTRA:          -3.492
REMARK INTER:                  -3.448
REMARK INTRA:                  -0.044
REMARK UNBOUND:                -0.041
REMARK  Name = 
REMARK  3 active torsions:
REMARK  status: ('A' for Active; 'I' for Inactive)
REMARK    1  A    between atoms: C_1  and  O_2
REMARK    2  A    between atoms: O_2  and  C_3
REMARK    3  A    between atoms: C_8  and  O_9
REMARK                            x       y       z     vdW  Elec       q    Type
REMARK                         _______ _______ _______ _____ _____    ______ ____
ROOT
ATOM      1  C   UNL     1       7.451  13.763   5.558  0.00  0.00    +0.000 A 
ATOM      2  C   UNL     1       8.418  14.502   4.878  0.00  0.00    +0.000 A 
ATOM      3  C   UNL     1       8.774  14.150   3.570  0.00  0.00    +0.000 A 
ATOM      4  C   UNL     1       8.167  13.063   2.939  0.00  0.00    +0.000 A 
ATOM      5  C   UNL     1       7.199  12.321   3.612  0.00  0.00    +0.000 A 
ATOM      6  C   UNL     1       6.853  12.676   4.909  0.00  0.00    +0.000 A 
ENDROOT
BRANCH   1   8
ATOM      7  C   UNL     1       7.990  14.366   7.793  0.00  0.00    +0.000 C 
ATOM      8  O   UNL     1       7.006  13.992   6.836  0.00  0.00    +0.000 OA
ENDBRANCH   1   8
BRANCH   6   9
ATOM      9  O   UNL     1       5.899  11.931   5.551  0.00  0.00    +0.000 OA
ATOM     10  H   UNL     1       5.049  12.304   5.248  0.00  0.00    +0.000 HD
ENDBRANCH   6   9
TORSDOF 2
ENDMDL
MODEL 3
REMARK VINA RESULT:    -3.162      1.762      3.237
REMARK INTER + INTRA:          -3.480
REMARK INTER:                  -3.428
REMARK INTRA:                  -0.052
REMARK UNBOUND:                -0.041
REMARK  Name = 
REMARK  3 active torsions:
REMARK  status: ('A' for Active; 'I' for Inactive)
REMARK    1  A    between atoms: C_1  and  O_2
REMARK    2  A    between atoms: O_2  and  C_3
REMARK    3  A    between atoms: C_8  and  O_9
REMARK                            x       y       z     vdW  Elec       q    Type
REMARK                         _______ _______ _______ _____ _____    ______ ____
ROOT
ATOM      1  C   UNL     1       7.939  13.172   3.811  0.00  0.00    +0.000 A 
ATOM      2  C   UNL     1       7.884  14.004   4.929  0.00  0.00    +0.000 A 
ATOM      3  C   UNL     1       6.979  13.728   5.962  0.00  0.00    +0.000 A 
ATOM      4  C   UNL     1       6.128  12.624   5.882  0.00  0.00    +0.000 A 
ATOM      5  C   UNL     1       6.178  11.788   4.768  0.00  0.00    +0.000 A 
ATOM      6  C   UNL     1       7.079  12.069   3.748  0.00  0.00    +0.000 A 
ENDROOT
BRANCH   1   8
ATOM      7  C   UNL     1       8.609  14.509   1.964  0.00  0.00    +0.000 C 
ATOM      8  O   UNL     1       8.771  13.321   2.730  0.00  0.00    +0.000 OA
ENDBRANCH   1   8
BRANCH   6   9
ATOM      9  O   UNL     1       7.109  11.233   2.664  0.00  0.00    +0.000 OA
ATOM     10  H   UNL     1       6.317  10.672   2.761  0.00  0.00    +0.000 HD
ENDBRANCH   6   9
TORSDOF 2
ENDMDL
MODEL 4
REMARK VINA RESULT:    -2.996      7.059      7.944
REMARK INTER + INTRA:          -3.300
REMARK INTER:                  -3.248
REMARK INTRA:                  -0.052
REMARK UNBOUND:                -0.041
REMARK  Name = 
REMARK  3 active torsions:
REMARK  status: ('A' for Active; 'I' for Inactive)
REMARK    1  A    between atoms: C_1  and  O_2
REMARK    2  A    between atoms: O_2  and  C_3
REMARK    3  A    between atoms: C_8  and  O_9
REMARK                            x       y       z     vdW  Elec       q    Type
REMARK                         _______ _______ _______ _____ _____    ______ ____
ROOT
ATOM      1  C   UNL     1      12.683  13.409   9.818  0.00  0.00    +0.000 A 
ATOM      2  C   UNL     1      13.177  14.605  10.338  0.00  0.00    +0.000 A 
ATOM      3  C   UNL     1      13.785  15.538   9.489  0.00  0.00    +0.000 A 
ATOM      4  C   UNL     1      13.903  15.280   8.122  0.00  0.00    +0.000 A 
ATOM      5  C   UNL     1      13.412  14.088   7.595  0.00  0.00    +0.000 A 
ATOM      6  C   UNL     1      12.810  13.168   8.445  0.00  0.00    +0.000 A 
ENDROOT
BRANCH   1   8
ATOM      7  C   UNL     1      10.865  12.758  11.203  0.00  0.00    +0.000 C 
ATOM      8  O   UNL     1      12.067  12.409  10.528  0.00  0.00    +0.000 OA
ENDBRANCH   1   8
BRANCH   6   9
ATOM      9  O   UNL     1      12.335  12.003   7.904  0.00  0.00    +0.000 OA
ATOM     10  H   UNL     1      11.416  12.207   7.643  0.00  0.00    +0.000 HD
ENDBRANCH   6   9
TORSDOF 2
ENDMDL
MODEL 5
REMARK VINA RESULT:    -2.933      2.375      3.756
REMARK INTER + INTRA:          -3.231
REMARK INTER:                  -3.185
REMARK INTRA:                  -0.046
REMARK UNBOUND:                -0.041
REMARK  Name = 
REMARK  3 active torsions:
REMARK  status: ('A' for Active; 'I' for Inactive)
REMARK    1  A    between atoms: C_1  and  O_2
REMARK    2  A    between atoms: O_2  and  C_3
REMARK    3  A    between atoms: C_8  and  O_9
REMARK                            x       y       z     vdW  Elec       q    Type
REMARK                         _______ _______ _______ _____ _____    ______ ____
ROOT
ATOM      1  C   UNL     1       8.045  14.448   4.420  0.00  0.00    +0.000 A 
ATOM      2  C   UNL     1       7.688  15.796   4.392  0.00  0.00    +0.000 A 
ATOM      3  C   UNL     1       7.542  16.455   3.165  0.00  0.00    +0.000 A 
ATOM      4  C   UNL     1       7.753  15.774   1.965  0.00  0.00    +0.000 A 
ATOM      5  C   UNL     1       8.109  14.427   1.985  0.00  0.00    +0.000 A 
ATOM      6  C   UNL     1       8.252  13.781   3.206  0.00  0.00    +0.000 A 
ENDROOT
BRANCH   1   8
ATOM      7  C   UNL     1       8.964  14.268   6.604  0.00  0.00    +0.000 C 
ATOM      8  O   UNL     1       8.223  13.679   5.542  0.00  0.00    +0.000 OA
ENDBRANCH   1   8
BRANCH   6   9
ATOM      9  O   UNL     1       8.603  12.457   3.200  0.00  0.00    +0.000 OA
ATOM     10  H   UNL     1       9.192  12.360   2.427  0.00  0.00    +0.000 HD
ENDBRANCH   6   9
TORSDOF 2
ENDMDL
MODEL 6
REMARK VINA RESULT:    -2.932      7.532      8.332
REMARK INTER + INTRA:          -3.230
REMARK INTER:                  -3.191
REMARK INTRA:                  -0.039
REMARK UNBOUND:                -0.041
REMARK  Name = 
REMARK  3 active torsions:
REMARK  status: ('A' for Active; 'I' for Inactive)
REMARK    1  A    between atoms: C_1  and  O_2
REMARK    2  A    between atoms: O_2  and  C_3
REMARK    3  A    between atoms: C_8  and  O_9
REMARK                            x       y       z     vdW  Elec       q    Type
REMARK                         _______ _______ _______ _____ _____    ______ ____
ROOT
ATOM      1  C   UNL     1       5.542  15.139  -2.612  0.00  0.00    +0.000 A 
ATOM      2  C   UNL     1       5.294  16.283  -1.855  0.00  0.00    +0.000 A 
ATOM      3  C   UNL     1       3.978  16.643  -1.542  0.00  0.00    +0.000 A 
ATOM      4  C   UNL     1       2.907  15.864  -1.983  0.00  0.00    +0.000 A 
ATOM      5  C   UNL     1       3.146  14.719  -2.739  0.00  0.00    +0.000 A 
ATOM      6  C   UNL     1       4.455  14.369  -3.045  0.00  0.00    +0.000 A 
ENDROOT
BRANCH   1   8
ATOM      7  C   UNL     1       7.886  15.107  -2.221  0.00  0.00    +0.000 C 
ATOM      8  O   UNL     1       6.773  14.669  -2.992  0.00  0.00    +0.000 OA
ENDBRANCH   1   8
BRANCH   6   9
ATOM      9  O   UNL     1       4.665  13.240  -3.790  0.00  0.00    +0.000 OA
ATOM     10  H   UNL     1       3.784  13.003  -4.137  0.00  0.00    +0.000 HD
ENDBRANCH   6   9
TORSDOF 2
ENDMDL
MODEL 7
REMARK VINA RESULT:    -2.914      1.769      2.731
REMARK INTER + INTRA:          -3.210
REMARK INTER:                  -3.170
REMARK INTRA:                  -0.040
REMARK UNBOUND:                -0.041
REMARK  Name = 
REMARK  3 active torsions:
REMARK  status: ('A' for Active; 'I' for Inactive)
REMARK    1  A    between atoms: C_1  and  O_2
REMARK    2  A    between atoms: O_2  and  C_3
REMARK    3  A    between atoms: C_8  and  O_9
REMARK                            x       y       z     vdW  Elec       q    Type
REMARK                         _______ _______ _______ _____ _____    ______ ____
ROOT
ATOM      1  C   UNL     1       7.557  13.470   5.337  0.00  0.00    +0.000 A 
ATOM      2  C   UNL     1       8.524  14.368   5.788  0.00  0.00    +0.000 A 
ATOM      3  C   UNL     1       8.366  15.001   7.027  0.00  0.00    +0.000 A 
ATOM      4  C   UNL     1       7.245  14.741   7.817  0.00  0.00    +0.000 A 
ATOM      5  C   UNL     1       6.275  13.845   7.373  0.00  0.00    +0.000 A 
ATOM      6  C   UNL     1       6.440  13.222   6.143  0.00  0.00    +0.000 A 
ENDROOT
BRANCH   1   8
ATOM      7  C   UNL     1       8.313  13.377   3.085  0.00  0.00    +0.000 C 
ATOM      8  O   UNL     1       7.581  12.782   4.150  0.00  0.00    +0.000 OA
ENDBRANCH   1   8
BRANCH   6   9
ATOM      9  O   UNL     1       5.473  12.345   5.728  0.00  0.00    +0.000 OA
ATOM     10  H   UNL     1       5.542  12.342   4.754  0.00  0.00    +0.000 HD
ENDBRANCH   6   9
TORSDOF 2
ENDMDL
MODEL 8
REMARK VINA RESULT:    -2.871      2.186      3.138
REMARK INTER + INTRA:          -3.163
REMARK INTER:                  -3.111
REMARK INTRA:                  -0.052
REMARK UNBOUND:                -0.041
REMARK  Name = 
REMARK  3 active torsions:
REMARK  status: ('A' for Active; 'I' for Inactive)
REMARK    1  A    between atoms: C_1  and  O_2
REMARK    2  A    between atoms: O_2  and  C_3
REMARK    3  A    between atoms: C_8  and  O_9
REMARK                            x       y       z     vdW  Elec       q    Type
REMARK                         _______ _______ _______ _____ _____    ______ ____
ROOT
ATOM      1  C   UNL     1       7.950  13.644   3.550  0.00  0.00    +0.000 A 
ATOM      2  C   UNL     1       7.947  14.110   4.864  0.00  0.00    +0.000 A 
ATOM      3  C   UNL     1       7.989  15.487   5.119  0.00  0.00    +0.000 A 
ATOM      4  C   UNL     1       8.036  16.400   4.064  0.00  0.00    +0.000 A 
ATOM      5  C   UNL     1       8.039  15.943   2.748  0.00  0.00    +0.000 A 
ATOM      6  C   UNL     1       7.996  14.576   2.506  0.00  0.00    +0.000 A 
ENDROOT
BRANCH   1   8
ATOM      7  C   UNL     1       6.760  11.587   3.536  0.00  0.00    +0.000 C 
ATOM      8  O   UNL     1       7.912  12.331   3.155  0.00  0.00    +0.000 OA
ENDBRANCH   1   8
BRANCH   6   9
ATOM      9  O   UNL     1       8.000  14.150   1.204  0.00  0.00    +0.000 OA
ATOM     10  H   UNL     1       7.583  13.267   1.230  0.00  0.00    +0.000 HD
ENDBRANCH   6   9
TORSDOF 2
ENDMDL
MODEL 9
REMARK VINA RESULT:    -2.867      7.417      8.213
REMARK INTER + INTRA:          -3.159
REMARK INTER:                  -3.107
REMARK INTRA:                  -0.052
REMARK UNBOUND:                -0.041
REMARK  Name = 
REMARK  3 active torsions:
REMARK  status: ('A' for Active; 'I' for Inactive)
REMARK    1  A    between atoms: C_1  and  O_2
REMARK    2  A    between atoms: O_2  and  C_3
REMARK    3  A    between atoms: C_8  and  O_9
REMARK                            x       y       z     vdW  Elec       q    Type
REMARK                         _______ _______ _______ _____ _____    ______ ____
ROOT
ATOM      1  C   UNL     1       5.039  14.808  -3.328  0.00  0.00    +0.000 A 
ATOM      2  C   UNL     1       5.630  15.299  -4.492  0.00  0.00    +0.000 A 
ATOM      3  C   UNL     1       6.990  15.636  -4.498  0.00  0.00    +0.000 A 
ATOM      4  C   UNL     1       7.761  15.484  -3.345  0.00  0.00    +0.000 A 
ATOM      5  C   UNL     1       7.179  14.994  -2.178  0.00  0.00    +0.000 A 
ATOM      6  C   UNL     1       5.830  14.662  -2.181  0.00  0.00    +0.000 A 
ENDROOT
BRANCH   1   8
ATOM      7  C   UNL     1       2.766  15.489  -3.215  0.00  0.00    +0.000 C 
ATOM      8  O   UNL     1       3.726  14.440  -3.178  0.00  0.00    +0.000 OA
ENDBRANCH   1   8
BRANCH   6   9
ATOM      9  O   UNL     1       5.279  14.183  -1.023  0.00  0.00    +0.000 OA
ATOM     10  H   UNL     1       4.325  14.104  -1.215  0.00  0.00    +0.000 HD
ENDBRANCH   6   9
TORSDOF 2
ENDMDL
