MODEL 1
REMARK VINA RESULT:    -4.107      0.000      0.000
REMARK INTER + INTRA:          -4.509
REMARK INTER:                  -4.467
REMARK INTRA:                  -0.043
REMARK UNBOUND:                -0.043
REMARK  Name = 
REMARK  3 active torsions:
REMARK  status: ('A' for Active; 'I' for Inactive)
REMARK    1  A    between atoms: C_1  and  O_2
REMARK    2  A    between atoms: O_2  and  C_3
REMARK    3  A    between atoms: C_8  and  O_9
REMARK                            x       y       z     vdW  Elec       q    Type
REMARK                         _______ _______ _______ _____ _____    ______ ____
ROOT
ATOM      1  C   UNL     1      21.315   8.007   3.839  0.00  0.00    +0.000 A 
ATOM      2  C   UNL     1      20.842   9.285   3.543  0.00  0.00    +0.000 A 
ATOM      3  C   UNL     1      21.746  10.329   3.310  0.00  0.00    +0.000 A 
ATOM      4  C   UNL     1      23.122  10.101   3.373  0.00  0.00    +0.000 A 
ATOM      5  C   UNL     1      23.602   8.827   3.668  0.00  0.00    +0.000 A 
ATOM      6  C   UNL     1      22.698   7.797   3.898  0.00  0.00    +0.000 A 
ENDROOT
BRANCH   1   8
ATOM      7  C   UNL     1      19.323   7.113   4.778  0.00  0.00    +0.000 C 
ATOM      8  O   UNL     1      20.549   6.897   4.089  0.00  0.00    +0.000 OA
ENDBRANCH   1   8
BRANCH   6   9
ATOM      9  O   UNL     1      23.194   6.554   4.187  0.00  0.00    +0.000 OA
ATOM     10  H   UNL     1      23.535   6.628   5.098  0.00  0.00    +0.000 HD
ENDBRANCH   6   9
TORSDOF 2
ENDMDL
MODEL 2
REMARK VINA RESULT:    -3.907      8.932      9.706
REMARK INTER + INTRA:          -4.292
REMARK INTER:                  -4.240
REMARK INTRA:                  -0.052
REMARK UNBOUND:                -0.043
REMARK  Name = 
REMARK  3 active torsions:
REMARK  status: ('A' for Active; 'I' for Inactive)
REMARK    1  A    between atoms: C_1  and  O_2
REMARK    2  A    between atoms: O_2  and  C_3
REMARK    3  A    between atoms: C_8  and  O_9
REMARK                            x       y       z     vdW  Elec       q    Type
REMARK                         _______ _______ _______ _____ _____    ______ ____
ROOT
ATOM      1  C   UNL     1      27.700  15.837   5.293  0.00  0.00    +0.000 A 
ATOM      2  C   UNL     1      28.972  15.311   5.069  0.00  0.00    +0.000 A 
ATOM      3  C   UNL     1      29.278  14.723   3.835  0.00  0.00    +0.000 A 
ATOM      4  C   UNL     1      28.317  14.658   2.824  0.00  0.00    +0.000 A 
ATOM      5  C   UNL     1      27.044  15.181   3.041  0.00  0.00    +0.000 A 
ATOM      6  C   UNL     1      26.750  15.762   4.268  0.00  0.00    +0.000 A 
ENDROOT
BRANCH   1   8
ATOM      7  C   UNL     1      27.115  15.596   7.584  0.00  0.00    +0.000 C 
ATOM      8  O   UNL     1      27.263  16.437   6.447  0.00  0.00    +0.000 OA
ENDBRANCH   1   8
BRANCH   6   9
ATOM      9  O   UNL     1      25.492  16.269   4.458  0.00  0.00    +0.000 OA
ATOM     10  H   UNL     1      25.032  15.599   4.998  0.00  0.00    +0.000 HD
ENDBRANCH   6   9
TORSDOF 2
ENDMDL
MODEL 3
REMARK VINA RESULT:    -3.906     10.114     11.380
REMARK INTER + INTRA:          -4.291
REMARK INTER:                  -4.249
REMARK INTRA:                  -0.042
REMARK UNBOUND:                -0.043
REMARK  Name = 
REMARK  3 active torsions:
REMARK  status: ('A' for Active; 'I' for Inactive)
REMARK    1  A    between atoms: C_1  and  O_2
REMARK    2  A    between atoms: O_2  and  C_3
REMARK    3  A    between atoms: C_8  and  O_9
REMARK                            x       y       z     vdW  Elec       q    Type
REMARK                         _______ _______ _______ _____ _____    ______ ____
ROOT
ATOM      1  C   UNL     1      30.419  14.256   6.376  0.00  0.00    +0.000 A 
ATOM      2  C   UNL     1      30.154  15.365   7.179  0.00  0.00    +0.000 A 
ATOM      3  C   UNL     1      30.912  15.589   8.335  0.00  0.00    +0.000 A 
ATOM      4  C   UNL     1      31.934  14.707   8.693  0.00  0.00    +0.000 A 
ATOM      5  C   UNL     1      32.204  13.597   7.896  0.00  0.00    +0.000 A 
ATOM      6  C   UNL     1      31.447  13.383   6.751  0.00  0.00    +0.000 A 
ENDROOT
BRANCH   1   8
ATOM      7  C   UNL     1      29.278  14.989   4.425  0.00  0.00    +0.000 C 
ATOM      8  O   UNL     1      29.760  13.915   5.223  0.00  0.00    +0.000 OA
ENDBRANCH   1   8
BRANCH   6   9
ATOM      9  O   UNL     1      31.732  12.286   5.984  0.00  0.00    +0.000 OA
ATOM     10  H   UNL     1      31.279  12.452   5.135  0.00  0.00    +0.000 HD
ENDBRANCH   6   9
TORSDOF 2
ENDMDL
MODEL 4
REMARK VINA RESULT:    -3.785     10.014     11.317
REMARK INTER + INTRA:          -4.159
REMARK INTER:                  -4.117
REMARK INTRA:                  -0.043
REMARK UNBOUND:                -0.043
REMARK  Name = 
REMARK  3 active torsions:
REMARK  status: ('A' for Active; 'I' for Inactive)
REMARK    1  A    between atoms: C_1  and  O_2
REMARK    2  A    between atoms: O_2  and  C_3
REMARK    3  A    between atoms: C_8  and  O_9
REMARK                            x       y       z     vdW  Elec       q    Type
REMARK                         _______ _______ _______ _____ _____    ______ ____
ROOT
ATOM      1  C   UNL     1      29.750  14.903   7.302  0.00  0.00    +0.000 A 
ATOM      2  C   UNL     1      30.128  15.706   8.376  0.00  0.00    +0.000 A 
ATOM      3  C   UNL     1      31.414  15.590   8.919  0.00  0.00    +0.000 A 
ATOM      4  C   UNL     1      32.325  14.672   8.391  0.00  0.00    +0.000 A 
ATOM      5  C   UNL     1      31.954  13.866   7.317  0.00  0.00    +0.000 A 
ATOM      6  C   UNL     1      30.677  13.988   6.786  0.00  0.00    +0.000 A 
ENDROOT
BRANCH   1   8
ATOM      7  C   UNL     1      27.394  15.142   7.498  0.00  0.00    +0.000 C 
ATOM      8  O   UNL     1      28.530  14.908   6.674  0.00  0.00    +0.000 OA
ENDBRANCH   1   8
BRANCH   6   9
ATOM      9  O   UNL     1      30.336  13.185   5.730  0.00  0.00    +0.000 OA
ATOM     10  H   UNL     1      30.848  12.365   5.867  0.00  0.00    +0.000 HD
ENDBRANCH   6   9
TORSDOF 2
ENDMDL
MODEL 5
REMARK VINA RESULT:    -3.700      9.466     10.256
REMARK INTER + INTRA:          -4.067
REMARK INTER:                  -4.021
REMARK INTRA:                  -0.046
REMARK UNBOUND:                -0.043
REMARK  Name = 
REMARK  3 active torsions:
REMARK  status: ('A' for Active; 'I' for Inactive)
REMARK    1  A    between atoms: C_1  and  O_2
REMARK    2  A    between atoms: O_2  and  C_3
REMARK    3  A    between atoms: C_8  and  O_9
REMARK                            x       y       z     vdW  Elec       q    Type
REMARK                         _______ _______ _______ _____ _____    ______ ____
ROOT
ATOM      1  C   UNL     1      29.088  15.115   4.987  0.00  0.00    +0.000 A 
ATOM      2  C   UNL     1      28.349  16.253   5.308  0.00  0.00    +0.000 A 
ATOM      3  C   UNL     1      28.127  16.589   6.649  0.00  0.00    +0.000 A 
ATOM      4  C   UNL     1      28.640  15.790   7.673  0.00  0.00    +0.000 A 
ATOM      5  C   UNL     1      29.380  14.651   7.360  0.00  0.00    +0.000 A 
ATOM      6  C   UNL     1      29.595  14.327   6.027  0.00  0.00    +0.000 A 
ENDROOT
BRANCH   1   8
ATOM      7  C   UNL     1      28.316  14.685   2.781  0.00  0.00    +0.000 C 
ATOM      8  O   UNL     1      29.381  14.668   3.724  0.00  0.00    +0.000 OA
ENDBRANCH   1   8
BRANCH   6   9
ATOM      9  O   UNL     1      30.325  13.203   5.745  0.00  0.00    +0.000 OA
ATOM     10  H   UNL     1      30.863  13.445   4.967  0.00  0.00    +0.000 HD
ENDBRANCH   6   9
TORSDOF 2
ENDMDL
MODEL 6
REMARK VINA RESULT:    -3.696     10.161     11.781
REMARK INTER + INTRA:          -4.062
REMARK INTER:                  -4.010
REMARK INTRA:                  -0.052
REMARK UNBOUND:                -0.043
REMARK  Name = 
REMARK  3 active torsions:
REMARK  status: ('A' for Active; 'I' for Inactive)
REMARK    1  A    between atoms: C_1  and  O_2
REMARK    2  A    between atoms: O_2  and  C_3
REMARK    3  A    between atoms: C_8  and  O_9
REMARK                            x       y       z     vdW  Elec       q    Type
REMARK                         _______ _______ _______ _____ _____    ______ ____
ROOT
ATOM      1  C   UNL     1      30.690  15.078   7.748  0.00  0.00    +0.000 A 
ATOM      2  C   UNL     1      30.444  16.071   8.695  0.00  0.00    +0.000 A 
ATOM      3  C   UNL     1      29.129  16.468   8.967  0.00  0.00    +0.000 A 
ATOM      4  C   UNL     1      28.058  15.876   8.294  0.00  0.00    +0.000 A 
ATOM      5  C   UNL     1      28.296  14.883   7.347  0.00  0.00    +0.000 A 
ATOM      6  C   UNL     1      29.604  14.496   7.083  0.00  0.00    +0.000 A 
ENDROOT
BRANCH   1   8
ATOM      7  C   UNL     1      32.768  15.486   6.668  0.00  0.00    +0.000 C 
ATOM      8  O   UNL     1      31.921  14.593   7.382  0.00  0.00    +0.000 OA
ENDBRANCH   1   8
BRANCH   6   9
ATOM      9  O   UNL     1      29.812  13.518   6.148  0.00  0.00    +0.000 OA
ATOM     10  H   UNL     1      30.154  12.757   6.656  0.00  0.00    +0.000 HD
ENDBRANCH   6   9
TORSDOF 2
ENDMDL
MODEL 7
REMARK VINA RESULT:    -3.657     11.224     12.362
REMARK INTER + INTRA:          -4.021
REMARK INTER:                  -3.971
REMARK INTRA:                  -0.050
REMARK UNBOUND:                -0.043
REMARK  Name = 
REMARK  3 active torsions:
REMARK  status: ('A' for Active; 'I' for Inactive)
REMARK    1  A    between atoms: C_1  and  O_2
REMARK    2  A    between atoms: O_2  and  C_3
REMARK    3  A    between atoms: C_8  and  O_9
REMARK                            x       y       z     vdW  Elec       q    Type
REMARK                         _______ _______ _______ _____ _____    ______ ____
ROOT
ATOM      1  C   UNL     1      30.744  15.283   8.276  0.00  0.00    +0.000 A 
ATOM      2  C   UNL     1      29.790  15.073   7.281  0.00  0.00    +0.000 A 
ATOM      3  C   UNL     1      30.054  14.179   6.236  0.00  0.00    +0.000 A 
ATOM      4  C   UNL     1      31.270  13.495   6.180  0.00  0.00    +0.000 A 
ATOM      5  C   UNL     1      32.228  13.699   7.170  0.00  0.00    +0.000 A 
ATOM      6  C   UNL     1      31.958  14.587   8.203  0.00  0.00    +0.000 A 
ENDROOT
BRANCH   1   8
ATOM      7  C   UNL     1      30.293  17.478   9.066  0.00  0.00    +0.000 C 
ATOM      8  O   UNL     1      30.622  16.124   9.353  0.00  0.00    +0.000 OA
ENDBRANCH   1   8
BRANCH   6   9
ATOM      9  O   UNL     1      32.915  14.771   9.165  0.00  0.00    +0.000 OA
ATOM     10  H   UNL     1      32.420  15.059   9.956  0.00  0.00    +0.000 HD
ENDBRANCH   6   9
TORSDOF 2
ENDMDL
MODEL 8
REMARK VINA RESULT:    -3.636      1.264      1.923
REMARK INTER + INTRA:          -3.998
REMARK INTER:                  -3.950
REMARK INTRA:                  -0.048
REMARK UNBOUND:                -0.043
REMARK  Name = 
REMARK  3 active torsions:
REMARK  status: ('A' for Active; 'I' for Inactive)
REMARK    1  A    between atoms: C_1  and  O_2
REMARK    2  A    between atoms: O_2  and  C_3
REMARK    3  A    between atoms: C_8  and  O_9
REMARK                            x       y       z     vdW  Elec       q    Type
REMARK                         _______ _______ _______ _____ _____    ______ ____
ROOT
ATOM      1  C   UNL     1      21.086   8.996   3.218  0.00  0.00    +0.000 A 
ATOM      2  C   UNL     1      21.760  10.217   3.191  0.00  0.00    +0.000 A 
ATOM      3  C   UNL     1      23.126  10.268   3.494  0.00  0.00    +0.000 A 
ATOM      4  C   UNL     1      23.823   9.104   3.825  0.00  0.00    +0.000 A 
ATOM      5  C   UNL     1      23.157   7.881   3.853  0.00  0.00    +0.000 A 
ATOM      6  C   UNL     1      21.801   7.839   3.551  0.00  0.00    +0.000 A 
ENDROOT
BRANCH   1   8
ATOM      7  C   UNL     1      19.262   9.376   1.743  0.00  0.00    +0.000 C 
ATOM      8  O   UNL     1      19.757   8.798   2.945  0.00  0.00    +0.000 OA
ENDBRANCH   1   8
BRANCH   6   9
ATOM      9  O   UNL     1      21.169   6.625   3.586  0.00  0.00    +0.000 OA
ATOM     10  H   UNL     1      20.298   6.810   3.986  0.00  0.00    +0.000 HD
ENDBRANCH   6   9
TORSDOF 2
ENDMDL
MODEL 9
REMARK VINA RESULT:    -3.635     11.338     12.688
REMARK INTER + INTRA:          -3.997
REMARK INTER:                  -3.958
REMARK INTRA:                  -0.038
REMARK UNBOUND:                -0.043
REMARK  Name = 
REMARK  3 active torsions:
REMARK  status: ('A' for Active; 'I' for Inactive)
REMARK    1  A    between atoms: C_1  and  O_2
REMARK    2  A    between atoms: O_2  and  C_3
REMARK    3  A    between atoms: C_8  and  O_9
REMARK                            x       y       z     vdW  Elec       q    Type
REMARK                         _______ _______ _______ _____ _____    ______ ____
ROOT
ATOM      1  C   UNL     1      31.028  15.610   7.204  0.00  0.00    +0.000 A 
ATOM      2  C   UNL     1      30.654  16.879   6.764  0.00  0.00    +0.000 A 
ATOM      3  C   UNL     1      31.630  17.783   6.324  0.00  0.00    +0.000 A 
ATOM      4  C   UNL     1      32.979  17.423   6.323  0.00  0.00    +0.000 A 
ATOM      5  C   UNL     1      33.360  16.156   6.760  0.00  0.00    +0.000 A 
ATOM      6  C   UNL     1      32.386  15.267   7.195  0.00  0.00    +0.000 A 
ENDROOT
BRANCH   1   8
ATOM      7  C   UNL     1      28.808  14.773   7.332  0.00  0.00    +0.000 C 
ATOM      8  O   UNL     1      30.185  14.629   7.660  0.00  0.00    +0.000 OA
ENDBRANCH   1   8
BRANCH   6   9
ATOM      9  O   UNL     1      32.785  14.028   7.620  0.00  0.00    +0.000 OA
ATOM     10  H   UNL     1      32.892  13.507   6.801  0.00  0.00    +0.000 HD
ENDBRANCH   6   9
TORSDOF 2
ENDMDL
