MODEL 1
REMARK VINA RESULT:    -5.538      0.000      0.000
REMARK INTER + INTRA:          -6.063
REMARK INTER:                  -6.024
REMARK INTRA:                  -0.039
REMARK UNBOUND:                -0.039
REMARK  Name = 
REMARK  3 active torsions:
REMARK  status: ('A' for Active; 'I' for Inactive)
REMARK    1  A    between atoms: C_1  and  O_2
REMARK    2  A    between atoms: O_2  and  C_3
REMARK    3  A    between atoms: C_8  and  O_9
REMARK                            x       y       z     vdW  Elec       q    Type
REMARK                         _______ _______ _______ _____ _____    ______ ____
ROOT
ATOM      1  C   UNL     1       9.413   2.861 -14.048  0.00  0.00    +0.000 A 
ATOM      2  C   UNL     1       9.497   4.153 -14.564  0.00  0.00    +0.000 A 
ATOM      3  C   UNL     1      10.461   5.042 -14.071  0.00  0.00    +0.000 A 
ATOM      4  C   UNL     1      11.342   4.643 -13.064  0.00  0.00    +0.000 A 
ATOM      5  C   UNL     1      11.264   3.353 -12.544  0.00  0.00    +0.000 A 
ATOM      6  C   UNL     1      10.304   2.479 -13.038  0.00  0.00    +0.000 A 
ENDROOT
BRANCH   1   8
ATOM      7  C   UNL     1       7.328   2.339 -15.063  0.00  0.00    +0.000 C 
ATOM      8  O   UNL     1       8.522   1.891 -14.433  0.00  0.00    +0.000 OA
ENDBRANCH   1   8
BRANCH   6   9
ATOM      9  O   UNL     1      10.247   1.216 -12.511  0.00  0.00    +0.000 OA
ATOM     10  H   UNL     1      10.832   0.682 -13.082  0.00  0.00    +0.000 HD
ENDBRANCH   6   9
TORSDOF 2
ENDMDL
MODEL 2
REMARK VINA RESULT:    -4.685      1.574      2.010
REMARK INTER + INTRA:          -5.135
REMARK INTER:                  -5.082
REMARK INTRA:                  -0.053
REMARK UNBOUND:                -0.039
REMARK  Name = 
REMARK  3 active torsions:
REMARK  status: ('A' for Active; 'I' for Inactive)
REMARK    1  A    between atoms: C_1  and  O_2
REMARK    2  A    between atoms: O_2  and  C_3
REMARK    3  A    between atoms: C_8  and  O_9
REMARK                            x       y       z     vdW  Elec       q    Type
REMARK                         _______ _______ _______ _____ _____    ______ ____
ROOT
ATOM      1  C   UNL     1       8.353   3.864 -14.174  0.00  0.00    +0.000 A 
ATOM      2  C   UNL     1       9.407   4.775 -14.233  0.00  0.00    +0.000 A 
ATOM      3  C   UNL     1      10.622   4.481 -13.601  0.00  0.00    +0.000 A 
ATOM      4  C   UNL     1      10.788   3.280 -12.910  0.00  0.00    +0.000 A 
ATOM      5  C   UNL     1       9.740   2.364 -12.846  0.00  0.00    +0.000 A 
ATOM      6  C   UNL     1       8.538   2.664 -13.475  0.00  0.00    +0.000 A 
ENDROOT
BRANCH   1   8
ATOM      7  C   UNL     1       6.286   5.036 -14.190  0.00  0.00    +0.000 C 
ATOM      8  O   UNL     1       7.114   4.019 -14.741  0.00  0.00    +0.000 OA
ENDBRANCH   1   8
BRANCH   6   9
ATOM      9  O   UNL     1       7.522   1.749 -13.399  0.00  0.00    +0.000 OA
ATOM     10  H   UNL     1       7.260   1.746 -12.458  0.00  0.00    +0.000 HD
ENDBRANCH   6   9
TORSDOF 2
ENDMDL
MODEL 3
REMARK VINA RESULT:    -4.555      3.615      4.634
REMARK INTER + INTRA:          -4.994
REMARK INTER:                  -4.956
REMARK INTRA:                  -0.037
REMARK UNBOUND:                -0.039
REMARK  Name = 
REMARK  3 active torsions:
REMARK  status: ('A' for Active; 'I' for Inactive)
REMARK    1  A    between atoms: C_1  and  O_2
REMARK    2  A    between atoms: O_2  and  C_3
REMARK    3  A    between atoms: C_8  and  O_9
REMARK                            x       y       z     vdW  Elec       q    Type
REMARK                         _______ _______ _______ _____ _____    ______ ____
ROOT
ATOM      1  C   UNL     1       5.604   3.271 -12.262  0.00  0.00    +0.000 A 
ATOM      2  C   UNL     1       4.919   4.484 -12.317  0.00  0.00    +0.000 A 
ATOM      3  C   UNL     1       5.262   5.437 -13.284  0.00  0.00    +0.000 A 
ATOM      4  C   UNL     1       6.289   5.183 -14.196  0.00  0.00    +0.000 A 
ATOM      5  C   UNL     1       6.977   3.974 -14.147  0.00  0.00    +0.000 A 
ATOM      6  C   UNL     1       6.631   3.034 -13.184  0.00  0.00    +0.000 A 
ENDROOT
BRANCH   1   8
ATOM      7  C   UNL     1       4.325   2.449 -10.435  0.00  0.00    +0.000 C 
ATOM      8  O   UNL     1       5.377   2.251 -11.373  0.00  0.00    +0.000 OA
ENDBRANCH   1   8
BRANCH   6   9
ATOM      9  O   UNL     1       7.322   1.852 -13.156  0.00  0.00    +0.000 OA
ATOM     10  H   UNL     1       6.635   1.165 -13.066  0.00  0.00    +0.000 HD
ENDBRANCH   6   9
TORSDOF 2
ENDMDL
MODEL 4
REMARK VINA RESULT:    -4.457      2.785      4.039
REMARK INTER + INTRA:          -4.887
REMARK INTER:                  -4.851
REMARK INTRA:                  -0.036
REMARK UNBOUND:                -0.039
REMARK  Name = 
REMARK  3 active torsions:
REMARK  status: ('A' for Active; 'I' for Inactive)
REMARK    1  A    between atoms: C_1  and  O_2
REMARK    2  A    between atoms: O_2  and  C_3
REMARK    3  A    between atoms: C_8  and  O_9
REMARK                            x       y       z     vdW  Elec       q    Type
REMARK                         _______ _______ _______ _____ _____    ______ ____
ROOT
ATOM      1  C   UNL     1       7.083   3.813 -14.101  0.00  0.00    +0.000 A 
ATOM      2  C   UNL     1       6.491   5.059 -14.304  0.00  0.00    +0.000 A 
ATOM      3  C   UNL     1       5.460   5.490 -13.459  0.00  0.00    +0.000 A 
ATOM      4  C   UNL     1       5.017   4.679 -12.413  0.00  0.00    +0.000 A 
ATOM      5  C   UNL     1       5.605   3.433 -12.203  0.00  0.00    +0.000 A 
ATOM      6  C   UNL     1       6.626   3.014 -13.046  0.00  0.00    +0.000 A 
ENDROOT
BRANCH   1   8
ATOM      7  C   UNL     1       9.405   3.769 -14.604  0.00  0.00    +0.000 C 
ATOM      8  O   UNL     1       8.097   3.266 -14.846  0.00  0.00    +0.000 OA
ENDBRANCH   1   8
BRANCH   6   9
ATOM      9  O   UNL     1       7.188   1.786 -12.820  0.00  0.00    +0.000 OA
ATOM     10  H   UNL     1       7.015   1.280 -13.637  0.00  0.00    +0.000 HD
ENDBRANCH   6   9
TORSDOF 2
ENDMDL
MODEL 5
REMARK VINA RESULT:    -4.382      4.086      5.144
REMARK INTER + INTRA:          -4.805
REMARK INTER:                  -4.766
REMARK INTRA:                  -0.039
REMARK UNBOUND:                -0.039
REMARK  Name = 
REMARK  3 active torsions:
REMARK  status: ('A' for Active; 'I' for Inactive)
REMARK    1  A    between atoms: C_1  and  O_2
REMARK    2  A    between atoms: O_2  and  C_3
REMARK    3  A    between atoms: C_8  and  O_9
REMARK                            x       y       z     vdW  Elec       q    Type
REMARK                         _______ _______ _______ _____ _____    ______ ____
ROOT
ATOM      1  C   UNL     1       5.970   4.103 -13.026  0.00  0.00    +0.000 A 
ATOM      2  C   UNL     1       6.272   4.810 -14.189  0.00  0.00    +0.000 A 
ATOM      3  C   UNL     1       5.624   6.022 -14.459  0.00  0.00    +0.000 A 
ATOM      4  C   UNL     1       4.673   6.529 -13.572  0.00  0.00    +0.000 A 
ATOM      5  C   UNL     1       4.365   5.828 -12.408  0.00  0.00    +0.000 A 
ATOM      6  C   UNL     1       5.014   4.627 -12.148  0.00  0.00    +0.000 A 
ENDROOT
BRANCH   1   8
ATOM      7  C   UNL     1       7.804   2.599 -13.172  0.00  0.00    +0.000 C 
ATOM      8  O   UNL     1       6.524   2.910 -12.636  0.00  0.00    +0.000 OA
ENDBRANCH   1   8
BRANCH   6   9
ATOM      9  O   UNL     1       4.695   3.956 -10.998  0.00  0.00    +0.000 OA
ATOM     10  H   UNL     1       3.810   4.289 -10.753  0.00  0.00    +0.000 HD
ENDBRANCH   6   9
TORSDOF 2
ENDMDL
MODEL 6
REMARK VINA RESULT:    -4.199      4.303      5.173
REMARK INTER + INTRA:          -4.606
REMARK INTER:                  -4.555
REMARK INTRA:                  -0.051
REMARK UNBOUND:                -0.039
REMARK  Name = 
REMARK  3 active torsions:
REMARK  status: ('A' for Active; 'I' for Inactive)
REMARK    1  A    between atoms: C_1  and  O_2
REMARK    2  A    between atoms: O_2  and  C_3
REMARK    3  A    between atoms: C_8  and  O_9
REMARK                            x       y       z     vdW  Elec       q    Type
REMARK                         _______ _______ _______ _____ _____    ______ ____
ROOT
ATOM      1  C   UNL     1       5.019   5.133 -13.039  0.00  0.00    +0.000 A 
ATOM      2  C   UNL     1       5.802   5.401 -14.161  0.00  0.00    +0.000 A 
ATOM      3  C   UNL     1       6.878   4.562 -14.480  0.00  0.00    +0.000 A 
ATOM      4  C   UNL     1       7.174   3.456 -13.680  0.00  0.00    +0.000 A 
ATOM      5  C   UNL     1       6.396   3.182 -12.558  0.00  0.00    +0.000 A 
ATOM      6  C   UNL     1       5.331   4.020 -12.250  0.00  0.00    +0.000 A 
ENDROOT
BRANCH   1   8
ATOM      7  C   UNL     1       2.874   6.028 -13.536  0.00  0.00    +0.000 C 
ATOM      8  O   UNL     1       3.941   5.865 -12.609  0.00  0.00    +0.000 OA
ENDBRANCH   1   8
BRANCH   6   9
ATOM      9  O   UNL     1       4.581   3.730 -11.141  0.00  0.00    +0.000 OA
ATOM     10  H   UNL     1       3.709   4.131 -11.320  0.00  0.00    +0.000 HD
ENDBRANCH   6   9
TORSDOF 2
ENDMDL
MODEL 7
REMARK VINA RESULT:    -4.140      1.523      3.547
REMARK INTER + INTRA:          -4.542
REMARK INTER:                  -4.493
REMARK INTRA:                  -0.049
REMARK UNBOUND:                -0.039
REMARK  Name = 
REMARK  3 active torsions:
REMARK  status: ('A' for Active; 'I' for Inactive)
REMARK    1  A    between atoms: C_1  and  O_2
REMARK    2  A    between atoms: O_2  and  C_3
REMARK    3  A    between atoms: C_8  and  O_9
REMARK                            x       y       z     vdW  Elec       q    Type
REMARK                         _______ _______ _______ _____ _____    ______ ____
ROOT
ATOM      1  C   UNL     1       8.642   3.140 -13.266  0.00  0.00    +0.000 A 
ATOM      2  C   UNL     1       7.676   4.100 -12.967  0.00  0.00    +0.000 A 
ATOM      3  C   UNL     1       6.552   4.241 -13.790  0.00  0.00    +0.000 A 
ATOM      4  C   UNL     1       6.390   3.427 -14.913  0.00  0.00    +0.000 A 
ATOM      5  C   UNL     1       7.351   2.466 -15.219  0.00  0.00    +0.000 A 
ATOM      6  C   UNL     1       8.463   2.333 -14.396  0.00  0.00    +0.000 A 
ENDROOT
BRANCH   1   8
ATOM      7  C   UNL     1      10.816   3.871 -12.644  0.00  0.00    +0.000 C 
ATOM      8  O   UNL     1       9.788   2.893 -12.553  0.00  0.00    +0.000 OA
ENDBRANCH   1   8
BRANCH   6   9
ATOM      9  O   UNL     1       9.394   1.382 -14.717  0.00  0.00    +0.000 OA
ATOM     10  H   UNL     1       9.402   1.361 -15.693  0.00  0.00    +0.000 HD
ENDBRANCH   6   9
TORSDOF 2
ENDMDL
MODEL 8
REMARK VINA RESULT:    -4.139      4.107      5.384
REMARK INTER + INTRA:          -4.542
REMARK INTER:                  -4.498
REMARK INTRA:                  -0.044
REMARK UNBOUND:                -0.039
REMARK  Name = 
REMARK  3 active torsions:
REMARK  status: ('A' for Active; 'I' for Inactive)
REMARK    1  A    between atoms: C_1  and  O_2
REMARK    2  A    between atoms: O_2  and  C_3
REMARK    3  A    between atoms: C_8  and  O_9
REMARK                            x       y       z     vdW  Elec       q    Type
REMARK                         _______ _______ _______ _____ _____    ______ ____
ROOT
ATOM      1  C   UNL     1       5.367   3.765 -12.282  0.00  0.00    +0.000 A 
ATOM      2  C   UNL     1       6.610   3.263 -12.665  0.00  0.00    +0.000 A 
ATOM      3  C   UNL     1       7.233   3.747 -13.823  0.00  0.00    +0.000 A 
ATOM      4  C   UNL     1       6.617   4.730 -14.600  0.00  0.00    +0.000 A 
ATOM      5  C   UNL     1       5.375   5.236 -14.224  0.00  0.00    +0.000 A 
ATOM      6  C   UNL     1       4.765   4.750 -13.074  0.00  0.00    +0.000 A 
ENDROOT
BRANCH   1   8
ATOM      7  C   UNL     1       4.670   2.002 -10.849  0.00  0.00    +0.000 C 
ATOM      8  O   UNL     1       4.645   3.386 -11.179  0.00  0.00    +0.000 OA
ENDBRANCH   1   8
BRANCH   6   9
ATOM      9  O   UNL     1       3.545   5.263 -12.724  0.00  0.00    +0.000 OA
ATOM     10  H   UNL     1       3.263   4.732 -11.955  0.00  0.00    +0.000 HD
ENDBRANCH   6   9
TORSDOF 2
ENDMDL
MODEL 9
REMARK VINA RESULT:    -3.902      3.568      5.272
REMARK INTER + INTRA:          -4.283
REMARK INTER:                  -4.241
REMARK INTRA:                  -0.043
REMARK UNBOUND:                -0.039
REMARK  Name = 
REMARK  3 active torsions:
REMARK  status: ('A' for Active; 'I' for Inactive)
REMARK    1  A    between atoms: C_1  and  O_2
REMARK    2  A    between atoms: O_2  and  C_3
REMARK    3  A    between atoms: C_8  and  O_9
REMARK                            x       y       z     vdW  Elec       q    Type
REMARK                         _______ _______ _______ _____ _____    ______ ____
ROOT
ATOM      1  C   UNL     1       6.278   3.957 -14.024  0.00  0.00    +0.000 A 
ATOM      2  C   UNL     1       6.184   3.427 -12.738  0.00  0.00    +0.000 A 
ATOM      3  C   UNL     1       5.215   3.911 -11.850  0.00  0.00    +0.000 A 
ATOM      4  C   UNL     1       4.339   4.925 -12.242  0.00  0.00    +0.000 A 
ATOM      5  C   UNL     1       4.426   5.459 -13.526  0.00  0.00    +0.000 A 
ATOM      6  C   UNL     1       5.390   4.973 -14.399  0.00  0.00    +0.000 A 
ENDROOT
BRANCH   1   8
ATOM      7  C   UNL     1       7.521   2.203 -15.036  0.00  0.00    +0.000 C 
ATOM      8  O   UNL     1       7.174   3.582 -14.992  0.00  0.00    +0.000 OA
ENDBRANCH   1   8
BRANCH   6   9
ATOM      9  O   UNL     1       5.456   5.515 -15.655  0.00  0.00    +0.000 OA
ATOM     10  H   UNL     1       4.527   5.587 -15.944  0.00  0.00    +0.000 HD
ENDBRANCH   6   9
TORSDOF 2
ENDMDL
