MODEL 1
REMARK VINA RESULT:    -4.942      0.000      0.000
REMARK INTER + INTRA:          -5.414
REMARK INTER:                  -5.376
REMARK INTRA:                  -0.038
REMARK UNBOUND:                -0.038
REMARK  Name = 
REMARK  3 active torsions:
REMARK  status: ('A' for Active; 'I' for Inactive)
REMARK    1  A    between atoms: C_1  and  O_2
REMARK    2  A    between atoms: O_2  and  C_3
REMARK    3  A    between atoms: C_8  and  O_9
REMARK                            x       y       z     vdW  Elec       q    Type
REMARK                         _______ _______ _______ _____ _____    ______ ____
ROOT
ATOM      1  C   UNL     1       8.562 -11.620 -20.106  0.00  0.00    +0.000 A 
ATOM      2  C   UNL     1       9.123 -10.969 -19.009  0.00  0.00    +0.000 A 
ATOM      3  C   UNL     1       8.338 -10.693 -17.882  0.00  0.00    +0.000 A 
ATOM      4  C   UNL     1       6.992 -11.064 -17.849  0.00  0.00    +0.000 A 
ATOM      5  C   UNL     1       6.424 -11.715 -18.942  0.00  0.00    +0.000 A 
ATOM      6  C   UNL     1       7.210 -11.985 -20.055  0.00  0.00    +0.000 A 
ENDROOT
BRANCH   1   8
ATOM      7  C   UNL     1      10.441 -11.289 -21.522  0.00  0.00    +0.000 C 
ATOM      8  O   UNL     1       9.208 -11.952 -21.270  0.00  0.00    +0.000 OA
ENDBRANCH   1   8
BRANCH   6   9
ATOM      9  O   UNL     1       6.630 -12.625 -21.117  0.00  0.00    +0.000 OA
ATOM     10  H   UNL     1       7.140 -12.330 -21.895  0.00  0.00    +0.000 HD
ENDBRANCH   6   9
TORSDOF 2
ENDMDL
MODEL 2
REMARK VINA RESULT:    -4.542      1.628      3.208
REMARK INTER + INTRA:          -4.979
REMARK INTER:                  -4.927
REMARK INTRA:                  -0.053
REMARK UNBOUND:                -0.038
REMARK  Name = 
REMARK  3 active torsions:
REMARK  status: ('A' for Active; 'I' for Inactive)
REMARK    1  A    between atoms: C_1  and  O_2
REMARK    2  A    between atoms: O_2  and  C_3
REMARK    3  A    between atoms: C_8  and  O_9
REMARK                            x       y       z     vdW  Elec       q    Type
REMARK                         _______ _______ _______ _____ _____    ______ ____
ROOT
ATOM      1  C   UNL     1       7.634 -11.084 -18.528  0.00  0.00    +0.000 A 
ATOM      2  C   UNL     1       8.968 -10.730 -18.332  0.00  0.00    +0.000 A 
ATOM      3  C   UNL     1       9.903 -10.928 -19.356  0.00  0.00    +0.000 A 
ATOM      4  C   UNL     1       9.509 -11.479 -20.577  0.00  0.00    +0.000 A 
ATOM      5  C   UNL     1       8.178 -11.835 -20.781  0.00  0.00    +0.000 A 
ATOM      6  C   UNL     1       7.258 -11.636 -19.759  0.00  0.00    +0.000 A 
ENDROOT
BRANCH   1   8
ATOM      7  C   UNL     1       6.680 -11.781 -16.466  0.00  0.00    +0.000 C 
ATOM      8  O   UNL     1       6.616 -10.949 -17.618  0.00  0.00    +0.000 OA
ENDBRANCH   1   8
BRANCH   6   9
ATOM      9  O   UNL     1       5.955 -11.994 -19.984  0.00  0.00    +0.000 OA
ATOM     10  H   UNL     1       6.009 -12.781 -20.558  0.00  0.00    +0.000 HD
ENDBRANCH   6   9
TORSDOF 2
ENDMDL
MODEL 3
REMARK VINA RESULT:    -4.275      2.539      3.429
REMARK INTER + INTRA:          -4.689
REMARK INTER:                  -4.698
REMARK INTRA:                   0.009
REMARK UNBOUND:                -0.038
REMARK  Name = 
REMARK  3 active torsions:
REMARK  status: ('A' for Active; 'I' for Inactive)
REMARK    1  A    between atoms: C_1  and  O_2
REMARK    2  A    between atoms: O_2  and  C_3
REMARK    3  A    between atoms: C_8  and  O_9
REMARK                            x       y       z     vdW  Elec       q    Type
REMARK                         _______ _______ _______ _____ _____    ______ ____
ROOT
ATOM      1  C   UNL     1       7.629 -10.081 -18.200  0.00  0.00    +0.000 A 
ATOM      2  C   UNL     1       8.695 -10.540 -18.973  0.00  0.00    +0.000 A 
ATOM      3  C   UNL     1       8.481 -11.526 -19.945  0.00  0.00    +0.000 A 
ATOM      4  C   UNL     1       7.204 -12.055 -20.146  0.00  0.00    +0.000 A 
ATOM      5  C   UNL     1       6.135 -11.601 -19.379  0.00  0.00    +0.000 A 
ATOM      6  C   UNL     1       6.357 -10.623 -18.417  0.00  0.00    +0.000 A 
ENDROOT
BRANCH   1   8
ATOM      7  C   UNL     1       7.602  -7.771 -17.643  0.00  0.00    +0.000 C 
ATOM      8  O   UNL     1       7.693  -9.125 -17.218  0.00  0.00    +0.000 OA
ENDBRANCH   1   8
BRANCH   6   9
ATOM      9  O   UNL     1       5.290 -10.192 -17.675  0.00  0.00    +0.000 OA
ATOM     10  H   UNL     1       5.116  -9.285 -17.992  0.00  0.00    +0.000 HD
ENDBRANCH   6   9
TORSDOF 2
ENDMDL
MODEL 4
REMARK VINA RESULT:    -4.119     16.559     18.039
REMARK INTER + INTRA:          -4.518
REMARK INTER:                  -4.471
REMARK INTRA:                  -0.047
REMARK UNBOUND:                -0.038
REMARK  Name = 
REMARK  3 active torsions:
REMARK  status: ('A' for Active; 'I' for Inactive)
REMARK    1  A    between atoms: C_1  and  O_2
REMARK    2  A    between atoms: O_2  and  C_3
REMARK    3  A    between atoms: C_8  and  O_9
REMARK                            x       y       z     vdW  Elec       q    Type
REMARK                         _______ _______ _______ _____ _____    ______ ____
ROOT
ATOM      1  C   UNL     1      -8.025 -10.630 -11.709  0.00  0.00    +0.000 A 
ATOM      2  C   UNL     1      -8.749 -10.725 -12.897  0.00  0.00    +0.000 A 
ATOM      3  C   UNL     1      -8.307 -11.575 -13.919  0.00  0.00    +0.000 A 
ATOM      4  C   UNL     1      -7.143 -12.329 -13.759  0.00  0.00    +0.000 A 
ATOM      5  C   UNL     1      -6.415 -12.240 -12.575  0.00  0.00    +0.000 A 
ATOM      6  C   UNL     1      -6.861 -11.395 -11.567  0.00  0.00    +0.000 A 
ENDROOT
BRANCH   1   8
ATOM      7  C   UNL     1      -9.445 -10.261  -9.840  0.00  0.00    +0.000 C 
ATOM      8  O   UNL     1      -8.338  -9.843 -10.630  0.00  0.00    +0.000 OA
ENDBRANCH   1   8
BRANCH   6   9
ATOM      9  O   UNL     1      -6.128 -11.324 -10.412  0.00  0.00    +0.000 OA
ATOM     10  H   UNL     1      -6.151 -12.229 -10.048  0.00  0.00    +0.000 HD
ENDBRANCH   6   9
TORSDOF 2
ENDMDL
MODEL 5
REMARK VINA RESULT:    -4.066      2.988      3.542
REMARK INTER + INTRA:          -4.461
REMARK INTER:                  -4.410
REMARK INTRA:                  -0.051
REMARK UNBOUND:                -0.038
REMARK  Name = 
REMARK  3 active torsions:
REMARK  status: ('A' for Active; 'I' for Inactive)
REMARK    1  A    between atoms: C_1  and  O_2
REMARK    2  A    between atoms: O_2  and  C_3
REMARK    3  A    between atoms: C_8  and  O_9
REMARK                            x       y       z     vdW  Elec       q    Type
REMARK                         _______ _______ _______ _____ _____    ______ ____
ROOT
ATOM      1  C   UNL     1       6.297  -8.924 -18.612  0.00  0.00    +0.000 A 
ATOM      2  C   UNL     1       7.394  -8.665 -17.791  0.00  0.00    +0.000 A 
ATOM      3  C   UNL     1       8.049  -9.722 -17.145  0.00  0.00    +0.000 A 
ATOM      4  C   UNL     1       7.611 -11.036 -17.316  0.00  0.00    +0.000 A 
ATOM      5  C   UNL     1       6.516 -11.303 -18.134  0.00  0.00    +0.000 A 
ATOM      6  C   UNL     1       5.872 -10.249 -18.771  0.00  0.00    +0.000 A 
ENDROOT
BRANCH   1   8
ATOM      7  C   UNL     1       6.281  -7.167 -20.211  0.00  0.00    +0.000 C 
ATOM      8  O   UNL     1       5.563  -7.993 -19.302  0.00  0.00    +0.000 OA
ENDBRANCH   1   8
BRANCH   6   9
ATOM      9  O   UNL     1       4.798 -10.536 -19.571  0.00  0.00    +0.000 OA
ATOM     10  H   UNL     1       4.898  -9.945 -20.342  0.00  0.00    +0.000 HD
ENDBRANCH   6   9
TORSDOF 2
ENDMDL
MODEL 6
REMARK VINA RESULT:    -4.055      8.430      9.294
REMARK INTER + INTRA:          -4.449
REMARK INTER:                  -4.410
REMARK INTRA:                  -0.038
REMARK UNBOUND:                -0.038
REMARK  Name = 
REMARK  3 active torsions:
REMARK  status: ('A' for Active; 'I' for Inactive)
REMARK    1  A    between atoms: C_1  and  O_2
REMARK    2  A    between atoms: O_2  and  C_3
REMARK    3  A    between atoms: C_8  and  O_9
REMARK                            x       y       z     vdW  Elec       q    Type
REMARK                         _______ _______ _______ _____ _____    ______ ____
ROOT
ATOM      1  C   UNL     1       6.527  -3.169 -17.526  0.00  0.00    +0.000 A 
ATOM      2  C   UNL     1       7.191  -3.691 -18.635  0.00  0.00    +0.000 A 
ATOM      3  C   UNL     1       8.500  -4.173 -18.504  0.00  0.00    +0.000 A 
ATOM      4  C   UNL     1       9.148  -4.134 -17.268  0.00  0.00    +0.000 A 
ATOM      5  C   UNL     1       8.491  -3.614 -16.155  0.00  0.00    +0.000 A 
ATOM      6  C   UNL     1       7.193  -3.139 -16.295  0.00  0.00    +0.000 A 
ENDROOT
BRANCH   1   8
ATOM      7  C   UNL     1       4.689  -2.315 -18.767  0.00  0.00    +0.000 C 
ATOM      8  O   UNL     1       5.252  -2.664 -17.508  0.00  0.00    +0.000 OA
ENDBRANCH   1   8
BRANCH   6   9
ATOM      9  O   UNL     1       6.568  -2.632 -15.186  0.00  0.00    +0.000 OA
ATOM     10  H   UNL     1       5.648  -2.951 -15.253  0.00  0.00    +0.000 HD
ENDBRANCH   6   9
TORSDOF 2
ENDMDL
MODEL 7
REMARK VINA RESULT:    -3.931      1.870      2.360
REMARK INTER + INTRA:          -4.314
REMARK INTER:                  -4.266
REMARK INTRA:                  -0.048
REMARK UNBOUND:                -0.038
REMARK  Name = 
REMARK  3 active torsions:
REMARK  status: ('A' for Active; 'I' for Inactive)
REMARK    1  A    between atoms: C_1  and  O_2
REMARK    2  A    between atoms: O_2  and  C_3
REMARK    3  A    between atoms: C_8  and  O_9
REMARK                            x       y       z     vdW  Elec       q    Type
REMARK                         _______ _______ _______ _____ _____    ______ ____
ROOT
ATOM      1  C   UNL     1       8.603 -10.440 -19.632  0.00  0.00    +0.000 A 
ATOM      2  C   UNL     1       8.656 -10.932 -18.329  0.00  0.00    +0.000 A 
ATOM      3  C   UNL     1       8.236 -10.129 -17.261  0.00  0.00    +0.000 A 
ATOM      4  C   UNL     1       7.764  -8.835 -17.491  0.00  0.00    +0.000 A 
ATOM      5  C   UNL     1       7.708  -8.337 -18.790  0.00  0.00    +0.000 A 
ATOM      6  C   UNL     1       8.127  -9.140 -19.844  0.00  0.00    +0.000 A 
ENDROOT
BRANCH   1   8
ATOM      7  C   UNL     1      10.378 -11.296 -20.961  0.00  0.00    +0.000 C 
ATOM      8  O   UNL     1       8.980 -11.111 -20.768  0.00  0.00    +0.000 OA
ENDBRANCH   1   8
BRANCH   6   9
ATOM      9  O   UNL     1       8.062  -8.629 -21.112  0.00  0.00    +0.000 OA
ATOM     10  H   UNL     1       7.173  -8.873 -21.433  0.00  0.00    +0.000 HD
ENDBRANCH   6   9
TORSDOF 2
ENDMDL
MODEL 8
REMARK VINA RESULT:    -3.924      2.276      4.918
REMARK INTER + INTRA:          -4.307
REMARK INTER:                  -4.257
REMARK INTRA:                  -0.049
REMARK UNBOUND:                -0.038
REMARK  Name = 
REMARK  3 active torsions:
REMARK  status: ('A' for Active; 'I' for Inactive)
REMARK    1  A    between atoms: C_1  and  O_2
REMARK    2  A    between atoms: O_2  and  C_3
REMARK    3  A    between atoms: C_8  and  O_9
REMARK                            x       y       z     vdW  Elec       q    Type
REMARK                         _______ _______ _______ _____ _____    ______ ____
ROOT
ATOM      1  C   UNL     1      10.532 -10.435 -20.993  0.00  0.00    +0.000 A 
ATOM      2  C   UNL     1      10.045  -9.231 -21.500  0.00  0.00    +0.000 A 
ATOM      3  C   UNL     1      10.827  -8.476 -22.382  0.00  0.00    +0.000 A 
ATOM      4  C   UNL     1      12.096  -8.919 -22.760  0.00  0.00    +0.000 A 
ATOM      5  C   UNL     1      12.590 -10.121 -22.258  0.00  0.00    +0.000 A 
ATOM      6  C   UNL     1      11.807 -10.863 -21.383  0.00  0.00    +0.000 A 
ENDROOT
BRANCH   1   8
ATOM      7  C   UNL     1       8.566 -11.674 -20.496  0.00  0.00    +0.000 C 
ATOM      8  O   UNL     1       9.880 -11.273 -20.125  0.00  0.00    +0.000 OA
ENDBRANCH   1   8
BRANCH   6   9
ATOM      9  O   UNL     1      12.315 -12.041 -20.904  0.00  0.00    +0.000 OA
ATOM     10  H   UNL     1      11.907 -12.732 -21.460  0.00  0.00    +0.000 HD
ENDBRANCH   6   9
TORSDOF 2
ENDMDL
