MODEL 1
REMARK VINA RESULT:    -4.922      0.000      0.000
REMARK INTER + INTRA:          -7.286
REMARK INTER:                  -6.649
REMARK INTRA:                  -0.638
REMARK UNBOUND:                -0.638
REMARK  Name = 
REMARK  10 active torsions:
REMARK  status: ('A' for Active; 'I' for Inactive)
REMARK    1  A    between atoms: C_1  and  C_2
REMARK    2  A    between atoms: C_5  and  N_8
REMARK    3  A    between atoms: N_8  and  C_9
REMARK    4  A    between atoms: N_8  and  C_13
REMARK    5  A    between atoms: C_9  and  C_10
REMARK    6  A    between atoms: C_10  and  C_11
REMARK    7  A    between atoms: C_10  and  O_12
REMARK    8  A    between atoms: C_13  and  C_14
REMARK    9  A    between atoms: C_14  and  C_15
REMARK   10  A    between atoms: C_14  and  O_16
REMARK                            x       y       z     vdW  Elec       q    Type
REMARK                         _______ _______ _______ _____ _____    ______ ____
ROOT
ATOM      1  N   UNL     1       3.885   6.317 -13.994  0.00  0.00    +0.000 N 
ENDROOT
BRANCH   1   6
ATOM      2  C   UNL     1       8.290   2.728 -12.969  0.00  0.00    +0.000 C 
ATOM      3  C   UNL     1       7.157   3.676 -13.219  0.00  0.00    +0.000 A 
ATOM      4  C   UNL     1       5.997   3.621 -12.454  0.00  0.00    +0.000 A 
ATOM      5  C   UNL     1       4.926   4.492 -12.712  0.00  0.00    +0.000 A 
ATOM      6  C   UNL     1       4.949   5.438 -13.754  0.00  0.00    +0.000 A 
ATOM      7  C   UNL     1       6.138   5.467 -14.506  0.00  0.00    +0.000 A 
ATOM      8  C   UNL     1       7.217   4.603 -14.256  0.00  0.00    +0.000 A 
ENDBRANCH   1   6
BRANCH   1   9
ATOM      9  C   UNL     1       2.909   6.025 -15.072  0.00  0.00    +0.000 C 
BRANCH   9  10
ATOM     10  C   UNL     1       1.483   6.530 -14.742  0.00  0.00    +0.000 C 
ATOM     11  C   UNL     1       0.494   6.114 -15.824  0.00  0.00    +0.000 C 
BRANCH  10  12
ATOM     12  O   UNL     1       1.024   5.998 -13.492  0.00  0.00    +0.000 OA
ATOM     13  H   UNL     1       0.260   5.425 -13.671  0.00  0.00    +0.000 HD
ENDBRANCH  10  12
ENDBRANCH   9  10
ENDBRANCH   1   9
BRANCH   1  14
ATOM     14  C   UNL     1       3.960   7.744 -13.588  0.00  0.00    +0.000 C 
BRANCH  14  15
ATOM     15  C   UNL     1       3.697   7.935 -12.075  0.00  0.00    +0.000 C 
ATOM     16  C   UNL     1       4.553   9.031 -11.452  0.00  0.00    +0.000 C 
BRANCH  15  17
ATOM     17  O   UNL     1       2.328   8.241 -11.813  0.00  0.00    +0.000 OA
ATOM     18  H   UNL     1       2.036   7.564 -11.170  0.00  0.00    +0.000 HD
ENDBRANCH  15  17
ENDBRANCH  14  15
ENDBRANCH   1  14
TORSDOF 7
ENDMDL
MODEL 2
REMARK VINA RESULT:    -4.692      0.652      3.277
REMARK INTER + INTRA:          -6.975
REMARK INTER:                  -6.305
REMARK INTRA:                  -0.671
REMARK UNBOUND:                -0.638
REMARK  Name = 
REMARK  10 active torsions:
REMARK  status: ('A' for Active; 'I' for Inactive)
REMARK    1  A    between atoms: C_1  and  C_2
REMARK    2  A    between atoms: C_5  and  N_8
REMARK    3  A    between atoms: N_8  and  C_9
REMARK    4  A    between atoms: N_8  and  C_13
REMARK    5  A    between atoms: C_9  and  C_10
REMARK    6  A    between atoms: C_10  and  C_11
REMARK    7  A    between atoms: C_10  and  O_12
REMARK    8  A    between atoms: C_13  and  C_14
REMARK    9  A    between atoms: C_14  and  C_15
REMARK   10  A    between atoms: C_14  and  O_16
REMARK                            x       y       z     vdW  Elec       q    Type
REMARK                         _______ _______ _______ _____ _____    ______ ____
ROOT
ATOM      1  N   UNL     1       3.527   6.419 -13.740  0.00  0.00    +0.000 N 
ENDROOT
BRANCH   1   6
ATOM      2  C   UNL     1       8.124   2.989 -13.085  0.00  0.00    +0.000 C 
ATOM      3  C   UNL     1       6.921   3.862 -13.271  0.00  0.00    +0.000 A 
ATOM      4  C   UNL     1       6.885   4.826 -14.273  0.00  0.00    +0.000 A 
ATOM      5  C   UNL     1       5.767   5.662 -14.422  0.00  0.00    +0.000 A 
ATOM      6  C   UNL     1       4.648   5.595 -13.573  0.00  0.00    +0.000 A 
ATOM      7  C   UNL     1       4.717   4.608 -12.573  0.00  0.00    +0.000 A 
ATOM      8  C   UNL     1       5.829   3.764 -12.413  0.00  0.00    +0.000 A 
ENDBRANCH   1   6
BRANCH   1   9
ATOM      9  C   UNL     1       3.599   7.855 -13.376  0.00  0.00    +0.000 C 
BRANCH   9  10
ATOM     10  C   UNL     1       3.564   8.088 -11.846  0.00  0.00    +0.000 C 
ATOM     11  C   UNL     1       4.602   9.122 -11.428  0.00  0.00    +0.000 C 
BRANCH  10  12
ATOM     12  O   UNL     1       2.275   8.557 -11.426  0.00  0.00    +0.000 OA
ATOM     13  H   UNL     1       1.663   7.802 -11.430  0.00  0.00    +0.000 HD
ENDBRANCH  10  12
ENDBRANCH   9  10
ENDBRANCH   1   9
BRANCH   1  14
ATOM     14  C   UNL     1       2.155   5.852 -13.778  0.00  0.00    +0.000 C 
BRANCH  14  15
ATOM     15  C   UNL     1       1.115   6.873 -14.300  0.00  0.00    +0.000 C 
ATOM     16  C   UNL     1       0.313   6.356 -15.488  0.00  0.00    +0.000 C 
BRANCH  15  17
ATOM     17  O   UNL     1       0.195   7.258 -13.280  0.00  0.00    +0.000 OA
ATOM     18  H   UNL     1      -0.155   6.416 -12.925  0.00  0.00    +0.000 HD
ENDBRANCH  15  17
ENDBRANCH  14  15
ENDBRANCH   1  14
TORSDOF 7
ENDMDL
MODEL 3
REMARK VINA RESULT:    -4.304     10.631     13.032
REMARK INTER + INTRA:          -6.451
REMARK INTER:                  -5.978
REMARK INTRA:                  -0.473
REMARK UNBOUND:                -0.638
REMARK  Name = 
REMARK  10 active torsions:
REMARK  status: ('A' for Active; 'I' for Inactive)
REMARK    1  A    between atoms: C_1  and  C_2
REMARK    2  A    between atoms: C_5  and  N_8
REMARK    3  A    between atoms: N_8  and  C_9
REMARK    4  A    between atoms: N_8  and  C_13
REMARK    5  A    between atoms: C_9  and  C_10
REMARK    6  A    between atoms: C_10  and  C_11
REMARK    7  A    between atoms: C_10  and  O_12
REMARK    8  A    between atoms: C_13  and  C_14
REMARK    9  A    between atoms: C_14  and  C_15
REMARK   10  A    between atoms: C_14  and  O_16
REMARK                            x       y       z     vdW  Elec       q    Type
REMARK                         _______ _______ _______ _____ _____    ______ ____
ROOT
ATOM      1  N   UNL     1       2.387   9.759  -1.564  0.00  0.00    +0.000 N 
ENDROOT
BRANCH   1   6
ATOM      2  C   UNL     1       0.122   6.147  -5.457  0.00  0.00    +0.000 C 
ATOM      3  C   UNL     1       0.693   7.102  -4.453  0.00  0.00    +0.000 A 
ATOM      4  C   UNL     1       1.754   7.938  -4.786  0.00  0.00    +0.000 A 
ATOM      5  C   UNL     1       2.305   8.809  -3.833  0.00  0.00    +0.000 A 
ATOM      6  C   UNL     1       1.845   8.874  -2.505  0.00  0.00    +0.000 A 
ATOM      7  C   UNL     1       0.771   8.016  -2.205  0.00  0.00    +0.000 A 
ATOM      8  C   UNL     1       0.209   7.141  -3.149  0.00  0.00    +0.000 A 
ENDBRANCH   1   6
BRANCH   1   9
ATOM      9  C   UNL     1       1.535  10.809  -0.955  0.00  0.00    +0.000 C 
BRANCH   9  10
ATOM     10  C   UNL     1       1.352  10.622   0.571  0.00  0.00    +0.000 C 
ATOM     11  C   UNL     1       0.626  11.814   1.183  0.00  0.00    +0.000 C 
BRANCH  10  12
ATOM     12  O   UNL     1       0.589   9.442   0.858  0.00  0.00    +0.000 OA
ATOM     13  H   UNL     1      -0.039   9.305   0.130  0.00  0.00    +0.000 HD
ENDBRANCH  10  12
ENDBRANCH   9  10
ENDBRANCH   1   9
BRANCH   1  14
ATOM     14  C   UNL     1       3.846  10.036  -1.519  0.00  0.00    +0.000 C 
BRANCH  14  15
ATOM     15  C   UNL     1       4.610   8.999  -0.660  0.00  0.00    +0.000 C 
ATOM     16  C   UNL     1       6.028   8.739  -1.155  0.00  0.00    +0.000 C 
BRANCH  15  17
ATOM     17  O   UNL     1       4.686   9.401   0.707  0.00  0.00    +0.000 OA
ATOM     18  H   UNL     1       5.369  10.101   0.727  0.00  0.00    +0.000 HD
ENDBRANCH  15  17
ENDBRANCH  14  15
ENDBRANCH   1  14
TORSDOF 7
ENDMDL
MODEL 4
REMARK VINA RESULT:    -4.224      3.313      5.746
REMARK INTER + INTRA:          -6.343
REMARK INTER:                  -6.000
REMARK INTRA:                  -0.343
REMARK UNBOUND:                -0.638
REMARK  Name = 
REMARK  10 active torsions:
REMARK  status: ('A' for Active; 'I' for Inactive)
REMARK    1  A    between atoms: C_1  and  C_2
REMARK    2  A    between atoms: C_5  and  N_8
REMARK    3  A    between atoms: N_8  and  C_9
REMARK    4  A    between atoms: N_8  and  C_13
REMARK    5  A    between atoms: C_9  and  C_10
REMARK    6  A    between atoms: C_10  and  C_11
REMARK    7  A    between atoms: C_10  and  O_12
REMARK    8  A    between atoms: C_13  and  C_14
REMARK    9  A    between atoms: C_14  and  C_15
REMARK   10  A    between atoms: C_14  and  O_16
REMARK                            x       y       z     vdW  Elec       q    Type
REMARK                         _______ _______ _______ _____ _____    ______ ____
ROOT
ATOM      1  N   UNL     1       5.628   4.304 -13.129  0.00  0.00    +0.000 N 
ENDROOT
BRANCH   1   6
ATOM      2  C   UNL     1       4.698   9.849 -14.438  0.00  0.00    +0.000 C 
ATOM      3  C   UNL     1       4.960   8.416 -14.086  0.00  0.00    +0.000 A 
ATOM      4  C   UNL     1       5.677   7.590 -14.945  0.00  0.00    +0.000 A 
ATOM      5  C   UNL     1       5.894   6.240 -14.624  0.00  0.00    +0.000 A 
ATOM      6  C   UNL     1       5.391   5.646 -13.452  0.00  0.00    +0.000 A 
ATOM      7  C   UNL     1       4.673   6.511 -12.607  0.00  0.00    +0.000 A 
ATOM      8  C   UNL     1       4.450   7.864 -12.915  0.00  0.00    +0.000 A 
ENDBRANCH   1   6
BRANCH   1   9
ATOM      9  C   UNL     1       4.620   3.535 -12.359  0.00  0.00    +0.000 C 
BRANCH   9  10
ATOM     10  C   UNL     1       5.239   2.750 -11.176  0.00  0.00    +0.000 C 
ATOM     11  C   UNL     1       4.197   2.480 -10.097  0.00  0.00    +0.000 C 
BRANCH  10  12
ATOM     12  O   UNL     1       5.763   1.489 -11.614  0.00  0.00    +0.000 OA
ATOM     13  H   UNL     1       5.103   1.074 -12.195  0.00  0.00    +0.000 HD
ENDBRANCH  10  12
ENDBRANCH   9  10
ENDBRANCH   1   9
BRANCH   1  14
ATOM     14  C   UNL     1       7.009   3.760 -13.066  0.00  0.00    +0.000 C 
BRANCH  14  15
ATOM     15  C   UNL     1       7.386   2.975 -14.345  0.00  0.00    +0.000 C 
ATOM     16  C   UNL     1       8.776   3.316 -14.869  0.00  0.00    +0.000 C 
BRANCH  15  17
ATOM     17  O   UNL     1       7.327   1.565 -14.135  0.00  0.00    +0.000 OA
ATOM     18  H   UNL     1       7.081   1.190 -15.004  0.00  0.00    +0.000 HD
ENDBRANCH  15  17
ENDBRANCH  14  15
ENDBRANCH   1  14
TORSDOF 7
ENDMDL
MODEL 5
REMARK VINA RESULT:    -4.149      2.885      5.560
REMARK INTER + INTRA:          -6.242
REMARK INTER:                  -6.108
REMARK INTRA:                  -0.135
REMARK UNBOUND:                -0.638
REMARK  Name = 
REMARK  10 active torsions:
REMARK  status: ('A' for Active; 'I' for Inactive)
REMARK    1  A    between atoms: C_1  and  C_2
REMARK    2  A    between atoms: C_5  and  N_8
REMARK    3  A    between atoms: N_8  and  C_9
REMARK    4  A    between atoms: N_8  and  C_13
REMARK    5  A    between atoms: C_9  and  C_10
REMARK    6  A    between atoms: C_10  and  C_11
REMARK    7  A    between atoms: C_10  and  O_12
REMARK    8  A    between atoms: C_13  and  C_14
REMARK    9  A    between atoms: C_14  and  C_15
REMARK   10  A    between atoms: C_14  and  O_16
REMARK                            x       y       z     vdW  Elec       q    Type
REMARK                         _______ _______ _______ _____ _____    ______ ____
ROOT
ATOM      1  N   UNL     1       6.354   3.880 -13.822  0.00  0.00    +0.000 N 
ENDROOT
BRANCH   1   6
ATOM      2  C   UNL     1       3.474   8.521 -15.690  0.00  0.00    +0.000 C 
ATOM      3  C   UNL     1       4.229   7.312 -15.229  0.00  0.00    +0.000 A 
ATOM      4  C   UNL     1       3.612   6.068 -15.158  0.00  0.00    +0.000 A 
ATOM      5  C   UNL     1       4.316   4.944 -14.696  0.00  0.00    +0.000 A 
ATOM      6  C   UNL     1       5.652   5.009 -14.263  0.00  0.00    +0.000 A 
ATOM      7  C   UNL     1       6.246   6.282 -14.350  0.00  0.00    +0.000 A 
ATOM      8  C   UNL     1       5.554   7.413 -14.812  0.00  0.00    +0.000 A 
ENDBRANCH   1   6
BRANCH   1   9
ATOM      9  C   UNL     1       6.254   3.449 -12.407  0.00  0.00    +0.000 C 
BRANCH   9  10
ATOM     10  C   UNL     1       4.815   3.557 -11.846  0.00  0.00    +0.000 C 
ATOM     11  C   UNL     1       4.503   2.390 -10.917  0.00  0.00    +0.000 C 
BRANCH  10  12
ATOM     12  O   UNL     1       4.640   4.773 -11.107  0.00  0.00    +0.000 OA
ATOM     13  H   UNL     1       5.110   4.682 -10.261  0.00  0.00    +0.000 HD
ENDBRANCH  10  12
ENDBRANCH   9  10
ENDBRANCH   1   9
BRANCH   1  14
ATOM     14  C   UNL     1       7.564   3.398 -14.537  0.00  0.00    +0.000 C 
BRANCH  14  15
ATOM     15  C   UNL     1       8.861   3.666 -13.737  0.00  0.00    +0.000 C 
ATOM     16  C   UNL     1       9.687   2.408 -13.497  0.00  0.00    +0.000 C 
BRANCH  15  17
ATOM     17  O   UNL     1       9.694   4.623 -14.389  0.00  0.00    +0.000 OA
ATOM     18  H   UNL     1       9.085   5.154 -14.942  0.00  0.00    +0.000 HD
ENDBRANCH  15  17
ENDBRANCH  14  15
ENDBRANCH   1  14
TORSDOF 7
ENDMDL
MODEL 6
REMARK VINA RESULT:    -4.130      9.318     11.378
REMARK INTER + INTRA:          -6.217
REMARK INTER:                  -5.679
REMARK INTRA:                  -0.538
REMARK UNBOUND:                -0.638
REMARK  Name = 
REMARK  10 active torsions:
REMARK  status: ('A' for Active; 'I' for Inactive)
REMARK    1  A    between atoms: C_1  and  C_2
REMARK    2  A    between atoms: C_5  and  N_8
REMARK    3  A    between atoms: N_8  and  C_9
REMARK    4  A    between atoms: N_8  and  C_13
REMARK    5  A    between atoms: C_9  and  C_10
REMARK    6  A    between atoms: C_10  and  C_11
REMARK    7  A    between atoms: C_10  and  O_12
REMARK    8  A    between atoms: C_13  and  C_14
REMARK    9  A    between atoms: C_14  and  C_15
REMARK   10  A    between atoms: C_14  and  O_16
REMARK                            x       y       z     vdW  Elec       q    Type
REMARK                         _______ _______ _______ _____ _____    ______ ____
ROOT
ATOM      1  N   UNL     1       1.466   8.295  -3.126  0.00  0.00    +0.000 N 
ENDROOT
BRANCH   1   6
ATOM      2  C   UNL     1      -1.734   6.971  -7.746  0.00  0.00    +0.000 C 
ATOM      3  C   UNL     1      -0.923   7.309  -6.532  0.00  0.00    +0.000 A 
ATOM      4  C   UNL     1      -0.887   8.608  -6.036  0.00  0.00    +0.000 A 
ATOM      5  C   UNL     1      -0.101   8.925  -4.916  0.00  0.00    +0.000 A 
ATOM      6  C   UNL     1       0.699   7.976  -4.255  0.00  0.00    +0.000 A 
ATOM      7  C   UNL     1       0.637   6.673  -4.782  0.00  0.00    +0.000 A 
ATOM      8  C   UNL     1      -0.146   6.342  -5.900  0.00  0.00    +0.000 A 
ENDBRANCH   1   6
BRANCH   1   9
ATOM      9  C   UNL     1       0.922   8.058  -1.767  0.00  0.00    +0.000 C 
BRANCH   9  10
ATOM     10  C   UNL     1       0.442   9.359  -1.078  0.00  0.00    +0.000 C 
ATOM     11  C   UNL     1      -1.015   9.650  -1.419  0.00  0.00    +0.000 C 
BRANCH  10  12
ATOM     12  O   UNL     1       0.552   9.256   0.348  0.00  0.00    +0.000 OA
ATOM     13  H   UNL     1       1.033   8.438   0.555  0.00  0.00    +0.000 HD
ENDBRANCH  10  12
ENDBRANCH   9  10
ENDBRANCH   1   9
BRANCH   1  14
ATOM     14  C   UNL     1       2.555   9.303  -3.196  0.00  0.00    +0.000 C 
BRANCH  14  15
ATOM     15  C   UNL     1       3.505   9.054  -4.392  0.00  0.00    +0.000 C 
ATOM     16  C   UNL     1       4.570  10.134  -4.546  0.00  0.00    +0.000 C 
BRANCH  15  17
ATOM     17  O   UNL     1       4.166   7.794  -4.287  0.00  0.00    +0.000 OA
ATOM     18  H   UNL     1       3.456   7.127  -4.384  0.00  0.00    +0.000 HD
ENDBRANCH  15  17
ENDBRANCH  14  15
ENDBRANCH   1  14
TORSDOF 7
ENDMDL
MODEL 7
REMARK VINA RESULT:    -4.122      9.064     11.230
REMARK INTER + INTRA:          -6.205
REMARK INTER:                  -5.835
REMARK INTRA:                  -0.370
REMARK UNBOUND:                -0.638
REMARK  Name = 
REMARK  10 active torsions:
REMARK  status: ('A' for Active; 'I' for Inactive)
REMARK    1  A    between atoms: C_1  and  C_2
REMARK    2  A    between atoms: C_5  and  N_8
REMARK    3  A    between atoms: N_8  and  C_9
REMARK    4  A    between atoms: N_8  and  C_13
REMARK    5  A    between atoms: C_9  and  C_10
REMARK    6  A    between atoms: C_10  and  C_11
REMARK    7  A    between atoms: C_10  and  O_12
REMARK    8  A    between atoms: C_13  and  C_14
REMARK    9  A    between atoms: C_14  and  C_15
REMARK   10  A    between atoms: C_14  and  O_16
REMARK                            x       y       z     vdW  Elec       q    Type
REMARK                         _______ _______ _______ _____ _____    ______ ____
ROOT
ATOM      1  N   UNL     1       1.420   8.649  -3.202  0.00  0.00    +0.000 N 
ENDROOT
BRANCH   1   6
ATOM      2  C   UNL     1      -1.626   6.842  -7.761  0.00  0.00    +0.000 C 
ATOM      3  C   UNL     1      -0.815   7.311  -6.592  0.00  0.00    +0.000 A 
ATOM      4  C   UNL     1      -0.224   6.402  -5.721  0.00  0.00    +0.000 A 
ATOM      5  C   UNL     1       0.510   6.848  -4.610  0.00  0.00    +0.000 A 
ATOM      6  C   UNL     1       0.671   8.211  -4.301  0.00  0.00    +0.000 A 
ATOM      7  C   UNL     1       0.062   9.102  -5.205  0.00  0.00    +0.000 A 
ATOM      8  C   UNL     1      -0.673   8.669  -6.321  0.00  0.00    +0.000 A 
ENDBRANCH   1   6
BRANCH   1   9
ATOM      9  C   UNL     1       2.833   9.061  -3.383  0.00  0.00    +0.000 C 
BRANCH   9  10
ATOM     10  C   UNL     1       3.464   8.488  -4.676  0.00  0.00    +0.000 C 
ATOM     11  C   UNL     1       3.944   9.609  -5.590  0.00  0.00    +0.000 C 
BRANCH  10  12
ATOM     12  O   UNL     1       4.589   7.651  -4.373  0.00  0.00    +0.000 OA
ATOM     13  H   UNL     1       5.360   7.997  -4.851  0.00  0.00    +0.000 HD
ENDBRANCH  10  12
ENDBRANCH   9  10
ENDBRANCH   1   9
BRANCH   1  14
ATOM     14  C   UNL     1       1.057   8.254  -1.817  0.00  0.00    +0.000 C 
BRANCH  14  15
ATOM     15  C   UNL     1       0.409   9.417  -1.029  0.00  0.00    +0.000 C 
ATOM     16  C   UNL     1      -1.050   9.654  -1.400  0.00  0.00    +0.000 C 
BRANCH  15  17
ATOM     17  O   UNL     1       0.476   9.201   0.380  0.00  0.00    +0.000 OA
ATOM     18  H   UNL     1       0.718   8.258   0.480  0.00  0.00    +0.000 HD
ENDBRANCH  15  17
ENDBRANCH  14  15
ENDBRANCH   1  14
TORSDOF 7
ENDMDL
MODEL 8
REMARK VINA RESULT:    -4.062      9.320     11.586
REMARK INTER + INTRA:          -6.125
REMARK INTER:                  -5.795
REMARK INTRA:                  -0.330
REMARK UNBOUND:                -0.638
REMARK  Name = 
REMARK  10 active torsions:
REMARK  status: ('A' for Active; 'I' for Inactive)
REMARK    1  A    between atoms: C_1  and  C_2
REMARK    2  A    between atoms: C_5  and  N_8
REMARK    3  A    between atoms: N_8  and  C_9
REMARK    4  A    between atoms: N_8  and  C_13
REMARK    5  A    between atoms: C_9  and  C_10
REMARK    6  A    between atoms: C_10  and  C_11
REMARK    7  A    between atoms: C_10  and  O_12
REMARK    8  A    between atoms: C_13  and  C_14
REMARK    9  A    between atoms: C_14  and  C_15
REMARK   10  A    between atoms: C_14  and  O_16
REMARK                            x       y       z     vdW  Elec       q    Type
REMARK                         _______ _______ _______ _____ _____    ______ ____
ROOT
ATOM      1  N   UNL     1       1.103   8.461  -3.052  0.00  0.00    +0.000 N 
ENDROOT
BRANCH   1   6
ATOM      2  C   UNL     1       6.322   9.736  -5.165  0.00  0.00    +0.000 C 
ATOM      3  C   UNL     1       4.976   9.383  -4.610  0.00  0.00    +0.000 A 
ATOM      4  C   UNL     1       4.006   8.789  -5.410  0.00  0.00    +0.000 A 
ATOM      5  C   UNL     1       2.736   8.488  -4.892  0.00  0.00    +0.000 A 
ATOM      6  C   UNL     1       2.365   8.782  -3.568  0.00  0.00    +0.000 A 
ATOM      7  C   UNL     1       3.371   9.380  -2.787  0.00  0.00    +0.000 A 
ATOM      8  C   UNL     1       4.645   9.685  -3.292  0.00  0.00    +0.000 A 
ENDBRANCH   1   6
BRANCH   1   9
ATOM      9  C   UNL     1       0.924   8.266  -1.593  0.00  0.00    +0.000 C 
BRANCH   9  10
ATOM     10  C   UNL     1       0.370   9.525  -0.883  0.00  0.00    +0.000 C 
ATOM     11  C   UNL     1      -1.095   9.750  -1.235  0.00  0.00    +0.000 C 
BRANCH  10  12
ATOM     12  O   UNL     1       0.470   9.398   0.543  0.00  0.00    +0.000 OA
ATOM     13  H   UNL     1      -0.127  10.050   0.946  0.00  0.00    +0.000 HD
ENDBRANCH  10  12
ENDBRANCH   9  10
ENDBRANCH   1   9
BRANCH   1  14
ATOM     14  C   UNL     1       0.067   7.817  -3.900  0.00  0.00    +0.000 C 
BRANCH  14  15
ATOM     15  C   UNL     1       0.061   6.277  -3.747  0.00  0.00    +0.000 C 
ATOM     16  C   UNL     1      -1.283   5.725  -3.286  0.00  0.00    +0.000 C 
BRANCH  15  17
ATOM     17  O   UNL     1       0.410   5.625  -4.967  0.00  0.00    +0.000 OA
ATOM     18  H   UNL     1       1.374   5.467  -4.903  0.00  0.00    +0.000 HD
ENDBRANCH  15  17
ENDBRANCH  14  15
ENDBRANCH   1  14
TORSDOF 7
ENDMDL
MODEL 9
REMARK VINA RESULT:    -3.962      1.530      3.309
REMARK INTER + INTRA:          -5.989
REMARK INTER:                  -5.438
REMARK INTRA:                  -0.552
REMARK UNBOUND:                -0.638
REMARK  Name = 
REMARK  10 active torsions:
REMARK  status: ('A' for Active; 'I' for Inactive)
REMARK    1  A    between atoms: C_1  and  C_2
REMARK    2  A    between atoms: C_5  and  N_8
REMARK    3  A    between atoms: N_8  and  C_9
REMARK    4  A    between atoms: N_8  and  C_13
REMARK    5  A    between atoms: C_9  and  C_10
REMARK    6  A    between atoms: C_10  and  C_11
REMARK    7  A    between atoms: C_10  and  O_12
REMARK    8  A    between atoms: C_13  and  C_14
REMARK    9  A    between atoms: C_14  and  C_15
REMARK   10  A    between atoms: C_14  and  O_16
REMARK                            x       y       z     vdW  Elec       q    Type
REMARK                         _______ _______ _______ _____ _____    ______ ____
ROOT
ATOM      1  N   UNL     1       3.672   6.813 -13.582  0.00  0.00    +0.000 N 
ENDROOT
BRANCH   1   6
ATOM      2  C   UNL     1       7.645   2.648 -13.140  0.00  0.00    +0.000 C 
ATOM      3  C   UNL     1       6.628   3.743 -13.239  0.00  0.00    +0.000 A 
ATOM      4  C   UNL     1       5.537   3.785 -12.377  0.00  0.00    +0.000 A 
ATOM      5  C   UNL     1       4.570   4.797 -12.494  0.00  0.00    +0.000 A 
ATOM      6  C   UNL     1       4.629   5.796 -13.483  0.00  0.00    +0.000 A 
ATOM      7  C   UNL     1       5.746   5.723 -14.336  0.00  0.00    +0.000 A 
ATOM      8  C   UNL     1       6.721   4.718 -14.228  0.00  0.00    +0.000 A 
ENDBRANCH   1   6
BRANCH   1   9
ATOM      9  C   UNL     1       3.295   7.598 -12.381  0.00  0.00    +0.000 C 
BRANCH   9  10
ATOM     10  C   UNL     1       4.462   8.455 -11.834  0.00  0.00    +0.000 C 
ATOM     11  C   UNL     1       4.701   9.677 -12.713  0.00  0.00    +0.000 C 
BRANCH  10  12
ATOM     12  O   UNL     1       4.184   8.913 -10.503  0.00  0.00    +0.000 OA
ATOM     13  H   UNL     1       3.624   8.250 -10.067  0.00  0.00    +0.000 HD
ENDBRANCH  10  12
ENDBRANCH   9  10
ENDBRANCH   1   9
BRANCH   1  14
ATOM     14  C   UNL     1       2.664   6.817 -14.673  0.00  0.00    +0.000 C 
BRANCH  14  15
ATOM     15  C   UNL     1       3.068   7.751 -15.839  0.00  0.00    +0.000 C 
ATOM     16  C   UNL     1       2.770   7.159 -17.211  0.00  0.00    +0.000 C 
BRANCH  15  17
ATOM     17  O   UNL     1       2.415   9.016 -15.752  0.00  0.00    +0.000 OA
ATOM     18  H   UNL     1       2.559   9.435 -16.625  0.00  0.00    +0.000 HD
ENDBRANCH  15  17
ENDBRANCH  14  15
ENDBRANCH   1  14
TORSDOF 7
ENDMDL
