MODEL 1
REMARK VINA RESULT:    -3.586      0.000      0.000
REMARK INTER + INTRA:          -5.540
REMARK INTER:                  -4.843
REMARK INTRA:                  -0.697
REMARK UNBOUND:                -0.697
REMARK  Name = 
REMARK  10 active torsions:
REMARK  status: ('A' for Active; 'I' for Inactive)
REMARK    1  A    between atoms: C_1  and  C_2
REMARK    2  A    between atoms: C_5  and  N_8
REMARK    3  A    between atoms: N_8  and  C_9
REMARK    4  A    between atoms: N_8  and  C_13
REMARK    5  A    between atoms: C_9  and  C_10
REMARK    6  A    between atoms: C_10  and  C_11
REMARK    7  A    between atoms: C_10  and  O_12
REMARK    8  A    between atoms: C_13  and  C_14
REMARK    9  A    between atoms: C_14  and  C_15
REMARK   10  A    between atoms: C_14  and  O_16
REMARK                            x       y       z     vdW  Elec       q    Type
REMARK                         _______ _______ _______ _____ _____    ______ ____
ROOT
ATOM      1  N   UNL     1       8.143  16.044  -1.605  0.00  0.00    +0.000 N 
ENDROOT
BRANCH   1   6
ATOM      2  C   UNL     1      12.765  18.180  -4.326  0.00  0.00    +0.000 C 
ATOM      3  C   UNL     1      11.567  17.605  -3.634  0.00  0.00    +0.000 A 
ATOM      4  C   UNL     1      10.281  17.870  -4.094  0.00  0.00    +0.000 A 
ATOM      5  C   UNL     1       9.161  17.353  -3.424  0.00  0.00    +0.000 A 
ATOM      6  C   UNL     1       9.264  16.573  -2.258  0.00  0.00    +0.000 A 
ATOM      7  C   UNL     1      10.579  16.324  -1.822  0.00  0.00    +0.000 A 
ATOM      8  C   UNL     1      11.708  16.833  -2.485  0.00  0.00    +0.000 A 
ENDBRANCH   1   6
BRANCH   1   9
ATOM      9  C   UNL     1       7.907  16.343  -0.172  0.00  0.00    +0.000 C 
BRANCH   9  10
ATOM     10  C   UNL     1       8.275  15.160   0.756  0.00  0.00    +0.000 C 
ATOM     11  C   UNL     1       9.229  15.608   1.858  0.00  0.00    +0.000 C 
BRANCH  10  12
ATOM     12  O   UNL     1       7.106  14.610   1.378  0.00  0.00    +0.000 OA
ATOM     13  H   UNL     1       6.343  15.155   1.120  0.00  0.00    +0.000 HD
ENDBRANCH  10  12
ENDBRANCH   9  10
ENDBRANCH   1   9
BRANCH   1  14
ATOM     14  C   UNL     1       7.467  14.820  -2.107  0.00  0.00    +0.000 C 
BRANCH  14  15
ATOM     15  C   UNL     1       5.926  14.963  -2.109  0.00  0.00    +0.000 C 
ATOM     16  C   UNL     1       5.290  14.579  -3.439  0.00  0.00    +0.000 C 
BRANCH  15  17
ATOM     17  O   UNL     1       5.323  14.171  -1.086  0.00  0.00    +0.000 OA
ATOM     18  H   UNL     1       5.516  13.245  -1.336  0.00  0.00    +0.000 HD
ENDBRANCH  15  17
ENDBRANCH  14  15
ENDBRANCH   1  14
TORSDOF 7
ENDMDL
MODEL 2
REMARK VINA RESULT:    -3.576      5.573      8.674
REMARK INTER + INTRA:          -5.527
REMARK INTER:                  -5.223
REMARK INTRA:                  -0.304
REMARK UNBOUND:                -0.697
REMARK  Name = 
REMARK  10 active torsions:
REMARK  status: ('A' for Active; 'I' for Inactive)
REMARK    1  A    between atoms: C_1  and  C_2
REMARK    2  A    between atoms: C_5  and  N_8
REMARK    3  A    between atoms: N_8  and  C_9
REMARK    4  A    between atoms: N_8  and  C_13
REMARK    5  A    between atoms: C_9  and  C_10
REMARK    6  A    between atoms: C_10  and  C_11
REMARK    7  A    between atoms: C_10  and  O_12
REMARK    8  A    between atoms: C_13  and  C_14
REMARK    9  A    between atoms: C_14  and  C_15
REMARK   10  A    between atoms: C_14  and  O_16
REMARK                            x       y       z     vdW  Elec       q    Type
REMARK                         _______ _______ _______ _____ _____    ______ ____
ROOT
ATOM      1  N   UNL     1       7.283  14.431   6.820  0.00  0.00    +0.000 N 
ENDROOT
BRANCH   1   6
ATOM      2  C   UNL     1       8.280  15.027   1.165  0.00  0.00    +0.000 C 
ATOM      3  C   UNL     1       7.997  14.870   2.628  0.00  0.00    +0.000 A 
ATOM      4  C   UNL     1       7.746  15.978   3.430  0.00  0.00    +0.000 A 
ATOM      5  C   UNL     1       7.511  15.827   4.807  0.00  0.00    +0.000 A 
ATOM      6  C   UNL     1       7.537  14.577   5.451  0.00  0.00    +0.000 A 
ATOM      7  C   UNL     1       7.792  13.479   4.609  0.00  0.00    +0.000 A 
ATOM      8  C   UNL     1       8.027  13.615   3.230  0.00  0.00    +0.000 A 
ENDBRANCH   1   6
BRANCH   1   9
ATOM      9  C   UNL     1       5.935  14.729   7.362  0.00  0.00    +0.000 C 
BRANCH   9  10
ATOM     10  C   UNL     1       5.079  13.456   7.573  0.00  0.00    +0.000 C 
ATOM     11  C   UNL     1       4.539  13.392   8.996  0.00  0.00    +0.000 C 
BRANCH  10  12
ATOM     12  O   UNL     1       3.963  13.431   6.672  0.00  0.00    +0.000 OA
ATOM     13  H   UNL     1       3.910  12.542   6.283  0.00  0.00    +0.000 HD
ENDBRANCH  10  12
ENDBRANCH   9  10
ENDBRANCH   1   9
BRANCH   1  14
ATOM     14  C   UNL     1       8.383  14.490   7.817  0.00  0.00    +0.000 C 
BRANCH  14  15
ATOM     15  C   UNL     1       9.770  14.644   7.148  0.00  0.00    +0.000 C 
ATOM     16  C   UNL     1      10.427  15.989   7.433  0.00  0.00    +0.000 C 
BRANCH  15  17
ATOM     17  O   UNL     1      10.671  13.617   7.560  0.00  0.00    +0.000 OA
ATOM     18  H   UNL     1      10.718  13.003   6.800  0.00  0.00    +0.000 HD
ENDBRANCH  15  17
ENDBRANCH  14  15
ENDBRANCH   1  14
TORSDOF 7
ENDMDL
MODEL 3
REMARK VINA RESULT:    -3.545      6.502      9.827
REMARK INTER + INTRA:          -5.485
REMARK INTER:                  -5.134
REMARK INTRA:                  -0.351
REMARK UNBOUND:                -0.697
REMARK  Name = 
REMARK  10 active torsions:
REMARK  status: ('A' for Active; 'I' for Inactive)
REMARK    1  A    between atoms: C_1  and  C_2
REMARK    2  A    between atoms: C_5  and  N_8
REMARK    3  A    between atoms: N_8  and  C_9
REMARK    4  A    between atoms: N_8  and  C_13
REMARK    5  A    between atoms: C_9  and  C_10
REMARK    6  A    between atoms: C_10  and  C_11
REMARK    7  A    between atoms: C_10  and  O_12
REMARK    8  A    between atoms: C_13  and  C_14
REMARK    9  A    between atoms: C_14  and  C_15
REMARK   10  A    between atoms: C_14  and  O_16
REMARK                            x       y       z     vdW  Elec       q    Type
REMARK                         _______ _______ _______ _____ _____    ______ ____
ROOT
ATOM      1  N   UNL     1       7.503  14.318   6.607  0.00  0.00    +0.000 N 
ENDROOT
BRANCH   1   6
ATOM      2  C   UNL     1      11.970  14.398  10.263  0.00  0.00    +0.000 C 
ATOM      3  C   UNL     1      10.812  14.352   9.313  0.00  0.00    +0.000 A 
ATOM      4  C   UNL     1      11.010  14.457   7.941  0.00  0.00    +0.000 A 
ATOM      5  C   UNL     1       9.919  14.444   7.057  0.00  0.00    +0.000 A 
ATOM      6  C   UNL     1       8.585  14.350   7.495  0.00  0.00    +0.000 A 
ATOM      7  C   UNL     1       8.423  14.244   8.888  0.00  0.00    +0.000 A 
ATOM      8  C   UNL     1       9.506  14.253   9.783  0.00  0.00    +0.000 A 
ENDBRANCH   1   6
BRANCH   1   9
ATOM      9  C   UNL     1       6.141  14.661   7.082  0.00  0.00    +0.000 C 
BRANCH   9  10
ATOM     10  C   UNL     1       5.263  13.412   7.340  0.00  0.00    +0.000 C 
ATOM     11  C   UNL     1       4.775  13.378   8.783  0.00  0.00    +0.000 C 
BRANCH  10  12
ATOM     12  O   UNL     1       4.114  13.404   6.481  0.00  0.00    +0.000 OA
ATOM     13  H   UNL     1       3.560  14.168   6.713  0.00  0.00    +0.000 HD
ENDBRANCH  10  12
ENDBRANCH   9  10
ENDBRANCH   1   9
BRANCH   1  14
ATOM     14  C   UNL     1       7.544  13.490   5.374  0.00  0.00    +0.000 C 
BRANCH  14  15
ATOM     15  C   UNL     1       8.094  14.276   4.160  0.00  0.00    +0.000 C 
ATOM     16  C   UNL     1       8.382  13.391   2.953  0.00  0.00    +0.000 C 
BRANCH  15  17
ATOM     17  O   UNL     1       7.197  15.307   3.749  0.00  0.00    +0.000 OA
ATOM     18  H   UNL     1       7.472  15.532   2.837  0.00  0.00    +0.000 HD
ENDBRANCH  15  17
ENDBRANCH  14  15
ENDBRANCH   1  14
TORSDOF 7
ENDMDL
MODEL 4
REMARK VINA RESULT:    -3.509      5.800      8.568
REMARK INTER + INTRA:          -5.437
REMARK INTER:                  -5.004
REMARK INTRA:                  -0.432
REMARK UNBOUND:                -0.697
REMARK  Name = 
REMARK  10 active torsions:
REMARK  status: ('A' for Active; 'I' for Inactive)
REMARK    1  A    between atoms: C_1  and  C_2
REMARK    2  A    between atoms: C_5  and  N_8
REMARK    3  A    between atoms: N_8  and  C_9
REMARK    4  A    between atoms: N_8  and  C_13
REMARK    5  A    between atoms: C_9  and  C_10
REMARK    6  A    between atoms: C_10  and  C_11
REMARK    7  A    between atoms: C_10  and  O_12
REMARK    8  A    between atoms: C_13  and  C_14
REMARK    9  A    between atoms: C_14  and  C_15
REMARK   10  A    between atoms: C_14  and  O_16
REMARK                            x       y       z     vdW  Elec       q    Type
REMARK                         _______ _______ _______ _____ _____    ______ ____
ROOT
ATOM      1  N   UNL     1       7.140  14.887   7.034  0.00  0.00    +0.000 N 
ENDROOT
BRANCH   1   6
ATOM      2  C   UNL     1       8.327  14.850   1.384  0.00  0.00    +0.000 C 
ATOM      3  C   UNL     1       7.994  14.855   2.845  0.00  0.00    +0.000 A 
ATOM      4  C   UNL     1       7.683  16.041   3.502  0.00  0.00    +0.000 A 
ATOM      5  C   UNL     1       7.402  16.044   4.878  0.00  0.00    +0.000 A 
ATOM      6  C   UNL     1       7.440  14.879   5.666  0.00  0.00    +0.000 A 
ATOM      7  C   UNL     1       7.757  13.699   4.968  0.00  0.00    +0.000 A 
ATOM      8  C   UNL     1       8.038  13.682   3.592  0.00  0.00    +0.000 A 
ENDBRANCH   1   6
BRANCH   1   9
ATOM      9  C   UNL     1       8.087  14.290   8.006  0.00  0.00    +0.000 C 
BRANCH   9  10
ATOM     10  C   UNL     1       9.528  14.835   7.853  0.00  0.00    +0.000 C 
ATOM     11  C   UNL     1      10.061  15.349   9.185  0.00  0.00    +0.000 C 
BRANCH  10  12
ATOM     12  O   UNL     1      10.418  13.813   7.383  0.00  0.00    +0.000 OA
ATOM     13  H   UNL     1      10.415  13.089   8.031  0.00  0.00    +0.000 HD
ENDBRANCH  10  12
ENDBRANCH   9  10
ENDBRANCH   1   9
BRANCH   1  14
ATOM     14  C   UNL     1       5.738  14.993   7.512  0.00  0.00    +0.000 C 
BRANCH  14  15
ATOM     15  C   UNL     1       5.067  13.607   7.669  0.00  0.00    +0.000 C 
ATOM     16  C   UNL     1       4.468  13.383   9.053  0.00  0.00    +0.000 C 
BRANCH  15  17
ATOM     17  O   UNL     1       4.036  13.408   6.704  0.00  0.00    +0.000 OA
ATOM     18  H   UNL     1       3.509  14.232   6.722  0.00  0.00    +0.000 HD
ENDBRANCH  15  17
ENDBRANCH  14  15
ENDBRANCH   1  14
TORSDOF 7
ENDMDL
MODEL 5
REMARK VINA RESULT:    -3.504      0.360      3.265
REMARK INTER + INTRA:          -5.430
REMARK INTER:                  -4.739
REMARK INTRA:                  -0.691
REMARK UNBOUND:                -0.697
REMARK  Name = 
REMARK  10 active torsions:
REMARK  status: ('A' for Active; 'I' for Inactive)
REMARK    1  A    between atoms: C_1  and  C_2
REMARK    2  A    between atoms: C_5  and  N_8
REMARK    3  A    between atoms: N_8  and  C_9
REMARK    4  A    between atoms: N_8  and  C_13
REMARK    5  A    between atoms: C_9  and  C_10
REMARK    6  A    between atoms: C_10  and  C_11
REMARK    7  A    between atoms: C_10  and  O_12
REMARK    8  A    between atoms: C_13  and  C_14
REMARK    9  A    between atoms: C_14  and  C_15
REMARK   10  A    between atoms: C_14  and  O_16
REMARK                            x       y       z     vdW  Elec       q    Type
REMARK                         _______ _______ _______ _____ _____    ______ ____
ROOT
ATOM      1  N   UNL     1       8.344  15.725  -1.521  0.00  0.00    +0.000 N 
ENDROOT
BRANCH   1   6
ATOM      2  C   UNL     1      12.555  18.405  -4.422  0.00  0.00    +0.000 C 
ATOM      3  C   UNL     1      11.459  17.730  -3.655  0.00  0.00    +0.000 A 
ATOM      4  C   UNL     1      11.743  16.958  -2.534  0.00  0.00    +0.000 A 
ATOM      5  C   UNL     1      10.715  16.303  -1.836  0.00  0.00    +0.000 A 
ATOM      6  C   UNL     1       9.367  16.365  -2.232  0.00  0.00    +0.000 A 
ATOM      7  C   UNL     1       9.116  17.156  -3.369  0.00  0.00    +0.000 A 
ATOM      8  C   UNL     1      10.135  17.818  -4.074  0.00  0.00    +0.000 A 
ENDBRANCH   1   6
BRANCH   1   9
ATOM      9  C   UNL     1       7.359  14.878  -2.235  0.00  0.00    +0.000 C 
BRANCH   9  10
ATOM     10  C   UNL     1       5.894  15.230  -1.878  0.00  0.00    +0.000 C 
ATOM     11  C   UNL     1       5.064  15.454  -3.137  0.00  0.00    +0.000 C 
BRANCH  10  12
ATOM     12  O   UNL     1       5.281  14.176  -1.123  0.00  0.00    +0.000 OA
ATOM     13  H   UNL     1       4.686  14.581  -0.469  0.00  0.00    +0.000 HD
ENDBRANCH  10  12
ENDBRANCH   9  10
ENDBRANCH   1   9
BRANCH   1  14
ATOM     14  C   UNL     1       7.888  16.236  -0.203  0.00  0.00    +0.000 C 
BRANCH  14  15
ATOM     15  C   UNL     1       8.265  15.282   0.956  0.00  0.00    +0.000 C 
ATOM     16  C   UNL     1       8.786  16.012   2.189  0.00  0.00    +0.000 C 
BRANCH  15  17
ATOM     17  O   UNL     1       7.159  14.474   1.355  0.00  0.00    +0.000 OA
ATOM     18  H   UNL     1       7.047  13.824   0.632  0.00  0.00    +0.000 HD
ENDBRANCH  15  17
ENDBRANCH  14  15
ENDBRANCH   1  14
TORSDOF 7
ENDMDL
MODEL 6
REMARK VINA RESULT:    -3.436      3.208      5.175
REMARK INTER + INTRA:          -5.339
REMARK INTER:                  -4.658
REMARK INTRA:                  -0.681
REMARK UNBOUND:                -0.697
REMARK  Name = 
REMARK  10 active torsions:
REMARK  status: ('A' for Active; 'I' for Inactive)
REMARK    1  A    between atoms: C_1  and  C_2
REMARK    2  A    between atoms: C_5  and  N_8
REMARK    3  A    between atoms: N_8  and  C_9
REMARK    4  A    between atoms: N_8  and  C_13
REMARK    5  A    between atoms: C_9  and  C_10
REMARK    6  A    between atoms: C_10  and  C_11
REMARK    7  A    between atoms: C_10  and  O_12
REMARK    8  A    between atoms: C_13  and  C_14
REMARK    9  A    between atoms: C_14  and  C_15
REMARK   10  A    between atoms: C_14  and  O_16
REMARK                            x       y       z     vdW  Elec       q    Type
REMARK                         _______ _______ _______ _____ _____    ______ ____
ROOT
ATOM      1  N   UNL     1       6.295  15.334  -3.947  0.00  0.00    +0.000 N 
ENDROOT
BRANCH   1   6
ATOM      2  C   UNL     1       6.593  17.192  -9.405  0.00  0.00    +0.000 C 
ATOM      3  C   UNL     1       6.524  16.732  -7.981  0.00  0.00    +0.000 A 
ATOM      4  C   UNL     1       7.607  16.100  -7.381  0.00  0.00    +0.000 A 
ATOM      5  C   UNL     1       7.526  15.644  -6.055  0.00  0.00    +0.000 A 
ATOM      6  C   UNL     1       6.362  15.774  -5.275  0.00  0.00    +0.000 A 
ATOM      7  C   UNL     1       5.288  16.420  -5.914  0.00  0.00    +0.000 A 
ATOM      8  C   UNL     1       5.356  16.882  -7.238  0.00  0.00    +0.000 A 
ENDBRANCH   1   6
BRANCH   1   9
ATOM      9  C   UNL     1       5.184  14.455  -3.511  0.00  0.00    +0.000 C 
BRANCH   9  10
ATOM     10  C   UNL     1       4.501  14.951  -2.213  0.00  0.00    +0.000 C 
ATOM     11  C   UNL     1       2.984  14.955  -2.362  0.00  0.00    +0.000 C 
BRANCH  10  12
ATOM     12  O   UNL     1       4.835  14.109  -1.101  0.00  0.00    +0.000 OA
ATOM     13  H   UNL     1       4.367  13.264  -1.211  0.00  0.00    +0.000 HD
ENDBRANCH  10  12
ENDBRANCH   9  10
ENDBRANCH   1   9
BRANCH   1  14
ATOM     14  C   UNL     1       6.963  16.086  -2.854  0.00  0.00    +0.000 C 
BRANCH  14  15
ATOM     15  C   UNL     1       8.174  15.318  -2.272  0.00  0.00    +0.000 C 
ATOM     16  C   UNL     1       9.367  16.219  -1.973  0.00  0.00    +0.000 C 
BRANCH  15  17
ATOM     17  O   UNL     1       7.833  14.625  -1.073  0.00  0.00    +0.000 OA
ATOM     18  H   UNL     1       6.900  14.354  -1.195  0.00  0.00    +0.000 HD
ENDBRANCH  15  17
ENDBRANCH  14  15
ENDBRANCH   1  14
TORSDOF 7
ENDMDL
MODEL 7
REMARK VINA RESULT:    -3.404      2.833      3.940
REMARK INTER + INTRA:          -5.295
REMARK INTER:                  -4.648
REMARK INTRA:                  -0.647
REMARK UNBOUND:                -0.697
REMARK  Name = 
REMARK  10 active torsions:
REMARK  status: ('A' for Active; 'I' for Inactive)
REMARK    1  A    between atoms: C_1  and  C_2
REMARK    2  A    between atoms: C_5  and  N_8
REMARK    3  A    between atoms: N_8  and  C_9
REMARK    4  A    between atoms: N_8  and  C_13
REMARK    5  A    between atoms: C_9  and  C_10
REMARK    6  A    between atoms: C_10  and  C_11
REMARK    7  A    between atoms: C_10  and  O_12
REMARK    8  A    between atoms: C_13  and  C_14
REMARK    9  A    between atoms: C_14  and  C_15
REMARK   10  A    between atoms: C_14  and  O_16
REMARK                            x       y       z     vdW  Elec       q    Type
REMARK                         _______ _______ _______ _____ _____    ______ ____
ROOT
ATOM      1  N   UNL     1       6.372  15.801  -3.808  0.00  0.00    +0.000 N 
ENDROOT
BRANCH   1   6
ATOM      2  C   UNL     1       8.521  16.733  -9.084  0.00  0.00    +0.000 C 
ATOM      3  C   UNL     1       7.947  16.510  -7.718  0.00  0.00    +0.000 A 
ATOM      4  C   UNL     1       8.495  17.134  -6.603  0.00  0.00    +0.000 A 
ATOM      5  C   UNL     1       7.972  16.898  -5.321  0.00  0.00    +0.000 A 
ATOM      6  C   UNL     1       6.901  16.017  -5.086  0.00  0.00    +0.000 A 
ATOM      7  C   UNL     1       6.371  15.406  -6.237  0.00  0.00    +0.000 A 
ATOM      8  C   UNL     1       6.883  15.635  -7.525  0.00  0.00    +0.000 A 
ENDBRANCH   1   6
BRANCH   1   9
ATOM      9  C   UNL     1       7.077  16.326  -2.613  0.00  0.00    +0.000 C 
BRANCH   9  10
ATOM     10  C   UNL     1       8.241  15.415  -2.155  0.00  0.00    +0.000 C 
ATOM     11  C   UNL     1       9.478  16.239  -1.818  0.00  0.00    +0.000 C 
BRANCH  10  12
ATOM     12  O   UNL     1       7.878  14.663  -0.989  0.00  0.00    +0.000 OA
ATOM     13  H   UNL     1       8.695  14.367  -0.554  0.00  0.00    +0.000 HD
ENDBRANCH  10  12
ENDBRANCH   9  10
ENDBRANCH   1   9
BRANCH   1  14
ATOM     14  C   UNL     1       5.445  14.672  -3.539  0.00  0.00    +0.000 C 
BRANCH  14  15
ATOM     15  C   UNL     1       4.586  14.909  -2.274  0.00  0.00    +0.000 C 
ATOM     16  C   UNL     1       3.088  14.807  -2.539  0.00  0.00    +0.000 C 
BRANCH  15  17
ATOM     17  O   UNL     1       4.914  13.990  -1.234  0.00  0.00    +0.000 OA
ATOM     18  H   UNL     1       5.064  13.136  -1.689  0.00  0.00    +0.000 HD
ENDBRANCH  15  17
ENDBRANCH  14  15
ENDBRANCH   1  14
TORSDOF 7
ENDMDL
MODEL 8
REMARK VINA RESULT:    -3.392      2.498      4.927
REMARK INTER + INTRA:          -5.279
REMARK INTER:                  -4.546
REMARK INTRA:                  -0.734
REMARK UNBOUND:                -0.697
REMARK  Name = 
REMARK  10 active torsions:
REMARK  status: ('A' for Active; 'I' for Inactive)
REMARK    1  A    between atoms: C_1  and  C_2
REMARK    2  A    between atoms: C_5  and  N_8
REMARK    3  A    between atoms: N_8  and  C_9
REMARK    4  A    between atoms: N_8  and  C_13
REMARK    5  A    between atoms: C_9  and  C_10
REMARK    6  A    between atoms: C_10  and  C_11
REMARK    7  A    between atoms: C_10  and  O_12
REMARK    8  A    between atoms: C_13  and  C_14
REMARK    9  A    between atoms: C_14  and  C_15
REMARK   10  A    between atoms: C_14  and  O_16
REMARK                            x       y       z     vdW  Elec       q    Type
REMARK                         _______ _______ _______ _____ _____    ______ ____
ROOT
ATOM      1  N   UNL     1       9.839  16.831  -0.137  0.00  0.00    +0.000 N 
ENDROOT
BRANCH   1   6
ATOM      2  C   UNL     1       5.620  14.445  -3.272  0.00  0.00    +0.000 C 
ATOM      3  C   UNL     1       6.706  15.087  -2.464  0.00  0.00    +0.000 A 
ATOM      4  C   UNL     1       7.946  15.367  -3.029  0.00  0.00    +0.000 A 
ATOM      5  C   UNL     1       8.970  15.941  -2.260  0.00  0.00    +0.000 A 
ATOM      6  C   UNL     1       8.820  16.241  -0.894  0.00  0.00    +0.000 A 
ATOM      7  C   UNL     1       7.553  15.947  -0.356  0.00  0.00    +0.000 A 
ATOM      8  C   UNL     1       6.519  15.375  -1.115  0.00  0.00    +0.000 A 
ENDBRANCH   1   6
BRANCH   1   9
ATOM      9  C   UNL     1       9.578  17.256   1.259  0.00  0.00    +0.000 C 
BRANCH   9  10
ATOM     10  C   UNL     1      10.053  16.215   2.302  0.00  0.00    +0.000 C 
ATOM     11  C   UNL     1       8.967  15.944   3.336  0.00  0.00    +0.000 C 
BRANCH  10  12
ATOM     12  O   UNL     1      10.388  14.971   1.672  0.00  0.00    +0.000 OA
ATOM     13  H   UNL     1      11.181  15.112   1.129  0.00  0.00    +0.000 HD
ENDBRANCH  10  12
ENDBRANCH   9  10
ENDBRANCH   1   9
BRANCH   1  14
ATOM     14  C   UNL     1      10.989  17.509  -0.791  0.00  0.00    +0.000 C 
BRANCH  14  15
ATOM     15  C   UNL     1      12.308  16.718  -0.619  0.00  0.00    +0.000 C 
ATOM     16  C   UNL     1      13.123  17.167   0.588  0.00  0.00    +0.000 C 
BRANCH  15  17
ATOM     17  O   UNL     1      12.070  15.316  -0.494  0.00  0.00    +0.000 OA
ATOM     18  H   UNL     1      11.261  15.245   0.052  0.00  0.00    +0.000 HD
ENDBRANCH  15  17
ENDBRANCH  14  15
ENDBRANCH   1  14
TORSDOF 7
ENDMDL
MODEL 9
REMARK VINA RESULT:    -3.368      2.962      5.014
REMARK INTER + INTRA:          -5.247
REMARK INTER:                  -4.541
REMARK INTRA:                  -0.706
REMARK UNBOUND:                -0.697
REMARK  Name = 
REMARK  10 active torsions:
REMARK  status: ('A' for Active; 'I' for Inactive)
REMARK    1  A    between atoms: C_1  and  C_2
REMARK    2  A    between atoms: C_5  and  N_8
REMARK    3  A    between atoms: N_8  and  C_9
REMARK    4  A    between atoms: N_8  and  C_13
REMARK    5  A    between atoms: C_9  and  C_10
REMARK    6  A    between atoms: C_10  and  C_11
REMARK    7  A    between atoms: C_10  and  O_12
REMARK    8  A    between atoms: C_13  and  C_14
REMARK    9  A    between atoms: C_14  and  C_15
REMARK   10  A    between atoms: C_14  and  O_16
REMARK                            x       y       z     vdW  Elec       q    Type
REMARK                         _______ _______ _______ _____ _____    ______ ____
ROOT
ATOM      1  N   UNL     1       8.687  16.172   1.705  0.00  0.00    +0.000 N 
ENDROOT
BRANCH   1   6
ATOM      2  C   UNL     1      14.255  17.569   2.319  0.00  0.00    +0.000 C 
ATOM      3  C   UNL     1      12.805  17.231   2.160  0.00  0.00    +0.000 A 
ATOM      4  C   UNL     1      12.006  16.972   3.269  0.00  0.00    +0.000 A 
ATOM      5  C   UNL     1      10.654  16.627   3.113  0.00  0.00    +0.000 A 
ATOM      6  C   UNL     1      10.041  16.499   1.853  0.00  0.00    +0.000 A 
ATOM      7  C   UNL     1      10.878  16.769   0.754  0.00  0.00    +0.000 A 
ATOM      8  C   UNL     1      12.231  17.118   0.897  0.00  0.00    +0.000 A 
ENDBRANCH   1   6
BRANCH   1   9
ATOM      9  C   UNL     1       7.898  16.761   0.597  0.00  0.00    +0.000 C 
BRANCH   9  10
ATOM     10  C   UNL     1       7.243  15.690  -0.309  0.00  0.00    +0.000 C 
ATOM     11  C   UNL     1       7.050  16.218  -1.726  0.00  0.00    +0.000 C 
BRANCH  10  12
ATOM     12  O   UNL     1       8.056  14.511  -0.381  0.00  0.00    +0.000 OA
ATOM     13  H   UNL     1       8.675  14.525   0.367  0.00  0.00    +0.000 HD
ENDBRANCH  10  12
ENDBRANCH   9  10
ENDBRANCH   1   9
BRANCH   1  14
ATOM     14  C   UNL     1       7.883  15.687   2.855  0.00  0.00    +0.000 C 
BRANCH  14  15
ATOM     15  C   UNL     1       8.024  14.160   3.064  0.00  0.00    +0.000 C 
ATOM     16  C   UNL     1       7.980  13.748   4.530  0.00  0.00    +0.000 C 
BRANCH  15  17
ATOM     17  O   UNL     1       7.006  13.437   2.371  0.00  0.00    +0.000 OA
ATOM     18  H   UNL     1       6.630  12.828   3.038  0.00  0.00    +0.000 HD
ENDBRANCH  15  17
ENDBRANCH  14  15
ENDBRANCH   1  14
TORSDOF 7
ENDMDL
