MODEL 1
REMARK VINA RESULT:    -3.192      0.000      0.000
REMARK INTER + INTRA:          -3.515
REMARK INTER:                  -3.472
REMARK INTRA:                  -0.043
REMARK UNBOUND:                -0.043
REMARK  Name = 
REMARK  3 active torsions:
REMARK  status: ('A' for Active; 'I' for Inactive)
REMARK    1  A    between atoms: C_1  and  O_2
REMARK    2  A    between atoms: O_2  and  C_3
REMARK    3  A    between atoms: C_8  and  O_9
REMARK                            x       y       z     vdW  Elec       q    Type
REMARK                         _______ _______ _______ _____ _____    ______ ____
ROOT
ATOM      1  C   UNL     1       7.946  13.128   3.833  0.00  0.00    +0.000 A 
ATOM      2  C   UNL     1       7.915  13.970   4.944  0.00  0.00    +0.000 A 
ATOM      3  C   UNL     1       6.997  13.734   5.975  0.00  0.00    +0.000 A 
ATOM      4  C   UNL     1       6.108  12.660   5.900  0.00  0.00    +0.000 A 
ATOM      5  C   UNL     1       6.134  11.814   4.793  0.00  0.00    +0.000 A 
ATOM      6  C   UNL     1       7.047  12.056   3.775  0.00  0.00    +0.000 A 
ENDROOT
BRANCH   1   8
ATOM      7  C   UNL     1       9.131  14.559   2.351  0.00  0.00    +0.000 C 
ATOM      8  O   UNL     1       8.787  13.239   2.754  0.00  0.00    +0.000 OA
ENDBRANCH   1   8
BRANCH   6   9
ATOM      9  O   UNL     1       7.053  11.211   2.698  0.00  0.00    +0.000 OA
ATOM     10  H   UNL     1       6.648  10.386   3.027  0.00  0.00    +0.000 HD
ENDBRANCH   6   9
TORSDOF 2
ENDMDL
MODEL 2
REMARK VINA RESULT:    -3.174      2.112      3.204
REMARK INTER + INTRA:          -3.495
REMARK INTER:                  -3.452
REMARK INTRA:                  -0.043
REMARK UNBOUND:                -0.043
REMARK  Name = 
REMARK  3 active torsions:
REMARK  status: ('A' for Active; 'I' for Inactive)
REMARK    1  A    between atoms: C_1  and  O_2
REMARK    2  A    between atoms: O_2  and  C_3
REMARK    3  A    between atoms: C_8  and  O_9
REMARK                            x       y       z     vdW  Elec       q    Type
REMARK                         _______ _______ _______ _____ _____    ______ ____
ROOT
ATOM      1  C   UNL     1       7.476  13.748   5.575  0.00  0.00    +0.000 A 
ATOM      2  C   UNL     1       8.444  14.493   4.902  0.00  0.00    +0.000 A 
ATOM      3  C   UNL     1       8.792  14.162   3.586  0.00  0.00    +0.000 A 
ATOM      4  C   UNL     1       8.176  13.089   2.940  0.00  0.00    +0.000 A 
ATOM      5  C   UNL     1       7.208  12.340   3.605  0.00  0.00    +0.000 A 
ATOM      6  C   UNL     1       6.869  12.675   4.910  0.00  0.00    +0.000 A 
ENDROOT
BRANCH   1   8
ATOM      7  C   UNL     1       8.021  14.368   7.803  0.00  0.00    +0.000 C 
ATOM      8  O   UNL     1       7.040  13.957   6.859  0.00  0.00    +0.000 OA
ENDBRANCH   1   8
BRANCH   6   9
ATOM      9  O   UNL     1       5.915  11.925   5.544  0.00  0.00    +0.000 OA
ATOM     10  H   UNL     1       5.319  11.626   4.830  0.00  0.00    +0.000 HD
ENDBRANCH   6   9
TORSDOF 2
ENDMDL
MODEL 3
REMARK VINA RESULT:    -3.163      1.682      3.235
REMARK INTER + INTRA:          -3.483
REMARK INTER:                  -3.444
REMARK INTRA:                  -0.039
REMARK UNBOUND:                -0.043
REMARK  Name = 
REMARK  3 active torsions:
REMARK  status: ('A' for Active; 'I' for Inactive)
REMARK    1  A    between atoms: C_1  and  O_2
REMARK    2  A    between atoms: O_2  and  C_3
REMARK    3  A    between atoms: C_8  and  O_9
REMARK                            x       y       z     vdW  Elec       q    Type
REMARK                         _______ _______ _______ _____ _____    ______ ____
ROOT
ATOM      1  C   UNL     1       6.810  12.236   3.961  0.00  0.00    +0.000 A 
ATOM      2  C   UNL     1       7.784  12.717   3.088  0.00  0.00    +0.000 A 
ATOM      3  C   UNL     1       8.639  13.750   3.493  0.00  0.00    +0.000 A 
ATOM      4  C   UNL     1       8.522  14.306   4.769  0.00  0.00    +0.000 A 
ATOM      5  C   UNL     1       7.552  13.830   5.647  0.00  0.00    +0.000 A 
ATOM      6  C   UNL     1       6.709  12.805   5.236  0.00  0.00    +0.000 A 
ENDROOT
BRANCH   1   8
ATOM      7  C   UNL     1       6.414   9.905   3.724  0.00  0.00    +0.000 C 
ATOM      8  O   UNL     1       5.910  11.235   3.699  0.00  0.00    +0.000 OA
ENDBRANCH   1   8
BRANCH   6   9
ATOM      9  O   UNL     1       5.762  12.354   6.118  0.00  0.00    +0.000 OA
ATOM     10  H   UNL     1       5.511  11.472   5.783  0.00  0.00    +0.000 HD
ENDBRANCH   6   9
TORSDOF 2
ENDMDL
MODEL 4
REMARK VINA RESULT:    -2.988      6.970      8.041
REMARK INTER + INTRA:          -3.293
REMARK INTER:                  -3.241
REMARK INTRA:                  -0.052
REMARK UNBOUND:                -0.043
REMARK  Name = 
REMARK  3 active torsions:
REMARK  status: ('A' for Active; 'I' for Inactive)
REMARK    1  A    between atoms: C_1  and  O_2
REMARK    2  A    between atoms: O_2  and  C_3
REMARK    3  A    between atoms: C_8  and  O_9
REMARK                            x       y       z     vdW  Elec       q    Type
REMARK                         _______ _______ _______ _____ _____    ______ ____
ROOT
ATOM      1  C   UNL     1      12.665  13.414   9.819  0.00  0.00    +0.000 A 
ATOM      2  C   UNL     1      13.138  14.625  10.323  0.00  0.00    +0.000 A 
ATOM      3  C   UNL     1      13.732  15.556   9.463  0.00  0.00    +0.000 A 
ATOM      4  C   UNL     1      13.857  15.282   8.100  0.00  0.00    +0.000 A 
ATOM      5  C   UNL     1      13.388  14.074   7.588  0.00  0.00    +0.000 A 
ATOM      6  C   UNL     1      12.800  13.156   8.449  0.00  0.00    +0.000 A 
ENDROOT
BRANCH   1   8
ATOM      7  C   UNL     1      10.859  12.753  11.214  0.00  0.00    +0.000 C 
ATOM      8  O   UNL     1      12.065  12.413  10.541  0.00  0.00    +0.000 OA
ENDBRANCH   1   8
BRANCH   6   9
ATOM      9  O   UNL     1      12.346  11.976   7.923  0.00  0.00    +0.000 OA
ATOM     10  H   UNL     1      11.448  11.869   8.292  0.00  0.00    +0.000 HD
ENDBRANCH   6   9
TORSDOF 2
ENDMDL
MODEL 5
REMARK VINA RESULT:    -2.969     15.010     15.470
REMARK INTER + INTRA:          -3.272
REMARK INTER:                  -3.225
REMARK INTRA:                  -0.047
REMARK UNBOUND:                -0.043
REMARK  Name = 
REMARK  3 active torsions:
REMARK  status: ('A' for Active; 'I' for Inactive)
REMARK    1  A    between atoms: C_1  and  O_2
REMARK    2  A    between atoms: O_2  and  C_3
REMARK    3  A    between atoms: C_8  and  O_9
REMARK                            x       y       z     vdW  Elec       q    Type
REMARK                         _______ _______ _______ _____ _____    ______ ____
ROOT
ATOM      1  C   UNL     1      12.592  17.735  -9.578  0.00  0.00    +0.000 A 
ATOM      2  C   UNL     1      11.332  18.298  -9.382  0.00  0.00    +0.000 A 
ATOM      3  C   UNL     1      10.192  17.654  -9.878  0.00  0.00    +0.000 A 
ATOM      4  C   UNL     1      10.306  16.448 -10.572  0.00  0.00    +0.000 A 
ATOM      5  C   UNL     1      11.562  15.879 -10.773  0.00  0.00    +0.000 A 
ATOM      6  C   UNL     1      12.687  16.525 -10.277  0.00  0.00    +0.000 A 
ENDROOT
BRANCH   1   8
ATOM      7  C   UNL     1      13.832  18.721  -7.808  0.00  0.00    +0.000 C 
ATOM      8  O   UNL     1      13.788  18.253  -9.150  0.00  0.00    +0.000 OA
ENDBRANCH   1   8
BRANCH   6   9
ATOM      9  O   UNL     1      13.910  15.946 -10.486  0.00  0.00    +0.000 OA
ATOM     10  H   UNL     1      14.036  15.976 -11.454  0.00  0.00    +0.000 HD
ENDBRANCH   6   9
TORSDOF 2
ENDMDL
MODEL 6
REMARK VINA RESULT:    -2.946      1.866      2.483
REMARK INTER + INTRA:          -3.247
REMARK INTER:                  -3.207
REMARK INTRA:                  -0.040
REMARK UNBOUND:                -0.043
REMARK  Name = 
REMARK  3 active torsions:
REMARK  status: ('A' for Active; 'I' for Inactive)
REMARK    1  A    between atoms: C_1  and  O_2
REMARK    2  A    between atoms: O_2  and  C_3
REMARK    3  A    between atoms: C_8  and  O_9
REMARK                            x       y       z     vdW  Elec       q    Type
REMARK                         _______ _______ _______ _____ _____    ______ ____
ROOT
ATOM      1  C   UNL     1       7.567  13.458   5.312  0.00  0.00    +0.000 A 
ATOM      2  C   UNL     1       8.569  14.324   5.747  0.00  0.00    +0.000 A 
ATOM      3  C   UNL     1       8.454  14.959   6.990  0.00  0.00    +0.000 A 
ATOM      4  C   UNL     1       7.340  14.732   7.800  0.00  0.00    +0.000 A 
ATOM      5  C   UNL     1       6.335  13.868   7.372  0.00  0.00    +0.000 A 
ATOM      6  C   UNL     1       6.457  13.243   6.138  0.00  0.00    +0.000 A 
ENDROOT
BRANCH   1   8
ATOM      7  C   UNL     1       8.302  13.331   3.055  0.00  0.00    +0.000 C 
ATOM      8  O   UNL     1       7.547  12.772   4.124  0.00  0.00    +0.000 OA
ENDBRANCH   1   8
BRANCH   6   9
ATOM      9  O   UNL     1       5.456  12.398   5.739  0.00  0.00    +0.000 OA
ATOM     10  H   UNL     1       5.603  11.580   6.251  0.00  0.00    +0.000 HD
ENDBRANCH   6   9
TORSDOF 2
ENDMDL
MODEL 7
REMARK VINA RESULT:    -2.922      7.300      7.626
REMARK INTER + INTRA:          -3.221
REMARK INTER:                  -3.180
REMARK INTRA:                  -0.040
REMARK UNBOUND:                -0.043
REMARK  Name = 
REMARK  3 active torsions:
REMARK  status: ('A' for Active; 'I' for Inactive)
REMARK    1  A    between atoms: C_1  and  O_2
REMARK    2  A    between atoms: O_2  and  C_3
REMARK    3  A    between atoms: C_8  and  O_9
REMARK                            x       y       z     vdW  Elec       q    Type
REMARK                         _______ _______ _______ _____ _____    ______ ____
ROOT
ATOM      1  C   UNL     1       5.600  15.143  -2.777  0.00  0.00    +0.000 A 
ATOM      2  C   UNL     1       5.402  16.333  -2.078  0.00  0.00    +0.000 A 
ATOM      3  C   UNL     1       4.109  16.713  -1.698  0.00  0.00    +0.000 A 
ATOM      4  C   UNL     1       3.012  15.909  -2.014  0.00  0.00    +0.000 A 
ATOM      5  C   UNL     1       3.203  14.719  -2.713  0.00  0.00    +0.000 A 
ATOM      6  C   UNL     1       4.489  14.350  -3.086  0.00  0.00    +0.000 A 
ENDROOT
BRANCH   1   8
ATOM      7  C   UNL     1       7.955  15.039  -2.471  0.00  0.00    +0.000 C 
ATOM      8  O   UNL     1       6.804  14.649  -3.212  0.00  0.00    +0.000 OA
ENDBRANCH   1   8
BRANCH   6   9
ATOM      9  O   UNL     1       4.651  13.176  -3.772  0.00  0.00    +0.000 OA
ATOM     10  H   UNL     1       5.302  12.670  -3.249  0.00  0.00    +0.000 HD
ENDBRANCH   6   9
TORSDOF 2
ENDMDL
MODEL 8
REMARK VINA RESULT:    -2.863      6.749      8.392
REMARK INTER + INTRA:          -3.157
REMARK INTER:                  -3.105
REMARK INTRA:                  -0.052
REMARK UNBOUND:                -0.043
REMARK  Name = 
REMARK  3 active torsions:
REMARK  status: ('A' for Active; 'I' for Inactive)
REMARK    1  A    between atoms: C_1  and  O_2
REMARK    2  A    between atoms: O_2  and  C_3
REMARK    3  A    between atoms: C_8  and  O_9
REMARK                            x       y       z     vdW  Elec       q    Type
REMARK                         _______ _______ _______ _____ _____    ______ ____
ROOT
ATOM      1  C   UNL     1       5.025  14.827  -3.345  0.00  0.00    +0.000 A 
ATOM      2  C   UNL     1       5.627  15.324  -4.501  0.00  0.00    +0.000 A 
ATOM      3  C   UNL     1       6.991  15.642  -4.498  0.00  0.00    +0.000 A 
ATOM      4  C   UNL     1       7.757  15.466  -3.344  0.00  0.00    +0.000 A 
ATOM      5  C   UNL     1       7.163  14.969  -2.186  0.00  0.00    +0.000 A 
ATOM      6  C   UNL     1       5.810  14.657  -2.197  0.00  0.00    +0.000 A 
ENDROOT
BRANCH   1   8
ATOM      7  C   UNL     1       2.761  15.538  -3.228  0.00  0.00    +0.000 C 
ATOM      8  O   UNL     1       3.707  14.476  -3.204  0.00  0.00    +0.000 OA
ENDBRANCH   1   8
BRANCH   6   9
ATOM      9  O   UNL     1       5.249  14.171  -1.047  0.00  0.00    +0.000 OA
ATOM     10  H   UNL     1       5.114  14.957  -0.484  0.00  0.00    +0.000 HD
ENDBRANCH   6   9
TORSDOF 2
ENDMDL
MODEL 9
REMARK VINA RESULT:    -2.860      1.497      3.137
REMARK INTER + INTRA:          -3.154
REMARK INTER:                  -3.101
REMARK INTRA:                  -0.052
REMARK UNBOUND:                -0.043
REMARK  Name = 
REMARK  3 active torsions:
REMARK  status: ('A' for Active; 'I' for Inactive)
REMARK    1  A    between atoms: C_1  and  O_2
REMARK    2  A    between atoms: O_2  and  C_3
REMARK    3  A    between atoms: C_8  and  O_9
REMARK                            x       y       z     vdW  Elec       q    Type
REMARK                         _______ _______ _______ _____ _____    ______ ____
ROOT
ATOM      1  C   UNL     1       7.926  13.642   3.549  0.00  0.00    +0.000 A 
ATOM      2  C   UNL     1       7.898  14.112   4.861  0.00  0.00    +0.000 A 
ATOM      3  C   UNL     1       7.908  15.491   5.111  0.00  0.00    +0.000 A 
ATOM      4  C   UNL     1       7.948  16.401   4.053  0.00  0.00    +0.000 A 
ATOM      5  C   UNL     1       7.976  15.939   2.740  0.00  0.00    +0.000 A 
ATOM      6  C   UNL     1       7.966  14.570   2.502  0.00  0.00    +0.000 A 
ENDROOT
BRANCH   1   8
ATOM      7  C   UNL     1       6.772  11.565   3.510  0.00  0.00    +0.000 C 
ATOM      8  O   UNL     1       7.921  12.327   3.159  0.00  0.00    +0.000 OA
ENDBRANCH   1   8
BRANCH   6   9
ATOM      9  O   UNL     1       7.994  14.140   1.202  0.00  0.00    +0.000 OA
ATOM     10  H   UNL     1       7.151  13.662   1.080  0.00  0.00    +0.000 HD
ENDBRANCH   6   9
TORSDOF 2
ENDMDL
