MODEL 1
REMARK VINA RESULT:    -4.934      0.000      0.000
REMARK INTER + INTRA:          -7.288
REMARK INTER:                  -6.665
REMARK INTRA:                  -0.623
REMARK UNBOUND:                -0.623
REMARK  Name = 
REMARK  10 active torsions:
REMARK  status: ('A' for Active; 'I' for Inactive)
REMARK    1  A    between atoms: C_1  and  C_2
REMARK    2  A    between atoms: C_5  and  N_8
REMARK    3  A    between atoms: N_8  and  C_9
REMARK    4  A    between atoms: N_8  and  C_13
REMARK    5  A    between atoms: C_9  and  C_10
REMARK    6  A    between atoms: C_10  and  C_11
REMARK    7  A    between atoms: C_10  and  O_12
REMARK    8  A    between atoms: C_13  and  C_14
REMARK    9  A    between atoms: C_14  and  C_15
REMARK   10  A    between atoms: C_14  and  O_16
REMARK                            x       y       z     vdW  Elec       q    Type
REMARK                         _______ _______ _______ _____ _____    ______ ____
ROOT
ATOM      1  N   UNL     1       3.760   6.394 -13.972  0.00  0.00    +0.000 N 
ENDROOT
BRANCH   1   6
ATOM      2  C   UNL     1       8.101   2.719 -12.979  0.00  0.00    +0.000 C 
ATOM      3  C   UNL     1       6.964   3.656 -13.251  0.00  0.00    +0.000 A 
ATOM      4  C   UNL     1       7.025   4.568 -14.299  0.00  0.00    +0.000 A 
ATOM      5  C   UNL     1       5.969   5.464 -14.531  0.00  0.00    +0.000 A 
ATOM      6  C   UNL     1       4.819   5.511 -13.723  0.00  0.00    +0.000 A 
ATOM      7  C   UNL     1       4.790   4.573 -12.674  0.00  0.00    +0.000 A 
ATOM      8  C   UNL     1       5.838   3.670 -12.432  0.00  0.00    +0.000 A 
ENDBRANCH   1   6
BRANCH   1   9
ATOM      9  C   UNL     1       2.804   6.116 -15.070  0.00  0.00    +0.000 C 
BRANCH   9  10
ATOM     10  C   UNL     1       1.368   6.603 -14.753  0.00  0.00    +0.000 C 
ATOM     11  C   UNL     1       0.396   6.183 -15.849  0.00  0.00    +0.000 C 
BRANCH  10  12
ATOM     12  O   UNL     1       0.902   6.055 -13.512  0.00  0.00    +0.000 OA
ATOM     13  H   UNL     1       1.541   6.291 -12.820  0.00  0.00    +0.000 HD
ENDBRANCH  10  12
ENDBRANCH   9  10
ENDBRANCH   1   9
BRANCH   1  14
ATOM     14  C   UNL     1       3.829   7.816 -13.548  0.00  0.00    +0.000 C 
BRANCH  14  15
ATOM     15  C   UNL     1       3.532   7.991 -12.040  0.00  0.00    +0.000 C 
ATOM     16  C   UNL     1       4.429   9.023 -11.368  0.00  0.00    +0.000 C 
BRANCH  15  17
ATOM     17  O   UNL     1       2.175   8.370 -11.811  0.00  0.00    +0.000 OA
ATOM     18  H   UNL     1       1.996   9.075 -12.465  0.00  0.00    +0.000 HD
ENDBRANCH  15  17
ENDBRANCH  14  15
ENDBRANCH   1  14
TORSDOF 7
ENDMDL
MODEL 2
REMARK VINA RESULT:    -4.924      0.082      1.193
REMARK INTER + INTRA:          -7.274
REMARK INTER:                  -6.650
REMARK INTRA:                  -0.624
REMARK UNBOUND:                -0.623
REMARK  Name = 
REMARK  10 active torsions:
REMARK  status: ('A' for Active; 'I' for Inactive)
REMARK    1  A    between atoms: C_1  and  C_2
REMARK    2  A    between atoms: C_5  and  N_8
REMARK    3  A    between atoms: N_8  and  C_9
REMARK    4  A    between atoms: N_8  and  C_13
REMARK    5  A    between atoms: C_9  and  C_10
REMARK    6  A    between atoms: C_10  and  C_11
REMARK    7  A    between atoms: C_10  and  O_12
REMARK    8  A    between atoms: C_13  and  C_14
REMARK    9  A    between atoms: C_14  and  C_15
REMARK   10  A    between atoms: C_14  and  O_16
REMARK                            x       y       z     vdW  Elec       q    Type
REMARK                         _______ _______ _______ _____ _____    ______ ____
ROOT
ATOM      1  N   UNL     1       3.685   6.384 -13.984  0.00  0.00    +0.000 N 
ENDROOT
BRANCH   1   6
ATOM      2  C   UNL     1       8.103   2.815 -12.949  0.00  0.00    +0.000 C 
ATOM      3  C   UNL     1       6.967   3.759 -13.202  0.00  0.00    +0.000 A 
ATOM      4  C   UNL     1       5.818   3.721 -12.419  0.00  0.00    +0.000 A 
ATOM      5  C   UNL     1       4.744   4.587 -12.680  0.00  0.00    +0.000 A 
ATOM      6  C   UNL     1       4.752   5.510 -13.741  0.00  0.00    +0.000 A 
ATOM      7  C   UNL     1       5.929   5.522 -14.511  0.00  0.00    +0.000 A 
ATOM      8  C   UNL     1       7.012   4.663 -14.259  0.00  0.00    +0.000 A 
ENDBRANCH   1   6
BRANCH   1   9
ATOM      9  C   UNL     1       2.715   6.091 -15.067  0.00  0.00    +0.000 C 
BRANCH   9  10
ATOM     10  C   UNL     1       1.286   6.592 -14.744  0.00  0.00    +0.000 C 
ATOM     11  C   UNL     1       0.305   6.180 -15.835  0.00  0.00    +0.000 C 
BRANCH  10  12
ATOM     12  O   UNL     1       0.820   6.050 -13.500  0.00  0.00    +0.000 OA
ATOM     13  H   UNL     1       0.695   5.093 -13.616  0.00  0.00    +0.000 HD
ENDBRANCH  10  12
ENDBRANCH   9  10
ENDBRANCH   1   9
BRANCH   1  14
ATOM     14  C   UNL     1       3.751   7.811 -13.575  0.00  0.00    +0.000 C 
BRANCH  14  15
ATOM     15  C   UNL     1       3.471   7.999 -12.064  0.00  0.00    +0.000 C 
ATOM     16  C   UNL     1       4.366   9.048 -11.415  0.00  0.00    +0.000 C 
BRANCH  15  17
ATOM     17  O   UNL     1       2.114   8.365 -11.821  0.00  0.00    +0.000 OA
ATOM     18  H   UNL     1       1.876   8.959 -12.561  0.00  0.00    +0.000 HD
ENDBRANCH  15  17
ENDBRANCH  14  15
ENDBRANCH   1  14
TORSDOF 7
ENDMDL
MODEL 3
REMARK VINA RESULT:    -4.701      0.563      3.039
REMARK INTER + INTRA:          -6.974
REMARK INTER:                  -6.304
REMARK INTRA:                  -0.670
REMARK UNBOUND:                -0.623
REMARK  Name = 
REMARK  10 active torsions:
REMARK  status: ('A' for Active; 'I' for Inactive)
REMARK    1  A    between atoms: C_1  and  C_2
REMARK    2  A    between atoms: C_5  and  N_8
REMARK    3  A    between atoms: N_8  and  C_9
REMARK    4  A    between atoms: N_8  and  C_13
REMARK    5  A    between atoms: C_9  and  C_10
REMARK    6  A    between atoms: C_10  and  C_11
REMARK    7  A    between atoms: C_10  and  O_12
REMARK    8  A    between atoms: C_13  and  C_14
REMARK    9  A    between atoms: C_14  and  C_15
REMARK   10  A    between atoms: C_14  and  O_16
REMARK                            x       y       z     vdW  Elec       q    Type
REMARK                         _______ _______ _______ _____ _____    ______ ____
ROOT
ATOM      1  N   UNL     1       3.541   6.399 -13.769  0.00  0.00    +0.000 N 
ENDROOT
BRANCH   1   6
ATOM      2  C   UNL     1       8.124   2.954 -13.089  0.00  0.00    +0.000 C 
ATOM      3  C   UNL     1       6.924   3.831 -13.280  0.00  0.00    +0.000 A 
ATOM      4  C   UNL     1       6.893   4.790 -14.288  0.00  0.00    +0.000 A 
ATOM      5  C   UNL     1       5.779   5.629 -14.444  0.00  0.00    +0.000 A 
ATOM      6  C   UNL     1       4.658   5.572 -13.595  0.00  0.00    +0.000 A 
ATOM      7  C   UNL     1       4.723   4.590 -12.589  0.00  0.00    +0.000 A 
ATOM      8  C   UNL     1       5.830   3.743 -12.424  0.00  0.00    +0.000 A 
ENDBRANCH   1   6
BRANCH   1   9
ATOM      9  C   UNL     1       3.614   7.833 -13.398  0.00  0.00    +0.000 C 
BRANCH   9  10
ATOM     10  C   UNL     1       3.552   8.061 -11.867  0.00  0.00    +0.000 C 
ATOM     11  C   UNL     1       4.594   9.082 -11.426  0.00  0.00    +0.000 C 
BRANCH  10  12
ATOM     12  O   UNL     1       2.261   8.544 -11.470  0.00  0.00    +0.000 OA
ATOM     13  H   UNL     1       2.386   9.168 -10.736  0.00  0.00    +0.000 HD
ENDBRANCH  10  12
ENDBRANCH   9  10
ENDBRANCH   1   9
BRANCH   1  14
ATOM     14  C   UNL     1       2.168   5.836 -13.820  0.00  0.00    +0.000 C 
BRANCH  14  15
ATOM     15  C   UNL     1       1.137   6.859 -14.356  0.00  0.00    +0.000 C 
ATOM     16  C   UNL     1       0.340   6.339 -15.547  0.00  0.00    +0.000 C 
BRANCH  15  17
ATOM     17  O   UNL     1       0.211   7.254 -13.344  0.00  0.00    +0.000 OA
ATOM     18  H   UNL     1      -0.076   6.418 -12.924  0.00  0.00    +0.000 HD
ENDBRANCH  15  17
ENDBRANCH  14  15
ENDBRANCH   1  14
TORSDOF 7
ENDMDL
MODEL 4
REMARK VINA RESULT:    -4.276      1.929      3.406
REMARK INTER + INTRA:          -6.400
REMARK INTER:                  -5.607
REMARK INTRA:                  -0.793
REMARK UNBOUND:                -0.623
REMARK  Name = 
REMARK  10 active torsions:
REMARK  status: ('A' for Active; 'I' for Inactive)
REMARK    1  A    between atoms: C_1  and  C_2
REMARK    2  A    between atoms: C_5  and  N_8
REMARK    3  A    between atoms: N_8  and  C_9
REMARK    4  A    between atoms: N_8  and  C_13
REMARK    5  A    between atoms: C_9  and  C_10
REMARK    6  A    between atoms: C_10  and  C_11
REMARK    7  A    between atoms: C_10  and  O_12
REMARK    8  A    between atoms: C_13  and  C_14
REMARK    9  A    between atoms: C_14  and  C_15
REMARK   10  A    between atoms: C_14  and  O_16
REMARK                            x       y       z     vdW  Elec       q    Type
REMARK                         _______ _______ _______ _____ _____    ______ ____
ROOT
ATOM      1  N   UNL     1       4.050   7.257 -13.844  0.00  0.00    +0.000 N 
ENDROOT
BRANCH   1   6
ATOM      2  C   UNL     1       7.305   2.555 -13.059  0.00  0.00    +0.000 C 
ATOM      3  C   UNL     1       6.444   3.761 -13.276  0.00  0.00    +0.000 A 
ATOM      4  C   UNL     1       6.656   4.605 -14.361  0.00  0.00    +0.000 A 
ATOM      5  C   UNL     1       5.865   5.751 -14.543  0.00  0.00    +0.000 A 
ATOM      6  C   UNL     1       4.847   6.123 -13.646  0.00  0.00    +0.000 A 
ATOM      7  C   UNL     1       4.659   5.247 -12.562  0.00  0.00    +0.000 A 
ATOM      8  C   UNL     1       5.442   4.096 -12.370  0.00  0.00    +0.000 A 
ENDBRANCH   1   6
BRANCH   1   9
ATOM      9  C   UNL     1       4.604   8.609 -13.594  0.00  0.00    +0.000 C 
BRANCH   9  10
ATOM     10  C   UNL     1       5.041   9.329 -14.894  0.00  0.00    +0.000 C 
ATOM     11  C   UNL     1       6.560   9.408 -14.990  0.00  0.00    +0.000 C 
BRANCH  10  12
ATOM     12  O   UNL     1       4.558   8.636 -16.053  0.00  0.00    +0.000 OA
ATOM     13  H   UNL     1       3.814   8.074 -15.780  0.00  0.00    +0.000 HD
ENDBRANCH  10  12
ENDBRANCH   9  10
ENDBRANCH   1   9
BRANCH   1  14
ATOM     14  C   UNL     1       2.567   7.172 -13.798  0.00  0.00    +0.000 C 
BRANCH  14  15
ATOM     15  C   UNL     1       1.995   6.317 -14.954  0.00  0.00    +0.000 C 
ATOM     16  C   UNL     1       0.473   6.357 -15.032  0.00  0.00    +0.000 C 
BRANCH  15  17
ATOM     17  O   UNL     1       2.514   6.724 -16.219  0.00  0.00    +0.000 OA
ATOM     18  H   UNL     1       2.252   7.663 -16.308  0.00  0.00    +0.000 HD
ENDBRANCH  15  17
ENDBRANCH  14  15
ENDBRANCH   1  14
TORSDOF 7
ENDMDL
MODEL 5
REMARK VINA RESULT:    -4.270     10.500     12.889
REMARK INTER + INTRA:          -6.391
REMARK INTER:                  -5.925
REMARK INTRA:                  -0.466
REMARK UNBOUND:                -0.623
REMARK  Name = 
REMARK  10 active torsions:
REMARK  status: ('A' for Active; 'I' for Inactive)
REMARK    1  A    between atoms: C_1  and  C_2
REMARK    2  A    between atoms: C_5  and  N_8
REMARK    3  A    between atoms: N_8  and  C_9
REMARK    4  A    between atoms: N_8  and  C_13
REMARK    5  A    between atoms: C_9  and  C_10
REMARK    6  A    between atoms: C_10  and  C_11
REMARK    7  A    between atoms: C_10  and  O_12
REMARK    8  A    between atoms: C_13  and  C_14
REMARK    9  A    between atoms: C_14  and  C_15
REMARK   10  A    between atoms: C_14  and  O_16
REMARK                            x       y       z     vdW  Elec       q    Type
REMARK                         _______ _______ _______ _____ _____    ______ ____
ROOT
ATOM      1  N   UNL     1       2.420   9.715  -1.596  0.00  0.00    +0.000 N 
ENDROOT
BRANCH   1   6
ATOM      2  C   UNL     1       0.169   6.209  -5.593  0.00  0.00    +0.000 C 
ATOM      3  C   UNL     1       0.738   7.137  -4.563  0.00  0.00    +0.000 A 
ATOM      4  C   UNL     1       1.838   7.938  -4.852  0.00  0.00    +0.000 A 
ATOM      5  C   UNL     1       2.385   8.783  -3.873  0.00  0.00    +0.000 A 
ATOM      6  C   UNL     1       1.882   8.855  -2.562  0.00  0.00    +0.000 A 
ATOM      7  C   UNL     1       0.769   8.034  -2.306  0.00  0.00    +0.000 A 
ATOM      8  C   UNL     1       0.210   7.185  -3.276  0.00  0.00    +0.000 A 
ENDBRANCH   1   6
BRANCH   1   9
ATOM      9  C   UNL     1       1.568  10.751  -0.966  0.00  0.00    +0.000 C 
BRANCH   9  10
ATOM     10  C   UNL     1       1.377  10.528   0.554  0.00  0.00    +0.000 C 
ATOM     11  C   UNL     1       0.724  11.741   1.206  0.00  0.00    +0.000 C 
BRANCH  10  12
ATOM     12  O   UNL     1       0.545   9.387   0.806  0.00  0.00    +0.000 OA
ATOM     13  H   UNL     1      -0.355   9.705   0.990  0.00  0.00    +0.000 HD
ENDBRANCH  10  12
ENDBRANCH   9  10
ENDBRANCH   1   9
BRANCH   1  14
ATOM     14  C   UNL     1       3.880   9.985  -1.535  0.00  0.00    +0.000 C 
BRANCH  14  15
ATOM     15  C   UNL     1       4.626   8.964  -0.643  0.00  0.00    +0.000 C 
ATOM     16  C   UNL     1       6.055   8.699  -1.101  0.00  0.00    +0.000 C 
BRANCH  15  17
ATOM     17  O   UNL     1       4.670   9.387   0.719  0.00  0.00    +0.000 OA
ATOM     18  H   UNL     1       4.021  10.117   0.778  0.00  0.00    +0.000 HD
ENDBRANCH  15  17
ENDBRANCH  14  15
ENDBRANCH   1  14
TORSDOF 7
ENDMDL
MODEL 6
REMARK VINA RESULT:    -4.190      9.057     11.174
REMARK INTER + INTRA:          -6.283
REMARK INTER:                  -5.904
REMARK INTRA:                  -0.378
REMARK UNBOUND:                -0.623
REMARK  Name = 
REMARK  10 active torsions:
REMARK  status: ('A' for Active; 'I' for Inactive)
REMARK    1  A    between atoms: C_1  and  C_2
REMARK    2  A    between atoms: C_5  and  N_8
REMARK    3  A    between atoms: N_8  and  C_9
REMARK    4  A    between atoms: N_8  and  C_13
REMARK    5  A    between atoms: C_9  and  C_10
REMARK    6  A    between atoms: C_10  and  C_11
REMARK    7  A    between atoms: C_10  and  O_12
REMARK    8  A    between atoms: C_13  and  C_14
REMARK    9  A    between atoms: C_14  and  C_15
REMARK   10  A    between atoms: C_14  and  O_16
REMARK                            x       y       z     vdW  Elec       q    Type
REMARK                         _______ _______ _______ _____ _____    ______ ____
ROOT
ATOM      1  N   UNL     1       1.476   8.603  -3.207  0.00  0.00    +0.000 N 
ENDROOT
BRANCH   1   6
ATOM      2  C   UNL     1      -1.794   6.830  -7.622  0.00  0.00    +0.000 C 
ATOM      3  C   UNL     1      -0.965   7.289  -6.461  0.00  0.00    +0.000 A 
ATOM      4  C   UNL     1      -0.813   8.643  -6.183  0.00  0.00    +0.000 A 
ATOM      5  C   UNL     1      -0.011   9.068  -5.111  0.00  0.00    +0.000 A 
ATOM      6  C   UNL     1       0.693   8.173  -4.285  0.00  0.00    +0.000 A 
ATOM      7  C   UNL     1       0.515   6.812  -4.595  0.00  0.00    +0.000 A 
ATOM      8  C   UNL     1      -0.286   6.373  -5.662  0.00  0.00    +0.000 A 
ENDBRANCH   1   6
BRANCH   1   9
ATOM      9  C   UNL     1       2.895   8.976  -3.420  0.00  0.00    +0.000 C 
BRANCH   9  10
ATOM     10  C   UNL     1       3.440   8.505  -4.791  0.00  0.00    +0.000 C 
ATOM     11  C   UNL     1       3.823   9.695  -5.663  0.00  0.00    +0.000 C 
BRANCH  10  12
ATOM     12  O   UNL     1       4.603   7.682  -4.627  0.00  0.00    +0.000 OA
ATOM     13  H   UNL     1       4.334   6.755  -4.740  0.00  0.00    +0.000 HD
ENDBRANCH  10  12
ENDBRANCH   9  10
ENDBRANCH   1   9
BRANCH   1  14
ATOM     14  C   UNL     1       1.131   8.231  -1.810  0.00  0.00    +0.000 C 
BRANCH  14  15
ATOM     15  C   UNL     1       0.453   9.394  -1.047  0.00  0.00    +0.000 C 
ATOM     16  C   UNL     1      -1.012   9.584  -1.423  0.00  0.00    +0.000 C 
BRANCH  15  17
ATOM     17  O   UNL     1       0.526   9.210   0.366  0.00  0.00    +0.000 OA
ATOM     18  H   UNL     1       0.162   8.315   0.524  0.00  0.00    +0.000 HD
ENDBRANCH  15  17
ENDBRANCH  14  15
ENDBRANCH   1  14
TORSDOF 7
ENDMDL
MODEL 7
REMARK VINA RESULT:    -4.148      9.244     11.307
REMARK INTER + INTRA:          -6.225
REMARK INTER:                  -5.702
REMARK INTRA:                  -0.523
REMARK UNBOUND:                -0.623
REMARK  Name = 
REMARK  10 active torsions:
REMARK  status: ('A' for Active; 'I' for Inactive)
REMARK    1  A    between atoms: C_1  and  C_2
REMARK    2  A    between atoms: C_5  and  N_8
REMARK    3  A    between atoms: N_8  and  C_9
REMARK    4  A    between atoms: N_8  and  C_13
REMARK    5  A    between atoms: C_9  and  C_10
REMARK    6  A    between atoms: C_10  and  C_11
REMARK    7  A    between atoms: C_10  and  O_12
REMARK    8  A    between atoms: C_13  and  C_14
REMARK    9  A    between atoms: C_14  and  C_15
REMARK   10  A    between atoms: C_14  and  O_16
REMARK                            x       y       z     vdW  Elec       q    Type
REMARK                         _______ _______ _______ _____ _____    ______ ____
ROOT
ATOM      1  N   UNL     1       1.445   8.263  -3.128  0.00  0.00    +0.000 N 
ENDROOT
BRANCH   1   6
ATOM      2  C   UNL     1      -1.769   6.964  -7.745  0.00  0.00    +0.000 C 
ATOM      3  C   UNL     1      -0.916   7.306  -6.562  0.00  0.00    +0.000 A 
ATOM      4  C   UNL     1      -0.177   6.327  -5.907  0.00  0.00    +0.000 A 
ATOM      5  C   UNL     1       0.597   6.648  -4.780  0.00  0.00    +0.000 A 
ATOM      6  C   UNL     1       0.655   7.946  -4.240  0.00  0.00    +0.000 A 
ATOM      7  C   UNL     1      -0.103   8.911  -4.929  0.00  0.00    +0.000 A 
ATOM      8  C   UNL     1      -0.880   8.603  -6.058  0.00  0.00    +0.000 A 
ENDBRANCH   1   6
BRANCH   1   9
ATOM      9  C   UNL     1       0.922   8.042  -1.758  0.00  0.00    +0.000 C 
BRANCH   9  10
ATOM     10  C   UNL     1       0.440   9.348  -1.081  0.00  0.00    +0.000 C 
ATOM     11  C   UNL     1      -1.014   9.639  -1.432  0.00  0.00    +0.000 C 
BRANCH  10  12
ATOM     12  O   UNL     1       0.543   9.257   0.346  0.00  0.00    +0.000 OA
ATOM     13  H   UNL     1       1.346   9.730   0.621  0.00  0.00    +0.000 HD
ENDBRANCH  10  12
ENDBRANCH   9  10
ENDBRANCH   1   9
BRANCH   1  14
ATOM     14  C   UNL     1       2.544   9.257  -3.224  0.00  0.00    +0.000 C 
BRANCH  14  15
ATOM     15  C   UNL     1       3.459   9.001  -4.446  0.00  0.00    +0.000 C 
ATOM     16  C   UNL     1       4.464  10.120  -4.688  0.00  0.00    +0.000 C 
BRANCH  15  17
ATOM     17  O   UNL     1       4.182   7.778  -4.316  0.00  0.00    +0.000 OA
ATOM     18  H   UNL     1       5.012   7.921  -4.813  0.00  0.00    +0.000 HD
ENDBRANCH  15  17
ENDBRANCH  14  15
ENDBRANCH   1  14
TORSDOF 7
ENDMDL
MODEL 8
REMARK VINA RESULT:    -4.034      9.484     12.166
REMARK INTER + INTRA:          -6.073
REMARK INTER:                  -5.523
REMARK INTRA:                  -0.550
REMARK UNBOUND:                -0.623
REMARK  Name = 
REMARK  10 active torsions:
REMARK  status: ('A' for Active; 'I' for Inactive)
REMARK    1  A    between atoms: C_1  and  C_2
REMARK    2  A    between atoms: C_5  and  N_8
REMARK    3  A    between atoms: N_8  and  C_9
REMARK    4  A    between atoms: N_8  and  C_13
REMARK    5  A    between atoms: C_9  and  C_10
REMARK    6  A    between atoms: C_10  and  C_11
REMARK    7  A    between atoms: C_10  and  O_12
REMARK    8  A    between atoms: C_13  and  C_14
REMARK    9  A    between atoms: C_14  and  C_15
REMARK   10  A    between atoms: C_14  and  O_16
REMARK                            x       y       z     vdW  Elec       q    Type
REMARK                         _______ _______ _______ _____ _____    ______ ____
ROOT
ATOM      1  N   UNL     1       0.782   8.498  -3.715  0.00  0.00    +0.000 N 
ENDROOT
BRANCH   1   6
ATOM      2  C   UNL     1      -3.387  11.745  -1.390  0.00  0.00    +0.000 C 
ATOM      3  C   UNL     1      -2.289  10.922  -1.991  0.00  0.00    +0.000 A 
ATOM      4  C   UNL     1      -2.104  10.875  -3.369  0.00  0.00    +0.000 A 
ATOM      5  C   UNL     1      -1.092  10.078  -3.929  0.00  0.00    +0.000 A 
ATOM      6  C   UNL     1      -0.237   9.276  -3.151  0.00  0.00    +0.000 A 
ATOM      7  C   UNL     1      -0.452   9.349  -1.763  0.00  0.00    +0.000 A 
ATOM      8  C   UNL     1      -1.459  10.144  -1.190  0.00  0.00    +0.000 A 
ENDBRANCH   1   6
BRANCH   1   9
ATOM      9  C   UNL     1       0.724   7.019  -3.626  0.00  0.00    +0.000 C 
BRANCH   9  10
ATOM     10  C   UNL     1      -0.434   6.413  -4.455  0.00  0.00    +0.000 C 
ATOM     11  C   UNL     1      -0.105   6.428  -5.943  0.00  0.00    +0.000 C 
BRANCH  10  12
ATOM     12  O   UNL     1      -0.688   5.055  -4.070  0.00  0.00    +0.000 OA
ATOM     13  H   UNL     1      -1.623   4.983  -3.816  0.00  0.00    +0.000 HD
ENDBRANCH  10  12
ENDBRANCH   9  10
ENDBRANCH   1   9
BRANCH   1  14
ATOM     14  C   UNL     1       2.139   9.057  -3.942  0.00  0.00    +0.000 C 
BRANCH  14  15
ATOM     15  C   UNL     1       2.927   8.261  -5.010  0.00  0.00    +0.000 C 
ATOM     16  C   UNL     1       3.161   9.050  -6.294  0.00  0.00    +0.000 C 
BRANCH  15  17
ATOM     17  O   UNL     1       4.196   7.832  -4.518  0.00  0.00    +0.000 OA
ATOM     18  H   UNL     1       4.625   8.644  -4.182  0.00  0.00    +0.000 HD
ENDBRANCH  15  17
ENDBRANCH  14  15
ENDBRANCH   1  14
TORSDOF 7
ENDMDL
MODEL 9
REMARK VINA RESULT:    -3.992      1.990      2.454
REMARK INTER + INTRA:          -6.015
REMARK INTER:                  -5.357
REMARK INTRA:                  -0.658
REMARK UNBOUND:                -0.623
REMARK  Name = 
REMARK  10 active torsions:
REMARK  status: ('A' for Active; 'I' for Inactive)
REMARK    1  A    between atoms: C_1  and  C_2
REMARK    2  A    between atoms: C_5  and  N_8
REMARK    3  A    between atoms: N_8  and  C_9
REMARK    4  A    between atoms: N_8  and  C_13
REMARK    5  A    between atoms: C_9  and  C_10
REMARK    6  A    between atoms: C_10  and  C_11
REMARK    7  A    between atoms: C_10  and  O_12
REMARK    8  A    between atoms: C_13  and  C_14
REMARK    9  A    between atoms: C_14  and  C_15
REMARK   10  A    between atoms: C_14  and  O_16
REMARK                            x       y       z     vdW  Elec       q    Type
REMARK                         _______ _______ _______ _____ _____    ______ ____
ROOT
ATOM      1  N   UNL     1       4.089   7.374 -13.382  0.00  0.00    +0.000 N 
ENDROOT
BRANCH   1   6
ATOM      2  C   UNL     1       7.156   2.487 -13.168  0.00  0.00    +0.000 C 
ATOM      3  C   UNL     1       6.377   3.766 -13.208  0.00  0.00    +0.000 A 
ATOM      4  C   UNL     1       5.351   4.007 -12.300  0.00  0.00    +0.000 A 
ATOM      5  C   UNL     1       4.604   5.195 -12.362  0.00  0.00    +0.000 A 
ATOM      6  C   UNL     1       4.825   6.183 -13.338  0.00  0.00    +0.000 A 
ATOM      7  C   UNL     1       5.871   5.907 -14.239  0.00  0.00    +0.000 A 
ATOM      8  C   UNL     1       6.627   4.724 -14.187  0.00  0.00    +0.000 A 
ENDBRANCH   1   6
BRANCH   1   9
ATOM      9  C   UNL     1       2.707   7.374 -13.918  0.00  0.00    +0.000 C 
BRANCH   9  10
ATOM     10  C   UNL     1       2.505   6.349 -15.061  0.00  0.00    +0.000 C 
ATOM     11  C   UNL     1       1.024   6.129 -15.341  0.00  0.00    +0.000 C 
BRANCH  10  12
ATOM     12  O   UNL     1       3.124   6.801 -16.273  0.00  0.00    +0.000 OA
ATOM     13  H   UNL     1       3.697   6.089 -16.603  0.00  0.00    +0.000 HD
ENDBRANCH  10  12
ENDBRANCH   9  10
ENDBRANCH   1   9
BRANCH   1  14
ATOM     14  C   UNL     1       4.766   8.696 -13.401  0.00  0.00    +0.000 C 
BRANCH  14  15
ATOM     15  C   UNL     1       4.433   9.505 -14.677  0.00  0.00    +0.000 C 
ATOM     16  C   UNL     1       4.794  10.981 -14.563  0.00  0.00    +0.000 C 
BRANCH  15  17
ATOM     17  O   UNL     1       5.095   8.976 -15.825  0.00  0.00    +0.000 OA
ATOM     18  H   UNL     1       4.393   8.527 -16.338  0.00  0.00    +0.000 HD
ENDBRANCH  15  17
ENDBRANCH  14  15
ENDBRANCH   1  14
TORSDOF 7
ENDMDL
