MODEL 1
REMARK VINA RESULT:    -4.759      0.000      0.000
REMARK INTER + INTRA:          -7.095
REMARK INTER:                  -6.429
REMARK INTRA:                  -0.667
REMARK UNBOUND:                -0.667
REMARK  Name = 
REMARK  10 active torsions:
REMARK  status: ('A' for Active; 'I' for Inactive)
REMARK    1  A    between atoms: C_1  and  C_2
REMARK    2  A    between atoms: C_5  and  N_8
REMARK    3  A    between atoms: N_8  and  C_9
REMARK    4  A    between atoms: N_8  and  C_13
REMARK    5  A    between atoms: C_9  and  C_10
REMARK    6  A    between atoms: C_10  and  C_11
REMARK    7  A    between atoms: C_10  and  O_12
REMARK    8  A    between atoms: C_13  and  C_14
REMARK    9  A    between atoms: C_14  and  C_15
REMARK   10  A    between atoms: C_14  and  O_16
REMARK                            x       y       z     vdW  Elec       q    Type
REMARK                         _______ _______ _______ _____ _____    ______ ____
ROOT
ATOM      1  N   UNL     1       8.452  11.849   5.868  0.00  0.00    +0.000 N 
ENDROOT
BRANCH   1   6
ATOM      2  C   UNL     1       2.867  12.805   4.763  0.00  0.00    +0.000 C 
ATOM      3  C   UNL     1       4.322  12.577   5.036  0.00  0.00    +0.000 A 
ATOM      4  C   UNL     1       5.082  11.750   4.216  0.00  0.00    +0.000 A 
ATOM      5  C   UNL     1       6.438  11.516   4.494  0.00  0.00    +0.000 A 
ATOM      6  C   UNL     1       7.094  12.071   5.608  0.00  0.00    +0.000 A 
ATOM      7  C   UNL     1       6.296  12.904   6.413  0.00  0.00    +0.000 A 
ATOM      8  C   UNL     1       4.939  13.148   6.145  0.00  0.00    +0.000 A 
ENDBRANCH   1   6
BRANCH   1   9
ATOM      9  C   UNL     1       9.257  12.889   6.553  0.00  0.00    +0.000 C 
BRANCH   9  10
ATOM     10  C   UNL     1       9.810  12.416   7.920  0.00  0.00    +0.000 C 
ATOM     11  C   UNL     1      10.034  13.598   8.856  0.00  0.00    +0.000 C 
BRANCH  10  12
ATOM     12  O   UNL     1       8.900  11.510   8.558  0.00  0.00    +0.000 OA
ATOM     13  H   UNL     1       9.377  11.056   9.272  0.00  0.00    +0.000 HD
ENDBRANCH  10  12
ENDBRANCH   9  10
ENDBRANCH   1   9
BRANCH   1  14
ATOM     14  C   UNL     1       9.239  10.876   5.068  0.00  0.00    +0.000 C 
BRANCH  14  15
ATOM     15  C   UNL     1       8.992   9.416   5.517  0.00  0.00    +0.000 C 
ATOM     16  C   UNL     1       9.755   8.394   4.682  0.00  0.00    +0.000 C 
BRANCH  15  17
ATOM     17  O   UNL     1       9.344   9.218   6.886  0.00  0.00    +0.000 OA
ATOM     18  H   UNL     1       9.364  10.116   7.274  0.00  0.00    +0.000 HD
ENDBRANCH  15  17
ENDBRANCH  14  15
ENDBRANCH   1  14
TORSDOF 7
ENDMDL
MODEL 2
REMARK VINA RESULT:    -4.275      0.957      3.057
REMARK INTER + INTRA:          -6.441
REMARK INTER:                  -6.118
REMARK INTRA:                  -0.323
REMARK UNBOUND:                -0.667
REMARK  Name = 
REMARK  10 active torsions:
REMARK  status: ('A' for Active; 'I' for Inactive)
REMARK    1  A    between atoms: C_1  and  C_2
REMARK    2  A    between atoms: C_5  and  N_8
REMARK    3  A    between atoms: N_8  and  C_9
REMARK    4  A    between atoms: N_8  and  C_13
REMARK    5  A    between atoms: C_9  and  C_10
REMARK    6  A    between atoms: C_10  and  C_11
REMARK    7  A    between atoms: C_10  and  O_12
REMARK    8  A    between atoms: C_13  and  C_14
REMARK    9  A    between atoms: C_14  and  C_15
REMARK   10  A    between atoms: C_14  and  O_16
REMARK                            x       y       z     vdW  Elec       q    Type
REMARK                         _______ _______ _______ _____ _____    ______ ____
ROOT
ATOM      1  N   UNL     1       8.924  11.815   6.407  0.00  0.00    +0.000 N 
ENDROOT
BRANCH   1   6
ATOM      2  C   UNL     1       3.581  12.737   4.424  0.00  0.00    +0.000 C 
ATOM      3  C   UNL     1       4.975  12.519   4.927  0.00  0.00    +0.000 A 
ATOM      4  C   UNL     1       5.880  11.742   4.211  0.00  0.00    +0.000 A 
ATOM      5  C   UNL     1       7.176  11.516   4.702  0.00  0.00    +0.000 A 
ATOM      6  C   UNL     1       7.624  12.029   5.933  0.00  0.00    +0.000 A 
ATOM      7  C   UNL     1       6.684  12.811   6.629  0.00  0.00    +0.000 A 
ATOM      8  C   UNL     1       5.385  13.046   6.148  0.00  0.00    +0.000 A 
ENDBRANCH   1   6
BRANCH   1   9
ATOM      9  C   UNL     1       9.797  10.808   5.757  0.00  0.00    +0.000 C 
BRANCH   9  10
ATOM     10  C   UNL     1       9.223   9.373   5.842  0.00  0.00    +0.000 C 
ATOM     11  C   UNL     1       9.830   8.478   4.768  0.00  0.00    +0.000 C 
BRANCH  10  12
ATOM     12  O   UNL     1       9.499   8.782   7.120  0.00  0.00    +0.000 OA
ATOM     13  H   UNL     1       8.923   8.006   7.224  0.00  0.00    +0.000 HD
ENDBRANCH  10  12
ENDBRANCH   9  10
ENDBRANCH   1   9
BRANCH   1  14
ATOM     14  C   UNL     1       9.300  12.159   7.803  0.00  0.00    +0.000 C 
BRANCH  14  15
ATOM     15  C   UNL     1      10.768  11.787   8.121  0.00  0.00    +0.000 C 
ATOM     16  C   UNL     1      11.575  12.954   8.677  0.00  0.00    +0.000 C 
BRANCH  15  17
ATOM     17  O   UNL     1      10.848  10.711   9.055  0.00  0.00    +0.000 OA
ATOM     18  H   UNL     1      11.293  11.089   9.839  0.00  0.00    +0.000 HD
ENDBRANCH  15  17
ENDBRANCH  14  15
ENDBRANCH   1  14
TORSDOF 7
ENDMDL
MODEL 3
REMARK VINA RESULT:    -4.259      3.532      4.455
REMARK INTER + INTRA:          -6.419
REMARK INTER:                  -5.646
REMARK INTRA:                  -0.773
REMARK UNBOUND:                -0.667
REMARK  Name = 
REMARK  10 active torsions:
REMARK  status: ('A' for Active; 'I' for Inactive)
REMARK    1  A    between atoms: C_1  and  C_2
REMARK    2  A    between atoms: C_5  and  N_8
REMARK    3  A    between atoms: N_8  and  C_9
REMARK    4  A    between atoms: N_8  and  C_13
REMARK    5  A    between atoms: C_9  and  C_10
REMARK    6  A    between atoms: C_10  and  C_11
REMARK    7  A    between atoms: C_10  and  O_12
REMARK    8  A    between atoms: C_13  and  C_14
REMARK    9  A    between atoms: C_14  and  C_15
REMARK   10  A    between atoms: C_14  and  O_16
REMARK                            x       y       z     vdW  Elec       q    Type
REMARK                         _______ _______ _______ _____ _____    ______ ____
ROOT
ATOM      1  N   UNL     1      11.814  11.671   6.511  0.00  0.00    +0.000 N 
ENDROOT
BRANCH   1   6
ATOM      2  C   UNL     1       7.468   8.470   4.461  0.00  0.00    +0.000 C 
ATOM      3  C   UNL     1       8.612   9.289   4.978  0.00  0.00    +0.000 A 
ATOM      4  C   UNL     1       9.319   8.894   6.108  0.00  0.00    +0.000 A 
ATOM      5  C   UNL     1      10.371   9.680   6.606  0.00  0.00    +0.000 A 
ATOM      6  C   UNL     1      10.751  10.901   6.021  0.00  0.00    +0.000 A 
ATOM      7  C   UNL     1      10.016  11.268   4.879  0.00  0.00    +0.000 A 
ATOM      8  C   UNL     1       8.964  10.490   4.369  0.00  0.00    +0.000 A 
ENDBRANCH   1   6
BRANCH   1   9
ATOM      9  C   UNL     1      11.542  12.889   7.312  0.00  0.00    +0.000 C 
BRANCH   9  10
ATOM     10  C   UNL     1      11.565  12.621   8.837  0.00  0.00    +0.000 C 
ATOM     11  C   UNL     1      10.174  12.268   9.350  0.00  0.00    +0.000 C 
BRANCH  10  12
ATOM     12  O   UNL     1      12.445  11.534   9.156  0.00  0.00    +0.000 OA
ATOM     13  H   UNL     1      12.118  11.110   9.967  0.00  0.00    +0.000 HD
ENDBRANCH  10  12
ENDBRANCH   9  10
ENDBRANCH   1   9
BRANCH   1  14
ATOM     14  C   UNL     1      13.152  11.633   5.867  0.00  0.00    +0.000 C 
BRANCH  14  15
ATOM     15  C   UNL     1      13.872  10.282   6.095  0.00  0.00    +0.000 C 
ATOM     16  C   UNL     1      14.946   9.992   5.054  0.00  0.00    +0.000 C 
BRANCH  15  17
ATOM     17  O   UNL     1      14.479  10.220   7.385  0.00  0.00    +0.000 OA
ATOM     18  H   UNL     1      14.686   9.273   7.521  0.00  0.00    +0.000 HD
ENDBRANCH  15  17
ENDBRANCH  14  15
ENDBRANCH   1  14
TORSDOF 7
ENDMDL
MODEL 4
REMARK VINA RESULT:    -4.141      3.459      5.239
REMARK INTER + INTRA:          -6.261
REMARK INTER:                  -6.036
REMARK INTRA:                  -0.225
REMARK UNBOUND:                -0.667
REMARK  Name = 
REMARK  10 active torsions:
REMARK  status: ('A' for Active; 'I' for Inactive)
REMARK    1  A    between atoms: C_1  and  C_2
REMARK    2  A    between atoms: C_5  and  N_8
REMARK    3  A    between atoms: N_8  and  C_9
REMARK    4  A    between atoms: N_8  and  C_13
REMARK    5  A    between atoms: C_9  and  C_10
REMARK    6  A    between atoms: C_10  and  C_11
REMARK    7  A    between atoms: C_10  and  O_12
REMARK    8  A    between atoms: C_13  and  C_14
REMARK    9  A    between atoms: C_14  and  C_15
REMARK   10  A    between atoms: C_14  and  O_16
REMARK                            x       y       z     vdW  Elec       q    Type
REMARK                         _______ _______ _______ _____ _____    ______ ____
ROOT
ATOM      1  N   UNL     1      11.263  11.903   7.782  0.00  0.00    +0.000 N 
ENDROOT
BRANCH   1   6
ATOM      2  C   UNL     1       8.164   8.502   4.295  0.00  0.00    +0.000 C 
ATOM      3  C   UNL     1       8.989   9.380   5.186  0.00  0.00    +0.000 A 
ATOM      4  C   UNL     1       9.579   8.873   6.340  0.00  0.00    +0.000 A 
ATOM      5  C   UNL     1      10.326   9.707   7.187  0.00  0.00    +0.000 A 
ATOM      6  C   UNL     1      10.500  11.082   6.943  0.00  0.00    +0.000 A 
ATOM      7  C   UNL     1       9.892  11.559   5.767  0.00  0.00    +0.000 A 
ATOM      8  C   UNL     1       9.144  10.735   4.910  0.00  0.00    +0.000 A 
ENDBRANCH   1   6
BRANCH   1   9
ATOM      9  C   UNL     1      12.742  11.800   7.780  0.00  0.00    +0.000 C 
BRANCH   9  10
ATOM     10  C   UNL     1      13.277  10.875   6.660  0.00  0.00    +0.000 C 
ATOM     11  C   UNL     1      13.906  11.689   5.535  0.00  0.00    +0.000 C 
BRANCH  10  12
ATOM     12  O   UNL     1      14.272   9.975   7.167  0.00  0.00    +0.000 OA
ATOM     13  H   UNL     1      14.002   9.698   8.058  0.00  0.00    +0.000 HD
ENDBRANCH  10  12
ENDBRANCH   9  10
ENDBRANCH   1   9
BRANCH   1  14
ATOM     14  C   UNL     1      10.680  12.497   9.013  0.00  0.00    +0.000 C 
BRANCH  14  15
ATOM     15  C   UNL     1      11.399  12.010  10.294  0.00  0.00    +0.000 C 
ATOM     16  C   UNL     1      10.984  12.778  11.543  0.00  0.00    +0.000 C 
BRANCH  15  17
ATOM     17  O   UNL     1      11.170  10.622  10.532  0.00  0.00    +0.000 OA
ATOM     18  H   UNL     1      10.465  10.371   9.902  0.00  0.00    +0.000 HD
ENDBRANCH  15  17
ENDBRANCH  14  15
ENDBRANCH   1  14
TORSDOF 7
ENDMDL
MODEL 5
REMARK VINA RESULT:    -4.000      2.710      4.628
REMARK INTER + INTRA:          -6.070
REMARK INTER:                  -5.722
REMARK INTRA:                  -0.348
REMARK UNBOUND:                -0.667
REMARK  Name = 
REMARK  10 active torsions:
REMARK  status: ('A' for Active; 'I' for Inactive)
REMARK    1  A    between atoms: C_1  and  C_2
REMARK    2  A    between atoms: C_5  and  N_8
REMARK    3  A    between atoms: N_8  and  C_9
REMARK    4  A    between atoms: N_8  and  C_13
REMARK    5  A    between atoms: C_9  and  C_10
REMARK    6  A    between atoms: C_10  and  C_11
REMARK    7  A    between atoms: C_10  and  O_12
REMARK    8  A    between atoms: C_13  and  C_14
REMARK    9  A    between atoms: C_14  and  C_15
REMARK   10  A    between atoms: C_14  and  O_16
REMARK                            x       y       z     vdW  Elec       q    Type
REMARK                         _______ _______ _______ _____ _____    ______ ____
ROOT
ATOM      1  N   UNL     1      11.013  11.846   6.036  0.00  0.00    +0.000 N 
ENDROOT
BRANCH   1   6
ATOM      2  C   UNL     1       7.079   8.045   4.192  0.00  0.00    +0.000 C 
ATOM      3  C   UNL     1       8.091   9.028   4.693  0.00  0.00    +0.000 A 
ATOM      4  C   UNL     1       7.813  10.391   4.715  0.00  0.00    +0.000 A 
ATOM      5  C   UNL     1       8.777  11.311   5.159  0.00  0.00    +0.000 A 
ATOM      6  C   UNL     1      10.063  10.925   5.576  0.00  0.00    +0.000 A 
ATOM      7  C   UNL     1      10.308   9.540   5.543  0.00  0.00    +0.000 A 
ATOM      8  C   UNL     1       9.353   8.608   5.104  0.00  0.00    +0.000 A 
ENDBRANCH   1   6
BRANCH   1   9
ATOM      9  C   UNL     1      12.397  11.813   5.506  0.00  0.00    +0.000 C 
BRANCH   9  10
ATOM     10  C   UNL     1      13.410  11.209   6.510  0.00  0.00    +0.000 C 
ATOM     11  C   UNL     1      14.249  10.122   5.849  0.00  0.00    +0.000 C 
BRANCH  10  12
ATOM     12  O   UNL     1      14.300  12.216   7.011  0.00  0.00    +0.000 OA
ATOM     13  H   UNL     1      14.423  12.063   7.963  0.00  0.00    +0.000 HD
ENDBRANCH  10  12
ENDBRANCH   9  10
ENDBRANCH   1   9
BRANCH   1  14
ATOM     14  C   UNL     1      10.865  12.508   7.357  0.00  0.00    +0.000 C 
BRANCH  14  15
ATOM     15  C   UNL     1      10.475  11.507   8.471  0.00  0.00    +0.000 C 
ATOM     16  C   UNL     1      11.125  11.821   9.814  0.00  0.00    +0.000 C 
BRANCH  15  17
ATOM     17  O   UNL     1       9.062  11.459   8.665  0.00  0.00    +0.000 OA
ATOM     18  H   UNL     1       8.781  10.613   8.261  0.00  0.00    +0.000 HD
ENDBRANCH  15  17
ENDBRANCH  14  15
ENDBRANCH   1  14
TORSDOF 7
ENDMDL
MODEL 6
REMARK VINA RESULT:    -3.987      1.257      3.549
REMARK INTER + INTRA:          -6.052
REMARK INTER:                  -5.604
REMARK INTRA:                  -0.449
REMARK UNBOUND:                -0.667
REMARK  Name = 
REMARK  10 active torsions:
REMARK  status: ('A' for Active; 'I' for Inactive)
REMARK    1  A    between atoms: C_1  and  C_2
REMARK    2  A    between atoms: C_5  and  N_8
REMARK    3  A    between atoms: N_8  and  C_9
REMARK    4  A    between atoms: N_8  and  C_13
REMARK    5  A    between atoms: C_9  and  C_10
REMARK    6  A    between atoms: C_10  and  C_11
REMARK    7  A    between atoms: C_10  and  O_12
REMARK    8  A    between atoms: C_13  and  C_14
REMARK    9  A    between atoms: C_14  and  C_15
REMARK   10  A    between atoms: C_14  and  O_16
REMARK                            x       y       z     vdW  Elec       q    Type
REMARK                         _______ _______ _______ _____ _____    ______ ____
ROOT
ATOM      1  N   UNL     1       8.263  11.994   5.533  0.00  0.00    +0.000 N 
ENDROOT
BRANCH   1   6
ATOM      2  C   UNL     1       2.605  12.949   4.903  0.00  0.00    +0.000 C 
ATOM      3  C   UNL     1       4.068  12.681   5.081  0.00  0.00    +0.000 A 
ATOM      4  C   UNL     1       4.785  13.284   6.109  0.00  0.00    +0.000 A 
ATOM      5  C   UNL     1       6.162  13.053   6.253  0.00  0.00    +0.000 A 
ATOM      6  C   UNL     1       6.893  12.236   5.372  0.00  0.00    +0.000 A 
ATOM      7  C   UNL     1       6.136  11.641   4.346  0.00  0.00    +0.000 A 
ATOM      8  C   UNL     1       4.757  11.862   4.192  0.00  0.00    +0.000 A 
ENDBRANCH   1   6
BRANCH   1   9
ATOM      9  C   UNL     1       9.000  11.193   4.526  0.00  0.00    +0.000 C 
BRANCH   9  10
ATOM     10  C   UNL     1       9.271   9.742   4.996  0.00  0.00    +0.000 C 
ATOM     11  C   UNL     1       8.239   8.781   4.417  0.00  0.00    +0.000 C 
BRANCH  10  12
ATOM     12  O   UNL     1      10.571   9.301   4.581  0.00  0.00    +0.000 OA
ATOM     13  H   UNL     1      10.598   9.314   3.610  0.00  0.00    +0.000 HD
ENDBRANCH  10  12
ENDBRANCH   9  10
ENDBRANCH   1   9
BRANCH   1  14
ATOM     14  C   UNL     1       8.903  12.055   6.872  0.00  0.00    +0.000 C 
BRANCH  14  15
ATOM     15  C   UNL     1       9.725  13.351   7.069  0.00  0.00    +0.000 C 
ATOM     16  C   UNL     1       9.992  13.676   8.534  0.00  0.00    +0.000 C 
BRANCH  15  17
ATOM     17  O   UNL     1      10.981  13.286   6.395  0.00  0.00    +0.000 OA
ATOM     18  H   UNL     1      11.551  13.931   6.860  0.00  0.00    +0.000 HD
ENDBRANCH  15  17
ENDBRANCH  14  15
ENDBRANCH   1  14
TORSDOF 7
ENDMDL
MODEL 7
REMARK VINA RESULT:    -3.824     19.376     20.915
REMARK INTER + INTRA:          -5.832
REMARK INTER:                  -5.332
REMARK INTRA:                  -0.500
REMARK UNBOUND:                -0.667
REMARK  Name = 
REMARK  10 active torsions:
REMARK  status: ('A' for Active; 'I' for Inactive)
REMARK    1  A    between atoms: C_1  and  C_2
REMARK    2  A    between atoms: C_5  and  N_8
REMARK    3  A    between atoms: N_8  and  C_9
REMARK    4  A    between atoms: N_8  and  C_13
REMARK    5  A    between atoms: C_9  and  C_10
REMARK    6  A    between atoms: C_10  and  C_11
REMARK    7  A    between atoms: C_10  and  O_12
REMARK    8  A    between atoms: C_13  and  C_14
REMARK    9  A    between atoms: C_14  and  C_15
REMARK   10  A    between atoms: C_14  and  O_16
REMARK                            x       y       z     vdW  Elec       q    Type
REMARK                         _______ _______ _______ _____ _____    ______ ____
ROOT
ATOM      1  N   UNL     1       1.520   9.475  25.517  0.00  0.00    +0.000 N 
ENDROOT
BRANCH   1   6
ATOM      2  C   UNL     1       7.247   9.508  24.792  0.00  0.00    +0.000 C 
ATOM      3  C   UNL     1       5.764   9.487  25.001  0.00  0.00    +0.000 A 
ATOM      4  C   UNL     1       4.981   8.472  24.462  0.00  0.00    +0.000 A 
ATOM      5  C   UNL     1       3.587   8.473  24.636  0.00  0.00    +0.000 A 
ATOM      6  C   UNL     1       2.907   9.490  25.330  0.00  0.00    +0.000 A 
ATOM      7  C   UNL     1       3.731  10.499  25.864  0.00  0.00    +0.000 A 
ATOM      8  C   UNL     1       5.126  10.508  25.699  0.00  0.00    +0.000 A 
ENDBRANCH   1   6
BRANCH   1   9
ATOM      9  C   UNL     1       0.674   8.541  24.734  0.00  0.00    +0.000 C 
BRANCH   9  10
ATOM     10  C   UNL     1       0.239   7.299  25.548  0.00  0.00    +0.000 C 
ATOM     11  C   UNL     1      -1.152   7.494  26.140  0.00  0.00    +0.000 C 
BRANCH  10  12
ATOM     12  O   UNL     1       0.210   6.126  24.722  0.00  0.00    +0.000 OA
ATOM     13  H   UNL     1       0.158   5.349  25.304  0.00  0.00    +0.000 HD
ENDBRANCH  10  12
ENDBRANCH   9  10
ENDBRANCH   1   9
BRANCH   1  14
ATOM     14  C   UNL     1       0.804  10.657  26.062  0.00  0.00    +0.000 C 
BRANCH  14  15
ATOM     15  C   UNL     1      -0.475  10.989  25.256  0.00  0.00    +0.000 C 
ATOM     16  C   UNL     1      -1.691  11.242  26.139  0.00  0.00    +0.000 C 
BRANCH  15  17
ATOM     17  O   UNL     1      -0.289  12.131  24.422  0.00  0.00    +0.000 OA
ATOM     18  H   UNL     1      -0.417  12.900  25.013  0.00  0.00    +0.000 HD
ENDBRANCH  15  17
ENDBRANCH  14  15
ENDBRANCH   1  14
TORSDOF 7
ENDMDL
MODEL 8
REMARK VINA RESULT:    -3.785      2.331      2.811
REMARK INTER + INTRA:          -5.779
REMARK INTER:                  -5.423
REMARK INTRA:                  -0.356
REMARK UNBOUND:                -0.667
REMARK  Name = 
REMARK  10 active torsions:
REMARK  status: ('A' for Active; 'I' for Inactive)
REMARK    1  A    between atoms: C_1  and  C_2
REMARK    2  A    between atoms: C_5  and  N_8
REMARK    3  A    between atoms: N_8  and  C_9
REMARK    4  A    between atoms: N_8  and  C_13
REMARK    5  A    between atoms: C_9  and  C_10
REMARK    6  A    between atoms: C_10  and  C_11
REMARK    7  A    between atoms: C_10  and  O_12
REMARK    8  A    between atoms: C_13  and  C_14
REMARK    9  A    between atoms: C_14  and  C_15
REMARK   10  A    between atoms: C_14  and  O_16
REMARK                            x       y       z     vdW  Elec       q    Type
REMARK                         _______ _______ _______ _____ _____    ______ ____
ROOT
ATOM      1  N   UNL     1      10.460  11.038   6.121  0.00  0.00    +0.000 N 
ENDROOT
BRANCH   1   6
ATOM      2  C   UNL     1       5.037  11.896   4.335  0.00  0.00    +0.000 C 
ATOM      3  C   UNL     1       6.453  11.687   4.779  0.00  0.00    +0.000 A 
ATOM      4  C   UNL     1       7.168  10.563   4.378  0.00  0.00    +0.000 A 
ATOM      5  C   UNL     1       8.484  10.357   4.822  0.00  0.00    +0.000 A 
ATOM      6  C   UNL     1       9.140  11.240   5.698  0.00  0.00    +0.000 A 
ATOM      7  C   UNL     1       8.387  12.366   6.081  0.00  0.00    +0.000 A 
ATOM      8  C   UNL     1       7.071  12.586   5.643  0.00  0.00    +0.000 A 
ENDBRANCH   1   6
BRANCH   1   9
ATOM      9  C   UNL     1      11.088  11.984   7.074  0.00  0.00    +0.000 C 
BRANCH   9  10
ATOM     10  C   UNL     1      11.230  11.396   8.499  0.00  0.00    +0.000 C 
ATOM     11  C   UNL     1      10.368  12.164   9.494  0.00  0.00    +0.000 C 
BRANCH  10  12
ATOM     12  O   UNL     1      10.825  10.020   8.530  0.00  0.00    +0.000 OA
ATOM     13  H   UNL     1      11.624   9.470   8.470  0.00  0.00    +0.000 HD
ENDBRANCH  10  12
ENDBRANCH   9  10
ENDBRANCH   1   9
BRANCH   1  14
ATOM     14  C   UNL     1      11.416  10.246   5.305  0.00  0.00    +0.000 C 
BRANCH  14  15
ATOM     15  C   UNL     1      12.759  10.986   5.098  0.00  0.00    +0.000 C 
ATOM     16  C   UNL     1      13.870  10.078   4.582  0.00  0.00    +0.000 C 
BRANCH  15  17
ATOM     17  O   UNL     1      12.625  12.079   4.192  0.00  0.00    +0.000 OA
ATOM     18  H   UNL     1      12.627  12.878   4.757  0.00  0.00    +0.000 HD
ENDBRANCH  15  17
ENDBRANCH  14  15
ENDBRANCH   1  14
TORSDOF 7
ENDMDL
MODEL 9
REMARK VINA RESULT:    -3.780      1.618      5.439
REMARK INTER + INTRA:          -5.773
REMARK INTER:                  -5.180
REMARK INTRA:                  -0.593
REMARK UNBOUND:                -0.667
REMARK  Name = 
REMARK  10 active torsions:
REMARK  status: ('A' for Active; 'I' for Inactive)
REMARK    1  A    between atoms: C_1  and  C_2
REMARK    2  A    between atoms: C_5  and  N_8
REMARK    3  A    between atoms: N_8  and  C_9
REMARK    4  A    between atoms: N_8  and  C_13
REMARK    5  A    between atoms: C_9  and  C_10
REMARK    6  A    between atoms: C_10  and  C_11
REMARK    7  A    between atoms: C_10  and  O_12
REMARK    8  A    between atoms: C_13  and  C_14
REMARK    9  A    between atoms: C_14  and  C_15
REMARK   10  A    between atoms: C_14  and  O_16
REMARK                            x       y       z     vdW  Elec       q    Type
REMARK                         _______ _______ _______ _____ _____    ______ ____
ROOT
ATOM      1  N   UNL     1       8.816  12.247   5.652  0.00  0.00    +0.000 N 
ENDROOT
BRANCH   1   6
ATOM      2  C   UNL     1      11.323  12.376  10.851  0.00  0.00    +0.000 C 
ATOM      3  C   UNL     1      10.694  12.352   9.492  0.00  0.00    +0.000 A 
ATOM      4  C   UNL     1       9.962  13.438   9.024  0.00  0.00    +0.000 A 
ATOM      5  C   UNL     1       9.349  13.397   7.761  0.00  0.00    +0.000 A 
ATOM      6  C   UNL     1       9.414  12.273   6.919  0.00  0.00    +0.000 A 
ATOM      7  C   UNL     1      10.163  11.194   7.423  0.00  0.00    +0.000 A 
ATOM      8  C   UNL     1      10.784  11.222   8.683  0.00  0.00    +0.000 A 
ENDBRANCH   1   6
BRANCH   1   9
ATOM      9  C   UNL     1       9.386  11.398   4.578  0.00  0.00    +0.000 C 
BRANCH   9  10
ATOM     10  C   UNL     1       8.654  10.041   4.433  0.00  0.00    +0.000 C 
ATOM     11  C   UNL     1       9.598   8.879   4.720  0.00  0.00    +0.000 C 
BRANCH  10  12
ATOM     12  O   UNL     1       7.550   9.953   5.344  0.00  0.00    +0.000 OA
ATOM     13  H   UNL     1       6.821  10.487   4.987  0.00  0.00    +0.000 HD
ENDBRANCH  10  12
ENDBRANCH   9  10
ENDBRANCH   1   9
BRANCH   1  14
ATOM     14  C   UNL     1       7.974  13.374   5.176  0.00  0.00    +0.000 C 
BRANCH  14  15
ATOM     15  C   UNL     1       6.469  13.132   5.443  0.00  0.00    +0.000 C 
ATOM     16  C   UNL     1       5.699  12.712   4.196  0.00  0.00    +0.000 C 
BRANCH  15  17
ATOM     17  O   UNL     1       6.264  12.136   6.444  0.00  0.00    +0.000 OA
ATOM     18  H   UNL     1       5.883  11.372   5.966  0.00  0.00    +0.000 HD
ENDBRANCH  15  17
ENDBRANCH  14  15
ENDBRANCH   1  14
TORSDOF 7
ENDMDL
