MODEL 1
REMARK VINA RESULT:    -5.443      0.000      0.000
REMARK INTER + INTRA:          -7.795
REMARK INTER:                  -7.352
REMARK INTRA:                  -0.443
REMARK UNBOUND:                -0.443
REMARK  Name = 
REMARK  10 active torsions:
REMARK  status: ('A' for Active; 'I' for Inactive)
REMARK    1  A    between atoms: C_1  and  C_2
REMARK    2  A    between atoms: C_5  and  N_8
REMARK    3  A    between atoms: N_8  and  C_9
REMARK    4  A    between atoms: N_8  and  C_13
REMARK    5  A    between atoms: C_9  and  C_10
REMARK    6  A    between atoms: C_10  and  C_11
REMARK    7  A    between atoms: C_10  and  O_12
REMARK    8  A    between atoms: C_13  and  C_14
REMARK    9  A    between atoms: C_14  and  C_15
REMARK   10  A    between atoms: C_14  and  O_16
REMARK                            x       y       z     vdW  Elec       q    Type
REMARK                         _______ _______ _______ _____ _____    ______ ____
ROOT
ATOM      1  N   UNL     1       7.257  -8.857 -18.499  0.00  0.00    +0.000 N 
ENDROOT
BRANCH   1   6
ATOM      2  C   UNL     1      11.302 -11.263 -21.842  0.00  0.00    +0.000 C 
ATOM      3  C   UNL     1      10.270 -10.629 -20.960  0.00  0.00    +0.000 A 
ATOM      4  C   UNL     1       9.723 -11.325 -19.887  0.00  0.00    +0.000 A 
ATOM      5  C   UNL     1       8.735 -10.736 -19.082  0.00  0.00    +0.000 A 
ATOM      6  C   UNL     1       8.229  -9.445 -19.318  0.00  0.00    +0.000 A 
ATOM      7  C   UNL     1       8.806  -8.771 -20.410  0.00  0.00    +0.000 A 
ATOM      8  C   UNL     1       9.797  -9.347 -21.222  0.00  0.00    +0.000 A 
ENDBRANCH   1   6
BRANCH   1   9
ATOM      9  C   UNL     1       5.877  -8.664 -19.005  0.00  0.00    +0.000 C 
BRANCH   9  10
ATOM     10  C   UNL     1       4.950  -9.864 -18.693  0.00  0.00    +0.000 C 
ATOM     11  C   UNL     1       3.483  -9.464 -18.806  0.00  0.00    +0.000 C 
BRANCH  10  12
ATOM     12  O   UNL     1       5.186 -10.948 -19.602  0.00  0.00    +0.000 OA
ATOM     13  H   UNL     1       5.208 -10.585 -20.503  0.00  0.00    +0.000 HD
ENDBRANCH  10  12
ENDBRANCH   9  10
ENDBRANCH   1   9
BRANCH   1  14
ATOM     14  C   UNL     1       7.637  -7.972 -17.368  0.00  0.00    +0.000 C 
BRANCH  14  15
ATOM     15  C   UNL     1       7.403  -6.477 -17.693  0.00  0.00    +0.000 C 
ATOM     16  C   UNL     1       7.043  -5.646 -16.466  0.00  0.00    +0.000 C 
BRANCH  15  17
ATOM     17  O   UNL     1       8.547  -5.885 -18.307  0.00  0.00    +0.000 OA
ATOM     18  H   UNL     1       8.357  -5.904 -19.266  0.00  0.00    +0.000 HD
ENDBRANCH  15  17
ENDBRANCH  14  15
ENDBRANCH   1  14
TORSDOF 7
ENDMDL
MODEL 2
REMARK VINA RESULT:    -5.371      1.888      3.762
REMARK INTER + INTRA:          -7.698
REMARK INTER:                  -7.178
REMARK INTRA:                  -0.519
REMARK UNBOUND:                -0.443
REMARK  Name = 
REMARK  10 active torsions:
REMARK  status: ('A' for Active; 'I' for Inactive)
REMARK    1  A    between atoms: C_1  and  C_2
REMARK    2  A    between atoms: C_5  and  N_8
REMARK    3  A    between atoms: N_8  and  C_9
REMARK    4  A    between atoms: N_8  and  C_13
REMARK    5  A    between atoms: C_9  and  C_10
REMARK    6  A    between atoms: C_10  and  C_11
REMARK    7  A    between atoms: C_10  and  O_12
REMARK    8  A    between atoms: C_13  and  C_14
REMARK    9  A    between atoms: C_14  and  C_15
REMARK   10  A    between atoms: C_14  and  O_16
REMARK                            x       y       z     vdW  Elec       q    Type
REMARK                         _______ _______ _______ _____ _____    ______ ____
ROOT
ATOM      1  N   UNL     1       7.848  -9.572 -18.580  0.00  0.00    +0.000 N 
ENDROOT
BRANCH   1   6
ATOM      2  C   UNL     1      11.966 -10.363 -22.549  0.00  0.00    +0.000 C 
ATOM      3  C   UNL     1      10.881 -10.170 -21.534  0.00  0.00    +0.000 A 
ATOM      4  C   UNL     1      10.108  -9.013 -21.526  0.00  0.00    +0.000 A 
ATOM      5  C   UNL     1       9.113  -8.824 -20.554  0.00  0.00    +0.000 A 
ATOM      6  C   UNL     1       8.856  -9.759 -19.535  0.00  0.00    +0.000 A 
ATOM      7  C   UNL     1       9.655 -10.917 -19.575  0.00  0.00    +0.000 A 
ATOM      8  C   UNL     1      10.652 -11.120 -20.543  0.00  0.00    +0.000 A 
ENDBRANCH   1   6
BRANCH   1   9
ATOM      9  C   UNL     1       7.037  -8.331 -18.588  0.00  0.00    +0.000 C 
BRANCH   9  10
ATOM     10  C   UNL     1       7.668  -7.197 -17.744  0.00  0.00    +0.000 C 
ATOM     11  C   UNL     1       7.905  -5.953 -18.592  0.00  0.00    +0.000 C 
BRANCH  10  12
ATOM     12  O   UNL     1       6.814  -6.833 -16.650  0.00  0.00    +0.000 OA
ATOM     13  H   UNL     1       6.730  -7.604 -16.064  0.00  0.00    +0.000 HD
ENDBRANCH  10  12
ENDBRANCH   9  10
ENDBRANCH   1   9
BRANCH   1  14
ATOM     14  C   UNL     1       7.879 -10.290 -17.280  0.00  0.00    +0.000 C 
BRANCH  14  15
ATOM     15  C   UNL     1       6.646 -11.207 -17.090  0.00  0.00    +0.000 C 
ATOM     16  C   UNL     1       6.328 -12.048 -18.320  0.00  0.00    +0.000 C 
BRANCH  15  17
ATOM     17  O   UNL     1       6.812 -12.090 -15.982  0.00  0.00    +0.000 OA
ATOM     18  H   UNL     1       6.504 -12.961 -16.304  0.00  0.00    +0.000 HD
ENDBRANCH  15  17
ENDBRANCH  14  15
ENDBRANCH   1  14
TORSDOF 7
ENDMDL
MODEL 3
REMARK VINA RESULT:    -5.267      2.857      4.875
REMARK INTER + INTRA:          -7.558
REMARK INTER:                  -7.112
REMARK INTRA:                  -0.447
REMARK UNBOUND:                -0.443
REMARK  Name = 
REMARK  10 active torsions:
REMARK  status: ('A' for Active; 'I' for Inactive)
REMARK    1  A    between atoms: C_1  and  C_2
REMARK    2  A    between atoms: C_5  and  N_8
REMARK    3  A    between atoms: N_8  and  C_9
REMARK    4  A    between atoms: N_8  and  C_13
REMARK    5  A    between atoms: C_9  and  C_10
REMARK    6  A    between atoms: C_10  and  C_11
REMARK    7  A    between atoms: C_10  and  O_12
REMARK    8  A    between atoms: C_13  and  C_14
REMARK    9  A    between atoms: C_14  and  C_15
REMARK   10  A    between atoms: C_14  and  O_16
REMARK                            x       y       z     vdW  Elec       q    Type
REMARK                         _______ _______ _______ _____ _____    ______ ____
ROOT
ATOM      1  N   UNL     1       9.088  -9.462 -20.798  0.00  0.00    +0.000 N 
ENDROOT
BRANCH   1   6
ATOM      2  C   UNL     1       6.447 -12.042 -16.360  0.00  0.00    +0.000 C 
ATOM      3  C   UNL     1       7.114 -11.355 -17.512  0.00  0.00    +0.000 A 
ATOM      4  C   UNL     1       6.870 -11.758 -18.821  0.00  0.00    +0.000 A 
ATOM      5  C   UNL     1       7.521 -11.131 -19.896  0.00  0.00    +0.000 A 
ATOM      6  C   UNL     1       8.457 -10.096 -19.720  0.00  0.00    +0.000 A 
ATOM      7  C   UNL     1       8.677  -9.713 -18.384  0.00  0.00    +0.000 A 
ATOM      8  C   UNL     1       8.031 -10.330 -17.300  0.00  0.00    +0.000 A 
ENDBRANCH   1   6
BRANCH   1   9
ATOM      9  C   UNL     1      10.492  -9.795 -21.139  0.00  0.00    +0.000 C 
BRANCH   9  10
ATOM     10  C   UNL     1      10.833 -11.284 -20.887  0.00  0.00    +0.000 C 
ATOM     11  C   UNL     1      10.431 -12.145 -22.079  0.00  0.00    +0.000 C 
BRANCH  10  12
ATOM     12  O   UNL     1      12.239 -11.460 -20.666  0.00  0.00    +0.000 OA
ATOM     13  H   UNL     1      12.384 -12.370 -20.357  0.00  0.00    +0.000 HD
ENDBRANCH  10  12
ENDBRANCH   9  10
ENDBRANCH   1   9
BRANCH   1  14
ATOM     14  C   UNL     1       8.622  -8.140 -21.292  0.00  0.00    +0.000 C 
BRANCH  14  15
ATOM     15  C   UNL     1       9.608  -7.002 -20.935  0.00  0.00    +0.000 C 
ATOM     16  C   UNL     1       9.644  -5.890 -21.976  0.00  0.00    +0.000 C 
BRANCH  15  17
ATOM     17  O   UNL     1       9.300  -6.415 -19.672  0.00  0.00    +0.000 OA
ATOM     18  H   UNL     1       8.324  -6.447 -19.610  0.00  0.00    +0.000 HD
ENDBRANCH  15  17
ENDBRANCH  14  15
ENDBRANCH   1  14
TORSDOF 7
ENDMDL
MODEL 4
REMARK VINA RESULT:    -5.232      1.852      2.436
REMARK INTER + INTRA:          -7.510
REMARK INTER:                  -6.795
REMARK INTRA:                  -0.715
REMARK UNBOUND:                -0.443
REMARK  Name = 
REMARK  10 active torsions:
REMARK  status: ('A' for Active; 'I' for Inactive)
REMARK    1  A    between atoms: C_1  and  C_2
REMARK    2  A    between atoms: C_5  and  N_8
REMARK    3  A    between atoms: N_8  and  C_9
REMARK    4  A    between atoms: N_8  and  C_13
REMARK    5  A    between atoms: C_9  and  C_10
REMARK    6  A    between atoms: C_10  and  C_11
REMARK    7  A    between atoms: C_10  and  O_12
REMARK    8  A    between atoms: C_13  and  C_14
REMARK    9  A    between atoms: C_14  and  C_15
REMARK   10  A    between atoms: C_14  and  O_16
REMARK                            x       y       z     vdW  Elec       q    Type
REMARK                         _______ _______ _______ _____ _____    ______ ____
ROOT
ATOM      1  N   UNL     1       7.703  -9.460 -19.239  0.00  0.00    +0.000 N 
ENDROOT
BRANCH   1   6
ATOM      2  C   UNL     1      12.624 -10.694 -21.994  0.00  0.00    +0.000 C 
ATOM      3  C   UNL     1      11.334 -10.385 -21.297  0.00  0.00    +0.000 A 
ATOM      4  C   UNL     1      10.653  -9.199 -21.547  0.00  0.00    +0.000 A 
ATOM      5  C   UNL     1       9.460  -8.901 -20.868  0.00  0.00    +0.000 A 
ATOM      6  C   UNL     1       8.903  -9.754 -19.898  0.00  0.00    +0.000 A 
ATOM      7  C   UNL     1       9.617 -10.945 -19.672  0.00  0.00    +0.000 A 
ATOM      8  C   UNL     1      10.810 -11.256 -20.345  0.00  0.00    +0.000 A 
ENDBRANCH   1   6
BRANCH   1   9
ATOM      9  C   UNL     1       6.796 -10.556 -18.821  0.00  0.00    +0.000 C 
BRANCH   9  10
ATOM     10  C   UNL     1       6.631 -10.645 -17.284  0.00  0.00    +0.000 C 
ATOM     11  C   UNL     1       6.510 -12.095 -16.832  0.00  0.00    +0.000 C 
BRANCH  10  12
ATOM     12  O   UNL     1       7.757 -10.063 -16.611  0.00  0.00    +0.000 OA
ATOM     13  H   UNL     1       8.376 -10.777 -16.386  0.00  0.00    +0.000 HD
ENDBRANCH  10  12
ENDBRANCH   9  10
ENDBRANCH   1   9
BRANCH   1  14
ATOM     14  C   UNL     1       7.052  -8.132 -19.383  0.00  0.00    +0.000 C 
BRANCH  14  15
ATOM     15  C   UNL     1       7.604  -7.098 -18.373  0.00  0.00    +0.000 C 
ATOM     16  C   UNL     1       7.412  -5.655 -18.826  0.00  0.00    +0.000 C 
BRANCH  15  17
ATOM     17  O   UNL     1       7.001  -7.241 -17.088  0.00  0.00    +0.000 OA
ATOM     18  H   UNL     1       6.751  -8.185 -17.030  0.00  0.00    +0.000 HD
ENDBRANCH  15  17
ENDBRANCH  14  15
ENDBRANCH   1  14
TORSDOF 7
ENDMDL
MODEL 5
REMARK VINA RESULT:    -5.229      2.880      5.287
REMARK INTER + INTRA:          -7.506
REMARK INTER:                  -6.838
REMARK INTRA:                  -0.669
REMARK UNBOUND:                -0.443
REMARK  Name = 
REMARK  10 active torsions:
REMARK  status: ('A' for Active; 'I' for Inactive)
REMARK    1  A    between atoms: C_1  and  C_2
REMARK    2  A    between atoms: C_5  and  N_8
REMARK    3  A    between atoms: N_8  and  C_9
REMARK    4  A    between atoms: N_8  and  C_13
REMARK    5  A    between atoms: C_9  and  C_10
REMARK    6  A    between atoms: C_10  and  C_11
REMARK    7  A    between atoms: C_10  and  O_12
REMARK    8  A    between atoms: C_13  and  C_14
REMARK    9  A    between atoms: C_14  and  C_15
REMARK   10  A    between atoms: C_14  and  O_16
REMARK                            x       y       z     vdW  Elec       q    Type
REMARK                         _______ _______ _______ _____ _____    ______ ____
ROOT
ATOM      1  N   UNL     1       9.234  -7.881 -20.880  0.00  0.00    +0.000 N 
ENDROOT
BRANCH   1   6
ATOM      2  C   UNL     1       7.112 -11.297 -16.739  0.00  0.00    +0.000 C 
ATOM      3  C   UNL     1       7.684 -10.408 -17.801  0.00  0.00    +0.000 A 
ATOM      4  C   UNL     1       7.478  -9.033 -17.769  0.00  0.00    +0.000 A 
ATOM      5  C   UNL     1       7.991  -8.208 -18.783  0.00  0.00    +0.000 A 
ATOM      6  C   UNL     1       8.709  -8.711 -19.883  0.00  0.00    +0.000 A 
ATOM      7  C   UNL     1       8.900 -10.105 -19.881  0.00  0.00    +0.000 A 
ATOM      8  C   UNL     1       8.394 -10.941 -18.872  0.00  0.00    +0.000 A 
ENDBRANCH   1   6
BRANCH   1   9
ATOM      9  C   UNL     1       8.569  -6.596 -21.205  0.00  0.00    +0.000 C 
BRANCH   9  10
ATOM     10  C   UNL     1       9.460  -5.366 -20.904  0.00  0.00    +0.000 C 
ATOM     11  C   UNL     1       8.610  -4.144 -20.576  0.00  0.00    +0.000 C 
BRANCH  10  12
ATOM     12  O   UNL     1      10.325  -5.618 -19.788  0.00  0.00    +0.000 OA
ATOM     13  H   UNL     1      11.200  -5.861 -20.134  0.00  0.00    +0.000 HD
ENDBRANCH  10  12
ENDBRANCH   9  10
ENDBRANCH   1   9
BRANCH   1  14
ATOM     14  C   UNL     1      10.098  -8.426 -21.959  0.00  0.00    +0.000 C 
BRANCH  14  15
ATOM     15  C   UNL     1      11.567  -8.594 -21.502  0.00  0.00    +0.000 C 
ATOM     16  C   UNL     1      12.421  -9.368 -22.499  0.00  0.00    +0.000 C 
BRANCH  15  17
ATOM     17  O   UNL     1      12.194  -7.334 -21.269  0.00  0.00    +0.000 OA
ATOM     18  H   UNL     1      12.455  -7.013 -22.155  0.00  0.00    +0.000 HD
ENDBRANCH  15  17
ENDBRANCH  14  15
ENDBRANCH   1  14
TORSDOF 7
ENDMDL
MODEL 6
REMARK VINA RESULT:    -5.216      3.449      4.824
REMARK INTER + INTRA:          -7.489
REMARK INTER:                  -6.935
REMARK INTRA:                  -0.554
REMARK UNBOUND:                -0.443
REMARK  Name = 
REMARK  10 active torsions:
REMARK  status: ('A' for Active; 'I' for Inactive)
REMARK    1  A    between atoms: C_1  and  C_2
REMARK    2  A    between atoms: C_5  and  N_8
REMARK    3  A    between atoms: N_8  and  C_9
REMARK    4  A    between atoms: N_8  and  C_13
REMARK    5  A    between atoms: C_9  and  C_10
REMARK    6  A    between atoms: C_10  and  C_11
REMARK    7  A    between atoms: C_10  and  O_12
REMARK    8  A    between atoms: C_13  and  C_14
REMARK    9  A    between atoms: C_14  and  C_15
REMARK   10  A    between atoms: C_14  and  O_16
REMARK                            x       y       z     vdW  Elec       q    Type
REMARK                         _______ _______ _______ _____ _____    ______ ____
ROOT
ATOM      1  N   UNL     1       7.248  -5.612 -17.507  0.00  0.00    +0.000 N 
ENDROOT
BRANCH   1   6
ATOM      2  C   UNL     1       6.195 -11.149 -18.755  0.00  0.00    +0.000 C 
ATOM      3  C   UNL     1       6.483  -9.711 -18.451  0.00  0.00    +0.000 A 
ATOM      4  C   UNL     1       7.518  -9.356 -17.592  0.00  0.00    +0.000 A 
ATOM      5  C   UNL     1       7.765  -8.007 -17.287  0.00  0.00    +0.000 A 
ATOM      6  C   UNL     1       6.984  -6.956 -17.800  0.00  0.00    +0.000 A 
ATOM      7  C   UNL     1       5.948  -7.351 -18.666  0.00  0.00    +0.000 A 
ATOM      8  C   UNL     1       5.692  -8.696 -18.981  0.00  0.00    +0.000 A 
ENDBRANCH   1   6
BRANCH   1   9
ATOM      9  C   UNL     1       8.542  -5.005 -17.902  0.00  0.00    +0.000 C 
BRANCH   9  10
ATOM     10  C   UNL     1       8.791  -5.063 -19.429  0.00  0.00    +0.000 C 
ATOM     11  C   UNL     1       8.326  -3.779 -20.106  0.00  0.00    +0.000 C 
BRANCH  10  12
ATOM     12  O   UNL     1      10.185  -5.238 -19.717  0.00  0.00    +0.000 OA
ATOM     13  H   UNL     1      10.695  -4.855 -18.983  0.00  0.00    +0.000 HD
ENDBRANCH  10  12
ENDBRANCH   9  10
ENDBRANCH   1   9
BRANCH   1  14
ATOM     14  C   UNL     1       6.542  -4.912 -16.403  0.00  0.00    +0.000 C 
BRANCH  14  15
ATOM     15  C   UNL     1       6.671  -3.374 -16.510  0.00  0.00    +0.000 C 
ATOM     16  C   UNL     1       5.589  -2.740 -17.376  0.00  0.00    +0.000 C 
BRANCH  15  17
ATOM     17  O   UNL     1       6.629  -2.751 -15.226  0.00  0.00    +0.000 OA
ATOM     18  H   UNL     1       6.689  -1.792 -15.409  0.00  0.00    +0.000 HD
ENDBRANCH  15  17
ENDBRANCH  14  15
ENDBRANCH   1  14
TORSDOF 7
ENDMDL
MODEL 7
REMARK VINA RESULT:    -5.215      3.274      4.865
REMARK INTER + INTRA:          -7.487
REMARK INTER:                  -6.990
REMARK INTRA:                  -0.497
REMARK UNBOUND:                -0.443
REMARK  Name = 
REMARK  10 active torsions:
REMARK  status: ('A' for Active; 'I' for Inactive)
REMARK    1  A    between atoms: C_1  and  C_2
REMARK    2  A    between atoms: C_5  and  N_8
REMARK    3  A    between atoms: N_8  and  C_9
REMARK    4  A    between atoms: N_8  and  C_13
REMARK    5  A    between atoms: C_9  and  C_10
REMARK    6  A    between atoms: C_10  and  C_11
REMARK    7  A    between atoms: C_10  and  O_12
REMARK    8  A    between atoms: C_13  and  C_14
REMARK    9  A    between atoms: C_14  and  C_15
REMARK   10  A    between atoms: C_14  and  O_16
REMARK                            x       y       z     vdW  Elec       q    Type
REMARK                         _______ _______ _______ _____ _____    ______ ____
ROOT
ATOM      1  N   UNL     1       6.861  -5.465 -17.476  0.00  0.00    +0.000 N 
ENDROOT
BRANCH   1   6
ATOM      2  C   UNL     1       6.704 -11.076 -18.825  0.00  0.00    +0.000 C 
ATOM      3  C   UNL     1       6.730  -9.624 -18.456  0.00  0.00    +0.000 A 
ATOM      4  C   UNL     1       5.825  -8.729 -19.015  0.00  0.00    +0.000 A 
ATOM      5  C   UNL     1       5.872  -7.364 -18.688  0.00  0.00    +0.000 A 
ATOM      6  C   UNL     1       6.832  -6.824 -17.813  0.00  0.00    +0.000 A 
ATOM      7  C   UNL     1       7.729  -7.758 -17.264  0.00  0.00    +0.000 A 
ATOM      8  C   UNL     1       7.691  -9.126 -17.581  0.00  0.00    +0.000 A 
ENDBRANCH   1   6
BRANCH   1   9
ATOM      9  C   UNL     1       5.935  -4.934 -16.446  0.00  0.00    +0.000 C 
BRANCH   9  10
ATOM     10  C   UNL     1       5.797  -3.392 -16.502  0.00  0.00    +0.000 C 
ATOM     11  C   UNL     1       4.336  -2.981 -16.636  0.00  0.00    +0.000 C 
BRANCH  10  12
ATOM     12  O   UNL     1       6.322  -2.786 -15.313  0.00  0.00    +0.000 OA
ATOM     13  H   UNL     1       5.963  -1.885 -15.251  0.00  0.00    +0.000 HD
ENDBRANCH  10  12
ENDBRANCH   9  10
ENDBRANCH   1   9
BRANCH   1  14
ATOM     14  C   UNL     1       7.392  -4.450 -18.422  0.00  0.00    +0.000 C 
BRANCH  14  15
ATOM     15  C   UNL     1       8.906  -4.201 -18.223  0.00  0.00    +0.000 C 
ATOM     16  C   UNL     1       9.339  -4.272 -16.763  0.00  0.00    +0.000 C 
BRANCH  15  17
ATOM     17  O   UNL     1       9.695  -5.131 -18.963  0.00  0.00    +0.000 OA
ATOM     18  H   UNL     1      10.464  -4.616 -19.279  0.00  0.00    +0.000 HD
ENDBRANCH  15  17
ENDBRANCH  14  15
ENDBRANCH   1  14
TORSDOF 7
ENDMDL
MODEL 8
REMARK VINA RESULT:    -5.170      1.874      3.424
REMARK INTER + INTRA:          -7.427
REMARK INTER:                  -6.864
REMARK INTRA:                  -0.563
REMARK UNBOUND:                -0.443
REMARK  Name = 
REMARK  10 active torsions:
REMARK  status: ('A' for Active; 'I' for Inactive)
REMARK    1  A    between atoms: C_1  and  C_2
REMARK    2  A    between atoms: C_5  and  N_8
REMARK    3  A    between atoms: N_8  and  C_9
REMARK    4  A    between atoms: N_8  and  C_13
REMARK    5  A    between atoms: C_9  and  C_10
REMARK    6  A    between atoms: C_10  and  C_11
REMARK    7  A    between atoms: C_10  and  O_12
REMARK    8  A    between atoms: C_13  and  C_14
REMARK    9  A    between atoms: C_14  and  C_15
REMARK   10  A    between atoms: C_14  and  O_16
REMARK                            x       y       z     vdW  Elec       q    Type
REMARK                         _______ _______ _______ _____ _____    ______ ____
ROOT
ATOM      1  N   UNL     1       7.857  -9.493 -19.123  0.00  0.00    +0.000 N 
ENDROOT
BRANCH   1   6
ATOM      2  C   UNL     1      12.565 -10.527 -22.299  0.00  0.00    +0.000 C 
ATOM      3  C   UNL     1      11.358 -10.248 -21.457  0.00  0.00    +0.000 A 
ATOM      4  C   UNL     1      10.886 -11.191 -20.551  0.00  0.00    +0.000 A 
ATOM      5  C   UNL     1       9.736 -10.936 -19.786  0.00  0.00    +0.000 A 
ATOM      6  C   UNL     1       8.992  -9.749 -19.903  0.00  0.00    +0.000 A 
ATOM      7  C   UNL     1       9.499  -8.817 -20.827  0.00  0.00    +0.000 A 
ATOM      8  C   UNL     1      10.649  -9.058 -21.597  0.00  0.00    +0.000 A 
ENDBRANCH   1   6
BRANCH   1   9
ATOM      9  C   UNL     1       7.025  -8.296 -19.391  0.00  0.00    +0.000 C 
BRANCH   9  10
ATOM     10  C   UNL     1       6.996  -7.306 -18.201  0.00  0.00    +0.000 C 
ATOM     11  C   UNL     1       7.837  -6.071 -18.498  0.00  0.00    +0.000 C 
BRANCH  10  12
ATOM     12  O   UNL     1       5.656  -6.874 -17.922  0.00  0.00    +0.000 OA
ATOM     13  H   UNL     1       5.151  -6.908 -18.751  0.00  0.00    +0.000 HD
ENDBRANCH  10  12
ENDBRANCH   9  10
ENDBRANCH   1   9
BRANCH   1  14
ATOM     14  C   UNL     1       7.724 -10.051 -17.753  0.00  0.00    +0.000 C 
BRANCH  14  15
ATOM     15  C   UNL     1       6.518 -11.013 -17.628  0.00  0.00    +0.000 C 
ATOM     16  C   UNL     1       6.307 -11.874 -18.868  0.00  0.00    +0.000 C 
BRANCH  15  17
ATOM     17  O   UNL     1       6.650 -11.883 -16.505  0.00  0.00    +0.000 OA
ATOM     18  H   UNL     1       6.575 -12.786 -16.874  0.00  0.00    +0.000 HD
ENDBRANCH  15  17
ENDBRANCH  14  15
ENDBRANCH   1  14
TORSDOF 7
ENDMDL
MODEL 9
REMARK VINA RESULT:    -5.167      2.905      5.647
REMARK INTER + INTRA:          -7.422
REMARK INTER:                  -6.868
REMARK INTRA:                  -0.554
REMARK UNBOUND:                -0.443
REMARK  Name = 
REMARK  10 active torsions:
REMARK  status: ('A' for Active; 'I' for Inactive)
REMARK    1  A    between atoms: C_1  and  C_2
REMARK    2  A    between atoms: C_5  and  N_8
REMARK    3  A    between atoms: N_8  and  C_9
REMARK    4  A    between atoms: N_8  and  C_13
REMARK    5  A    between atoms: C_9  and  C_10
REMARK    6  A    between atoms: C_10  and  C_11
REMARK    7  A    between atoms: C_10  and  O_12
REMARK    8  A    between atoms: C_13  and  C_14
REMARK    9  A    between atoms: C_14  and  C_15
REMARK   10  A    between atoms: C_14  and  O_16
REMARK                            x       y       z     vdW  Elec       q    Type
REMARK                         _______ _______ _______ _____ _____    ______ ____
ROOT
ATOM      1  N   UNL     1       9.644  -8.380 -20.910  0.00  0.00    +0.000 N 
ENDROOT
BRANCH   1   6
ATOM      2  C   UNL     1       6.675 -11.488 -17.057  0.00  0.00    +0.000 C 
ATOM      3  C   UNL     1       7.466 -10.683 -18.042  0.00  0.00    +0.000 A 
ATOM      4  C   UNL     1       7.475  -9.293 -17.985  0.00  0.00    +0.000 A 
ATOM      5  C   UNL     1       8.194  -8.543 -18.929  0.00  0.00    +0.000 A 
ATOM      6  C   UNL     1       8.914  -9.134 -19.983  0.00  0.00    +0.000 A 
ATOM      7  C   UNL     1       8.884 -10.540 -20.009  0.00  0.00    +0.000 A 
ATOM      8  C   UNL     1       8.171 -11.303 -19.069  0.00  0.00    +0.000 A 
ENDBRANCH   1   6
BRANCH   1   9
ATOM      9  C   UNL     1       9.296  -6.959 -21.152  0.00  0.00    +0.000 C 
BRANCH   9  10
ATOM     10  C   UNL     1      10.334  -5.977 -20.556  0.00  0.00    +0.000 C 
ATOM     11  C   UNL     1      11.236  -5.410 -21.646  0.00  0.00    +0.000 C 
BRANCH  10  12
ATOM     12  O   UNL     1       9.685  -4.878 -19.901  0.00  0.00    +0.000 OA
ATOM     13  H   UNL     1       9.036  -5.241 -19.276  0.00  0.00    +0.000 HD
ENDBRANCH  10  12
ENDBRANCH   9  10
ENDBRANCH   1   9
BRANCH   1  14
ATOM     14  C   UNL     1      10.398  -9.034 -22.010  0.00  0.00    +0.000 C 
BRANCH  14  15
ATOM     15  C   UNL     1      11.916  -9.102 -21.719  0.00  0.00    +0.000 C 
ATOM     16  C   UNL     1      12.428 -10.525 -21.533  0.00  0.00    +0.000 C 
BRANCH  15  17
ATOM     17  O   UNL     1      12.680  -8.490 -22.758  0.00  0.00    +0.000 OA
ATOM     18  H   UNL     1      12.150  -8.619 -23.570  0.00  0.00    +0.000 HD
ENDBRANCH  15  17
ENDBRANCH  14  15
ENDBRANCH   1  14
TORSDOF 7
ENDMDL
