MODEL 1
REMARK VINA RESULT:    -5.545      0.000      0.000
REMARK INTER + INTRA:          -6.070
REMARK INTER:                  -6.031
REMARK INTRA:                  -0.039
REMARK UNBOUND:                -0.039
REMARK  Name = 
REMARK  3 active torsions:
REMARK  status: ('A' for Active; 'I' for Inactive)
REMARK    1  A    between atoms: C_1  and  O_2
REMARK    2  A    between atoms: O_2  and  C_3
REMARK    3  A    between atoms: C_8  and  O_9
REMARK                            x       y       z     vdW  Elec       q    Type
REMARK                         _______ _______ _______ _____ _____    ______ ____
ROOT
ATOM      1  C   UNL     1       9.390   2.887 -14.059  0.00  0.00    +0.000 A 
ATOM      2  C   UNL     1       9.492   4.166 -14.605  0.00  0.00    +0.000 A 
ATOM      3  C   UNL     1      10.461   5.057 -14.125  0.00  0.00    +0.000 A 
ATOM      4  C   UNL     1      11.327   4.674 -13.099  0.00  0.00    +0.000 A 
ATOM      5  C   UNL     1      11.232   3.398 -12.549  0.00  0.00    +0.000 A 
ATOM      6  C   UNL     1      10.268   2.522 -13.031  0.00  0.00    +0.000 A 
ENDROOT
BRANCH   1   8
ATOM      7  C   UNL     1       7.309   2.362 -15.079  0.00  0.00    +0.000 C 
ATOM      8  O   UNL     1       8.494   1.917 -14.429  0.00  0.00    +0.000 OA
ENDBRANCH   1   8
BRANCH   6   9
ATOM      9  O   UNL     1      10.193   1.273 -12.474  0.00  0.00    +0.000 OA
ATOM     10  H   UNL     1      10.102   1.433 -11.516  0.00  0.00    +0.000 HD
ENDBRANCH   6   9
TORSDOF 2
ENDMDL
MODEL 2
REMARK VINA RESULT:    -4.683      1.563      1.990
REMARK INTER + INTRA:          -5.133
REMARK INTER:                  -5.080
REMARK INTRA:                  -0.053
REMARK UNBOUND:                -0.039
REMARK  Name = 
REMARK  3 active torsions:
REMARK  status: ('A' for Active; 'I' for Inactive)
REMARK    1  A    between atoms: C_1  and  O_2
REMARK    2  A    between atoms: O_2  and  C_3
REMARK    3  A    between atoms: C_8  and  O_9
REMARK                            x       y       z     vdW  Elec       q    Type
REMARK                         _______ _______ _______ _____ _____    ______ ____
ROOT
ATOM      1  C   UNL     1       8.351   3.861 -14.173  0.00  0.00    +0.000 A 
ATOM      2  C   UNL     1       9.405   4.771 -14.237  0.00  0.00    +0.000 A 
ATOM      3  C   UNL     1      10.620   4.479 -13.606  0.00  0.00    +0.000 A 
ATOM      4  C   UNL     1      10.786   3.281 -12.909  0.00  0.00    +0.000 A 
ATOM      5  C   UNL     1       9.738   2.366 -12.841  0.00  0.00    +0.000 A 
ATOM      6  C   UNL     1       8.536   2.664 -13.470  0.00  0.00    +0.000 A 
ENDROOT
BRANCH   1   8
ATOM      7  C   UNL     1       6.288   5.040 -14.199  0.00  0.00    +0.000 C 
ATOM      8  O   UNL     1       7.111   4.014 -14.740  0.00  0.00    +0.000 OA
ENDBRANCH   1   8
BRANCH   6   9
ATOM      9  O   UNL     1       7.520   1.749 -13.388  0.00  0.00    +0.000 OA
ATOM     10  H   UNL     1       7.410   1.584 -12.432  0.00  0.00    +0.000 HD
ENDBRANCH   6   9
TORSDOF 2
ENDMDL
MODEL 3
REMARK VINA RESULT:    -4.565      3.616      4.593
REMARK INTER + INTRA:          -5.004
REMARK INTER:                  -4.967
REMARK INTRA:                  -0.037
REMARK UNBOUND:                -0.039
REMARK  Name = 
REMARK  3 active torsions:
REMARK  status: ('A' for Active; 'I' for Inactive)
REMARK    1  A    between atoms: C_1  and  O_2
REMARK    2  A    between atoms: O_2  and  C_3
REMARK    3  A    between atoms: C_8  and  O_9
REMARK                            x       y       z     vdW  Elec       q    Type
REMARK                         _______ _______ _______ _____ _____    ______ ____
ROOT
ATOM      1  C   UNL     1       5.610   3.264 -12.236  0.00  0.00    +0.000 A 
ATOM      2  C   UNL     1       4.940   4.484 -12.306  0.00  0.00    +0.000 A 
ATOM      3  C   UNL     1       5.318   5.437 -13.260  0.00  0.00    +0.000 A 
ATOM      4  C   UNL     1       6.365   5.174 -14.146  0.00  0.00    +0.000 A 
ATOM      5  C   UNL     1       7.039   3.957 -14.083  0.00  0.00    +0.000 A 
ATOM      6  C   UNL     1       6.657   3.018 -13.133  0.00  0.00    +0.000 A 
ENDROOT
BRANCH   1   8
ATOM      7  C   UNL     1       4.338   2.487 -10.385  0.00  0.00    +0.000 C 
ATOM      8  O   UNL     1       5.349   2.244 -11.357  0.00  0.00    +0.000 OA
ENDBRANCH   1   8
BRANCH   6   9
ATOM      9  O   UNL     1       7.335   1.829 -13.090  0.00  0.00    +0.000 OA
ATOM     10  H   UNL     1       6.799   1.259 -12.507  0.00  0.00    +0.000 HD
ENDBRANCH   6   9
TORSDOF 2
ENDMDL
MODEL 4
REMARK VINA RESULT:    -4.418      2.798      4.059
REMARK INTER + INTRA:          -4.844
REMARK INTER:                  -4.795
REMARK INTRA:                  -0.049
REMARK UNBOUND:                -0.039
REMARK  Name = 
REMARK  3 active torsions:
REMARK  status: ('A' for Active; 'I' for Inactive)
REMARK    1  A    between atoms: C_1  and  O_2
REMARK    2  A    between atoms: O_2  and  C_3
REMARK    3  A    between atoms: C_8  and  O_9
REMARK                            x       y       z     vdW  Elec       q    Type
REMARK                         _______ _______ _______ _____ _____    ______ ____
ROOT
ATOM      1  C   UNL     1       7.162   3.915 -14.012  0.00  0.00    +0.000 A 
ATOM      2  C   UNL     1       6.548   5.151 -14.207  0.00  0.00    +0.000 A 
ATOM      3  C   UNL     1       5.441   5.514 -13.429  0.00  0.00    +0.000 A 
ATOM      4  C   UNL     1       4.945   4.644 -12.457  0.00  0.00    +0.000 A 
ATOM      5  C   UNL     1       5.553   3.407 -12.255  0.00  0.00    +0.000 A 
ATOM      6  C   UNL     1       6.650   3.056 -13.031  0.00  0.00    +0.000 A 
ENDROOT
BRANCH   1   8
ATOM      7  C   UNL     1       9.502   4.035 -14.409  0.00  0.00    +0.000 C 
ATOM      8  O   UNL     1       8.247   3.430 -14.697  0.00  0.00    +0.000 OA
ENDBRANCH   1   8
BRANCH   6   9
ATOM      9  O   UNL     1       7.231   1.835 -12.815  0.00  0.00    +0.000 OA
ATOM     10  H   UNL     1       7.606   1.582 -13.680  0.00  0.00    +0.000 HD
ENDBRANCH   6   9
TORSDOF 2
ENDMDL
MODEL 5
REMARK VINA RESULT:    -4.309      4.004      5.086
REMARK INTER + INTRA:          -4.727
REMARK INTER:                  -4.688
REMARK INTRA:                  -0.039
REMARK UNBOUND:                -0.039
REMARK  Name = 
REMARK  3 active torsions:
REMARK  status: ('A' for Active; 'I' for Inactive)
REMARK    1  A    between atoms: C_1  and  O_2
REMARK    2  A    between atoms: O_2  and  C_3
REMARK    3  A    between atoms: C_8  and  O_9
REMARK                            x       y       z     vdW  Elec       q    Type
REMARK                         _______ _______ _______ _____ _____    ______ ____
ROOT
ATOM      1  C   UNL     1       6.010   4.077 -13.082  0.00  0.00    +0.000 A 
ATOM      2  C   UNL     1       6.309   4.847 -14.205  0.00  0.00    +0.000 A 
ATOM      3  C   UNL     1       5.607   6.035 -14.445  0.00  0.00    +0.000 A 
ATOM      4  C   UNL     1       4.607   6.457 -13.567  0.00  0.00    +0.000 A 
ATOM      5  C   UNL     1       4.303   5.693 -12.443  0.00  0.00    +0.000 A 
ATOM      6  C   UNL     1       5.003   4.515 -12.213  0.00  0.00    +0.000 A 
ENDROOT
BRANCH   1   8
ATOM      7  C   UNL     1       7.884   2.633 -13.303  0.00  0.00    +0.000 C 
ATOM      8  O   UNL     1       6.612   2.897 -12.724  0.00  0.00    +0.000 OA
ENDBRANCH   1   8
BRANCH   6   9
ATOM      9  O   UNL     1       4.687   3.781 -11.101  0.00  0.00    +0.000 OA
ATOM     10  H   UNL     1       4.266   2.972 -11.449  0.00  0.00    +0.000 HD
ENDBRANCH   6   9
TORSDOF 2
ENDMDL
MODEL 6
REMARK VINA RESULT:    -4.194      4.292      5.146
REMARK INTER + INTRA:          -4.601
REMARK INTER:                  -4.550
REMARK INTRA:                  -0.051
REMARK UNBOUND:                -0.039
REMARK  Name = 
REMARK  3 active torsions:
REMARK  status: ('A' for Active; 'I' for Inactive)
REMARK    1  A    between atoms: C_1  and  O_2
REMARK    2  A    between atoms: O_2  and  C_3
REMARK    3  A    between atoms: C_8  and  O_9
REMARK                            x       y       z     vdW  Elec       q    Type
REMARK                         _______ _______ _______ _____ _____    ______ ____
ROOT
ATOM      1  C   UNL     1       5.027   5.154 -13.035  0.00  0.00    +0.000 A 
ATOM      2  C   UNL     1       5.814   5.416 -14.156  0.00  0.00    +0.000 A 
ATOM      3  C   UNL     1       6.884   4.571 -14.473  0.00  0.00    +0.000 A 
ATOM      4  C   UNL     1       7.172   3.463 -13.673  0.00  0.00    +0.000 A 
ATOM      5  C   UNL     1       6.391   3.194 -12.552  0.00  0.00    +0.000 A 
ATOM      6  C   UNL     1       5.331   4.039 -12.245  0.00  0.00    +0.000 A 
ENDROOT
BRANCH   1   8
ATOM      7  C   UNL     1       2.883   6.052 -13.531  0.00  0.00    +0.000 C 
ATOM      8  O   UNL     1       3.953   5.893 -12.607  0.00  0.00    +0.000 OA
ENDBRANCH   1   8
BRANCH   6   9
ATOM      9  O   UNL     1       4.577   3.754 -11.138  0.00  0.00    +0.000 OA
ATOM     10  H   UNL     1       5.224   3.670 -10.412  0.00  0.00    +0.000 HD
ENDBRANCH   6   9
TORSDOF 2
ENDMDL
MODEL 7
REMARK VINA RESULT:    -4.155      1.295      3.408
REMARK INTER + INTRA:          -4.558
REMARK INTER:                  -4.520
REMARK INTRA:                  -0.038
REMARK UNBOUND:                -0.039
REMARK  Name = 
REMARK  3 active torsions:
REMARK  status: ('A' for Active; 'I' for Inactive)
REMARK    1  A    between atoms: C_1  and  O_2
REMARK    2  A    between atoms: O_2  and  C_3
REMARK    3  A    between atoms: C_8  and  O_9
REMARK                            x       y       z     vdW  Elec       q    Type
REMARK                         _______ _______ _______ _____ _____    ______ ____
ROOT
ATOM      1  C   UNL     1       9.002   2.936 -13.826  0.00  0.00    +0.000 A 
ATOM      2  C   UNL     1       8.555   4.225 -13.540  0.00  0.00    +0.000 A 
ATOM      3  C   UNL     1       7.326   4.668 -14.044  0.00  0.00    +0.000 A 
ATOM      4  C   UNL     1       6.541   3.827 -14.835  0.00  0.00    +0.000 A 
ATOM      5  C   UNL     1       6.980   2.537 -15.126  0.00  0.00    +0.000 A 
ATOM      6  C   UNL     1       8.201   2.106 -14.621  0.00  0.00    +0.000 A 
ENDROOT
BRANCH   1   8
ATOM      7  C   UNL     1      11.140   3.258 -12.842  0.00  0.00    +0.000 C 
ATOM      8  O   UNL     1      10.179   2.372 -13.402  0.00  0.00    +0.000 OA
ENDBRANCH   1   8
BRANCH   6   9
ATOM      9  O   UNL     1       8.612   0.835 -14.920  0.00  0.00    +0.000 OA
ATOM     10  H   UNL     1       9.251   0.945 -15.650  0.00  0.00    +0.000 HD
ENDBRANCH   6   9
TORSDOF 2
ENDMDL
MODEL 8
REMARK VINA RESULT:    -4.134      4.234      5.403
REMARK INTER + INTRA:          -4.536
REMARK INTER:                  -4.498
REMARK INTRA:                  -0.037
REMARK UNBOUND:                -0.039
REMARK  Name = 
REMARK  3 active torsions:
REMARK  status: ('A' for Active; 'I' for Inactive)
REMARK    1  A    between atoms: C_1  and  O_2
REMARK    2  A    between atoms: O_2  and  C_3
REMARK    3  A    between atoms: C_8  and  O_9
REMARK                            x       y       z     vdW  Elec       q    Type
REMARK                         _______ _______ _______ _____ _____    ______ ____
ROOT
ATOM      1  C   UNL     1       5.164   3.737 -12.264  0.00  0.00    +0.000 A 
ATOM      2  C   UNL     1       6.407   3.169 -12.542  0.00  0.00    +0.000 A 
ATOM      3  C   UNL     1       7.234   3.738 -13.518  0.00  0.00    +0.000 A 
ATOM      4  C   UNL     1       6.824   4.874 -14.219  0.00  0.00    +0.000 A 
ATOM      5  C   UNL     1       5.583   5.447 -13.947  0.00  0.00    +0.000 A 
ATOM      6  C   UNL     1       4.769   4.875 -12.978  0.00  0.00    +0.000 A 
ENDROOT
BRANCH   1   8
ATOM      7  C   UNL     1       4.608   2.112 -10.622  0.00  0.00    +0.000 C 
ATOM      8  O   UNL     1       4.255   3.287 -11.340  0.00  0.00    +0.000 OA
ENDBRANCH   1   8
BRANCH   6   9
ATOM      9  O   UNL     1       3.555   5.457 -12.729  0.00  0.00    +0.000 OA
ATOM     10  H   UNL     1       3.766   6.375 -12.476  0.00  0.00    +0.000 HD
ENDBRANCH   6   9
TORSDOF 2
ENDMDL
