MODEL 1
REMARK VINA RESULT:    -4.010      0.000      0.000
REMARK INTER + INTRA:          -5.605
REMARK INTER:                  -5.416
REMARK INTRA:                  -0.189
REMARK UNBOUND:                -0.189
REMARK  Name = 
REMARK  10 active torsions:
REMARK  status: ('A' for Active; 'I' for Inactive)
REMARK    1  A    between atoms: C_1  and  C_2
REMARK    2  A    between atoms: C_5  and  N_8
REMARK    3  A    between atoms: N_8  and  C_9
REMARK    4  A    between atoms: N_8  and  C_13
REMARK    5  A    between atoms: C_9  and  C_10
REMARK    6  A    between atoms: C_10  and  C_11
REMARK    7  A    between atoms: C_10  and  O_12
REMARK    8  A    between atoms: C_13  and  C_14
REMARK    9  A    between atoms: C_14  and  C_15
REMARK   10  A    between atoms: C_14  and  O_16
REMARK                            x       y       z     vdW  Elec       q    Type
REMARK                         _______ _______ _______ _____ _____    ______ ____
ROOT
ATOM      1  N   UNL     1       8.086  14.286   6.131  0.00  0.00    +0.000 N 
ENDROOT
BRANCH   1   6
ATOM      2  C   UNL     1      11.391  14.469  10.860  0.00  0.00    +0.000 C 
ATOM      3  C   UNL     1      10.532  14.447   9.633  0.00  0.00    +0.000 A 
ATOM      4  C   UNL     1       9.149  14.338   9.731  0.00  0.00    +0.000 A 
ATOM      5  C   UNL     1       8.351  14.287   8.577  0.00  0.00    +0.000 A 
ATOM      6  C   UNL     1       8.889  14.318   7.278  0.00  0.00    +0.000 A 
ATOM      7  C   UNL     1      10.290  14.430   7.216  0.00  0.00    +0.000 A 
ATOM      8  C   UNL     1      11.100  14.484   8.363  0.00  0.00    +0.000 A 
ENDBRANCH   1   6
BRANCH   1   9
ATOM      9  C   UNL     1       8.684  14.538   4.797  0.00  0.00    +0.000 C 
BRANCH   9  10
ATOM     10  C   UNL     1       7.948  13.791   3.658  0.00  0.00    +0.000 C 
ATOM     11  C   UNL     1       7.909  14.634   2.389  0.00  0.00    +0.000 C 
BRANCH  10  12
ATOM     12  O   UNL     1       8.601  12.552   3.349  0.00  0.00    +0.000 OA
ATOM     13  H   UNL     1       8.794  12.543   2.397  0.00  0.00    +0.000 HD
ENDBRANCH  10  12
ENDBRANCH   9  10
ENDBRANCH   1   9
BRANCH   1  14
ATOM     14  C   UNL     1       6.621  14.515   6.211  0.00  0.00    +0.000 C 
BRANCH  14  15
ATOM     15  C   UNL     1       5.865  13.280   6.757  0.00  0.00    +0.000 C 
ATOM     16  C   UNL     1       4.470  13.611   7.275  0.00  0.00    +0.000 C 
BRANCH  15  17
ATOM     17  O   UNL     1       5.738  12.260   5.767  0.00  0.00    +0.000 OA
ATOM     18  H   UNL     1       4.839  12.375   5.400  0.00  0.00    +0.000 HD
ENDBRANCH  15  17
ENDBRANCH  14  15
ENDBRANCH   1  14
TORSDOF 7
ENDMDL
MODEL 2
REMARK VINA RESULT:    -3.980      6.222      9.806
REMARK INTER + INTRA:          -5.565
REMARK INTER:                  -4.855
REMARK INTRA:                  -0.710
REMARK UNBOUND:                -0.189
REMARK  Name = 
REMARK  10 active torsions:
REMARK  status: ('A' for Active; 'I' for Inactive)
REMARK    1  A    between atoms: C_1  and  C_2
REMARK    2  A    between atoms: C_5  and  N_8
REMARK    3  A    between atoms: N_8  and  C_9
REMARK    4  A    between atoms: N_8  and  C_13
REMARK    5  A    between atoms: C_9  and  C_10
REMARK    6  A    between atoms: C_10  and  C_11
REMARK    7  A    between atoms: C_10  and  O_12
REMARK    8  A    between atoms: C_13  and  C_14
REMARK    9  A    between atoms: C_14  and  C_15
REMARK   10  A    between atoms: C_14  and  O_16
REMARK                            x       y       z     vdW  Elec       q    Type
REMARK                         _______ _______ _______ _____ _____    ______ ____
ROOT
ATOM      1  N   UNL     1       8.203  16.062  -1.600  0.00  0.00    +0.000 N 
ENDROOT
BRANCH   1   6
ATOM      2  C   UNL     1      12.763  18.264  -4.372  0.00  0.00    +0.000 C 
ATOM      3  C   UNL     1      11.582  17.672  -3.666  0.00  0.00    +0.000 A 
ATOM      4  C   UNL     1      10.287  17.913  -4.115  0.00  0.00    +0.000 A 
ATOM      5  C   UNL     1       9.182  17.380  -3.433  0.00  0.00    +0.000 A 
ATOM      6  C   UNL     1       9.309  16.607  -2.265  0.00  0.00    +0.000 A 
ATOM      7  C   UNL     1      10.631  16.382  -1.841  0.00  0.00    +0.000 A 
ATOM      8  C   UNL     1      11.746  16.907  -2.515  0.00  0.00    +0.000 A 
ENDBRANCH   1   6
BRANCH   1   9
ATOM      9  C   UNL     1       7.985  16.348  -0.162  0.00  0.00    +0.000 C 
BRANCH   9  10
ATOM     10  C   UNL     1       8.320  15.141   0.748  0.00  0.00    +0.000 C 
ATOM     11  C   UNL     1       9.322  15.533   1.827  0.00  0.00    +0.000 C 
BRANCH  10  12
ATOM     12  O   UNL     1       7.142  14.642   1.396  0.00  0.00    +0.000 OA
ATOM     13  H   UNL     1       6.368  15.017   0.944  0.00  0.00    +0.000 HD
ENDBRANCH  10  12
ENDBRANCH   9  10
ENDBRANCH   1   9
BRANCH   1  14
ATOM     14  C   UNL     1       7.532  14.835  -2.101  0.00  0.00    +0.000 C 
BRANCH  14  15
ATOM     15  C   UNL     1       5.991  14.977  -2.121  0.00  0.00    +0.000 C 
ATOM     16  C   UNL     1       5.368  14.564  -3.449  0.00  0.00    +0.000 C 
BRANCH  15  17
ATOM     17  O   UNL     1       5.377  14.210  -1.087  0.00  0.00    +0.000 OA
ATOM     18  H   UNL     1       6.122  13.833  -0.575  0.00  0.00    +0.000 HD
ENDBRANCH  15  17
ENDBRANCH  14  15
ENDBRANCH   1  14
TORSDOF 7
ENDMDL
MODEL 3
REMARK VINA RESULT:    -3.860      6.141      9.837
REMARK INTER + INTRA:          -5.403
REMARK INTER:                  -4.705
REMARK INTRA:                  -0.698
REMARK UNBOUND:                -0.189
REMARK  Name = 
REMARK  10 active torsions:
REMARK  status: ('A' for Active; 'I' for Inactive)
REMARK    1  A    between atoms: C_1  and  C_2
REMARK    2  A    between atoms: C_5  and  N_8
REMARK    3  A    between atoms: N_8  and  C_9
REMARK    4  A    between atoms: N_8  and  C_13
REMARK    5  A    between atoms: C_9  and  C_10
REMARK    6  A    between atoms: C_10  and  C_11
REMARK    7  A    between atoms: C_10  and  O_12
REMARK    8  A    between atoms: C_13  and  C_14
REMARK    9  A    between atoms: C_14  and  C_15
REMARK   10  A    between atoms: C_14  and  O_16
REMARK                            x       y       z     vdW  Elec       q    Type
REMARK                         _______ _______ _______ _____ _____    ______ ____
ROOT
ATOM      1  N   UNL     1       8.378  15.728  -1.624  0.00  0.00    +0.000 N 
ENDROOT
BRANCH   1   6
ATOM      2  C   UNL     1      12.268  18.602  -4.776  0.00  0.00    +0.000 C 
ATOM      3  C   UNL     1      11.255  17.877  -3.944  0.00  0.00    +0.000 A 
ATOM      4  C   UNL     1      11.641  17.141  -2.829  0.00  0.00    +0.000 A 
ATOM      5  C   UNL     1      10.691  16.438  -2.070  0.00  0.00    +0.000 A 
ATOM      6  C   UNL     1       9.323  16.415  -2.396  0.00  0.00    +0.000 A 
ATOM      7  C   UNL     1       8.968  17.172  -3.528  0.00  0.00    +0.000 A 
ATOM      8  C   UNL     1       9.908  17.881  -4.294  0.00  0.00    +0.000 A 
ENDBRANCH   1   6
BRANCH   1   9
ATOM      9  C   UNL     1       7.461  14.754  -2.264  0.00  0.00    +0.000 C 
BRANCH   9  10
ATOM     10  C   UNL     1       5.968  15.107  -2.052  0.00  0.00    +0.000 C 
ATOM     11  C   UNL     1       5.207  15.072  -3.372  0.00  0.00    +0.000 C 
BRANCH  10  12
ATOM     12  O   UNL     1       5.343  14.180  -1.153  0.00  0.00    +0.000 OA
ATOM     13  H   UNL     1       6.032  13.806  -0.580  0.00  0.00    +0.000 HD
ENDBRANCH  10  12
ENDBRANCH   9  10
ENDBRANCH   1   9
BRANCH   1  14
ATOM     14  C   UNL     1       7.904  16.273  -0.326  0.00  0.00    +0.000 C 
BRANCH  14  15
ATOM     15  C   UNL     1       8.259  15.346   0.862  0.00  0.00    +0.000 C 
ATOM     16  C   UNL     1       8.801  16.101   2.070  0.00  0.00    +0.000 C 
BRANCH  15  17
ATOM     17  O   UNL     1       7.133  14.580   1.288  0.00  0.00    +0.000 OA
ATOM     18  H   UNL     1       7.485  13.972   1.970  0.00  0.00    +0.000 HD
ENDBRANCH  15  17
ENDBRANCH  14  15
ENDBRANCH   1  14
TORSDOF 7
ENDMDL
MODEL 4
REMARK VINA RESULT:    -3.821      9.352     12.736
REMARK INTER + INTRA:          -5.351
REMARK INTER:                  -4.683
REMARK INTRA:                  -0.668
REMARK UNBOUND:                -0.189
REMARK  Name = 
REMARK  10 active torsions:
REMARK  status: ('A' for Active; 'I' for Inactive)
REMARK    1  A    between atoms: C_1  and  C_2
REMARK    2  A    between atoms: C_5  and  N_8
REMARK    3  A    between atoms: N_8  and  C_9
REMARK    4  A    between atoms: N_8  and  C_13
REMARK    5  A    between atoms: C_9  and  C_10
REMARK    6  A    between atoms: C_10  and  C_11
REMARK    7  A    between atoms: C_10  and  O_12
REMARK    8  A    between atoms: C_13  and  C_14
REMARK    9  A    between atoms: C_14  and  C_15
REMARK   10  A    between atoms: C_14  and  O_16
REMARK                            x       y       z     vdW  Elec       q    Type
REMARK                         _______ _______ _______ _____ _____    ______ ____
ROOT
ATOM      1  N   UNL     1       6.302  15.310  -3.951  0.00  0.00    +0.000 N 
ENDROOT
BRANCH   1   6
ATOM      2  C   UNL     1       6.550  16.961  -9.478  0.00  0.00    +0.000 C 
ATOM      3  C   UNL     1       6.475  16.511  -8.051  0.00  0.00    +0.000 A 
ATOM      4  C   UNL     1       5.368  16.809  -7.264  0.00  0.00    +0.000 A 
ATOM      5  C   UNL     1       5.316  16.411  -5.919  0.00  0.00    +0.000 A 
ATOM      6  C   UNL     1       6.368  15.721  -5.288  0.00  0.00    +0.000 A 
ATOM      7  C   UNL     1       7.471  15.434  -6.114  0.00  0.00    +0.000 A 
ATOM      8  C   UNL     1       7.534  15.825  -7.462  0.00  0.00    +0.000 A 
ENDBRANCH   1   6
BRANCH   1   9
ATOM      9  C   UNL     1       5.194  14.436  -3.496  0.00  0.00    +0.000 C 
BRANCH   9  10
ATOM     10  C   UNL     1       4.495  14.969  -2.221  0.00  0.00    +0.000 C 
ATOM     11  C   UNL     1       2.980  14.950  -2.381  0.00  0.00    +0.000 C 
BRANCH  10  12
ATOM     12  O   UNL     1       4.831  14.169  -1.078  0.00  0.00    +0.000 OA
ATOM     13  H   UNL     1       4.801  14.740  -0.292  0.00  0.00    +0.000 HD
ENDBRANCH  10  12
ENDBRANCH   9  10
ENDBRANCH   1   9
BRANCH   1  14
ATOM     14  C   UNL     1       6.968  16.086  -2.874  0.00  0.00    +0.000 C 
BRANCH  14  15
ATOM     15  C   UNL     1       8.185  15.337  -2.281  0.00  0.00    +0.000 C 
ATOM     16  C   UNL     1       9.353  16.259  -1.948  0.00  0.00    +0.000 C 
BRANCH  15  17
ATOM     17  O   UNL     1       7.838  14.620  -1.098  0.00  0.00    +0.000 OA
ATOM     18  H   UNL     1       7.639  13.711  -1.402  0.00  0.00    +0.000 HD
ENDBRANCH  15  17
ENDBRANCH  14  15
ENDBRANCH   1  14
TORSDOF 7
ENDMDL
MODEL 5
REMARK VINA RESULT:    -3.806      1.943      4.976
REMARK INTER + INTRA:          -5.330
REMARK INTER:                  -4.876
REMARK INTRA:                  -0.454
REMARK UNBOUND:                -0.189
REMARK  Name = 
REMARK  10 active torsions:
REMARK  status: ('A' for Active; 'I' for Inactive)
REMARK    1  A    between atoms: C_1  and  C_2
REMARK    2  A    between atoms: C_5  and  N_8
REMARK    3  A    between atoms: N_8  and  C_9
REMARK    4  A    between atoms: N_8  and  C_13
REMARK    5  A    between atoms: C_9  and  C_10
REMARK    6  A    between atoms: C_10  and  C_11
REMARK    7  A    between atoms: C_10  and  O_12
REMARK    8  A    between atoms: C_13  and  C_14
REMARK    9  A    between atoms: C_14  and  C_15
REMARK   10  A    between atoms: C_14  and  O_16
REMARK                            x       y       z     vdW  Elec       q    Type
REMARK                         _______ _______ _______ _____ _____    ______ ____
ROOT
ATOM      1  N   UNL     1       7.413  14.877   6.567  0.00  0.00    +0.000 N 
ENDROOT
BRANCH   1   6
ATOM      2  C   UNL     1       8.190  15.188   0.855  0.00  0.00    +0.000 C 
ATOM      3  C   UNL     1       8.013  15.111   2.340  0.00  0.00    +0.000 A 
ATOM      4  C   UNL     1       8.102  13.895   3.009  0.00  0.00    +0.000 A 
ATOM      5  C   UNL     1       7.906  13.825   4.398  0.00  0.00    +0.000 A 
ATOM      6  C   UNL     1       7.589  14.950   5.179  0.00  0.00    +0.000 A 
ATOM      7  C   UNL     1       7.509  16.163   4.471  0.00  0.00    +0.000 A 
ATOM      8  C   UNL     1       7.706  16.248   3.083  0.00  0.00    +0.000 A 
ENDBRANCH   1   6
BRANCH   1   9
ATOM      9  C   UNL     1       8.417  14.181   7.407  0.00  0.00    +0.000 C 
BRANCH   9  10
ATOM     10  C   UNL     1       9.856  14.706   7.182  0.00  0.00    +0.000 C 
ATOM     11  C   UNL     1      10.116  15.958   8.011  0.00  0.00    +0.000 C 
BRANCH  10  12
ATOM     12  O   UNL     1      10.828  13.718   7.552  0.00  0.00    +0.000 OA
ATOM     13  H   UNL     1      11.701  14.029   7.259  0.00  0.00    +0.000 HD
ENDBRANCH  10  12
ENDBRANCH   9  10
ENDBRANCH   1   9
BRANCH   1  14
ATOM     14  C   UNL     1       6.066  15.002   7.179  0.00  0.00    +0.000 C 
BRANCH  14  15
ATOM     15  C   UNL     1       5.416  13.623   7.448  0.00  0.00    +0.000 C 
ATOM     16  C   UNL     1       4.508  13.617   8.673  0.00  0.00    +0.000 C 
BRANCH  15  17
ATOM     17  O   UNL     1       4.653  13.172   6.330  0.00  0.00    +0.000 OA
ATOM     18  H   UNL     1       4.186  12.374   6.649  0.00  0.00    +0.000 HD
ENDBRANCH  15  17
ENDBRANCH  14  15
ENDBRANCH   1  14
TORSDOF 7
ENDMDL
MODEL 6
REMARK VINA RESULT:    -3.801      9.358     12.294
REMARK INTER + INTRA:          -5.323
REMARK INTER:                  -4.675
REMARK INTRA:                  -0.648
REMARK UNBOUND:                -0.189
REMARK  Name = 
REMARK  10 active torsions:
REMARK  status: ('A' for Active; 'I' for Inactive)
REMARK    1  A    between atoms: C_1  and  C_2
REMARK    2  A    between atoms: C_5  and  N_8
REMARK    3  A    between atoms: N_8  and  C_9
REMARK    4  A    between atoms: N_8  and  C_13
REMARK    5  A    between atoms: C_9  and  C_10
REMARK    6  A    between atoms: C_10  and  C_11
REMARK    7  A    between atoms: C_10  and  O_12
REMARK    8  A    between atoms: C_13  and  C_14
REMARK    9  A    between atoms: C_14  and  C_15
REMARK   10  A    between atoms: C_14  and  O_16
REMARK                            x       y       z     vdW  Elec       q    Type
REMARK                         _______ _______ _______ _____ _____    ______ ____
ROOT
ATOM      1  N   UNL     1       6.395  15.838  -3.887  0.00  0.00    +0.000 N 
ENDROOT
BRANCH   1   6
ATOM      2  C   UNL     1       8.675  16.630  -9.131  0.00  0.00    +0.000 C 
ATOM      3  C   UNL     1       8.101  16.407  -7.765  0.00  0.00    +0.000 A 
ATOM      4  C   UNL     1       7.058  15.508  -7.568  0.00  0.00    +0.000 A 
ATOM      5  C   UNL     1       6.503  15.325  -6.291  0.00  0.00    +0.000 A 
ATOM      6  C   UNL     1       6.940  16.040  -5.161  0.00  0.00    +0.000 A 
ATOM      7  C   UNL     1       7.997  16.938  -5.397  0.00  0.00    +0.000 A 
ATOM      8  C   UNL     1       8.562  17.129  -6.669  0.00  0.00    +0.000 A 
ENDBRANCH   1   6
BRANCH   1   9
ATOM      9  C   UNL     1       7.107  16.336  -2.686  0.00  0.00    +0.000 C 
BRANCH   9  10
ATOM     10  C   UNL     1       8.256  15.399  -2.238  0.00  0.00    +0.000 C 
ATOM     11  C   UNL     1       9.524  16.192  -1.947  0.00  0.00    +0.000 C 
BRANCH  10  12
ATOM     12  O   UNL     1       7.899  14.679  -1.050  0.00  0.00    +0.000 OA
ATOM     13  H   UNL     1       6.933  14.584  -1.034  0.00  0.00    +0.000 HD
ENDBRANCH  10  12
ENDBRANCH   9  10
ENDBRANCH   1   9
BRANCH   1  14
ATOM     14  C   UNL     1       5.430  14.738  -3.629  0.00  0.00    +0.000 C 
BRANCH  14  15
ATOM     15  C   UNL     1       4.614  14.969  -2.334  0.00  0.00    +0.000 C 
ATOM     16  C   UNL     1       3.109  14.863  -2.546  0.00  0.00    +0.000 C 
BRANCH  15  17
ATOM     17  O   UNL     1       4.982  14.047  -1.309  0.00  0.00    +0.000 OA
ATOM     18  H   UNL     1       5.914  14.258  -1.101  0.00  0.00    +0.000 HD
ENDBRANCH  15  17
ENDBRANCH  14  15
ENDBRANCH   1  14
TORSDOF 7
ENDMDL
MODEL 7
REMARK VINA RESULT:    -3.753      5.417      9.360
REMARK INTER + INTRA:          -5.258
REMARK INTER:                  -4.542
REMARK INTRA:                  -0.716
REMARK UNBOUND:                -0.189
REMARK  Name = 
REMARK  10 active torsions:
REMARK  status: ('A' for Active; 'I' for Inactive)
REMARK    1  A    between atoms: C_1  and  C_2
REMARK    2  A    between atoms: C_5  and  N_8
REMARK    3  A    between atoms: N_8  and  C_9
REMARK    4  A    between atoms: N_8  and  C_13
REMARK    5  A    between atoms: C_9  and  C_10
REMARK    6  A    between atoms: C_10  and  C_11
REMARK    7  A    between atoms: C_10  and  O_12
REMARK    8  A    between atoms: C_13  and  C_14
REMARK    9  A    between atoms: C_14  and  C_15
REMARK   10  A    between atoms: C_14  and  O_16
REMARK                            x       y       z     vdW  Elec       q    Type
REMARK                         _______ _______ _______ _____ _____    ______ ____
ROOT
ATOM      1  N   UNL     1       9.783  16.844  -0.131  0.00  0.00    +0.000 N 
ENDROOT
BRANCH   1   6
ATOM      2  C   UNL     1       5.537  14.425  -3.205  0.00  0.00    +0.000 C 
ATOM      3  C   UNL     1       6.645  15.030  -2.398  0.00  0.00    +0.000 A 
ATOM      4  C   UNL     1       6.417  15.499  -1.109  0.00  0.00    +0.000 A 
ATOM      5  C   UNL     1       7.452  16.092  -0.369  0.00  0.00    +0.000 A 
ATOM      6  C   UNL     1       8.750  16.268  -0.882  0.00  0.00    +0.000 A 
ATOM      7  C   UNL     1       8.945  15.781  -2.187  0.00  0.00    +0.000 A 
ATOM      8  C   UNL     1       7.919  15.184  -2.937  0.00  0.00    +0.000 A 
ENDBRANCH   1   6
BRANCH   1   9
ATOM      9  C   UNL     1       9.546  17.241   1.278  0.00  0.00    +0.000 C 
BRANCH   9  10
ATOM     10  C   UNL     1       9.917  16.127   2.286  0.00  0.00    +0.000 C 
ATOM     11  C   UNL     1       8.707  15.718   3.117  0.00  0.00    +0.000 C 
BRANCH  10  12
ATOM     12  O   UNL     1      10.405  14.961   1.609  0.00  0.00    +0.000 OA
ATOM     13  H   UNL     1       9.925  14.878   0.768  0.00  0.00    +0.000 HD
ENDBRANCH  10  12
ENDBRANCH   9  10
ENDBRANCH   1   9
BRANCH   1  14
ATOM     14  C   UNL     1      10.922  17.533  -0.791  0.00  0.00    +0.000 C 
BRANCH  14  15
ATOM     15  C   UNL     1      12.252  16.761  -0.618  0.00  0.00    +0.000 C 
ATOM     16  C   UNL     1      13.038  17.190   0.616  0.00  0.00    +0.000 C 
BRANCH  15  17
ATOM     17  O   UNL     1      12.037  15.353  -0.538  0.00  0.00    +0.000 OA
ATOM     18  H   UNL     1      11.791  15.187   0.395  0.00  0.00    +0.000 HD
ENDBRANCH  15  17
ENDBRANCH  14  15
ENDBRANCH   1  14
TORSDOF 7
ENDMDL
MODEL 8
REMARK VINA RESULT:    -3.668      8.710     12.228
REMARK INTER + INTRA:          -5.144
REMARK INTER:                  -4.567
REMARK INTRA:                  -0.577
REMARK UNBOUND:                -0.189
REMARK  Name = 
REMARK  10 active torsions:
REMARK  status: ('A' for Active; 'I' for Inactive)
REMARK    1  A    between atoms: C_1  and  C_2
REMARK    2  A    between atoms: C_5  and  N_8
REMARK    3  A    between atoms: N_8  and  C_9
REMARK    4  A    between atoms: N_8  and  C_13
REMARK    5  A    between atoms: C_9  and  C_10
REMARK    6  A    between atoms: C_10  and  C_11
REMARK    7  A    between atoms: C_10  and  O_12
REMARK    8  A    between atoms: C_13  and  C_14
REMARK    9  A    between atoms: C_14  and  C_15
REMARK   10  A    between atoms: C_14  and  O_16
REMARK                            x       y       z     vdW  Elec       q    Type
REMARK                         _______ _______ _______ _____ _____    ______ ____
ROOT
ATOM      1  N   UNL     1       6.804  15.163  -4.228  0.00  0.00    +0.000 N 
ENDROOT
BRANCH   1   6
ATOM      2  C   UNL     1       1.255  16.000  -2.871  0.00  0.00    +0.000 C 
ATOM      3  C   UNL     1       2.688  15.773  -3.245  0.00  0.00    +0.000 A 
ATOM      4  C   UNL     1       3.340  14.596  -2.894  0.00  0.00    +0.000 A 
ATOM      5  C   UNL     1       4.692  14.401  -3.221  0.00  0.00    +0.000 A 
ATOM      6  C   UNL     1       5.461  15.372  -3.888  0.00  0.00    +0.000 A 
ATOM      7  C   UNL     1       4.769  16.548  -4.230  0.00  0.00    +0.000 A 
ATOM      8  C   UNL     1       3.416  16.754  -3.911  0.00  0.00    +0.000 A 
ENDBRANCH   1   6
BRANCH   1   9
ATOM      9  C   UNL     1       7.759  14.660  -3.212  0.00  0.00    +0.000 C 
BRANCH   9  10
ATOM     10  C   UNL     1       8.111  15.723  -2.142  0.00  0.00    +0.000 C 
ATOM     11  C   UNL     1       7.435  15.405  -0.814  0.00  0.00    +0.000 C 
BRANCH  10  12
ATOM     12  O   UNL     1       9.527  15.778  -1.918  0.00  0.00    +0.000 OA
ATOM     13  H   UNL     1       9.905  16.425  -2.537  0.00  0.00    +0.000 HD
ENDBRANCH  10  12
ENDBRANCH   9  10
ENDBRANCH   1   9
BRANCH   1  14
ATOM     14  C   UNL     1       7.427  15.878  -5.371  0.00  0.00    +0.000 C 
BRANCH  14  15
ATOM     15  C   UNL     1       7.042  15.251  -6.733  0.00  0.00    +0.000 C 
ATOM     16  C   UNL     1       6.399  16.247  -7.691  0.00  0.00    +0.000 C 
BRANCH  15  17
ATOM     17  O   UNL     1       8.173  14.677  -7.387  0.00  0.00    +0.000 OA
ATOM     18  H   UNL     1       7.878  13.786  -7.665  0.00  0.00    +0.000 HD
ENDBRANCH  15  17
ENDBRANCH  14  15
ENDBRANCH   1  14
TORSDOF 7
ENDMDL
MODEL 9
REMARK VINA RESULT:    -3.666      3.888      6.712
REMARK INTER + INTRA:          -5.140
REMARK INTER:                  -4.694
REMARK INTRA:                  -0.446
REMARK UNBOUND:                -0.189
REMARK  Name = 
REMARK  10 active torsions:
REMARK  status: ('A' for Active; 'I' for Inactive)
REMARK    1  A    between atoms: C_1  and  C_2
REMARK    2  A    between atoms: C_5  and  N_8
REMARK    3  A    between atoms: N_8  and  C_9
REMARK    4  A    between atoms: N_8  and  C_13
REMARK    5  A    between atoms: C_9  and  C_10
REMARK    6  A    between atoms: C_10  and  C_11
REMARK    7  A    between atoms: C_10  and  O_12
REMARK    8  A    between atoms: C_13  and  C_14
REMARK    9  A    between atoms: C_14  and  C_15
REMARK   10  A    between atoms: C_14  and  O_16
REMARK                            x       y       z     vdW  Elec       q    Type
REMARK                         _______ _______ _______ _____ _____    ______ ____
ROOT
ATOM      1  N   UNL     1       8.209  15.975   0.580  0.00  0.00    +0.000 N 
ENDROOT
BRANCH   1   6
ATOM      2  C   UNL     1       7.734  13.927   5.957  0.00  0.00    +0.000 C 
ATOM      3  C   UNL     1       7.881  14.463   4.566  0.00  0.00    +0.000 A 
ATOM      4  C   UNL     1       7.612  15.798   4.283  0.00  0.00    +0.000 A 
ATOM      5  C   UNL     1       7.723  16.289   2.972  0.00  0.00    +0.000 A 
ATOM      6  C   UNL     1       8.081  15.474   1.882  0.00  0.00    +0.000 A 
ATOM      7  C   UNL     1       8.348  14.131   2.206  0.00  0.00    +0.000 A 
ATOM      8  C   UNL     1       8.243  13.628   3.513  0.00  0.00    +0.000 A 
ENDBRANCH   1   6
BRANCH   1   9
ATOM      9  C   UNL     1       7.774  15.156  -0.576  0.00  0.00    +0.000 C 
BRANCH   9  10
ATOM     10  C   UNL     1       6.332  15.484  -1.036  0.00  0.00    +0.000 C 
ATOM     11  C   UNL     1       6.325  16.034  -2.458  0.00  0.00    +0.000 C 
BRANCH  10  12
ATOM     12  O   UNL     1       5.504  14.314  -1.008  0.00  0.00    +0.000 OA
ATOM     13  H   UNL     1       4.685  14.535  -0.535  0.00  0.00    +0.000 HD
ENDBRANCH  10  12
ENDBRANCH   9  10
ENDBRANCH   1   9
BRANCH   1  14
ATOM     14  C   UNL     1       9.197  17.036   0.258  0.00  0.00    +0.000 C 
BRANCH  14  15
ATOM     15  C   UNL     1      10.405  16.487  -0.539  0.00  0.00    +0.000 C 
ATOM     16  C   UNL     1      11.292  17.584  -1.114  0.00  0.00    +0.000 C 
BRANCH  15  17
ATOM     17  O   UNL     1      11.221  15.634   0.262  0.00  0.00    +0.000 OA
ATOM     18  H   UNL     1      11.080  15.939   1.181  0.00  0.00    +0.000 HD
ENDBRANCH  15  17
ENDBRANCH  14  15
ENDBRANCH   1  14
TORSDOF 7
ENDMDL
