MODEL 1
REMARK VINA RESULT:    -3.733      0.000      0.000
REMARK INTER + INTRA:          -4.097
REMARK INTER:                  -4.060
REMARK INTRA:                  -0.037
REMARK UNBOUND:                -0.037
REMARK  Name = 
REMARK  3 active torsions:
REMARK  status: ('A' for Active; 'I' for Inactive)
REMARK    1  A    between atoms: C_1  and  O_2
REMARK    2  A    between atoms: O_2  and  C_3
REMARK    3  A    between atoms: C_8  and  O_9
REMARK                            x       y       z     vdW  Elec       q    Type
REMARK                         _______ _______ _______ _____ _____    ______ ____
ROOT
ATOM      1  C   UNL     1      14.738  -3.851  14.511  0.00  0.00    +0.000 A 
ATOM      2  C   UNL     1      14.950  -5.213  14.308  0.00  0.00    +0.000 A 
ATOM      3  C   UNL     1      14.925  -5.739  13.010  0.00  0.00    +0.000 A 
ATOM      4  C   UNL     1      14.687  -4.908  11.914  0.00  0.00    +0.000 A 
ATOM      5  C   UNL     1      14.475  -3.545  12.109  0.00  0.00    +0.000 A 
ATOM      6  C   UNL     1      14.501  -3.032  13.400  0.00  0.00    +0.000 A 
ENDROOT
BRANCH   1   8
ATOM      7  C   UNL     1      14.906  -4.013  16.876  0.00  0.00    +0.000 C 
ATOM      8  O   UNL     1      14.734  -3.202  15.720  0.00  0.00    +0.000 OA
ENDBRANCH   1   8
BRANCH   6   9
ATOM      9  O   UNL     1      14.289  -1.690  13.567  0.00  0.00    +0.000 OA
ATOM     10  H   UNL     1      15.162  -1.329  13.815  0.00  0.00    +0.000 HD
ENDBRANCH   6   9
TORSDOF 2
ENDMDL
MODEL 2
REMARK VINA RESULT:    -3.657     12.341     13.216
REMARK INTER + INTRA:          -4.015
REMARK INTER:                  -3.975
REMARK INTRA:                  -0.040
REMARK UNBOUND:                -0.037
REMARK  Name = 
REMARK  3 active torsions:
REMARK  status: ('A' for Active; 'I' for Inactive)
REMARK    1  A    between atoms: C_1  and  O_2
REMARK    2  A    between atoms: O_2  and  C_3
REMARK    3  A    between atoms: C_8  and  O_9
REMARK                            x       y       z     vdW  Elec       q    Type
REMARK                         _______ _______ _______ _____ _____    ______ ____
ROOT
ATOM      1  C   UNL     1       6.453  -6.464  24.300  0.00  0.00    +0.000 A 
ATOM      2  C   UNL     1       6.286  -7.066  23.053  0.00  0.00    +0.000 A 
ATOM      3  C   UNL     1       6.220  -6.277  21.898  0.00  0.00    +0.000 A 
ATOM      4  C   UNL     1       6.318  -4.887  21.984  0.00  0.00    +0.000 A 
ATOM      5  C   UNL     1       6.485  -4.278  23.226  0.00  0.00    +0.000 A 
ATOM      6  C   UNL     1       6.550  -5.069  24.366  0.00  0.00    +0.000 A 
ENDROOT
BRANCH   1   8
ATOM      7  C   UNL     1       7.012  -8.448  25.482  0.00  0.00    +0.000 C 
ATOM      8  O   UNL     1       6.534  -7.109  25.508  0.00  0.00    +0.000 OA
ENDBRANCH   1   8
BRANCH   6   9
ATOM      9  O   UNL     1       6.714  -4.447  25.575  0.00  0.00    +0.000 OA
ATOM     10  H   UNL     1       7.673  -4.495  25.751  0.00  0.00    +0.000 HD
ENDBRANCH   6   9
TORSDOF 2
ENDMDL
MODEL 3
REMARK VINA RESULT:    -3.561     12.230     13.218
REMARK INTER + INTRA:          -3.911
REMARK INTER:                  -3.858
REMARK INTRA:                  -0.053
REMARK UNBOUND:                -0.037
REMARK  Name = 
REMARK  3 active torsions:
REMARK  status: ('A' for Active; 'I' for Inactive)
REMARK    1  A    between atoms: C_1  and  O_2
REMARK    2  A    between atoms: O_2  and  C_3
REMARK    3  A    between atoms: C_8  and  O_9
REMARK                            x       y       z     vdW  Elec       q    Type
REMARK                         _______ _______ _______ _____ _____    ______ ____
ROOT
ATOM      1  C   UNL     1       6.316  -6.564  24.232  0.00  0.00    +0.000 A 
ATOM      2  C   UNL     1       6.314  -5.184  24.428  0.00  0.00    +0.000 A 
ATOM      3  C   UNL     1       6.265  -4.321  23.326  0.00  0.00    +0.000 A 
ATOM      4  C   UNL     1       6.220  -4.832  22.028  0.00  0.00    +0.000 A 
ATOM      5  C   UNL     1       6.222  -6.210  21.824  0.00  0.00    +0.000 A 
ATOM      6  C   UNL     1       6.270  -7.059  22.922  0.00  0.00    +0.000 A 
ENDROOT
BRANCH   1   8
ATOM      7  C   UNL     1       7.564  -7.602  25.967  0.00  0.00    +0.000 C 
ATOM      8  O   UNL     1       6.361  -7.522  25.212  0.00  0.00    +0.000 OA
ENDBRANCH   1   8
BRANCH   6   9
ATOM      9  O   UNL     1       6.270  -8.409  22.697  0.00  0.00    +0.000 OA
ATOM     10  H   UNL     1       5.374  -8.606  22.363  0.00  0.00    +0.000 HD
ENDBRANCH   6   9
TORSDOF 2
ENDMDL
MODEL 4
REMARK VINA RESULT:    -3.558     11.527     12.607
REMARK INTER + INTRA:          -3.908
REMARK INTER:                  -3.861
REMARK INTRA:                  -0.046
REMARK UNBOUND:                -0.037
REMARK  Name = 
REMARK  3 active torsions:
REMARK  status: ('A' for Active; 'I' for Inactive)
REMARK    1  A    between atoms: C_1  and  O_2
REMARK    2  A    between atoms: O_2  and  C_3
REMARK    3  A    between atoms: C_8  and  O_9
REMARK                            x       y       z     vdW  Elec       q    Type
REMARK                         _______ _______ _______ _____ _____    ______ ____
ROOT
ATOM      1  C   UNL     1       7.348  -5.646  23.692  0.00  0.00    +0.000 A 
ATOM      2  C   UNL     1       7.255  -6.441  24.833  0.00  0.00    +0.000 A 
ATOM      3  C   UNL     1       6.431  -7.573  24.832  0.00  0.00    +0.000 A 
ATOM      4  C   UNL     1       5.697  -7.913  23.694  0.00  0.00    +0.000 A 
ATOM      5  C   UNL     1       5.784  -7.123  22.550  0.00  0.00    +0.000 A 
ATOM      6  C   UNL     1       6.605  -6.002  22.560  0.00  0.00    +0.000 A 
ENDROOT
BRANCH   1   8
ATOM      7  C   UNL     1       9.449  -4.588  24.029  0.00  0.00    +0.000 C 
ATOM      8  O   UNL     1       8.111  -4.514  23.552  0.00  0.00    +0.000 OA
ENDBRANCH   1   8
BRANCH   6   9
ATOM      9  O   UNL     1       6.675  -5.242  21.423  0.00  0.00    +0.000 OA
ATOM     10  H   UNL     1       5.780  -4.864  21.323  0.00  0.00    +0.000 HD
ENDBRANCH   6   9
TORSDOF 2
ENDMDL
MODEL 5
REMARK VINA RESULT:    -3.485      1.654      3.065
REMARK INTER + INTRA:          -3.828
REMARK INTER:                  -3.777
REMARK INTRA:                  -0.051
REMARK UNBOUND:                -0.037
REMARK  Name = 
REMARK  3 active torsions:
REMARK  status: ('A' for Active; 'I' for Inactive)
REMARK    1  A    between atoms: C_1  and  O_2
REMARK    2  A    between atoms: O_2  and  C_3
REMARK    3  A    between atoms: C_8  and  O_9
REMARK                            x       y       z     vdW  Elec       q    Type
REMARK                         _______ _______ _______ _____ _____    ______ ____
ROOT
ATOM      1  C   UNL     1      14.129  -4.194  13.783  0.00  0.00    +0.000 A 
ATOM      2  C   UNL     1      14.494  -4.559  15.078  0.00  0.00    +0.000 A 
ATOM      3  C   UNL     1      14.904  -3.579  15.992  0.00  0.00    +0.000 A 
ATOM      4  C   UNL     1      14.950  -2.235  15.615  0.00  0.00    +0.000 A 
ATOM      5  C   UNL     1      14.585  -1.863  14.323  0.00  0.00    +0.000 A 
ATOM      6  C   UNL     1      14.181  -2.842  13.424  0.00  0.00    +0.000 A 
ENDROOT
BRANCH   1   8
ATOM      7  C   UNL     1      14.601  -6.095  12.437  0.00  0.00    +0.000 C 
ATOM      8  O   UNL     1      13.711  -5.042  12.789  0.00  0.00    +0.000 OA
ENDBRANCH   1   8
BRANCH   6   9
ATOM      9  O   UNL     1      13.828  -2.451  12.160  0.00  0.00    +0.000 OA
ATOM     10  H   UNL     1      14.355  -1.647  11.992  0.00  0.00    +0.000 HD
ENDBRANCH   6   9
TORSDOF 2
ENDMDL
MODEL 6
REMARK VINA RESULT:    -3.437     16.649     18.194
REMARK INTER + INTRA:          -3.776
REMARK INTER:                  -3.739
REMARK INTRA:                  -0.038
REMARK UNBOUND:                -0.037
REMARK  Name = 
REMARK  3 active torsions:
REMARK  status: ('A' for Active; 'I' for Inactive)
REMARK    1  A    between atoms: C_1  and  O_2
REMARK    2  A    between atoms: O_2  and  C_3
REMARK    3  A    between atoms: C_8  and  O_9
REMARK                            x       y       z     vdW  Elec       q    Type
REMARK                         _______ _______ _______ _____ _____    ______ ____
ROOT
ATOM      1  C   UNL     1       7.476  10.155   4.524  0.00  0.00    +0.000 A 
ATOM      2  C   UNL     1       8.445  11.114   4.818  0.00  0.00    +0.000 A 
ATOM      3  C   UNL     1       9.767  10.721   5.061  0.00  0.00    +0.000 A 
ATOM      4  C   UNL     1      10.125   9.372   5.011  0.00  0.00    +0.000 A 
ATOM      5  C   UNL     1       9.163   8.409   4.717  0.00  0.00    +0.000 A 
ATOM      6  C   UNL     1       7.854   8.808   4.478  0.00  0.00    +0.000 A 
ENDROOT
BRANCH   1   8
ATOM      7  C   UNL     1       5.692  11.724   4.482  0.00  0.00    +0.000 C 
ATOM      8  O   UNL     1       6.150  10.395   4.267  0.00  0.00    +0.000 OA
ENDBRANCH   1   8
BRANCH   6   9
ATOM      9  O   UNL     1       6.926   7.842   4.192  0.00  0.00    +0.000 OA
ATOM     10  H   UNL     1       7.104   7.594   3.264  0.00  0.00    +0.000 HD
ENDBRANCH   6   9
TORSDOF 2
ENDMDL
MODEL 7
REMARK VINA RESULT:    -3.434     12.172     13.171
REMARK INTER + INTRA:          -3.773
REMARK INTER:                  -3.721
REMARK INTRA:                  -0.052
REMARK UNBOUND:                -0.037
REMARK  Name = 
REMARK  3 active torsions:
REMARK  status: ('A' for Active; 'I' for Inactive)
REMARK    1  A    between atoms: C_1  and  O_2
REMARK    2  A    between atoms: O_2  and  C_3
REMARK    3  A    between atoms: C_8  and  O_9
REMARK                            x       y       z     vdW  Elec       q    Type
REMARK                         _______ _______ _______ _____ _____    ______ ____
ROOT
ATOM      1  C   UNL     1       6.620  -5.904  23.024  0.00  0.00    +0.000 A 
ATOM      2  C   UNL     1       7.338  -5.691  24.199  0.00  0.00    +0.000 A 
ATOM      3  C   UNL     1       7.368  -6.681  25.190  0.00  0.00    +0.000 A 
ATOM      4  C   UNL     1       6.682  -7.884  25.009  0.00  0.00    +0.000 A 
ATOM      5  C   UNL     1       5.963  -8.104  23.837  0.00  0.00    +0.000 A 
ATOM      6  C   UNL     1       5.938  -7.116  22.861  0.00  0.00    +0.000 A 
ENDROOT
BRANCH   1   8
ATOM      7  C   UNL     1       5.859  -3.789  22.252  0.00  0.00    +0.000 C 
ATOM      8  O   UNL     1       6.503  -5.027  21.975  0.00  0.00    +0.000 OA
ENDBRANCH   1   8
BRANCH   6   9
ATOM      9  O   UNL     1       5.224  -7.355  21.717  0.00  0.00    +0.000 OA
ATOM     10  H   UNL     1       5.779  -6.998  20.998  0.00  0.00    +0.000 HD
ENDBRANCH   6   9
TORSDOF 2
ENDMDL
MODEL 8
REMARK VINA RESULT:    -3.420     11.930     13.196
REMARK INTER + INTRA:          -3.758
REMARK INTER:                  -3.710
REMARK INTRA:                  -0.047
REMARK UNBOUND:                -0.037
REMARK  Name = 
REMARK  3 active torsions:
REMARK  status: ('A' for Active; 'I' for Inactive)
REMARK    1  A    between atoms: C_1  and  O_2
REMARK    2  A    between atoms: O_2  and  C_3
REMARK    3  A    between atoms: C_8  and  O_9
REMARK                            x       y       z     vdW  Elec       q    Type
REMARK                         _______ _______ _______ _____ _____    ______ ____
ROOT
ATOM      1  C   UNL     1       6.270  -6.625  23.439  0.00  0.00    +0.000 A 
ATOM      2  C   UNL     1       6.322  -6.679  24.831  0.00  0.00    +0.000 A 
ATOM      3  C   UNL     1       6.887  -5.619  25.552  0.00  0.00    +0.000 A 
ATOM      4  C   UNL     1       7.400  -4.504  24.886  0.00  0.00    +0.000 A 
ATOM      5  C   UNL     1       7.351  -4.443  23.495  0.00  0.00    +0.000 A 
ATOM      6  C   UNL     1       6.790  -5.499  22.788  0.00  0.00    +0.000 A 
ENDROOT
BRANCH   1   8
ATOM      7  C   UNL     1       4.467  -8.095  22.955  0.00  0.00    +0.000 C 
ATOM      8  O   UNL     1       5.749  -7.585  22.609  0.00  0.00    +0.000 OA
ENDBRANCH   1   8
BRANCH   6   9
ATOM      9  O   UNL     1       6.753  -5.415  21.422  0.00  0.00    +0.000 OA
ATOM     10  H   UNL     1       7.030  -6.298  21.112  0.00  0.00    +0.000 HD
ENDBRANCH   6   9
TORSDOF 2
ENDMDL
MODEL 9
REMARK VINA RESULT:    -3.393     12.488     13.280
REMARK INTER + INTRA:          -3.728
REMARK INTER:                  -3.678
REMARK INTRA:                  -0.050
REMARK UNBOUND:                -0.037
REMARK  Name = 
REMARK  3 active torsions:
REMARK  status: ('A' for Active; 'I' for Inactive)
REMARK    1  A    between atoms: C_1  and  O_2
REMARK    2  A    between atoms: O_2  and  C_3
REMARK    3  A    between atoms: C_8  and  O_9
REMARK                            x       y       z     vdW  Elec       q    Type
REMARK                         _______ _______ _______ _____ _____    ______ ____
ROOT
ATOM      1  C   UNL     1       6.503  -5.493  24.510  0.00  0.00    +0.000 A 
ATOM      2  C   UNL     1       6.429  -4.450  23.588  0.00  0.00    +0.000 A 
ATOM      3  C   UNL     1       6.277  -4.731  22.224  0.00  0.00    +0.000 A 
ATOM      4  C   UNL     1       6.201  -6.052  21.778  0.00  0.00    +0.000 A 
ATOM      5  C   UNL     1       6.274  -7.100  22.694  0.00  0.00    +0.000 A 
ATOM      6  C   UNL     1       6.424  -6.811  24.044  0.00  0.00    +0.000 A 
ENDROOT
BRANCH   1   8
ATOM      7  C   UNL     1       7.767  -4.607  26.316  0.00  0.00    +0.000 C 
ATOM      8  O   UNL     1       6.651  -5.366  25.868  0.00  0.00    +0.000 OA
ENDBRANCH   1   8
BRANCH   6   9
ATOM      9  O   UNL     1       6.494  -7.858  24.925  0.00  0.00    +0.000 OA
ATOM     10  H   UNL     1       6.870  -8.594  24.406  0.00  0.00    +0.000 HD
ENDBRANCH   6   9
TORSDOF 2
ENDMDL
