MODEL 1
REMARK VINA RESULT:    -4.965      0.000      0.000
REMARK INTER + INTRA:          -7.445
REMARK INTER:                  -6.706
REMARK INTRA:                  -0.739
REMARK UNBOUND:                -0.739
REMARK  Name = 
REMARK  10 active torsions:
REMARK  status: ('A' for Active; 'I' for Inactive)
REMARK    1  A    between atoms: C_1  and  C_2
REMARK    2  A    between atoms: C_5  and  N_8
REMARK    3  A    between atoms: N_8  and  C_9
REMARK    4  A    between atoms: N_8  and  C_13
REMARK    5  A    between atoms: C_9  and  C_10
REMARK    6  A    between atoms: C_10  and  C_11
REMARK    7  A    between atoms: C_10  and  O_12
REMARK    8  A    between atoms: C_13  and  C_14
REMARK    9  A    between atoms: C_14  and  C_15
REMARK   10  A    between atoms: C_14  and  O_16
REMARK                            x       y       z     vdW  Elec       q    Type
REMARK                         _______ _______ _______ _____ _____    ______ ____
ROOT
ATOM      1  N   UNL     1      30.473  15.771   6.046  0.00  0.00    +0.000 N 
ENDROOT
BRANCH   1   6
ATOM      2  C   UNL     1      28.420  17.458   0.920  0.00  0.00    +0.000 C 
ATOM      3  C   UNL     1      28.934  17.004   2.252  0.00  0.00    +0.000 A 
ATOM      4  C   UNL     1      28.544  17.643   3.424  0.00  0.00    +0.000 A 
ATOM      5  C   UNL     1      29.053  17.233   4.667  0.00  0.00    +0.000 A 
ATOM      6  C   UNL     1      29.985  16.188   4.801  0.00  0.00    +0.000 A 
ATOM      7  C   UNL     1      30.355  15.563   3.596  0.00  0.00    +0.000 A 
ATOM      8  C   UNL     1      29.853  15.962   2.347  0.00  0.00    +0.000 A 
ENDBRANCH   1   6
BRANCH   1   9
ATOM      9  C   UNL     1      29.819  16.234   7.294  0.00  0.00    +0.000 C 
BRANCH   9  10
ATOM     10  C   UNL     1      28.770  15.229   7.830  0.00  0.00    +0.000 C 
ATOM     11  C   UNL     1      27.482  15.943   8.223  0.00  0.00    +0.000 C 
BRANCH  10  12
ATOM     12  O   UNL     1      28.447  14.244   6.838  0.00  0.00    +0.000 OA
ATOM     13  H   UNL     1      29.222  14.130   6.263  0.00  0.00    +0.000 HD
ENDBRANCH  10  12
ENDBRANCH   9  10
ENDBRANCH   1   9
BRANCH   1  14
ATOM     14  C   UNL     1      31.878  15.318   6.209  0.00  0.00    +0.000 C 
BRANCH  14  15
ATOM     15  C   UNL     1      31.976  13.794   6.460  0.00  0.00    +0.000 C 
ATOM     16  C   UNL     1      32.094  13.437   7.937  0.00  0.00    +0.000 C 
BRANCH  15  17
ATOM     17  O   UNL     1      30.850  13.099   5.926  0.00  0.00    +0.000 OA
ATOM     18  H   UNL     1      31.232  12.376   5.388  0.00  0.00    +0.000 HD
ENDBRANCH  15  17
ENDBRANCH  14  15
ENDBRANCH   1  14
TORSDOF 7
ENDMDL
MODEL 2
REMARK VINA RESULT:    -4.876      2.473      4.483
REMARK INTER + INTRA:          -7.325
REMARK INTER:                  -6.612
REMARK INTRA:                  -0.714
REMARK UNBOUND:                -0.739
REMARK  Name = 
REMARK  10 active torsions:
REMARK  status: ('A' for Active; 'I' for Inactive)
REMARK    1  A    between atoms: C_1  and  C_2
REMARK    2  A    between atoms: C_5  and  N_8
REMARK    3  A    between atoms: N_8  and  C_9
REMARK    4  A    between atoms: N_8  and  C_13
REMARK    5  A    between atoms: C_9  and  C_10
REMARK    6  A    between atoms: C_10  and  C_11
REMARK    7  A    between atoms: C_10  and  O_12
REMARK    8  A    between atoms: C_13  and  C_14
REMARK    9  A    between atoms: C_14  and  C_15
REMARK   10  A    between atoms: C_14  and  O_16
REMARK                            x       y       z     vdW  Elec       q    Type
REMARK                         _______ _______ _______ _____ _____    ______ ____
ROOT
ATOM      1  N   UNL     1      28.739  16.262   4.934  0.00  0.00    +0.000 N 
ENDROOT
BRANCH   1   6
ATOM      2  C   UNL     1      34.191  17.627   6.253  0.00  0.00    +0.000 C 
ATOM      3  C   UNL     1      32.776  17.257   5.930  0.00  0.00    +0.000 A 
ATOM      4  C   UNL     1      32.492  16.231   5.034  0.00  0.00    +0.000 A 
ATOM      5  C   UNL     1      31.164  15.909   4.713  0.00  0.00    +0.000 A 
ATOM      6  C   UNL     1      30.062  16.602   5.245  0.00  0.00    +0.000 A 
ATOM      7  C   UNL     1      30.386  17.631   6.148  0.00  0.00    +0.000 A 
ATOM      8  C   UNL     1      31.710  17.962   6.480  0.00  0.00    +0.000 A 
ENDBRANCH   1   6
BRANCH   1   9
ATOM      9  C   UNL     1      27.644  16.604   5.874  0.00  0.00    +0.000 C 
BRANCH   9  10
ATOM     10  C   UNL     1      27.357  15.479   6.897  0.00  0.00    +0.000 C 
ATOM     11  C   UNL     1      27.321  16.030   8.318  0.00  0.00    +0.000 C 
BRANCH  10  12
ATOM     12  O   UNL     1      26.095  14.850   6.632  0.00  0.00    +0.000 OA
ATOM     13  H   UNL     1      25.460  15.155   7.301  0.00  0.00    +0.000 HD
ENDBRANCH  10  12
ENDBRANCH   9  10
ENDBRANCH   1   9
BRANCH   1  14
ATOM     14  C   UNL     1      28.430  15.157   3.991  0.00  0.00    +0.000 C 
BRANCH  14  15
ATOM     15  C   UNL     1      27.106  15.396   3.226  0.00  0.00    +0.000 C 
ATOM     16  C   UNL     1      27.286  15.433   1.713  0.00  0.00    +0.000 C 
BRANCH  15  17
ATOM     17  O   UNL     1      26.134  14.396   3.530  0.00  0.00    +0.000 OA
ATOM     18  H   UNL     1      26.316  14.141   4.457  0.00  0.00    +0.000 HD
ENDBRANCH  15  17
ENDBRANCH  14  15
ENDBRANCH   1  14
TORSDOF 7
ENDMDL
MODEL 3
REMARK VINA RESULT:    -4.857      1.426      3.224
REMARK INTER + INTRA:          -7.299
REMARK INTER:                  -6.710
REMARK INTRA:                  -0.589
REMARK UNBOUND:                -0.739
REMARK  Name = 
REMARK  10 active torsions:
REMARK  status: ('A' for Active; 'I' for Inactive)
REMARK    1  A    between atoms: C_1  and  C_2
REMARK    2  A    between atoms: C_5  and  N_8
REMARK    3  A    between atoms: N_8  and  C_9
REMARK    4  A    between atoms: N_8  and  C_13
REMARK    5  A    between atoms: C_9  and  C_10
REMARK    6  A    between atoms: C_10  and  C_11
REMARK    7  A    between atoms: C_10  and  O_12
REMARK    8  A    between atoms: C_13  and  C_14
REMARK    9  A    between atoms: C_14  and  C_15
REMARK   10  A    between atoms: C_14  and  O_16
REMARK                            x       y       z     vdW  Elec       q    Type
REMARK                         _______ _______ _______ _____ _____    ______ ____
ROOT
ATOM      1  N   UNL     1      29.601  15.823   6.884  0.00  0.00    +0.000 N 
ENDROOT
BRANCH   1   6
ATOM      2  C   UNL     1      28.537  17.557   1.482  0.00  0.00    +0.000 C 
ATOM      3  C   UNL     1      28.789  17.102   2.887  0.00  0.00    +0.000 A 
ATOM      4  C   UNL     1      28.774  18.006   3.943  0.00  0.00    +0.000 A 
ATOM      5  C   UNL     1      29.041  17.579   5.255  0.00  0.00    +0.000 A 
ATOM      6  C   UNL     1      29.356  16.246   5.572  0.00  0.00    +0.000 A 
ATOM      7  C   UNL     1      29.359  15.359   4.479  0.00  0.00    +0.000 A 
ATOM      8  C   UNL     1      29.092  15.772   3.164  0.00  0.00    +0.000 A 
ENDBRANCH   1   6
BRANCH   1   9
ATOM      9  C   UNL     1      30.993  15.733   7.388  0.00  0.00    +0.000 C 
BRANCH   9  10
ATOM     10  C   UNL     1      31.391  14.294   7.797  0.00  0.00    +0.000 C 
ATOM     11  C   UNL     1      31.827  13.483   6.583  0.00  0.00    +0.000 C 
BRANCH  10  12
ATOM     12  O   UNL     1      32.475  14.306   8.736  0.00  0.00    +0.000 OA
ATOM     13  H   UNL     1      33.158  14.912   8.400  0.00  0.00    +0.000 HD
ENDBRANCH  10  12
ENDBRANCH   9  10
ENDBRANCH   1   9
BRANCH   1  14
ATOM     14  C   UNL     1      28.615  14.993   7.622  0.00  0.00    +0.000 C 
BRANCH  14  15
ATOM     15  C   UNL     1      27.485  15.845   8.247  0.00  0.00    +0.000 C 
ATOM     16  C   UNL     1      27.987  17.144   8.868  0.00  0.00    +0.000 C 
BRANCH  15  17
ATOM     17  O   UNL     1      26.480  16.173   7.289  0.00  0.00    +0.000 OA
ATOM     18  H   UNL     1      25.926  16.850   7.726  0.00  0.00    +0.000 HD
ENDBRANCH  15  17
ENDBRANCH  14  15
ENDBRANCH   1  14
TORSDOF 7
ENDMDL
MODEL 4
REMARK VINA RESULT:    -4.855      1.558      4.700
REMARK INTER + INTRA:          -7.297
REMARK INTER:                  -6.649
REMARK INTRA:                  -0.648
REMARK UNBOUND:                -0.739
REMARK  Name = 
REMARK  10 active torsions:
REMARK  status: ('A' for Active; 'I' for Inactive)
REMARK    1  A    between atoms: C_1  and  C_2
REMARK    2  A    between atoms: C_5  and  N_8
REMARK    3  A    between atoms: N_8  and  C_9
REMARK    4  A    between atoms: N_8  and  C_13
REMARK    5  A    between atoms: C_9  and  C_10
REMARK    6  A    between atoms: C_10  and  C_11
REMARK    7  A    between atoms: C_10  and  O_12
REMARK    8  A    between atoms: C_13  and  C_14
REMARK    9  A    between atoms: C_14  and  C_15
REMARK   10  A    between atoms: C_14  and  O_16
REMARK                            x       y       z     vdW  Elec       q    Type
REMARK                         _______ _______ _______ _____ _____    ______ ____
ROOT
ATOM      1  N   UNL     1      30.263  15.481   5.702  0.00  0.00    +0.000 N 
ENDROOT
BRANCH   1   6
ATOM      2  C   UNL     1      26.262  17.347   9.422  0.00  0.00    +0.000 C 
ATOM      3  C   UNL     1      27.283  16.864   8.438  0.00  0.00    +0.000 A 
ATOM      4  C   UNL     1      27.452  15.506   8.192  0.00  0.00    +0.000 A 
ATOM      5  C   UNL     1      28.432  15.058   7.291  0.00  0.00    +0.000 A 
ATOM      6  C   UNL     1      29.301  15.933   6.614  0.00  0.00    +0.000 A 
ATOM      7  C   UNL     1      29.101  17.299   6.886  0.00  0.00    +0.000 A 
ATOM      8  C   UNL     1      28.123  17.761   7.783  0.00  0.00    +0.000 A 
ENDBRANCH   1   6
BRANCH   1   9
ATOM      9  C   UNL     1      31.664  15.275   6.141  0.00  0.00    +0.000 C 
BRANCH   9  10
ATOM     10  C   UNL     1      31.978  13.794   6.471  0.00  0.00    +0.000 C 
ATOM     11  C   UNL     1      32.068  13.579   7.977  0.00  0.00    +0.000 C 
BRANCH  10  12
ATOM     12  O   UNL     1      30.958  12.926   5.958  0.00  0.00    +0.000 OA
ATOM     13  H   UNL     1      30.994  12.092   6.456  0.00  0.00    +0.000 HD
ENDBRANCH  10  12
ENDBRANCH   9  10
ENDBRANCH   1   9
BRANCH   1  14
ATOM     14  C   UNL     1      30.090  15.678   4.240  0.00  0.00    +0.000 C 
BRANCH  14  15
ATOM     15  C   UNL     1      29.011  14.739   3.648  0.00  0.00    +0.000 C 
ATOM     16  C   UNL     1      27.748  15.474   3.216  0.00  0.00    +0.000 C 
BRANCH  15  17
ATOM     17  O   UNL     1      29.505  14.012   2.525  0.00  0.00    +0.000 OA
ATOM     18  H   UNL     1      29.737  13.129   2.877  0.00  0.00    +0.000 HD
ENDBRANCH  15  17
ENDBRANCH  14  15
ENDBRANCH   1  14
TORSDOF 7
ENDMDL
MODEL 5
REMARK VINA RESULT:    -4.837      1.749      3.773
REMARK INTER + INTRA:          -7.272
REMARK INTER:                  -6.869
REMARK INTRA:                  -0.403
REMARK UNBOUND:                -0.739
REMARK  Name = 
REMARK  10 active torsions:
REMARK  status: ('A' for Active; 'I' for Inactive)
REMARK    1  A    between atoms: C_1  and  C_2
REMARK    2  A    between atoms: C_5  and  N_8
REMARK    3  A    between atoms: N_8  and  C_9
REMARK    4  A    between atoms: N_8  and  C_13
REMARK    5  A    between atoms: C_9  and  C_10
REMARK    6  A    between atoms: C_10  and  C_11
REMARK    7  A    between atoms: C_10  and  O_12
REMARK    8  A    between atoms: C_13  and  C_14
REMARK    9  A    between atoms: C_14  and  C_15
REMARK   10  A    between atoms: C_14  and  O_16
REMARK                            x       y       z     vdW  Elec       q    Type
REMARK                         _______ _______ _______ _____ _____    ______ ____
ROOT
ATOM      1  N   UNL     1      28.134  15.690   6.700  0.00  0.00    +0.000 N 
ENDROOT
BRANCH   1   6
ATOM      2  C   UNL     1      28.591  17.662   1.294  0.00  0.00    +0.000 C 
ATOM      3  C   UNL     1      28.496  17.142   2.695  0.00  0.00    +0.000 A 
ATOM      4  C   UNL     1      28.006  15.866   2.952  0.00  0.00    +0.000 A 
ATOM      5  C   UNL     1      27.891  15.394   4.270  0.00  0.00    +0.000 A 
ATOM      6  C   UNL     1      28.233  16.174   5.390  0.00  0.00    +0.000 A 
ATOM      7  C   UNL     1      28.727  17.458   5.093  0.00  0.00    +0.000 A 
ATOM      8  C   UNL     1      28.849  17.940   3.779  0.00  0.00    +0.000 A 
ENDBRANCH   1   6
BRANCH   1   9
ATOM      9  C   UNL     1      28.805  14.423   7.078  0.00  0.00    +0.000 C 
BRANCH   9  10
ATOM     10  C   UNL     1      30.252  14.325   6.536  0.00  0.00    +0.000 C 
ATOM     11  C   UNL     1      31.260  14.284   7.678  0.00  0.00    +0.000 C 
BRANCH  10  12
ATOM     12  O   UNL     1      30.426  13.141   5.746  0.00  0.00    +0.000 OA
ATOM     13  H   UNL     1      29.844  13.207   4.971  0.00  0.00    +0.000 HD
ENDBRANCH  10  12
ENDBRANCH   9  10
ENDBRANCH   1   9
BRANCH   1  14
ATOM     14  C   UNL     1      27.008  16.088   7.584  0.00  0.00    +0.000 C 
BRANCH  14  15
ATOM     15  C   UNL     1      25.819  15.100   7.496  0.00  0.00    +0.000 C 
ATOM     16  C   UNL     1      24.982  15.055   8.768  0.00  0.00    +0.000 C 
BRANCH  15  17
ATOM     17  O   UNL     1      24.952  15.414   6.407  0.00  0.00    +0.000 OA
ATOM     18  H   UNL     1      24.467  14.585   6.223  0.00  0.00    +0.000 HD
ENDBRANCH  15  17
ENDBRANCH  14  15
ENDBRANCH   1  14
TORSDOF 7
ENDMDL
MODEL 6
REMARK VINA RESULT:    -4.827      1.745      2.323
REMARK INTER + INTRA:          -7.259
REMARK INTER:                  -7.026
REMARK INTRA:                  -0.233
REMARK UNBOUND:                -0.739
REMARK  Name = 
REMARK  10 active torsions:
REMARK  status: ('A' for Active; 'I' for Inactive)
REMARK    1  A    between atoms: C_1  and  C_2
REMARK    2  A    between atoms: C_5  and  N_8
REMARK    3  A    between atoms: N_8  and  C_9
REMARK    4  A    between atoms: N_8  and  C_13
REMARK    5  A    between atoms: C_9  and  C_10
REMARK    6  A    between atoms: C_10  and  C_11
REMARK    7  A    between atoms: C_10  and  O_12
REMARK    8  A    between atoms: C_13  and  C_14
REMARK    9  A    between atoms: C_14  and  C_15
REMARK   10  A    between atoms: C_14  and  O_16
REMARK                            x       y       z     vdW  Elec       q    Type
REMARK                         _______ _______ _______ _____ _____    ______ ____
ROOT
ATOM      1  N   UNL     1      28.136  15.355   6.569  0.00  0.00    +0.000 N 
ENDROOT
BRANCH   1   6
ATOM      2  C   UNL     1      28.651  17.728   1.332  0.00  0.00    +0.000 C 
ATOM      3  C   UNL     1      28.542  17.106   2.690  0.00  0.00    +0.000 A 
ATOM      4  C   UNL     1      28.164  15.776   2.838  0.00  0.00    +0.000 A 
ATOM      5  C   UNL     1      28.034  15.206   4.115  0.00  0.00    +0.000 A 
ATOM      6  C   UNL     1      28.249  15.935   5.299  0.00  0.00    +0.000 A 
ATOM      7  C   UNL     1      28.631  17.276   5.112  0.00  0.00    +0.000 A 
ATOM      8  C   UNL     1      28.767  17.857   3.840  0.00  0.00    +0.000 A 
ENDBRANCH   1   6
BRANCH   1   9
ATOM      9  C   UNL     1      27.084  15.816   7.506  0.00  0.00    +0.000 C 
BRANCH   9  10
ATOM     10  C   UNL     1      25.788  14.975   7.415  0.00  0.00    +0.000 C 
ATOM     11  C   UNL     1      24.990  15.060   8.711  0.00  0.00    +0.000 C 
BRANCH  10  12
ATOM     12  O   UNL     1      24.949  15.436   6.346  0.00  0.00    +0.000 OA
ATOM     13  H   UNL     1      24.053  15.564   6.700  0.00  0.00    +0.000 HD
ENDBRANCH  10  12
ENDBRANCH   9  10
ENDBRANCH   1   9
BRANCH   1  14
ATOM     14  C   UNL     1      29.294  14.681   7.212  0.00  0.00    +0.000 C 
BRANCH  14  15
ATOM     15  C   UNL     1      30.428  14.380   6.204  0.00  0.00    +0.000 C 
ATOM     16  C   UNL     1      31.821  14.581   6.790  0.00  0.00    +0.000 C 
BRANCH  15  17
ATOM     17  O   UNL     1      30.349  13.046   5.703  0.00  0.00    +0.000 OA
ATOM     18  H   UNL     1      30.520  13.126   4.743  0.00  0.00    +0.000 HD
ENDBRANCH  15  17
ENDBRANCH  14  15
ENDBRANCH   1  14
TORSDOF 7
ENDMDL
MODEL 7
REMARK VINA RESULT:    -4.765      2.536      4.604
REMARK INTER + INTRA:          -7.176
REMARK INTER:                  -6.516
REMARK INTRA:                  -0.660
REMARK UNBOUND:                -0.739
REMARK  Name = 
REMARK  10 active torsions:
REMARK  status: ('A' for Active; 'I' for Inactive)
REMARK    1  A    between atoms: C_1  and  C_2
REMARK    2  A    between atoms: C_5  and  N_8
REMARK    3  A    between atoms: N_8  and  C_9
REMARK    4  A    between atoms: N_8  and  C_13
REMARK    5  A    between atoms: C_9  and  C_10
REMARK    6  A    between atoms: C_10  and  C_11
REMARK    7  A    between atoms: C_10  and  O_12
REMARK    8  A    between atoms: C_13  and  C_14
REMARK    9  A    between atoms: C_14  and  C_15
REMARK   10  A    between atoms: C_14  and  O_16
REMARK                            x       y       z     vdW  Elec       q    Type
REMARK                         _______ _______ _______ _____ _____    ______ ____
ROOT
ATOM      1  N   UNL     1      28.836  15.846   5.319  0.00  0.00    +0.000 N 
ENDROOT
BRANCH   1   6
ATOM      2  C   UNL     1      34.186  17.894   6.034  0.00  0.00    +0.000 C 
ATOM      3  C   UNL     1      32.794  17.380   5.831  0.00  0.00    +0.000 A 
ATOM      4  C   UNL     1      31.737  17.858   6.598  0.00  0.00    +0.000 A 
ATOM      5  C   UNL     1      30.439  17.351   6.424  0.00  0.00    +0.000 A 
ATOM      6  C   UNL     1      30.136  16.334   5.501  0.00  0.00    +0.000 A 
ATOM      7  C   UNL     1      31.228  15.876   4.741  0.00  0.00    +0.000 A 
ATOM      8  C   UNL     1      32.531  16.376   4.903  0.00  0.00    +0.000 A 
ENDBRANCH   1   6
BRANCH   1   9
ATOM      9  C   UNL     1      28.505  15.042   4.118  0.00  0.00    +0.000 C 
BRANCH   9  10
ATOM     10  C   UNL     1      27.235  15.546   3.389  0.00  0.00    +0.000 C 
ATOM     11  C   UNL     1      27.499  15.730   1.899  0.00  0.00    +0.000 C 
BRANCH  10  12
ATOM     12  O   UNL     1      26.153  14.616   3.537  0.00  0.00    +0.000 OA
ATOM     13  H   UNL     1      25.329  15.123   3.618  0.00  0.00    +0.000 HD
ENDBRANCH  10  12
ENDBRANCH   9  10
ENDBRANCH   1   9
BRANCH   1  14
ATOM     14  C   UNL     1      27.672  16.496   5.975  0.00  0.00    +0.000 C 
BRANCH  14  15
ATOM     15  C   UNL     1      26.944  15.541   6.951  0.00  0.00    +0.000 C 
ATOM     16  C   UNL     1      26.818  16.106   8.361  0.00  0.00    +0.000 C 
BRANCH  15  17
ATOM     17  O   UNL     1      25.635  15.212   6.488  0.00  0.00    +0.000 OA
ATOM     18  H   UNL     1      25.716  15.163   5.514  0.00  0.00    +0.000 HD
ENDBRANCH  15  17
ENDBRANCH  14  15
ENDBRANCH   1  14
TORSDOF 7
ENDMDL
MODEL 8
REMARK VINA RESULT:    -4.726      1.559      2.020
REMARK INTER + INTRA:          -7.122
REMARK INTER:                  -6.480
REMARK INTRA:                  -0.642
REMARK UNBOUND:                -0.739
REMARK  Name = 
REMARK  10 active torsions:
REMARK  status: ('A' for Active; 'I' for Inactive)
REMARK    1  A    between atoms: C_1  and  C_2
REMARK    2  A    between atoms: C_5  and  N_8
REMARK    3  A    between atoms: N_8  and  C_9
REMARK    4  A    between atoms: N_8  and  C_13
REMARK    5  A    between atoms: C_9  and  C_10
REMARK    6  A    between atoms: C_10  and  C_11
REMARK    7  A    between atoms: C_10  and  O_12
REMARK    8  A    between atoms: C_13  and  C_14
REMARK    9  A    between atoms: C_14  and  C_15
REMARK   10  A    between atoms: C_14  and  O_16
REMARK                            x       y       z     vdW  Elec       q    Type
REMARK                         _______ _______ _______ _____ _____    ______ ____
ROOT
ATOM      1  N   UNL     1      28.747  16.071   4.925  0.00  0.00    +0.000 N 
ENDROOT
BRANCH   1   6
ATOM      2  C   UNL     1      27.047  16.319  -0.587  0.00  0.00    +0.000 C 
ATOM      3  C   UNL     1      27.468  16.269   0.850  0.00  0.00    +0.000 A 
ATOM      4  C   UNL     1      28.340  17.218   1.373  0.00  0.00    +0.000 A 
ATOM      5  C   UNL     1      28.756  17.148   2.713  0.00  0.00    +0.000 A 
ATOM      6  C   UNL     1      28.344  16.123   3.585  0.00  0.00    +0.000 A 
ATOM      7  C   UNL     1      27.462  15.183   3.023  0.00  0.00    +0.000 A 
ATOM      8  C   UNL     1      27.037  15.242   1.685  0.00  0.00    +0.000 A 
ENDBRANCH   1   6
BRANCH   1   9
ATOM      9  C   UNL     1      27.818  16.500   5.998  0.00  0.00    +0.000 C 
BRANCH   9  10
ATOM     10  C   UNL     1      28.054  15.750   7.332  0.00  0.00    +0.000 C 
ATOM     11  C   UNL     1      27.125  16.270   8.422  0.00  0.00    +0.000 C 
BRANCH  10  12
ATOM     12  O   UNL     1      27.817  14.343   7.180  0.00  0.00    +0.000 OA
ATOM     13  H   UNL     1      27.184  14.221   6.453  0.00  0.00    +0.000 HD
ENDBRANCH  10  12
ENDBRANCH   9  10
ENDBRANCH   1   9
BRANCH   1  14
ATOM     14  C   UNL     1      30.185  16.096   5.297  0.00  0.00    +0.000 C 
BRANCH  14  15
ATOM     15  C   UNL     1      30.825  14.688   5.254  0.00  0.00    +0.000 C 
ATOM     16  C   UNL     1      31.694  14.386   6.469  0.00  0.00    +0.000 C 
BRANCH  15  17
ATOM     17  O   UNL     1      29.837  13.663   5.151  0.00  0.00    +0.000 OA
ATOM     18  H   UNL     1      30.080  13.157   4.350  0.00  0.00    +0.000 HD
ENDBRANCH  15  17
ENDBRANCH  14  15
ENDBRANCH   1  14
TORSDOF 7
ENDMDL
MODEL 9
REMARK VINA RESULT:    -4.679      2.486      3.347
REMARK INTER + INTRA:          -7.059
REMARK INTER:                  -6.352
REMARK INTRA:                  -0.707
REMARK UNBOUND:                -0.739
REMARK  Name = 
REMARK  10 active torsions:
REMARK  status: ('A' for Active; 'I' for Inactive)
REMARK    1  A    between atoms: C_1  and  C_2
REMARK    2  A    between atoms: C_5  and  N_8
REMARK    3  A    between atoms: N_8  and  C_9
REMARK    4  A    between atoms: N_8  and  C_13
REMARK    5  A    between atoms: C_9  and  C_10
REMARK    6  A    between atoms: C_10  and  C_11
REMARK    7  A    between atoms: C_10  and  O_12
REMARK    8  A    between atoms: C_13  and  C_14
REMARK    9  A    between atoms: C_14  and  C_15
REMARK   10  A    between atoms: C_14  and  O_16
REMARK                            x       y       z     vdW  Elec       q    Type
REMARK                         _______ _______ _______ _____ _____    ______ ____
ROOT
ATOM      1  N   UNL     1      31.492  16.236   6.774  0.00  0.00    +0.000 N 
ENDROOT
BRANCH   1   6
ATOM      2  C   UNL     1      27.811  14.773   2.574  0.00  0.00    +0.000 C 
ATOM      3  C   UNL     1      28.767  15.129   3.671  0.00  0.00    +0.000 A 
ATOM      4  C   UNL     1      28.304  15.543   4.916  0.00  0.00    +0.000 A 
ATOM      5  C   UNL     1      29.204  15.904   5.931  0.00  0.00    +0.000 A 
ATOM      6  C   UNL     1      30.599  15.893   5.751  0.00  0.00    +0.000 A 
ATOM      7  C   UNL     1      31.032  15.467   4.481  0.00  0.00    +0.000 A 
ATOM      8  C   UNL     1      30.142  15.101   3.458  0.00  0.00    +0.000 A 
ENDBRANCH   1   6
BRANCH   1   9
ATOM      9  C   UNL     1      31.152  15.941   8.187  0.00  0.00    +0.000 C 
BRANCH   9  10
ATOM     10  C   UNL     1      31.877  14.684   8.728  0.00  0.00    +0.000 C 
ATOM     11  C   UNL     1      32.133  13.679   7.611  0.00  0.00    +0.000 C 
BRANCH  10  12
ATOM     12  O   UNL     1      33.141  15.030   9.312  0.00  0.00    +0.000 OA
ATOM     13  H   UNL     1      33.828  14.492   8.884  0.00  0.00    +0.000 HD
ENDBRANCH  10  12
ENDBRANCH   9  10
ENDBRANCH   1   9
BRANCH   1  14
ATOM     14  C   UNL     1      32.502  17.309   6.586  0.00  0.00    +0.000 C 
BRANCH  14  15
ATOM     15  C   UNL     1      33.914  16.741   6.307  0.00  0.00    +0.000 C 
ATOM     16  C   UNL     1      34.703  17.564   5.296  0.00  0.00    +0.000 C 
BRANCH  15  17
ATOM     17  O   UNL     1      34.689  16.645   7.501  0.00  0.00    +0.000 OA
ATOM     18  H   UNL     1      35.407  16.017   7.286  0.00  0.00    +0.000 HD
ENDBRANCH  15  17
ENDBRANCH  14  15
ENDBRANCH   1  14
TORSDOF 7
ENDMDL
