MODEL 1
REMARK VINA RESULT:    -4.745      0.000      0.000
REMARK INTER + INTRA:          -7.072
REMARK INTER:                  -6.409
REMARK INTRA:                  -0.663
REMARK UNBOUND:                -0.663
REMARK  Name = 
REMARK  10 active torsions:
REMARK  status: ('A' for Active; 'I' for Inactive)
REMARK    1  A    between atoms: C_1  and  C_2
REMARK    2  A    between atoms: C_5  and  N_8
REMARK    3  A    between atoms: N_8  and  C_9
REMARK    4  A    between atoms: N_8  and  C_13
REMARK    5  A    between atoms: C_9  and  C_10
REMARK    6  A    between atoms: C_10  and  C_11
REMARK    7  A    between atoms: C_10  and  O_12
REMARK    8  A    between atoms: C_13  and  C_14
REMARK    9  A    between atoms: C_14  and  C_15
REMARK   10  A    between atoms: C_14  and  O_16
REMARK                            x       y       z     vdW  Elec       q    Type
REMARK                         _______ _______ _______ _____ _____    ______ ____
ROOT
ATOM      1  N   UNL     1       8.476  11.757   5.685  0.00  0.00    +0.000 N 
ENDROOT
BRANCH   1   6
ATOM      2  C   UNL     1       2.851  12.768   4.863  0.00  0.00    +0.000 C 
ATOM      3  C   UNL     1       4.316  12.526   5.063  0.00  0.00    +0.000 A 
ATOM      4  C   UNL     1       5.030  11.707   4.194  0.00  0.00    +0.000 A 
ATOM      5  C   UNL     1       6.397  11.460   4.403  0.00  0.00    +0.000 A 
ATOM      6  C   UNL     1       7.108  11.992   5.493  0.00  0.00    +0.000 A 
ATOM      7  C   UNL     1       6.356  12.816   6.350  0.00  0.00    +0.000 A 
ATOM      8  C   UNL     1       4.989  13.074   6.151  0.00  0.00    +0.000 A 
ENDBRANCH   1   6
BRANCH   1   9
ATOM      9  C   UNL     1       9.327  12.794   6.315  0.00  0.00    +0.000 C 
BRANCH   9  10
ATOM     10  C   UNL     1       9.786  12.409   7.743  0.00  0.00    +0.000 C 
ATOM     11  C   UNL     1       9.842  13.635   8.647  0.00  0.00    +0.000 C 
BRANCH  10  12
ATOM     12  O   UNL     1       8.885  11.462   8.334  0.00  0.00    +0.000 OA
ATOM     13  H   UNL     1       8.622  11.801   9.207  0.00  0.00    +0.000 HD
ENDBRANCH  10  12
ENDBRANCH   9  10
ENDBRANCH   1   9
BRANCH   1  14
ATOM     14  C   UNL     1       9.209  10.766   4.856  0.00  0.00    +0.000 C 
BRANCH  14  15
ATOM     15  C   UNL     1       8.994   9.316   5.353  0.00  0.00    +0.000 C 
ATOM     16  C   UNL     1       9.781   8.285   4.553  0.00  0.00    +0.000 C 
BRANCH  15  17
ATOM     17  O   UNL     1       9.348   9.172   6.728  0.00  0.00    +0.000 OA
ATOM     18  H   UNL     1      10.313   9.328   6.758  0.00  0.00    +0.000 HD
ENDBRANCH  15  17
ENDBRANCH  14  15
ENDBRANCH   1  14
TORSDOF 7
ENDMDL
MODEL 2
REMARK VINA RESULT:    -4.142      3.526      5.307
REMARK INTER + INTRA:          -6.258
REMARK INTER:                  -5.982
REMARK INTRA:                  -0.276
REMARK UNBOUND:                -0.663
REMARK  Name = 
REMARK  10 active torsions:
REMARK  status: ('A' for Active; 'I' for Inactive)
REMARK    1  A    between atoms: C_1  and  C_2
REMARK    2  A    between atoms: C_5  and  N_8
REMARK    3  A    between atoms: N_8  and  C_9
REMARK    4  A    between atoms: N_8  and  C_13
REMARK    5  A    between atoms: C_9  and  C_10
REMARK    6  A    between atoms: C_10  and  C_11
REMARK    7  A    between atoms: C_10  and  O_12
REMARK    8  A    between atoms: C_13  and  C_14
REMARK    9  A    between atoms: C_14  and  C_15
REMARK   10  A    between atoms: C_14  and  O_16
REMARK                            x       y       z     vdW  Elec       q    Type
REMARK                         _______ _______ _______ _____ _____    ______ ____
ROOT
ATOM      1  N   UNL     1      11.208  11.870   7.799  0.00  0.00    +0.000 N 
ENDROOT
BRANCH   1   6
ATOM      2  C   UNL     1       8.217   8.425   4.262  0.00  0.00    +0.000 C 
ATOM      3  C   UNL     1       9.014   9.314   5.167  0.00  0.00    +0.000 A 
ATOM      4  C   UNL     1       9.583   8.818   6.335  0.00  0.00    +0.000 A 
ATOM      5  C   UNL     1      10.304   9.662   7.195  0.00  0.00    +0.000 A 
ATOM      6  C   UNL     1      10.471  11.037   6.947  0.00  0.00    +0.000 A 
ATOM      7  C   UNL     1       9.884  11.503   5.757  0.00  0.00    +0.000 A 
ATOM      8  C   UNL     1       9.162  10.669   4.887  0.00  0.00    +0.000 A 
ENDBRANCH   1   6
BRANCH   1   9
ATOM      9  C   UNL     1      12.689  11.883   7.728  0.00  0.00    +0.000 C 
BRANCH   9  10
ATOM     10  C   UNL     1      13.247  10.905   6.666  0.00  0.00    +0.000 C 
ATOM     11  C   UNL     1      13.898  11.663   5.514  0.00  0.00    +0.000 C 
BRANCH  10  12
ATOM     12  O   UNL     1      14.233  10.033   7.237  0.00  0.00    +0.000 OA
ATOM     13  H   UNL     1      15.107  10.323   6.928  0.00  0.00    +0.000 HD
ENDBRANCH  10  12
ENDBRANCH   9  10
ENDBRANCH   1   9
BRANCH   1  14
ATOM     14  C   UNL     1      10.640  12.348   9.086  0.00  0.00    +0.000 C 
BRANCH  14  15
ATOM     15  C   UNL     1      11.517  11.946  10.296  0.00  0.00    +0.000 C 
ATOM     16  C   UNL     1      11.314  12.846  11.509  0.00  0.00    +0.000 C 
BRANCH  15  17
ATOM     17  O   UNL     1      11.273  10.599  10.700  0.00  0.00    +0.000 OA
ATOM     18  H   UNL     1      11.599  10.548  11.621  0.00  0.00    +0.000 HD
ENDBRANCH  15  17
ENDBRANCH  14  15
ENDBRANCH   1  14
TORSDOF 7
ENDMDL
MODEL 3
REMARK VINA RESULT:    -4.023      3.492      5.136
REMARK INTER + INTRA:          -6.098
REMARK INTER:                  -5.604
REMARK INTRA:                  -0.493
REMARK UNBOUND:                -0.663
REMARK  Name = 
REMARK  10 active torsions:
REMARK  status: ('A' for Active; 'I' for Inactive)
REMARK    1  A    between atoms: C_1  and  C_2
REMARK    2  A    between atoms: C_5  and  N_8
REMARK    3  A    between atoms: N_8  and  C_9
REMARK    4  A    between atoms: N_8  and  C_13
REMARK    5  A    between atoms: C_9  and  C_10
REMARK    6  A    between atoms: C_10  and  C_11
REMARK    7  A    between atoms: C_10  and  O_12
REMARK    8  A    between atoms: C_13  and  C_14
REMARK    9  A    between atoms: C_14  and  C_15
REMARK   10  A    between atoms: C_14  and  O_16
REMARK                            x       y       z     vdW  Elec       q    Type
REMARK                         _______ _______ _______ _____ _____    ______ ____
ROOT
ATOM      1  N   UNL     1      11.054  11.809   8.798  0.00  0.00    +0.000 N 
ENDROOT
BRANCH   1   6
ATOM      2  C   UNL     1       8.268   9.350   4.380  0.00  0.00    +0.000 C 
ATOM      3  C   UNL     1       8.972   9.982   5.541  0.00  0.00    +0.000 A 
ATOM      4  C   UNL     1       8.831  11.340   5.808  0.00  0.00    +0.000 A 
ATOM      5  C   UNL     1       9.517  11.934   6.880  0.00  0.00    +0.000 A 
ATOM      6  C   UNL     1      10.388  11.215   7.718  0.00  0.00    +0.000 A 
ATOM      7  C   UNL     1      10.505   9.845   7.420  0.00  0.00    +0.000 A 
ATOM      8  C   UNL     1       9.823   9.238   6.353  0.00  0.00    +0.000 A 
ENDBRANCH   1   6
BRANCH   1   9
ATOM      9  C   UNL     1      10.383  11.921  10.115  0.00  0.00    +0.000 C 
BRANCH   9  10
ATOM     10  C   UNL     1      11.378  11.882  11.301  0.00  0.00    +0.000 C 
ATOM     11  C   UNL     1      10.741  12.447  12.565  0.00  0.00    +0.000 C 
BRANCH  10  12
ATOM     12  O   UNL     1      11.797  10.538  11.577  0.00  0.00    +0.000 OA
ATOM     13  H   UNL     1      12.307  10.219  10.813  0.00  0.00    +0.000 HD
ENDBRANCH  10  12
ENDBRANCH   9  10
ENDBRANCH   1   9
BRANCH   1  14
ATOM     14  C   UNL     1      12.166  12.770   8.580  0.00  0.00    +0.000 C 
BRANCH  14  15
ATOM     15  C   UNL     1      13.501  12.055   8.260  0.00  0.00    +0.000 C 
ATOM     16  C   UNL     1      14.535  12.973   7.619  0.00  0.00    +0.000 C 
BRANCH  15  17
ATOM     17  O   UNL     1      14.085  11.481   9.429  0.00  0.00    +0.000 OA
ATOM     18  H   UNL     1      13.928  12.137  10.138  0.00  0.00    +0.000 HD
ENDBRANCH  15  17
ENDBRANCH  14  15
ENDBRANCH   1  14
TORSDOF 7
ENDMDL
MODEL 4
REMARK VINA RESULT:    -4.003      3.172      4.409
REMARK INTER + INTRA:          -6.071
REMARK INTER:                  -5.316
REMARK INTRA:                  -0.755
REMARK UNBOUND:                -0.663
REMARK  Name = 
REMARK  10 active torsions:
REMARK  status: ('A' for Active; 'I' for Inactive)
REMARK    1  A    between atoms: C_1  and  C_2
REMARK    2  A    between atoms: C_5  and  N_8
REMARK    3  A    between atoms: N_8  and  C_9
REMARK    4  A    between atoms: N_8  and  C_13
REMARK    5  A    between atoms: C_9  and  C_10
REMARK    6  A    between atoms: C_10  and  C_11
REMARK    7  A    between atoms: C_10  and  O_12
REMARK    8  A    between atoms: C_13  and  C_14
REMARK    9  A    between atoms: C_14  and  C_15
REMARK   10  A    between atoms: C_14  and  O_16
REMARK                            x       y       z     vdW  Elec       q    Type
REMARK                         _______ _______ _______ _____ _____    ______ ____
ROOT
ATOM      1  N   UNL     1      11.763  11.566   6.141  0.00  0.00    +0.000 N 
ENDROOT
BRANCH   1   6
ATOM      2  C   UNL     1       7.217   8.591   4.192  0.00  0.00    +0.000 C 
ATOM      3  C   UNL     1       8.383   9.370   4.718  0.00  0.00    +0.000 A 
ATOM      4  C   UNL     1       8.575  10.699   4.358  0.00  0.00    +0.000 A 
ATOM      5  C   UNL     1       9.687  11.416   4.830  0.00  0.00    +0.000 A 
ATOM      6  C   UNL     1      10.667  10.840   5.658  0.00  0.00    +0.000 A 
ATOM      7  C   UNL     1      10.440   9.495   6.003  0.00  0.00    +0.000 A 
ATOM      8  C   UNL     1       9.332   8.768   5.540  0.00  0.00    +0.000 A 
ENDBRANCH   1   6
BRANCH   1   9
ATOM      9  C   UNL     1      11.548  12.744   7.016  0.00  0.00    +0.000 C 
BRANCH   9  10
ATOM     10  C   UNL     1      11.171  12.353   8.466  0.00  0.00    +0.000 C 
ATOM     11  C   UNL     1       9.659  12.249   8.628  0.00  0.00    +0.000 C 
BRANCH  10  12
ATOM     12  O   UNL     1      11.745  11.088   8.824  0.00  0.00    +0.000 OA
ATOM     13  H   UNL     1      12.695  11.220   8.978  0.00  0.00    +0.000 HD
ENDBRANCH  10  12
ENDBRANCH   9  10
ENDBRANCH   1   9
BRANCH   1  14
ATOM     14  C   UNL     1      13.072  11.542   5.438  0.00  0.00    +0.000 C 
BRANCH  14  15
ATOM     15  C   UNL     1      14.203  10.976   6.330  0.00  0.00    +0.000 C 
ATOM     16  C   UNL     1      14.880  12.039   7.187  0.00  0.00    +0.000 C 
BRANCH  15  17
ATOM     17  O   UNL     1      13.728   9.946   7.195  0.00  0.00    +0.000 OA
ATOM     18  H   UNL     1      14.486   9.733   7.775  0.00  0.00    +0.000 HD
ENDBRANCH  15  17
ENDBRANCH  14  15
ENDBRANCH   1  14
TORSDOF 7
ENDMDL
MODEL 5
REMARK VINA RESULT:    -3.989      1.203      3.459
REMARK INTER + INTRA:          -6.052
REMARK INTER:                  -5.476
REMARK INTRA:                  -0.576
REMARK UNBOUND:                -0.663
REMARK  Name = 
REMARK  10 active torsions:
REMARK  status: ('A' for Active; 'I' for Inactive)
REMARK    1  A    between atoms: C_1  and  C_2
REMARK    2  A    between atoms: C_5  and  N_8
REMARK    3  A    between atoms: N_8  and  C_9
REMARK    4  A    between atoms: N_8  and  C_13
REMARK    5  A    between atoms: C_9  and  C_10
REMARK    6  A    between atoms: C_10  and  C_11
REMARK    7  A    between atoms: C_10  and  O_12
REMARK    8  A    between atoms: C_13  and  C_14
REMARK    9  A    between atoms: C_14  and  C_15
REMARK   10  A    between atoms: C_14  and  O_16
REMARK                            x       y       z     vdW  Elec       q    Type
REMARK                         _______ _______ _______ _____ _____    ______ ____
ROOT
ATOM      1  N   UNL     1       9.812  11.993   6.070  0.00  0.00    +0.000 N 
ENDROOT
BRANCH   1   6
ATOM      2  C   UNL     1       4.262  13.044   4.875  0.00  0.00    +0.000 C 
ATOM      3  C   UNL     1       5.697  12.748   5.190  0.00  0.00    +0.000 A 
ATOM      4  C   UNL     1       6.201  12.941   6.472  0.00  0.00    +0.000 A 
ATOM      5  C   UNL     1       7.553  12.690   6.755  0.00  0.00    +0.000 A 
ATOM      6  C   UNL     1       8.469  12.260   5.777  0.00  0.00    +0.000 A 
ATOM      7  C   UNL     1       7.924  12.074   4.493  0.00  0.00    +0.000 A 
ATOM      8  C   UNL     1       6.573  12.319   4.197  0.00  0.00    +0.000 A 
ENDBRANCH   1   6
BRANCH   1   9
ATOM      9  C   UNL     1      10.385  10.657   5.778  0.00  0.00    +0.000 C 
BRANCH   9  10
ATOM     10  C   UNL     1       9.369   9.509   5.990  0.00  0.00    +0.000 C 
ATOM     11  C   UNL     1       9.464   8.482   4.867  0.00  0.00    +0.000 C 
BRANCH  10  12
ATOM     12  O   UNL     1       9.608   8.832   7.232  0.00  0.00    +0.000 OA
ATOM     13  H   UNL     1       8.754   8.709   7.678  0.00  0.00    +0.000 HD
ENDBRANCH  10  12
ENDBRANCH   9  10
ENDBRANCH   1   9
BRANCH   1  14
ATOM     14  C   UNL     1      10.544  12.776   7.099  0.00  0.00    +0.000 C 
BRANCH  14  15
ATOM     15  C   UNL     1      10.992  11.897   8.292  0.00  0.00    +0.000 C 
ATOM     16  C   UNL     1      11.927  12.623   9.253  0.00  0.00    +0.000 C 
BRANCH  15  17
ATOM     17  O   UNL     1       9.876  11.416   9.039  0.00  0.00    +0.000 OA
ATOM     18  H   UNL     1       9.239  12.158   9.049  0.00  0.00    +0.000 HD
ENDBRANCH  15  17
ENDBRANCH  14  15
ENDBRANCH   1  14
TORSDOF 7
ENDMDL
MODEL 6
REMARK VINA RESULT:    -3.854      1.733      5.454
REMARK INTER + INTRA:          -5.870
REMARK INTER:                  -5.225
REMARK INTRA:                  -0.645
REMARK UNBOUND:                -0.663
REMARK  Name = 
REMARK  10 active torsions:
REMARK  status: ('A' for Active; 'I' for Inactive)
REMARK    1  A    between atoms: C_1  and  C_2
REMARK    2  A    between atoms: C_5  and  N_8
REMARK    3  A    between atoms: N_8  and  C_9
REMARK    4  A    between atoms: N_8  and  C_13
REMARK    5  A    between atoms: C_9  and  C_10
REMARK    6  A    between atoms: C_10  and  C_11
REMARK    7  A    between atoms: C_10  and  O_12
REMARK    8  A    between atoms: C_13  and  C_14
REMARK    9  A    between atoms: C_14  and  C_15
REMARK   10  A    between atoms: C_14  and  O_16
REMARK                            x       y       z     vdW  Elec       q    Type
REMARK                         _______ _______ _______ _____ _____    ______ ____
ROOT
ATOM      1  N   UNL     1       8.675  11.856   5.626  0.00  0.00    +0.000 N 
ENDROOT
BRANCH   1   6
ATOM      2  C   UNL     1      11.281  12.886  10.674  0.00  0.00    +0.000 C 
ATOM      3  C   UNL     1      10.625  12.627   9.352  0.00  0.00    +0.000 A 
ATOM      4  C   UNL     1       9.853  13.604   8.733  0.00  0.00    +0.000 A 
ATOM      5  C   UNL     1       9.216  13.345   7.509  0.00  0.00    +0.000 A 
ATOM      6  C   UNL     1       9.297  12.101   6.857  0.00  0.00    +0.000 A 
ATOM      7  C   UNL     1      10.088  11.138   7.510  0.00  0.00    +0.000 A 
ATOM      8  C   UNL     1      10.732  11.384   8.733  0.00  0.00    +0.000 A 
ENDBRANCH   1   6
BRANCH   1   9
ATOM      9  C   UNL     1       9.381  11.081   4.578  0.00  0.00    +0.000 C 
BRANCH   9  10
ATOM     10  C   UNL     1       8.833   9.641   4.425  0.00  0.00    +0.000 C 
ATOM     11  C   UNL     1       9.914   8.611   4.733  0.00  0.00    +0.000 C 
BRANCH  10  12
ATOM     12  O   UNL     1       7.734   9.411   5.317  0.00  0.00    +0.000 OA
ATOM     13  H   UNL     1       6.914   9.649   4.853  0.00  0.00    +0.000 HD
ENDBRANCH  10  12
ENDBRANCH   9  10
ENDBRANCH   1   9
BRANCH   1  14
ATOM     14  C   UNL     1       7.586  12.734   5.127  0.00  0.00    +0.000 C 
BRANCH  14  15
ATOM     15  C   UNL     1       6.190  12.262   5.602  0.00  0.00    +0.000 C 
ATOM     16  C   UNL     1       5.267  13.412   5.985  0.00  0.00    +0.000 C 
BRANCH  15  17
ATOM     17  O   UNL     1       5.532  11.479   4.607  0.00  0.00    +0.000 OA
ATOM     18  H   UNL     1       5.597  12.007   3.786  0.00  0.00    +0.000 HD
ENDBRANCH  15  17
ENDBRANCH  14  15
ENDBRANCH   1  14
TORSDOF 7
ENDMDL
MODEL 7
REMARK VINA RESULT:    -3.836     18.709     19.886
REMARK INTER + INTRA:          -5.845
REMARK INTER:                  -5.344
REMARK INTRA:                  -0.501
REMARK UNBOUND:                -0.663
REMARK  Name = 
REMARK  10 active torsions:
REMARK  status: ('A' for Active; 'I' for Inactive)
REMARK    1  A    between atoms: C_1  and  C_2
REMARK    2  A    between atoms: C_5  and  N_8
REMARK    3  A    between atoms: N_8  and  C_9
REMARK    4  A    between atoms: N_8  and  C_13
REMARK    5  A    between atoms: C_9  and  C_10
REMARK    6  A    between atoms: C_10  and  C_11
REMARK    7  A    between atoms: C_10  and  O_12
REMARK    8  A    between atoms: C_13  and  C_14
REMARK    9  A    between atoms: C_14  and  C_15
REMARK   10  A    between atoms: C_14  and  O_16
REMARK                            x       y       z     vdW  Elec       q    Type
REMARK                         _______ _______ _______ _____ _____    ______ ____
ROOT
ATOM      1  N   UNL     1       5.315  10.483  25.581  0.00  0.00    +0.000 N 
ENDROOT
BRANCH   1   6
ATOM      2  C   UNL     1      10.953  11.590  25.021  0.00  0.00    +0.000 C 
ATOM      3  C   UNL     1       9.492  11.305  25.191  0.00  0.00    +0.000 A 
ATOM      4  C   UNL     1       9.029  10.000  25.313  0.00  0.00    +0.000 A 
ATOM      5  C   UNL     1       7.655   9.736  25.442  0.00  0.00    +0.000 A 
ATOM      6  C   UNL     1       6.682  10.751  25.432  0.00  0.00    +0.000 A 
ATOM      7  C   UNL     1       7.186  12.059  25.310  0.00  0.00    +0.000 A 
ATOM      8  C   UNL     1       8.557  12.336  25.183  0.00  0.00    +0.000 A 
ENDBRANCH   1   6
BRANCH   1   9
ATOM      9  C   UNL     1       4.420  11.497  26.188  0.00  0.00    +0.000 C 
BRANCH   9  10
ATOM     10  C   UNL     1       3.404  12.083  25.177  0.00  0.00    +0.000 C 
ATOM     11  C   UNL     1       2.356  12.932  25.888  0.00  0.00    +0.000 C 
BRANCH  10  12
ATOM     12  O   UNL     1       4.061  12.910  24.207  0.00  0.00    +0.000 OA
ATOM     13  H   UNL     1       3.997  13.833  24.504  0.00  0.00    +0.000 HD
ENDBRANCH  10  12
ENDBRANCH   9  10
ENDBRANCH   1   9
BRANCH   1  14
ATOM     14  C   UNL     1       4.807   9.088  25.637  0.00  0.00    +0.000 C 
BRANCH  14  15
ATOM     15  C   UNL     1       4.324   8.586  24.255  0.00  0.00    +0.000 C 
ATOM     16  C   UNL     1       5.280   7.589  23.612  0.00  0.00    +0.000 C 
BRANCH  15  17
ATOM     17  O   UNL     1       3.037   7.976  24.336  0.00  0.00    +0.000 OA
ATOM     18  H   UNL     1       2.454   8.541  23.790  0.00  0.00    +0.000 HD
ENDBRANCH  15  17
ENDBRANCH  14  15
ENDBRANCH   1  14
TORSDOF 7
ENDMDL
MODEL 8
REMARK VINA RESULT:    -3.787     19.252     20.721
REMARK INTER + INTRA:          -5.779
REMARK INTER:                  -5.253
REMARK INTRA:                  -0.526
REMARK UNBOUND:                -0.663
REMARK  Name = 
REMARK  10 active torsions:
REMARK  status: ('A' for Active; 'I' for Inactive)
REMARK    1  A    between atoms: C_1  and  C_2
REMARK    2  A    between atoms: C_5  and  N_8
REMARK    3  A    between atoms: N_8  and  C_9
REMARK    4  A    between atoms: N_8  and  C_13
REMARK    5  A    between atoms: C_9  and  C_10
REMARK    6  A    between atoms: C_10  and  C_11
REMARK    7  A    between atoms: C_10  and  O_12
REMARK    8  A    between atoms: C_13  and  C_14
REMARK    9  A    between atoms: C_14  and  C_15
REMARK   10  A    between atoms: C_14  and  O_16
REMARK                            x       y       z     vdW  Elec       q    Type
REMARK                         _______ _______ _______ _____ _____    ______ ____
ROOT
ATOM      1  N   UNL     1       2.111   9.162  25.406  0.00  0.00    +0.000 N 
ENDROOT
BRANCH   1   6
ATOM      2  C   UNL     1       7.807   9.546  24.548  0.00  0.00    +0.000 C 
ATOM      3  C   UNL     1       6.333   9.433  24.791  0.00  0.00    +0.000 A 
ATOM      4  C   UNL     1       5.592   8.403  24.221  0.00  0.00    +0.000 A 
ATOM      5  C   UNL     1       4.205   8.319  24.428  0.00  0.00    +0.000 A 
ATOM      6  C   UNL     1       3.490   9.263  25.188  0.00  0.00    +0.000 A 
ATOM      7  C   UNL     1       4.272  10.289  25.750  0.00  0.00    +0.000 A 
ATOM      8  C   UNL     1       5.659  10.383  25.553  0.00  0.00    +0.000 A 
ENDBRANCH   1   6
BRANCH   1   9
ATOM      9  C   UNL     1       1.264   8.389  24.466  0.00  0.00    +0.000 C 
BRANCH   9  10
ATOM     10  C   UNL     1       0.171   7.561  25.185  0.00  0.00    +0.000 C 
ATOM     11  C   UNL     1      -1.221   8.059  24.817  0.00  0.00    +0.000 C 
BRANCH  10  12
ATOM     12  O   UNL     1       0.256   6.174  24.826  0.00  0.00    +0.000 OA
ATOM     13  H   UNL     1       0.666   6.115  23.948  0.00  0.00    +0.000 HD
ENDBRANCH  10  12
ENDBRANCH   9  10
ENDBRANCH   1   9
BRANCH   1  14
ATOM     14  C   UNL     1       1.383  10.177  26.211  0.00  0.00    +0.000 C 
BRANCH  14  15
ATOM     15  C   UNL     1       0.711  11.253  25.326  0.00  0.00    +0.000 C 
ATOM     16  C   UNL     1      -0.700  11.607  25.780  0.00  0.00    +0.000 C 
BRANCH  15  17
ATOM     17  O   UNL     1       1.477  12.457  25.286  0.00  0.00    +0.000 OA
ATOM     18  H   UNL     1       2.157  12.301  24.600  0.00  0.00    +0.000 HD
ENDBRANCH  15  17
ENDBRANCH  14  15
ENDBRANCH   1  14
TORSDOF 7
ENDMDL
MODEL 9
REMARK VINA RESULT:    -3.740      2.339      3.175
REMARK INTER + INTRA:          -5.715
REMARK INTER:                  -5.113
REMARK INTRA:                  -0.601
REMARK UNBOUND:                -0.663
REMARK  Name = 
REMARK  10 active torsions:
REMARK  status: ('A' for Active; 'I' for Inactive)
REMARK    1  A    between atoms: C_1  and  C_2
REMARK    2  A    between atoms: C_5  and  N_8
REMARK    3  A    between atoms: N_8  and  C_9
REMARK    4  A    between atoms: N_8  and  C_13
REMARK    5  A    between atoms: C_9  and  C_10
REMARK    6  A    between atoms: C_10  and  C_11
REMARK    7  A    between atoms: C_10  and  O_12
REMARK    8  A    between atoms: C_13  and  C_14
REMARK    9  A    between atoms: C_14  and  C_15
REMARK   10  A    between atoms: C_14  and  O_16
REMARK                            x       y       z     vdW  Elec       q    Type
REMARK                         _______ _______ _______ _____ _____    ______ ____
ROOT
ATOM      1  N   UNL     1      10.851  12.116   6.839  0.00  0.00    +0.000 N 
ENDROOT
BRANCH   1   6
ATOM      2  C   UNL     1       5.460  11.914   4.784  0.00  0.00    +0.000 C 
ATOM      3  C   UNL     1       6.854  11.948   5.333  0.00  0.00    +0.000 A 
ATOM      4  C   UNL     1       7.192  12.814   6.368  0.00  0.00    +0.000 A 
ATOM      5  C   UNL     1       8.507  12.863   6.859  0.00  0.00    +0.000 A 
ATOM      6  C   UNL     1       9.547  12.076   6.332  0.00  0.00    +0.000 A 
ATOM      7  C   UNL     1       9.168  11.212   5.288  0.00  0.00    +0.000 A 
ATOM      8  C   UNL     1       7.856  11.151   4.789  0.00  0.00    +0.000 A 
ENDBRANCH   1   6
BRANCH   1   9
ATOM      9  C   UNL     1      11.122  12.765   8.145  0.00  0.00    +0.000 C 
BRANCH   9  10
ATOM     10  C   UNL     1      11.358  11.745   9.285  0.00  0.00    +0.000 C 
ATOM     11  C   UNL     1      10.595  12.146  10.542  0.00  0.00    +0.000 C 
BRANCH  10  12
ATOM     12  O   UNL     1      10.922  10.433   8.900  0.00  0.00    +0.000 OA
ATOM     13  H   UNL     1      10.097  10.239   9.375  0.00  0.00    +0.000 HD
ENDBRANCH  10  12
ENDBRANCH   9  10
ENDBRANCH   1   9
BRANCH   1  14
ATOM     14  C   UNL     1      12.030  12.006   5.941  0.00  0.00    +0.000 C 
BRANCH  14  15
ATOM     15  C   UNL     1      12.607  10.571   5.908  0.00  0.00    +0.000 C 
ATOM     16  C   UNL     1      13.409  10.276   4.646  0.00  0.00    +0.000 C 
BRANCH  15  17
ATOM     17  O   UNL     1      13.445  10.314   7.034  0.00  0.00    +0.000 OA
ATOM     18  H   UNL     1      12.972   9.631   7.551  0.00  0.00    +0.000 HD
ENDBRANCH  15  17
ENDBRANCH  14  15
ENDBRANCH   1  14
TORSDOF 7
ENDMDL
