MODEL 1
REMARK VINA RESULT:    -4.736      0.000      0.000
REMARK INTER + INTRA:          -7.076
REMARK INTER:                  -6.397
REMARK INTRA:                  -0.679
REMARK UNBOUND:                -0.679
REMARK  Name = 
REMARK  10 active torsions:
REMARK  status: ('A' for Active; 'I' for Inactive)
REMARK    1  A    between atoms: C_1  and  C_2
REMARK    2  A    between atoms: C_5  and  N_8
REMARK    3  A    between atoms: N_8  and  C_9
REMARK    4  A    between atoms: N_8  and  C_13
REMARK    5  A    between atoms: C_9  and  C_10
REMARK    6  A    between atoms: C_10  and  C_11
REMARK    7  A    between atoms: C_10  and  O_12
REMARK    8  A    between atoms: C_13  and  C_14
REMARK    9  A    between atoms: C_14  and  C_15
REMARK   10  A    between atoms: C_14  and  O_16
REMARK                            x       y       z     vdW  Elec       q    Type
REMARK                         _______ _______ _______ _____ _____    ______ ____
ROOT
ATOM      1  N   UNL     1       8.541  11.760   5.820  0.00  0.00    +0.000 N 
ENDROOT
BRANCH   1   6
ATOM      2  C   UNL     1       2.958  12.828   4.815  0.00  0.00    +0.000 C 
ATOM      3  C   UNL     1       4.413  12.571   5.062  0.00  0.00    +0.000 A 
ATOM      4  C   UNL     1       5.146  11.745   4.217  0.00  0.00    +0.000 A 
ATOM      5  C   UNL     1       6.502  11.483   4.471  0.00  0.00    +0.000 A 
ATOM      6  C   UNL     1       7.184  12.009   5.584  0.00  0.00    +0.000 A 
ATOM      7  C   UNL     1       6.412  12.841   6.415  0.00  0.00    +0.000 A 
ATOM      8  C   UNL     1       5.055  13.112   6.172  0.00  0.00    +0.000 A 
ENDBRANCH   1   6
BRANCH   1   9
ATOM      9  C   UNL     1       9.387  12.795   6.461  0.00  0.00    +0.000 C 
BRANCH   9  10
ATOM     10  C   UNL     1       9.861  12.390   7.878  0.00  0.00    +0.000 C 
ATOM     11  C   UNL     1      10.008  13.614   8.775  0.00  0.00    +0.000 C 
BRANCH  10  12
ATOM     12  O   UNL     1       8.926  11.495   8.497  0.00  0.00    +0.000 OA
ATOM     13  H   UNL     1       9.328  11.160   9.316  0.00  0.00    +0.000 HD
ENDBRANCH  10  12
ENDBRANCH   9  10
ENDBRANCH   1   9
BRANCH   1  14
ATOM     14  C   UNL     1       9.287  10.748   5.027  0.00  0.00    +0.000 C 
BRANCH  14  15
ATOM     15  C   UNL     1       9.013   9.305   5.515  0.00  0.00    +0.000 C 
ATOM     16  C   UNL     1       9.778   8.250   4.726  0.00  0.00    +0.000 C 
BRANCH  15  17
ATOM     17  O   UNL     1       9.337   9.145   6.896  0.00  0.00    +0.000 OA
ATOM     18  H   UNL     1      10.008   8.434   6.917  0.00  0.00    +0.000 HD
ENDBRANCH  15  17
ENDBRANCH  14  15
ENDBRANCH   1  14
TORSDOF 7
ENDMDL
MODEL 2
REMARK VINA RESULT:    -4.220      3.422      4.520
REMARK INTER + INTRA:          -6.379
REMARK INTER:                  -5.934
REMARK INTRA:                  -0.445
REMARK UNBOUND:                -0.679
REMARK  Name = 
REMARK  10 active torsions:
REMARK  status: ('A' for Active; 'I' for Inactive)
REMARK    1  A    between atoms: C_1  and  C_2
REMARK    2  A    between atoms: C_5  and  N_8
REMARK    3  A    between atoms: N_8  and  C_9
REMARK    4  A    between atoms: N_8  and  C_13
REMARK    5  A    between atoms: C_9  and  C_10
REMARK    6  A    between atoms: C_10  and  C_11
REMARK    7  A    between atoms: C_10  and  O_12
REMARK    8  A    between atoms: C_13  and  C_14
REMARK    9  A    between atoms: C_14  and  C_15
REMARK   10  A    between atoms: C_14  and  O_16
REMARK                            x       y       z     vdW  Elec       q    Type
REMARK                         _______ _______ _______ _____ _____    ______ ____
ROOT
ATOM      1  N   UNL     1      11.540  11.598   7.589  0.00  0.00    +0.000 N 
ENDROOT
BRANCH   1   6
ATOM      2  C   UNL     1       7.900   8.608   4.252  0.00  0.00    +0.000 C 
ATOM      3  C   UNL     1       8.825   9.391   5.132  0.00  0.00    +0.000 A 
ATOM      4  C   UNL     1       9.150  10.710   4.832  0.00  0.00    +0.000 A 
ATOM      5  C   UNL     1      10.042  11.430   5.644  0.00  0.00    +0.000 A 
ATOM      6  C   UNL     1      10.667  10.868   6.772  0.00  0.00    +0.000 A 
ATOM      7  C   UNL     1      10.314   9.534   7.046  0.00  0.00    +0.000 A 
ATOM      8  C   UNL     1       9.422   8.803   6.244  0.00  0.00    +0.000 A 
ENDBRANCH   1   6
BRANCH   1   9
ATOM      9  C   UNL     1      11.003  12.448   8.678  0.00  0.00    +0.000 C 
BRANCH   9  10
ATOM     10  C   UNL     1      11.501  12.014  10.079  0.00  0.00    +0.000 C 
ATOM     11  C   UNL     1      10.865  12.865  11.171  0.00  0.00    +0.000 C 
BRANCH  10  12
ATOM     12  O   UNL     1      11.174  10.641  10.338  0.00  0.00    +0.000 OA
ATOM     13  H   UNL     1      10.690  10.601  11.179  0.00  0.00    +0.000 HD
ENDBRANCH  10  12
ENDBRANCH   9  10
ENDBRANCH   1   9
BRANCH   1  14
ATOM     14  C   UNL     1      12.901  11.967   7.122  0.00  0.00    +0.000 C 
BRANCH  14  15
ATOM     15  C   UNL     1      13.582  10.818   6.339  0.00  0.00    +0.000 C 
ATOM     16  C   UNL     1      14.496  11.312   5.223  0.00  0.00    +0.000 C 
BRANCH  15  17
ATOM     17  O   UNL     1      14.349   9.976   7.198  0.00  0.00    +0.000 OA
ATOM     18  H   UNL     1      15.185  10.462   7.347  0.00  0.00    +0.000 HD
ENDBRANCH  15  17
ENDBRANCH  14  15
ENDBRANCH   1  14
TORSDOF 7
ENDMDL
MODEL 3
REMARK VINA RESULT:    -4.195      0.880      2.988
REMARK INTER + INTRA:          -6.346
REMARK INTER:                  -6.098
REMARK INTRA:                  -0.247
REMARK UNBOUND:                -0.679
REMARK  Name = 
REMARK  10 active torsions:
REMARK  status: ('A' for Active; 'I' for Inactive)
REMARK    1  A    between atoms: C_1  and  C_2
REMARK    2  A    between atoms: C_5  and  N_8
REMARK    3  A    between atoms: N_8  and  C_9
REMARK    4  A    between atoms: N_8  and  C_13
REMARK    5  A    between atoms: C_9  and  C_10
REMARK    6  A    between atoms: C_10  and  C_11
REMARK    7  A    between atoms: C_10  and  O_12
REMARK    8  A    between atoms: C_13  and  C_14
REMARK    9  A    between atoms: C_14  and  C_15
REMARK   10  A    between atoms: C_14  and  O_16
REMARK                            x       y       z     vdW  Elec       q    Type
REMARK                         _______ _______ _______ _____ _____    ______ ____
ROOT
ATOM      1  N   UNL     1       8.864  11.786   6.131  0.00  0.00    +0.000 N 
ENDROOT
BRANCH   1   6
ATOM      2  C   UNL     1       3.385  12.710   4.566  0.00  0.00    +0.000 C 
ATOM      3  C   UNL     1       4.813  12.490   4.960  0.00  0.00    +0.000 A 
ATOM      4  C   UNL     1       5.651  11.688   4.192  0.00  0.00    +0.000 A 
ATOM      5  C   UNL     1       6.981  11.462   4.581  0.00  0.00    +0.000 A 
ATOM      6  C   UNL     1       7.531  12.000   5.758  0.00  0.00    +0.000 A 
ATOM      7  C   UNL     1       6.657  12.807   6.509  0.00  0.00    +0.000 A 
ATOM      8  C   UNL     1       5.325  13.043   6.130  0.00  0.00    +0.000 A 
ENDBRANCH   1   6
BRANCH   1   9
ATOM      9  C   UNL     1       9.672  10.750   5.442  0.00  0.00    +0.000 C 
BRANCH   9  10
ATOM     10  C   UNL     1       9.079   9.328   5.593  0.00  0.00    +0.000 C 
ATOM     11  C   UNL     1       9.691   8.371   4.577  0.00  0.00    +0.000 C 
BRANCH  10  12
ATOM     12  O   UNL     1       9.328   8.803   6.904  0.00  0.00    +0.000 OA
ATOM     13  H   UNL     1       8.536   8.319   7.191  0.00  0.00    +0.000 HD
ENDBRANCH  10  12
ENDBRANCH   9  10
ENDBRANCH   1   9
BRANCH   1  14
ATOM     14  C   UNL     1       9.356  12.166   7.480  0.00  0.00    +0.000 C 
BRANCH  14  15
ATOM     15  C   UNL     1      10.795  11.659   7.741  0.00  0.00    +0.000 C 
ATOM     16  C   UNL     1      11.766  12.773   8.113  0.00  0.00    +0.000 C 
BRANCH  15  17
ATOM     17  O   UNL     1      10.828  10.680   8.779  0.00  0.00    +0.000 OA
ATOM     18  H   UNL     1      10.502   9.857   8.361  0.00  0.00    +0.000 HD
ENDBRANCH  15  17
ENDBRANCH  14  15
ENDBRANCH   1  14
TORSDOF 7
ENDMDL
MODEL 4
REMARK VINA RESULT:    -4.109      3.241      5.022
REMARK INTER + INTRA:          -6.229
REMARK INTER:                  -5.815
REMARK INTRA:                  -0.414
REMARK UNBOUND:                -0.679
REMARK  Name = 
REMARK  10 active torsions:
REMARK  status: ('A' for Active; 'I' for Inactive)
REMARK    1  A    between atoms: C_1  and  C_2
REMARK    2  A    between atoms: C_5  and  N_8
REMARK    3  A    between atoms: N_8  and  C_9
REMARK    4  A    between atoms: N_8  and  C_13
REMARK    5  A    between atoms: C_9  and  C_10
REMARK    6  A    between atoms: C_10  and  C_11
REMARK    7  A    between atoms: C_10  and  O_12
REMARK    8  A    between atoms: C_13  and  C_14
REMARK    9  A    between atoms: C_14  and  C_15
REMARK   10  A    between atoms: C_14  and  O_16
REMARK                            x       y       z     vdW  Elec       q    Type
REMARK                         _______ _______ _______ _____ _____    ______ ____
ROOT
ATOM      1  N   UNL     1      10.698  12.097   7.825  0.00  0.00    +0.000 N 
ENDROOT
BRANCH   1   6
ATOM      2  C   UNL     1       8.313   8.294   4.194  0.00  0.00    +0.000 C 
ATOM      3  C   UNL     1       8.911   9.281   5.150  0.00  0.00    +0.000 A 
ATOM      4  C   UNL     1       8.828  10.649   4.909  0.00  0.00    +0.000 A 
ATOM      5  C   UNL     1       9.416  11.568   5.793  0.00  0.00    +0.000 A 
ATOM      6  C   UNL     1      10.131  11.173   6.938  0.00  0.00    +0.000 A 
ATOM      7  C   UNL     1      10.192   9.784   7.151  0.00  0.00    +0.000 A 
ATOM      8  C   UNL     1       9.607   8.854   6.277  0.00  0.00    +0.000 A 
ENDBRANCH   1   6
BRANCH   1   9
ATOM      9  C   UNL     1      12.106  12.527   7.650  0.00  0.00    +0.000 C 
BRANCH   9  10
ATOM     10  C   UNL     1      13.002  11.418   7.047  0.00  0.00    +0.000 C 
ATOM     11  C   UNL     1      13.731  11.921   5.806  0.00  0.00    +0.000 C 
BRANCH  10  12
ATOM     12  O   UNL     1      13.987  10.980   7.993  0.00  0.00    +0.000 OA
ATOM     13  H   UNL     1      14.114  10.024   7.875  0.00  0.00    +0.000 HD
ENDBRANCH  10  12
ENDBRANCH   9  10
ENDBRANCH   1   9
BRANCH   1  14
ATOM     14  C   UNL     1      10.155  12.280   9.196  0.00  0.00    +0.000 C 
BRANCH  14  15
ATOM     15  C   UNL     1      11.200  11.948  10.287  0.00  0.00    +0.000 C 
ATOM     16  C   UNL     1      10.939  12.666  11.606  0.00  0.00    +0.000 C 
BRANCH  15  17
ATOM     17  O   UNL     1      11.260  10.547  10.551  0.00  0.00    +0.000 OA
ATOM     18  H   UNL     1      10.368  10.313  10.878  0.00  0.00    +0.000 HD
ENDBRANCH  15  17
ENDBRANCH  14  15
ENDBRANCH   1  14
TORSDOF 7
ENDMDL
MODEL 5
REMARK VINA RESULT:    -3.927      2.630      4.437
REMARK INTER + INTRA:          -5.984
REMARK INTER:                  -5.500
REMARK INTRA:                  -0.484
REMARK UNBOUND:                -0.679
REMARK  Name = 
REMARK  10 active torsions:
REMARK  status: ('A' for Active; 'I' for Inactive)
REMARK    1  A    between atoms: C_1  and  C_2
REMARK    2  A    between atoms: C_5  and  N_8
REMARK    3  A    between atoms: N_8  and  C_9
REMARK    4  A    between atoms: N_8  and  C_13
REMARK    5  A    between atoms: C_9  and  C_10
REMARK    6  A    between atoms: C_10  and  C_11
REMARK    7  A    between atoms: C_10  and  O_12
REMARK    8  A    between atoms: C_13  and  C_14
REMARK    9  A    between atoms: C_14  and  C_15
REMARK   10  A    between atoms: C_14  and  O_16
REMARK                            x       y       z     vdW  Elec       q    Type
REMARK                         _______ _______ _______ _____ _____    ______ ____
ROOT
ATOM      1  N   UNL     1      10.787  11.949   5.644  0.00  0.00    +0.000 N 
ENDROOT
BRANCH   1   6
ATOM      2  C   UNL     1       6.798   8.036   4.192  0.00  0.00    +0.000 C 
ATOM      3  C   UNL     1       7.826   9.050   4.592  0.00  0.00    +0.000 A 
ATOM      4  C   UNL     1       7.535  10.410   4.571  0.00  0.00    +0.000 A 
ATOM      5  C   UNL     1       8.512  11.357   4.919  0.00  0.00    +0.000 A 
ATOM      6  C   UNL     1       9.824  11.000   5.280  0.00  0.00    +0.000 A 
ATOM      7  C   UNL     1      10.082   9.617   5.292  0.00  0.00    +0.000 A 
ATOM      8  C   UNL     1       9.114   8.659   4.948  0.00  0.00    +0.000 A 
ENDBRANCH   1   6
BRANCH   1   9
ATOM      9  C   UNL     1      12.163  11.858   5.099  0.00  0.00    +0.000 C 
BRANCH   9  10
ATOM     10  C   UNL     1      13.251  12.124   6.168  0.00  0.00    +0.000 C 
ATOM     11  C   UNL     1      13.922  10.825   6.597  0.00  0.00    +0.000 C 
BRANCH  10  12
ATOM     12  O   UNL     1      14.266  13.002   5.662  0.00  0.00    +0.000 OA
ATOM     13  H   UNL     1      14.104  13.135   4.713  0.00  0.00    +0.000 HD
ENDBRANCH  10  12
ENDBRANCH   9  10
ENDBRANCH   1   9
BRANCH   1  14
ATOM     14  C   UNL     1      10.666  12.722   6.907  0.00  0.00    +0.000 C 
BRANCH  14  15
ATOM     15  C   UNL     1      10.375  11.811   8.124  0.00  0.00    +0.000 C 
ATOM     16  C   UNL     1      11.127  12.232   9.381  0.00  0.00    +0.000 C 
BRANCH  15  17
ATOM     17  O   UNL     1       8.982  11.775   8.434  0.00  0.00    +0.000 OA
ATOM     18  H   UNL     1       8.873  12.400   9.179  0.00  0.00    +0.000 HD
ENDBRANCH  15  17
ENDBRANCH  14  15
ENDBRANCH   1  14
TORSDOF 7
ENDMDL
MODEL 6
REMARK VINA RESULT:    -3.849     19.269     20.877
REMARK INTER + INTRA:          -5.878
REMARK INTER:                  -5.404
REMARK INTRA:                  -0.474
REMARK UNBOUND:                -0.679
REMARK  Name = 
REMARK  10 active torsions:
REMARK  status: ('A' for Active; 'I' for Inactive)
REMARK    1  A    between atoms: C_1  and  C_2
REMARK    2  A    between atoms: C_5  and  N_8
REMARK    3  A    between atoms: N_8  and  C_9
REMARK    4  A    between atoms: N_8  and  C_13
REMARK    5  A    between atoms: C_9  and  C_10
REMARK    6  A    between atoms: C_10  and  C_11
REMARK    7  A    between atoms: C_10  and  O_12
REMARK    8  A    between atoms: C_13  and  C_14
REMARK    9  A    between atoms: C_14  and  C_15
REMARK   10  A    between atoms: C_14  and  O_16
REMARK                            x       y       z     vdW  Elec       q    Type
REMARK                         _______ _______ _______ _____ _____    ______ ____
ROOT
ATOM      1  N   UNL     1       1.619   9.415  25.503  0.00  0.00    +0.000 N 
ENDROOT
BRANCH   1   6
ATOM      2  C   UNL     1       7.329   9.489  24.656  0.00  0.00    +0.000 C 
ATOM      3  C   UNL     1       5.851   9.457  24.897  0.00  0.00    +0.000 A 
ATOM      4  C   UNL     1       5.062   8.445  24.362  0.00  0.00    +0.000 A 
ATOM      5  C   UNL     1       3.672   8.436  24.566  0.00  0.00    +0.000 A 
ATOM      6  C   UNL     1       3.002   9.441  25.287  0.00  0.00    +0.000 A 
ATOM      7  C   UNL     1       3.831  10.447  25.815  0.00  0.00    +0.000 A 
ATOM      8  C   UNL     1       5.222  10.467  25.621  0.00  0.00    +0.000 A 
ENDBRANCH   1   6
BRANCH   1   9
ATOM      9  C   UNL     1       0.763   8.480  24.733  0.00  0.00    +0.000 C 
BRANCH   9  10
ATOM     10  C   UNL     1       0.327   7.246  25.561  0.00  0.00    +0.000 C 
ATOM     11  C   UNL     1      -1.006   7.499  26.255  0.00  0.00    +0.000 C 
BRANCH  10  12
ATOM     12  O   UNL     1       0.180   6.091  24.724  0.00  0.00    +0.000 OA
ATOM     13  H   UNL     1       1.050   5.882  24.344  0.00  0.00    +0.000 HD
ENDBRANCH  10  12
ENDBRANCH   9  10
ENDBRANCH   1   9
BRANCH   1  14
ATOM     14  C   UNL     1       0.907  10.590  26.069  0.00  0.00    +0.000 C 
BRANCH  14  15
ATOM     15  C   UNL     1      -0.364  10.949  25.262  0.00  0.00    +0.000 C 
ATOM     16  C   UNL     1      -1.519  11.415  26.139  0.00  0.00    +0.000 C 
BRANCH  15  17
ATOM     17  O   UNL     1      -0.104  11.965  24.295  0.00  0.00    +0.000 OA
ATOM     18  H   UNL     1      -0.900  12.534  24.307  0.00  0.00    +0.000 HD
ENDBRANCH  15  17
ENDBRANCH  14  15
ENDBRANCH   1  14
TORSDOF 7
ENDMDL
MODEL 7
REMARK VINA RESULT:    -3.823     18.658     19.817
REMARK INTER + INTRA:          -5.843
REMARK INTER:                  -5.343
REMARK INTRA:                  -0.500
REMARK UNBOUND:                -0.679
REMARK  Name = 
REMARK  10 active torsions:
REMARK  status: ('A' for Active; 'I' for Inactive)
REMARK    1  A    between atoms: C_1  and  C_2
REMARK    2  A    between atoms: C_5  and  N_8
REMARK    3  A    between atoms: N_8  and  C_9
REMARK    4  A    between atoms: N_8  and  C_13
REMARK    5  A    between atoms: C_9  and  C_10
REMARK    6  A    between atoms: C_10  and  C_11
REMARK    7  A    between atoms: C_10  and  O_12
REMARK    8  A    between atoms: C_13  and  C_14
REMARK    9  A    between atoms: C_14  and  C_15
REMARK   10  A    between atoms: C_14  and  O_16
REMARK                            x       y       z     vdW  Elec       q    Type
REMARK                         _______ _______ _______ _____ _____    ______ ____
ROOT
ATOM      1  N   UNL     1       5.281  10.447  25.610  0.00  0.00    +0.000 N 
ENDROOT
BRANCH   1   6
ATOM      2  C   UNL     1      10.903  11.603  24.993  0.00  0.00    +0.000 C 
ATOM      3  C   UNL     1       9.447  11.304  25.178  0.00  0.00    +0.000 A 
ATOM      4  C   UNL     1       8.990   9.992  25.244  0.00  0.00    +0.000 A 
ATOM      5  C   UNL     1       7.620   9.717  25.388  0.00  0.00    +0.000 A 
ATOM      6  C   UNL     1       6.643  10.728  25.448  0.00  0.00    +0.000 A 
ATOM      7  C   UNL     1       7.142  12.042  25.380  0.00  0.00    +0.000 A 
ATOM      8  C   UNL     1       8.509  12.330  25.238  0.00  0.00    +0.000 A 
ENDBRANCH   1   6
BRANCH   1   9
ATOM      9  C   UNL     1       4.385  11.450  26.236  0.00  0.00    +0.000 C 
BRANCH   9  10
ATOM     10  C   UNL     1       3.349  12.030  25.243  0.00  0.00    +0.000 C 
ATOM     11  C   UNL     1       2.324  12.894  25.968  0.00  0.00    +0.000 C 
BRANCH  10  12
ATOM     12  O   UNL     1       3.988  12.841  24.247  0.00  0.00    +0.000 OA
ATOM     13  H   UNL     1       4.180  12.279  23.478  0.00  0.00    +0.000 HD
ENDBRANCH  10  12
ENDBRANCH   9  10
ENDBRANCH   1   9
BRANCH   1  14
ATOM     14  C   UNL     1       4.785   9.048  25.662  0.00  0.00    +0.000 C 
BRANCH  14  15
ATOM     15  C   UNL     1       4.299   8.549  24.280  0.00  0.00    +0.000 C 
ATOM     16  C   UNL     1       5.247   7.542  23.640  0.00  0.00    +0.000 C 
BRANCH  15  17
ATOM     17  O   UNL     1       3.007   7.950  24.361  0.00  0.00    +0.000 OA
ATOM     18  H   UNL     1       2.674   8.184  25.251  0.00  0.00    +0.000 HD
ENDBRANCH  15  17
ENDBRANCH  14  15
ENDBRANCH   1  14
TORSDOF 7
ENDMDL
MODEL 8
REMARK VINA RESULT:    -3.805     19.583     21.198
REMARK INTER + INTRA:          -5.818
REMARK INTER:                  -5.227
REMARK INTRA:                  -0.591
REMARK UNBOUND:                -0.679
REMARK  Name = 
REMARK  10 active torsions:
REMARK  status: ('A' for Active; 'I' for Inactive)
REMARK    1  A    between atoms: C_1  and  C_2
REMARK    2  A    between atoms: C_5  and  N_8
REMARK    3  A    between atoms: N_8  and  C_9
REMARK    4  A    between atoms: N_8  and  C_13
REMARK    5  A    between atoms: C_9  and  C_10
REMARK    6  A    between atoms: C_10  and  C_11
REMARK    7  A    between atoms: C_10  and  O_12
REMARK    8  A    between atoms: C_13  and  C_14
REMARK    9  A    between atoms: C_14  and  C_15
REMARK   10  A    between atoms: C_14  and  O_16
REMARK                            x       y       z     vdW  Elec       q    Type
REMARK                         _______ _______ _______ _____ _____    ______ ____
ROOT
ATOM      1  N   UNL     1       0.687   9.267  25.444  0.00  0.00    +0.000 N 
ENDROOT
BRANCH   1   6
ATOM      2  C   UNL     1       6.457   9.266  25.252  0.00  0.00    +0.000 C 
ATOM      3  C   UNL     1       4.959   9.286  25.286  0.00  0.00    +0.000 A 
ATOM      4  C   UNL     1       4.276  10.000  26.265  0.00  0.00    +0.000 A 
ATOM      5  C   UNL     1       2.873   9.991  26.311  0.00  0.00    +0.000 A 
ATOM      6  C   UNL     1       2.087   9.256  25.405  0.00  0.00    +0.000 A 
ATOM      7  C   UNL     1       2.810   8.548  24.428  0.00  0.00    +0.000 A 
ATOM      8  C   UNL     1       4.214   8.550  24.370  0.00  0.00    +0.000 A 
ENDBRANCH   1   6
BRANCH   1   9
ATOM      9  C   UNL     1      -0.055  10.523  25.180  0.00  0.00    +0.000 C 
BRANCH   9  10
ATOM     10  C   UNL     1      -1.534  10.454  25.633  0.00  0.00    +0.000 C 
ATOM     11  C   UNL     1      -2.006  11.804  26.160  0.00  0.00    +0.000 C 
BRANCH  10  12
ATOM     12  O   UNL     1      -2.389  10.079  24.544  0.00  0.00    +0.000 OA
ATOM     13  H   UNL     1      -3.234   9.775  24.916  0.00  0.00    +0.000 HD
ENDBRANCH  10  12
ENDBRANCH   9  10
ENDBRANCH   1   9
BRANCH   1  14
ATOM     14  C   UNL     1      -0.069   8.247  26.215  0.00  0.00    +0.000 C 
BRANCH  14  15
ATOM     15  C   UNL     1      -0.344   6.971  25.383  0.00  0.00    +0.000 C 
ATOM     16  C   UNL     1      -1.090   5.895  26.164  0.00  0.00    +0.000 C 
BRANCH  15  17
ATOM     17  O   UNL     1      -1.093   7.261  24.204  0.00  0.00    +0.000 OA
ATOM     18  H   UNL     1      -0.450   7.673  23.592  0.00  0.00    +0.000 HD
ENDBRANCH  15  17
ENDBRANCH  14  15
ENDBRANCH   1  14
TORSDOF 7
ENDMDL
MODEL 9
REMARK VINA RESULT:    -3.796      1.630      5.385
REMARK INTER + INTRA:          -5.807
REMARK INTER:                  -5.262
REMARK INTRA:                  -0.545
REMARK UNBOUND:                -0.679
REMARK  Name = 
REMARK  10 active torsions:
REMARK  status: ('A' for Active; 'I' for Inactive)
REMARK    1  A    between atoms: C_1  and  C_2
REMARK    2  A    between atoms: C_5  and  N_8
REMARK    3  A    between atoms: N_8  and  C_9
REMARK    4  A    between atoms: N_8  and  C_13
REMARK    5  A    between atoms: C_9  and  C_10
REMARK    6  A    between atoms: C_10  and  C_11
REMARK    7  A    between atoms: C_10  and  O_12
REMARK    8  A    between atoms: C_13  and  C_14
REMARK    9  A    between atoms: C_14  and  C_15
REMARK   10  A    between atoms: C_14  and  O_16
REMARK                            x       y       z     vdW  Elec       q    Type
REMARK                         _______ _______ _______ _____ _____    ______ ____
ROOT
ATOM      1  N   UNL     1       8.889  12.246   5.615  0.00  0.00    +0.000 N 
ENDROOT
BRANCH   1   6
ATOM      2  C   UNL     1      11.175  12.617  10.903  0.00  0.00    +0.000 C 
ATOM      3  C   UNL     1      10.604  12.528   9.521  0.00  0.00    +0.000 A 
ATOM      4  C   UNL     1       9.963  13.618   8.941  0.00  0.00    +0.000 A 
ATOM      5  C   UNL     1       9.403  13.519   7.657  0.00  0.00    +0.000 A 
ATOM      6  C   UNL     1       9.432  12.332   6.903  0.00  0.00    +0.000 A 
ATOM      7  C   UNL     1      10.090  11.251   7.519  0.00  0.00    +0.000 A 
ATOM      8  C   UNL     1      10.656  11.337   8.802  0.00  0.00    +0.000 A 
ENDBRANCH   1   6
BRANCH   1   9
ATOM      9  C   UNL     1       9.512  11.361   4.602  0.00  0.00    +0.000 C 
BRANCH   9  10
ATOM     10  C   UNL     1       8.752  10.024   4.423  0.00  0.00    +0.000 C 
ATOM     11  C   UNL     1       9.635   8.840   4.800  0.00  0.00    +0.000 C 
BRANCH  10  12
ATOM     12  O   UNL     1       7.580   9.984   5.249  0.00  0.00    +0.000 OA
ATOM     13  H   UNL     1       7.740  10.544   6.027  0.00  0.00    +0.000 HD
ENDBRANCH  10  12
ENDBRANCH   9  10
ENDBRANCH   1   9
BRANCH   1  14
ATOM     14  C   UNL     1       8.055  13.342   5.057  0.00  0.00    +0.000 C 
BRANCH  14  15
ATOM     15  C   UNL     1       6.557  13.173   5.408  0.00  0.00    +0.000 C 
ATOM     16  C   UNL     1       5.686  12.879   4.192  0.00  0.00    +0.000 C 
BRANCH  15  17
ATOM     17  O   UNL     1       6.353  12.130   6.359  0.00  0.00    +0.000 OA
ATOM     18  H   UNL     1       5.929  11.406   5.854  0.00  0.00    +0.000 HD
ENDBRANCH  15  17
ENDBRANCH  14  15
ENDBRANCH   1  14
TORSDOF 7
ENDMDL
