MODEL 1
REMARK VINA RESULT:    -5.544      0.000      0.000
REMARK INTER + INTRA:          -6.069
REMARK INTER:                  -6.030
REMARK INTRA:                  -0.039
REMARK UNBOUND:                -0.039
REMARK  Name = 
REMARK  3 active torsions:
REMARK  status: ('A' for Active; 'I' for Inactive)
REMARK    1  A    between atoms: C_1  and  O_2
REMARK    2  A    between atoms: O_2  and  C_3
REMARK    3  A    between atoms: C_8  and  O_9
REMARK                            x       y       z     vdW  Elec       q    Type
REMARK                         _______ _______ _______ _____ _____    ______ ____
ROOT
ATOM      1  C   UNL     1       9.391   2.889 -14.061  0.00  0.00    +0.000 A 
ATOM      2  C   UNL     1       9.493   4.168 -14.606  0.00  0.00    +0.000 A 
ATOM      3  C   UNL     1      10.462   5.058 -14.125  0.00  0.00    +0.000 A 
ATOM      4  C   UNL     1      11.330   4.674 -13.101  0.00  0.00    +0.000 A 
ATOM      5  C   UNL     1      11.234   3.397 -12.551  0.00  0.00    +0.000 A 
ATOM      6  C   UNL     1      10.269   2.522 -13.034  0.00  0.00    +0.000 A 
ENDROOT
BRANCH   1   8
ATOM      7  C   UNL     1       7.310   2.365 -15.081  0.00  0.00    +0.000 C 
ATOM      8  O   UNL     1       8.494   1.919 -14.431  0.00  0.00    +0.000 OA
ENDBRANCH   1   8
BRANCH   6   9
ATOM      9  O   UNL     1      10.194   1.273 -12.478  0.00  0.00    +0.000 OA
ATOM     10  H   UNL     1      11.079   0.884 -12.620  0.00  0.00    +0.000 HD
ENDBRANCH   6   9
TORSDOF 2
ENDMDL
MODEL 2
REMARK VINA RESULT:    -4.686      1.566      1.989
REMARK INTER + INTRA:          -5.136
REMARK INTER:                  -5.084
REMARK INTRA:                  -0.053
REMARK UNBOUND:                -0.039
REMARK  Name = 
REMARK  3 active torsions:
REMARK  status: ('A' for Active; 'I' for Inactive)
REMARK    1  A    between atoms: C_1  and  O_2
REMARK    2  A    between atoms: O_2  and  C_3
REMARK    3  A    between atoms: C_8  and  O_9
REMARK                            x       y       z     vdW  Elec       q    Type
REMARK                         _______ _______ _______ _____ _____    ______ ____
ROOT
ATOM      1  C   UNL     1       8.352   3.862 -14.160  0.00  0.00    +0.000 A 
ATOM      2  C   UNL     1       9.407   4.771 -14.229  0.00  0.00    +0.000 A 
ATOM      3  C   UNL     1      10.625   4.477 -13.603  0.00  0.00    +0.000 A 
ATOM      4  C   UNL     1      10.792   3.279 -12.907  0.00  0.00    +0.000 A 
ATOM      5  C   UNL     1       9.743   2.365 -12.834  0.00  0.00    +0.000 A 
ATOM      6  C   UNL     1       8.538   2.665 -13.458  0.00  0.00    +0.000 A 
ENDROOT
BRANCH   1   8
ATOM      7  C   UNL     1       6.286   5.036 -14.169  0.00  0.00    +0.000 C 
ATOM      8  O   UNL     1       7.110   4.017 -14.722  0.00  0.00    +0.000 OA
ENDBRANCH   1   8
BRANCH   6   9
ATOM      9  O   UNL     1       7.521   1.752 -13.372  0.00  0.00    +0.000 OA
ATOM     10  H   UNL     1       7.028   1.850 -14.209  0.00  0.00    +0.000 HD
ENDBRANCH   6   9
TORSDOF 2
ENDMDL
MODEL 3
REMARK VINA RESULT:    -4.553      3.605      4.622
REMARK INTER + INTRA:          -4.991
REMARK INTER:                  -4.954
REMARK INTRA:                  -0.037
REMARK UNBOUND:                -0.039
REMARK  Name = 
REMARK  3 active torsions:
REMARK  status: ('A' for Active; 'I' for Inactive)
REMARK    1  A    between atoms: C_1  and  O_2
REMARK    2  A    between atoms: O_2  and  C_3
REMARK    3  A    between atoms: C_8  and  O_9
REMARK                            x       y       z     vdW  Elec       q    Type
REMARK                         _______ _______ _______ _____ _____    ______ ____
ROOT
ATOM      1  C   UNL     1       5.611   3.282 -12.258  0.00  0.00    +0.000 A 
ATOM      2  C   UNL     1       4.944   4.506 -12.303  0.00  0.00    +0.000 A 
ATOM      3  C   UNL     1       5.284   5.452 -13.278  0.00  0.00    +0.000 A 
ATOM      4  C   UNL     1       6.289   5.181 -14.208  0.00  0.00    +0.000 A 
ATOM      5  C   UNL     1       6.959   3.961 -14.170  0.00  0.00    +0.000 A 
ATOM      6  C   UNL     1       6.616   3.028 -13.200  0.00  0.00    +0.000 A 
ENDROOT
BRANCH   1   8
ATOM      7  C   UNL     1       4.345   2.478 -10.415  0.00  0.00    +0.000 C 
ATOM      8  O   UNL     1       5.384   2.268 -11.363  0.00  0.00    +0.000 OA
ENDBRANCH   1   8
BRANCH   6   9
ATOM      9  O   UNL     1       7.289   1.836 -13.182  0.00  0.00    +0.000 OA
ATOM     10  H   UNL     1       8.098   2.014 -12.664  0.00  0.00    +0.000 HD
ENDBRANCH   6   9
TORSDOF 2
ENDMDL
MODEL 4
REMARK VINA RESULT:    -4.462      2.789      4.038
REMARK INTER + INTRA:          -4.893
REMARK INTER:                  -4.863
REMARK INTRA:                  -0.030
REMARK UNBOUND:                -0.039
REMARK  Name = 
REMARK  3 active torsions:
REMARK  status: ('A' for Active; 'I' for Inactive)
REMARK    1  A    between atoms: C_1  and  O_2
REMARK    2  A    between atoms: O_2  and  C_3
REMARK    3  A    between atoms: C_8  and  O_9
REMARK                            x       y       z     vdW  Elec       q    Type
REMARK                         _______ _______ _______ _____ _____    ______ ____
ROOT
ATOM      1  C   UNL     1       7.060   3.832 -14.104  0.00  0.00    +0.000 A 
ATOM      2  C   UNL     1       6.467   5.078 -14.304  0.00  0.00    +0.000 A 
ATOM      3  C   UNL     1       5.439   5.508 -13.455  0.00  0.00    +0.000 A 
ATOM      4  C   UNL     1       5.001   4.696 -12.407  0.00  0.00    +0.000 A 
ATOM      5  C   UNL     1       5.588   3.450 -12.201  0.00  0.00    +0.000 A 
ATOM      6  C   UNL     1       6.606   3.032 -13.048  0.00  0.00    +0.000 A 
ENDROOT
BRANCH   1   8
ATOM      7  C   UNL     1       9.384   3.767 -14.596  0.00  0.00    +0.000 C 
ATOM      8  O   UNL     1       8.070   3.285 -14.853  0.00  0.00    +0.000 OA
ENDBRANCH   1   8
BRANCH   6   9
ATOM      9  O   UNL     1       7.168   1.803 -12.825  0.00  0.00    +0.000 OA
ATOM     10  H   UNL     1       7.310   1.429 -13.716  0.00  0.00    +0.000 HD
ENDBRANCH   6   9
TORSDOF 2
ENDMDL
MODEL 5
REMARK VINA RESULT:    -4.375      4.045      5.103
REMARK INTER + INTRA:          -4.798
REMARK INTER:                  -4.758
REMARK INTRA:                  -0.040
REMARK UNBOUND:                -0.039
REMARK  Name = 
REMARK  3 active torsions:
REMARK  status: ('A' for Active; 'I' for Inactive)
REMARK    1  A    between atoms: C_1  and  O_2
REMARK    2  A    between atoms: O_2  and  C_3
REMARK    3  A    between atoms: C_8  and  O_9
REMARK                            x       y       z     vdW  Elec       q    Type
REMARK                         _______ _______ _______ _____ _____    ______ ____
ROOT
ATOM      1  C   UNL     1       5.996   4.092 -13.026  0.00  0.00    +0.000 A 
ATOM      2  C   UNL     1       6.284   4.817 -14.182  0.00  0.00    +0.000 A 
ATOM      3  C   UNL     1       5.610   6.016 -14.442  0.00  0.00    +0.000 A 
ATOM      4  C   UNL     1       4.648   6.495 -13.551  0.00  0.00    +0.000 A 
ATOM      5  C   UNL     1       4.355   5.778 -12.393  0.00  0.00    +0.000 A 
ATOM      6  C   UNL     1       5.028   4.589 -12.144  0.00  0.00    +0.000 A 
ENDROOT
BRANCH   1   8
ATOM      7  C   UNL     1       7.891   2.662 -13.125  0.00  0.00    +0.000 C 
ATOM      8  O   UNL     1       6.574   2.908 -12.646  0.00  0.00    +0.000 OA
ENDBRANCH   1   8
BRANCH   6   9
ATOM      9  O   UNL     1       4.723   3.901 -11.000  0.00  0.00    +0.000 OA
ATOM     10  H   UNL     1       3.934   4.351 -10.642  0.00  0.00    +0.000 HD
ENDBRANCH   6   9
TORSDOF 2
ENDMDL
MODEL 6
REMARK VINA RESULT:    -4.225      1.955      2.943
REMARK INTER + INTRA:          -4.635
REMARK INTER:                  -4.596
REMARK INTRA:                  -0.039
REMARK UNBOUND:                -0.039
REMARK  Name = 
REMARK  3 active torsions:
REMARK  status: ('A' for Active; 'I' for Inactive)
REMARK    1  A    between atoms: C_1  and  O_2
REMARK    2  A    between atoms: O_2  and  C_3
REMARK    3  A    between atoms: C_8  and  O_9
REMARK                            x       y       z     vdW  Elec       q    Type
REMARK                         _______ _______ _______ _____ _____    ______ ____
ROOT
ATOM      1  C   UNL     1       7.703   2.948 -13.213  0.00  0.00    +0.000 A 
ATOM      2  C   UNL     1       8.753   3.580 -12.550  0.00  0.00    +0.000 A 
ATOM      3  C   UNL     1       9.849   4.063 -13.276  0.00  0.00    +0.000 A 
ATOM      4  C   UNL     1       9.900   3.916 -14.663  0.00  0.00    +0.000 A 
ATOM      5  C   UNL     1       8.854   3.285 -15.333  0.00  0.00    +0.000 A 
ATOM      6  C   UNL     1       7.771   2.809 -14.605  0.00  0.00    +0.000 A 
ENDROOT
BRANCH   1   8
ATOM      7  C   UNL     1       5.585   3.363 -12.219  0.00  0.00    +0.000 C 
ATOM      8  O   UNL     1       6.573   2.428 -12.633  0.00  0.00    +0.000 OA
ENDBRANCH   1   8
BRANCH   6   9
ATOM      9  O   UNL     1       6.755   2.192 -15.285  0.00  0.00    +0.000 OA
ATOM     10  H   UNL     1       6.912   1.237 -15.154  0.00  0.00    +0.000 HD
ENDBRANCH   6   9
TORSDOF 2
ENDMDL
MODEL 7
REMARK VINA RESULT:    -4.221      4.227      5.491
REMARK INTER + INTRA:          -4.630
REMARK INTER:                  -4.587
REMARK INTRA:                  -0.043
REMARK UNBOUND:                -0.039
REMARK  Name = 
REMARK  3 active torsions:
REMARK  status: ('A' for Active; 'I' for Inactive)
REMARK    1  A    between atoms: C_1  and  O_2
REMARK    2  A    between atoms: O_2  and  C_3
REMARK    3  A    between atoms: C_8  and  O_9
REMARK                            x       y       z     vdW  Elec       q    Type
REMARK                         _______ _______ _______ _____ _____    ______ ____
ROOT
ATOM      1  C   UNL     1       5.237   3.880 -12.233  0.00  0.00    +0.000 A 
ATOM      2  C   UNL     1       6.461   3.334 -12.615  0.00  0.00    +0.000 A 
ATOM      3  C   UNL     1       7.095   3.784 -13.780  0.00  0.00    +0.000 A 
ATOM      4  C   UNL     1       6.508   4.778 -14.566  0.00  0.00    +0.000 A 
ATOM      5  C   UNL     1       5.285   5.328 -14.191  0.00  0.00    +0.000 A 
ATOM      6  C   UNL     1       4.664   4.876 -13.034  0.00  0.00    +0.000 A 
ENDROOT
BRANCH   1   8
ATOM      7  C   UNL     1       4.516   2.163 -10.757  0.00  0.00    +0.000 C 
ATOM      8  O   UNL     1       4.507   3.537 -11.123  0.00  0.00    +0.000 OA
ENDBRANCH   1   8
BRANCH   6   9
ATOM      9  O   UNL     1       3.462   5.432 -12.686  0.00  0.00    +0.000 OA
ATOM     10  H   UNL     1       3.679   6.346 -12.420  0.00  0.00    +0.000 HD
ENDBRANCH   6   9
TORSDOF 2
ENDMDL
MODEL 8
REMARK VINA RESULT:    -4.196      4.295      5.177
REMARK INTER + INTRA:          -4.603
REMARK INTER:                  -4.552
REMARK INTRA:                  -0.051
REMARK UNBOUND:                -0.039
REMARK  Name = 
REMARK  3 active torsions:
REMARK  status: ('A' for Active; 'I' for Inactive)
REMARK    1  A    between atoms: C_1  and  O_2
REMARK    2  A    between atoms: O_2  and  C_3
REMARK    3  A    between atoms: C_8  and  O_9
REMARK                            x       y       z     vdW  Elec       q    Type
REMARK                         _______ _______ _______ _____ _____    ______ ____
ROOT
ATOM      1  C   UNL     1       4.981   5.140 -13.072  0.00  0.00    +0.000 A 
ATOM      2  C   UNL     1       5.755   5.382 -14.206  0.00  0.00    +0.000 A 
ATOM      3  C   UNL     1       6.827   4.536 -14.516  0.00  0.00    +0.000 A 
ATOM      4  C   UNL     1       7.129   3.447 -13.695  0.00  0.00    +0.000 A 
ATOM      5  C   UNL     1       6.360   3.198 -12.561  0.00  0.00    +0.000 A 
ATOM      6  C   UNL     1       5.299   4.044 -12.261  0.00  0.00    +0.000 A 
ENDROOT
BRANCH   1   8
ATOM      7  C   UNL     1       2.848   6.056 -13.581  0.00  0.00    +0.000 C 
ATOM      8  O   UNL     1       3.908   5.883 -12.649  0.00  0.00    +0.000 OA
ENDBRANCH   1   8
BRANCH   6   9
ATOM      9  O   UNL     1       4.558   3.779 -11.141  0.00  0.00    +0.000 OA
ATOM     10  H   UNL     1       4.736   2.840 -10.941  0.00  0.00    +0.000 HD
ENDBRANCH   6   9
TORSDOF 2
ENDMDL
MODEL 9
REMARK VINA RESULT:    -4.132      1.520      3.535
REMARK INTER + INTRA:          -4.533
REMARK INTER:                  -4.500
REMARK INTRA:                  -0.034
REMARK UNBOUND:                -0.039
REMARK  Name = 
REMARK  3 active torsions:
REMARK  status: ('A' for Active; 'I' for Inactive)
REMARK    1  A    between atoms: C_1  and  O_2
REMARK    2  A    between atoms: O_2  and  C_3
REMARK    3  A    between atoms: C_8  and  O_9
REMARK                            x       y       z     vdW  Elec       q    Type
REMARK                         _______ _______ _______ _____ _____    ______ ____
ROOT
ATOM      1  C   UNL     1       8.630   3.193 -13.240  0.00  0.00    +0.000 A 
ATOM      2  C   UNL     1       7.654   4.152 -12.973  0.00  0.00    +0.000 A 
ATOM      3  C   UNL     1       6.547   4.279 -13.821  0.00  0.00    +0.000 A 
ATOM      4  C   UNL     1       6.412   3.451 -14.937  0.00  0.00    +0.000 A 
ATOM      5  C   UNL     1       7.382   2.489 -15.210  0.00  0.00    +0.000 A 
ATOM      6  C   UNL     1       8.477   2.371 -14.363  0.00  0.00    +0.000 A 
ENDROOT
BRANCH   1   8
ATOM      7  C   UNL     1      10.833   3.877 -12.671  0.00  0.00    +0.000 C 
ATOM      8  O   UNL     1       9.761   2.958 -12.499  0.00  0.00    +0.000 OA
ENDBRANCH   1   8
BRANCH   6   9
ATOM      9  O   UNL     1       9.418   1.418 -14.652  0.00  0.00    +0.000 OA
ATOM     10  H   UNL     1      10.196   1.923 -14.958  0.00  0.00    +0.000 HD
ENDBRANCH   6   9
TORSDOF 2
ENDMDL
