MODEL 1
REMARK VINA RESULT:    -3.198      0.000      0.000
REMARK INTER + INTRA:          -3.520
REMARK INTER:                  -3.478
REMARK INTRA:                  -0.042
REMARK UNBOUND:                -0.042
REMARK  Name = 
REMARK  3 active torsions:
REMARK  status: ('A' for Active; 'I' for Inactive)
REMARK    1  A    between atoms: C_1  and  O_2
REMARK    2  A    between atoms: O_2  and  C_3
REMARK    3  A    between atoms: C_8  and  O_9
REMARK                            x       y       z     vdW  Elec       q    Type
REMARK                         _______ _______ _______ _____ _____    ______ ____
ROOT
ATOM      1  C   UNL     1       7.952  13.144   3.817  0.00  0.00    +0.000 A 
ATOM      2  C   UNL     1       7.916  13.979   4.932  0.00  0.00    +0.000 A 
ATOM      3  C   UNL     1       7.001  13.730   5.963  0.00  0.00    +0.000 A 
ATOM      4  C   UNL     1       6.121  12.650   5.883  0.00  0.00    +0.000 A 
ATOM      5  C   UNL     1       6.151  11.810   4.771  0.00  0.00    +0.000 A 
ATOM      6  C   UNL     1       7.062  12.065   3.754  0.00  0.00    +0.000 A 
ENDROOT
BRANCH   1   8
ATOM      7  C   UNL     1       9.171  14.590   2.378  0.00  0.00    +0.000 C 
ATOM      8  O   UNL     1       8.791  13.267   2.738  0.00  0.00    +0.000 OA
ENDBRANCH   1   8
BRANCH   6   9
ATOM      9  O   UNL     1       7.072  11.226   2.671  0.00  0.00    +0.000 OA
ATOM     10  H   UNL     1       6.162  11.260   2.322  0.00  0.00    +0.000 HD
ENDBRANCH   6   9
TORSDOF 2
ENDMDL
MODEL 2
REMARK VINA RESULT:    -3.182      2.120      3.201
REMARK INTER + INTRA:          -3.502
REMARK INTER:                  -3.459
REMARK INTRA:                  -0.043
REMARK UNBOUND:                -0.042
REMARK  Name = 
REMARK  3 active torsions:
REMARK  status: ('A' for Active; 'I' for Inactive)
REMARK    1  A    between atoms: C_1  and  O_2
REMARK    2  A    between atoms: O_2  and  C_3
REMARK    3  A    between atoms: C_8  and  O_9
REMARK                            x       y       z     vdW  Elec       q    Type
REMARK                         _______ _______ _______ _____ _____    ______ ____
ROOT
ATOM      1  C   UNL     1       7.483  13.751   5.574  0.00  0.00    +0.000 A 
ATOM      2  C   UNL     1       8.455  14.487   4.899  0.00  0.00    +0.000 A 
ATOM      3  C   UNL     1       8.800  14.150   3.584  0.00  0.00    +0.000 A 
ATOM      4  C   UNL     1       8.177  13.079   2.941  0.00  0.00    +0.000 A 
ATOM      5  C   UNL     1       7.204  12.339   3.608  0.00  0.00    +0.000 A 
ATOM      6  C   UNL     1       6.868  12.680   4.913  0.00  0.00    +0.000 A 
ENDROOT
BRANCH   1   8
ATOM      7  C   UNL     1       8.030  14.378   7.800  0.00  0.00    +0.000 C 
ATOM      8  O   UNL     1       7.048  13.966   6.857  0.00  0.00    +0.000 OA
ENDBRANCH   1   8
BRANCH   6   9
ATOM      9  O   UNL     1       5.909  11.938   5.548  0.00  0.00    +0.000 OA
ATOM     10  H   UNL     1       5.063  12.354   5.293  0.00  0.00    +0.000 HD
ENDBRANCH   6   9
TORSDOF 2
ENDMDL
MODEL 3
REMARK VINA RESULT:    -3.165      1.683      3.224
REMARK INTER + INTRA:          -3.484
REMARK INTER:                  -3.442
REMARK INTRA:                  -0.042
REMARK UNBOUND:                -0.042
REMARK  Name = 
REMARK  3 active torsions:
REMARK  status: ('A' for Active; 'I' for Inactive)
REMARK    1  A    between atoms: C_1  and  O_2
REMARK    2  A    between atoms: O_2  and  C_3
REMARK    3  A    between atoms: C_8  and  O_9
REMARK                            x       y       z     vdW  Elec       q    Type
REMARK                         _______ _______ _______ _____ _____    ______ ____
ROOT
ATOM      1  C   UNL     1       6.815  12.289   3.992  0.00  0.00    +0.000 A 
ATOM      2  C   UNL     1       7.800  12.788   3.141  0.00  0.00    +0.000 A 
ATOM      3  C   UNL     1       8.641  13.821   3.573  0.00  0.00    +0.000 A 
ATOM      4  C   UNL     1       8.501  14.358   4.854  0.00  0.00    +0.000 A 
ATOM      5  C   UNL     1       7.520  13.865   5.711  0.00  0.00    +0.000 A 
ATOM      6  C   UNL     1       6.690  12.840   5.274  0.00  0.00    +0.000 A 
ENDROOT
BRANCH   1   8
ATOM      7  C   UNL     1       6.442   9.960   3.700  0.00  0.00    +0.000 C 
ATOM      8  O   UNL     1       5.925  11.285   3.704  0.00  0.00    +0.000 OA
ENDBRANCH   1   8
BRANCH   6   9
ATOM      9  O   UNL     1       5.733  12.372   6.134  0.00  0.00    +0.000 OA
ATOM     10  H   UNL     1       4.947  12.223   5.574  0.00  0.00    +0.000 HD
ENDBRANCH   6   9
TORSDOF 2
ENDMDL
MODEL 4
REMARK VINA RESULT:    -2.993      6.982      8.045
REMARK INTER + INTRA:          -3.297
REMARK INTER:                  -3.246
REMARK INTRA:                  -0.052
REMARK UNBOUND:                -0.042
REMARK  Name = 
REMARK  3 active torsions:
REMARK  status: ('A' for Active; 'I' for Inactive)
REMARK    1  A    between atoms: C_1  and  O_2
REMARK    2  A    between atoms: O_2  and  C_3
REMARK    3  A    between atoms: C_8  and  O_9
REMARK                            x       y       z     vdW  Elec       q    Type
REMARK                         _______ _______ _______ _____ _____    ______ ____
ROOT
ATOM      1  C   UNL     1      12.665  13.419   9.815  0.00  0.00    +0.000 A 
ATOM      2  C   UNL     1      13.145  14.627  10.321  0.00  0.00    +0.000 A 
ATOM      3  C   UNL     1      13.749  15.554   9.462  0.00  0.00    +0.000 A 
ATOM      4  C   UNL     1      13.877  15.278   8.099  0.00  0.00    +0.000 A 
ATOM      5  C   UNL     1      13.400  14.073   7.587  0.00  0.00    +0.000 A 
ATOM      6  C   UNL     1      12.802  13.160   8.446  0.00  0.00    +0.000 A 
ENDROOT
BRANCH   1   8
ATOM      7  C   UNL     1      10.870  12.782  11.236  0.00  0.00    +0.000 C 
ATOM      8  O   UNL     1      12.055  12.424  10.536  0.00  0.00    +0.000 OA
ENDBRANCH   1   8
BRANCH   6   9
ATOM      9  O   UNL     1      12.341  11.983   7.919  0.00  0.00    +0.000 OA
ATOM     10  H   UNL     1      12.728  11.943   7.024  0.00  0.00    +0.000 HD
ENDBRANCH   6   9
TORSDOF 2
ENDMDL
MODEL 5
REMARK VINA RESULT:    -2.951     15.009     15.509
REMARK INTER + INTRA:          -3.251
REMARK INTER:                  -3.205
REMARK INTRA:                  -0.046
REMARK UNBOUND:                -0.042
REMARK  Name = 
REMARK  3 active torsions:
REMARK  status: ('A' for Active; 'I' for Inactive)
REMARK    1  A    between atoms: C_1  and  O_2
REMARK    2  A    between atoms: O_2  and  C_3
REMARK    3  A    between atoms: C_8  and  O_9
REMARK                            x       y       z     vdW  Elec       q    Type
REMARK                         _______ _______ _______ _____ _____    ______ ____
ROOT
ATOM      1  C   UNL     1      12.722  17.870  -9.534  0.00  0.00    +0.000 A 
ATOM      2  C   UNL     1      11.483  18.490  -9.379  0.00  0.00    +0.000 A 
ATOM      3  C   UNL     1      10.333  17.902  -9.920  0.00  0.00    +0.000 A 
ATOM      4  C   UNL     1      10.417  16.695 -10.618  0.00  0.00    +0.000 A 
ATOM      5  C   UNL     1      11.651  16.069 -10.777  0.00  0.00    +0.000 A 
ATOM      6  C   UNL     1      12.786  16.660 -10.237  0.00  0.00    +0.000 A 
ENDROOT
BRANCH   1   8
ATOM      7  C   UNL     1      13.932  18.830  -7.729  0.00  0.00    +0.000 C 
ATOM      8  O   UNL     1      13.924  18.330  -9.061  0.00  0.00    +0.000 OA
ENDBRANCH   1   8
BRANCH   6   9
ATOM      9  O   UNL     1      13.988  16.026 -10.406  0.00  0.00    +0.000 OA
ATOM     10  H   UNL     1      14.526  16.305  -9.641  0.00  0.00    +0.000 HD
ENDBRANCH   6   9
TORSDOF 2
ENDMDL
MODEL 6
REMARK VINA RESULT:    -2.929      7.262      7.611
REMARK INTER + INTRA:          -3.228
REMARK INTER:                  -3.187
REMARK INTRA:                  -0.041
REMARK UNBOUND:                -0.042
REMARK  Name = 
REMARK  3 active torsions:
REMARK  status: ('A' for Active; 'I' for Inactive)
REMARK    1  A    between atoms: C_1  and  O_2
REMARK    2  A    between atoms: O_2  and  C_3
REMARK    3  A    between atoms: C_8  and  O_9
REMARK                            x       y       z     vdW  Elec       q    Type
REMARK                         _______ _______ _______ _____ _____    ______ ____
ROOT
ATOM      1  C   UNL     1       5.582  15.146  -2.772  0.00  0.00    +0.000 A 
ATOM      2  C   UNL     1       5.380  16.332  -2.067  0.00  0.00    +0.000 A 
ATOM      3  C   UNL     1       4.086  16.705  -1.681  0.00  0.00    +0.000 A 
ATOM      4  C   UNL     1       2.993  15.897  -1.997  0.00  0.00    +0.000 A 
ATOM      5  C   UNL     1       3.187  14.710  -2.700  0.00  0.00    +0.000 A 
ATOM      6  C   UNL     1       4.473  14.348  -3.079  0.00  0.00    +0.000 A 
ENDROOT
BRANCH   1   8
ATOM      7  C   UNL     1       7.932  15.009  -2.443  0.00  0.00    +0.000 C 
ATOM      8  O   UNL     1       6.787  14.660  -3.212  0.00  0.00    +0.000 OA
ENDBRANCH   1   8
BRANCH   6   9
ATOM      9  O   UNL     1       4.639  13.177  -3.770  0.00  0.00    +0.000 OA
ATOM     10  H   UNL     1       4.169  12.507  -3.238  0.00  0.00    +0.000 HD
ENDBRANCH   6   9
TORSDOF 2
ENDMDL
MODEL 7
REMARK VINA RESULT:    -2.870      1.486      3.145
REMARK INTER + INTRA:          -3.164
REMARK INTER:                  -3.112
REMARK INTRA:                  -0.052
REMARK UNBOUND:                -0.042
REMARK  Name = 
REMARK  3 active torsions:
REMARK  status: ('A' for Active; 'I' for Inactive)
REMARK    1  A    between atoms: C_1  and  O_2
REMARK    2  A    between atoms: O_2  and  C_3
REMARK    3  A    between atoms: C_8  and  O_9
REMARK                            x       y       z     vdW  Elec       q    Type
REMARK                         _______ _______ _______ _____ _____    ______ ____
ROOT
ATOM      1  C   UNL     1       7.946  13.643   3.554  0.00  0.00    +0.000 A 
ATOM      2  C   UNL     1       7.940  14.106   4.868  0.00  0.00    +0.000 A 
ATOM      3  C   UNL     1       7.980  15.483   5.125  0.00  0.00    +0.000 A 
ATOM      4  C   UNL     1       8.028  16.398   4.072  0.00  0.00    +0.000 A 
ATOM      5  C   UNL     1       8.034  15.942   2.756  0.00  0.00    +0.000 A 
ATOM      6  C   UNL     1       7.994  14.576   2.510  0.00  0.00    +0.000 A 
ENDROOT
BRANCH   1   8
ATOM      7  C   UNL     1       6.758  11.585   3.530  0.00  0.00    +0.000 C 
ATOM      8  O   UNL     1       7.911  12.330   3.156  0.00  0.00    +0.000 OA
ENDBRANCH   1   8
BRANCH   6   9
ATOM      9  O   UNL     1       8.001  14.152   1.208  0.00  0.00    +0.000 OA
ATOM     10  H   UNL     1       7.228  14.588   0.801  0.00  0.00    +0.000 HD
ENDBRANCH   6   9
TORSDOF 2
ENDMDL
MODEL 8
REMARK VINA RESULT:    -2.862      6.718      8.330
REMARK INTER + INTRA:          -3.154
REMARK INTER:                  -3.102
REMARK INTRA:                  -0.052
REMARK UNBOUND:                -0.042
REMARK  Name = 
REMARK  3 active torsions:
REMARK  status: ('A' for Active; 'I' for Inactive)
REMARK    1  A    between atoms: C_1  and  O_2
REMARK    2  A    between atoms: O_2  and  C_3
REMARK    3  A    between atoms: C_8  and  O_9
REMARK                            x       y       z     vdW  Elec       q    Type
REMARK                         _______ _______ _______ _____ _____    ______ ____
ROOT
ATOM      1  C   UNL     1       5.032  14.833  -3.281  0.00  0.00    +0.000 A 
ATOM      2  C   UNL     1       5.673  15.259  -4.443  0.00  0.00    +0.000 A 
ATOM      3  C   UNL     1       7.039  15.566  -4.417  0.00  0.00    +0.000 A 
ATOM      4  C   UNL     1       7.768  15.450  -3.232  0.00  0.00    +0.000 A 
ATOM      5  C   UNL     1       7.135  15.024  -2.066  0.00  0.00    +0.000 A 
ATOM      6  C   UNL     1       5.780  14.721  -2.102  0.00  0.00    +0.000 A 
ENDROOT
BRANCH   1   8
ATOM      7  C   UNL     1       2.772  15.564  -3.290  0.00  0.00    +0.000 C 
ATOM      8  O   UNL     1       3.707  14.500  -3.161  0.00  0.00    +0.000 OA
ENDBRANCH   1   8
BRANCH   6   9
ATOM      9  O   UNL     1       5.180  14.305  -0.944  0.00  0.00    +0.000 OA
ATOM     10  H   UNL     1       5.720  14.695  -0.230  0.00  0.00    +0.000 HD
ENDBRANCH   6   9
TORSDOF 2
ENDMDL
MODEL 9
REMARK VINA RESULT:    -2.860      1.435      1.835
REMARK INTER + INTRA:          -3.152
REMARK INTER:                  -3.101
REMARK INTRA:                  -0.051
REMARK UNBOUND:                -0.042
REMARK  Name = 
REMARK  3 active torsions:
REMARK  status: ('A' for Active; 'I' for Inactive)
REMARK    1  A    between atoms: C_1  and  O_2
REMARK    2  A    between atoms: O_2  and  C_3
REMARK    3  A    between atoms: C_8  and  O_9
REMARK                            x       y       z     vdW  Elec       q    Type
REMARK                         _______ _______ _______ _____ _____    ______ ____
ROOT
ATOM      1  C   UNL     1       8.214  14.528   3.025  0.00  0.00    +0.000 A 
ATOM      2  C   UNL     1       8.127  15.646   3.854  0.00  0.00    +0.000 A 
ATOM      3  C   UNL     1       7.747  15.496   5.194  0.00  0.00    +0.000 A 
ATOM      4  C   UNL     1       7.452  14.232   5.708  0.00  0.00    +0.000 A 
ATOM      5  C   UNL     1       7.536  13.111   4.886  0.00  0.00    +0.000 A 
ATOM      6  C   UNL     1       7.914  13.269   3.559  0.00  0.00    +0.000 A 
ENDROOT
BRANCH   1   8
ATOM      7  C   UNL     1       7.779  15.325   0.829  0.00  0.00    +0.000 C 
ATOM      8  O   UNL     1       8.571  14.527   1.700  0.00  0.00    +0.000 OA
ENDBRANCH   1   8
BRANCH   6   9
ATOM      9  O   UNL     1       7.990  12.152   2.771  0.00  0.00    +0.000 OA
ATOM     10  H   UNL     1       7.061  11.915   2.585  0.00  0.00    +0.000 HD
ENDBRANCH   6   9
TORSDOF 2
ENDMDL
