MODEL 1
REMARK VINA RESULT:    -3.188      0.000      0.000
REMARK INTER + INTRA:          -3.510
REMARK INTER:                  -3.467
REMARK INTRA:                  -0.043
REMARK UNBOUND:                -0.043
REMARK  Name = 
REMARK  3 active torsions:
REMARK  status: ('A' for Active; 'I' for Inactive)
REMARK    1  A    between atoms: C_1  and  O_2
REMARK    2  A    between atoms: O_2  and  C_3
REMARK    3  A    between atoms: C_8  and  O_9
REMARK                            x       y       z     vdW  Elec       q    Type
REMARK                         _______ _______ _______ _____ _____    ______ ____
ROOT
ATOM      1  C   UNL     1       7.500  13.721   5.521  0.00  0.00    +0.000 A 
ATOM      2  C   UNL     1       8.463  14.423   4.799  0.00  0.00    +0.000 A 
ATOM      3  C   UNL     1       8.776  14.037   3.489  0.00  0.00    +0.000 A 
ATOM      4  C   UNL     1       8.129  12.950   2.898  0.00  0.00    +0.000 A 
ATOM      5  C   UNL     1       7.165  12.244   3.613  0.00  0.00    +0.000 A 
ATOM      6  C   UNL     1       6.861  12.633   4.911  0.00  0.00    +0.000 A 
ENDROOT
BRANCH   1   8
ATOM      7  C   UNL     1       8.103  14.423   7.709  0.00  0.00    +0.000 C 
ATOM      8  O   UNL     1       7.096  13.985   6.805  0.00  0.00    +0.000 OA
ENDBRANCH   1   8
BRANCH   6   9
ATOM      9  O   UNL     1       5.910  11.923   5.594  0.00  0.00    +0.000 OA
ATOM     10  H   UNL     1       5.138  12.519   5.636  0.00  0.00    +0.000 HD
ENDBRANCH   6   9
TORSDOF 2
ENDMDL
MODEL 2
REMARK VINA RESULT:    -3.182      1.124      3.035
REMARK INTER + INTRA:          -3.504
REMARK INTER:                  -3.452
REMARK INTRA:                  -0.052
REMARK UNBOUND:                -0.043
REMARK  Name = 
REMARK  3 active torsions:
REMARK  status: ('A' for Active; 'I' for Inactive)
REMARK    1  A    between atoms: C_1  and  O_2
REMARK    2  A    between atoms: O_2  and  C_3
REMARK    3  A    between atoms: C_8  and  O_9
REMARK                            x       y       z     vdW  Elec       q    Type
REMARK                         _______ _______ _______ _____ _____    ______ ____
ROOT
ATOM      1  C   UNL     1       6.798  12.219   3.976  0.00  0.00    +0.000 A 
ATOM      2  C   UNL     1       7.770  12.692   3.095  0.00  0.00    +0.000 A 
ATOM      3  C   UNL     1       8.610  13.745   3.480  0.00  0.00    +0.000 A 
ATOM      4  C   UNL     1       8.481  14.327   4.743  0.00  0.00    +0.000 A 
ATOM      5  C   UNL     1       7.513  13.860   5.628  0.00  0.00    +0.000 A 
ATOM      6  C   UNL     1       6.684  12.815   5.238  0.00  0.00    +0.000 A 
ENDROOT
BRANCH   1   8
ATOM      7  C   UNL     1       6.458   9.891   3.642  0.00  0.00    +0.000 C 
ATOM      8  O   UNL     1       5.911  11.201   3.734  0.00  0.00    +0.000 OA
ENDBRANCH   1   8
BRANCH   6   9
ATOM      9  O   UNL     1       5.740  12.373   6.125  0.00  0.00    +0.000 OA
ATOM     10  H   UNL     1       5.165  11.783   5.602  0.00  0.00    +0.000 HD
ENDBRANCH   6   9
TORSDOF 2
ENDMDL
MODEL 3
REMARK VINA RESULT:    -2.990      6.385      7.041
REMARK INTER + INTRA:          -3.296
REMARK INTER:                  -3.245
REMARK INTRA:                  -0.051
REMARK UNBOUND:                -0.043
REMARK  Name = 
REMARK  3 active torsions:
REMARK  status: ('A' for Active; 'I' for Inactive)
REMARK    1  A    between atoms: C_1  and  O_2
REMARK    2  A    between atoms: O_2  and  C_3
REMARK    3  A    between atoms: C_8  and  O_9
REMARK                            x       y       z     vdW  Elec       q    Type
REMARK                         _______ _______ _______ _____ _____    ______ ____
ROOT
ATOM      1  C   UNL     1      12.641  13.399   9.843  0.00  0.00    +0.000 A 
ATOM      2  C   UNL     1      13.130  14.586  10.388  0.00  0.00    +0.000 A 
ATOM      3  C   UNL     1      13.762  15.526   9.564  0.00  0.00    +0.000 A 
ATOM      4  C   UNL     1      13.909  15.283   8.197  0.00  0.00    +0.000 A 
ATOM      5  C   UNL     1      13.423  14.100   7.645  0.00  0.00    +0.000 A 
ATOM      6  C   UNL     1      12.798  13.174   8.470  0.00  0.00    +0.000 A 
ENDROOT
BRANCH   1   8
ATOM      7  C   UNL     1      10.842  12.764  11.260  0.00  0.00    +0.000 C 
ATOM      8  O   UNL     1      12.005  12.395  10.527  0.00  0.00    +0.000 OA
ENDBRANCH   1   8
BRANCH   6   9
ATOM      9  O   UNL     1      12.328  12.018   7.905  0.00  0.00    +0.000 OA
ATOM     10  H   UNL     1      12.080  12.269   6.995  0.00  0.00    +0.000 HD
ENDBRANCH   6   9
TORSDOF 2
ENDMDL
MODEL 4
REMARK VINA RESULT:    -2.927     16.085     16.503
REMARK INTER + INTRA:          -3.227
REMARK INTER:                  -3.187
REMARK INTRA:                  -0.040
REMARK UNBOUND:                -0.043
REMARK  Name = 
REMARK  3 active torsions:
REMARK  status: ('A' for Active; 'I' for Inactive)
REMARK    1  A    between atoms: C_1  and  O_2
REMARK    2  A    between atoms: O_2  and  C_3
REMARK    3  A    between atoms: C_8  and  O_9
REMARK                            x       y       z     vdW  Elec       q    Type
REMARK                         _______ _______ _______ _____ _____    ______ ____
ROOT
ATOM      1  C   UNL     1      11.515  16.790 -10.332  0.00  0.00    +0.000 A 
ATOM      2  C   UNL     1      10.773  17.949 -10.108  0.00  0.00    +0.000 A 
ATOM      3  C   UNL     1      11.410  19.109  -9.651  0.00  0.00    +0.000 A 
ATOM      4  C   UNL     1      12.786  19.116  -9.415  0.00  0.00    +0.000 A 
ATOM      5  C   UNL     1      13.534  17.962  -9.637  0.00  0.00    +0.000 A 
ATOM      6  C   UNL     1      12.894  16.815 -10.090  0.00  0.00    +0.000 A 
ENDROOT
BRANCH   1   8
ATOM      7  C   UNL     1       9.647  15.335 -10.537  0.00  0.00    +0.000 C 
ATOM      8  O   UNL     1      11.027  15.587 -10.776  0.00  0.00    +0.000 OA
ENDBRANCH   1   8
BRANCH   6   9
ATOM      9  O   UNL     1      13.651  15.693 -10.300  0.00  0.00    +0.000 OA
ATOM     10  H   UNL     1      14.214  15.914 -11.066  0.00  0.00    +0.000 HD
ENDBRANCH   6   9
TORSDOF 2
ENDMDL
MODEL 5
REMARK VINA RESULT:    -2.926      2.075      2.459
REMARK INTER + INTRA:          -3.225
REMARK INTER:                  -3.179
REMARK INTRA:                  -0.046
REMARK UNBOUND:                -0.043
REMARK  Name = 
REMARK  3 active torsions:
REMARK  status: ('A' for Active; 'I' for Inactive)
REMARK    1  A    between atoms: C_1  and  O_2
REMARK    2  A    between atoms: O_2  and  C_3
REMARK    3  A    between atoms: C_8  and  O_9
REMARK                            x       y       z     vdW  Elec       q    Type
REMARK                         _______ _______ _______ _____ _____    ______ ____
ROOT
ATOM      1  C   UNL     1       8.027  14.473   4.372  0.00  0.00    +0.000 A 
ATOM      2  C   UNL     1       7.671  15.820   4.313  0.00  0.00    +0.000 A 
ATOM      3  C   UNL     1       7.552  16.458   3.072  0.00  0.00    +0.000 A 
ATOM      4  C   UNL     1       7.789  15.756   1.889  0.00  0.00    +0.000 A 
ATOM      5  C   UNL     1       8.145  14.410   1.940  0.00  0.00    +0.000 A 
ATOM      6  C   UNL     1       8.261  13.785   3.175  0.00  0.00    +0.000 A 
ENDROOT
BRANCH   1   8
ATOM      7  C   UNL     1       8.906  14.327   6.575  0.00  0.00    +0.000 C 
ATOM      8  O   UNL     1       8.180  13.724   5.511  0.00  0.00    +0.000 OA
ENDBRANCH   1   8
BRANCH   6   9
ATOM      9  O   UNL     1       8.612  12.462   3.200  0.00  0.00    +0.000 OA
ATOM     10  H   UNL     1       9.130  12.327   2.383  0.00  0.00    +0.000 HD
ENDBRANCH   6   9
TORSDOF 2
ENDMDL
MODEL 6
REMARK VINA RESULT:    -2.925      8.071      8.704
REMARK INTER + INTRA:          -3.224
REMARK INTER:                  -3.184
REMARK INTRA:                  -0.040
REMARK UNBOUND:                -0.043
REMARK  Name = 
REMARK  3 active torsions:
REMARK  status: ('A' for Active; 'I' for Inactive)
REMARK    1  A    between atoms: C_1  and  O_2
REMARK    2  A    between atoms: O_2  and  C_3
REMARK    3  A    between atoms: C_8  and  O_9
REMARK                            x       y       z     vdW  Elec       q    Type
REMARK                         _______ _______ _______ _____ _____    ______ ____
ROOT
ATOM      1  C   UNL     1       5.590  15.152  -2.789  0.00  0.00    +0.000 A 
ATOM      2  C   UNL     1       5.385  16.348  -2.101  0.00  0.00    +0.000 A 
ATOM      3  C   UNL     1       4.090  16.727  -1.728  0.00  0.00    +0.000 A 
ATOM      4  C   UNL     1       2.997  15.916  -2.040  0.00  0.00    +0.000 A 
ATOM      5  C   UNL     1       3.194  14.720  -2.727  0.00  0.00    +0.000 A 
ATOM      6  C   UNL     1       4.482  14.352  -3.093  0.00  0.00    +0.000 A 
ENDROOT
BRANCH   1   8
ATOM      7  C   UNL     1       7.940  15.037  -2.459  0.00  0.00    +0.000 C 
ATOM      8  O   UNL     1       6.797  14.658  -3.215  0.00  0.00    +0.000 OA
ENDBRANCH   1   8
BRANCH   6   9
ATOM      9  O   UNL     1       4.650  13.172  -3.767  0.00  0.00    +0.000 OA
ATOM     10  H   UNL     1       4.277  12.492  -3.174  0.00  0.00    +0.000 HD
ENDBRANCH   6   9
TORSDOF 2
ENDMDL
MODEL 7
REMARK VINA RESULT:    -2.883      8.675      9.165
REMARK INTER + INTRA:          -3.179
REMARK INTER:                  -3.135
REMARK INTRA:                  -0.044
REMARK UNBOUND:                -0.043
REMARK  Name = 
REMARK  3 active torsions:
REMARK  status: ('A' for Active; 'I' for Inactive)
REMARK    1  A    between atoms: C_1  and  O_2
REMARK    2  A    between atoms: O_2  and  C_3
REMARK    3  A    between atoms: C_8  and  O_9
REMARK                            x       y       z     vdW  Elec       q    Type
REMARK                         _______ _______ _______ _____ _____    ______ ____
ROOT
ATOM      1  C   UNL     1       2.526  15.456  -1.909  0.00  0.00    +0.000 A 
ATOM      2  C   UNL     1       3.228  16.565  -1.438  0.00  0.00    +0.000 A 
ATOM      3  C   UNL     1       2.720  17.311  -0.367  0.00  0.00    +0.000 A 
ATOM      4  C   UNL     1       1.512  16.954   0.235  0.00  0.00    +0.000 A 
ATOM      5  C   UNL     1       0.805  15.848  -0.230  0.00  0.00    +0.000 A 
ATOM      6  C   UNL     1       1.316  15.113  -1.293  0.00  0.00    +0.000 A 
ENDROOT
BRANCH   1   8
ATOM      7  C   UNL     1       4.286  14.325  -3.035  0.00  0.00    +0.000 C 
ATOM      8  O   UNL     1       2.902  14.638  -2.944  0.00  0.00    +0.000 OA
ENDBRANCH   1   8
BRANCH   6   9
ATOM      9  O   UNL     1       0.603  14.030  -1.732  0.00  0.00    +0.000 OA
ATOM     10  H   UNL     1       1.258  13.473  -2.196  0.00  0.00    +0.000 HD
ENDBRANCH   6   9
TORSDOF 2
ENDMDL
MODEL 8
REMARK VINA RESULT:    -2.872      7.403      8.770
REMARK INTER + INTRA:          -3.167
REMARK INTER:                  -3.116
REMARK INTRA:                  -0.051
REMARK UNBOUND:                -0.043
REMARK  Name = 
REMARK  3 active torsions:
REMARK  status: ('A' for Active; 'I' for Inactive)
REMARK    1  A    between atoms: C_1  and  O_2
REMARK    2  A    between atoms: O_2  and  C_3
REMARK    3  A    between atoms: C_8  and  O_9
REMARK                            x       y       z     vdW  Elec       q    Type
REMARK                         _______ _______ _______ _____ _____    ______ ____
ROOT
ATOM      1  C   UNL     1       5.033  14.806  -3.273  0.00  0.00    +0.000 A 
ATOM      2  C   UNL     1       5.689  15.238  -4.425  0.00  0.00    +0.000 A 
ATOM      3  C   UNL     1       7.055  15.544  -4.379  0.00  0.00    +0.000 A 
ATOM      4  C   UNL     1       7.768  15.422  -3.185  0.00  0.00    +0.000 A 
ATOM      5  C   UNL     1       7.120  14.991  -2.030  0.00  0.00    +0.000 A 
ATOM      6  C   UNL     1       5.765  14.690  -2.084  0.00  0.00    +0.000 A 
ENDROOT
BRANCH   1   8
ATOM      7  C   UNL     1       2.775  15.545  -3.266  0.00  0.00    +0.000 C 
ATOM      8  O   UNL     1       3.706  14.474  -3.171  0.00  0.00    +0.000 OA
ENDBRANCH   1   8
BRANCH   6   9
ATOM      9  O   UNL     1       5.150  14.269  -0.936  0.00  0.00    +0.000 OA
ATOM     10  H   UNL     1       5.408  14.925  -0.261  0.00  0.00    +0.000 HD
ENDBRANCH   6   9
TORSDOF 2
ENDMDL
MODEL 9
REMARK VINA RESULT:    -2.861      2.512      3.657
REMARK INTER + INTRA:          -3.155
REMARK INTER:                  -3.103
REMARK INTRA:                  -0.052
REMARK UNBOUND:                -0.043
REMARK  Name = 
REMARK  3 active torsions:
REMARK  status: ('A' for Active; 'I' for Inactive)
REMARK    1  A    between atoms: C_1  and  O_2
REMARK    2  A    between atoms: O_2  and  C_3
REMARK    3  A    between atoms: C_8  and  O_9
REMARK                            x       y       z     vdW  Elec       q    Type
REMARK                         _______ _______ _______ _____ _____    ______ ____
ROOT
ATOM      1  C   UNL     1       8.243  14.525   3.045  0.00  0.00    +0.000 A 
ATOM      2  C   UNL     1       8.163  15.628   3.895  0.00  0.00    +0.000 A 
ATOM      3  C   UNL     1       7.769  15.456   5.228  0.00  0.00    +0.000 A 
ATOM      4  C   UNL     1       7.453  14.186   5.714  0.00  0.00    +0.000 A 
ATOM      5  C   UNL     1       7.531  13.080   4.871  0.00  0.00    +0.000 A 
ATOM      6  C   UNL     1       7.923  13.260   3.551  0.00  0.00    +0.000 A 
ENDROOT
BRANCH   1   8
ATOM      7  C   UNL     1       7.788  15.304   0.846  0.00  0.00    +0.000 C 
ATOM      8  O   UNL     1       8.612  14.545   1.723  0.00  0.00    +0.000 OA
ENDBRANCH   1   8
BRANCH   6   9
ATOM      9  O   UNL     1       7.992  12.157   2.741  0.00  0.00    +0.000 OA
ATOM     10  H   UNL     1       7.330  12.321   2.042  0.00  0.00    +0.000 HD
ENDBRANCH   6   9
TORSDOF 2
ENDMDL
