MODEL 1
REMARK VINA RESULT:    -3.717      0.000      0.000
REMARK INTER + INTRA:          -4.080
REMARK INTER:                  -4.043
REMARK INTRA:                  -0.037
REMARK UNBOUND:                -0.037
REMARK  Name = 
REMARK  3 active torsions:
REMARK  status: ('A' for Active; 'I' for Inactive)
REMARK    1  A    between atoms: C_1  and  O_2
REMARK    2  A    between atoms: O_2  and  C_3
REMARK    3  A    between atoms: C_8  and  O_9
REMARK                            x       y       z     vdW  Elec       q    Type
REMARK                         _______ _______ _______ _____ _____    ______ ____
ROOT
ATOM      1  C   UNL     1      14.740  -3.839  14.506  0.00  0.00    +0.000 A 
ATOM      2  C   UNL     1      14.950  -5.205  14.323  0.00  0.00    +0.000 A 
ATOM      3  C   UNL     1      14.943  -5.747  13.032  0.00  0.00    +0.000 A 
ATOM      4  C   UNL     1      14.725  -4.928  11.922  0.00  0.00    +0.000 A 
ATOM      5  C   UNL     1      14.514  -3.563  12.097  0.00  0.00    +0.000 A 
ATOM      6  C   UNL     1      14.523  -3.034  13.381  0.00  0.00    +0.000 A 
ENDROOT
BRANCH   1   8
ATOM      7  C   UNL     1      14.947  -3.961  16.870  0.00  0.00    +0.000 C 
ATOM      8  O   UNL     1      14.720  -3.175  15.707  0.00  0.00    +0.000 OA
ENDBRANCH   1   8
BRANCH   6   9
ATOM      9  O   UNL     1      14.313  -1.689  13.528  0.00  0.00    +0.000 OA
ATOM     10  H   UNL     1      14.994  -1.399  14.164  0.00  0.00    +0.000 HD
ENDBRANCH   6   9
TORSDOF 2
ENDMDL
MODEL 2
REMARK VINA RESULT:    -3.655     12.343     13.224
REMARK INTER + INTRA:          -4.013
REMARK INTER:                  -3.973
REMARK INTRA:                  -0.040
REMARK UNBOUND:                -0.037
REMARK  Name = 
REMARK  3 active torsions:
REMARK  status: ('A' for Active; 'I' for Inactive)
REMARK    1  A    between atoms: C_1  and  O_2
REMARK    2  A    between atoms: O_2  and  C_3
REMARK    3  A    between atoms: C_8  and  O_9
REMARK                            x       y       z     vdW  Elec       q    Type
REMARK                         _______ _______ _______ _____ _____    ______ ____
ROOT
ATOM      1  C   UNL     1       6.455  -6.471  24.291  0.00  0.00    +0.000 A 
ATOM      2  C   UNL     1       6.271  -7.082  23.052  0.00  0.00    +0.000 A 
ATOM      3  C   UNL     1       6.201  -6.301  21.891  0.00  0.00    +0.000 A 
ATOM      4  C   UNL     1       6.314  -4.911  21.965  0.00  0.00    +0.000 A 
ATOM      5  C   UNL     1       6.498  -4.294  23.200  0.00  0.00    +0.000 A 
ATOM      6  C   UNL     1       6.566  -5.076  24.346  0.00  0.00    +0.000 A 
ENDROOT
BRANCH   1   8
ATOM      7  C   UNL     1       7.013  -8.448  25.485  0.00  0.00    +0.000 C 
ATOM      8  O   UNL     1       6.540  -7.107  25.504  0.00  0.00    +0.000 OA
ENDBRANCH   1   8
BRANCH   6   9
ATOM      9  O   UNL     1       6.747  -4.447  25.548  0.00  0.00    +0.000 OA
ATOM     10  H   UNL     1       6.038  -3.777  25.587  0.00  0.00    +0.000 HD
ENDBRANCH   6   9
TORSDOF 2
ENDMDL
MODEL 3
REMARK VINA RESULT:    -3.576     11.591     12.632
REMARK INTER + INTRA:          -3.927
REMARK INTER:                  -3.881
REMARK INTRA:                  -0.046
REMARK UNBOUND:                -0.037
REMARK  Name = 
REMARK  3 active torsions:
REMARK  status: ('A' for Active; 'I' for Inactive)
REMARK    1  A    between atoms: C_1  and  O_2
REMARK    2  A    between atoms: O_2  and  C_3
REMARK    3  A    between atoms: C_8  and  O_9
REMARK                            x       y       z     vdW  Elec       q    Type
REMARK                         _______ _______ _______ _____ _____    ______ ____
ROOT
ATOM      1  C   UNL     1       7.329  -5.674  23.682  0.00  0.00    +0.000 A 
ATOM      2  C   UNL     1       7.207  -6.452  24.832  0.00  0.00    +0.000 A 
ATOM      3  C   UNL     1       6.378  -7.580  24.829  0.00  0.00    +0.000 A 
ATOM      4  C   UNL     1       5.669  -7.935  23.680  0.00  0.00    +0.000 A 
ATOM      5  C   UNL     1       5.786  -7.163  22.526  0.00  0.00    +0.000 A 
ATOM      6  C   UNL     1       6.610  -6.045  22.539  0.00  0.00    +0.000 A 
ENDROOT
BRANCH   1   8
ATOM      7  C   UNL     1       9.411  -4.604  24.091  0.00  0.00    +0.000 C 
ATOM      8  O   UNL     1       8.100  -4.548  23.542  0.00  0.00    +0.000 OA
ENDBRANCH   1   8
BRANCH   6   9
ATOM      9  O   UNL     1       6.709  -5.302  21.393  0.00  0.00    +0.000 OA
ATOM     10  H   UNL     1       7.663  -5.116  21.298  0.00  0.00    +0.000 HD
ENDBRANCH   6   9
TORSDOF 2
ENDMDL
MODEL 4
REMARK VINA RESULT:    -3.559     12.248     13.245
REMARK INTER + INTRA:          -3.909
REMARK INTER:                  -3.857
REMARK INTRA:                  -0.052
REMARK UNBOUND:                -0.037
REMARK  Name = 
REMARK  3 active torsions:
REMARK  status: ('A' for Active; 'I' for Inactive)
REMARK    1  A    between atoms: C_1  and  O_2
REMARK    2  A    between atoms: O_2  and  C_3
REMARK    3  A    between atoms: C_8  and  O_9
REMARK                            x       y       z     vdW  Elec       q    Type
REMARK                         _______ _______ _______ _____ _____    ______ ____
ROOT
ATOM      1  C   UNL     1       6.309  -6.568  24.233  0.00  0.00    +0.000 A 
ATOM      2  C   UNL     1       6.305  -5.188  24.430  0.00  0.00    +0.000 A 
ATOM      3  C   UNL     1       6.260  -4.324  23.328  0.00  0.00    +0.000 A 
ATOM      4  C   UNL     1       6.221  -4.834  22.029  0.00  0.00    +0.000 A 
ATOM      5  C   UNL     1       6.224  -6.212  21.824  0.00  0.00    +0.000 A 
ATOM      6  C   UNL     1       6.269  -7.061  22.923  0.00  0.00    +0.000 A 
ENDROOT
BRANCH   1   8
ATOM      7  C   UNL     1       7.518  -7.554  26.024  0.00  0.00    +0.000 C 
ATOM      8  O   UNL     1       6.351  -7.527  25.213  0.00  0.00    +0.000 OA
ENDBRANCH   1   8
BRANCH   6   9
ATOM      9  O   UNL     1       6.272  -8.412  22.696  0.00  0.00    +0.000 OA
ATOM     10  H   UNL     1       5.452  -8.581  22.194  0.00  0.00    +0.000 HD
ENDBRANCH   6   9
TORSDOF 2
ENDMDL
MODEL 5
REMARK VINA RESULT:    -3.457     16.627     18.177
REMARK INTER + INTRA:          -3.797
REMARK INTER:                  -3.760
REMARK INTRA:                  -0.037
REMARK UNBOUND:                -0.037
REMARK  Name = 
REMARK  3 active torsions:
REMARK  status: ('A' for Active; 'I' for Inactive)
REMARK    1  A    between atoms: C_1  and  O_2
REMARK    2  A    between atoms: O_2  and  C_3
REMARK    3  A    between atoms: C_8  and  O_9
REMARK                            x       y       z     vdW  Elec       q    Type
REMARK                         _______ _______ _______ _____ _____    ______ ____
ROOT
ATOM      1  C   UNL     1       7.559  10.112   4.473  0.00  0.00    +0.000 A 
ATOM      2  C   UNL     1       8.494  11.112   4.736  0.00  0.00    +0.000 A 
ATOM      3  C   UNL     1       9.833  10.775   4.971  0.00  0.00    +0.000 A 
ATOM      4  C   UNL     1      10.241   9.440   4.943  0.00  0.00    +0.000 A 
ATOM      5  C   UNL     1       9.313   8.435   4.679  0.00  0.00    +0.000 A 
ATOM      6  C   UNL     1       7.988   8.779   4.449  0.00  0.00    +0.000 A 
ENDROOT
BRANCH   1   8
ATOM      7  C   UNL     1       5.735  11.628   4.330  0.00  0.00    +0.000 C 
ATOM      8  O   UNL     1       6.222  10.296   4.227  0.00  0.00    +0.000 OA
ENDBRANCH   1   8
BRANCH   6   9
ATOM      9  O   UNL     1       7.094   7.773   4.192  0.00  0.00    +0.000 OA
ATOM     10  H   UNL     1       6.385   8.198   3.672  0.00  0.00    +0.000 HD
ENDBRANCH   6   9
TORSDOF 2
ENDMDL
MODEL 6
REMARK VINA RESULT:    -3.444     11.547     12.871
REMARK INTER + INTRA:          -3.783
REMARK INTER:                  -3.750
REMARK INTRA:                  -0.034
REMARK UNBOUND:                -0.037
REMARK  Name = 
REMARK  3 active torsions:
REMARK  status: ('A' for Active; 'I' for Inactive)
REMARK    1  A    between atoms: C_1  and  O_2
REMARK    2  A    between atoms: O_2  and  C_3
REMARK    3  A    between atoms: C_8  and  O_9
REMARK                            x       y       z     vdW  Elec       q    Type
REMARK                         _______ _______ _______ _____ _____    ______ ____
ROOT
ATOM      1  C   UNL     1       7.095  -4.884  23.393  0.00  0.00    +0.000 A 
ATOM      2  C   UNL     1       6.910  -5.390  22.107  0.00  0.00    +0.000 A 
ATOM      3  C   UNL     1       5.832  -6.243  21.840  0.00  0.00    +0.000 A 
ATOM      4  C   UNL     1       4.938  -6.593  22.853  0.00  0.00    +0.000 A 
ATOM      5  C   UNL     1       5.115  -6.091  24.140  0.00  0.00    +0.000 A 
ATOM      6  C   UNL     1       6.188  -5.246  24.397  0.00  0.00    +0.000 A 
ENDROOT
BRANCH   1   8
ATOM      7  C   UNL     1       9.377  -4.639  24.010  0.00  0.00    +0.000 C 
ATOM      8  O   UNL     1       8.102  -4.044  23.797  0.00  0.00    +0.000 OA
ENDBRANCH   1   8
BRANCH   6   9
ATOM      9  O   UNL     1       6.342  -4.765  25.670  0.00  0.00    +0.000 OA
ATOM     10  H   UNL     1       6.935  -3.996  25.575  0.00  0.00    +0.000 HD
ENDBRANCH   6   9
TORSDOF 2
ENDMDL
MODEL 7
REMARK VINA RESULT:    -3.431     11.954     13.208
REMARK INTER + INTRA:          -3.769
REMARK INTER:                  -3.718
REMARK INTRA:                  -0.051
REMARK UNBOUND:                -0.037
REMARK  Name = 
REMARK  3 active torsions:
REMARK  status: ('A' for Active; 'I' for Inactive)
REMARK    1  A    between atoms: C_1  and  O_2
REMARK    2  A    between atoms: O_2  and  C_3
REMARK    3  A    between atoms: C_8  and  O_9
REMARK                            x       y       z     vdW  Elec       q    Type
REMARK                         _______ _______ _______ _____ _____    ______ ____
ROOT
ATOM      1  C   UNL     1       6.366  -6.637  23.513  0.00  0.00    +0.000 A 
ATOM      2  C   UNL     1       6.422  -6.675  24.905  0.00  0.00    +0.000 A 
ATOM      3  C   UNL     1       6.955  -5.592  25.615  0.00  0.00    +0.000 A 
ATOM      4  C   UNL     1       7.434  -4.469  24.937  0.00  0.00    +0.000 A 
ATOM      5  C   UNL     1       7.382  -4.423  23.546  0.00  0.00    +0.000 A 
ATOM      6  C   UNL     1       6.852  -5.503  22.851  0.00  0.00    +0.000 A 
ENDROOT
BRANCH   1   8
ATOM      7  C   UNL     1       4.523  -8.011  22.911  0.00  0.00    +0.000 C 
ATOM      8  O   UNL     1       5.874  -7.621  22.693  0.00  0.00    +0.000 OA
ENDBRANCH   1   8
BRANCH   6   9
ATOM      9  O   UNL     1       6.811  -5.434  21.483  0.00  0.00    +0.000 OA
ATOM     10  H   UNL     1       7.530  -4.819  21.244  0.00  0.00    +0.000 HD
ENDBRANCH   6   9
TORSDOF 2
ENDMDL
MODEL 8
REMARK VINA RESULT:    -3.426     12.226     13.213
REMARK INTER + INTRA:          -3.764
REMARK INTER:                  -3.711
REMARK INTRA:                  -0.053
REMARK UNBOUND:                -0.037
REMARK  Name = 
REMARK  3 active torsions:
REMARK  status: ('A' for Active; 'I' for Inactive)
REMARK    1  A    between atoms: C_1  and  O_2
REMARK    2  A    between atoms: O_2  and  C_3
REMARK    3  A    between atoms: C_8  and  O_9
REMARK                            x       y       z     vdW  Elec       q    Type
REMARK                         _______ _______ _______ _____ _____    ______ ____
ROOT
ATOM      1  C   UNL     1       6.667  -5.938  23.100  0.00  0.00    +0.000 A 
ATOM      2  C   UNL     1       7.366  -5.760  24.294  0.00  0.00    +0.000 A 
ATOM      3  C   UNL     1       7.367  -6.773  25.261  0.00  0.00    +0.000 A 
ATOM      4  C   UNL     1       6.670  -7.962  25.041  0.00  0.00    +0.000 A 
ATOM      5  C   UNL     1       5.970  -8.147  23.852  0.00  0.00    +0.000 A 
ATOM      6  C   UNL     1       5.975  -7.138  22.898  0.00  0.00    +0.000 A 
ENDROOT
BRANCH   1   8
ATOM      7  C   UNL     1       5.864  -3.836  22.336  0.00  0.00    +0.000 C 
ATOM      8  O   UNL     1       6.579  -5.036  22.070  0.00  0.00    +0.000 OA
ENDBRANCH   1   8
BRANCH   6   9
ATOM      9  O   UNL     1       5.279  -7.343  21.736  0.00  0.00    +0.000 OA
ATOM     10  H   UNL     1       5.168  -6.452  21.353  0.00  0.00    +0.000 HD
ENDBRANCH   6   9
TORSDOF 2
ENDMDL
MODEL 9
REMARK VINA RESULT:    -3.419     12.487     13.256
REMARK INTER + INTRA:          -3.756
REMARK INTER:                  -3.704
REMARK INTRA:                  -0.052
REMARK UNBOUND:                -0.037
REMARK  Name = 
REMARK  3 active torsions:
REMARK  status: ('A' for Active; 'I' for Inactive)
REMARK    1  A    between atoms: C_1  and  O_2
REMARK    2  A    between atoms: O_2  and  C_3
REMARK    3  A    between atoms: C_8  and  O_9
REMARK                            x       y       z     vdW  Elec       q    Type
REMARK                         _______ _______ _______ _____ _____    ______ ____
ROOT
ATOM      1  C   UNL     1       6.501  -5.420  24.470  0.00  0.00    +0.000 A 
ATOM      2  C   UNL     1       6.384  -4.397  23.530  0.00  0.00    +0.000 A 
ATOM      3  C   UNL     1       6.225  -4.708  22.174  0.00  0.00    +0.000 A 
ATOM      4  C   UNL     1       6.183  -6.039  21.753  0.00  0.00    +0.000 A 
ATOM      5  C   UNL     1       6.300  -7.066  22.686  0.00  0.00    +0.000 A 
ATOM      6  C   UNL     1       6.458  -6.749  24.029  0.00  0.00    +0.000 A 
ENDROOT
BRANCH   1   8
ATOM      7  C   UNL     1       7.827  -4.567  26.248  0.00  0.00    +0.000 C 
ATOM      8  O   UNL     1       6.662  -5.264  25.823  0.00  0.00    +0.000 OA
ENDBRANCH   1   8
BRANCH   6   9
ATOM      9  O   UNL     1       6.570  -7.776  24.927  0.00  0.00    +0.000 OA
ATOM     10  H   UNL     1       6.691  -7.338  25.791  0.00  0.00    +0.000 HD
ENDBRANCH   6   9
TORSDOF 2
ENDMDL
