MODEL 1
REMARK VINA RESULT:    -3.619      0.000      0.000
REMARK INTER + INTRA:          -3.976
REMARK INTER:                  -3.937
REMARK INTRA:                  -0.039
REMARK UNBOUND:                -0.039
REMARK  Name = 
REMARK  3 active torsions:
REMARK  status: ('A' for Active; 'I' for Inactive)
REMARK    1  A    between atoms: C_1  and  O_2
REMARK    2  A    between atoms: O_2  and  C_3
REMARK    3  A    between atoms: C_8  and  O_9
REMARK                            x       y       z     vdW  Elec       q    Type
REMARK                         _______ _______ _______ _____ _____    ______ ____
ROOT
ATOM      1  C   UNL     1       6.540  -6.470  24.343  0.00  0.00    +0.000 A 
ATOM      2  C   UNL     1       6.305  -7.116  23.130  0.00  0.00    +0.000 A 
ATOM      3  C   UNL     1       6.182  -6.369  21.951  0.00  0.00    +0.000 A 
ATOM      4  C   UNL     1       6.292  -4.978  21.980  0.00  0.00    +0.000 A 
ATOM      5  C   UNL     1       6.528  -4.325  23.188  0.00  0.00    +0.000 A 
ATOM      6  C   UNL     1       6.648  -5.074  24.352  0.00  0.00    +0.000 A 
ENDROOT
BRANCH   1   8
ATOM      7  C   UNL     1       7.060  -8.442  25.562  0.00  0.00    +0.000 C 
ATOM      8  O   UNL     1       6.681  -7.071  25.568  0.00  0.00    +0.000 OA
ENDBRANCH   1   8
BRANCH   6   9
ATOM      9  O   UNL     1       6.880  -4.410  25.527  0.00  0.00    +0.000 OA
ATOM     10  H   UNL     1       7.584  -3.768  25.315  0.00  0.00    +0.000 HD
ENDBRANCH   6   9
TORSDOF 2
ENDMDL
MODEL 2
REMARK VINA RESULT:    -3.570      2.042      3.243
REMARK INTER + INTRA:          -3.922
REMARK INTER:                  -3.875
REMARK INTRA:                  -0.047
REMARK UNBOUND:                -0.039
REMARK  Name = 
REMARK  3 active torsions:
REMARK  status: ('A' for Active; 'I' for Inactive)
REMARK    1  A    between atoms: C_1  and  O_2
REMARK    2  A    between atoms: O_2  and  C_3
REMARK    3  A    between atoms: C_8  and  O_9
REMARK                            x       y       z     vdW  Elec       q    Type
REMARK                         _______ _______ _______ _____ _____    ______ ____
ROOT
ATOM      1  C   UNL     1       7.346  -5.655  23.695  0.00  0.00    +0.000 A 
ATOM      2  C   UNL     1       7.234  -6.422  24.853  0.00  0.00    +0.000 A 
ATOM      3  C   UNL     1       6.417  -7.559  24.864  0.00  0.00    +0.000 A 
ATOM      4  C   UNL     1       5.710  -7.933  23.719  0.00  0.00    +0.000 A 
ATOM      5  C   UNL     1       5.817  -7.172  22.558  0.00  0.00    +0.000 A 
ATOM      6  C   UNL     1       6.630  -6.046  22.557  0.00  0.00    +0.000 A 
ENDROOT
BRANCH   1   8
ATOM      7  C   UNL     1       9.441  -4.583  24.027  0.00  0.00    +0.000 C 
ATOM      8  O   UNL     1       8.105  -4.523  23.542  0.00  0.00    +0.000 OA
ENDBRANCH   1   8
BRANCH   6   9
ATOM      9  O   UNL     1       6.719  -5.314  21.403  0.00  0.00    +0.000 OA
ATOM     10  H   UNL     1       6.704  -4.383  21.697  0.00  0.00    +0.000 HD
ENDBRANCH   6   9
TORSDOF 2
ENDMDL
MODEL 3
REMARK VINA RESULT:    -3.559      1.154      2.327
REMARK INTER + INTRA:          -3.910
REMARK INTER:                  -3.857
REMARK INTRA:                  -0.053
REMARK UNBOUND:                -0.039
REMARK  Name = 
REMARK  3 active torsions:
REMARK  status: ('A' for Active; 'I' for Inactive)
REMARK    1  A    between atoms: C_1  and  O_2
REMARK    2  A    between atoms: O_2  and  C_3
REMARK    3  A    between atoms: C_8  and  O_9
REMARK                            x       y       z     vdW  Elec       q    Type
REMARK                         _______ _______ _______ _____ _____    ______ ____
ROOT
ATOM      1  C   UNL     1       6.316  -6.493  24.247  0.00  0.00    +0.000 A 
ATOM      2  C   UNL     1       6.305  -5.111  24.426  0.00  0.00    +0.000 A 
ATOM      3  C   UNL     1       6.249  -4.262  23.313  0.00  0.00    +0.000 A 
ATOM      4  C   UNL     1       6.206  -4.790  22.022  0.00  0.00    +0.000 A 
ATOM      5  C   UNL     1       6.217  -6.170  21.835  0.00  0.00    +0.000 A 
ATOM      6  C   UNL     1       6.273  -7.004  22.944  0.00  0.00    +0.000 A 
ENDROOT
BRANCH   1   8
ATOM      7  C   UNL     1       7.564  -7.484  26.010  0.00  0.00    +0.000 C 
ATOM      8  O   UNL     1       6.369  -7.439  25.239  0.00  0.00    +0.000 OA
ENDBRANCH   1   8
BRANCH   6   9
ATOM      9  O   UNL     1       6.282  -8.358  22.735  0.00  0.00    +0.000 OA
ATOM     10  H   UNL     1       7.157  -8.542  22.343  0.00  0.00    +0.000 HD
ENDBRANCH   6   9
TORSDOF 2
ENDMDL
MODEL 4
REMARK VINA RESULT:    -3.444     24.303     25.333
REMARK INTER + INTRA:          -3.785
REMARK INTER:                  -3.748
REMARK INTRA:                  -0.037
REMARK UNBOUND:                -0.039
REMARK  Name = 
REMARK  3 active torsions:
REMARK  status: ('A' for Active; 'I' for Inactive)
REMARK    1  A    between atoms: C_1  and  O_2
REMARK    2  A    between atoms: O_2  and  C_3
REMARK    3  A    between atoms: C_8  and  O_9
REMARK                            x       y       z     vdW  Elec       q    Type
REMARK                         _______ _______ _______ _____ _____    ______ ____
ROOT
ATOM      1  C   UNL     1       7.554  10.109   4.476  0.00  0.00    +0.000 A 
ATOM      2  C   UNL     1       8.496  11.101   4.742  0.00  0.00    +0.000 A 
ATOM      3  C   UNL     1       9.832  10.752   4.976  0.00  0.00    +0.000 A 
ATOM      4  C   UNL     1      10.230   9.414   4.946  0.00  0.00    +0.000 A 
ATOM      5  C   UNL     1       9.295   8.417   4.681  0.00  0.00    +0.000 A 
ATOM      6  C   UNL     1       7.972   8.772   4.450  0.00  0.00    +0.000 A 
ENDROOT
BRANCH   1   8
ATOM      7  C   UNL     1       5.760  11.650   4.248  0.00  0.00    +0.000 C 
ATOM      8  O   UNL     1       6.218  10.303   4.230  0.00  0.00    +0.000 OA
ENDBRANCH   1   8
BRANCH   6   9
ATOM      9  O   UNL     1       7.070   7.774   4.192  0.00  0.00    +0.000 OA
ATOM     10  H   UNL     1       7.373   7.020   4.732  0.00  0.00    +0.000 HD
ENDBRANCH   6   9
TORSDOF 2
ENDMDL
MODEL 5
REMARK VINA RESULT:    -3.424      2.048      2.848
REMARK INTER + INTRA:          -3.763
REMARK INTER:                  -3.716
REMARK INTRA:                  -0.047
REMARK UNBOUND:                -0.039
REMARK  Name = 
REMARK  3 active torsions:
REMARK  status: ('A' for Active; 'I' for Inactive)
REMARK    1  A    between atoms: C_1  and  O_2
REMARK    2  A    between atoms: O_2  and  C_3
REMARK    3  A    between atoms: C_8  and  O_9
REMARK                            x       y       z     vdW  Elec       q    Type
REMARK                         _______ _______ _______ _____ _____    ______ ____
ROOT
ATOM      1  C   UNL     1       6.277  -6.600  23.431  0.00  0.00    +0.000 A 
ATOM      2  C   UNL     1       6.329  -6.685  24.822  0.00  0.00    +0.000 A 
ATOM      3  C   UNL     1       6.905  -5.647  25.565  0.00  0.00    +0.000 A 
ATOM      4  C   UNL     1       7.431  -4.524  24.923  0.00  0.00    +0.000 A 
ATOM      5  C   UNL     1       7.383  -4.432  23.534  0.00  0.00    +0.000 A 
ATOM      6  C   UNL     1       6.810  -5.466  22.805  0.00  0.00    +0.000 A 
ENDROOT
BRANCH   1   8
ATOM      7  C   UNL     1       4.474  -8.067  22.935  0.00  0.00    +0.000 C 
ATOM      8  O   UNL     1       5.746  -7.536  22.581  0.00  0.00    +0.000 OA
ENDBRANCH   1   8
BRANCH   6   9
ATOM      9  O   UNL     1       6.774  -5.353  21.441  0.00  0.00    +0.000 OA
ATOM     10  H   UNL     1       6.533  -6.245  21.124  0.00  0.00    +0.000 HD
ENDBRANCH   6   9
TORSDOF 2
ENDMDL
MODEL 6
REMARK VINA RESULT:    -3.423      2.019      3.856
REMARK INTER + INTRA:          -3.763
REMARK INTER:                  -3.710
REMARK INTRA:                  -0.053
REMARK UNBOUND:                -0.039
REMARK  Name = 
REMARK  3 active torsions:
REMARK  status: ('A' for Active; 'I' for Inactive)
REMARK    1  A    between atoms: C_1  and  O_2
REMARK    2  A    between atoms: O_2  and  C_3
REMARK    3  A    between atoms: C_8  and  O_9
REMARK                            x       y       z     vdW  Elec       q    Type
REMARK                         _______ _______ _______ _____ _____    ______ ____
ROOT
ATOM      1  C   UNL     1       6.679  -5.902  23.129  0.00  0.00    +0.000 A 
ATOM      2  C   UNL     1       7.390  -5.701  24.311  0.00  0.00    +0.000 A 
ATOM      3  C   UNL     1       7.406  -6.696  25.296  0.00  0.00    +0.000 A 
ATOM      4  C   UNL     1       6.712  -7.893  25.104  0.00  0.00    +0.000 A 
ATOM      5  C   UNL     1       6.000  -8.101  23.925  0.00  0.00    +0.000 A 
ATOM      6  C   UNL     1       5.989  -7.108  22.954  0.00  0.00    +0.000 A 
ENDROOT
BRANCH   1   8
ATOM      7  C   UNL     1       5.857  -3.817  22.338  0.00  0.00    +0.000 C 
ATOM      8  O   UNL     1       6.575  -5.018  22.084  0.00  0.00    +0.000 OA
ENDBRANCH   1   8
BRANCH   6   9
ATOM      9  O   UNL     1       5.282  -7.336  21.804  0.00  0.00    +0.000 OA
ATOM     10  H   UNL     1       5.790  -6.882  21.105  0.00  0.00    +0.000 HD
ENDBRANCH   6   9
TORSDOF 2
ENDMDL
MODEL 7
REMARK VINA RESULT:    -3.416      0.957      2.464
REMARK INTER + INTRA:          -3.755
REMARK INTER:                  -3.703
REMARK INTRA:                  -0.052
REMARK UNBOUND:                -0.039
REMARK  Name = 
REMARK  3 active torsions:
REMARK  status: ('A' for Active; 'I' for Inactive)
REMARK    1  A    between atoms: C_1  and  O_2
REMARK    2  A    between atoms: O_2  and  C_3
REMARK    3  A    between atoms: C_8  and  O_9
REMARK                            x       y       z     vdW  Elec       q    Type
REMARK                         _______ _______ _______ _____ _____    ______ ____
ROOT
ATOM      1  C   UNL     1       6.489  -5.410  24.472  0.00  0.00    +0.000 A 
ATOM      2  C   UNL     1       6.362  -4.392  23.528  0.00  0.00    +0.000 A 
ATOM      3  C   UNL     1       6.207  -4.710  22.172  0.00  0.00    +0.000 A 
ATOM      4  C   UNL     1       6.179  -6.042  21.757  0.00  0.00    +0.000 A 
ATOM      5  C   UNL     1       6.305  -7.065  22.694  0.00  0.00    +0.000 A 
ATOM      6  C   UNL     1       6.459  -6.740  24.036  0.00  0.00    +0.000 A 
ENDROOT
BRANCH   1   8
ATOM      7  C   UNL     1       7.820  -4.562  26.248  0.00  0.00    +0.000 C 
ATOM      8  O   UNL     1       6.647  -5.246  25.824  0.00  0.00    +0.000 OA
ENDBRANCH   1   8
BRANCH   6   9
ATOM      9  O   UNL     1       6.581  -7.763  24.938  0.00  0.00    +0.000 OA
ATOM     10  H   UNL     1       7.110  -8.441  24.476  0.00  0.00    +0.000 HD
ENDBRANCH   6   9
TORSDOF 2
ENDMDL
MODEL 8
REMARK VINA RESULT:    -3.259     24.721     25.403
REMARK INTER + INTRA:          -3.584
REMARK INTER:                  -3.547
REMARK INTRA:                  -0.037
REMARK UNBOUND:                -0.039
REMARK  Name = 
REMARK  3 active torsions:
REMARK  status: ('A' for Active; 'I' for Inactive)
REMARK    1  A    between atoms: C_1  and  O_2
REMARK    2  A    between atoms: O_2  and  C_3
REMARK    3  A    between atoms: C_8  and  O_9
REMARK                            x       y       z     vdW  Elec       q    Type
REMARK                         _______ _______ _______ _____ _____    ______ ____
ROOT
ATOM      1  C   UNL     1       7.424  10.484   4.578  0.00  0.00    +0.000 A 
ATOM      2  C   UNL     1       7.042   9.200   4.192  0.00  0.00    +0.000 A 
ATOM      3  C   UNL     1       7.975   8.156   4.214  0.00  0.00    +0.000 A 
ATOM      4  C   UNL     1       9.290   8.391   4.620  0.00  0.00    +0.000 A 
ATOM      5  C   UNL     1       9.680   9.671   5.008  0.00  0.00    +0.000 A 
ATOM      6  C   UNL     1       8.747  10.701   4.982  0.00  0.00    +0.000 A 
ENDROOT
BRANCH   1   8
ATOM      7  C   UNL     1       5.270  11.412   4.198  0.00  0.00    +0.000 C 
ATOM      8  O   UNL     1       6.621  11.596   4.604  0.00  0.00    +0.000 OA
ENDBRANCH   1   8
BRANCH   6   9
ATOM      9  O   UNL     1       9.153  11.950   5.367  0.00  0.00    +0.000 OA
ATOM     10  H   UNL     1       8.986  11.981   6.328  0.00  0.00    +0.000 HD
ENDBRANCH   6   9
TORSDOF 2
ENDMDL
MODEL 9
REMARK VINA RESULT:    -3.224     24.736     25.262
REMARK INTER + INTRA:          -3.546
REMARK INTER:                  -3.494
REMARK INTRA:                  -0.053
REMARK UNBOUND:                -0.039
REMARK  Name = 
REMARK  3 active torsions:
REMARK  status: ('A' for Active; 'I' for Inactive)
REMARK    1  A    between atoms: C_1  and  O_2
REMARK    2  A    between atoms: O_2  and  C_3
REMARK    3  A    between atoms: C_8  and  O_9
REMARK                            x       y       z     vdW  Elec       q    Type
REMARK                         _______ _______ _______ _____ _____    ______ ____
ROOT
ATOM      1  C   UNL     1       8.647  10.693   4.943  0.00  0.00    +0.000 A 
ATOM      2  C   UNL     1       9.687   9.764   4.952  0.00  0.00    +0.000 A 
ATOM      3  C   UNL     1       9.441   8.436   4.582  0.00  0.00    +0.000 A 
ATOM      4  C   UNL     1       8.159   8.032   4.204  0.00  0.00    +0.000 A 
ATOM      5  C   UNL     1       7.115   8.955   4.192  0.00  0.00    +0.000 A 
ATOM      6  C   UNL     1       7.368  10.270   4.561  0.00  0.00    +0.000 A 
ENDROOT
BRANCH   1   8
ATOM      7  C   UNL     1       9.031  12.309   6.642  0.00  0.00    +0.000 C 
ATOM      8  O   UNL     1       8.742  12.020   5.280  0.00  0.00    +0.000 OA
ENDBRANCH   1   8
BRANCH   6   9
ATOM      9  O   UNL     1       6.327  11.158   4.541  0.00  0.00    +0.000 OA
ATOM     10  H   UNL     1       6.750  12.038   4.539  0.00  0.00    +0.000 HD
ENDBRANCH   6   9
TORSDOF 2
ENDMDL
