MODEL 1
REMARK VINA RESULT:    -5.457      0.000      0.000
REMARK INTER + INTRA:          -7.813
REMARK INTER:                  -7.370
REMARK INTRA:                  -0.443
REMARK UNBOUND:                -0.443
REMARK  Name = 
REMARK  10 active torsions:
REMARK  status: ('A' for Active; 'I' for Inactive)
REMARK    1  A    between atoms: C_1  and  C_2
REMARK    2  A    between atoms: C_5  and  N_8
REMARK    3  A    between atoms: N_8  and  C_9
REMARK    4  A    between atoms: N_8  and  C_13
REMARK    5  A    between atoms: C_9  and  C_10
REMARK    6  A    between atoms: C_10  and  C_11
REMARK    7  A    between atoms: C_10  and  O_12
REMARK    8  A    between atoms: C_13  and  C_14
REMARK    9  A    between atoms: C_14  and  C_15
REMARK   10  A    between atoms: C_14  and  O_16
REMARK                            x       y       z     vdW  Elec       q    Type
REMARK                         _______ _______ _______ _____ _____    ______ ____
ROOT
ATOM      1  N   UNL     1       7.275  -8.841 -18.479  0.00  0.00    +0.000 N 
ENDROOT
BRANCH   1   6
ATOM      2  C   UNL     1      11.377 -11.098 -21.856  0.00  0.00    +0.000 C 
ATOM      3  C   UNL     1      10.330 -10.503 -20.964  0.00  0.00    +0.000 A 
ATOM      4  C   UNL     1       9.783 -11.236 -19.917  0.00  0.00    +0.000 A 
ATOM      5  C   UNL     1       8.781 -10.684 -19.103  0.00  0.00    +0.000 A 
ATOM      6  C   UNL     1       8.261  -9.392 -19.306  0.00  0.00    +0.000 A 
ATOM      7  C   UNL     1       8.839  -8.679 -20.372  0.00  0.00    +0.000 A 
ATOM      8  C   UNL     1       9.844  -9.219 -21.192  0.00  0.00    +0.000 A 
ENDBRANCH   1   6
BRANCH   1   9
ATOM      9  C   UNL     1       5.888  -8.684 -18.978  0.00  0.00    +0.000 C 
BRANCH   9  10
ATOM     10  C   UNL     1       4.993  -9.907 -18.659  0.00  0.00    +0.000 C 
ATOM     11  C   UNL     1       3.516  -9.538 -18.742  0.00  0.00    +0.000 C 
BRANCH  10  12
ATOM     12  O   UNL     1       5.236 -10.978 -19.581  0.00  0.00    +0.000 OA
ATOM     13  H   UNL     1       5.597 -10.596 -20.398  0.00  0.00    +0.000 HD
ENDBRANCH  10  12
ENDBRANCH   9  10
ENDBRANCH   1   9
BRANCH   1  14
ATOM     14  C   UNL     1       7.633  -7.954 -17.341  0.00  0.00    +0.000 C 
BRANCH  14  15
ATOM     15  C   UNL     1       7.394  -6.460 -17.667  0.00  0.00    +0.000 C 
ATOM     16  C   UNL     1       7.005  -5.635 -16.447  0.00  0.00    +0.000 C 
BRANCH  15  17
ATOM     17  O   UNL     1       8.545  -5.859 -18.258  0.00  0.00    +0.000 OA
ATOM     18  H   UNL     1       9.097  -6.610 -18.558  0.00  0.00    +0.000 HD
ENDBRANCH  15  17
ENDBRANCH  14  15
ENDBRANCH   1  14
TORSDOF 7
ENDMDL
MODEL 2
REMARK VINA RESULT:    -5.368      1.853      3.585
REMARK INTER + INTRA:          -7.693
REMARK INTER:                  -7.215
REMARK INTRA:                  -0.478
REMARK UNBOUND:                -0.443
REMARK  Name = 
REMARK  10 active torsions:
REMARK  status: ('A' for Active; 'I' for Inactive)
REMARK    1  A    between atoms: C_1  and  C_2
REMARK    2  A    between atoms: C_5  and  N_8
REMARK    3  A    between atoms: N_8  and  C_9
REMARK    4  A    between atoms: N_8  and  C_13
REMARK    5  A    between atoms: C_9  and  C_10
REMARK    6  A    between atoms: C_10  and  C_11
REMARK    7  A    between atoms: C_10  and  O_12
REMARK    8  A    between atoms: C_13  and  C_14
REMARK    9  A    between atoms: C_14  and  C_15
REMARK   10  A    between atoms: C_14  and  O_16
REMARK                            x       y       z     vdW  Elec       q    Type
REMARK                         _______ _______ _______ _____ _____    ______ ____
ROOT
ATOM      1  N   UNL     1       7.784  -9.567 -18.585  0.00  0.00    +0.000 N 
ENDROOT
BRANCH   1   6
ATOM      2  C   UNL     1      11.925 -10.397 -22.522  0.00  0.00    +0.000 C 
ATOM      3  C   UNL     1      10.867 -10.171 -21.485  0.00  0.00    +0.000 A 
ATOM      4  C   UNL     1      10.591 -11.137 -20.524  0.00  0.00    +0.000 A 
ATOM      5  C   UNL     1       9.577 -10.932 -19.574  0.00  0.00    +0.000 A 
ATOM      6  C   UNL     1       8.780  -9.774 -19.548  0.00  0.00    +0.000 A 
ATOM      7  C   UNL     1       9.089  -8.817 -20.533  0.00  0.00    +0.000 A 
ATOM      8  C   UNL     1      10.101  -9.009 -21.488  0.00  0.00    +0.000 A 
ENDBRANCH   1   6
BRANCH   1   9
ATOM      9  C   UNL     1       7.006  -8.305 -18.579  0.00  0.00    +0.000 C 
BRANCH   9  10
ATOM     10  C   UNL     1       7.670  -7.195 -17.728  0.00  0.00    +0.000 C 
ATOM     11  C   UNL     1       7.923  -5.946 -18.563  0.00  0.00    +0.000 C 
BRANCH  10  12
ATOM     12  O   UNL     1       6.836  -6.828 -16.620  0.00  0.00    +0.000 OA
ATOM     13  H   UNL     1       5.913  -7.008 -16.865  0.00  0.00    +0.000 HD
ENDBRANCH  10  12
ENDBRANCH   9  10
ENDBRANCH   1   9
BRANCH   1  14
ATOM     14  C   UNL     1       7.805 -10.295 -17.290  0.00  0.00    +0.000 C 
BRANCH  14  15
ATOM     15  C   UNL     1       6.588 -11.238 -17.131  0.00  0.00    +0.000 C 
ATOM     16  C   UNL     1       6.293 -12.053 -18.384  0.00  0.00    +0.000 C 
BRANCH  15  17
ATOM     17  O   UNL     1       6.764 -12.146 -16.044  0.00  0.00    +0.000 OA
ATOM     18  H   UNL     1       5.906 -12.147 -15.575  0.00  0.00    +0.000 HD
ENDBRANCH  15  17
ENDBRANCH  14  15
ENDBRANCH   1  14
TORSDOF 7
ENDMDL
MODEL 3
REMARK VINA RESULT:    -5.292      3.309      5.400
REMARK INTER + INTRA:          -7.590
REMARK INTER:                  -7.120
REMARK INTRA:                  -0.470
REMARK UNBOUND:                -0.443
REMARK  Name = 
REMARK  10 active torsions:
REMARK  status: ('A' for Active; 'I' for Inactive)
REMARK    1  A    between atoms: C_1  and  C_2
REMARK    2  A    between atoms: C_5  and  N_8
REMARK    3  A    between atoms: N_8  and  C_9
REMARK    4  A    between atoms: N_8  and  C_13
REMARK    5  A    between atoms: C_9  and  C_10
REMARK    6  A    between atoms: C_10  and  C_11
REMARK    7  A    between atoms: C_10  and  O_12
REMARK    8  A    between atoms: C_13  and  C_14
REMARK    9  A    between atoms: C_14  and  C_15
REMARK   10  A    between atoms: C_14  and  O_16
REMARK                            x       y       z     vdW  Elec       q    Type
REMARK                         _______ _______ _______ _____ _____    ______ ____
ROOT
ATOM      1  N   UNL     1       9.957  -9.708 -20.903  0.00  0.00    +0.000 N 
ENDROOT
BRANCH   1   6
ATOM      2  C   UNL     1      11.925  -4.486 -22.379  0.00  0.00    +0.000 C 
ATOM      3  C   UNL     1      11.420  -5.836 -21.972  0.00  0.00    +0.000 A 
ATOM      4  C   UNL     1      12.258  -6.946 -21.986  0.00  0.00    +0.000 A 
ATOM      5  C   UNL     1      11.771  -8.215 -21.633  0.00  0.00    +0.000 A 
ATOM      6  C   UNL     1      10.431  -8.444 -21.273  0.00  0.00    +0.000 A 
ATOM      7  C   UNL     1       9.613  -7.299 -21.268  0.00  0.00    +0.000 A 
ATOM      8  C   UNL     1      10.087  -6.024 -21.617  0.00  0.00    +0.000 A 
ENDBRANCH   1   6
BRANCH   1   9
ATOM      9  C   UNL     1       8.630  -9.845 -20.256  0.00  0.00    +0.000 C 
BRANCH   9  10
ATOM     10  C   UNL     1       8.326 -11.296 -19.810  0.00  0.00    +0.000 C 
ATOM     11  C   UNL     1       7.360 -11.313 -18.631  0.00  0.00    +0.000 C 
BRANCH  10  12
ATOM     12  O   UNL     1       7.737 -12.051 -20.878  0.00  0.00    +0.000 OA
ATOM     13  H   UNL     1       7.440 -12.903 -20.517  0.00  0.00    +0.000 HD
ENDBRANCH  10  12
ENDBRANCH   9  10
ENDBRANCH   1   9
BRANCH   1  14
ATOM     14  C   UNL     1      10.890 -10.838 -20.657  0.00  0.00    +0.000 C 
BRANCH  14  15
ATOM     15  C   UNL     1      11.332 -11.527 -21.971  0.00  0.00    +0.000 C 
ATOM     16  C   UNL     1      12.680 -12.229 -21.856  0.00  0.00    +0.000 C 
BRANCH  15  17
ATOM     17  O   UNL     1      10.372 -12.484 -22.413  0.00  0.00    +0.000 OA
ATOM     18  H   UNL     1       9.504 -12.107 -22.162  0.00  0.00    +0.000 HD
ENDBRANCH  15  17
ENDBRANCH  14  15
ENDBRANCH   1  14
TORSDOF 7
ENDMDL
MODEL 4
REMARK VINA RESULT:    -5.287      1.859      2.438
REMARK INTER + INTRA:          -7.584
REMARK INTER:                  -6.878
REMARK INTRA:                  -0.706
REMARK UNBOUND:                -0.443
REMARK  Name = 
REMARK  10 active torsions:
REMARK  status: ('A' for Active; 'I' for Inactive)
REMARK    1  A    between atoms: C_1  and  C_2
REMARK    2  A    between atoms: C_5  and  N_8
REMARK    3  A    between atoms: N_8  and  C_9
REMARK    4  A    between atoms: N_8  and  C_13
REMARK    5  A    between atoms: C_9  and  C_10
REMARK    6  A    between atoms: C_10  and  C_11
REMARK    7  A    between atoms: C_10  and  O_12
REMARK    8  A    between atoms: C_13  and  C_14
REMARK    9  A    between atoms: C_14  and  C_15
REMARK   10  A    between atoms: C_14  and  O_16
REMARK                            x       y       z     vdW  Elec       q    Type
REMARK                         _______ _______ _______ _____ _____    ______ ____
ROOT
ATOM      1  N   UNL     1       7.702  -9.543 -19.233  0.00  0.00    +0.000 N 
ENDROOT
BRANCH   1   6
ATOM      2  C   UNL     1      12.595 -10.681 -22.076  0.00  0.00    +0.000 C 
ATOM      3  C   UNL     1      11.313 -10.398 -21.355  0.00  0.00    +0.000 A 
ATOM      4  C   UNL     1      10.591  -9.237 -21.611  0.00  0.00    +0.000 A 
ATOM      5  C   UNL     1       9.405  -8.963 -20.911  0.00  0.00    +0.000 A 
ATOM      6  C   UNL     1       8.896  -9.813 -19.913  0.00  0.00    +0.000 A 
ATOM      7  C   UNL     1       9.650 -10.978 -19.682  0.00  0.00    +0.000 A 
ATOM      8  C   UNL     1      10.837 -11.266 -20.377  0.00  0.00    +0.000 A 
ENDBRANCH   1   6
BRANCH   1   9
ATOM      9  C   UNL     1       6.838 -10.658 -18.776  0.00  0.00    +0.000 C 
BRANCH   9  10
ATOM     10  C   UNL     1       6.659 -10.687 -17.238  0.00  0.00    +0.000 C 
ATOM     11  C   UNL     1       6.500 -12.117 -16.735  0.00  0.00    +0.000 C 
BRANCH  10  12
ATOM     12  O   UNL     1       7.791 -10.106 -16.577  0.00  0.00    +0.000 OA
ATOM     13  H   UNL     1       7.479  -9.350 -16.053  0.00  0.00    +0.000 HD
ENDBRANCH  10  12
ENDBRANCH   9  10
ENDBRANCH   1   9
BRANCH   1  14
ATOM     14  C   UNL     1       7.009  -8.237 -19.384  0.00  0.00    +0.000 C 
BRANCH  14  15
ATOM     15  C   UNL     1       7.561  -7.167 -18.413  0.00  0.00    +0.000 C 
ATOM     16  C   UNL     1       7.301  -5.740 -18.882  0.00  0.00    +0.000 C 
BRANCH  15  17
ATOM     17  O   UNL     1       7.011  -7.309 -17.104  0.00  0.00    +0.000 OA
ATOM     18  H   UNL     1       6.162  -6.824 -17.133  0.00  0.00    +0.000 HD
ENDBRANCH  15  17
ENDBRANCH  14  15
ENDBRANCH   1  14
TORSDOF 7
ENDMDL
MODEL 5
REMARK VINA RESULT:    -5.247      3.460      4.854
REMARK INTER + INTRA:          -7.530
REMARK INTER:                  -6.966
REMARK INTRA:                  -0.564
REMARK UNBOUND:                -0.443
REMARK  Name = 
REMARK  10 active torsions:
REMARK  status: ('A' for Active; 'I' for Inactive)
REMARK    1  A    between atoms: C_1  and  C_2
REMARK    2  A    between atoms: C_5  and  N_8
REMARK    3  A    between atoms: N_8  and  C_9
REMARK    4  A    between atoms: N_8  and  C_13
REMARK    5  A    between atoms: C_9  and  C_10
REMARK    6  A    between atoms: C_10  and  C_11
REMARK    7  A    between atoms: C_10  and  O_12
REMARK    8  A    between atoms: C_13  and  C_14
REMARK    9  A    between atoms: C_14  and  C_15
REMARK   10  A    between atoms: C_14  and  O_16
REMARK                            x       y       z     vdW  Elec       q    Type
REMARK                         _______ _______ _______ _____ _____    ______ ____
ROOT
ATOM      1  N   UNL     1       7.238  -5.591 -17.496  0.00  0.00    +0.000 N 
ENDROOT
BRANCH   1   6
ATOM      2  C   UNL     1       6.103 -11.088 -18.845  0.00  0.00    +0.000 C 
ATOM      3  C   UNL     1       6.413  -9.660 -18.515  0.00  0.00    +0.000 A 
ATOM      4  C   UNL     1       7.457  -9.336 -17.656  0.00  0.00    +0.000 A 
ATOM      5  C   UNL     1       7.724  -7.997 -17.326  0.00  0.00    +0.000 A 
ATOM      6  C   UNL     1       6.954  -6.925 -17.814  0.00  0.00    +0.000 A 
ATOM      7  C   UNL     1       5.908  -7.290 -18.681  0.00  0.00    +0.000 A 
ATOM      8  C   UNL     1       5.632  -8.624 -19.021  0.00  0.00    +0.000 A 
ENDBRANCH   1   6
BRANCH   1   9
ATOM      9  C   UNL     1       8.548  -5.001 -17.864  0.00  0.00    +0.000 C 
BRANCH   9  10
ATOM     10  C   UNL     1       8.821  -5.050 -19.388  0.00  0.00    +0.000 C 
ATOM     11  C   UNL     1       8.343  -3.773 -20.068  0.00  0.00    +0.000 C 
BRANCH  10  12
ATOM     12  O   UNL     1      10.223  -5.198 -19.655  0.00  0.00    +0.000 OA
ATOM     13  H   UNL     1      10.675  -4.398 -19.340  0.00  0.00    +0.000 HD
ENDBRANCH  10  12
ENDBRANCH   9  10
ENDBRANCH   1   9
BRANCH   1  14
ATOM     14  C   UNL     1       6.529  -4.896 -16.391  0.00  0.00    +0.000 C 
BRANCH  14  15
ATOM     15  C   UNL     1       6.598  -3.356 -16.530  0.00  0.00    +0.000 C 
ATOM     16  C   UNL     1       5.499  -2.784 -17.418  0.00  0.00    +0.000 C 
BRANCH  15  17
ATOM     17  O   UNL     1       6.522  -2.708 -15.261  0.00  0.00    +0.000 OA
ATOM     18  H   UNL     1       6.074  -1.856 -15.438  0.00  0.00    +0.000 HD
ENDBRANCH  15  17
ENDBRANCH  14  15
ENDBRANCH   1  14
TORSDOF 7
ENDMDL
MODEL 6
REMARK VINA RESULT:    -5.230      3.309      4.871
REMARK INTER + INTRA:          -7.507
REMARK INTER:                  -7.039
REMARK INTRA:                  -0.468
REMARK UNBOUND:                -0.443
REMARK  Name = 
REMARK  10 active torsions:
REMARK  status: ('A' for Active; 'I' for Inactive)
REMARK    1  A    between atoms: C_1  and  C_2
REMARK    2  A    between atoms: C_5  and  N_8
REMARK    3  A    between atoms: N_8  and  C_9
REMARK    4  A    between atoms: N_8  and  C_13
REMARK    5  A    between atoms: C_9  and  C_10
REMARK    6  A    between atoms: C_10  and  C_11
REMARK    7  A    between atoms: C_10  and  O_12
REMARK    8  A    between atoms: C_13  and  C_14
REMARK    9  A    between atoms: C_14  and  C_15
REMARK   10  A    between atoms: C_14  and  O_16
REMARK                            x       y       z     vdW  Elec       q    Type
REMARK                         _______ _______ _______ _____ _____    ______ ____
ROOT
ATOM      1  N   UNL     1       6.897  -5.490 -17.493  0.00  0.00    +0.000 N 
ENDROOT
BRANCH   1   6
ATOM      2  C   UNL     1       6.629 -11.096 -18.845  0.00  0.00    +0.000 C 
ATOM      3  C   UNL     1       6.683  -9.646 -18.475  0.00  0.00    +0.000 A 
ATOM      4  C   UNL     1       5.793  -8.733 -19.030  0.00  0.00    +0.000 A 
ATOM      5  C   UNL     1       5.867  -7.370 -18.702  0.00  0.00    +0.000 A 
ATOM      6  C   UNL     1       6.840  -6.848 -17.830  0.00  0.00    +0.000 A 
ATOM      7  C   UNL     1       7.723  -7.800 -17.286  0.00  0.00    +0.000 A 
ATOM      8  C   UNL     1       7.658  -9.167 -17.604  0.00  0.00    +0.000 A 
ENDBRANCH   1   6
BRANCH   1   9
ATOM      9  C   UNL     1       6.008  -4.950 -16.436  0.00  0.00    +0.000 C 
BRANCH   9  10
ATOM     10  C   UNL     1       5.849  -3.411 -16.515  0.00  0.00    +0.000 C 
ATOM     11  C   UNL     1       4.386  -3.023 -16.689  0.00  0.00    +0.000 C 
BRANCH  10  12
ATOM     12  O   UNL     1       6.337  -2.781 -15.322  0.00  0.00    +0.000 OA
ATOM     13  H   UNL     1       6.523  -1.850 -15.528  0.00  0.00    +0.000 HD
ENDBRANCH  10  12
ENDBRANCH   9  10
ENDBRANCH   1   9
BRANCH   1  14
ATOM     14  C   UNL     1       7.412  -4.480 -18.452  0.00  0.00    +0.000 C 
BRANCH  14  15
ATOM     15  C   UNL     1       8.927  -4.219 -18.268  0.00  0.00    +0.000 C 
ATOM     16  C   UNL     1       9.369  -4.259 -16.810  0.00  0.00    +0.000 C 
BRANCH  15  17
ATOM     17  O   UNL     1       9.716  -5.159 -18.995  0.00  0.00    +0.000 OA
ATOM     18  H   UNL     1      10.198  -4.624 -19.658  0.00  0.00    +0.000 HD
ENDBRANCH  15  17
ENDBRANCH  14  15
ENDBRANCH   1  14
TORSDOF 7
ENDMDL
MODEL 7
REMARK VINA RESULT:    -5.206      2.865      5.287
REMARK INTER + INTRA:          -7.475
REMARK INTER:                  -6.768
REMARK INTRA:                  -0.707
REMARK UNBOUND:                -0.443
REMARK  Name = 
REMARK  10 active torsions:
REMARK  status: ('A' for Active; 'I' for Inactive)
REMARK    1  A    between atoms: C_1  and  C_2
REMARK    2  A    between atoms: C_5  and  N_8
REMARK    3  A    between atoms: N_8  and  C_9
REMARK    4  A    between atoms: N_8  and  C_13
REMARK    5  A    between atoms: C_9  and  C_10
REMARK    6  A    between atoms: C_10  and  C_11
REMARK    7  A    between atoms: C_10  and  O_12
REMARK    8  A    between atoms: C_13  and  C_14
REMARK    9  A    between atoms: C_14  and  C_15
REMARK   10  A    between atoms: C_14  and  O_16
REMARK                            x       y       z     vdW  Elec       q    Type
REMARK                         _______ _______ _______ _____ _____    ______ ____
ROOT
ATOM      1  N   UNL     1       9.195  -7.823 -20.870  0.00  0.00    +0.000 N 
ENDROOT
BRANCH   1   6
ATOM      2  C   UNL     1       7.192 -11.274 -16.698  0.00  0.00    +0.000 C 
ATOM      3  C   UNL     1       7.734 -10.376 -17.768  0.00  0.00    +0.000 A 
ATOM      4  C   UNL     1       7.508  -9.004 -17.731  0.00  0.00    +0.000 A 
ATOM      5  C   UNL     1       7.992  -8.171 -18.752  0.00  0.00    +0.000 A 
ATOM      6  C   UNL     1       8.699  -8.662 -19.865  0.00  0.00    +0.000 A 
ATOM      7  C   UNL     1       8.910 -10.054 -19.868  0.00  0.00    +0.000 A 
ATOM      8  C   UNL     1       8.433 -10.898 -18.852  0.00  0.00    +0.000 A 
ENDBRANCH   1   6
BRANCH   1   9
ATOM      9  C   UNL     1       8.526  -6.532 -21.158  0.00  0.00    +0.000 C 
BRANCH   9  10
ATOM     10  C   UNL     1       9.384  -5.308 -20.753  0.00  0.00    +0.000 C 
ATOM     11  C   UNL     1       8.513  -4.200 -20.172  0.00  0.00    +0.000 C 
BRANCH  10  12
ATOM     12  O   UNL     1      10.361  -5.668 -19.767  0.00  0.00    +0.000 OA
ATOM     13  H   UNL     1      10.861  -6.431 -20.103  0.00  0.00    +0.000 HD
ENDBRANCH  10  12
ENDBRANCH   9  10
ENDBRANCH   1   9
BRANCH   1  14
ATOM     14  C   UNL     1      10.021  -8.361 -21.982  0.00  0.00    +0.000 C 
BRANCH  14  15
ATOM     15  C   UNL     1      11.520  -8.449 -21.607  0.00  0.00    +0.000 C 
ATOM     16  C   UNL     1      12.313  -9.374 -22.523  0.00  0.00    +0.000 C 
BRANCH  15  17
ATOM     17  O   UNL     1      12.145  -7.167 -21.626  0.00  0.00    +0.000 OA
ATOM     18  H   UNL     1      12.381  -6.987 -20.694  0.00  0.00    +0.000 HD
ENDBRANCH  15  17
ENDBRANCH  14  15
ENDBRANCH   1  14
TORSDOF 7
ENDMDL
MODEL 8
REMARK VINA RESULT:    -4.992      2.944      4.924
REMARK INTER + INTRA:          -7.186
REMARK INTER:                  -6.755
REMARK INTRA:                  -0.431
REMARK UNBOUND:                -0.443
REMARK  Name = 
REMARK  10 active torsions:
REMARK  status: ('A' for Active; 'I' for Inactive)
REMARK    1  A    between atoms: C_1  and  C_2
REMARK    2  A    between atoms: C_5  and  N_8
REMARK    3  A    between atoms: N_8  and  C_9
REMARK    4  A    between atoms: N_8  and  C_13
REMARK    5  A    between atoms: C_9  and  C_10
REMARK    6  A    between atoms: C_10  and  C_11
REMARK    7  A    between atoms: C_10  and  O_12
REMARK    8  A    between atoms: C_13  and  C_14
REMARK    9  A    between atoms: C_14  and  C_15
REMARK   10  A    between atoms: C_14  and  O_16
REMARK                            x       y       z     vdW  Elec       q    Type
REMARK                         _______ _______ _______ _____ _____    ______ ____
ROOT
ATOM      1  N   UNL     1       8.844  -8.695 -20.522  0.00  0.00    +0.000 N 
ENDROOT
BRANCH   1   6
ATOM      2  C   UNL     1       6.528 -12.055 -16.438  0.00  0.00    +0.000 C 
ATOM      3  C   UNL     1       7.151 -11.194 -17.494  0.00  0.00    +0.000 A 
ATOM      4  C   UNL     1       7.669  -9.942 -17.181  0.00  0.00    +0.000 A 
ATOM      5  C   UNL     1       8.225  -9.126 -18.180  0.00  0.00    +0.000 A 
ATOM      6  C   UNL     1       8.270  -9.505 -19.534  0.00  0.00    +0.000 A 
ATOM      7  C   UNL     1       7.739 -10.777 -19.814  0.00  0.00    +0.000 A 
ATOM      8  C   UNL     1       7.182 -11.604 -18.824  0.00  0.00    +0.000 A 
ENDBRANCH   1   6
BRANCH   1   9
ATOM      9  C   UNL     1       9.767  -9.283 -21.522  0.00  0.00    +0.000 C 
BRANCH   9  10
ATOM     10  C   UNL     1      10.934 -10.067 -20.874  0.00  0.00    +0.000 C 
ATOM     11  C   UNL     1      10.967 -11.507 -21.372  0.00  0.00    +0.000 C 
BRANCH  10  12
ATOM     12  O   UNL     1      12.196  -9.461 -21.184  0.00  0.00    +0.000 OA
ATOM     13  H   UNL     1      12.348  -8.740 -20.550  0.00  0.00    +0.000 HD
ENDBRANCH  10  12
ENDBRANCH   9  10
ENDBRANCH   1   9
BRANCH   1  14
ATOM     14  C   UNL     1       8.986  -7.229 -20.327  0.00  0.00    +0.000 C 
BRANCH  14  15
ATOM     15  C   UNL     1      10.117  -6.631 -21.199  0.00  0.00    +0.000 C 
ATOM     16  C   UNL     1       9.656  -5.458 -22.056  0.00  0.00    +0.000 C 
BRANCH  15  17
ATOM     17  O   UNL     1      11.218  -6.192 -20.405  0.00  0.00    +0.000 OA
ATOM     18  H   UNL     1      11.980  -6.722 -20.715  0.00  0.00    +0.000 HD
ENDBRANCH  15  17
ENDBRANCH  14  15
ENDBRANCH   1  14
TORSDOF 7
ENDMDL
MODEL 9
REMARK VINA RESULT:    -4.946      3.236      4.934
REMARK INTER + INTRA:          -7.123
REMARK INTER:                  -6.733
REMARK INTRA:                  -0.391
REMARK UNBOUND:                -0.443
REMARK  Name = 
REMARK  10 active torsions:
REMARK  status: ('A' for Active; 'I' for Inactive)
REMARK    1  A    between atoms: C_1  and  C_2
REMARK    2  A    between atoms: C_5  and  N_8
REMARK    3  A    between atoms: N_8  and  C_9
REMARK    4  A    between atoms: N_8  and  C_13
REMARK    5  A    between atoms: C_9  and  C_10
REMARK    6  A    between atoms: C_10  and  C_11
REMARK    7  A    between atoms: C_10  and  O_12
REMARK    8  A    between atoms: C_13  and  C_14
REMARK    9  A    between atoms: C_14  and  C_15
REMARK   10  A    between atoms: C_14  and  O_16
REMARK                            x       y       z     vdW  Elec       q    Type
REMARK                         _______ _______ _______ _____ _____    ______ ____
ROOT
ATOM      1  N   UNL     1       6.813  -6.100 -17.677  0.00  0.00    +0.000 N 
ENDROOT
BRANCH   1   6
ATOM      2  C   UNL     1       6.587 -11.769 -18.747  0.00  0.00    +0.000 C 
ATOM      3  C   UNL     1       6.631 -10.301 -18.449  0.00  0.00    +0.000 A 
ATOM      4  C   UNL     1       5.692  -9.433 -18.994  0.00  0.00    +0.000 A 
ATOM      5  C   UNL     1       5.756  -8.054 -18.736  0.00  0.00    +0.000 A 
ATOM      6  C   UNL     1       6.766  -7.474 -17.947  0.00  0.00    +0.000 A 
ATOM      7  C   UNL     1       7.697  -8.381 -17.410  0.00  0.00    +0.000 A 
ATOM      8  C   UNL     1       7.643  -9.763 -17.659  0.00  0.00    +0.000 A 
ENDBRANCH   1   6
BRANCH   1   9
ATOM      9  C   UNL     1       7.832  -5.560 -16.746  0.00  0.00    +0.000 C 
BRANCH   9  10
ATOM     10  C   UNL     1       8.654  -4.401 -17.363  0.00  0.00    +0.000 C 
ATOM     11  C   UNL     1       9.430  -3.650 -16.288  0.00  0.00    +0.000 C 
BRANCH  10  12
ATOM     12  O   UNL     1       9.595  -4.894 -18.327  0.00  0.00    +0.000 OA
ATOM     13  H   UNL     1       9.515  -5.861 -18.359  0.00  0.00    +0.000 HD
ENDBRANCH  10  12
ENDBRANCH   9  10
ENDBRANCH   1   9
BRANCH   1  14
ATOM     14  C   UNL     1       5.616  -5.239 -17.860  0.00  0.00    +0.000 C 
BRANCH  14  15
ATOM     15  C   UNL     1       5.276  -4.432 -16.584  0.00  0.00    +0.000 C 
ATOM     16  C   UNL     1       4.775  -3.024 -16.881  0.00  0.00    +0.000 C 
BRANCH  15  17
ATOM     17  O   UNL     1       4.292  -5.092 -15.789  0.00  0.00    +0.000 OA
ATOM     18  H   UNL     1       4.464  -6.047 -15.916  0.00  0.00    +0.000 HD
ENDBRANCH  15  17
ENDBRANCH  14  15
ENDBRANCH   1  14
TORSDOF 7
ENDMDL
