MODEL 1
REMARK VINA RESULT:    -4.959      0.000      0.000
REMARK INTER + INTRA:          -5.432
REMARK INTER:                  -5.394
REMARK INTRA:                  -0.038
REMARK UNBOUND:                -0.038
REMARK  Name = 
REMARK  3 active torsions:
REMARK  status: ('A' for Active; 'I' for Inactive)
REMARK    1  A    between atoms: C_1  and  O_2
REMARK    2  A    between atoms: O_2  and  C_3
REMARK    3  A    between atoms: C_8  and  O_9
REMARK                            x       y       z     vdW  Elec       q    Type
REMARK                         _______ _______ _______ _____ _____    ______ ____
ROOT
ATOM      1  C   UNL     1       8.556 -11.613 -20.119  0.00  0.00    +0.000 A 
ATOM      2  C   UNL     1       9.115 -10.951 -19.027  0.00  0.00    +0.000 A 
ATOM      3  C   UNL     1       8.330 -10.671 -17.901  0.00  0.00    +0.000 A 
ATOM      4  C   UNL     1       6.986 -11.050 -17.864  0.00  0.00    +0.000 A 
ATOM      5  C   UNL     1       6.421 -11.712 -18.951  0.00  0.00    +0.000 A 
ATOM      6  C   UNL     1       7.207 -11.985 -20.063  0.00  0.00    +0.000 A 
ENDROOT
BRANCH   1   8
ATOM      7  C   UNL     1      10.467 -11.337 -21.504  0.00  0.00    +0.000 C 
ATOM      8  O   UNL     1       9.202 -11.950 -21.281  0.00  0.00    +0.000 OA
ENDBRANCH   1   8
BRANCH   6   9
ATOM      9  O   UNL     1       6.628 -12.637 -21.119  0.00  0.00    +0.000 OA
ATOM     10  H   UNL     1       6.729 -13.586 -20.911  0.00  0.00    +0.000 HD
ENDBRANCH   6   9
TORSDOF 2
ENDMDL
MODEL 2
REMARK VINA RESULT:    -4.428      1.667      3.181
REMARK INTER + INTRA:          -4.854
REMARK INTER:                  -4.809
REMARK INTRA:                  -0.045
REMARK UNBOUND:                -0.038
REMARK  Name = 
REMARK  3 active torsions:
REMARK  status: ('A' for Active; 'I' for Inactive)
REMARK    1  A    between atoms: C_1  and  O_2
REMARK    2  A    between atoms: O_2  and  C_3
REMARK    3  A    between atoms: C_8  and  O_9
REMARK                            x       y       z     vdW  Elec       q    Type
REMARK                         _______ _______ _______ _____ _____    ______ ____
ROOT
ATOM      1  C   UNL     1       7.821 -10.982 -18.682  0.00  0.00    +0.000 A 
ATOM      2  C   UNL     1       9.188 -10.714 -18.641  0.00  0.00    +0.000 A 
ATOM      3  C   UNL     1      10.004 -11.073 -19.721  0.00  0.00    +0.000 A 
ATOM      4  C   UNL     1       9.458 -11.700 -20.843  0.00  0.00    +0.000 A 
ATOM      5  C   UNL     1       8.093 -11.970 -20.892  0.00  0.00    +0.000 A 
ATOM      6  C   UNL     1       7.291 -11.611 -19.816  0.00  0.00    +0.000 A 
ENDROOT
BRANCH   1   8
ATOM      7  C   UNL     1       6.938 -11.509 -16.540  0.00  0.00    +0.000 C 
ATOM      8  O   UNL     1       6.907 -10.688 -17.702  0.00  0.00    +0.000 OA
ENDBRANCH   1   8
BRANCH   6   9
ATOM      9  O   UNL     1       5.952 -11.887 -19.887  0.00  0.00    +0.000 OA
ATOM     10  H   UNL     1       5.893 -12.690 -20.438  0.00  0.00    +0.000 HD
ENDBRANCH   6   9
TORSDOF 2
ENDMDL
MODEL 3
REMARK VINA RESULT:    -4.289      1.641      2.454
REMARK INTER + INTRA:          -4.703
REMARK INTER:                  -4.666
REMARK INTRA:                  -0.037
REMARK UNBOUND:                -0.038
REMARK  Name = 
REMARK  3 active torsions:
REMARK  status: ('A' for Active; 'I' for Inactive)
REMARK    1  A    between atoms: C_1  and  O_2
REMARK    2  A    between atoms: O_2  and  C_3
REMARK    3  A    between atoms: C_8  and  O_9
REMARK                            x       y       z     vdW  Elec       q    Type
REMARK                         _______ _______ _______ _____ _____    ______ ____
ROOT
ATOM      1  C   UNL     1       8.873 -11.301 -19.604  0.00  0.00    +0.000 A 
ATOM      2  C   UNL     1       8.084 -11.915 -20.575  0.00  0.00    +0.000 A 
ATOM      3  C   UNL     1       6.745 -12.219 -20.300  0.00  0.00    +0.000 A 
ATOM      4  C   UNL     1       6.191 -11.913 -19.056  0.00  0.00    +0.000 A 
ATOM      5  C   UNL     1       6.972 -11.299 -18.080  0.00  0.00    +0.000 A 
ATOM      6  C   UNL     1       8.300 -11.001 -18.362  0.00  0.00    +0.000 A 
ENDROOT
BRANCH   1   8
ATOM      7  C   UNL     1      10.809 -11.246 -20.981  0.00  0.00    +0.000 C 
ATOM      8  O   UNL     1      10.192 -10.948 -19.734  0.00  0.00    +0.000 OA
ENDBRANCH   1   8
BRANCH   6   9
ATOM      9  O   UNL     1       9.048 -10.397 -17.386  0.00  0.00    +0.000 OA
ATOM     10  H   UNL     1       8.904  -9.441 -17.519  0.00  0.00    +0.000 HD
ENDBRANCH   6   9
TORSDOF 2
ENDMDL
MODEL 4
REMARK VINA RESULT:    -4.208      1.562      3.283
REMARK INTER + INTRA:          -4.615
REMARK INTER:                  -4.572
REMARK INTRA:                  -0.043
REMARK UNBOUND:                -0.038
REMARK  Name = 
REMARK  3 active torsions:
REMARK  status: ('A' for Active; 'I' for Inactive)
REMARK    1  A    between atoms: C_1  and  O_2
REMARK    2  A    between atoms: O_2  and  C_3
REMARK    3  A    between atoms: C_8  and  O_9
REMARK                            x       y       z     vdW  Elec       q    Type
REMARK                         _______ _______ _______ _____ _____    ______ ____
ROOT
ATOM      1  C   UNL     1       6.437 -10.791 -18.726  0.00  0.00    +0.000 A 
ATOM      2  C   UNL     1       6.791 -10.123 -17.554  0.00  0.00    +0.000 A 
ATOM      3  C   UNL     1       8.138 -10.030 -17.182  0.00  0.00    +0.000 A 
ATOM      4  C   UNL     1       9.133 -10.603 -17.975  0.00  0.00    +0.000 A 
ATOM      5  C   UNL     1       8.788 -11.272 -19.148  0.00  0.00    +0.000 A 
ATOM      6  C   UNL     1       7.450 -11.359 -19.509  0.00  0.00    +0.000 A 
ENDROOT
BRANCH   1   8
ATOM      7  C   UNL     1       4.261  -9.880 -19.007  0.00  0.00    +0.000 C 
ATOM      8  O   UNL     1       5.165 -10.959 -19.211  0.00  0.00    +0.000 OA
ENDBRANCH   1   8
BRANCH   6   9
ATOM      9  O   UNL     1       7.134 -12.021 -20.666  0.00  0.00    +0.000 OA
ATOM     10  H   UNL     1       6.905 -12.926 -20.380  0.00  0.00    +0.000 HD
ENDBRANCH   6   9
TORSDOF 2
ENDMDL
MODEL 5
REMARK VINA RESULT:    -4.145     16.582     18.001
REMARK INTER + INTRA:          -4.547
REMARK INTER:                  -4.523
REMARK INTRA:                  -0.024
REMARK UNBOUND:                -0.038
REMARK  Name = 
REMARK  3 active torsions:
REMARK  status: ('A' for Active; 'I' for Inactive)
REMARK    1  A    between atoms: C_1  and  O_2
REMARK    2  A    between atoms: O_2  and  C_3
REMARK    3  A    between atoms: C_8  and  O_9
REMARK                            x       y       z     vdW  Elec       q    Type
REMARK                         _______ _______ _______ _____ _____    ______ ____
ROOT
ATOM      1  C   UNL     1      -8.030 -10.640 -11.826  0.00  0.00    +0.000 A 
ATOM      2  C   UNL     1      -8.691 -10.694 -13.052  0.00  0.00    +0.000 A 
ATOM      3  C   UNL     1      -8.228 -11.550 -14.059  0.00  0.00    +0.000 A 
ATOM      4  C   UNL     1      -7.105 -12.352 -13.846  0.00  0.00    +0.000 A 
ATOM      5  C   UNL     1      -6.440 -12.304 -12.623  0.00  0.00    +0.000 A 
ATOM      6  C   UNL     1      -6.906 -11.452 -11.630  0.00  0.00    +0.000 A 
ENDROOT
BRANCH   1   8
ATOM      7  C   UNL     1      -9.445 -10.313  -9.944  0.00  0.00    +0.000 C 
ATOM      8  O   UNL     1      -8.370  -9.853 -10.755  0.00  0.00    +0.000 OA
ENDBRANCH   1   8
BRANCH   6   9
ATOM      9  O   UNL     1      -6.235 -11.422 -10.437  0.00  0.00    +0.000 OA
ATOM     10  H   UNL     1      -5.677 -12.223 -10.446  0.00  0.00    +0.000 HD
ENDBRANCH   6   9
TORSDOF 2
ENDMDL
MODEL 6
REMARK VINA RESULT:    -4.136      2.546      3.402
REMARK INTER + INTRA:          -4.537
REMARK INTER:                  -4.503
REMARK INTRA:                  -0.034
REMARK UNBOUND:                -0.038
REMARK  Name = 
REMARK  3 active torsions:
REMARK  status: ('A' for Active; 'I' for Inactive)
REMARK    1  A    between atoms: C_1  and  O_2
REMARK    2  A    between atoms: O_2  and  C_3
REMARK    3  A    between atoms: C_8  and  O_9
REMARK                            x       y       z     vdW  Elec       q    Type
REMARK                         _______ _______ _______ _____ _____    ______ ____
ROOT
ATOM      1  C   UNL     1       7.701  -9.911 -18.390  0.00  0.00    +0.000 A 
ATOM      2  C   UNL     1       8.733 -10.315 -19.236  0.00  0.00    +0.000 A 
ATOM      3  C   UNL     1       8.537 -11.385 -20.117  0.00  0.00    +0.000 A 
ATOM      4  C   UNL     1       7.313 -12.055 -20.156  0.00  0.00    +0.000 A 
ATOM      5  C   UNL     1       6.277 -11.657 -19.315  0.00  0.00    +0.000 A 
ATOM      6  C   UNL     1       6.480 -10.595 -18.443  0.00  0.00    +0.000 A 
ENDROOT
BRANCH   1   8
ATOM      7  C   UNL     1       7.636  -7.567 -18.004  0.00  0.00    +0.000 C 
ATOM      8  O   UNL     1       7.752  -8.885 -17.481  0.00  0.00    +0.000 OA
ENDBRANCH   1   8
BRANCH   6   9
ATOM      9  O   UNL     1       5.447 -10.222 -17.626  0.00  0.00    +0.000 OA
ATOM     10  H   UNL     1       5.688  -9.330 -17.311  0.00  0.00    +0.000 HD
ENDBRANCH   6   9
TORSDOF 2
ENDMDL
MODEL 7
REMARK VINA RESULT:    -4.099      2.671      4.186
REMARK INTER + INTRA:          -4.497
REMARK INTER:                  -4.445
REMARK INTRA:                  -0.051
REMARK UNBOUND:                -0.038
REMARK  Name = 
REMARK  3 active torsions:
REMARK  status: ('A' for Active; 'I' for Inactive)
REMARK    1  A    between atoms: C_1  and  O_2
REMARK    2  A    between atoms: O_2  and  C_3
REMARK    3  A    between atoms: C_8  and  O_9
REMARK                            x       y       z     vdW  Elec       q    Type
REMARK                         _______ _______ _______ _____ _____    ______ ____
ROOT
ATOM      1  C   UNL     1       6.222 -10.497 -18.515  0.00  0.00    +0.000 A 
ATOM      2  C   UNL     1       6.446 -11.537 -19.417  0.00  0.00    +0.000 A 
ATOM      3  C   UNL     1       7.752 -11.843 -19.822  0.00  0.00    +0.000 A 
ATOM      4  C   UNL     1       8.835 -11.112 -19.330  0.00  0.00    +0.000 A 
ATOM      5  C   UNL     1       8.619 -10.073 -18.429  0.00  0.00    +0.000 A 
ATOM      6  C   UNL     1       7.321  -9.776 -18.032  0.00  0.00    +0.000 A 
ENDROOT
BRANCH   1   8
ATOM      7  C   UNL     1       4.046  -9.678 -19.002  0.00  0.00    +0.000 C 
ATOM      8  O   UNL     1       5.004 -10.089 -18.034  0.00  0.00    +0.000 OA
ENDBRANCH   1   8
BRANCH   6   9
ATOM      9  O   UNL     1       7.135  -8.749 -17.146  0.00  0.00    +0.000 OA
ATOM     10  H   UNL     1       7.543  -9.061 -16.316  0.00  0.00    +0.000 HD
ENDBRANCH   6   9
TORSDOF 2
ENDMDL
MODEL 8
REMARK VINA RESULT:    -4.058      8.396      9.272
REMARK INTER + INTRA:          -4.452
REMARK INTER:                  -4.413
REMARK INTRA:                  -0.038
REMARK UNBOUND:                -0.038
REMARK  Name = 
REMARK  3 active torsions:
REMARK  status: ('A' for Active; 'I' for Inactive)
REMARK    1  A    between atoms: C_1  and  O_2
REMARK    2  A    between atoms: O_2  and  C_3
REMARK    3  A    between atoms: C_8  and  O_9
REMARK                            x       y       z     vdW  Elec       q    Type
REMARK                         _______ _______ _______ _____ _____    ______ ____
ROOT
ATOM      1  C   UNL     1       6.564  -3.173 -17.573  0.00  0.00    +0.000 A 
ATOM      2  C   UNL     1       7.205  -3.696 -18.695  0.00  0.00    +0.000 A 
ATOM      3  C   UNL     1       8.509  -4.197 -18.586  0.00  0.00    +0.000 A 
ATOM      4  C   UNL     1       9.175  -4.175 -17.359  0.00  0.00    +0.000 A 
ATOM      5  C   UNL     1       8.541  -3.654 -16.234  0.00  0.00    +0.000 A 
ATOM      6  C   UNL     1       7.248  -3.160 -16.351  0.00  0.00    +0.000 A 
ENDROOT
BRANCH   1   8
ATOM      7  C   UNL     1       4.721  -2.284 -18.782  0.00  0.00    +0.000 C 
ATOM      8  O   UNL     1       5.296  -2.651 -17.533  0.00  0.00    +0.000 OA
ENDBRANCH   1   8
BRANCH   6   9
ATOM      9  O   UNL     1       6.645  -2.653 -15.231  0.00  0.00    +0.000 OA
ATOM     10  H   UNL     1       5.959  -3.308 -15.000  0.00  0.00    +0.000 HD
ENDBRANCH   6   9
TORSDOF 2
ENDMDL
MODEL 9
REMARK VINA RESULT:    -4.050      3.056      3.512
REMARK INTER + INTRA:          -4.443
REMARK INTER:                  -4.393
REMARK INTRA:                  -0.050
REMARK UNBOUND:                -0.038
REMARK  Name = 
REMARK  3 active torsions:
REMARK  status: ('A' for Active; 'I' for Inactive)
REMARK    1  A    between atoms: C_1  and  O_2
REMARK    2  A    between atoms: O_2  and  C_3
REMARK    3  A    between atoms: C_8  and  O_9
REMARK                            x       y       z     vdW  Elec       q    Type
REMARK                         _______ _______ _______ _____ _____    ______ ____
ROOT
ATOM      1  C   UNL     1       6.338  -8.921 -18.624  0.00  0.00    +0.000 A 
ATOM      2  C   UNL     1       7.412  -8.661 -17.773  0.00  0.00    +0.000 A 
ATOM      3  C   UNL     1       8.008  -9.708 -17.060  0.00  0.00    +0.000 A 
ATOM      4  C   UNL     1       7.534 -11.015 -17.191  0.00  0.00    +0.000 A 
ATOM      5  C   UNL     1       6.462 -11.282 -18.039  0.00  0.00    +0.000 A 
ATOM      6  C   UNL     1       5.876 -10.238 -18.743  0.00  0.00    +0.000 A 
ENDROOT
BRANCH   1   8
ATOM      7  C   UNL     1       6.444  -7.196 -20.255  0.00  0.00    +0.000 C 
ATOM      8  O   UNL     1       5.660  -7.998 -19.379  0.00  0.00    +0.000 OA
ENDBRANCH   1   8
BRANCH   6   9
ATOM      9  O   UNL     1       4.823 -10.525 -19.570  0.00  0.00    +0.000 OA
ATOM     10  H   UNL     1       4.056 -10.616 -18.973  0.00  0.00    +0.000 HD
ENDBRANCH   6   9
TORSDOF 2
ENDMDL
