MODEL 1
REMARK VINA RESULT:    -4.102      0.000      0.000
REMARK INTER + INTRA:          -4.503
REMARK INTER:                  -4.462
REMARK INTRA:                  -0.041
REMARK UNBOUND:                -0.041
REMARK  Name = 
REMARK  3 active torsions:
REMARK  status: ('A' for Active; 'I' for Inactive)
REMARK    1  A    between atoms: C_1  and  O_2
REMARK    2  A    between atoms: O_2  and  C_3
REMARK    3  A    between atoms: C_8  and  O_9
REMARK                            x       y       z     vdW  Elec       q    Type
REMARK                         _______ _______ _______ _____ _____    ______ ____
ROOT
ATOM      1  C   UNL     1      21.342   7.978   3.860  0.00  0.00    +0.000 A 
ATOM      2  C   UNL     1      20.853   9.252   3.571  0.00  0.00    +0.000 A 
ATOM      3  C   UNL     1      21.744  10.305   3.331  0.00  0.00    +0.000 A 
ATOM      4  C   UNL     1      23.123  10.091   3.378  0.00  0.00    +0.000 A 
ATOM      5  C   UNL     1      23.619   8.822   3.665  0.00  0.00    +0.000 A 
ATOM      6  C   UNL     1      22.728   7.783   3.903  0.00  0.00    +0.000 A 
ENDROOT
BRANCH   1   8
ATOM      7  C   UNL     1      19.327   7.072   4.733  0.00  0.00    +0.000 C 
ATOM      8  O   UNL     1      20.590   6.859   4.116  0.00  0.00    +0.000 OA
ENDBRANCH   1   8
BRANCH   6   9
ATOM      9  O   UNL     1      23.240   6.544   4.183  0.00  0.00    +0.000 OA
ATOM     10  H   UNL     1      22.522   5.922   3.957  0.00  0.00    +0.000 HD
ENDBRANCH   6   9
TORSDOF 2
ENDMDL
MODEL 2
REMARK VINA RESULT:    -3.904      8.931      9.715
REMARK INTER + INTRA:          -4.288
REMARK INTER:                  -4.235
REMARK INTRA:                  -0.053
REMARK UNBOUND:                -0.041
REMARK  Name = 
REMARK  3 active torsions:
REMARK  status: ('A' for Active; 'I' for Inactive)
REMARK    1  A    between atoms: C_1  and  O_2
REMARK    2  A    between atoms: O_2  and  C_3
REMARK    3  A    between atoms: C_8  and  O_9
REMARK                            x       y       z     vdW  Elec       q    Type
REMARK                         _______ _______ _______ _____ _____    ______ ____
ROOT
ATOM      1  C   UNL     1      27.699  15.831   5.284  0.00  0.00    +0.000 A 
ATOM      2  C   UNL     1      28.973  15.312   5.053  0.00  0.00    +0.000 A 
ATOM      3  C   UNL     1      29.277  14.728   3.817  0.00  0.00    +0.000 A 
ATOM      4  C   UNL     1      28.312  14.659   2.811  0.00  0.00    +0.000 A 
ATOM      5  C   UNL     1      27.037  15.175   3.033  0.00  0.00    +0.000 A 
ATOM      6  C   UNL     1      26.745  15.753   4.262  0.00  0.00    +0.000 A 
ENDROOT
BRANCH   1   8
ATOM      7  C   UNL     1      27.188  15.598   7.593  0.00  0.00    +0.000 C 
ATOM      8  O   UNL     1      27.264  16.428   6.440  0.00  0.00    +0.000 OA
ENDBRANCH   1   8
BRANCH   6   9
ATOM      9  O   UNL     1      25.485  16.253   4.458  0.00  0.00    +0.000 OA
ATOM     10  H   UNL     1      25.615  17.040   5.021  0.00  0.00    +0.000 HD
ENDBRANCH   6   9
TORSDOF 2
ENDMDL
MODEL 3
REMARK VINA RESULT:    -3.864     10.365     11.428
REMARK INTER + INTRA:          -4.244
REMARK INTER:                  -4.191
REMARK INTRA:                  -0.052
REMARK UNBOUND:                -0.041
REMARK  Name = 
REMARK  3 active torsions:
REMARK  status: ('A' for Active; 'I' for Inactive)
REMARK    1  A    between atoms: C_1  and  O_2
REMARK    2  A    between atoms: O_2  and  C_3
REMARK    3  A    between atoms: C_8  and  O_9
REMARK                            x       y       z     vdW  Elec       q    Type
REMARK                         _______ _______ _______ _____ _____    ______ ____
ROOT
ATOM      1  C   UNL     1      30.340  14.344   6.434  0.00  0.00    +0.000 A 
ATOM      2  C   UNL     1      30.073  15.441   7.252  0.00  0.00    +0.000 A 
ATOM      3  C   UNL     1      30.851  15.666   8.396  0.00  0.00    +0.000 A 
ATOM      4  C   UNL     1      31.894  14.798   8.724  0.00  0.00    +0.000 A 
ATOM      5  C   UNL     1      32.166  13.700   7.911  0.00  0.00    +0.000 A 
ATOM      6  C   UNL     1      31.390  13.485   6.779  0.00  0.00    +0.000 A 
ENDROOT
BRANCH   1   8
ATOM      7  C   UNL     1      29.814  14.878   4.178  0.00  0.00    +0.000 C 
ATOM      8  O   UNL     1      29.664  14.003   5.290  0.00  0.00    +0.000 OA
ENDBRANCH   1   8
BRANCH   6   9
ATOM      9  O   UNL     1      31.677  12.400   5.995  0.00  0.00    +0.000 OA
ATOM     10  H   UNL     1      31.654  12.741   5.081  0.00  0.00    +0.000 HD
ENDBRANCH   6   9
TORSDOF 2
ENDMDL
MODEL 4
REMARK VINA RESULT:    -3.819     10.118     11.437
REMARK INTER + INTRA:          -4.196
REMARK INTER:                  -4.156
REMARK INTRA:                  -0.039
REMARK UNBOUND:                -0.041
REMARK  Name = 
REMARK  3 active torsions:
REMARK  status: ('A' for Active; 'I' for Inactive)
REMARK    1  A    between atoms: C_1  and  O_2
REMARK    2  A    between atoms: O_2  and  C_3
REMARK    3  A    between atoms: C_8  and  O_9
REMARK                            x       y       z     vdW  Elec       q    Type
REMARK                         _______ _______ _______ _____ _____    ______ ____
ROOT
ATOM      1  C   UNL     1      29.828  14.821   7.465  0.00  0.00    +0.000 A 
ATOM      2  C   UNL     1      30.285  15.800   8.345  0.00  0.00    +0.000 A 
ATOM      3  C   UNL     1      31.653  16.094   8.417  0.00  0.00    +0.000 A 
ATOM      4  C   UNL     1      32.567  15.411   7.612  0.00  0.00    +0.000 A 
ATOM      5  C   UNL     1      32.118  14.431   6.729  0.00  0.00    +0.000 A 
ATOM      6  C   UNL     1      30.759  14.147   6.665  0.00  0.00    +0.000 A 
ENDROOT
BRANCH   1   8
ATOM      7  C   UNL     1      27.525  15.361   7.692  0.00  0.00    +0.000 C 
ATOM      8  O   UNL     1      28.525  14.431   7.290  0.00  0.00    +0.000 OA
ENDBRANCH   1   8
BRANCH   6   9
ATOM      9  O   UNL     1      30.342  13.180   5.789  0.00  0.00    +0.000 OA
ATOM     10  H   UNL     1      30.002  12.462   6.356  0.00  0.00    +0.000 HD
ENDBRANCH   6   9
TORSDOF 2
ENDMDL
MODEL 5
REMARK VINA RESULT:    -3.694      9.489     10.277
REMARK INTER + INTRA:          -4.059
REMARK INTER:                  -4.010
REMARK INTRA:                  -0.049
REMARK UNBOUND:                -0.041
REMARK  Name = 
REMARK  3 active torsions:
REMARK  status: ('A' for Active; 'I' for Inactive)
REMARK    1  A    between atoms: C_1  and  O_2
REMARK    2  A    between atoms: O_2  and  C_3
REMARK    3  A    between atoms: C_8  and  O_9
REMARK                            x       y       z     vdW  Elec       q    Type
REMARK                         _______ _______ _______ _____ _____    ______ ____
ROOT
ATOM      1  C   UNL     1      29.111  15.186   4.974  0.00  0.00    +0.000 A 
ATOM      2  C   UNL     1      28.375  16.325   5.298  0.00  0.00    +0.000 A 
ATOM      3  C   UNL     1      28.103  16.625   6.639  0.00  0.00    +0.000 A 
ATOM      4  C   UNL     1      28.563  15.788   7.658  0.00  0.00    +0.000 A 
ATOM      5  C   UNL     1      29.298  14.648   7.343  0.00  0.00    +0.000 A 
ATOM      6  C   UNL     1      29.563  14.359   6.010  0.00  0.00    +0.000 A 
ENDROOT
BRANCH   1   8
ATOM      7  C   UNL     1      28.386  14.662   2.773  0.00  0.00    +0.000 C 
ATOM      8  O   UNL     1      29.449  14.771   3.711  0.00  0.00    +0.000 OA
ENDBRANCH   1   8
BRANCH   6   9
ATOM      9  O   UNL     1      30.288  13.233   5.725  0.00  0.00    +0.000 OA
ATOM     10  H   UNL     1      30.312  13.194   4.749  0.00  0.00    +0.000 HD
ENDBRANCH   6   9
TORSDOF 2
ENDMDL
MODEL 6
REMARK VINA RESULT:    -3.687      9.993     11.504
REMARK INTER + INTRA:          -4.051
REMARK INTER:                  -3.998
REMARK INTRA:                  -0.053
REMARK UNBOUND:                -0.041
REMARK  Name = 
REMARK  3 active torsions:
REMARK  status: ('A' for Active; 'I' for Inactive)
REMARK    1  A    between atoms: C_1  and  O_2
REMARK    2  A    between atoms: O_2  and  C_3
REMARK    3  A    between atoms: C_8  and  O_9
REMARK                            x       y       z     vdW  Elec       q    Type
REMARK                         _______ _______ _______ _____ _____    ______ ____
ROOT
ATOM      1  C   UNL     1      29.826  15.630   8.056  0.00  0.00    +0.000 A 
ATOM      2  C   UNL     1      29.372  16.596   8.953  0.00  0.00    +0.000 A 
ATOM      3  C   UNL     1      27.999  16.759   9.171  0.00  0.00    +0.000 A 
ATOM      4  C   UNL     1      27.075  15.959   8.495  0.00  0.00    +0.000 A 
ATOM      5  C   UNL     1      27.520  14.991   7.597  0.00  0.00    +0.000 A 
ATOM      6  C   UNL     1      28.885  14.837   7.387  0.00  0.00    +0.000 A 
ENDROOT
BRANCH   1   8
ATOM      7  C   UNL     1      31.934  14.811   8.785  0.00  0.00    +0.000 C 
ATOM      8  O   UNL     1      31.135  15.362   7.745  0.00  0.00    +0.000 OA
ENDBRANCH   1   8
BRANCH   6   9
ATOM      9  O   UNL     1      29.298  13.879   6.501  0.00  0.00    +0.000 OA
ATOM     10  H   UNL     1      28.492  13.369   6.293  0.00  0.00    +0.000 HD
ENDBRANCH   6   9
TORSDOF 2
ENDMDL
MODEL 7
REMARK VINA RESULT:    -3.684      8.900     10.397
REMARK INTER + INTRA:          -4.048
REMARK INTER:                  -3.998
REMARK INTRA:                  -0.050
REMARK UNBOUND:                -0.041
REMARK  Name = 
REMARK  3 active torsions:
REMARK  status: ('A' for Active; 'I' for Inactive)
REMARK    1  A    between atoms: C_1  and  O_2
REMARK    2  A    between atoms: O_2  and  C_3
REMARK    3  A    between atoms: C_8  and  O_9
REMARK                            x       y       z     vdW  Elec       q    Type
REMARK                         _______ _______ _______ _____ _____    ______ ____
ROOT
ATOM      1  C   UNL     1      27.540  16.320   4.614  0.00  0.00    +0.000 A 
ATOM      2  C   UNL     1      28.514  17.263   4.291  0.00  0.00    +0.000 A 
ATOM      3  C   UNL     1      29.172  17.967   5.308  0.00  0.00    +0.000 A 
ATOM      4  C   UNL     1      28.858  17.732   6.648  0.00  0.00    +0.000 A 
ATOM      5  C   UNL     1      27.886  16.791   6.979  0.00  0.00    +0.000 A 
ATOM      6  C   UNL     1      27.239  16.098   5.964  0.00  0.00    +0.000 A 
ENDROOT
BRANCH   1   8
ATOM      7  C   UNL     1      27.567  14.811   2.779  0.00  0.00    +0.000 C 
ATOM      8  O   UNL     1      26.818  15.562   3.727  0.00  0.00    +0.000 OA
ENDBRANCH   1   8
BRANCH   6   9
ATOM      9  O   UNL     1      26.287  15.178   6.314  0.00  0.00    +0.000 OA
ATOM     10  H   UNL     1      25.526  15.376   5.736  0.00  0.00    +0.000 HD
ENDBRANCH   6   9
TORSDOF 2
ENDMDL
MODEL 8
REMARK VINA RESULT:    -3.656      9.607     10.231
REMARK INTER + INTRA:          -4.018
REMARK INTER:                  -3.967
REMARK INTRA:                  -0.051
REMARK UNBOUND:                -0.041
REMARK  Name = 
REMARK  3 active torsions:
REMARK  status: ('A' for Active; 'I' for Inactive)
REMARK    1  A    between atoms: C_1  and  O_2
REMARK    2  A    between atoms: O_2  and  C_3
REMARK    3  A    between atoms: C_8  and  O_9
REMARK                            x       y       z     vdW  Elec       q    Type
REMARK                         _______ _______ _______ _____ _____    ______ ____
ROOT
ATOM      1  C   UNL     1      28.603  15.461   4.936  0.00  0.00    +0.000 A 
ATOM      2  C   UNL     1      29.529  14.807   5.746  0.00  0.00    +0.000 A 
ATOM      3  C   UNL     1      29.254  14.610   7.105  0.00  0.00    +0.000 A 
ATOM      4  C   UNL     1      28.055  15.065   7.658  0.00  0.00    +0.000 A 
ATOM      5  C   UNL     1      27.124  15.719   6.854  0.00  0.00    +0.000 A 
ATOM      6  C   UNL     1      27.406  15.910   5.508  0.00  0.00    +0.000 A 
ENDROOT
BRANCH   1   8
ATOM      7  C   UNL     1      28.666  14.604   2.720  0.00  0.00    +0.000 C 
ATOM      8  O   UNL     1      28.739  15.723   3.596  0.00  0.00    +0.000 OA
ENDBRANCH   1   8
BRANCH   6   9
ATOM      9  O   UNL     1      26.475  16.556   4.738  0.00  0.00    +0.000 OA
ATOM     10  H   UNL     1      26.470  17.473   5.072  0.00  0.00    +0.000 HD
ENDBRANCH   6   9
TORSDOF 2
ENDMDL
MODEL 9
REMARK VINA RESULT:    -3.586      9.953     10.319
REMARK INTER + INTRA:          -3.942
REMARK INTER:                  -3.902
REMARK INTRA:                  -0.040
REMARK UNBOUND:                -0.041
REMARK  Name = 
REMARK  3 active torsions:
REMARK  status: ('A' for Active; 'I' for Inactive)
REMARK    1  A    between atoms: C_1  and  O_2
REMARK    2  A    between atoms: O_2  and  C_3
REMARK    3  A    between atoms: C_8  and  O_9
REMARK                            x       y       z     vdW  Elec       q    Type
REMARK                         _______ _______ _______ _____ _____    ______ ____
ROOT
ATOM      1  C   UNL     1      28.852  15.396   6.085  0.00  0.00    +0.000 A 
ATOM      2  C   UNL     1      28.479  16.661   5.634  0.00  0.00    +0.000 A 
ATOM      3  C   UNL     1      28.821  17.071   4.339  0.00  0.00    +0.000 A 
ATOM      4  C   UNL     1      29.536  16.222   3.493  0.00  0.00    +0.000 A 
ATOM      5  C   UNL     1      29.913  14.956   3.936  0.00  0.00    +0.000 A 
ATOM      6  C   UNL     1      29.569  14.557   5.222  0.00  0.00    +0.000 A 
ENDROOT
BRANCH   1   8
ATOM      7  C   UNL     1      27.459  15.391   8.009  0.00  0.00    +0.000 C 
ATOM      8  O   UNL     1      28.587  14.865   7.322  0.00  0.00    +0.000 OA
ENDBRANCH   1   8
BRANCH   6   9
ATOM      9  O   UNL     1      29.950  13.309   5.635  0.00  0.00    +0.000 OA
ATOM     10  H   UNL     1      29.391  12.696   5.121  0.00  0.00    +0.000 HD
ENDBRANCH   6   9
TORSDOF 2
ENDMDL
