MODEL 1
REMARK VINA RESULT:    -3.855      0.000      0.000
REMARK INTER + INTRA:          -5.634
REMARK INTER:                  -5.207
REMARK INTRA:                  -0.427
REMARK UNBOUND:                -0.427
REMARK  Name = 
REMARK  10 active torsions:
REMARK  status: ('A' for Active; 'I' for Inactive)
REMARK    1  A    between atoms: C_1  and  C_2
REMARK    2  A    between atoms: C_5  and  N_8
REMARK    3  A    between atoms: N_8  and  C_9
REMARK    4  A    between atoms: N_8  and  C_13
REMARK    5  A    between atoms: C_9  and  C_10
REMARK    6  A    between atoms: C_10  and  C_11
REMARK    7  A    between atoms: C_10  and  O_12
REMARK    8  A    between atoms: C_13  and  C_14
REMARK    9  A    between atoms: C_14  and  C_15
REMARK   10  A    between atoms: C_14  and  O_16
REMARK                            x       y       z     vdW  Elec       q    Type
REMARK                         _______ _______ _______ _____ _____    ______ ____
ROOT
ATOM      1  N   UNL     1       8.110  14.401   6.197  0.00  0.00    +0.000 N 
ENDROOT
BRANCH   1   6
ATOM      2  C   UNL     1      11.487  14.176  10.874  0.00  0.00    +0.000 C 
ATOM      3  C   UNL     1      10.611  14.260   9.662  0.00  0.00    +0.000 A 
ATOM      4  C   UNL     1       9.226  14.209   9.777  0.00  0.00    +0.000 A 
ATOM      5  C   UNL     1       8.410  14.257   8.635  0.00  0.00    +0.000 A 
ATOM      6  C   UNL     1       8.930  14.333   7.330  0.00  0.00    +0.000 A 
ATOM      7  C   UNL     1      10.334  14.384   7.252  0.00  0.00    +0.000 A 
ATOM      8  C   UNL     1      11.161  14.339   8.386  0.00  0.00    +0.000 A 
ENDBRANCH   1   6
BRANCH   1   9
ATOM      9  C   UNL     1       8.687  14.771   4.883  0.00  0.00    +0.000 C 
BRANCH   9  10
ATOM     10  C   UNL     1       8.051  13.991   3.706  0.00  0.00    +0.000 C 
ATOM     11  C   UNL     1       8.684  14.393   2.379  0.00  0.00    +0.000 C 
BRANCH  10  12
ATOM     12  O   UNL     1       8.227  12.577   3.871  0.00  0.00    +0.000 OA
ATOM     13  H   UNL     1       8.820  12.433   4.627  0.00  0.00    +0.000 HD
ENDBRANCH  10  12
ENDBRANCH   9  10
ENDBRANCH   1   9
BRANCH   1  14
ATOM     14  C   UNL     1       6.646  14.618   6.319  0.00  0.00    +0.000 C 
BRANCH  14  15
ATOM     15  C   UNL     1       5.906  13.353   6.817  0.00  0.00    +0.000 C 
ATOM     16  C   UNL     1       4.484  13.635   7.286  0.00  0.00    +0.000 C 
BRANCH  15  17
ATOM     17  O   UNL     1       5.847  12.346   5.807  0.00  0.00    +0.000 OA
ATOM     18  H   UNL     1       6.734  12.349   5.394  0.00  0.00    +0.000 HD
ENDBRANCH  15  17
ENDBRANCH  14  15
ENDBRANCH   1  14
TORSDOF 7
ENDMDL
MODEL 2
REMARK VINA RESULT:    -3.802      6.255      9.839
REMARK INTER + INTRA:          -5.563
REMARK INTER:                  -4.863
REMARK INTRA:                  -0.700
REMARK UNBOUND:                -0.427
REMARK  Name = 
REMARK  10 active torsions:
REMARK  status: ('A' for Active; 'I' for Inactive)
REMARK    1  A    between atoms: C_1  and  C_2
REMARK    2  A    between atoms: C_5  and  N_8
REMARK    3  A    between atoms: N_8  and  C_9
REMARK    4  A    between atoms: N_8  and  C_13
REMARK    5  A    between atoms: C_9  and  C_10
REMARK    6  A    between atoms: C_10  and  C_11
REMARK    7  A    between atoms: C_10  and  O_12
REMARK    8  A    between atoms: C_13  and  C_14
REMARK    9  A    between atoms: C_14  and  C_15
REMARK   10  A    between atoms: C_14  and  O_16
REMARK                            x       y       z     vdW  Elec       q    Type
REMARK                         _______ _______ _______ _____ _____    ______ ____
ROOT
ATOM      1  N   UNL     1       8.186  16.059  -1.623  0.00  0.00    +0.000 N 
ENDROOT
BRANCH   1   6
ATOM      2  C   UNL     1      12.830  18.205  -4.299  0.00  0.00    +0.000 C 
ATOM      3  C   UNL     1      11.627  17.627  -3.618  0.00  0.00    +0.000 A 
ATOM      4  C   UNL     1      10.346  17.877  -4.099  0.00  0.00    +0.000 A 
ATOM      5  C   UNL     1       9.220  17.358  -3.439  0.00  0.00    +0.000 A 
ATOM      6  C   UNL     1       9.312  16.590  -2.264  0.00  0.00    +0.000 A 
ATOM      7  C   UNL     1      10.623  16.356  -1.808  0.00  0.00    +0.000 A 
ATOM      8  C   UNL     1      11.757  16.867  -2.460  0.00  0.00    +0.000 A 
ENDBRANCH   1   6
BRANCH   1   9
ATOM      9  C   UNL     1       7.935  16.359  -0.192  0.00  0.00    +0.000 C 
BRANCH   9  10
ATOM     10  C   UNL     1       8.291  15.175   0.740  0.00  0.00    +0.000 C 
ATOM     11  C   UNL     1       9.242  15.618   1.845  0.00  0.00    +0.000 C 
BRANCH  10  12
ATOM     12  O   UNL     1       7.114  14.634   1.356  0.00  0.00    +0.000 OA
ATOM     13  H   UNL     1       7.239  14.661   2.320  0.00  0.00    +0.000 HD
ENDBRANCH  10  12
ENDBRANCH   9  10
ENDBRANCH   1   9
BRANCH   1  14
ATOM     14  C   UNL     1       7.519  14.833  -2.130  0.00  0.00    +0.000 C 
BRANCH  14  15
ATOM     15  C   UNL     1       5.977  14.969  -2.141  0.00  0.00    +0.000 C 
ATOM     16  C   UNL     1       5.349  14.568  -3.471  0.00  0.00    +0.000 C 
BRANCH  15  17
ATOM     17  O   UNL     1       5.372  14.187  -1.113  0.00  0.00    +0.000 OA
ATOM     18  H   UNL     1       4.733  13.609  -1.578  0.00  0.00    +0.000 HD
ENDBRANCH  15  17
ENDBRANCH  14  15
ENDBRANCH   1  14
TORSDOF 7
ENDMDL
MODEL 3
REMARK VINA RESULT:    -3.766      1.225      3.575
REMARK INTER + INTRA:          -5.515
REMARK INTER:                  -5.184
REMARK INTRA:                  -0.330
REMARK UNBOUND:                -0.427
REMARK  Name = 
REMARK  10 active torsions:
REMARK  status: ('A' for Active; 'I' for Inactive)
REMARK    1  A    between atoms: C_1  and  C_2
REMARK    2  A    between atoms: C_5  and  N_8
REMARK    3  A    between atoms: N_8  and  C_9
REMARK    4  A    between atoms: N_8  and  C_13
REMARK    5  A    between atoms: C_9  and  C_10
REMARK    6  A    between atoms: C_10  and  C_11
REMARK    7  A    between atoms: C_10  and  O_12
REMARK    8  A    between atoms: C_13  and  C_14
REMARK    9  A    between atoms: C_14  and  C_15
REMARK   10  A    between atoms: C_14  and  O_16
REMARK                            x       y       z     vdW  Elec       q    Type
REMARK                         _______ _______ _______ _____ _____    ______ ____
ROOT
ATOM      1  N   UNL     1       7.462  14.305   6.628  0.00  0.00    +0.000 N 
ENDROOT
BRANCH   1   6
ATOM      2  C   UNL     1      11.967  14.403  10.237  0.00  0.00    +0.000 C 
ATOM      3  C   UNL     1      10.800  14.353   9.299  0.00  0.00    +0.000 A 
ATOM      4  C   UNL     1      10.982  14.458   7.924  0.00  0.00    +0.000 A 
ATOM      5  C   UNL     1       9.882  14.441   7.052  0.00  0.00    +0.000 A 
ATOM      6  C   UNL     1       8.554  14.342   7.505  0.00  0.00    +0.000 A 
ATOM      7  C   UNL     1       8.406  14.235   8.900  0.00  0.00    +0.000 A 
ATOM      8  C   UNL     1       9.499  14.249   9.783  0.00  0.00    +0.000 A 
ENDBRANCH   1   6
BRANCH   1   9
ATOM      9  C   UNL     1       6.106  14.658   7.114  0.00  0.00    +0.000 C 
BRANCH   9  10
ATOM     10  C   UNL     1       5.223  13.415   7.382  0.00  0.00    +0.000 C 
ATOM     11  C   UNL     1       4.783  13.364   8.841  0.00  0.00    +0.000 C 
BRANCH  10  12
ATOM     12  O   UNL     1       4.045  13.434   6.563  0.00  0.00    +0.000 OA
ATOM     13  H   UNL     1       3.323  13.823   7.083  0.00  0.00    +0.000 HD
ENDBRANCH  10  12
ENDBRANCH   9  10
ENDBRANCH   1   9
BRANCH   1  14
ATOM     14  C   UNL     1       7.487  13.465   5.403  0.00  0.00    +0.000 C 
BRANCH  14  15
ATOM     15  C   UNL     1       8.083  14.220   4.190  0.00  0.00    +0.000 C 
ATOM     16  C   UNL     1       8.316  13.321   2.981  0.00  0.00    +0.000 C 
BRANCH  15  17
ATOM     17  O   UNL     1       7.248  15.303   3.781  0.00  0.00    +0.000 OA
ATOM     18  H   UNL     1       7.724  15.720   3.034  0.00  0.00    +0.000 HD
ENDBRANCH  15  17
ENDBRANCH  14  15
ENDBRANCH   1  14
TORSDOF 7
ENDMDL
MODEL 4
REMARK VINA RESULT:    -3.740      2.066      5.605
REMARK INTER + INTRA:          -5.480
REMARK INTER:                  -5.225
REMARK INTRA:                  -0.255
REMARK UNBOUND:                -0.427
REMARK  Name = 
REMARK  10 active torsions:
REMARK  status: ('A' for Active; 'I' for Inactive)
REMARK    1  A    between atoms: C_1  and  C_2
REMARK    2  A    between atoms: C_5  and  N_8
REMARK    3  A    between atoms: N_8  and  C_9
REMARK    4  A    between atoms: N_8  and  C_13
REMARK    5  A    between atoms: C_9  and  C_10
REMARK    6  A    between atoms: C_10  and  C_11
REMARK    7  A    between atoms: C_10  and  O_12
REMARK    8  A    between atoms: C_13  and  C_14
REMARK    9  A    between atoms: C_14  and  C_15
REMARK   10  A    between atoms: C_14  and  O_16
REMARK                            x       y       z     vdW  Elec       q    Type
REMARK                         _______ _______ _______ _____ _____    ______ ____
ROOT
ATOM      1  N   UNL     1       7.273  14.371   6.828  0.00  0.00    +0.000 N 
ENDROOT
BRANCH   1   6
ATOM      2  C   UNL     1       8.247  15.059   1.179  0.00  0.00    +0.000 C 
ATOM      3  C   UNL     1       8.019  14.884   2.649  0.00  0.00    +0.000 A 
ATOM      4  C   UNL     1       8.046  13.621   3.231  0.00  0.00    +0.000 A 
ATOM      5  C   UNL     1       7.801  13.459   4.605  0.00  0.00    +0.000 A 
ATOM      6  C   UNL     1       7.496  14.537   5.455  0.00  0.00    +0.000 A 
ATOM      7  C   UNL     1       7.479  15.800   4.834  0.00  0.00    +0.000 A 
ATOM      8  C   UNL     1       7.725  15.975   3.462  0.00  0.00    +0.000 A 
ENDBRANCH   1   6
BRANCH   1   9
ATOM      9  C   UNL     1       5.945  14.688   7.408  0.00  0.00    +0.000 C 
BRANCH   9  10
ATOM     10  C   UNL     1       5.065  13.431   7.614  0.00  0.00    +0.000 C 
ATOM     11  C   UNL     1       4.449  13.420   9.008  0.00  0.00    +0.000 C 
BRANCH  10  12
ATOM     12  O   UNL     1       3.998  13.388   6.657  0.00  0.00    +0.000 OA
ATOM     13  H   UNL     1       4.296  12.861   5.897  0.00  0.00    +0.000 HD
ENDBRANCH  10  12
ENDBRANCH   9  10
ENDBRANCH   1   9
BRANCH   1  14
ATOM     14  C   UNL     1       8.398  14.386   7.798  0.00  0.00    +0.000 C 
BRANCH  14  15
ATOM     15  C   UNL     1       9.764  14.602   7.104  0.00  0.00    +0.000 C 
ATOM     16  C   UNL     1      10.325  16.005   7.309  0.00  0.00    +0.000 C 
BRANCH  15  17
ATOM     17  O   UNL     1      10.740  13.666   7.558  0.00  0.00    +0.000 OA
ATOM     18  H   UNL     1      10.534  13.524   8.504  0.00  0.00    +0.000 HD
ENDBRANCH  15  17
ENDBRANCH  14  15
ENDBRANCH   1  14
TORSDOF 7
ENDMDL
MODEL 5
REMARK VINA RESULT:    -3.715      6.073      9.743
REMARK INTER + INTRA:          -5.445
REMARK INTER:                  -4.751
REMARK INTRA:                  -0.694
REMARK UNBOUND:                -0.427
REMARK  Name = 
REMARK  10 active torsions:
REMARK  status: ('A' for Active; 'I' for Inactive)
REMARK    1  A    between atoms: C_1  and  C_2
REMARK    2  A    between atoms: C_5  and  N_8
REMARK    3  A    between atoms: N_8  and  C_9
REMARK    4  A    between atoms: N_8  and  C_13
REMARK    5  A    between atoms: C_9  and  C_10
REMARK    6  A    between atoms: C_10  and  C_11
REMARK    7  A    between atoms: C_10  and  O_12
REMARK    8  A    between atoms: C_13  and  C_14
REMARK    9  A    between atoms: C_14  and  C_15
REMARK   10  A    between atoms: C_14  and  O_16
REMARK                            x       y       z     vdW  Elec       q    Type
REMARK                         _______ _______ _______ _____ _____    ______ ____
ROOT
ATOM      1  N   UNL     1       8.367  15.715  -1.533  0.00  0.00    +0.000 N 
ENDROOT
BRANCH   1   6
ATOM      2  C   UNL     1      12.547  18.396  -4.477  0.00  0.00    +0.000 C 
ATOM      3  C   UNL     1      11.459  17.721  -3.699  0.00  0.00    +0.000 A 
ATOM      4  C   UNL     1      11.754  16.955  -2.576  0.00  0.00    +0.000 A 
ATOM      5  C   UNL     1      10.733  16.300  -1.868  0.00  0.00    +0.000 A 
ATOM      6  C   UNL     1       9.382  16.355  -2.255  0.00  0.00    +0.000 A 
ATOM      7  C   UNL     1       9.121  17.139  -3.394  0.00  0.00    +0.000 A 
ATOM      8  C   UNL     1      10.132  17.801  -4.109  0.00  0.00    +0.000 A 
ENDBRANCH   1   6
BRANCH   1   9
ATOM      9  C   UNL     1       7.375  14.868  -2.238  0.00  0.00    +0.000 C 
BRANCH   9  10
ATOM     10  C   UNL     1       5.914  15.217  -1.862  0.00  0.00    +0.000 C 
ATOM     11  C   UNL     1       5.073  15.460  -3.110  0.00  0.00    +0.000 C 
BRANCH  10  12
ATOM     12  O   UNL     1       5.306  14.152  -1.117  0.00  0.00    +0.000 OA
ATOM     13  H   UNL     1       5.917  13.397  -1.118  0.00  0.00    +0.000 HD
ENDBRANCH  10  12
ENDBRANCH   9  10
ENDBRANCH   1   9
BRANCH   1  14
ATOM     14  C   UNL     1       7.925  16.226  -0.210  0.00  0.00    +0.000 C 
BRANCH  14  15
ATOM     15  C   UNL     1       8.292  15.259   0.942  0.00  0.00    +0.000 C 
ATOM     16  C   UNL     1       8.857  15.972   2.165  0.00  0.00    +0.000 C 
BRANCH  15  17
ATOM     17  O   UNL     1       7.167  14.487   1.361  0.00  0.00    +0.000 OA
ATOM     18  H   UNL     1       7.385  13.567   1.110  0.00  0.00    +0.000 HD
ENDBRANCH  15  17
ENDBRANCH  14  15
ENDBRANCH   1  14
TORSDOF 7
ENDMDL
MODEL 6
REMARK VINA RESULT:    -3.705      4.048      6.121
REMARK INTER + INTRA:          -5.431
REMARK INTER:                  -4.694
REMARK INTRA:                  -0.737
REMARK UNBOUND:                -0.427
REMARK  Name = 
REMARK  10 active torsions:
REMARK  status: ('A' for Active; 'I' for Inactive)
REMARK    1  A    between atoms: C_1  and  C_2
REMARK    2  A    between atoms: C_5  and  N_8
REMARK    3  A    between atoms: N_8  and  C_9
REMARK    4  A    between atoms: N_8  and  C_13
REMARK    5  A    between atoms: C_9  and  C_10
REMARK    6  A    between atoms: C_10  and  C_11
REMARK    7  A    between atoms: C_10  and  O_12
REMARK    8  A    between atoms: C_13  and  C_14
REMARK    9  A    between atoms: C_14  and  C_15
REMARK   10  A    between atoms: C_14  and  O_16
REMARK                            x       y       z     vdW  Elec       q    Type
REMARK                         _______ _______ _______ _____ _____    ______ ____
ROOT
ATOM      1  N   UNL     1      12.630  14.867   9.248  0.00  0.00    +0.000 N 
ENDROOT
BRANCH   1   6
ATOM      2  C   UNL     1      17.049  16.454   5.889  0.00  0.00    +0.000 C 
ATOM      3  C   UNL     1      15.887  16.055   6.746  0.00  0.00    +0.000 A 
ATOM      4  C   UNL     1      15.516  16.819   7.847  0.00  0.00    +0.000 A 
ATOM      5  C   UNL     1      14.444  16.423   8.665  0.00  0.00    +0.000 A 
ATOM      6  C   UNL     1      13.710  15.245   8.440  0.00  0.00    +0.000 A 
ATOM      7  C   UNL     1      14.112  14.498   7.317  0.00  0.00    +0.000 A 
ATOM      8  C   UNL     1      15.180  14.883   6.491  0.00  0.00    +0.000 A 
ENDBRANCH   1   6
BRANCH   1   9
ATOM      9  C   UNL     1      11.328  15.564   9.122  0.00  0.00    +0.000 C 
BRANCH   9  10
ATOM     10  C   UNL     1      10.490  15.059   7.922  0.00  0.00    +0.000 C 
ATOM     11  C   UNL     1      10.738  15.915   6.685  0.00  0.00    +0.000 C 
BRANCH  10  12
ATOM     12  O   UNL     1      10.823  13.702   7.597  0.00  0.00    +0.000 OA
ATOM     13  H   UNL     1      10.006  13.177   7.621  0.00  0.00    +0.000 HD
ENDBRANCH  10  12
ENDBRANCH   9  10
ENDBRANCH   1   9
BRANCH   1  14
ATOM     14  C   UNL     1      12.845  14.175  10.545  0.00  0.00    +0.000 C 
BRANCH  14  15
ATOM     15  C   UNL     1      12.293  12.729  10.535  0.00  0.00    +0.000 C 
ATOM     16  C   UNL     1      10.864  12.629  11.053  0.00  0.00    +0.000 C 
BRANCH  15  17
ATOM     17  O   UNL     1      12.330  12.161   9.227  0.00  0.00    +0.000 OA
ATOM     18  H   UNL     1      11.691  11.420   9.256  0.00  0.00    +0.000 HD
ENDBRANCH  15  17
ENDBRANCH  14  15
ENDBRANCH   1  14
TORSDOF 7
ENDMDL
MODEL 7
REMARK VINA RESULT:    -3.635      9.407     12.789
REMARK INTER + INTRA:          -5.338
REMARK INTER:                  -4.677
REMARK INTRA:                  -0.661
REMARK UNBOUND:                -0.427
REMARK  Name = 
REMARK  10 active torsions:
REMARK  status: ('A' for Active; 'I' for Inactive)
REMARK    1  A    between atoms: C_1  and  C_2
REMARK    2  A    between atoms: C_5  and  N_8
REMARK    3  A    between atoms: N_8  and  C_9
REMARK    4  A    between atoms: N_8  and  C_13
REMARK    5  A    between atoms: C_9  and  C_10
REMARK    6  A    between atoms: C_10  and  C_11
REMARK    7  A    between atoms: C_10  and  O_12
REMARK    8  A    between atoms: C_13  and  C_14
REMARK    9  A    between atoms: C_14  and  C_15
REMARK   10  A    between atoms: C_14  and  O_16
REMARK                            x       y       z     vdW  Elec       q    Type
REMARK                         _______ _______ _______ _____ _____    ______ ____
ROOT
ATOM      1  N   UNL     1       6.328  15.326  -3.929  0.00  0.00    +0.000 N 
ENDROOT
BRANCH   1   6
ATOM      2  C   UNL     1       6.623  16.904  -9.474  0.00  0.00    +0.000 C 
ATOM      3  C   UNL     1       6.538  16.472  -8.042  0.00  0.00    +0.000 A 
ATOM      4  C   UNL     1       5.392  16.712  -7.291  0.00  0.00    +0.000 A 
ATOM      5  C   UNL     1       5.329  16.332  -5.940  0.00  0.00    +0.000 A 
ATOM      6  C   UNL     1       6.405  15.720  -5.271  0.00  0.00    +0.000 A 
ATOM      7  C   UNL     1       7.545  15.491  -6.062  0.00  0.00    +0.000 A 
ATOM      8  C   UNL     1       7.621  15.864  -7.414  0.00  0.00    +0.000 A 
ENDBRANCH   1   6
BRANCH   1   9
ATOM      9  C   UNL     1       5.197  14.487  -3.464  0.00  0.00    +0.000 C 
BRANCH   9  10
ATOM     10  C   UNL     1       4.556  15.015  -2.157  0.00  0.00    +0.000 C 
ATOM     11  C   UNL     1       3.035  15.011  -2.256  0.00  0.00    +0.000 C 
BRANCH  10  12
ATOM     12  O   UNL     1       4.930  14.203  -1.036  0.00  0.00    +0.000 OA
ATOM     13  H   UNL     1       4.216  13.564  -0.875  0.00  0.00    +0.000 HD
ENDBRANCH  10  12
ENDBRANCH   9  10
ENDBRANCH   1   9
BRANCH   1  14
ATOM     14  C   UNL     1       7.014  16.097  -2.861  0.00  0.00    +0.000 C 
BRANCH  14  15
ATOM     15  C   UNL     1       8.245  15.347  -2.297  0.00  0.00    +0.000 C 
ATOM     16  C   UNL     1       9.406  16.273  -1.956  0.00  0.00    +0.000 C 
BRANCH  15  17
ATOM     17  O   UNL     1       7.917  14.600  -1.127  0.00  0.00    +0.000 OA
ATOM     18  H   UNL     1       6.941  14.539  -1.131  0.00  0.00    +0.000 HD
ENDBRANCH  15  17
ENDBRANCH  14  15
ENDBRANCH   1  14
TORSDOF 7
ENDMDL
MODEL 8
REMARK VINA RESULT:    -3.600      9.516     12.442
REMARK INTER + INTRA:          -5.290
REMARK INTER:                  -4.613
REMARK INTRA:                  -0.677
REMARK UNBOUND:                -0.427
REMARK  Name = 
REMARK  10 active torsions:
REMARK  status: ('A' for Active; 'I' for Inactive)
REMARK    1  A    between atoms: C_1  and  C_2
REMARK    2  A    between atoms: C_5  and  N_8
REMARK    3  A    between atoms: N_8  and  C_9
REMARK    4  A    between atoms: N_8  and  C_13
REMARK    5  A    between atoms: C_9  and  C_10
REMARK    6  A    between atoms: C_10  and  C_11
REMARK    7  A    between atoms: C_10  and  O_12
REMARK    8  A    between atoms: C_13  and  C_14
REMARK    9  A    between atoms: C_14  and  C_15
REMARK   10  A    between atoms: C_14  and  O_16
REMARK                            x       y       z     vdW  Elec       q    Type
REMARK                         _______ _______ _______ _____ _____    ______ ____
ROOT
ATOM      1  N   UNL     1       6.536  15.943  -4.072  0.00  0.00    +0.000 N 
ENDROOT
BRANCH   1   6
ATOM      2  C   UNL     1       9.315  17.039  -9.012  0.00  0.00    +0.000 C 
ATOM      3  C   UNL     1       8.574  16.767  -7.739  0.00  0.00    +0.000 A 
ATOM      4  C   UNL     1       8.701  17.616  -6.644  0.00  0.00    +0.000 A 
ATOM      5  C   UNL     1       8.027  17.340  -5.443  0.00  0.00    +0.000 A 
ATOM      6  C   UNL     1       7.220  16.202  -5.266  0.00  0.00    +0.000 A 
ATOM      7  C   UNL     1       7.114  15.367  -6.394  0.00  0.00    +0.000 A 
ATOM      8  C   UNL     1       7.780  15.633  -7.602  0.00  0.00    +0.000 A 
ENDBRANCH   1   6
BRANCH   1   9
ATOM      9  C   UNL     1       7.126  16.351  -2.774  0.00  0.00    +0.000 C 
BRANCH   9  10
ATOM     10  C   UNL     1       8.279  15.424  -2.320  0.00  0.00    +0.000 C 
ATOM     11  C   UNL     1       9.524  16.231  -1.973  0.00  0.00    +0.000 C 
BRANCH  10  12
ATOM     12  O   UNL     1       7.905  14.665  -1.162  0.00  0.00    +0.000 OA
ATOM     13  H   UNL     1       7.783  13.740  -1.434  0.00  0.00    +0.000 HD
ENDBRANCH  10  12
ENDBRANCH   9  10
ENDBRANCH   1   9
BRANCH   1  14
ATOM     14  C   UNL     1       5.525  14.858  -3.984  0.00  0.00    +0.000 C 
BRANCH  14  15
ATOM     15  C   UNL     1       4.687  14.945  -2.686  0.00  0.00    +0.000 C 
ATOM     16  C   UNL     1       3.187  14.823  -2.931  0.00  0.00    +0.000 C 
BRANCH  15  17
ATOM     17  O   UNL     1       5.064  13.938  -1.747  0.00  0.00    +0.000 OA
ATOM     18  H   UNL     1       4.710  14.248  -0.889  0.00  0.00    +0.000 HD
ENDBRANCH  15  17
ENDBRANCH  14  15
ENDBRANCH   1  14
TORSDOF 7
ENDMDL
MODEL 9
REMARK VINA RESULT:    -3.570      3.972      6.233
REMARK INTER + INTRA:          -5.250
REMARK INTER:                  -4.830
REMARK INTRA:                  -0.420
REMARK UNBOUND:                -0.427
REMARK  Name = 
REMARK  10 active torsions:
REMARK  status: ('A' for Active; 'I' for Inactive)
REMARK    1  A    between atoms: C_1  and  C_2
REMARK    2  A    between atoms: C_5  and  N_8
REMARK    3  A    between atoms: N_8  and  C_9
REMARK    4  A    between atoms: N_8  and  C_13
REMARK    5  A    between atoms: C_9  and  C_10
REMARK    6  A    between atoms: C_10  and  C_11
REMARK    7  A    between atoms: C_10  and  O_12
REMARK    8  A    between atoms: C_13  and  C_14
REMARK    9  A    between atoms: C_14  and  C_15
REMARK   10  A    between atoms: C_14  and  O_16
REMARK                            x       y       z     vdW  Elec       q    Type
REMARK                         _______ _______ _______ _____ _____    ______ ____
ROOT
ATOM      1  N   UNL     1       9.423  15.971   1.141  0.00  0.00    +0.000 N 
ENDROOT
BRANCH   1   6
ATOM      2  C   UNL     1       7.325  13.817   6.069  0.00  0.00    +0.000 C 
ATOM      3  C   UNL     1       7.893  14.374   4.800  0.00  0.00    +0.000 A 
ATOM      4  C   UNL     1       8.040  15.746   4.625  0.00  0.00    +0.000 A 
ATOM      5  C   UNL     1       8.545  16.264   3.421  0.00  0.00    +0.000 A 
ATOM      6  C   UNL     1       8.902  15.449   2.331  0.00  0.00    +0.000 A 
ATOM      7  C   UNL     1       8.741  14.067   2.545  0.00  0.00    +0.000 A 
ATOM      8  C   UNL     1       8.240  13.536   3.744  0.00  0.00    +0.000 A 
ENDBRANCH   1   6
BRANCH   1   9
ATOM      9  C   UNL     1      10.860  16.324   1.050  0.00  0.00    +0.000 C 
BRANCH   9  10
ATOM     10  C   UNL     1      11.383  16.339  -0.408  0.00  0.00    +0.000 C 
ATOM     11  C   UNL     1      12.101  17.648  -0.715  0.00  0.00    +0.000 C 
BRANCH  10  12
ATOM     12  O   UNL     1      12.304  15.263  -0.635  0.00  0.00    +0.000 OA
ATOM     13  H   UNL     1      12.052  14.524  -0.057  0.00  0.00    +0.000 HD
ENDBRANCH  10  12
ENDBRANCH   9  10
ENDBRANCH   1   9
BRANCH   1  14
ATOM     14  C   UNL     1       8.548  16.654   0.153  0.00  0.00    +0.000 C 
BRANCH  14  15
ATOM     15  C   UNL     1       7.399  15.741  -0.339  0.00  0.00    +0.000 C 
ATOM     16  C   UNL     1       6.459  16.436  -1.317  0.00  0.00    +0.000 C 
BRANCH  15  17
ATOM     17  O   UNL     1       7.896  14.561  -0.968  0.00  0.00    +0.000 OA
ATOM     18  H   UNL     1       8.195  14.853  -1.853  0.00  0.00    +0.000 HD
ENDBRANCH  15  17
ENDBRANCH  14  15
ENDBRANCH   1  14
TORSDOF 7
ENDMDL
