MODEL 1
REMARK VINA RESULT:    -3.927      0.000      0.000
REMARK INTER + INTRA:          -5.685
REMARK INTER:                  -5.305
REMARK INTRA:                  -0.380
REMARK UNBOUND:                -0.380
REMARK  Name = 
REMARK  10 active torsions:
REMARK  status: ('A' for Active; 'I' for Inactive)
REMARK    1  A    between atoms: C_1  and  C_2
REMARK    2  A    between atoms: C_5  and  N_8
REMARK    3  A    between atoms: N_8  and  C_9
REMARK    4  A    between atoms: N_8  and  C_13
REMARK    5  A    between atoms: C_9  and  C_10
REMARK    6  A    between atoms: C_10  and  C_11
REMARK    7  A    between atoms: C_10  and  O_12
REMARK    8  A    between atoms: C_13  and  C_14
REMARK    9  A    between atoms: C_14  and  C_15
REMARK   10  A    between atoms: C_14  and  O_16
REMARK                            x       y       z     vdW  Elec       q    Type
REMARK                         _______ _______ _______ _____ _____    ______ ____
ROOT
ATOM      1  N   UNL     1       8.114  14.315   6.159  0.00  0.00    +0.000 N 
ENDROOT
BRANCH   1   6
ATOM      2  C   UNL     1      11.442  14.476  10.874  0.00  0.00    +0.000 C 
ATOM      3  C   UNL     1      10.577  14.459   9.651  0.00  0.00    +0.000 A 
ATOM      4  C   UNL     1       9.195  14.344   9.755  0.00  0.00    +0.000 A 
ATOM      5  C   UNL     1       8.391  14.298   8.604  0.00  0.00    +0.000 A 
ATOM      6  C   UNL     1       8.922  14.341   7.302  0.00  0.00    +0.000 A 
ATOM      7  C   UNL     1      10.323  14.460   7.235  0.00  0.00    +0.000 A 
ATOM      8  C   UNL     1      11.138  14.509   8.378  0.00  0.00    +0.000 A 
ENDBRANCH   1   6
BRANCH   1   9
ATOM      9  C   UNL     1       8.706  14.568   4.823  0.00  0.00    +0.000 C 
BRANCH   9  10
ATOM     10  C   UNL     1       7.940  13.854   3.683  0.00  0.00    +0.000 C 
ATOM     11  C   UNL     1       8.380  14.378   2.320  0.00  0.00    +0.000 C 
BRANCH  10  12
ATOM     12  O   UNL     1       8.175  12.440   3.712  0.00  0.00    +0.000 OA
ATOM     13  H   UNL     1       7.788  12.087   4.530  0.00  0.00    +0.000 HD
ENDBRANCH  10  12
ENDBRANCH   9  10
ENDBRANCH   1   9
BRANCH   1  14
ATOM     14  C   UNL     1       6.650  14.550   6.247  0.00  0.00    +0.000 C 
BRANCH  14  15
ATOM     15  C   UNL     1       5.889  13.308   6.771  0.00  0.00    +0.000 C 
ATOM     16  C   UNL     1       4.462  13.618   7.207  0.00  0.00    +0.000 C 
BRANCH  15  17
ATOM     17  O   UNL     1       5.836  12.271   5.792  0.00  0.00    +0.000 OA
ATOM     18  H   UNL     1       6.636  12.401   5.243  0.00  0.00    +0.000 HD
ENDBRANCH  15  17
ENDBRANCH  14  15
ENDBRANCH   1  14
TORSDOF 7
ENDMDL
MODEL 2
REMARK VINA RESULT:    -3.829      6.208      9.773
REMARK INTER + INTRA:          -5.552
REMARK INTER:                  -4.861
REMARK INTRA:                  -0.691
REMARK UNBOUND:                -0.380
REMARK  Name = 
REMARK  10 active torsions:
REMARK  status: ('A' for Active; 'I' for Inactive)
REMARK    1  A    between atoms: C_1  and  C_2
REMARK    2  A    between atoms: C_5  and  N_8
REMARK    3  A    between atoms: N_8  and  C_9
REMARK    4  A    between atoms: N_8  and  C_13
REMARK    5  A    between atoms: C_9  and  C_10
REMARK    6  A    between atoms: C_10  and  C_11
REMARK    7  A    between atoms: C_10  and  O_12
REMARK    8  A    between atoms: C_13  and  C_14
REMARK    9  A    between atoms: C_14  and  C_15
REMARK   10  A    between atoms: C_14  and  O_16
REMARK                            x       y       z     vdW  Elec       q    Type
REMARK                         _______ _______ _______ _____ _____    ______ ____
ROOT
ATOM      1  N   UNL     1       8.187  16.054  -1.599  0.00  0.00    +0.000 N 
ENDROOT
BRANCH   1   6
ATOM      2  C   UNL     1      12.848  18.149  -4.285  0.00  0.00    +0.000 C 
ATOM      3  C   UNL     1      11.640  17.585  -3.602  0.00  0.00    +0.000 A 
ATOM      4  C   UNL     1      10.360  17.865  -4.068  0.00  0.00    +0.000 A 
ATOM      5  C   UNL     1       9.230  17.358  -3.406  0.00  0.00    +0.000 A 
ATOM      6  C   UNL     1       9.318  16.572  -2.243  0.00  0.00    +0.000 A 
ATOM      7  C   UNL     1      10.627  16.307  -1.802  0.00  0.00    +0.000 A 
ATOM      8  C   UNL     1      11.766  16.806  -2.455  0.00  0.00    +0.000 A 
ENDBRANCH   1   6
BRANCH   1   9
ATOM      9  C   UNL     1       7.939  16.362  -0.170  0.00  0.00    +0.000 C 
BRANCH   9  10
ATOM     10  C   UNL     1       8.309  15.188   0.769  0.00  0.00    +0.000 C 
ATOM     11  C   UNL     1       9.240  15.654   1.883  0.00  0.00    +0.000 C 
BRANCH  10  12
ATOM     12  O   UNL     1       7.138  14.625   1.377  0.00  0.00    +0.000 OA
ATOM     13  H   UNL     1       7.146  14.858   2.320  0.00  0.00    +0.000 HD
ENDBRANCH  10  12
ENDBRANCH   9  10
ENDBRANCH   1   9
BRANCH   1  14
ATOM     14  C   UNL     1       7.509  14.831  -2.101  0.00  0.00    +0.000 C 
BRANCH  14  15
ATOM     15  C   UNL     1       5.968  14.969  -2.085  0.00  0.00    +0.000 C 
ATOM     16  C   UNL     1       5.317  14.578  -3.406  0.00  0.00    +0.000 C 
BRANCH  15  17
ATOM     17  O   UNL     1       5.379  14.181  -1.052  0.00  0.00    +0.000 OA
ATOM     18  H   UNL     1       5.558  13.253  -1.308  0.00  0.00    +0.000 HD
ENDBRANCH  15  17
ENDBRANCH  14  15
ENDBRANCH   1  14
TORSDOF 7
ENDMDL
MODEL 3
REMARK VINA RESULT:    -3.769      1.240      3.358
REMARK INTER + INTRA:          -5.472
REMARK INTER:                  -5.145
REMARK INTRA:                  -0.327
REMARK UNBOUND:                -0.380
REMARK  Name = 
REMARK  10 active torsions:
REMARK  status: ('A' for Active; 'I' for Inactive)
REMARK    1  A    between atoms: C_1  and  C_2
REMARK    2  A    between atoms: C_5  and  N_8
REMARK    3  A    between atoms: N_8  and  C_9
REMARK    4  A    between atoms: N_8  and  C_13
REMARK    5  A    between atoms: C_9  and  C_10
REMARK    6  A    between atoms: C_10  and  C_11
REMARK    7  A    between atoms: C_10  and  O_12
REMARK    8  A    between atoms: C_13  and  C_14
REMARK    9  A    between atoms: C_14  and  C_15
REMARK   10  A    between atoms: C_14  and  O_16
REMARK                            x       y       z     vdW  Elec       q    Type
REMARK                         _______ _______ _______ _____ _____    ______ ____
ROOT
ATOM      1  N   UNL     1       7.492  14.257   6.599  0.00  0.00    +0.000 N 
ENDROOT
BRANCH   1   6
ATOM      2  C   UNL     1      11.946  14.429  10.268  0.00  0.00    +0.000 C 
ATOM      3  C   UNL     1      10.789  14.409   9.317  0.00  0.00    +0.000 A 
ATOM      4  C   UNL     1       9.485  14.267   9.781  0.00  0.00    +0.000 A 
ATOM      5  C   UNL     1       8.407  14.219   8.882  0.00  0.00    +0.000 A 
ATOM      6  C   UNL     1       8.574  14.286   7.487  0.00  0.00    +0.000 A 
ATOM      7  C   UNL     1       9.905  14.431   7.054  0.00  0.00    +0.000 A 
ATOM      8  C   UNL     1      10.993  14.483   7.942  0.00  0.00    +0.000 A 
ENDBRANCH   1   6
BRANCH   1   9
ATOM      9  C   UNL     1       6.135  14.625   7.068  0.00  0.00    +0.000 C 
BRANCH   9  10
ATOM     10  C   UNL     1       5.250  13.390   7.372  0.00  0.00    +0.000 C 
ATOM     11  C   UNL     1       4.816  13.378   8.832  0.00  0.00    +0.000 C 
BRANCH  10  12
ATOM     12  O   UNL     1       4.070  13.390   6.557  0.00  0.00    +0.000 OA
ATOM     13  H   UNL     1       4.240  13.948   5.780  0.00  0.00    +0.000 HD
ENDBRANCH  10  12
ENDBRANCH   9  10
ENDBRANCH   1   9
BRANCH   1  14
ATOM     14  C   UNL     1       7.524  13.413   5.377  0.00  0.00    +0.000 C 
BRANCH  14  15
ATOM     15  C   UNL     1       8.119  14.165   4.162  0.00  0.00    +0.000 C 
ATOM     16  C   UNL     1       8.268  13.285   2.926  0.00  0.00    +0.000 C 
BRANCH  15  17
ATOM     17  O   UNL     1       7.330  15.299   3.805  0.00  0.00    +0.000 OA
ATOM     18  H   UNL     1       6.429  15.091   4.125  0.00  0.00    +0.000 HD
ENDBRANCH  15  17
ENDBRANCH  14  15
ENDBRANCH   1  14
TORSDOF 7
ENDMDL
MODEL 4
REMARK VINA RESULT:    -3.741      6.116      9.785
REMARK INTER + INTRA:          -5.434
REMARK INTER:                  -4.742
REMARK INTRA:                  -0.692
REMARK UNBOUND:                -0.380
REMARK  Name = 
REMARK  10 active torsions:
REMARK  status: ('A' for Active; 'I' for Inactive)
REMARK    1  A    between atoms: C_1  and  C_2
REMARK    2  A    between atoms: C_5  and  N_8
REMARK    3  A    between atoms: N_8  and  C_9
REMARK    4  A    between atoms: N_8  and  C_13
REMARK    5  A    between atoms: C_9  and  C_10
REMARK    6  A    between atoms: C_10  and  C_11
REMARK    7  A    between atoms: C_10  and  O_12
REMARK    8  A    between atoms: C_13  and  C_14
REMARK    9  A    between atoms: C_14  and  C_15
REMARK   10  A    between atoms: C_14  and  O_16
REMARK                            x       y       z     vdW  Elec       q    Type
REMARK                         _______ _______ _______ _____ _____    ______ ____
ROOT
ATOM      1  N   UNL     1       8.364  15.701  -1.596  0.00  0.00    +0.000 N 
ENDROOT
BRANCH   1   6
ATOM      2  C   UNL     1      12.396  18.510  -4.628  0.00  0.00    +0.000 C 
ATOM      3  C   UNL     1      11.346  17.801  -3.827  0.00  0.00    +0.000 A 
ATOM      4  C   UNL     1      11.690  17.036  -2.718  0.00  0.00    +0.000 A 
ATOM      5  C   UNL     1      10.705  16.349  -1.988  0.00  0.00    +0.000 A 
ATOM      6  C   UNL     1       9.343  16.372  -2.339  0.00  0.00    +0.000 A 
ATOM      7  C   UNL     1       9.032  17.158  -3.465  0.00  0.00    +0.000 A 
ATOM      8  C   UNL     1      10.007  17.851  -4.201  0.00  0.00    +0.000 A 
ENDBRANCH   1   6
BRANCH   1   9
ATOM      9  C   UNL     1       7.434  14.762  -2.268  0.00  0.00    +0.000 C 
BRANCH   9  10
ATOM     10  C   UNL     1       5.946  15.119  -2.032  0.00  0.00    +0.000 C 
ATOM     11  C   UNL     1       5.177  15.146  -3.347  0.00  0.00    +0.000 C 
BRANCH  10  12
ATOM     12  O   UNL     1       5.318  14.161  -1.169  0.00  0.00    +0.000 OA
ATOM     13  H   UNL     1       6.012  13.599  -0.787  0.00  0.00    +0.000 HD
ENDBRANCH  10  12
ENDBRANCH   9  10
ENDBRANCH   1   9
BRANCH   1  14
ATOM     14  C   UNL     1       7.878  16.241  -0.300  0.00  0.00    +0.000 C 
BRANCH  14  15
ATOM     15  C   UNL     1       8.242  15.320   0.889  0.00  0.00    +0.000 C 
ATOM     16  C   UNL     1       8.737  16.086   2.110  0.00  0.00    +0.000 C 
BRANCH  15  17
ATOM     17  O   UNL     1       7.133  14.517   1.292  0.00  0.00    +0.000 OA
ATOM     18  H   UNL     1       7.531  13.750   1.752  0.00  0.00    +0.000 HD
ENDBRANCH  15  17
ENDBRANCH  14  15
ENDBRANCH   1  14
TORSDOF 7
ENDMDL
MODEL 5
REMARK VINA RESULT:    -3.725      2.015      5.554
REMARK INTER + INTRA:          -5.412
REMARK INTER:                  -5.098
REMARK INTRA:                  -0.314
REMARK UNBOUND:                -0.380
REMARK  Name = 
REMARK  10 active torsions:
REMARK  status: ('A' for Active; 'I' for Inactive)
REMARK    1  A    between atoms: C_1  and  C_2
REMARK    2  A    between atoms: C_5  and  N_8
REMARK    3  A    between atoms: N_8  and  C_9
REMARK    4  A    between atoms: N_8  and  C_13
REMARK    5  A    between atoms: C_9  and  C_10
REMARK    6  A    between atoms: C_10  and  C_11
REMARK    7  A    between atoms: C_10  and  O_12
REMARK    8  A    between atoms: C_13  and  C_14
REMARK    9  A    between atoms: C_14  and  C_15
REMARK   10  A    between atoms: C_14  and  O_16
REMARK                            x       y       z     vdW  Elec       q    Type
REMARK                         _______ _______ _______ _____ _____    ______ ____
ROOT
ATOM      1  N   UNL     1       7.366  14.390   6.901  0.00  0.00    +0.000 N 
ENDROOT
BRANCH   1   6
ATOM      2  C   UNL     1       8.242  14.982   1.226  0.00  0.00    +0.000 C 
ATOM      3  C   UNL     1       7.990  14.826   2.694  0.00  0.00    +0.000 A 
ATOM      4  C   UNL     1       7.780  15.936   3.505  0.00  0.00    +0.000 A 
ATOM      5  C   UNL     1       7.574  15.786   4.886  0.00  0.00    +0.000 A 
ATOM      6  C   UNL     1       7.591  14.534   5.526  0.00  0.00    +0.000 A 
ATOM      7  C   UNL     1       7.804  13.433   4.676  0.00  0.00    +0.000 A 
ATOM      8  C   UNL     1       8.009  13.570   3.293  0.00  0.00    +0.000 A 
ENDBRANCH   1   6
BRANCH   1   9
ATOM      9  C   UNL     1       6.055  14.766   7.483  0.00  0.00    +0.000 C 
BRANCH   9  10
ATOM     10  C   UNL     1       5.118  13.551   7.686  0.00  0.00    +0.000 C 
ATOM     11  C   UNL     1       4.201  13.764   8.885  0.00  0.00    +0.000 C 
BRANCH  10  12
ATOM     12  O   UNL     1       4.295  13.336   6.531  0.00  0.00    +0.000 OA
ATOM     13  H   UNL     1       4.508  14.024   5.878  0.00  0.00    +0.000 HD
ENDBRANCH  10  12
ENDBRANCH   9  10
ENDBRANCH   1   9
BRANCH   1  14
ATOM     14  C   UNL     1       8.494  14.366   7.867  0.00  0.00    +0.000 C 
BRANCH  14  15
ATOM     15  C   UNL     1       9.862  14.578   7.173  0.00  0.00    +0.000 C 
ATOM     16  C   UNL     1      10.448  15.964   7.414  0.00  0.00    +0.000 C 
BRANCH  15  17
ATOM     17  O   UNL     1      10.823  13.612   7.596  0.00  0.00    +0.000 OA
ATOM     18  H   UNL     1      10.347  12.758   7.579  0.00  0.00    +0.000 HD
ENDBRANCH  15  17
ENDBRANCH  14  15
ENDBRANCH   1  14
TORSDOF 7
ENDMDL
MODEL 6
REMARK VINA RESULT:    -3.665      9.363     12.778
REMARK INTER + INTRA:          -5.331
REMARK INTER:                  -4.650
REMARK INTRA:                  -0.681
REMARK UNBOUND:                -0.380
REMARK  Name = 
REMARK  10 active torsions:
REMARK  status: ('A' for Active; 'I' for Inactive)
REMARK    1  A    between atoms: C_1  and  C_2
REMARK    2  A    between atoms: C_5  and  N_8
REMARK    3  A    between atoms: N_8  and  C_9
REMARK    4  A    between atoms: N_8  and  C_13
REMARK    5  A    between atoms: C_9  and  C_10
REMARK    6  A    between atoms: C_10  and  C_11
REMARK    7  A    between atoms: C_10  and  O_12
REMARK    8  A    between atoms: C_13  and  C_14
REMARK    9  A    between atoms: C_14  and  C_15
REMARK   10  A    between atoms: C_14  and  O_16
REMARK                            x       y       z     vdW  Elec       q    Type
REMARK                         _______ _______ _______ _____ _____    ______ ____
ROOT
ATOM      1  N   UNL     1       6.311  15.345  -3.921  0.00  0.00    +0.000 N 
ENDROOT
BRANCH   1   6
ATOM      2  C   UNL     1       6.466  17.171  -9.396  0.00  0.00    +0.000 C 
ATOM      3  C   UNL     1       6.433  16.720  -7.968  0.00  0.00    +0.000 A 
ATOM      4  C   UNL     1       7.538  16.104  -7.388  0.00  0.00    +0.000 A 
ATOM      5  C   UNL     1       7.491  15.656  -6.058  0.00  0.00    +0.000 A 
ATOM      6  C   UNL     1       6.344  15.777  -5.253  0.00  0.00    +0.000 A 
ATOM      7  C   UNL     1       5.247  16.405  -5.871  0.00  0.00    +0.000 A 
ATOM      8  C   UNL     1       5.281  16.860  -7.200  0.00  0.00    +0.000 A 
ENDBRANCH   1   6
BRANCH   1   9
ATOM      9  C   UNL     1       5.220  14.457  -3.454  0.00  0.00    +0.000 C 
BRANCH   9  10
ATOM     10  C   UNL     1       4.528  14.979  -2.172  0.00  0.00    +0.000 C 
ATOM     11  C   UNL     1       3.011  14.963  -2.325  0.00  0.00    +0.000 C 
BRANCH  10  12
ATOM     12  O   UNL     1       4.868  14.171  -1.037  0.00  0.00    +0.000 OA
ATOM     13  H   UNL     1       5.833  14.192  -0.931  0.00  0.00    +0.000 HD
ENDBRANCH  10  12
ENDBRANCH   9  10
ENDBRANCH   1   9
BRANCH   1  14
ATOM     14  C   UNL     1       6.995  16.110  -2.848  0.00  0.00    +0.000 C 
BRANCH  14  15
ATOM     15  C   UNL     1       8.207  15.344  -2.265  0.00  0.00    +0.000 C 
ATOM     16  C   UNL     1       9.394  16.247  -1.953  0.00  0.00    +0.000 C 
BRANCH  15  17
ATOM     17  O   UNL     1       7.862  14.640  -1.073  0.00  0.00    +0.000 OA
ATOM     18  H   UNL     1       8.458  15.000  -0.386  0.00  0.00    +0.000 HD
ENDBRANCH  15  17
ENDBRANCH  14  15
ENDBRANCH   1  14
TORSDOF 7
ENDMDL
MODEL 7
REMARK VINA RESULT:    -3.649      2.052      5.052
REMARK INTER + INTRA:          -5.309
REMARK INTER:                  -4.884
REMARK INTRA:                  -0.426
REMARK UNBOUND:                -0.380
REMARK  Name = 
REMARK  10 active torsions:
REMARK  status: ('A' for Active; 'I' for Inactive)
REMARK    1  A    between atoms: C_1  and  C_2
REMARK    2  A    between atoms: C_5  and  N_8
REMARK    3  A    between atoms: N_8  and  C_9
REMARK    4  A    between atoms: N_8  and  C_13
REMARK    5  A    between atoms: C_9  and  C_10
REMARK    6  A    between atoms: C_10  and  C_11
REMARK    7  A    between atoms: C_10  and  O_12
REMARK    8  A    between atoms: C_13  and  C_14
REMARK    9  A    between atoms: C_14  and  C_15
REMARK   10  A    between atoms: C_14  and  O_16
REMARK                            x       y       z     vdW  Elec       q    Type
REMARK                         _______ _______ _______ _____ _____    ______ ____
ROOT
ATOM      1  N   UNL     1       7.408  14.828   6.344  0.00  0.00    +0.000 N 
ENDROOT
BRANCH   1   6
ATOM      2  C   UNL     1       8.151  15.245   0.635  0.00  0.00    +0.000 C 
ATOM      3  C   UNL     1       7.934  15.131   2.112  0.00  0.00    +0.000 A 
ATOM      4  C   UNL     1       7.596  16.246   2.873  0.00  0.00    +0.000 A 
ATOM      5  C   UNL     1       7.423  16.139   4.262  0.00  0.00    +0.000 A 
ATOM      6  C   UNL     1       7.601  14.931   4.961  0.00  0.00    +0.000 A 
ATOM      7  C   UNL     1       7.941  13.825   4.160  0.00  0.00    +0.000 A 
ATOM      8  C   UNL     1       8.115  13.918   2.770  0.00  0.00    +0.000 A 
ENDBRANCH   1   6
BRANCH   1   9
ATOM      9  C   UNL     1       8.413  14.134   7.185  0.00  0.00    +0.000 C 
BRANCH   9  10
ATOM     10  C   UNL     1       9.848  14.678   6.979  0.00  0.00    +0.000 C 
ATOM     11  C   UNL     1      10.024  16.026   7.667  0.00  0.00    +0.000 C 
BRANCH  10  12
ATOM     12  O   UNL     1      10.823  13.774   7.516  0.00  0.00    +0.000 OA
ATOM     13  H   UNL     1      11.623  14.284   7.726  0.00  0.00    +0.000 HD
ENDBRANCH  10  12
ENDBRANCH   9  10
ENDBRANCH   1   9
BRANCH   1  14
ATOM     14  C   UNL     1       6.051  14.918   6.940  0.00  0.00    +0.000 C 
BRANCH  14  15
ATOM     15  C   UNL     1       5.444  13.524   7.226  0.00  0.00    +0.000 C 
ATOM     16  C   UNL     1       5.067  13.322   8.689  0.00  0.00    +0.000 C 
BRANCH  15  17
ATOM     17  O   UNL     1       4.283  13.281   6.433  0.00  0.00    +0.000 OA
ATOM     18  H   UNL     1       3.689  12.757   7.008  0.00  0.00    +0.000 HD
ENDBRANCH  15  17
ENDBRANCH  14  15
ENDBRANCH   1  14
TORSDOF 7
ENDMDL
MODEL 8
REMARK VINA RESULT:    -3.635      5.417      9.469
REMARK INTER + INTRA:          -5.291
REMARK INTER:                  -4.556
REMARK INTRA:                  -0.735
REMARK UNBOUND:                -0.380
REMARK  Name = 
REMARK  10 active torsions:
REMARK  status: ('A' for Active; 'I' for Inactive)
REMARK    1  A    between atoms: C_1  and  C_2
REMARK    2  A    between atoms: C_5  and  N_8
REMARK    3  A    between atoms: N_8  and  C_9
REMARK    4  A    between atoms: N_8  and  C_13
REMARK    5  A    between atoms: C_9  and  C_10
REMARK    6  A    between atoms: C_10  and  C_11
REMARK    7  A    between atoms: C_10  and  O_12
REMARK    8  A    between atoms: C_13  and  C_14
REMARK    9  A    between atoms: C_14  and  C_15
REMARK   10  A    between atoms: C_14  and  O_16
REMARK                            x       y       z     vdW  Elec       q    Type
REMARK                         _______ _______ _______ _____ _____    ______ ____
ROOT
ATOM      1  N   UNL     1       9.810  16.806  -0.145  0.00  0.00    +0.000 N 
ENDROOT
BRANCH   1   6
ATOM      2  C   UNL     1       5.555  14.415  -3.227  0.00  0.00    +0.000 C 
ATOM      3  C   UNL     1       6.652  15.058  -2.435  0.00  0.00    +0.000 A 
ATOM      4  C   UNL     1       7.921  15.227  -2.979  0.00  0.00    +0.000 A 
ATOM      5  C   UNL     1       8.954  15.803  -2.222  0.00  0.00    +0.000 A 
ATOM      6  C   UNL     1       8.781  16.215  -0.888  0.00  0.00    +0.000 A 
ATOM      7  C   UNL     1       7.485  16.031  -0.371  0.00  0.00    +0.000 A 
ATOM      8  C   UNL     1       6.443  15.458  -1.119  0.00  0.00    +0.000 A 
ENDBRANCH   1   6
BRANCH   1   9
ATOM      9  C   UNL     1       9.571  17.219   1.259  0.00  0.00    +0.000 C 
BRANCH   9  10
ATOM     10  C   UNL     1       9.982  16.132   2.282  0.00  0.00    +0.000 C 
ATOM     11  C   UNL     1       8.809  15.756   3.180  0.00  0.00    +0.000 C 
BRANCH  10  12
ATOM     12  O   UNL     1      10.431  14.943   1.618  0.00  0.00    +0.000 OA
ATOM     13  H   UNL     1      11.331  14.746   1.928  0.00  0.00    +0.000 HD
ENDBRANCH  10  12
ENDBRANCH   9  10
ENDBRANCH   1   9
BRANCH   1  14
ATOM     14  C   UNL     1      10.943  17.495  -0.814  0.00  0.00    +0.000 C 
BRANCH  14  15
ATOM     15  C   UNL     1      12.275  16.724  -0.651  0.00  0.00    +0.000 C 
ATOM     16  C   UNL     1      13.081  17.169   0.563  0.00  0.00    +0.000 C 
BRANCH  15  17
ATOM     17  O   UNL     1      12.060  15.317  -0.547  0.00  0.00    +0.000 OA
ATOM     18  H   UNL     1      11.088  15.209  -0.560  0.00  0.00    +0.000 HD
ENDBRANCH  15  17
ENDBRANCH  14  15
ENDBRANCH   1  14
TORSDOF 7
ENDMDL
MODEL 9
REMARK VINA RESULT:    -3.608      9.152     12.192
REMARK INTER + INTRA:          -5.254
REMARK INTER:                  -4.605
REMARK INTRA:                  -0.649
REMARK UNBOUND:                -0.380
REMARK  Name = 
REMARK  10 active torsions:
REMARK  status: ('A' for Active; 'I' for Inactive)
REMARK    1  A    between atoms: C_1  and  C_2
REMARK    2  A    between atoms: C_5  and  N_8
REMARK    3  A    between atoms: N_8  and  C_9
REMARK    4  A    between atoms: N_8  and  C_13
REMARK    5  A    between atoms: C_9  and  C_10
REMARK    6  A    between atoms: C_10  and  C_11
REMARK    7  A    between atoms: C_10  and  O_12
REMARK    8  A    between atoms: C_13  and  C_14
REMARK    9  A    between atoms: C_14  and  C_15
REMARK   10  A    between atoms: C_14  and  O_16
REMARK                            x       y       z     vdW  Elec       q    Type
REMARK                         _______ _______ _______ _____ _____    ______ ____
ROOT
ATOM      1  N   UNL     1       6.391  15.863  -3.730  0.00  0.00    +0.000 N 
ENDROOT
BRANCH   1   6
ATOM      2  C   UNL     1       8.772  16.688  -8.924  0.00  0.00    +0.000 C 
ATOM      3  C   UNL     1       8.137  16.491  -7.582  0.00  0.00    +0.000 A 
ATOM      4  C   UNL     1       8.566  17.216  -6.475  0.00  0.00    +0.000 A 
ATOM      5  C   UNL     1       7.987  17.006  -5.213  0.00  0.00    +0.000 A 
ATOM      6  C   UNL     1       6.977  16.054  -4.988  0.00  0.00    +0.000 A 
ATOM      7  C   UNL     1       6.567  15.340  -6.129  0.00  0.00    +0.000 A 
ATOM      8  C   UNL     1       7.135  15.542  -7.397  0.00  0.00    +0.000 A 
ENDBRANCH   1   6
BRANCH   1   9
ATOM      9  C   UNL     1       7.061  16.378  -2.512  0.00  0.00    +0.000 C 
BRANCH   9  10
ATOM     10  C   UNL     1       8.219  15.468  -2.034  0.00  0.00    +0.000 C 
ATOM     11  C   UNL     1       9.420  16.298  -1.598  0.00  0.00    +0.000 C 
BRANCH  10  12
ATOM     12  O   UNL     1       7.812  14.659  -0.921  0.00  0.00    +0.000 OA
ATOM     13  H   UNL     1       7.530  13.794  -1.265  0.00  0.00    +0.000 HD
ENDBRANCH  10  12
ENDBRANCH   9  10
ENDBRANCH   1   9
BRANCH   1  14
ATOM     14  C   UNL     1       5.423  14.761  -3.492  0.00  0.00    +0.000 C 
BRANCH  14  15
ATOM     15  C   UNL     1       4.527  15.028  -2.259  0.00  0.00    +0.000 C 
ATOM     16  C   UNL     1       3.039  14.884  -2.556  0.00  0.00    +0.000 C 
BRANCH  15  17
ATOM     17  O   UNL     1       4.847  14.155  -1.176  0.00  0.00    +0.000 OA
ATOM     18  H   UNL     1       4.557  13.269  -1.472  0.00  0.00    +0.000 HD
ENDBRANCH  15  17
ENDBRANCH  14  15
ENDBRANCH   1  14
TORSDOF 7
ENDMDL
