MODEL 1
REMARK VINA RESULT:    -3.730      0.000      0.000
REMARK INTER + INTRA:          -4.094
REMARK INTER:                  -4.057
REMARK INTRA:                  -0.037
REMARK UNBOUND:                -0.037
REMARK  Name = 
REMARK  3 active torsions:
REMARK  status: ('A' for Active; 'I' for Inactive)
REMARK    1  A    between atoms: C_1  and  O_2
REMARK    2  A    between atoms: O_2  and  C_3
REMARK    3  A    between atoms: C_8  and  O_9
REMARK                            x       y       z     vdW  Elec       q    Type
REMARK                         _______ _______ _______ _____ _____    ______ ____
ROOT
ATOM      1  C   UNL     1      14.733  -3.891  14.480  0.00  0.00    +0.000 A 
ATOM      2  C   UNL     1      14.950  -5.253  14.276  0.00  0.00    +0.000 A 
ATOM      3  C   UNL     1      14.919  -5.780  12.979  0.00  0.00    +0.000 A 
ATOM      4  C   UNL     1      14.671  -4.950  11.883  0.00  0.00    +0.000 A 
ATOM      5  C   UNL     1      14.453  -3.588  12.079  0.00  0.00    +0.000 A 
ATOM      6  C   UNL     1      14.486  -3.074  13.369  0.00  0.00    +0.000 A 
ENDROOT
BRANCH   1   8
ATOM      7  C   UNL     1      14.946  -4.046  16.841  0.00  0.00    +0.000 C 
ATOM      8  O   UNL     1      14.733  -3.241  15.688  0.00  0.00    +0.000 OA
ENDBRANCH   1   8
BRANCH   6   9
ATOM      9  O   UNL     1      14.269  -1.733  13.536  0.00  0.00    +0.000 OA
ATOM     10  H   UNL     1      15.157  -1.330  13.491  0.00  0.00    +0.000 HD
ENDBRANCH   6   9
TORSDOF 2
ENDMDL
MODEL 2
REMARK VINA RESULT:    -3.655     12.354     13.229
REMARK INTER + INTRA:          -4.013
REMARK INTER:                  -3.973
REMARK INTRA:                  -0.040
REMARK UNBOUND:                -0.037
REMARK  Name = 
REMARK  3 active torsions:
REMARK  status: ('A' for Active; 'I' for Inactive)
REMARK    1  A    between atoms: C_1  and  O_2
REMARK    2  A    between atoms: O_2  and  C_3
REMARK    3  A    between atoms: C_8  and  O_9
REMARK                            x       y       z     vdW  Elec       q    Type
REMARK                         _______ _______ _______ _____ _____    ______ ____
ROOT
ATOM      1  C   UNL     1       6.449  -6.472  24.298  0.00  0.00    +0.000 A 
ATOM      2  C   UNL     1       6.268  -7.079  23.056  0.00  0.00    +0.000 A 
ATOM      3  C   UNL     1       6.199  -6.295  21.897  0.00  0.00    +0.000 A 
ATOM      4  C   UNL     1       6.308  -4.905  21.976  0.00  0.00    +0.000 A 
ATOM      5  C   UNL     1       6.489  -4.291  23.213  0.00  0.00    +0.000 A 
ATOM      6  C   UNL     1       6.557  -5.077  24.357  0.00  0.00    +0.000 A 
ENDROOT
BRANCH   1   8
ATOM      7  C   UNL     1       7.021  -8.448  25.487  0.00  0.00    +0.000 C 
ATOM      8  O   UNL     1       6.534  -7.112  25.508  0.00  0.00    +0.000 OA
ENDBRANCH   1   8
BRANCH   6   9
ATOM      9  O   UNL     1       6.735  -4.451  25.562  0.00  0.00    +0.000 OA
ATOM     10  H   UNL     1       7.336  -5.037  26.060  0.00  0.00    +0.000 HD
ENDBRANCH   6   9
TORSDOF 2
ENDMDL
MODEL 3
REMARK VINA RESULT:    -3.570     11.603     12.641
REMARK INTER + INTRA:          -3.920
REMARK INTER:                  -3.873
REMARK INTRA:                  -0.047
REMARK UNBOUND:                -0.037
REMARK  Name = 
REMARK  3 active torsions:
REMARK  status: ('A' for Active; 'I' for Inactive)
REMARK    1  A    between atoms: C_1  and  O_2
REMARK    2  A    between atoms: O_2  and  C_3
REMARK    3  A    between atoms: C_8  and  O_9
REMARK                            x       y       z     vdW  Elec       q    Type
REMARK                         _______ _______ _______ _____ _____    ______ ____
ROOT
ATOM      1  C   UNL     1       7.326  -5.682  23.710  0.00  0.00    +0.000 A 
ATOM      2  C   UNL     1       7.214  -6.462  24.860  0.00  0.00    +0.000 A 
ATOM      3  C   UNL     1       6.413  -7.611  24.851  0.00  0.00    +0.000 A 
ATOM      4  C   UNL     1       5.722  -7.983  23.696  0.00  0.00    +0.000 A 
ATOM      5  C   UNL     1       5.829  -7.208  22.543  0.00  0.00    +0.000 A 
ATOM      6  C   UNL     1       6.625  -6.071  22.561  0.00  0.00    +0.000 A 
ENDROOT
BRANCH   1   8
ATOM      7  C   UNL     1       9.397  -4.579  24.086  0.00  0.00    +0.000 C 
ATOM      8  O   UNL     1       8.070  -4.537  23.575  0.00  0.00    +0.000 OA
ENDBRANCH   1   8
BRANCH   6   9
ATOM      9  O   UNL     1       6.715  -5.326  21.416  0.00  0.00    +0.000 OA
ATOM     10  H   UNL     1       6.023  -4.643  21.508  0.00  0.00    +0.000 HD
ENDBRANCH   6   9
TORSDOF 2
ENDMDL
MODEL 4
REMARK VINA RESULT:    -3.563     12.237     13.226
REMARK INTER + INTRA:          -3.913
REMARK INTER:                  -3.861
REMARK INTRA:                  -0.052
REMARK UNBOUND:                -0.037
REMARK  Name = 
REMARK  3 active torsions:
REMARK  status: ('A' for Active; 'I' for Inactive)
REMARK    1  A    between atoms: C_1  and  O_2
REMARK    2  A    between atoms: O_2  and  C_3
REMARK    3  A    between atoms: C_8  and  O_9
REMARK                            x       y       z     vdW  Elec       q    Type
REMARK                         _______ _______ _______ _____ _____    ______ ____
ROOT
ATOM      1  C   UNL     1       6.332  -6.549  24.232  0.00  0.00    +0.000 A 
ATOM      2  C   UNL     1       6.342  -5.166  24.408  0.00  0.00    +0.000 A 
ATOM      3  C   UNL     1       6.292  -4.319  23.294  0.00  0.00    +0.000 A 
ATOM      4  C   UNL     1       6.232  -4.848  22.004  0.00  0.00    +0.000 A 
ATOM      5  C   UNL     1       6.221  -6.229  21.820  0.00  0.00    +0.000 A 
ATOM      6  C   UNL     1       6.271  -7.062  22.931  0.00  0.00    +0.000 A 
ENDROOT
BRANCH   1   8
ATOM      7  C   UNL     1       7.538  -7.495  26.048  0.00  0.00    +0.000 C 
ATOM      8  O   UNL     1       6.377  -7.493  25.226  0.00  0.00    +0.000 OA
ENDBRANCH   1   8
BRANCH   6   9
ATOM      9  O   UNL     1       6.259  -8.416  22.725  0.00  0.00    +0.000 OA
ATOM     10  H   UNL     1       7.200  -8.677  22.733  0.00  0.00    +0.000 HD
ENDBRANCH   6   9
TORSDOF 2
ENDMDL
MODEL 5
REMARK VINA RESULT:    -3.487      1.640      3.066
REMARK INTER + INTRA:          -3.830
REMARK INTER:                  -3.780
REMARK INTRA:                  -0.050
REMARK UNBOUND:                -0.037
REMARK  Name = 
REMARK  3 active torsions:
REMARK  status: ('A' for Active; 'I' for Inactive)
REMARK    1  A    between atoms: C_1  and  O_2
REMARK    2  A    between atoms: O_2  and  C_3
REMARK    3  A    between atoms: C_8  and  O_9
REMARK                            x       y       z     vdW  Elec       q    Type
REMARK                         _______ _______ _______ _____ _____    ______ ____
ROOT
ATOM      1  C   UNL     1      14.136  -4.194  13.771  0.00  0.00    +0.000 A 
ATOM      2  C   UNL     1      14.503  -4.567  15.064  0.00  0.00    +0.000 A 
ATOM      3  C   UNL     1      14.909  -3.593  15.984  0.00  0.00    +0.000 A 
ATOM      4  C   UNL     1      14.950  -2.246  15.618  0.00  0.00    +0.000 A 
ATOM      5  C   UNL     1      14.585  -1.866  14.329  0.00  0.00    +0.000 A 
ATOM      6  C   UNL     1      14.184  -2.839  13.422  0.00  0.00    +0.000 A 
ENDROOT
BRANCH   1   8
ATOM      7  C   UNL     1      14.584  -6.124  12.459  0.00  0.00    +0.000 C 
ATOM      8  O   UNL     1      13.722  -5.036  12.771  0.00  0.00    +0.000 OA
ENDBRANCH   1   8
BRANCH   6   9
ATOM      9  O   UNL     1      13.830  -2.440  12.161  0.00  0.00    +0.000 OA
ATOM     10  H   UNL     1      13.634  -3.270  11.684  0.00  0.00    +0.000 HD
ENDBRANCH   6   9
TORSDOF 2
ENDMDL
MODEL 6
REMARK VINA RESULT:    -3.469     16.680     18.251
REMARK INTER + INTRA:          -3.810
REMARK INTER:                  -3.773
REMARK INTRA:                  -0.037
REMARK UNBOUND:                -0.037
REMARK  Name = 
REMARK  3 active torsions:
REMARK  status: ('A' for Active; 'I' for Inactive)
REMARK    1  A    between atoms: C_1  and  O_2
REMARK    2  A    between atoms: O_2  and  C_3
REMARK    3  A    between atoms: C_8  and  O_9
REMARK                            x       y       z     vdW  Elec       q    Type
REMARK                         _______ _______ _______ _____ _____    ______ ____
ROOT
ATOM      1  C   UNL     1       7.491  10.140   4.460  0.00  0.00    +0.000 A 
ATOM      2  C   UNL     1       8.406  11.157   4.730  0.00  0.00    +0.000 A 
ATOM      3  C   UNL     1       9.746  10.842   4.988  0.00  0.00    +0.000 A 
ATOM      4  C   UNL     1      10.176   9.514   4.978  0.00  0.00    +0.000 A 
ATOM      5  C   UNL     1       9.268   8.492   4.708  0.00  0.00    +0.000 A 
ATOM      6  C   UNL     1       7.941   8.813   4.454  0.00  0.00    +0.000 A 
ENDROOT
BRANCH   1   8
ATOM      7  C   UNL     1       5.656  11.632   4.232  0.00  0.00    +0.000 C 
ATOM      8  O   UNL     1       6.155  10.300   4.192  0.00  0.00    +0.000 OA
ENDBRANCH   1   8
BRANCH   6   9
ATOM      9  O   UNL     1       7.067   7.792   4.192  0.00  0.00    +0.000 OA
ATOM     10  H   UNL     1       7.105   7.223   4.984  0.00  0.00    +0.000 HD
ENDBRANCH   6   9
TORSDOF 2
ENDMDL
MODEL 7
REMARK VINA RESULT:    -3.425     11.947     13.206
REMARK INTER + INTRA:          -3.763
REMARK INTER:                  -3.720
REMARK INTRA:                  -0.043
REMARK UNBOUND:                -0.037
REMARK  Name = 
REMARK  3 active torsions:
REMARK  status: ('A' for Active; 'I' for Inactive)
REMARK    1  A    between atoms: C_1  and  O_2
REMARK    2  A    between atoms: O_2  and  C_3
REMARK    3  A    between atoms: C_8  and  O_9
REMARK                            x       y       z     vdW  Elec       q    Type
REMARK                         _______ _______ _______ _____ _____    ______ ____
ROOT
ATOM      1  C   UNL     1       6.214  -6.511  23.402  0.00  0.00    +0.000 A 
ATOM      2  C   UNL     1       6.277  -6.626  24.790  0.00  0.00    +0.000 A 
ATOM      3  C   UNL     1       6.887  -5.619  25.548  0.00  0.00    +0.000 A 
ATOM      4  C   UNL     1       7.435  -4.496  24.924  0.00  0.00    +0.000 A 
ATOM      5  C   UNL     1       7.375  -4.374  23.538  0.00  0.00    +0.000 A 
ATOM      6  C   UNL     1       6.769  -5.378  22.794  0.00  0.00    +0.000 A 
ENDROOT
BRANCH   1   8
ATOM      7  C   UNL     1       4.461  -8.059  22.980  0.00  0.00    +0.000 C 
ATOM      8  O   UNL     1       5.650  -7.416  22.538  0.00  0.00    +0.000 OA
ENDBRANCH   1   8
BRANCH   6   9
ATOM      9  O   UNL     1       6.722  -5.236  21.432  0.00  0.00    +0.000 OA
ATOM     10  H   UNL     1       6.422  -6.104  21.102  0.00  0.00    +0.000 HD
ENDBRANCH   6   9
TORSDOF 2
ENDMDL
MODEL 8
REMARK VINA RESULT:    -3.332     15.554     16.601
REMARK INTER + INTRA:          -3.661
REMARK INTER:                  -3.622
REMARK INTRA:                  -0.039
REMARK UNBOUND:                -0.037
REMARK  Name = 
REMARK  3 active torsions:
REMARK  status: ('A' for Active; 'I' for Inactive)
REMARK    1  A    between atoms: C_1  and  O_2
REMARK    2  A    between atoms: O_2  and  C_3
REMARK    3  A    between atoms: C_8  and  O_9
REMARK                            x       y       z     vdW  Elec       q    Type
REMARK                         _______ _______ _______ _____ _____    ______ ____
ROOT
ATOM      1  C   UNL     1      13.762  11.686  19.234  0.00  0.00    +0.000 A 
ATOM      2  C   UNL     1      13.681  13.075  19.149  0.00  0.00    +0.000 A 
ATOM      3  C   UNL     1      13.064  13.675  18.044  0.00  0.00    +0.000 A 
ATOM      4  C   UNL     1      12.528  12.890  17.021  0.00  0.00    +0.000 A 
ATOM      5  C   UNL     1      12.604  11.501  17.099  0.00  0.00    +0.000 A 
ATOM      6  C   UNL     1      13.218  10.916  18.199  0.00  0.00    +0.000 A 
ENDROOT
BRANCH   1   8
ATOM      7  C   UNL     1      13.590  10.872  21.459  0.00  0.00    +0.000 C 
ATOM      8  O   UNL     1      14.335  10.968  20.252  0.00  0.00    +0.000 OA
ENDBRANCH   1   8
BRANCH   6   9
ATOM      9  O   UNL     1      13.281   9.549  18.252  0.00  0.00    +0.000 OA
ATOM     10  H   UNL     1      13.836   9.356  19.032  0.00  0.00    +0.000 HD
ENDBRANCH   6   9
TORSDOF 2
ENDMDL
MODEL 9
REMARK VINA RESULT:    -3.267     17.027     18.402
REMARK INTER + INTRA:          -3.591
REMARK INTER:                  -3.539
REMARK INTRA:                  -0.053
REMARK UNBOUND:                -0.037
REMARK  Name = 
REMARK  3 active torsions:
REMARK  status: ('A' for Active; 'I' for Inactive)
REMARK    1  A    between atoms: C_1  and  O_2
REMARK    2  A    between atoms: O_2  and  C_3
REMARK    3  A    between atoms: C_8  and  O_9
REMARK                            x       y       z     vdW  Elec       q    Type
REMARK                         _______ _______ _______ _____ _____    ______ ____
ROOT
ATOM      1  C   UNL     1       7.647  10.770   4.524  0.00  0.00    +0.000 A 
ATOM      2  C   UNL     1       7.074   9.533   4.236  0.00  0.00    +0.000 A 
ATOM      3  C   UNL     1       7.850   8.369   4.305  0.00  0.00    +0.000 A 
ATOM      4  C   UNL     1       9.198   8.437   4.660  0.00  0.00    +0.000 A 
ATOM      5  C   UNL     1       9.778   9.670   4.950  0.00  0.00    +0.000 A 
ATOM      6  C   UNL     1       9.001  10.819   4.878  0.00  0.00    +0.000 A 
ENDROOT
BRANCH   1   8
ATOM      7  C   UNL     1       5.964  12.175   5.440  0.00  0.00    +0.000 C 
ATOM      8  O   UNL     1       7.011  11.985   4.496  0.00  0.00    +0.000 OA
ENDBRANCH   1   8
BRANCH   6   9
ATOM      9  O   UNL     1       9.594  12.019   5.167  0.00  0.00    +0.000 OA
ATOM     10  H   UNL     1      10.406  11.784   5.656  0.00  0.00    +0.000 HD
ENDBRANCH   6   9
TORSDOF 2
ENDMDL
