MODEL 1
REMARK VINA RESULT:    -4.729      0.000      0.000
REMARK INTER + INTRA:          -7.027
REMARK INTER:                  -6.388
REMARK INTRA:                  -0.639
REMARK UNBOUND:                -0.639
REMARK  Name = 
REMARK  10 active torsions:
REMARK  status: ('A' for Active; 'I' for Inactive)
REMARK    1  A    between atoms: C_1  and  C_2
REMARK    2  A    between atoms: C_5  and  N_8
REMARK    3  A    between atoms: N_8  and  C_9
REMARK    4  A    between atoms: N_8  and  C_13
REMARK    5  A    between atoms: C_9  and  C_10
REMARK    6  A    between atoms: C_10  and  C_11
REMARK    7  A    between atoms: C_10  and  O_12
REMARK    8  A    between atoms: C_13  and  C_14
REMARK    9  A    between atoms: C_14  and  C_15
REMARK   10  A    between atoms: C_14  and  O_16
REMARK                            x       y       z     vdW  Elec       q    Type
REMARK                         _______ _______ _______ _____ _____    ______ ____
ROOT
ATOM      1  N   UNL     1       8.501  11.716   5.682  0.00  0.00    +0.000 N 
ENDROOT
BRANCH   1   6
ATOM      2  C   UNL     1       2.885  12.812   4.911  0.00  0.00    +0.000 C 
ATOM      3  C   UNL     1       4.336  12.508   5.125  0.00  0.00    +0.000 A 
ATOM      4  C   UNL     1       5.039  13.084   6.178  0.00  0.00    +0.000 A 
ATOM      5  C   UNL     1       6.407  12.818   6.356  0.00  0.00    +0.000 A 
ATOM      6  C   UNL     1       7.141  11.992   5.487  0.00  0.00    +0.000 A 
ATOM      7  C   UNL     1       6.398  11.425   4.435  0.00  0.00    +0.000 A 
ATOM      8  C   UNL     1       5.030  11.681   4.246  0.00  0.00    +0.000 A 
ENDBRANCH   1   6
BRANCH   1   9
ATOM      9  C   UNL     1       9.378  12.721   6.328  0.00  0.00    +0.000 C 
BRANCH   9  10
ATOM     10  C   UNL     1       9.861  12.283   7.732  0.00  0.00    +0.000 C 
ATOM     11  C   UNL     1      10.006  13.485   8.658  0.00  0.00    +0.000 C 
BRANCH  10  12
ATOM     12  O   UNL     1       8.933  11.369   8.333  0.00  0.00    +0.000 OA
ATOM     13  H   UNL     1       8.996  11.467   9.298  0.00  0.00    +0.000 HD
ENDBRANCH  10  12
ENDBRANCH   9  10
ENDBRANCH   1   9
BRANCH   1  14
ATOM     14  C   UNL     1       9.210  10.714   4.845  0.00  0.00    +0.000 C 
BRANCH  14  15
ATOM     15  C   UNL     1       8.972   9.267   5.338  0.00  0.00    +0.000 C 
ATOM     16  C   UNL     1       9.753   8.227   4.544  0.00  0.00    +0.000 C 
BRANCH  15  17
ATOM     17  O   UNL     1       9.310   9.117   6.716  0.00  0.00    +0.000 OA
ATOM     18  H   UNL     1       9.378  10.030   7.060  0.00  0.00    +0.000 HD
ENDBRANCH  15  17
ENDBRANCH  14  15
ENDBRANCH   1  14
TORSDOF 7
ENDMDL
MODEL 2
REMARK VINA RESULT:    -4.312      0.715      3.296
REMARK INTER + INTRA:          -6.464
REMARK INTER:                  -6.202
REMARK INTRA:                  -0.262
REMARK UNBOUND:                -0.639
REMARK  Name = 
REMARK  10 active torsions:
REMARK  status: ('A' for Active; 'I' for Inactive)
REMARK    1  A    between atoms: C_1  and  C_2
REMARK    2  A    between atoms: C_5  and  N_8
REMARK    3  A    between atoms: N_8  and  C_9
REMARK    4  A    between atoms: N_8  and  C_13
REMARK    5  A    between atoms: C_9  and  C_10
REMARK    6  A    between atoms: C_10  and  C_11
REMARK    7  A    between atoms: C_10  and  O_12
REMARK    8  A    between atoms: C_13  and  C_14
REMARK    9  A    between atoms: C_14  and  C_15
REMARK   10  A    between atoms: C_14  and  O_16
REMARK                            x       y       z     vdW  Elec       q    Type
REMARK                         _______ _______ _______ _____ _____    ______ ____
ROOT
ATOM      1  N   UNL     1       9.232  12.007   5.794  0.00  0.00    +0.000 N 
ENDROOT
BRANCH   1   6
ATOM      2  C   UNL     1       3.549  12.259   4.812  0.00  0.00    +0.000 C 
ATOM      3  C   UNL     1       5.026  12.215   5.053  0.00  0.00    +0.000 A 
ATOM      4  C   UNL     1       5.870  11.515   4.197  0.00  0.00    +0.000 A 
ATOM      5  C   UNL     1       7.251  11.452   4.445  0.00  0.00    +0.000 A 
ATOM      6  C   UNL     1       7.852  12.058   5.563  0.00  0.00    +0.000 A 
ATOM      7  C   UNL     1       6.969  12.758   6.406  0.00  0.00    +0.000 A 
ATOM      8  C   UNL     1       5.587  12.831   6.168  0.00  0.00    +0.000 A 
ENDBRANCH   1   6
BRANCH   1   9
ATOM      9  C   UNL     1      10.001  10.790   5.440  0.00  0.00    +0.000 C 
BRANCH   9  10
ATOM     10  C   UNL     1       9.230   9.483   5.750  0.00  0.00    +0.000 C 
ATOM     11  C   UNL     1       9.612   8.380   4.770  0.00  0.00    +0.000 C 
BRANCH  10  12
ATOM     12  O   UNL     1       9.516   9.018   7.076  0.00  0.00    +0.000 OA
ATOM     13  H   UNL     1       8.678   8.961   7.563  0.00  0.00    +0.000 HD
ENDBRANCH  10  12
ENDBRANCH   9  10
ENDBRANCH   1   9
BRANCH   1  14
ATOM     14  C   UNL     1       9.874  12.876   6.814  0.00  0.00    +0.000 C 
BRANCH  14  15
ATOM     15  C   UNL     1      10.244  12.095   8.097  0.00  0.00    +0.000 C 
ATOM     16  C   UNL     1      10.941  12.957   9.143  0.00  0.00    +0.000 C 
BRANCH  15  17
ATOM     17  O   UNL     1       9.095  11.506   8.705  0.00  0.00    +0.000 OA
ATOM     18  H   UNL     1       9.451  10.813   9.298  0.00  0.00    +0.000 HD
ENDBRANCH  15  17
ENDBRANCH  14  15
ENDBRANCH   1  14
TORSDOF 7
ENDMDL
MODEL 3
REMARK VINA RESULT:    -4.177      3.378      5.173
REMARK INTER + INTRA:          -6.281
REMARK INTER:                  -5.979
REMARK INTRA:                  -0.303
REMARK UNBOUND:                -0.639
REMARK  Name = 
REMARK  10 active torsions:
REMARK  status: ('A' for Active; 'I' for Inactive)
REMARK    1  A    between atoms: C_1  and  C_2
REMARK    2  A    between atoms: C_5  and  N_8
REMARK    3  A    between atoms: N_8  and  C_9
REMARK    4  A    between atoms: N_8  and  C_13
REMARK    5  A    between atoms: C_9  and  C_10
REMARK    6  A    between atoms: C_10  and  C_11
REMARK    7  A    between atoms: C_10  and  O_12
REMARK    8  A    between atoms: C_13  and  C_14
REMARK    9  A    between atoms: C_14  and  C_15
REMARK   10  A    between atoms: C_14  and  O_16
REMARK                            x       y       z     vdW  Elec       q    Type
REMARK                         _______ _______ _______ _____ _____    ______ ____
ROOT
ATOM      1  N   UNL     1      11.061  11.883   7.760  0.00  0.00    +0.000 N 
ENDROOT
BRANCH   1   6
ATOM      2  C   UNL     1       8.073   8.468   4.192  0.00  0.00    +0.000 C 
ATOM      3  C   UNL     1       8.828   9.357   5.132  0.00  0.00    +0.000 A 
ATOM      4  C   UNL     1       8.926  10.724   4.897  0.00  0.00    +0.000 A 
ATOM      5  C   UNL     1       9.660  11.549   5.766  0.00  0.00    +0.000 A 
ATOM      6  C   UNL     1      10.347  11.052   6.888  0.00  0.00    +0.000 A 
ATOM      7  C   UNL     1      10.224   9.666   7.095  0.00  0.00    +0.000 A 
ATOM      8  C   UNL     1       9.492   8.830   6.236  0.00  0.00    +0.000 A 
ENDBRANCH   1   6
BRANCH   1   9
ATOM      9  C   UNL     1      12.532  12.017   7.623  0.00  0.00    +0.000 C 
BRANCH   9  10
ATOM     10  C   UNL     1      13.144  10.961   6.670  0.00  0.00    +0.000 C 
ATOM     11  C   UNL     1      13.835  11.630   5.487  0.00  0.00    +0.000 C 
BRANCH  10  12
ATOM     12  O   UNL     1      14.112  10.152   7.351  0.00  0.00    +0.000 OA
ATOM     13  H   UNL     1      13.752   9.921   8.223  0.00  0.00    +0.000 HD
ENDBRANCH  10  12
ENDBRANCH   9  10
ENDBRANCH   1   9
BRANCH   1  14
ATOM     14  C   UNL     1      10.525  12.231   9.101  0.00  0.00    +0.000 C 
BRANCH  14  15
ATOM     15  C   UNL     1      11.520  11.886  10.236  0.00  0.00    +0.000 C 
ATOM     16  C   UNL     1      11.414  12.825  11.432  0.00  0.00    +0.000 C 
BRANCH  15  17
ATOM     17  O   UNL     1      11.343  10.551  10.705  0.00  0.00    +0.000 OA
ATOM     18  H   UNL     1      11.639  10.569  11.637  0.00  0.00    +0.000 HD
ENDBRANCH  15  17
ENDBRANCH  14  15
ENDBRANCH   1  14
TORSDOF 7
ENDMDL
MODEL 4
REMARK VINA RESULT:    -4.136      2.911      4.204
REMARK INTER + INTRA:          -6.226
REMARK INTER:                  -5.493
REMARK INTRA:                  -0.733
REMARK UNBOUND:                -0.639
REMARK  Name = 
REMARK  10 active torsions:
REMARK  status: ('A' for Active; 'I' for Inactive)
REMARK    1  A    between atoms: C_1  and  C_2
REMARK    2  A    between atoms: C_5  and  N_8
REMARK    3  A    between atoms: N_8  and  C_9
REMARK    4  A    between atoms: N_8  and  C_13
REMARK    5  A    between atoms: C_9  and  C_10
REMARK    6  A    between atoms: C_10  and  C_11
REMARK    7  A    between atoms: C_10  and  O_12
REMARK    8  A    between atoms: C_13  and  C_14
REMARK    9  A    between atoms: C_14  and  C_15
REMARK   10  A    between atoms: C_14  and  O_16
REMARK                            x       y       z     vdW  Elec       q    Type
REMARK                         _______ _______ _______ _____ _____    ______ ____
ROOT
ATOM      1  N   UNL     1      11.486  11.294   5.670  0.00  0.00    +0.000 N 
ENDROOT
BRANCH   1   6
ATOM      2  C   UNL     1       6.891   8.125   4.197  0.00  0.00    +0.000 C 
ATOM      3  C   UNL     1       8.079   8.941   4.603  0.00  0.00    +0.000 A 
ATOM      4  C   UNL     1       7.956  10.303   4.862  0.00  0.00    +0.000 A 
ATOM      5  C   UNL     1       9.079  11.069   5.213  0.00  0.00    +0.000 A 
ATOM      6  C   UNL     1      10.374  10.527   5.300  0.00  0.00    +0.000 A 
ATOM      7  C   UNL     1      10.461   9.148   5.034  0.00  0.00    +0.000 A 
ATOM      8  C   UNL     1       9.345   8.369   4.684  0.00  0.00    +0.000 A 
ENDBRANCH   1   6
BRANCH   1   9
ATOM      9  C   UNL     1      11.311  12.493   6.525  0.00  0.00    +0.000 C 
BRANCH   9  10
ATOM     10  C   UNL     1      11.341  12.161   8.037  0.00  0.00    +0.000 C 
ATOM     11  C   UNL     1       9.940  12.218   8.634  0.00  0.00    +0.000 C 
BRANCH  10  12
ATOM     12  O   UNL     1      11.868  10.846   8.265  0.00  0.00    +0.000 OA
ATOM     13  H   UNL     1      11.882  10.690   9.224  0.00  0.00    +0.000 HD
ENDBRANCH  10  12
ENDBRANCH   9  10
ENDBRANCH   1   9
BRANCH   1  14
ATOM     14  C   UNL     1      12.733  11.279   4.862  0.00  0.00    +0.000 C 
BRANCH  14  15
ATOM     15  C   UNL     1      13.830  10.392   5.498  0.00  0.00    +0.000 C 
ATOM     16  C   UNL     1      14.901   9.958   4.505  0.00  0.00    +0.000 C 
BRANCH  15  17
ATOM     17  O   UNL     1      14.476  11.051   6.586  0.00  0.00    +0.000 OA
ATOM     18  H   UNL     1      15.340  10.601   6.676  0.00  0.00    +0.000 HD
ENDBRANCH  15  17
ENDBRANCH  14  15
ENDBRANCH   1  14
TORSDOF 7
ENDMDL
MODEL 5
REMARK VINA RESULT:    -3.918      3.305      6.789
REMARK INTER + INTRA:          -5.932
REMARK INTER:                  -5.274
REMARK INTRA:                  -0.658
REMARK UNBOUND:                -0.639
REMARK  Name = 
REMARK  10 active torsions:
REMARK  status: ('A' for Active; 'I' for Inactive)
REMARK    1  A    between atoms: C_1  and  C_2
REMARK    2  A    between atoms: C_5  and  N_8
REMARK    3  A    between atoms: N_8  and  C_9
REMARK    4  A    between atoms: N_8  and  C_13
REMARK    5  A    between atoms: C_9  and  C_10
REMARK    6  A    between atoms: C_10  and  C_11
REMARK    7  A    between atoms: C_10  and  O_12
REMARK    8  A    between atoms: C_13  and  C_14
REMARK    9  A    between atoms: C_14  and  C_15
REMARK   10  A    between atoms: C_14  and  O_16
REMARK                            x       y       z     vdW  Elec       q    Type
REMARK                         _______ _______ _______ _____ _____    ______ ____
ROOT
ATOM      1  N   UNL     1      11.569  12.470   8.126  0.00  0.00    +0.000 N 
ENDROOT
BRANCH   1   6
ATOM      2  C   UNL     1      14.950   9.530   4.485  0.00  0.00    +0.000 C 
ATOM      3  C   UNL     1      14.067  10.272   5.442  0.00  0.00    +0.000 A 
ATOM      4  C   UNL     1      12.728  10.502   5.146  0.00  0.00    +0.000 A 
ATOM      5  C   UNL     1      11.913  11.224   6.032  0.00  0.00    +0.000 A 
ATOM      6  C   UNL     1      12.393  11.768   7.237  0.00  0.00    +0.000 A 
ATOM      7  C   UNL     1      13.751  11.514   7.505  0.00  0.00    +0.000 A 
ATOM      8  C   UNL     1      14.577  10.792   6.628  0.00  0.00    +0.000 A 
ENDBRANCH   1   6
BRANCH   1   9
ATOM      9  C   UNL     1      10.410  13.240   7.615  0.00  0.00    +0.000 C 
BRANCH   9  10
ATOM     10  C   UNL     1       9.054  12.561   7.930  0.00  0.00    +0.000 C 
ATOM     11  C   UNL     1       8.062  12.771   6.792  0.00  0.00    +0.000 C 
BRANCH  10  12
ATOM     12  O   UNL     1       9.217  11.149   8.121  0.00  0.00    +0.000 OA
ATOM     13  H   UNL     1       9.354  10.741   7.250  0.00  0.00    +0.000 HD
ENDBRANCH  10  12
ENDBRANCH   9  10
ENDBRANCH   1   9
BRANCH   1  14
ATOM     14  C   UNL     1      12.067  12.902   9.458  0.00  0.00    +0.000 C 
BRANCH  14  15
ATOM     15  C   UNL     1      11.737  11.873  10.566  0.00  0.00    +0.000 C 
ATOM     16  C   UNL     1      10.806  12.426  11.639  0.00  0.00    +0.000 C 
BRANCH  15  17
ATOM     17  O   UNL     1      11.140  10.693  10.030  0.00  0.00    +0.000 OA
ATOM     18  H   UNL     1      10.185  10.781  10.225  0.00  0.00    +0.000 HD
ENDBRANCH  15  17
ENDBRANCH  14  15
ENDBRANCH   1  14
TORSDOF 7
ENDMDL
MODEL 6
REMARK VINA RESULT:    -3.867     18.713     19.885
REMARK INTER + INTRA:          -5.862
REMARK INTER:                  -5.359
REMARK INTRA:                  -0.503
REMARK UNBOUND:                -0.639
REMARK  Name = 
REMARK  10 active torsions:
REMARK  status: ('A' for Active; 'I' for Inactive)
REMARK    1  A    between atoms: C_1  and  C_2
REMARK    2  A    between atoms: C_5  and  N_8
REMARK    3  A    between atoms: N_8  and  C_9
REMARK    4  A    between atoms: N_8  and  C_13
REMARK    5  A    between atoms: C_9  and  C_10
REMARK    6  A    between atoms: C_10  and  C_11
REMARK    7  A    between atoms: C_10  and  O_12
REMARK    8  A    between atoms: C_13  and  C_14
REMARK    9  A    between atoms: C_14  and  C_15
REMARK   10  A    between atoms: C_14  and  O_16
REMARK                            x       y       z     vdW  Elec       q    Type
REMARK                         _______ _______ _______ _____ _____    ______ ____
ROOT
ATOM      1  N   UNL     1       5.338  10.461  25.578  0.00  0.00    +0.000 N 
ENDROOT
BRANCH   1   6
ATOM      2  C   UNL     1      10.952  11.658  24.964  0.00  0.00    +0.000 C 
ATOM      3  C   UNL     1       9.497  11.349  25.148  0.00  0.00    +0.000 A 
ATOM      4  C   UNL     1       9.050  10.033  25.214  0.00  0.00    +0.000 A 
ATOM      5  C   UNL     1       7.682   9.748  25.357  0.00  0.00    +0.000 A 
ATOM      6  C   UNL     1       6.698  10.752  25.417  0.00  0.00    +0.000 A 
ATOM      7  C   UNL     1       7.187  12.069  25.349  0.00  0.00    +0.000 A 
ATOM      8  C   UNL     1       8.552  12.368  25.209  0.00  0.00    +0.000 A 
ENDBRANCH   1   6
BRANCH   1   9
ATOM      9  C   UNL     1       4.432  11.460  26.196  0.00  0.00    +0.000 C 
BRANCH   9  10
ATOM     10  C   UNL     1       3.398  12.031  25.195  0.00  0.00    +0.000 C 
ATOM     11  C   UNL     1       2.355  12.879  25.914  0.00  0.00    +0.000 C 
BRANCH  10  12
ATOM     12  O   UNL     1       4.036  12.853  24.208  0.00  0.00    +0.000 OA
ATOM     13  H   UNL     1       3.835  13.781  24.414  0.00  0.00    +0.000 HD
ENDBRANCH  10  12
ENDBRANCH   9  10
ENDBRANCH   1   9
BRANCH   1  14
ATOM     14  C   UNL     1       4.853   9.058  25.638  0.00  0.00    +0.000 C 
BRANCH  14  15
ATOM     15  C   UNL     1       4.360   8.551  24.262  0.00  0.00    +0.000 C 
ATOM     16  C   UNL     1       5.295   7.526  23.630  0.00  0.00    +0.000 C 
BRANCH  15  17
ATOM     17  O   UNL     1       3.060   7.968  24.349  0.00  0.00    +0.000 OA
ATOM     18  H   UNL     1       2.507   8.491  23.734  0.00  0.00    +0.000 HD
ENDBRANCH  15  17
ENDBRANCH  14  15
ENDBRANCH   1  14
TORSDOF 7
ENDMDL
MODEL 7
REMARK VINA RESULT:    -3.850      1.975      5.748
REMARK INTER + INTRA:          -5.839
REMARK INTER:                  -5.321
REMARK INTRA:                  -0.519
REMARK UNBOUND:                -0.639
REMARK  Name = 
REMARK  10 active torsions:
REMARK  status: ('A' for Active; 'I' for Inactive)
REMARK    1  A    between atoms: C_1  and  C_2
REMARK    2  A    between atoms: C_5  and  N_8
REMARK    3  A    between atoms: N_8  and  C_9
REMARK    4  A    between atoms: N_8  and  C_13
REMARK    5  A    between atoms: C_9  and  C_10
REMARK    6  A    between atoms: C_10  and  C_11
REMARK    7  A    between atoms: C_10  and  O_12
REMARK    8  A    between atoms: C_13  and  C_14
REMARK    9  A    between atoms: C_14  and  C_15
REMARK   10  A    between atoms: C_14  and  O_16
REMARK                            x       y       z     vdW  Elec       q    Type
REMARK                         _______ _______ _______ _____ _____    ______ ____
ROOT
ATOM      1  N   UNL     1       8.710  11.461   5.639  0.00  0.00    +0.000 N 
ENDROOT
BRANCH   1   6
ATOM      2  C   UNL     1      12.379  12.237  10.028  0.00  0.00    +0.000 C 
ATOM      3  C   UNL     1      11.423  12.012   8.897  0.00  0.00    +0.000 A 
ATOM      4  C   UNL     1      11.869  11.541   7.667  0.00  0.00    +0.000 A 
ATOM      5  C   UNL     1      10.972  11.361   6.601  0.00  0.00    +0.000 A 
ATOM      6  C   UNL     1       9.602  11.661   6.700  0.00  0.00    +0.000 A 
ATOM      7  C   UNL     1       9.186  12.134   7.958  0.00  0.00    +0.000 A 
ATOM      8  C   UNL     1      10.071  12.316   9.033  0.00  0.00    +0.000 A 
ENDBRANCH   1   6
BRANCH   1   9
ATOM      9  C   UNL     1       9.039  10.495   4.563  0.00  0.00    +0.000 C 
BRANCH   9  10
ATOM     10  C   UNL     1       8.746   9.028   4.964  0.00  0.00    +0.000 C 
ATOM     11  C   UNL     1       7.478   8.521   4.286  0.00  0.00    +0.000 C 
BRANCH  10  12
ATOM     12  O   UNL     1       9.827   8.165   4.585  0.00  0.00    +0.000 OA
ATOM     13  H   UNL     1       9.869   8.142   3.614  0.00  0.00    +0.000 HD
ENDBRANCH  10  12
ENDBRANCH   9  10
ENDBRANCH   1   9
BRANCH   1  14
ATOM     14  C   UNL     1       7.717  12.499   5.263  0.00  0.00    +0.000 C 
BRANCH  14  15
ATOM     15  C   UNL     1       6.269  12.074   5.605  0.00  0.00    +0.000 C 
ATOM     16  C   UNL     1       5.493  13.144   6.364  0.00  0.00    +0.000 C 
BRANCH  15  17
ATOM     17  O   UNL     1       5.527  11.737   4.434  0.00  0.00    +0.000 OA
ATOM     18  H   UNL     1       6.193  11.406   3.799  0.00  0.00    +0.000 HD
ENDBRANCH  15  17
ENDBRANCH  14  15
ENDBRANCH   1  14
TORSDOF 7
ENDMDL
MODEL 8
REMARK VINA RESULT:    -3.842     19.381     20.929
REMARK INTER + INTRA:          -5.829
REMARK INTER:                  -5.338
REMARK INTRA:                  -0.491
REMARK UNBOUND:                -0.639
REMARK  Name = 
REMARK  10 active torsions:
REMARK  status: ('A' for Active; 'I' for Inactive)
REMARK    1  A    between atoms: C_1  and  C_2
REMARK    2  A    between atoms: C_5  and  N_8
REMARK    3  A    between atoms: N_8  and  C_9
REMARK    4  A    between atoms: N_8  and  C_13
REMARK    5  A    between atoms: C_9  and  C_10
REMARK    6  A    between atoms: C_10  and  C_11
REMARK    7  A    between atoms: C_10  and  O_12
REMARK    8  A    between atoms: C_13  and  C_14
REMARK    9  A    between atoms: C_14  and  C_15
REMARK   10  A    between atoms: C_14  and  O_16
REMARK                            x       y       z     vdW  Elec       q    Type
REMARK                         _______ _______ _______ _____ _____    ______ ____
ROOT
ATOM      1  N   UNL     1       1.632   9.460  25.484  0.00  0.00    +0.000 N 
ENDROOT
BRANCH   1   6
ATOM      2  C   UNL     1       7.358   9.440  24.750  0.00  0.00    +0.000 C 
ATOM      3  C   UNL     1       5.870   9.458  24.919  0.00  0.00    +0.000 A 
ATOM      4  C   UNL     1       5.248  10.456  25.662  0.00  0.00    +0.000 A 
ATOM      5  C   UNL     1       3.855  10.452  25.843  0.00  0.00    +0.000 A 
ATOM      6  C   UNL     1       3.023   9.448  25.316  0.00  0.00    +0.000 A 
ATOM      7  C   UNL     1       3.685   8.457  24.569  0.00  0.00    +0.000 A 
ATOM      8  C   UNL     1       5.077   8.450  24.379  0.00  0.00    +0.000 A 
ENDBRANCH   1   6
BRANCH   1   9
ATOM      9  C   UNL     1       0.781   8.533  24.701  0.00  0.00    +0.000 C 
BRANCH   9  10
ATOM     10  C   UNL     1       0.308   7.311  25.526  0.00  0.00    +0.000 C 
ATOM     11  C   UNL     1      -1.083   7.547  26.102  0.00  0.00    +0.000 C 
BRANCH  10  12
ATOM     12  O   UNL     1       0.258   6.130  24.713  0.00  0.00    +0.000 OA
ATOM     13  H   UNL     1       1.120   6.027  24.277  0.00  0.00    +0.000 HD
ENDBRANCH  10  12
ENDBRANCH   9  10
ENDBRANCH   1   9
BRANCH   1  14
ATOM     14  C   UNL     1       0.932  10.661  26.006  0.00  0.00    +0.000 C 
BRANCH  14  15
ATOM     15  C   UNL     1      -0.348  10.988  25.199  0.00  0.00    +0.000 C 
ATOM     16  C   UNL     1      -1.537  11.351  26.081  0.00  0.00    +0.000 C 
BRANCH  15  17
ATOM     17  O   UNL     1      -0.134  12.061  24.283  0.00  0.00    +0.000 OA
ATOM     18  H   UNL     1      -0.993  12.182  23.831  0.00  0.00    +0.000 HD
ENDBRANCH  15  17
ENDBRANCH  14  15
ENDBRANCH   1  14
TORSDOF 7
ENDMDL
MODEL 9
REMARK VINA RESULT:    -3.726     19.674     20.712
REMARK INTER + INTRA:          -5.672
REMARK INTER:                  -5.564
REMARK INTRA:                  -0.108
REMARK UNBOUND:                -0.639
REMARK  Name = 
REMARK  10 active torsions:
REMARK  status: ('A' for Active; 'I' for Inactive)
REMARK    1  A    between atoms: C_1  and  C_2
REMARK    2  A    between atoms: C_5  and  N_8
REMARK    3  A    between atoms: N_8  and  C_9
REMARK    4  A    between atoms: N_8  and  C_13
REMARK    5  A    between atoms: C_9  and  C_10
REMARK    6  A    between atoms: C_10  and  C_11
REMARK    7  A    between atoms: C_10  and  O_12
REMARK    8  A    between atoms: C_13  and  C_14
REMARK    9  A    between atoms: C_14  and  C_15
REMARK   10  A    between atoms: C_14  and  O_16
REMARK                            x       y       z     vdW  Elec       q    Type
REMARK                         _______ _______ _______ _____ _____    ______ ____
ROOT
ATOM      1  N   UNL     1       1.741  10.319  25.494  0.00  0.00    +0.000 N 
ENDROOT
BRANCH   1   6
ATOM      2  C   UNL     1       7.464   9.658  25.123  0.00  0.00    +0.000 C 
ATOM      3  C   UNL     1       5.980   9.823  25.244  0.00  0.00    +0.000 A 
ATOM      4  C   UNL     1       5.118   8.770  24.955  0.00  0.00    +0.000 A 
ATOM      5  C   UNL     1       3.727   8.939  25.041  0.00  0.00    +0.000 A 
ATOM      6  C   UNL     1       3.129  10.163  25.392  0.00  0.00    +0.000 A 
ATOM      7  C   UNL     1       4.030  11.205  25.678  0.00  0.00    +0.000 A 
ATOM      8  C   UNL     1       5.423  11.048  25.599  0.00  0.00    +0.000 A 
ENDBRANCH   1   6
BRANCH   1   9
ATOM      9  C   UNL     1       1.159  11.662  25.728  0.00  0.00    +0.000 C 
BRANCH   9  10
ATOM     10  C   UNL     1      -0.299  11.782  25.220  0.00  0.00    +0.000 C 
ATOM     11  C   UNL     1      -1.216  12.311  26.316  0.00  0.00    +0.000 C 
BRANCH  10  12
ATOM     12  O   UNL     1      -0.382  12.675  24.101  0.00  0.00    +0.000 OA
ATOM     13  H   UNL     1      -1.185  13.214  24.205  0.00  0.00    +0.000 HD
ENDBRANCH  10  12
ENDBRANCH   9  10
ENDBRANCH   1   9
BRANCH   1  14
ATOM     14  C   UNL     1       0.866   9.183  25.883  0.00  0.00    +0.000 C 
BRANCH  14  15
ATOM     15  C   UNL     1       0.543   8.257  24.686  0.00  0.00    +0.000 C 
ATOM     16  C   UNL     1       0.037   6.883  25.109  0.00  0.00    +0.000 C 
BRANCH  15  17
ATOM     17  O   UNL     1      -0.429   8.838  23.817  0.00  0.00    +0.000 OA
ATOM     18  H   UNL     1      -0.017   9.663  23.492  0.00  0.00    +0.000 HD
ENDBRANCH  15  17
ENDBRANCH  14  15
ENDBRANCH   1  14
TORSDOF 7
ENDMDL
