MODEL 1
REMARK VINA RESULT:    -5.445      0.000      0.000
REMARK INTER + INTRA:          -8.114
REMARK INTER:                  -7.355
REMARK INTRA:                  -0.759
REMARK UNBOUND:                -0.759
REMARK  Name = 
REMARK  10 active torsions:
REMARK  status: ('A' for Active; 'I' for Inactive)
REMARK    1  A    between atoms: C_1  and  C_2
REMARK    2  A    between atoms: C_5  and  N_8
REMARK    3  A    between atoms: N_8  and  C_9
REMARK    4  A    between atoms: N_8  and  C_13
REMARK    5  A    between atoms: C_9  and  C_10
REMARK    6  A    between atoms: C_10  and  C_11
REMARK    7  A    between atoms: C_10  and  O_12
REMARK    8  A    between atoms: C_13  and  C_14
REMARK    9  A    between atoms: C_14  and  C_15
REMARK   10  A    between atoms: C_14  and  O_16
REMARK                            x       y       z     vdW  Elec       q    Type
REMARK                         _______ _______ _______ _____ _____    ______ ____
ROOT
ATOM      1  N   UNL     1       5.147  14.009   5.702  0.00  0.00    +0.000 N 
ENDROOT
BRANCH   1   6
ATOM      2  C   UNL     1       6.756  12.730   0.308  0.00  0.00    +0.000 C 
ATOM      3  C   UNL     1       6.353  13.044   1.716  0.00  0.00    +0.000 A 
ATOM      4  C   UNL     1       5.244  12.436   2.295  0.00  0.00    +0.000 A 
ATOM      5  C   UNL     1       4.854  12.756   3.605  0.00  0.00    +0.000 A 
ATOM      6  C   UNL     1       5.530  13.708   4.389  0.00  0.00    +0.000 A 
ATOM      7  C   UNL     1       6.647  14.302   3.773  0.00  0.00    +0.000 A 
ATOM      8  C   UNL     1       7.050  13.989   2.464  0.00  0.00    +0.000 A 
ENDBRANCH   1   6
BRANCH   1   9
ATOM      9  C   UNL     1       4.377  15.243   5.988  0.00  0.00    +0.000 C 
BRANCH   9  10
ATOM     10  C   UNL     1       2.848  15.001   6.031  0.00  0.00    +0.000 C 
ATOM     11  C   UNL     1       2.233  15.156   4.646  0.00  0.00    +0.000 C 
BRANCH  10  12
ATOM     12  O   UNL     1       2.550  13.680   6.504  0.00  0.00    +0.000 OA
ATOM     13  H   UNL     1       1.624  13.483   6.284  0.00  0.00    +0.000 HD
ENDBRANCH  10  12
ENDBRANCH   9  10
ENDBRANCH   1   9
BRANCH   1  14
ATOM     14  C   UNL     1       5.882  13.448   6.865  0.00  0.00    +0.000 C 
BRANCH  14  15
ATOM     15  C   UNL     1       5.550  11.954   7.101  0.00  0.00    +0.000 C 
ATOM     16  C   UNL     1       6.522  11.268   8.054  0.00  0.00    +0.000 C 
BRANCH  15  17
ATOM     17  O   UNL     1       4.231  11.782   7.615  0.00  0.00    +0.000 OA
ATOM     18  H   UNL     1       4.093  12.540   8.217  0.00  0.00    +0.000 HD
ENDBRANCH  15  17
ENDBRANCH  14  15
ENDBRANCH   1  14
TORSDOF 7
ENDMDL
MODEL 2
REMARK VINA RESULT:    -5.439      0.048      1.191
REMARK INTER + INTRA:          -8.106
REMARK INTER:                  -7.339
REMARK INTRA:                  -0.767
REMARK UNBOUND:                -0.759
REMARK  Name = 
REMARK  10 active torsions:
REMARK  status: ('A' for Active; 'I' for Inactive)
REMARK    1  A    between atoms: C_1  and  C_2
REMARK    2  A    between atoms: C_5  and  N_8
REMARK    3  A    between atoms: N_8  and  C_9
REMARK    4  A    between atoms: N_8  and  C_13
REMARK    5  A    between atoms: C_9  and  C_10
REMARK    6  A    between atoms: C_10  and  C_11
REMARK    7  A    between atoms: C_10  and  O_12
REMARK    8  A    between atoms: C_13  and  C_14
REMARK    9  A    between atoms: C_14  and  C_15
REMARK   10  A    between atoms: C_14  and  O_16
REMARK                            x       y       z     vdW  Elec       q    Type
REMARK                         _______ _______ _______ _____ _____    ______ ____
ROOT
ATOM      1  N   UNL     1       5.135  13.994   5.722  0.00  0.00    +0.000 N 
ENDROOT
BRANCH   1   6
ATOM      2  C   UNL     1       6.787  12.788   0.324  0.00  0.00    +0.000 C 
ATOM      3  C   UNL     1       6.344  13.119   1.716  0.00  0.00    +0.000 A 
ATOM      4  C   UNL     1       7.059  14.020   2.498  0.00  0.00    +0.000 A 
ATOM      5  C   UNL     1       6.656  14.303   3.813  0.00  0.00    +0.000 A 
ATOM      6  C   UNL     1       5.543  13.691   4.417  0.00  0.00    +0.000 A 
ATOM      7  C   UNL     1       4.842  12.789   3.596  0.00  0.00    +0.000 A 
ATOM      8  C   UNL     1       5.233  12.497   2.279  0.00  0.00    +0.000 A 
ENDBRANCH   1   6
BRANCH   1   9
ATOM      9  C   UNL     1       4.356  15.226   5.991  0.00  0.00    +0.000 C 
BRANCH   9  10
ATOM     10  C   UNL     1       2.830  14.970   6.050  0.00  0.00    +0.000 C 
ATOM     11  C   UNL     1       2.196  15.137   4.674  0.00  0.00    +0.000 C 
BRANCH  10  12
ATOM     12  O   UNL     1       2.548  13.642   6.511  0.00  0.00    +0.000 OA
ATOM     13  H   UNL     1       3.290  13.352   7.067  0.00  0.00    +0.000 HD
ENDBRANCH  10  12
ENDBRANCH   9  10
ENDBRANCH   1   9
BRANCH   1  14
ATOM     14  C   UNL     1       5.851  13.439   6.900  0.00  0.00    +0.000 C 
BRANCH  14  15
ATOM     15  C   UNL     1       5.561  11.932   7.103  0.00  0.00    +0.000 C 
ATOM     16  C   UNL     1       6.546  11.255   8.048  0.00  0.00    +0.000 C 
BRANCH  15  17
ATOM     17  O   UNL     1       4.244  11.712   7.605  0.00  0.00    +0.000 OA
ATOM     18  H   UNL     1       3.997  10.821   7.284  0.00  0.00    +0.000 HD
ENDBRANCH  15  17
ENDBRANCH  14  15
ENDBRANCH   1  14
TORSDOF 7
ENDMDL
MODEL 3
REMARK VINA RESULT:    -5.406      1.319      3.405
REMARK INTER + INTRA:          -8.060
REMARK INTER:                  -7.573
REMARK INTRA:                  -0.487
REMARK UNBOUND:                -0.759
REMARK  Name = 
REMARK  10 active torsions:
REMARK  status: ('A' for Active; 'I' for Inactive)
REMARK    1  A    between atoms: C_1  and  C_2
REMARK    2  A    between atoms: C_5  and  N_8
REMARK    3  A    between atoms: N_8  and  C_9
REMARK    4  A    between atoms: N_8  and  C_13
REMARK    5  A    between atoms: C_9  and  C_10
REMARK    6  A    between atoms: C_10  and  C_11
REMARK    7  A    between atoms: C_10  and  O_12
REMARK    8  A    between atoms: C_13  and  C_14
REMARK    9  A    between atoms: C_14  and  C_15
REMARK   10  A    between atoms: C_14  and  O_16
REMARK                            x       y       z     vdW  Elec       q    Type
REMARK                         _______ _______ _______ _____ _____    ______ ____
ROOT
ATOM      1  N   UNL     1       4.369  13.398   4.513  0.00  0.00    +0.000 N 
ENDROOT
BRANCH   1   6
ATOM      2  C   UNL     1       7.892  12.783  -0.018  0.00  0.00    +0.000 C 
ATOM      3  C   UNL     1       6.963  12.958   1.144  0.00  0.00    +0.000 A 
ATOM      4  C   UNL     1       7.175  13.961   2.083  0.00  0.00    +0.000 A 
ATOM      5  C   UNL     1       6.318  14.101   3.187  0.00  0.00    +0.000 A 
ATOM      6  C   UNL     1       5.231  13.240   3.421  0.00  0.00    +0.000 A 
ATOM      7  C   UNL     1       5.046  12.239   2.450  0.00  0.00    +0.000 A 
ATOM      8  C   UNL     1       5.894  12.089   1.340  0.00  0.00    +0.000 A 
ENDBRANCH   1   6
BRANCH   1   9
ATOM      9  C   UNL     1       4.531  12.547   5.717  0.00  0.00    +0.000 C 
BRANCH   9  10
ATOM     10  C   UNL     1       5.804  12.893   6.529  0.00  0.00    +0.000 C 
ATOM     11  C   UNL     1       5.462  13.765   7.732  0.00  0.00    +0.000 C 
BRANCH  10  12
ATOM     12  O   UNL     1       6.446  11.705   7.010  0.00  0.00    +0.000 OA
ATOM     13  H   UNL     1       5.963  10.938   6.661  0.00  0.00    +0.000 HD
ENDBRANCH  10  12
ENDBRANCH   9  10
ENDBRANCH   1   9
BRANCH   1  14
ATOM     14  C   UNL     1       3.018  13.993   4.348  0.00  0.00    +0.000 C 
BRANCH  14  15
ATOM     15  C   UNL     1       2.391  14.404   5.701  0.00  0.00    +0.000 C 
ATOM     16  C   UNL     1       2.661  15.857   6.072  0.00  0.00    +0.000 C 
BRANCH  15  17
ATOM     17  O   UNL     1       0.978  14.201   5.711  0.00  0.00    +0.000 OA
ATOM     18  H   UNL     1       0.833  13.410   5.154  0.00  0.00    +0.000 HD
ENDBRANCH  15  17
ENDBRANCH  14  15
ENDBRANCH   1  14
TORSDOF 7
ENDMDL
MODEL 4
REMARK VINA RESULT:    -5.318      1.473      3.132
REMARK INTER + INTRA:          -7.942
REMARK INTER:                  -7.405
REMARK INTRA:                  -0.537
REMARK UNBOUND:                -0.759
REMARK  Name = 
REMARK  10 active torsions:
REMARK  status: ('A' for Active; 'I' for Inactive)
REMARK    1  A    between atoms: C_1  and  C_2
REMARK    2  A    between atoms: C_5  and  N_8
REMARK    3  A    between atoms: N_8  and  C_9
REMARK    4  A    between atoms: N_8  and  C_13
REMARK    5  A    between atoms: C_9  and  C_10
REMARK    6  A    between atoms: C_10  and  C_11
REMARK    7  A    between atoms: C_10  and  O_12
REMARK    8  A    between atoms: C_13  and  C_14
REMARK    9  A    between atoms: C_14  and  C_15
REMARK   10  A    between atoms: C_14  and  O_16
REMARK                            x       y       z     vdW  Elec       q    Type
REMARK                         _______ _______ _______ _____ _____    ______ ____
ROOT
ATOM      1  N   UNL     1       4.345  13.648   4.782  0.00  0.00    +0.000 N 
ENDROOT
BRANCH   1   6
ATOM      2  C   UNL     1       7.533  12.654   0.073  0.00  0.00    +0.000 C 
ATOM      3  C   UNL     1       6.722  12.899   1.309  0.00  0.00    +0.000 A 
ATOM      4  C   UNL     1       5.672  12.054   1.653  0.00  0.00    +0.000 A 
ATOM      5  C   UNL     1       4.895  12.305   2.796  0.00  0.00    +0.000 A 
ATOM      6  C   UNL     1       5.110  13.415   3.633  0.00  0.00    +0.000 A 
ATOM      7  C   UNL     1       6.181  14.246   3.257  0.00  0.00    +0.000 A 
ATOM      8  C   UNL     1       6.967  14.005   2.117  0.00  0.00    +0.000 A 
ENDBRANCH   1   6
BRANCH   1   9
ATOM      9  C   UNL     1       4.607  12.875   6.020  0.00  0.00    +0.000 C 
BRANCH   9  10
ATOM     10  C   UNL     1       5.730  13.494   6.888  0.00  0.00    +0.000 C 
ATOM     11  C   UNL     1       7.073  12.841   6.587  0.00  0.00    +0.000 C 
BRANCH  10  12
ATOM     12  O   UNL     1       5.854  14.901   6.641  0.00  0.00    +0.000 OA
ATOM     13  H   UNL     1       6.517  15.027   5.942  0.00  0.00    +0.000 HD
ENDBRANCH  10  12
ENDBRANCH   9  10
ENDBRANCH   1   9
BRANCH   1  14
ATOM     14  C   UNL     1       2.987  14.243   4.694  0.00  0.00    +0.000 C 
BRANCH  14  15
ATOM     15  C   UNL     1       2.354  14.467   6.088  0.00  0.00    +0.000 C 
ATOM     16  C   UNL     1       2.539  15.887   6.610  0.00  0.00    +0.000 C 
BRANCH  15  17
ATOM     17  O   UNL     1       0.958  14.175   6.087  0.00  0.00    +0.000 OA
ATOM     18  H   UNL     1       0.900  13.217   5.897  0.00  0.00    +0.000 HD
ENDBRANCH  15  17
ENDBRANCH  14  15
ENDBRANCH   1  14
TORSDOF 7
ENDMDL
MODEL 5
REMARK VINA RESULT:    -5.271      1.823      3.285
REMARK INTER + INTRA:          -7.879
REMARK INTER:                  -7.382
REMARK INTRA:                  -0.497
REMARK UNBOUND:                -0.759
REMARK  Name = 
REMARK  10 active torsions:
REMARK  status: ('A' for Active; 'I' for Inactive)
REMARK    1  A    between atoms: C_1  and  C_2
REMARK    2  A    between atoms: C_5  and  N_8
REMARK    3  A    between atoms: N_8  and  C_9
REMARK    4  A    between atoms: N_8  and  C_13
REMARK    5  A    between atoms: C_9  and  C_10
REMARK    6  A    between atoms: C_10  and  C_11
REMARK    7  A    between atoms: C_10  and  O_12
REMARK    8  A    between atoms: C_13  and  C_14
REMARK    9  A    between atoms: C_14  and  C_15
REMARK   10  A    between atoms: C_14  and  O_16
REMARK                            x       y       z     vdW  Elec       q    Type
REMARK                         _______ _______ _______ _____ _____    ______ ____
ROOT
ATOM      1  N   UNL     1       4.957  14.459   5.240  0.00  0.00    +0.000 N 
ENDROOT
BRANCH   1   6
ATOM      2  C   UNL     1       6.624  12.148   0.220  0.00  0.00    +0.000 C 
ATOM      3  C   UNL     1       6.173  12.760   1.511  0.00  0.00    +0.000 A 
ATOM      4  C   UNL     1       6.735  13.945   1.974  0.00  0.00    +0.000 A 
ATOM      5  C   UNL     1       6.330  14.498   3.199  0.00  0.00    +0.000 A 
ATOM      6  C   UNL     1       5.370  13.891   4.029  0.00  0.00    +0.000 A 
ATOM      7  C   UNL     1       4.822  12.696   3.528  0.00  0.00    +0.000 A 
ATOM      8  C   UNL     1       5.216  12.133   2.303  0.00  0.00    +0.000 A 
ENDBRANCH   1   6
BRANCH   1   9
ATOM      9  C   UNL     1       5.868  15.357   5.990  0.00  0.00    +0.000 C 
BRANCH   9  10
ATOM     10  C   UNL     1       5.573  16.856   5.739  0.00  0.00    +0.000 C 
ATOM     11  C   UNL     1       5.289  17.582   7.049  0.00  0.00    +0.000 C 
BRANCH  10  12
ATOM     12  O   UNL     1       6.687  17.501   5.107  0.00  0.00    +0.000 OA
ATOM     13  H   UNL     1       6.359  17.964   4.318  0.00  0.00    +0.000 HD
ENDBRANCH  10  12
ENDBRANCH   9  10
ENDBRANCH   1   9
BRANCH   1  14
ATOM     14  C   UNL     1       3.887  13.832   6.058  0.00  0.00    +0.000 C 
BRANCH  14  15
ATOM     15  C   UNL     1       2.579  14.660   6.043  0.00  0.00    +0.000 C 
ATOM     16  C   UNL     1       2.256  15.246   4.674  0.00  0.00    +0.000 C 
BRANCH  15  17
ATOM     17  O   UNL     1       1.459  13.884   6.467  0.00  0.00    +0.000 OA
ATOM     18  H   UNL     1       1.628  12.985   6.118  0.00  0.00    +0.000 HD
ENDBRANCH  15  17
ENDBRANCH  14  15
ENDBRANCH   1  14
TORSDOF 7
ENDMDL
MODEL 6
REMARK VINA RESULT:    -5.164      1.980      2.258
REMARK INTER + INTRA:          -7.735
REMARK INTER:                  -7.002
REMARK INTRA:                  -0.733
REMARK UNBOUND:                -0.759
REMARK  Name = 
REMARK  10 active torsions:
REMARK  status: ('A' for Active; 'I' for Inactive)
REMARK    1  A    between atoms: C_1  and  C_2
REMARK    2  A    between atoms: C_5  and  N_8
REMARK    3  A    between atoms: N_8  and  C_9
REMARK    4  A    between atoms: N_8  and  C_13
REMARK    5  A    between atoms: C_9  and  C_10
REMARK    6  A    between atoms: C_10  and  C_11
REMARK    7  A    between atoms: C_10  and  O_12
REMARK    8  A    between atoms: C_13  and  C_14
REMARK    9  A    between atoms: C_14  and  C_15
REMARK   10  A    between atoms: C_14  and  O_16
REMARK                            x       y       z     vdW  Elec       q    Type
REMARK                         _______ _______ _______ _____ _____    ______ ____
ROOT
ATOM      1  N   UNL     1       5.056  14.472   5.236  0.00  0.00    +0.000 N 
ENDROOT
BRANCH   1   6
ATOM      2  C   UNL     1       6.801  12.180   0.232  0.00  0.00    +0.000 C 
ATOM      3  C   UNL     1       6.362  12.759   1.543  0.00  0.00    +0.000 A 
ATOM      4  C   UNL     1       5.227  12.283   2.190  0.00  0.00    +0.000 A 
ATOM      5  C   UNL     1       4.804  12.849   3.403  0.00  0.00    +0.000 A 
ATOM      6  C   UNL     1       5.472  13.925   4.015  0.00  0.00    +0.000 A 
ATOM      7  C   UNL     1       6.617  14.379   3.335  0.00  0.00    +0.000 A 
ATOM      8  C   UNL     1       7.052  13.820   2.122  0.00  0.00    +0.000 A 
ENDBRANCH   1   6
BRANCH   1   9
ATOM      9  C   UNL     1       3.781  14.032   5.851  0.00  0.00    +0.000 C 
BRANCH   9  10
ATOM     10  C   UNL     1       2.642  15.067   5.675  0.00  0.00    +0.000 C 
ATOM     11  C   UNL     1       1.402  14.416   5.073  0.00  0.00    +0.000 C 
BRANCH  10  12
ATOM     12  O   UNL     1       2.273  15.644   6.935  0.00  0.00    +0.000 OA
ATOM     13  H   UNL     1       1.316  15.815   6.920  0.00  0.00    +0.000 HD
ENDBRANCH  10  12
ENDBRANCH   9  10
ENDBRANCH   1   9
BRANCH   1  14
ATOM     14  C   UNL     1       5.542  15.800   5.688  0.00  0.00    +0.000 C 
BRANCH  14  15
ATOM     15  C   UNL     1       5.866  15.819   7.202  0.00  0.00    +0.000 C 
ATOM     16  C   UNL     1       7.278  16.305   7.507  0.00  0.00    +0.000 C 
BRANCH  15  17
ATOM     17  O   UNL     1       4.950  16.639   7.926  0.00  0.00    +0.000 OA
ATOM     18  H   UNL     1       5.417  17.490   8.050  0.00  0.00    +0.000 HD
ENDBRANCH  15  17
ENDBRANCH  14  15
ENDBRANCH   1  14
TORSDOF 7
ENDMDL
MODEL 7
REMARK VINA RESULT:    -4.983      2.346      4.323
REMARK INTER + INTRA:          -7.489
REMARK INTER:                  -6.730
REMARK INTRA:                  -0.759
REMARK UNBOUND:                -0.759
REMARK  Name = 
REMARK  10 active torsions:
REMARK  status: ('A' for Active; 'I' for Inactive)
REMARK    1  A    between atoms: C_1  and  C_2
REMARK    2  A    between atoms: C_5  and  N_8
REMARK    3  A    between atoms: N_8  and  C_9
REMARK    4  A    between atoms: N_8  and  C_13
REMARK    5  A    between atoms: C_9  and  C_10
REMARK    6  A    between atoms: C_10  and  C_11
REMARK    7  A    between atoms: C_10  and  O_12
REMARK    8  A    between atoms: C_13  and  C_14
REMARK    9  A    between atoms: C_14  and  C_15
REMARK   10  A    between atoms: C_14  and  O_16
REMARK                            x       y       z     vdW  Elec       q    Type
REMARK                         _______ _______ _______ _____ _____    ______ ____
ROOT
ATOM      1  N   UNL     1       5.664  14.318   4.372  0.00  0.00    +0.000 N 
ENDROOT
BRANCH   1   6
ATOM      2  C   UNL     1      10.929  13.009   6.345  0.00  0.00    +0.000 C 
ATOM      3  C   UNL     1       9.561  13.326   5.824  0.00  0.00    +0.000 A 
ATOM      4  C   UNL     1       9.389  13.890   4.565  0.00  0.00    +0.000 A 
ATOM      5  C   UNL     1       8.106  14.212   4.093  0.00  0.00    +0.000 A 
ATOM      6  C   UNL     1       6.942  14.012   4.857  0.00  0.00    +0.000 A 
ATOM      7  C   UNL     1       7.153  13.438   6.124  0.00  0.00    +0.000 A 
ATOM      8  C   UNL     1       8.430  13.109   6.607  0.00  0.00    +0.000 A 
ENDBRANCH   1   6
BRANCH   1   9
ATOM      9  C   UNL     1       5.401  14.316   2.913  0.00  0.00    +0.000 C 
BRANCH   9  10
ATOM     10  C   UNL     1       5.057  12.908   2.367  0.00  0.00    +0.000 C 
ATOM     11  C   UNL     1       6.135  12.416   1.409  0.00  0.00    +0.000 C 
BRANCH  10  12
ATOM     12  O   UNL     1       4.943  11.956   3.434  0.00  0.00    +0.000 OA
ATOM     13  H   UNL     1       5.265  11.099   3.109  0.00  0.00    +0.000 HD
ENDBRANCH  10  12
ENDBRANCH   9  10
ENDBRANCH   1   9
BRANCH   1  14
ATOM     14  C   UNL     1       4.709  15.123   5.177  0.00  0.00    +0.000 C 
BRANCH  14  15
ATOM     15  C   UNL     1       3.468  14.302   5.604  0.00  0.00    +0.000 C 
ATOM     16  C   UNL     1       2.275  14.491   4.675  0.00  0.00    +0.000 C 
BRANCH  15  17
ATOM     17  O   UNL     1       3.758  12.907   5.674  0.00  0.00    +0.000 OA
ATOM     18  H   UNL     1       4.725  12.842   5.542  0.00  0.00    +0.000 HD
ENDBRANCH  15  17
ENDBRANCH  14  15
ENDBRANCH   1  14
TORSDOF 7
ENDMDL
MODEL 8
REMARK VINA RESULT:    -4.836      3.156      5.602
REMARK INTER + INTRA:          -7.291
REMARK INTER:                  -6.788
REMARK INTRA:                  -0.503
REMARK UNBOUND:                -0.759
REMARK  Name = 
REMARK  10 active torsions:
REMARK  status: ('A' for Active; 'I' for Inactive)
REMARK    1  A    between atoms: C_1  and  C_2
REMARK    2  A    between atoms: C_5  and  N_8
REMARK    3  A    between atoms: N_8  and  C_9
REMARK    4  A    between atoms: N_8  and  C_13
REMARK    5  A    between atoms: C_9  and  C_10
REMARK    6  A    between atoms: C_10  and  C_11
REMARK    7  A    between atoms: C_10  and  O_12
REMARK    8  A    between atoms: C_13  and  C_14
REMARK    9  A    between atoms: C_14  and  C_15
REMARK   10  A    between atoms: C_14  and  O_16
REMARK                            x       y       z     vdW  Elec       q    Type
REMARK                         _______ _______ _______ _____ _____    ______ ____
ROOT
ATOM      1  N   UNL     1       6.690  13.975   4.012  0.00  0.00    +0.000 N 
ENDROOT
BRANCH   1   6
ATOM      2  C   UNL     1       1.171  14.666   5.558  0.00  0.00    +0.000 C 
ATOM      3  C   UNL     1       2.607  14.472   5.177  0.00  0.00    +0.000 A 
ATOM      4  C   UNL     1       3.585  15.365   5.601  0.00  0.00    +0.000 A 
ATOM      5  C   UNL     1       4.925  15.195   5.216  0.00  0.00    +0.000 A 
ATOM      6  C   UNL     1       5.349  14.150   4.376  0.00  0.00    +0.000 A 
ATOM      7  C   UNL     1       4.334  13.265   3.968  0.00  0.00    +0.000 A 
ATOM      8  C   UNL     1       2.991  13.422   4.348  0.00  0.00    +0.000 A 
ENDBRANCH   1   6
BRANCH   1   9
ATOM      9  C   UNL     1       7.735  13.853   5.057  0.00  0.00    +0.000 C 
BRANCH   9  10
ATOM     10  C   UNL     1       9.104  14.419   4.606  0.00  0.00    +0.000 C 
ATOM     11  C   UNL     1       9.504  15.619   5.457  0.00  0.00    +0.000 C 
BRANCH  10  12
ATOM     12  O   UNL     1      10.134  13.428   4.724  0.00  0.00    +0.000 OA
ATOM     13  H   UNL     1      10.986  13.855   4.531  0.00  0.00    +0.000 HD
ENDBRANCH  10  12
ENDBRANCH   9  10
ENDBRANCH   1   9
BRANCH   1  14
ATOM     14  C   UNL     1       7.188  14.406   2.680  0.00  0.00    +0.000 C 
BRANCH  14  15
ATOM     15  C   UNL     1       7.078  13.280   1.624  0.00  0.00    +0.000 C 
ATOM     16  C   UNL     1       6.016  13.552   0.565  0.00  0.00    +0.000 C 
BRANCH  15  17
ATOM     17  O   UNL     1       8.321  13.059   0.957  0.00  0.00    +0.000 OA
ATOM     18  H   UNL     1       8.515  12.110   1.092  0.00  0.00    +0.000 HD
ENDBRANCH  15  17
ENDBRANCH  14  15
ENDBRANCH   1  14
TORSDOF 7
ENDMDL
MODEL 9
REMARK VINA RESULT:    -4.784      2.582      3.927
REMARK INTER + INTRA:          -7.221
REMARK INTER:                  -6.476
REMARK INTRA:                  -0.745
REMARK UNBOUND:                -0.759
REMARK  Name = 
REMARK  10 active torsions:
REMARK  status: ('A' for Active; 'I' for Inactive)
REMARK    1  A    between atoms: C_1  and  C_2
REMARK    2  A    between atoms: C_5  and  N_8
REMARK    3  A    between atoms: N_8  and  C_9
REMARK    4  A    between atoms: N_8  and  C_13
REMARK    5  A    between atoms: C_9  and  C_10
REMARK    6  A    between atoms: C_10  and  C_11
REMARK    7  A    between atoms: C_10  and  O_12
REMARK    8  A    between atoms: C_13  and  C_14
REMARK    9  A    between atoms: C_14  and  C_15
REMARK   10  A    between atoms: C_14  and  O_16
REMARK                            x       y       z     vdW  Elec       q    Type
REMARK                         _______ _______ _______ _____ _____    ______ ____
ROOT
ATOM      1  N   UNL     1       6.385  14.930   5.493  0.00  0.00    +0.000 N 
ENDROOT
BRANCH   1   6
ATOM      2  C   UNL     1       5.709  11.936   0.604  0.00  0.00    +0.000 C 
ATOM      3  C   UNL     1       5.900  12.695   1.881  0.00  0.00    +0.000 A 
ATOM      4  C   UNL     1       5.047  12.502   2.962  0.00  0.00    +0.000 A 
ATOM      5  C   UNL     1       5.212  13.238   4.146  0.00  0.00    +0.000 A 
ATOM      6  C   UNL     1       6.214  14.213   4.303  0.00  0.00    +0.000 A 
ATOM      7  C   UNL     1       7.060  14.381   3.191  0.00  0.00    +0.000 A 
ATOM      8  C   UNL     1       6.907  13.650   2.001  0.00  0.00    +0.000 A 
ENDBRANCH   1   6
BRANCH   1   9
ATOM      9  C   UNL     1       7.738  15.083   6.081  0.00  0.00    +0.000 C 
BRANCH   9  10
ATOM     10  C   UNL     1       8.281  16.529   5.969  0.00  0.00    +0.000 C 
ATOM     11  C   UNL     1       9.714  16.534   5.450  0.00  0.00    +0.000 C 
BRANCH  10  12
ATOM     12  O   UNL     1       7.481  17.311   5.072  0.00  0.00    +0.000 OA
ATOM     13  H   UNL     1       7.622  18.249   5.283  0.00  0.00    +0.000 HD
ENDBRANCH  10  12
ENDBRANCH   9  10
ENDBRANCH   1   9
BRANCH   1  14
ATOM     14  C   UNL     1       5.264  15.109   6.452  0.00  0.00    +0.000 C 
BRANCH  14  15
ATOM     15  C   UNL     1       4.286  16.222   6.006  0.00  0.00    +0.000 C 
ATOM     16  C   UNL     1       2.945  16.166   6.729  0.00  0.00    +0.000 C 
BRANCH  15  17
ATOM     17  O   UNL     1       4.841  17.521   6.203  0.00  0.00    +0.000 OA
ATOM     18  H   UNL     1       4.680  17.994   5.362  0.00  0.00    +0.000 HD
ENDBRANCH  15  17
ENDBRANCH  14  15
ENDBRANCH   1  14
TORSDOF 7
ENDMDL
