MODEL 1
REMARK VINA RESULT:    -4.961      0.000      0.000
REMARK INTER + INTRA:          -5.448
REMARK INTER:                  -5.396
REMARK INTRA:                  -0.052
REMARK UNBOUND:                -0.052
REMARK  Name = 
REMARK  3 active torsions:
REMARK  status: ('A' for Active; 'I' for Inactive)
REMARK    1  A    between atoms: C_1  and  O_2
REMARK    2  A    between atoms: O_2  and  C_3
REMARK    3  A    between atoms: C_8  and  O_9
REMARK                            x       y       z     vdW  Elec       q    Type
REMARK                         _______ _______ _______ _____ _____    ______ ____
ROOT
ATOM      1  C   UNL     1       6.841  13.052   1.019  0.00  0.00    +0.000 A 
ATOM      2  C   UNL     1       6.939  13.879   2.137  0.00  0.00    +0.000 A 
ATOM      3  C   UNL     1       6.092  13.675   3.234  0.00  0.00    +0.000 A 
ATOM      4  C   UNL     1       5.148  12.647   3.218  0.00  0.00    +0.000 A 
ATOM      5  C   UNL     1       5.045  11.816   2.105  0.00  0.00    +0.000 A 
ATOM      6  C   UNL     1       5.888  12.026   1.021  0.00  0.00    +0.000 A 
ENDROOT
BRANCH   1   8
ATOM      7  C   UNL     1       9.000  12.934   0.033  0.00  0.00    +0.000 C 
ATOM      8  O   UNL     1       7.600  13.135  -0.121  0.00  0.00    +0.000 OA
ENDBRANCH   1   8
BRANCH   6   9
ATOM      9  O   UNL     1       5.768  11.196  -0.062  0.00  0.00    +0.000 OA
ATOM     10  H   UNL     1       6.533  10.593   0.002  0.00  0.00    +0.000 HD
ENDBRANCH   6   9
TORSDOF 2
ENDMDL
MODEL 2
REMARK VINA RESULT:    -4.743      2.025      3.423
REMARK INTER + INTRA:          -5.211
REMARK INTER:                  -5.160
REMARK INTRA:                  -0.051
REMARK UNBOUND:                -0.052
REMARK  Name = 
REMARK  3 active torsions:
REMARK  status: ('A' for Active; 'I' for Inactive)
REMARK    1  A    between atoms: C_1  and  O_2
REMARK    2  A    between atoms: O_2  and  C_3
REMARK    3  A    between atoms: C_8  and  O_9
REMARK                            x       y       z     vdW  Elec       q    Type
REMARK                         _______ _______ _______ _____ _____    ______ ____
ROOT
ATOM      1  C   UNL     1       5.333  12.900   2.741  0.00  0.00    +0.000 A 
ATOM      2  C   UNL     1       5.770  14.164   2.347  0.00  0.00    +0.000 A 
ATOM      3  C   UNL     1       6.235  14.369   1.041  0.00  0.00    +0.000 A 
ATOM      4  C   UNL     1       6.266  13.313   0.128  0.00  0.00    +0.000 A 
ATOM      5  C   UNL     1       5.832  12.047   0.514  0.00  0.00    +0.000 A 
ATOM      6  C   UNL     1       5.372  11.854   1.811  0.00  0.00    +0.000 A 
ENDROOT
BRANCH   1   8
ATOM      7  C   UNL     1       3.755  13.314   4.468  0.00  0.00    +0.000 C 
ATOM      8  O   UNL     1       4.856  12.557   3.980  0.00  0.00    +0.000 OA
ENDBRANCH   1   8
BRANCH   6   9
ATOM      9  O   UNL     1       4.951  10.601   2.167  0.00  0.00    +0.000 OA
ATOM     10  H   UNL     1       4.997  10.079   1.343  0.00  0.00    +0.000 HD
ENDBRANCH   6   9
TORSDOF 2
ENDMDL
MODEL 3
REMARK VINA RESULT:    -4.371      2.244      3.161
REMARK INTER + INTRA:          -4.806
REMARK INTER:                  -4.754
REMARK INTRA:                  -0.052
REMARK UNBOUND:                -0.052
REMARK  Name = 
REMARK  3 active torsions:
REMARK  status: ('A' for Active; 'I' for Inactive)
REMARK    1  A    between atoms: C_1  and  O_2
REMARK    2  A    between atoms: O_2  and  C_3
REMARK    3  A    between atoms: C_8  and  O_9
REMARK                            x       y       z     vdW  Elec       q    Type
REMARK                         _______ _______ _______ _____ _____    ______ ____
ROOT
ATOM      1  C   UNL     1       5.929  13.778   2.588  0.00  0.00    +0.000 A 
ATOM      2  C   UNL     1       6.713  13.958   1.449  0.00  0.00    +0.000 A 
ATOM      3  C   UNL     1       6.735  12.976   0.451  0.00  0.00    +0.000 A 
ATOM      4  C   UNL     1       5.976  11.812   0.588  0.00  0.00    +0.000 A 
ATOM      5  C   UNL     1       5.190  11.624   1.722  0.00  0.00    +0.000 A 
ATOM      6  C   UNL     1       5.175  12.604   2.707  0.00  0.00    +0.000 A 
ENDROOT
BRANCH   1   8
ATOM      7  C   UNL     1       7.003  14.936   4.363  0.00  0.00    +0.000 C 
ATOM      8  O   UNL     1       5.812  14.651   3.639  0.00  0.00    +0.000 OA
ENDBRANCH   1   8
BRANCH   6   9
ATOM      9  O   UNL     1       4.394  12.397   3.813  0.00  0.00    +0.000 OA
ATOM     10  H   UNL     1       4.074  11.479   3.723  0.00  0.00    +0.000 HD
ENDBRANCH   6   9
TORSDOF 2
ENDMDL
MODEL 4
REMARK VINA RESULT:    -4.334      2.251      4.000
REMARK INTER + INTRA:          -4.766
REMARK INTER:                  -4.715
REMARK INTRA:                  -0.051
REMARK UNBOUND:                -0.052
REMARK  Name = 
REMARK  3 active torsions:
REMARK  status: ('A' for Active; 'I' for Inactive)
REMARK    1  A    between atoms: C_1  and  O_2
REMARK    2  A    between atoms: O_2  and  C_3
REMARK    3  A    between atoms: C_8  and  O_9
REMARK                            x       y       z     vdW  Elec       q    Type
REMARK                         _______ _______ _______ _____ _____    ______ ____
ROOT
ATOM      1  C   UNL     1       5.464  12.945   2.795  0.00  0.00    +0.000 A 
ATOM      2  C   UNL     1       5.200  11.835   1.993  0.00  0.00    +0.000 A 
ATOM      3  C   UNL     1       5.719  11.771   0.694  0.00  0.00    +0.000 A 
ATOM      4  C   UNL     1       6.501  12.813   0.192  0.00  0.00    +0.000 A 
ATOM      5  C   UNL     1       6.770  13.925   0.987  0.00  0.00    +0.000 A 
ATOM      6  C   UNL     1       6.251  13.980   2.274  0.00  0.00    +0.000 A 
ENDROOT
BRANCH   1   8
ATOM      7  C   UNL     1       3.632  13.390   4.240  0.00  0.00    +0.000 C 
ATOM      8  O   UNL     1       5.023  13.141   4.079  0.00  0.00    +0.000 OA
ENDBRANCH   1   8
BRANCH   6   9
ATOM      9  O   UNL     1       6.528  15.083   3.036  0.00  0.00    +0.000 OA
ATOM     10  H   UNL     1       6.229  14.846   3.935  0.00  0.00    +0.000 HD
ENDBRANCH   6   9
TORSDOF 2
ENDMDL
MODEL 5
REMARK VINA RESULT:    -4.046      3.489      4.365
REMARK INTER + INTRA:          -4.452
REMARK INTER:                  -4.402
REMARK INTRA:                  -0.051
REMARK UNBOUND:                -0.052
REMARK  Name = 
REMARK  3 active torsions:
REMARK  status: ('A' for Active; 'I' for Inactive)
REMARK    1  A    between atoms: C_1  and  O_2
REMARK    2  A    between atoms: O_2  and  C_3
REMARK    3  A    between atoms: C_8  and  O_9
REMARK                            x       y       z     vdW  Elec       q    Type
REMARK                         _______ _______ _______ _____ _____    ______ ____
ROOT
ATOM      1  C   UNL     1       4.973  14.373   4.814  0.00  0.00    +0.000 A 
ATOM      2  C   UNL     1       4.711  15.510   5.578  0.00  0.00    +0.000 A 
ATOM      3  C   UNL     1       3.389  15.922   5.788  0.00  0.00    +0.000 A 
ATOM      4  C   UNL     1       2.327  15.203   5.237  0.00  0.00    +0.000 A 
ATOM      5  C   UNL     1       2.581  14.066   4.472  0.00  0.00    +0.000 A 
ATOM      6  C   UNL     1       3.895  13.665   4.269  0.00  0.00    +0.000 A 
ENDROOT
BRANCH   1   8
ATOM      7  C   UNL     1       7.016  14.604   3.622  0.00  0.00    +0.000 C 
ATOM      8  O   UNL     1       6.211  13.857   4.526  0.00  0.00    +0.000 OA
ENDBRANCH   1   8
BRANCH   6   9
ATOM      9  O   UNL     1       4.120  12.544   3.514  0.00  0.00    +0.000 OA
ATOM     10  H   UNL     1       4.638  11.954   4.094  0.00  0.00    +0.000 HD
ENDBRANCH   6   9
TORSDOF 2
ENDMDL
MODEL 6
REMARK VINA RESULT:    -4.039      5.612      6.708
REMARK INTER + INTRA:          -4.445
REMARK INTER:                  -4.393
REMARK INTRA:                  -0.052
REMARK UNBOUND:                -0.052
REMARK  Name = 
REMARK  3 active torsions:
REMARK  status: ('A' for Active; 'I' for Inactive)
REMARK    1  A    between atoms: C_1  and  O_2
REMARK    2  A    between atoms: O_2  and  C_3
REMARK    3  A    between atoms: C_8  and  O_9
REMARK                            x       y       z     vdW  Elec       q    Type
REMARK                         _______ _______ _______ _____ _____    ______ ____
ROOT
ATOM      1  C   UNL     1       4.271  15.759   6.138  0.00  0.00    +0.000 A 
ATOM      2  C   UNL     1       4.516  14.988   5.003  0.00  0.00    +0.000 A 
ATOM      3  C   UNL     1       3.464  14.300   4.384  0.00  0.00    +0.000 A 
ATOM      4  C   UNL     1       2.168  14.380   4.896  0.00  0.00    +0.000 A 
ATOM      5  C   UNL     1       1.916  15.149   6.030  0.00  0.00    +0.000 A 
ATOM      6  C   UNL     1       2.965  15.827   6.638  0.00  0.00    +0.000 A 
ENDROOT
BRANCH   1   8
ATOM      7  C   UNL     1       5.747  17.621   6.192  0.00  0.00    +0.000 C 
ATOM      8  O   UNL     1       5.200  16.481   6.844  0.00  0.00    +0.000 OA
ENDBRANCH   1   8
BRANCH   6   9
ATOM      9  O   UNL     1       2.692  16.576   7.751  0.00  0.00    +0.000 OA
ATOM     10  H   UNL     1       1.839  16.233   8.078  0.00  0.00    +0.000 HD
ENDBRANCH   6   9
TORSDOF 2
ENDMDL
MODEL 7
REMARK VINA RESULT:    -4.031      2.414      3.443
REMARK INTER + INTRA:          -4.437
REMARK INTER:                  -4.396
REMARK INTRA:                  -0.041
REMARK UNBOUND:                -0.052
REMARK  Name = 
REMARK  3 active torsions:
REMARK  status: ('A' for Active; 'I' for Inactive)
REMARK    1  A    between atoms: C_1  and  O_2
REMARK    2  A    between atoms: O_2  and  C_3
REMARK    3  A    between atoms: C_8  and  O_9
REMARK                            x       y       z     vdW  Elec       q    Type
REMARK                         _______ _______ _______ _____ _____    ______ ____
ROOT
ATOM      1  C   UNL     1       5.417  13.169   3.204  0.00  0.00    +0.000 A 
ATOM      2  C   UNL     1       6.605  13.895   3.134  0.00  0.00    +0.000 A 
ATOM      3  C   UNL     1       6.809  14.988   3.986  0.00  0.00    +0.000 A 
ATOM      4  C   UNL     1       5.829  15.359   4.908  0.00  0.00    +0.000 A 
ATOM      5  C   UNL     1       4.639  14.638   4.985  0.00  0.00    +0.000 A 
ATOM      6  C   UNL     1       4.446  13.556   4.136  0.00  0.00    +0.000 A 
ENDROOT
BRANCH   1   8
ATOM      7  C   UNL     1       5.636  12.040   1.125  0.00  0.00    +0.000 C 
ATOM      8  O   UNL     1       5.084  12.083   2.435  0.00  0.00    +0.000 OA
ENDBRANCH   1   8
BRANCH   6   9
ATOM      9  O   UNL     1       3.268  12.863   4.229  0.00  0.00    +0.000 OA
ATOM     10  H   UNL     1       3.520  11.994   4.597  0.00  0.00    +0.000 HD
ENDBRANCH   6   9
TORSDOF 2
ENDMDL
MODEL 8
REMARK VINA RESULT:    -3.923      3.706      4.950
REMARK INTER + INTRA:          -4.319
REMARK INTER:                  -4.266
REMARK INTRA:                  -0.052
REMARK UNBOUND:                -0.052
REMARK  Name = 
REMARK  3 active torsions:
REMARK  status: ('A' for Active; 'I' for Inactive)
REMARK    1  A    between atoms: C_1  and  O_2
REMARK    2  A    between atoms: O_2  and  C_3
REMARK    3  A    between atoms: C_8  and  O_9
REMARK                            x       y       z     vdW  Elec       q    Type
REMARK                         _______ _______ _______ _____ _____    ______ ____
ROOT
ATOM      1  C   UNL     1       4.623  14.576   5.008  0.00  0.00    +0.000 A 
ATOM      2  C   UNL     1       5.844  15.176   4.704  0.00  0.00    +0.000 A 
ATOM      3  C   UNL     1       6.612  14.698   3.635  0.00  0.00    +0.000 A 
ATOM      4  C   UNL     1       6.164  13.620   2.868  0.00  0.00    +0.000 A 
ATOM      5  C   UNL     1       4.945  13.015   3.166  0.00  0.00    +0.000 A 
ATOM      6  C   UNL     1       4.191  13.496   4.228  0.00  0.00    +0.000 A 
ENDROOT
BRANCH   1   8
ATOM      7  C   UNL     1       3.222  16.247   5.951  0.00  0.00    +0.000 C 
ATOM      8  O   UNL     1       3.772  14.937   6.021  0.00  0.00    +0.000 OA
ENDBRANCH   1   8
BRANCH   6   9
ATOM      9  O   UNL     1       2.996  12.885   4.502  0.00  0.00    +0.000 OA
ATOM     10  H   UNL     1       2.499  13.537   5.032  0.00  0.00    +0.000 HD
ENDBRANCH   6   9
TORSDOF 2
ENDMDL
