MODEL 1
REMARK VINA RESULT:    -5.441      0.000      0.000
REMARK INTER + INTRA:          -7.915
REMARK INTER:                  -7.349
REMARK INTRA:                  -0.566
REMARK UNBOUND:                -0.566
REMARK  Name = 
REMARK  10 active torsions:
REMARK  status: ('A' for Active; 'I' for Inactive)
REMARK    1  A    between atoms: C_1  and  C_2
REMARK    2  A    between atoms: C_5  and  N_8
REMARK    3  A    between atoms: N_8  and  C_9
REMARK    4  A    between atoms: N_8  and  C_13
REMARK    5  A    between atoms: C_9  and  C_10
REMARK    6  A    between atoms: C_10  and  C_11
REMARK    7  A    between atoms: C_10  and  O_12
REMARK    8  A    between atoms: C_13  and  C_14
REMARK    9  A    between atoms: C_14  and  C_15
REMARK   10  A    between atoms: C_14  and  O_16
REMARK                            x       y       z     vdW  Elec       q    Type
REMARK                         _______ _______ _______ _____ _____    ______ ____
ROOT
ATOM      1  N   UNL     1       0.652  17.864  -9.097  0.00  0.00    +0.000 N 
ENDROOT
BRANCH   1   6
ATOM      2  C   UNL     1      -5.002  18.250 -10.195  0.00  0.00    +0.000 C 
ATOM      3  C   UNL     1      -3.536  18.125  -9.914  0.00  0.00    +0.000 A 
ATOM      4  C   UNL     1      -3.071  17.947  -8.615  0.00  0.00    +0.000 A 
ATOM      5  C   UNL     1      -1.693  17.861  -8.354  0.00  0.00    +0.000 A 
ATOM      6  C   UNL     1      -0.719  17.970  -9.362  0.00  0.00    +0.000 A 
ATOM      7  C   UNL     1      -1.226  18.147 -10.663  0.00  0.00    +0.000 A 
ATOM      8  C   UNL     1      -2.600  18.233 -10.938  0.00  0.00    +0.000 A 
ENDBRANCH   1   6
BRANCH   1   9
ATOM      9  C   UNL     1       1.520  17.050  -9.982  0.00  0.00    +0.000 C 
BRANCH   9  10
ATOM     10  C   UNL     1       2.482  17.911 -10.836  0.00  0.00    +0.000 C 
ATOM     11  C   UNL     1       2.582  17.368 -12.257  0.00  0.00    +0.000 C 
BRANCH  10  12
ATOM     12  O   UNL     1       2.028  19.269 -10.911  0.00  0.00    +0.000 OA
ATOM     13  H   UNL     1       1.084  19.285 -10.683  0.00  0.00    +0.000 HD
ENDBRANCH  10  12
ENDBRANCH   9  10
ENDBRANCH   1   9
BRANCH   1  14
ATOM     14  C   UNL     1       1.191  18.090  -7.731  0.00  0.00    +0.000 C 
BRANCH  14  15
ATOM     15  C   UNL     1       1.581  19.569  -7.495  0.00  0.00    +0.000 C 
ATOM     16  C   UNL     1       0.707  20.261  -6.455  0.00  0.00    +0.000 C 
BRANCH  15  17
ATOM     17  O   UNL     1       2.941  19.697  -7.085  0.00  0.00    +0.000 OA
ATOM     18  H   UNL     1       3.266  20.504  -7.534  0.00  0.00    +0.000 HD
ENDBRANCH  15  17
ENDBRANCH  14  15
ENDBRANCH   1  14
TORSDOF 7
ENDMDL
MODEL 2
REMARK VINA RESULT:    -5.289      3.063      4.812
REMARK INTER + INTRA:          -7.709
REMARK INTER:                  -7.094
REMARK INTRA:                  -0.615
REMARK UNBOUND:                -0.566
REMARK  Name = 
REMARK  10 active torsions:
REMARK  status: ('A' for Active; 'I' for Inactive)
REMARK    1  A    between atoms: C_1  and  C_2
REMARK    2  A    between atoms: C_5  and  N_8
REMARK    3  A    between atoms: N_8  and  C_9
REMARK    4  A    between atoms: N_8  and  C_13
REMARK    5  A    between atoms: C_9  and  C_10
REMARK    6  A    between atoms: C_10  and  C_11
REMARK    7  A    between atoms: C_10  and  O_12
REMARK    8  A    between atoms: C_13  and  C_14
REMARK    9  A    between atoms: C_14  and  C_15
REMARK   10  A    between atoms: C_14  and  O_16
REMARK                            x       y       z     vdW  Elec       q    Type
REMARK                         _______ _______ _______ _____ _____    ______ ____
ROOT
ATOM      1  N   UNL     1       2.152  17.572 -12.191  0.00  0.00    +0.000 N 
ENDROOT
BRANCH   1   6
ATOM      2  C   UNL     1      -0.954  18.595  -7.433  0.00  0.00    +0.000 C 
ATOM      3  C   UNL     1      -0.163  18.310  -8.673  0.00  0.00    +0.000 A 
ATOM      4  C   UNL     1       0.967  17.499  -8.629  0.00  0.00    +0.000 A 
ATOM      5  C   UNL     1       1.722  17.259  -9.788  0.00  0.00    +0.000 A 
ATOM      6  C   UNL     1       1.405  17.830 -11.034  0.00  0.00    +0.000 A 
ATOM      7  C   UNL     1       0.257  18.643 -11.042  0.00  0.00    +0.000 A 
ATOM      8  C   UNL     1      -0.509  18.889  -9.890  0.00  0.00    +0.000 A 
ENDBRANCH   1   6
BRANCH   1   9
ATOM      9  C   UNL     1       3.366  18.370 -12.486  0.00  0.00    +0.000 C 
BRANCH   9  10
ATOM     10  C   UNL     1       3.091  19.545 -13.455  0.00  0.00    +0.000 C 
ATOM     11  C   UNL     1       3.254  20.885 -12.748  0.00  0.00    +0.000 C 
BRANCH  10  12
ATOM     12  O   UNL     1       3.997  19.517 -14.568  0.00  0.00    +0.000 OA
ATOM     13  H   UNL     1       3.709  18.813 -15.173  0.00  0.00    +0.000 HD
ENDBRANCH  10  12
ENDBRANCH   9  10
ENDBRANCH   1   9
BRANCH   1  14
ATOM     14  C   UNL     1       1.537  16.911 -13.371  0.00  0.00    +0.000 C 
BRANCH  14  15
ATOM     15  C   UNL     1       0.897  15.549 -13.010  0.00  0.00    +0.000 C 
ATOM     16  C   UNL     1      -0.626  15.565 -13.080  0.00  0.00    +0.000 C 
BRANCH  15  17
ATOM     17  O   UNL     1       1.368  14.503 -13.859  0.00  0.00    +0.000 OA
ATOM     18  H   UNL     1       2.170  14.866 -14.285  0.00  0.00    +0.000 HD
ENDBRANCH  15  17
ENDBRANCH  14  15
ENDBRANCH   1  14
TORSDOF 7
ENDMDL
MODEL 3
REMARK VINA RESULT:    -5.279      1.676      4.705
REMARK INTER + INTRA:          -7.696
REMARK INTER:                  -7.160
REMARK INTRA:                  -0.536
REMARK UNBOUND:                -0.566
REMARK  Name = 
REMARK  10 active torsions:
REMARK  status: ('A' for Active; 'I' for Inactive)
REMARK    1  A    between atoms: C_1  and  C_2
REMARK    2  A    between atoms: C_5  and  N_8
REMARK    3  A    between atoms: N_8  and  C_9
REMARK    4  A    between atoms: N_8  and  C_13
REMARK    5  A    between atoms: C_9  and  C_10
REMARK    6  A    between atoms: C_10  and  C_11
REMARK    7  A    between atoms: C_10  and  O_12
REMARK    8  A    between atoms: C_13  and  C_14
REMARK    9  A    between atoms: C_14  and  C_15
REMARK   10  A    between atoms: C_14  and  O_16
REMARK                            x       y       z     vdW  Elec       q    Type
REMARK                         _______ _______ _______ _____ _____    ______ ____
ROOT
ATOM      1  N   UNL     1       0.236  17.996  -8.822  0.00  0.00    +0.000 N 
ENDROOT
BRANCH   1   6
ATOM      2  C   UNL     1       2.445  17.440 -14.127  0.00  0.00    +0.000 C 
ATOM      3  C   UNL     1       1.857  17.565 -12.755  0.00  0.00    +0.000 A 
ATOM      4  C   UNL     1       0.755  18.380 -12.521  0.00  0.00    +0.000 A 
ATOM      5  C   UNL     1       0.227  18.517 -11.227  0.00  0.00    +0.000 A 
ATOM      6  C   UNL     1       0.780  17.871 -10.107  0.00  0.00    +0.000 A 
ATOM      7  C   UNL     1       1.892  17.053 -10.381  0.00  0.00    +0.000 A 
ATOM      8  C   UNL     1       2.429  16.906 -11.670  0.00  0.00    +0.000 A 
ENDBRANCH   1   6
BRANCH   1   9
ATOM      9  C   UNL     1       1.127  18.195  -7.654  0.00  0.00    +0.000 C 
BRANCH   9  10
ATOM     10  C   UNL     1       1.588  19.665  -7.495  0.00  0.00    +0.000 C 
ATOM     11  C   UNL     1       0.708  20.407  -6.495  0.00  0.00    +0.000 C 
BRANCH  10  12
ATOM     12  O   UNL     1       2.943  19.732  -7.029  0.00  0.00    +0.000 OA
ATOM     13  H   UNL     1       3.167  18.875  -6.629  0.00  0.00    +0.000 HD
ENDBRANCH  10  12
ENDBRANCH   9  10
ENDBRANCH   1   9
BRANCH   1  14
ATOM     14  C   UNL     1      -1.105  17.445  -8.498  0.00  0.00    +0.000 C 
BRANCH  14  15
ATOM     15  C   UNL     1      -2.111  18.552  -8.102  0.00  0.00    +0.000 C 
ATOM     16  C   UNL     1      -3.452  18.427  -8.816  0.00  0.00    +0.000 C 
BRANCH  15  17
ATOM     17  O   UNL     1      -2.358  18.562  -6.697  0.00  0.00    +0.000 OA
ATOM     18  H   UNL     1      -2.506  17.625  -6.460  0.00  0.00    +0.000 HD
ENDBRANCH  15  17
ENDBRANCH  14  15
ENDBRANCH   1  14
TORSDOF 7
ENDMDL
MODEL 4
REMARK VINA RESULT:    -5.269      2.947      5.043
REMARK INTER + INTRA:          -7.683
REMARK INTER:                  -7.169
REMARK INTRA:                  -0.514
REMARK UNBOUND:                -0.566
REMARK  Name = 
REMARK  10 active torsions:
REMARK  status: ('A' for Active; 'I' for Inactive)
REMARK    1  A    between atoms: C_1  and  C_2
REMARK    2  A    between atoms: C_5  and  N_8
REMARK    3  A    between atoms: N_8  and  C_9
REMARK    4  A    between atoms: N_8  and  C_13
REMARK    5  A    between atoms: C_9  and  C_10
REMARK    6  A    between atoms: C_10  and  C_11
REMARK    7  A    between atoms: C_10  and  O_12
REMARK    8  A    between atoms: C_13  and  C_14
REMARK    9  A    between atoms: C_14  and  C_15
REMARK   10  A    between atoms: C_14  and  O_16
REMARK                            x       y       z     vdW  Elec       q    Type
REMARK                         _______ _______ _______ _____ _____    ______ ____
ROOT
ATOM      1  N   UNL     1       1.578  17.385 -12.453  0.00  0.00    +0.000 N 
ENDROOT
BRANCH   1   6
ATOM      2  C   UNL     1      -0.560  18.535  -7.216  0.00  0.00    +0.000 C 
ATOM      3  C   UNL     1       0.010  18.256  -8.572  0.00  0.00    +0.000 A 
ATOM      4  C   UNL     1      -0.558  18.811  -9.714  0.00  0.00    +0.000 A 
ATOM      5  C   UNL     1      -0.037  18.522 -10.986  0.00  0.00    +0.000 A 
ATOM      6  C   UNL     1       1.052  17.654 -11.184  0.00  0.00    +0.000 A 
ATOM      7  C   UNL     1       1.602  17.112 -10.007  0.00  0.00    +0.000 A 
ATOM      8  C   UNL     1       1.093  17.395  -8.729  0.00  0.00    +0.000 A 
ENDBRANCH   1   6
BRANCH   1   9
ATOM      9  C   UNL     1       2.957  17.814 -12.793  0.00  0.00    +0.000 C 
BRANCH   9  10
ATOM     10  C   UNL     1       3.093  19.352 -12.915  0.00  0.00    +0.000 C 
ATOM     11  C   UNL     1       3.663  19.952 -11.635  0.00  0.00    +0.000 C 
BRANCH  10  12
ATOM     12  O   UNL     1       3.964  19.706 -13.998  0.00  0.00    +0.000 OA
ATOM     13  H   UNL     1       3.444  20.198 -14.655  0.00  0.00    +0.000 HD
ENDBRANCH  10  12
ENDBRANCH   9  10
ENDBRANCH   1   9
BRANCH   1  14
ATOM     14  C   UNL     1       0.690  17.157 -13.622  0.00  0.00    +0.000 C 
BRANCH  14  15
ATOM     15  C   UNL     1       0.644  15.668 -14.039  0.00  0.00    +0.000 C 
ATOM     16  C   UNL     1       1.537  15.352 -15.233  0.00  0.00    +0.000 C 
BRANCH  15  17
ATOM     17  O   UNL     1       1.020  14.807 -12.965  0.00  0.00    +0.000 OA
ATOM     18  H   UNL     1       0.709  15.262 -12.156  0.00  0.00    +0.000 HD
ENDBRANCH  15  17
ENDBRANCH  14  15
ENDBRANCH   1  14
TORSDOF 7
ENDMDL
MODEL 5
REMARK VINA RESULT:    -5.209      2.804      4.446
REMARK INTER + INTRA:          -7.601
REMARK INTER:                  -7.027
REMARK INTRA:                  -0.574
REMARK UNBOUND:                -0.566
REMARK  Name = 
REMARK  10 active torsions:
REMARK  status: ('A' for Active; 'I' for Inactive)
REMARK    1  A    between atoms: C_1  and  C_2
REMARK    2  A    between atoms: C_5  and  N_8
REMARK    3  A    between atoms: N_8  and  C_9
REMARK    4  A    between atoms: N_8  and  C_13
REMARK    5  A    between atoms: C_9  and  C_10
REMARK    6  A    between atoms: C_10  and  C_11
REMARK    7  A    between atoms: C_10  and  O_12
REMARK    8  A    between atoms: C_13  and  C_14
REMARK    9  A    between atoms: C_14  and  C_15
REMARK   10  A    between atoms: C_14  and  O_16
REMARK                            x       y       z     vdW  Elec       q    Type
REMARK                         _______ _______ _______ _____ _____    ______ ____
ROOT
ATOM      1  N   UNL     1       1.116  17.806 -12.269  0.00  0.00    +0.000 N 
ENDROOT
BRANCH   1   6
ATOM      2  C   UNL     1      -0.601  18.573  -6.811  0.00  0.00    +0.000 C 
ATOM      3  C   UNL     1      -0.142  18.395  -8.226  0.00  0.00    +0.000 A 
ATOM      4  C   UNL     1      -0.886  18.899  -9.288  0.00  0.00    +0.000 A 
ATOM      5  C   UNL     1      -0.467  18.703 -10.613  0.00  0.00    +0.000 A 
ATOM      6  C   UNL     1       0.693  17.981 -10.946  0.00  0.00    +0.000 A 
ATOM      7  C   UNL     1       1.422  17.487  -9.848  0.00  0.00    +0.000 A 
ATOM      8  C   UNL     1       1.015  17.678  -8.517  0.00  0.00    +0.000 A 
ENDBRANCH   1   6
BRANCH   1   9
ATOM      9  C   UNL     1       0.282  17.033 -13.220  0.00  0.00    +0.000 C 
BRANCH   9  10
ATOM     10  C   UNL     1      -0.061  15.614 -12.703  0.00  0.00    +0.000 C 
ATOM     11  C   UNL     1      -1.351  15.101 -13.332  0.00  0.00    +0.000 C 
BRANCH  10  12
ATOM     12  O   UNL     1       0.986  14.685 -13.016  0.00  0.00    +0.000 OA
ATOM     13  H   UNL     1       0.639  13.787 -12.890  0.00  0.00    +0.000 HD
ENDBRANCH  10  12
ENDBRANCH   9  10
ENDBRANCH   1   9
BRANCH   1  14
ATOM     14  C   UNL     1       2.552  17.906 -12.637  0.00  0.00    +0.000 C 
BRANCH  14  15
ATOM     15  C   UNL     1       2.999  19.372 -12.852  0.00  0.00    +0.000 C 
ATOM     16  C   UNL     1       3.634  19.993 -11.614  0.00  0.00    +0.000 C 
BRANCH  15  17
ATOM     17  O   UNL     1       3.927  19.488 -13.930  0.00  0.00    +0.000 OA
ATOM     18  H   UNL     1       4.533  18.727 -13.825  0.00  0.00    +0.000 HD
ENDBRANCH  15  17
ENDBRANCH  14  15
ENDBRANCH   1  14
TORSDOF 7
ENDMDL
MODEL 6
REMARK VINA RESULT:    -5.189      2.801      4.453
REMARK INTER + INTRA:          -7.575
REMARK INTER:                  -7.078
REMARK INTRA:                  -0.497
REMARK UNBOUND:                -0.566
REMARK  Name = 
REMARK  10 active torsions:
REMARK  status: ('A' for Active; 'I' for Inactive)
REMARK    1  A    between atoms: C_1  and  C_2
REMARK    2  A    between atoms: C_5  and  N_8
REMARK    3  A    between atoms: N_8  and  C_9
REMARK    4  A    between atoms: N_8  and  C_13
REMARK    5  A    between atoms: C_9  and  C_10
REMARK    6  A    between atoms: C_10  and  C_11
REMARK    7  A    between atoms: C_10  and  O_12
REMARK    8  A    between atoms: C_13  and  C_14
REMARK    9  A    between atoms: C_14  and  C_15
REMARK   10  A    between atoms: C_14  and  O_16
REMARK                            x       y       z     vdW  Elec       q    Type
REMARK                         _______ _______ _______ _____ _____    ______ ____
ROOT
ATOM      1  N   UNL     1       1.461  18.169 -12.321  0.00  0.00    +0.000 N 
ENDROOT
BRANCH   1   6
ATOM      2  C   UNL     1      -2.074  17.679  -7.782  0.00  0.00    +0.000 C 
ATOM      3  C   UNL     1      -1.161  17.782  -8.966  0.00  0.00    +0.000 A 
ATOM      4  C   UNL     1       0.197  17.508  -8.847  0.00  0.00    +0.000 A 
ATOM      5  C   UNL     1       1.053  17.636  -9.953  0.00  0.00    +0.000 A 
ATOM      6  C   UNL     1       0.606  18.062 -11.217  0.00  0.00    +0.000 A 
ATOM      7  C   UNL     1      -0.773  18.329 -11.301  0.00  0.00    +0.000 A 
ATOM      8  C   UNL     1      -1.641  18.203 -10.203  0.00  0.00    +0.000 A 
ENDBRANCH   1   6
BRANCH   1   9
ATOM      9  C   UNL     1       2.080  16.953 -12.902  0.00  0.00    +0.000 C 
BRANCH   9  10
ATOM     10  C   UNL     1       1.058  16.055 -13.641  0.00  0.00    +0.000 C 
ATOM     11  C   UNL     1       1.521  15.759 -15.063  0.00  0.00    +0.000 C 
BRANCH  10  12
ATOM     12  O   UNL     1       0.886  14.804 -12.961  0.00  0.00    +0.000 OA
ATOM     13  H   UNL     1       0.277  14.257 -13.486  0.00  0.00    +0.000 HD
ENDBRANCH  10  12
ENDBRANCH   9  10
ENDBRANCH   1   9
BRANCH   1  14
ATOM     14  C   UNL     1       2.174  19.437 -12.621  0.00  0.00    +0.000 C 
BRANCH  14  15
ATOM     15  C   UNL     1       2.684  19.488 -14.081  0.00  0.00    +0.000 C 
ATOM     16  C   UNL     1       1.735  20.221 -15.022  0.00  0.00    +0.000 C 
BRANCH  15  17
ATOM     17  O   UNL     1       3.964  20.112 -14.171  0.00  0.00    +0.000 OA
ATOM     18  H   UNL     1       3.827  21.021 -13.837  0.00  0.00    +0.000 HD
ENDBRANCH  15  17
ENDBRANCH  14  15
ENDBRANCH   1  14
TORSDOF 7
ENDMDL
MODEL 7
REMARK VINA RESULT:    -5.178      2.860      4.624
REMARK INTER + INTRA:          -7.560
REMARK INTER:                  -7.004
REMARK INTRA:                  -0.556
REMARK UNBOUND:                -0.566
REMARK  Name = 
REMARK  10 active torsions:
REMARK  status: ('A' for Active; 'I' for Inactive)
REMARK    1  A    between atoms: C_1  and  C_2
REMARK    2  A    between atoms: C_5  and  N_8
REMARK    3  A    between atoms: N_8  and  C_9
REMARK    4  A    between atoms: N_8  and  C_13
REMARK    5  A    between atoms: C_9  and  C_10
REMARK    6  A    between atoms: C_10  and  C_11
REMARK    7  A    between atoms: C_10  and  O_12
REMARK    8  A    between atoms: C_13  and  C_14
REMARK    9  A    between atoms: C_14  and  C_15
REMARK   10  A    between atoms: C_14  and  O_16
REMARK                            x       y       z     vdW  Elec       q    Type
REMARK                         _______ _______ _______ _____ _____    ______ ____
ROOT
ATOM      1  N   UNL     1       1.804  18.227 -12.088  0.00  0.00    +0.000 N 
ENDROOT
BRANCH   1   6
ATOM      2  C   UNL     1      -1.984  18.049  -7.735  0.00  0.00    +0.000 C 
ATOM      3  C   UNL     1      -1.011  18.073  -8.874  0.00  0.00    +0.000 A 
ATOM      4  C   UNL     1       0.250  17.499  -8.749  0.00  0.00    +0.000 A 
ATOM      5  C   UNL     1       1.169  17.552  -9.809  0.00  0.00    +0.000 A 
ATOM      6  C   UNL     1       0.889  18.195 -11.028  0.00  0.00    +0.000 A 
ATOM      7  C   UNL     1      -0.395  18.762 -11.120  0.00  0.00    +0.000 A 
ATOM      8  C   UNL     1      -1.325  18.715 -10.069  0.00  0.00    +0.000 A 
ENDBRANCH   1   6
BRANCH   1   9
ATOM      9  C   UNL     1       2.059  19.495 -12.812  0.00  0.00    +0.000 C 
BRANCH   9  10
ATOM     10  C   UNL     1       2.697  19.273 -14.205  0.00  0.00    +0.000 C 
ATOM     11  C   UNL     1       1.823  19.863 -15.306  0.00  0.00    +0.000 C 
BRANCH  10  12
ATOM     12  O   UNL     1       3.989  19.893 -14.284  0.00  0.00    +0.000 OA
ATOM     13  H   UNL     1       4.283  19.859 -15.210  0.00  0.00    +0.000 HD
ENDBRANCH  10  12
ENDBRANCH   9  10
ENDBRANCH   1   9
BRANCH   1  14
ATOM     14  C   UNL     1       2.145  16.996 -12.846  0.00  0.00    +0.000 C 
BRANCH  14  15
ATOM     15  C   UNL     1       0.888  16.183 -13.238  0.00  0.00    +0.000 C 
ATOM     16  C   UNL     1       0.569  16.252 -14.727  0.00  0.00    +0.000 C 
BRANCH  15  17
ATOM     17  O   UNL     1       1.015  14.808 -12.877  0.00  0.00    +0.000 OA
ATOM     18  H   UNL     1       1.095  14.330 -13.727  0.00  0.00    +0.000 HD
ENDBRANCH  15  17
ENDBRANCH  14  15
ENDBRANCH   1  14
TORSDOF 7
ENDMDL
MODEL 8
REMARK VINA RESULT:    -5.114      2.179      4.487
REMARK INTER + INTRA:          -7.474
REMARK INTER:                  -6.978
REMARK INTRA:                  -0.496
REMARK UNBOUND:                -0.566
REMARK  Name = 
REMARK  10 active torsions:
REMARK  status: ('A' for Active; 'I' for Inactive)
REMARK    1  A    between atoms: C_1  and  C_2
REMARK    2  A    between atoms: C_5  and  N_8
REMARK    3  A    between atoms: N_8  and  C_9
REMARK    4  A    between atoms: N_8  and  C_13
REMARK    5  A    between atoms: C_9  and  C_10
REMARK    6  A    between atoms: C_10  and  C_11
REMARK    7  A    between atoms: C_10  and  O_12
REMARK    8  A    between atoms: C_13  and  C_14
REMARK    9  A    between atoms: C_14  and  C_15
REMARK   10  A    between atoms: C_14  and  O_16
REMARK                            x       y       z     vdW  Elec       q    Type
REMARK                         _______ _______ _______ _____ _____    ______ ____
ROOT
ATOM      1  N   UNL     1       0.096  17.609  -9.250  0.00  0.00    +0.000 N 
ENDROOT
BRANCH   1   6
ATOM      2  C   UNL     1       1.533  16.439 -14.717  0.00  0.00    +0.000 C 
ATOM      3  C   UNL     1       1.156  16.718 -13.295  0.00  0.00    +0.000 A 
ATOM      4  C   UNL     1      -0.153  17.043 -12.953  0.00  0.00    +0.000 A 
ATOM      5  C   UNL     1      -0.495  17.333 -11.623  0.00  0.00    +0.000 A 
ATOM      6  C   UNL     1       0.447  17.338 -10.578  0.00  0.00    +0.000 A 
ATOM      7  C   UNL     1       1.760  17.004 -10.959  0.00  0.00    +0.000 A 
ATOM      8  C   UNL     1       2.115  16.709 -12.286  0.00  0.00    +0.000 A 
ENDBRANCH   1   6
BRANCH   1   9
ATOM      9  C   UNL     1      -1.257  18.125  -8.930  0.00  0.00    +0.000 C 
BRANCH   9  10
ATOM     10  C   UNL     1      -1.740  17.709  -7.519  0.00  0.00    +0.000 C 
ATOM     11  C   UNL     1      -1.956  18.931  -6.634  0.00  0.00    +0.000 C 
BRANCH  10  12
ATOM     12  O   UNL     1      -2.977  16.988  -7.590  0.00  0.00    +0.000 OA
ATOM     13  H   UNL     1      -2.974  16.463  -8.407  0.00  0.00    +0.000 HD
ENDBRANCH  10  12
ENDBRANCH   9  10
ENDBRANCH   1   9
BRANCH   1  14
ATOM     14  C   UNL     1       1.131  17.892  -8.223  0.00  0.00    +0.000 C 
BRANCH  14  15
ATOM     15  C   UNL     1       1.521  19.389  -8.183  0.00  0.00    +0.000 C 
ATOM     16  C   UNL     1       1.544  19.965  -6.772  0.00  0.00    +0.000 C 
BRANCH  15  17
ATOM     17  O   UNL     1       2.799  19.617  -8.774  0.00  0.00    +0.000 OA
ATOM     18  H   UNL     1       3.152  18.724  -8.966  0.00  0.00    +0.000 HD
ENDBRANCH  15  17
ENDBRANCH  14  15
ENDBRANCH   1  14
TORSDOF 7
ENDMDL
MODEL 9
REMARK VINA RESULT:    -4.942      2.597      4.266
REMARK INTER + INTRA:          -7.241
REMARK INTER:                  -6.746
REMARK INTRA:                  -0.495
REMARK UNBOUND:                -0.566
REMARK  Name = 
REMARK  10 active torsions:
REMARK  status: ('A' for Active; 'I' for Inactive)
REMARK    1  A    between atoms: C_1  and  C_2
REMARK    2  A    between atoms: C_5  and  N_8
REMARK    3  A    between atoms: N_8  and  C_9
REMARK    4  A    between atoms: N_8  and  C_13
REMARK    5  A    between atoms: C_9  and  C_10
REMARK    6  A    between atoms: C_10  and  C_11
REMARK    7  A    between atoms: C_10  and  O_12
REMARK    8  A    between atoms: C_13  and  C_14
REMARK    9  A    between atoms: C_14  and  C_15
REMARK   10  A    between atoms: C_14  and  O_16
REMARK                            x       y       z     vdW  Elec       q    Type
REMARK                         _______ _______ _______ _____ _____    ______ ____
ROOT
ATOM      1  N   UNL     1       0.619  18.260 -11.747  0.00  0.00    +0.000 N 
ENDROOT
BRANCH   1   6
ATOM      2  C   UNL     1      -1.230  18.901  -6.316  0.00  0.00    +0.000 C 
ATOM      3  C   UNL     1      -0.749  18.710  -7.722  0.00  0.00    +0.000 A 
ATOM      4  C   UNL     1       0.606  18.773  -8.028  0.00  0.00    +0.000 A 
ATOM      5  C   UNL     1       1.049  18.623  -9.352  0.00  0.00    +0.000 A 
ATOM      6  C   UNL     1       0.169  18.428 -10.432  0.00  0.00    +0.000 A 
ATOM      7  C   UNL     1      -1.193  18.368 -10.085  0.00  0.00    +0.000 A 
ATOM      8  C   UNL     1      -1.650  18.514  -8.765  0.00  0.00    +0.000 A 
ENDBRANCH   1   6
BRANCH   1   9
ATOM      9  C   UNL     1      -0.310  18.470 -12.884  0.00  0.00    +0.000 C 
BRANCH   9  10
ATOM     10  C   UNL     1      -0.267  19.916 -13.434  0.00  0.00    +0.000 C 
ATOM     11  C   UNL     1       0.661  20.014 -14.639  0.00  0.00    +0.000 C 
BRANCH  10  12
ATOM     12  O   UNL     1      -1.572  20.351 -13.842  0.00  0.00    +0.000 OA
ATOM     13  H   UNL     1      -1.993  20.790 -13.085  0.00  0.00    +0.000 HD
ENDBRANCH  10  12
ENDBRANCH   9  10
ENDBRANCH   1   9
BRANCH   1  14
ATOM     14  C   UNL     1       1.798  17.409 -12.054  0.00  0.00    +0.000 C 
BRANCH  14  15
ATOM     15  C   UNL     1       2.977  18.230 -12.629  0.00  0.00    +0.000 C 
ATOM     16  C   UNL     1       4.016  18.604 -11.579  0.00  0.00    +0.000 C 
BRANCH  15  17
ATOM     17  O   UNL     1       3.643  17.531 -13.680  0.00  0.00    +0.000 OA
ATOM     18  H   UNL     1       4.594  17.592 -13.461  0.00  0.00    +0.000 HD
ENDBRANCH  15  17
ENDBRANCH  14  15
ENDBRANCH   1  14
TORSDOF 7
ENDMDL
