MODEL 1
REMARK VINA RESULT:    -4.956      0.000      0.000
REMARK INTER + INTRA:          -5.443
REMARK INTER:                  -5.390
REMARK INTRA:                  -0.053
REMARK UNBOUND:                -0.053
REMARK  Name = 
REMARK  3 active torsions:
REMARK  status: ('A' for Active; 'I' for Inactive)
REMARK    1  A    between atoms: C_1  and  O_2
REMARK    2  A    between atoms: O_2  and  C_3
REMARK    3  A    between atoms: C_8  and  O_9
REMARK                            x       y       z     vdW  Elec       q    Type
REMARK                         _______ _______ _______ _____ _____    ______ ____
ROOT
ATOM      1  C   UNL     1       6.818  13.065   0.956  0.00  0.00    +0.000 A 
ATOM      2  C   UNL     1       6.874  13.954   2.028  0.00  0.00    +0.000 A 
ATOM      3  C   UNL     1       6.012  13.788   3.120  0.00  0.00    +0.000 A 
ATOM      4  C   UNL     1       5.093  12.737   3.143  0.00  0.00    +0.000 A 
ATOM      5  C   UNL     1       5.031  11.845   2.075  0.00  0.00    +0.000 A 
ATOM      6  C   UNL     1       5.890  12.017   0.997  0.00  0.00    +0.000 A 
ENDROOT
BRANCH   1   8
ATOM      7  C   UNL     1       8.992  12.899   0.010  0.00  0.00    +0.000 C 
ATOM      8  O   UNL     1       7.596  13.106  -0.173  0.00  0.00    +0.000 OA
ENDBRANCH   1   8
BRANCH   6   9
ATOM      9  O   UNL     1       5.810  11.127  -0.041  0.00  0.00    +0.000 OA
ATOM     10  H   UNL     1       4.856  11.057  -0.236  0.00  0.00    +0.000 HD
ENDBRANCH   6   9
TORSDOF 2
ENDMDL
MODEL 2
REMARK VINA RESULT:    -4.745      2.031      3.420
REMARK INTER + INTRA:          -5.213
REMARK INTER:                  -5.164
REMARK INTRA:                  -0.050
REMARK UNBOUND:                -0.053
REMARK  Name = 
REMARK  3 active torsions:
REMARK  status: ('A' for Active; 'I' for Inactive)
REMARK    1  A    between atoms: C_1  and  O_2
REMARK    2  A    between atoms: O_2  and  C_3
REMARK    3  A    between atoms: C_8  and  O_9
REMARK                            x       y       z     vdW  Elec       q    Type
REMARK                         _______ _______ _______ _____ _____    ______ ____
ROOT
ATOM      1  C   UNL     1       5.323  12.917   2.778  0.00  0.00    +0.000 A 
ATOM      2  C   UNL     1       5.709  14.198   2.384  0.00  0.00    +0.000 A 
ATOM      3  C   UNL     1       6.117  14.431   1.065  0.00  0.00    +0.000 A 
ATOM      4  C   UNL     1       6.142  13.389   0.137  0.00  0.00    +0.000 A 
ATOM      5  C   UNL     1       5.757  12.107   0.522  0.00  0.00    +0.000 A 
ATOM      6  C   UNL     1       5.354  11.884   1.833  0.00  0.00    +0.000 A 
ENDROOT
BRANCH   1   8
ATOM      7  C   UNL     1       3.826  13.289   4.585  0.00  0.00    +0.000 C 
ATOM      8  O   UNL     1       4.904  12.546   4.030  0.00  0.00    +0.000 OA
ENDBRANCH   1   8
BRANCH   6   9
ATOM      9  O   UNL     1       4.981  10.616   2.188  0.00  0.00    +0.000 OA
ATOM     10  H   UNL     1       4.560  10.247   1.388  0.00  0.00    +0.000 HD
ENDBRANCH   6   9
TORSDOF 2
ENDMDL
MODEL 3
REMARK VINA RESULT:    -4.327      2.257      3.147
REMARK INTER + INTRA:          -4.759
REMARK INTER:                  -4.707
REMARK INTRA:                  -0.053
REMARK UNBOUND:                -0.053
REMARK  Name = 
REMARK  3 active torsions:
REMARK  status: ('A' for Active; 'I' for Inactive)
REMARK    1  A    between atoms: C_1  and  O_2
REMARK    2  A    between atoms: O_2  and  C_3
REMARK    3  A    between atoms: C_8  and  O_9
REMARK                            x       y       z     vdW  Elec       q    Type
REMARK                         _______ _______ _______ _____ _____    ______ ____
ROOT
ATOM      1  C   UNL     1       5.925  13.822   2.496  0.00  0.00    +0.000 A 
ATOM      2  C   UNL     1       6.642  13.972   1.309  0.00  0.00    +0.000 A 
ATOM      3  C   UNL     1       6.607  12.963   0.338  0.00  0.00    +0.000 A 
ATOM      4  C   UNL     1       5.857  11.804   0.549  0.00  0.00    +0.000 A 
ATOM      5  C   UNL     1       5.138  11.647   1.731  0.00  0.00    +0.000 A 
ATOM      6  C   UNL     1       5.179  12.652   2.689  0.00  0.00    +0.000 A 
ENDROOT
BRANCH   1   8
ATOM      7  C   UNL     1       7.070  14.921   4.264  0.00  0.00    +0.000 C 
ATOM      8  O   UNL     1       5.868  14.723   3.529  0.00  0.00    +0.000 OA
ENDBRANCH   1   8
BRANCH   6   9
ATOM      9  O   UNL     1       4.463  12.475   3.843  0.00  0.00    +0.000 OA
ATOM     10  H   UNL     1       4.578  13.310   4.336  0.00  0.00    +0.000 HD
ENDBRANCH   6   9
TORSDOF 2
ENDMDL
MODEL 4
REMARK VINA RESULT:    -4.322      2.261      4.011
REMARK INTER + INTRA:          -4.754
REMARK INTER:                  -4.703
REMARK INTRA:                  -0.051
REMARK UNBOUND:                -0.053
REMARK  Name = 
REMARK  3 active torsions:
REMARK  status: ('A' for Active; 'I' for Inactive)
REMARK    1  A    between atoms: C_1  and  O_2
REMARK    2  A    between atoms: O_2  and  C_3
REMARK    3  A    between atoms: C_8  and  O_9
REMARK                            x       y       z     vdW  Elec       q    Type
REMARK                         _______ _______ _______ _____ _____    ______ ____
ROOT
ATOM      1  C   UNL     1       5.451  12.923   2.842  0.00  0.00    +0.000 A 
ATOM      2  C   UNL     1       5.172  11.799   2.065  0.00  0.00    +0.000 A 
ATOM      3  C   UNL     1       5.682  11.703   0.765  0.00  0.00    +0.000 A 
ATOM      4  C   UNL     1       6.471  12.726   0.236  0.00  0.00    +0.000 A 
ATOM      5  C   UNL     1       6.756  13.852   1.006  0.00  0.00    +0.000 A 
ATOM      6  C   UNL     1       6.245  13.939   2.295  0.00  0.00    +0.000 A 
ENDROOT
BRANCH   1   8
ATOM      7  C   UNL     1       3.632  13.418   4.288  0.00  0.00    +0.000 C 
ATOM      8  O   UNL     1       5.020  13.151   4.124  0.00  0.00    +0.000 OA
ENDBRANCH   1   8
BRANCH   6   9
ATOM      9  O   UNL     1       6.538  15.055   3.032  0.00  0.00    +0.000 OA
ATOM     10  H   UNL     1       5.893  15.045   3.765  0.00  0.00    +0.000 HD
ENDBRANCH   6   9
TORSDOF 2
ENDMDL
MODEL 5
REMARK VINA RESULT:    -4.107      2.309      3.337
REMARK INTER + INTRA:          -4.520
REMARK INTER:                  -4.482
REMARK INTRA:                  -0.038
REMARK UNBOUND:                -0.053
REMARK  Name = 
REMARK  3 active torsions:
REMARK  status: ('A' for Active; 'I' for Inactive)
REMARK    1  A    between atoms: C_1  and  O_2
REMARK    2  A    between atoms: O_2  and  C_3
REMARK    3  A    between atoms: C_8  and  O_9
REMARK                            x       y       z     vdW  Elec       q    Type
REMARK                         _______ _______ _______ _____ _____    ______ ____
ROOT
ATOM      1  C   UNL     1       5.443  13.109   3.011  0.00  0.00    +0.000 A 
ATOM      2  C   UNL     1       6.638  13.814   2.874  0.00  0.00    +0.000 A 
ATOM      3  C   UNL     1       6.953  14.839   3.774  0.00  0.00    +0.000 A 
ATOM      4  C   UNL     1       6.077  15.164   4.812  0.00  0.00    +0.000 A 
ATOM      5  C   UNL     1       4.881  14.464   4.956  0.00  0.00    +0.000 A 
ATOM      6  C   UNL     1       4.577  13.449   4.058  0.00  0.00    +0.000 A 
ENDROOT
BRANCH   1   8
ATOM      7  C   UNL     1       5.682  11.926   0.964  0.00  0.00    +0.000 C 
ATOM      8  O   UNL     1       5.007  12.087   2.206  0.00  0.00    +0.000 OA
ENDBRANCH   1   8
BRANCH   6   9
ATOM      9  O   UNL     1       3.396  12.775   4.219  0.00  0.00    +0.000 OA
ATOM     10  H   UNL     1       3.243  12.332   3.363  0.00  0.00    +0.000 HD
ENDBRANCH   6   9
TORSDOF 2
ENDMDL
MODEL 6
REMARK VINA RESULT:    -4.098      3.118      4.215
REMARK INTER + INTRA:          -4.510
REMARK INTER:                  -4.458
REMARK INTRA:                  -0.052
REMARK UNBOUND:                -0.053
REMARK  Name = 
REMARK  3 active torsions:
REMARK  status: ('A' for Active; 'I' for Inactive)
REMARK    1  A    between atoms: C_1  and  O_2
REMARK    2  A    between atoms: O_2  and  C_3
REMARK    3  A    between atoms: C_8  and  O_9
REMARK                            x       y       z     vdW  Elec       q    Type
REMARK                         _______ _______ _______ _____ _____    ______ ____
ROOT
ATOM      1  C   UNL     1       5.241  14.341   4.172  0.00  0.00    +0.000 A 
ATOM      2  C   UNL     1       6.412  14.757   3.539  0.00  0.00    +0.000 A 
ATOM      3  C   UNL     1       6.908  14.039   2.444  0.00  0.00    +0.000 A 
ATOM      4  C   UNL     1       6.239  12.906   1.978  0.00  0.00    +0.000 A 
ATOM      5  C   UNL     1       5.068  12.484   2.604  0.00  0.00    +0.000 A 
ATOM      6  C   UNL     1       4.583  13.202   3.690  0.00  0.00    +0.000 A 
ENDROOT
BRANCH   1   8
ATOM      7  C   UNL     1       5.424  15.045   6.434  0.00  0.00    +0.000 C 
ATOM      8  O   UNL     1       4.643  14.943   5.249  0.00  0.00    +0.000 OA
ENDBRANCH   1   8
BRANCH   6   9
ATOM      9  O   UNL     1       3.431  12.768   4.289  0.00  0.00    +0.000 OA
ATOM     10  H   UNL     1       3.481  11.794   4.249  0.00  0.00    +0.000 HD
ENDBRANCH   6   9
TORSDOF 2
ENDMDL
MODEL 7
REMARK VINA RESULT:    -4.050      3.479      4.373
REMARK INTER + INTRA:          -4.458
REMARK INTER:                  -4.407
REMARK INTRA:                  -0.052
REMARK UNBOUND:                -0.053
REMARK  Name = 
REMARK  3 active torsions:
REMARK  status: ('A' for Active; 'I' for Inactive)
REMARK    1  A    between atoms: C_1  and  O_2
REMARK    2  A    between atoms: O_2  and  C_3
REMARK    3  A    between atoms: C_8  and  O_9
REMARK                            x       y       z     vdW  Elec       q    Type
REMARK                         _______ _______ _______ _____ _____    ______ ____
ROOT
ATOM      1  C   UNL     1       4.979  14.362   4.808  0.00  0.00    +0.000 A 
ATOM      2  C   UNL     1       4.735  15.507   5.566  0.00  0.00    +0.000 A 
ATOM      3  C   UNL     1       3.418  15.929   5.792  0.00  0.00    +0.000 A 
ATOM      4  C   UNL     1       2.344  15.210   5.264  0.00  0.00    +0.000 A 
ATOM      5  C   UNL     1       2.580  14.065   4.507  0.00  0.00    +0.000 A 
ATOM      6  C   UNL     1       3.889  13.655   4.287  0.00  0.00    +0.000 A 
ENDROOT
BRANCH   1   8
ATOM      7  C   UNL     1       7.015  14.583   3.603  0.00  0.00    +0.000 C 
ATOM      8  O   UNL     1       6.210  13.837   4.507  0.00  0.00    +0.000 OA
ENDBRANCH   1   8
BRANCH   6   9
ATOM      9  O   UNL     1       4.096  12.526   3.539  0.00  0.00    +0.000 OA
ATOM     10  H   UNL     1       3.516  11.852   3.942  0.00  0.00    +0.000 HD
ENDBRANCH   6   9
TORSDOF 2
ENDMDL
MODEL 8
REMARK VINA RESULT:    -4.039      5.611      6.723
REMARK INTER + INTRA:          -4.446
REMARK INTER:                  -4.393
REMARK INTRA:                  -0.053
REMARK UNBOUND:                -0.053
REMARK  Name = 
REMARK  3 active torsions:
REMARK  status: ('A' for Active; 'I' for Inactive)
REMARK    1  A    between atoms: C_1  and  O_2
REMARK    2  A    between atoms: O_2  and  C_3
REMARK    3  A    between atoms: C_8  and  O_9
REMARK                            x       y       z     vdW  Elec       q    Type
REMARK                         _______ _______ _______ _____ _____    ______ ____
ROOT
ATOM      1  C   UNL     1       4.266  15.782   6.117  0.00  0.00    +0.000 A 
ATOM      2  C   UNL     1       4.506  15.012   4.980  0.00  0.00    +0.000 A 
ATOM      3  C   UNL     1       3.455  14.312   4.375  0.00  0.00    +0.000 A 
ATOM      4  C   UNL     1       2.164  14.378   4.902  0.00  0.00    +0.000 A 
ATOM      5  C   UNL     1       1.916  15.145   6.038  0.00  0.00    +0.000 A 
ATOM      6  C   UNL     1       2.965  15.836   6.632  0.00  0.00    +0.000 A 
ENDROOT
BRANCH   1   8
ATOM      7  C   UNL     1       5.749  17.639   6.136  0.00  0.00    +0.000 C 
ATOM      8  O   UNL     1       5.195  16.516   6.811  0.00  0.00    +0.000 OA
ENDBRANCH   1   8
BRANCH   6   9
ATOM      9  O   UNL     1       2.696  16.584   7.747  0.00  0.00    +0.000 OA
ATOM     10  H   UNL     1       2.596  17.497   7.416  0.00  0.00    +0.000 HD
ENDBRANCH   6   9
TORSDOF 2
ENDMDL
MODEL 9
REMARK VINA RESULT:    -3.825      2.194      3.391
REMARK INTER + INTRA:          -4.213
REMARK INTER:                  -4.174
REMARK INTRA:                  -0.039
REMARK UNBOUND:                -0.053
REMARK  Name = 
REMARK  3 active torsions:
REMARK  status: ('A' for Active; 'I' for Inactive)
REMARK    1  A    between atoms: C_1  and  O_2
REMARK    2  A    between atoms: O_2  and  C_3
REMARK    3  A    between atoms: C_8  and  O_9
REMARK                            x       y       z     vdW  Elec       q    Type
REMARK                         _______ _______ _______ _____ _____    ______ ____
ROOT
ATOM      1  C   UNL     1       6.238  13.750   2.974  0.00  0.00    +0.000 A 
ATOM      2  C   UNL     1       5.081  12.972   2.978  0.00  0.00    +0.000 A 
ATOM      3  C   UNL     1       4.084  13.205   3.933  0.00  0.00    +0.000 A 
ATOM      4  C   UNL     1       4.238  14.214   4.886  0.00  0.00    +0.000 A 
ATOM      5  C   UNL     1       5.391  14.996   4.888  0.00  0.00    +0.000 A 
ATOM      6  C   UNL     1       6.375  14.757   3.938  0.00  0.00    +0.000 A 
ENDROOT
BRANCH   1   8
ATOM      7  C   UNL     1       7.032  12.953   0.881  0.00  0.00    +0.000 C 
ATOM      8  O   UNL     1       7.292  13.633   2.104  0.00  0.00    +0.000 OA
ENDBRANCH   1   8
BRANCH   6   9
ATOM      9  O   UNL     1       7.499  15.539   3.960  0.00  0.00    +0.000 OA
ATOM     10  H   UNL     1       7.168  16.453   3.864  0.00  0.00    +0.000 HD
ENDBRANCH   6   9
TORSDOF 2
ENDMDL
