MODEL 1
REMARK VINA RESULT:    -4.443      0.000      0.000
REMARK INTER + INTRA:          -4.883
REMARK INTER:                  -4.832
REMARK INTRA:                  -0.050
REMARK UNBOUND:                -0.050
REMARK  Name = 
REMARK  3 active torsions:
REMARK  status: ('A' for Active; 'I' for Inactive)
REMARK    1  A    between atoms: C_1  and  O_2
REMARK    2  A    between atoms: O_2  and  C_3
REMARK    3  A    between atoms: C_8  and  O_9
REMARK                            x       y       z     vdW  Elec       q    Type
REMARK                         _______ _______ _______ _____ _____    ______ ____
ROOT
ATOM      1  C   UNL     1       1.565  13.174  -0.317  0.00  0.00    +0.000 A 
ATOM      2  C   UNL     1       0.587  13.448   0.638  0.00  0.00    +0.000 A 
ATOM      3  C   UNL     1      -0.104  14.666   0.602  0.00  0.00    +0.000 A 
ATOM      4  C   UNL     1       0.180  15.612  -0.384  0.00  0.00    +0.000 A 
ATOM      5  C   UNL     1       1.155  15.346  -1.342  0.00  0.00    +0.000 A 
ATOM      6  C   UNL     1       1.836  14.135  -1.299  0.00  0.00    +0.000 A 
ENDROOT
BRANCH   1   8
ATOM      7  C   UNL     1       1.636  10.853  -0.819  0.00  0.00    +0.000 C 
ATOM      8  O   UNL     1       2.317  12.030  -0.402  0.00  0.00    +0.000 OA
ENDBRANCH   1   8
BRANCH   6   9
ATOM      9  O   UNL     1       2.791  13.896  -2.251  0.00  0.00    +0.000 OA
ATOM     10  H   UNL     1       2.463  14.350  -3.050  0.00  0.00    +0.000 HD
ENDBRANCH   6   9
TORSDOF 2
ENDMDL
MODEL 2
REMARK VINA RESULT:    -4.127      9.542     10.970
REMARK INTER + INTRA:          -4.539
REMARK INTER:                  -4.486
REMARK INTRA:                  -0.053
REMARK UNBOUND:                -0.050
REMARK  Name = 
REMARK  3 active torsions:
REMARK  status: ('A' for Active; 'I' for Inactive)
REMARK    1  A    between atoms: C_1  and  O_2
REMARK    2  A    between atoms: O_2  and  C_3
REMARK    3  A    between atoms: C_8  and  O_9
REMARK                            x       y       z     vdW  Elec       q    Type
REMARK                         _______ _______ _______ _____ _____    ______ ____
ROOT
ATOM      1  C   UNL     1       1.675  17.532  -9.892  0.00  0.00    +0.000 A 
ATOM      2  C   UNL     1       1.560  16.652 -10.968  0.00  0.00    +0.000 A 
ATOM      3  C   UNL     1       2.302  16.874 -12.135  0.00  0.00    +0.000 A 
ATOM      4  C   UNL     1       3.158  17.973 -12.232  0.00  0.00    +0.000 A 
ATOM      5  C   UNL     1       3.278  18.855 -11.161  0.00  0.00    +0.000 A 
ATOM      6  C   UNL     1       2.539  18.628 -10.007  0.00  0.00    +0.000 A 
ENDROOT
BRANCH   1   8
ATOM      7  C   UNL     1      -0.397  17.632  -8.732  0.00  0.00    +0.000 C 
ATOM      8  O   UNL     1       1.012  17.439  -8.695  0.00  0.00    +0.000 OA
ENDBRANCH   1   8
BRANCH   6   9
ATOM      9  O   UNL     1       2.674  19.509  -8.968  0.00  0.00    +0.000 OA
ATOM     10  H   UNL     1       1.759  19.750  -8.726  0.00  0.00    +0.000 HD
ENDBRANCH   6   9
TORSDOF 2
ENDMDL
MODEL 3
REMARK VINA RESULT:    -4.056      8.324      9.087
REMARK INTER + INTRA:          -4.462
REMARK INTER:                  -4.421
REMARK INTRA:                  -0.041
REMARK UNBOUND:                -0.050
REMARK  Name = 
REMARK  3 active torsions:
REMARK  status: ('A' for Active; 'I' for Inactive)
REMARK    1  A    between atoms: C_1  and  O_2
REMARK    2  A    between atoms: O_2  and  C_3
REMARK    3  A    between atoms: C_8  and  O_9
REMARK                            x       y       z     vdW  Elec       q    Type
REMARK                         _______ _______ _______ _____ _____    ______ ____
ROOT
ATOM      1  C   UNL     1       0.635  18.054  -8.684  0.00  0.00    +0.000 A 
ATOM      2  C   UNL     1      -0.664  17.646  -8.984  0.00  0.00    +0.000 A 
ATOM      3  C   UNL     1      -1.702  17.893  -8.077  0.00  0.00    +0.000 A 
ATOM      4  C   UNL     1      -1.447  18.545  -6.870  0.00  0.00    +0.000 A 
ATOM      5  C   UNL     1      -0.152  18.957  -6.563  0.00  0.00    +0.000 A 
ATOM      6  C   UNL     1       0.871  18.708  -7.468  0.00  0.00    +0.000 A 
ENDROOT
BRANCH   1   8
ATOM      7  C   UNL     1       1.752  16.728 -10.309  0.00  0.00    +0.000 C 
ATOM      8  O   UNL     1       1.743  17.880  -9.474  0.00  0.00    +0.000 OA
ENDBRANCH   1   8
BRANCH   6   9
ATOM      9  O   UNL     1       2.136  19.122  -7.145  0.00  0.00    +0.000 OA
ATOM     10  H   UNL     1       2.603  19.185  -7.999  0.00  0.00    +0.000 HD
ENDBRANCH   6   9
TORSDOF 2
ENDMDL
MODEL 4
REMARK VINA RESULT:    -3.957     11.842     13.037
REMARK INTER + INTRA:          -4.354
REMARK INTER:                  -4.316
REMARK INTRA:                  -0.038
REMARK UNBOUND:                -0.050
REMARK  Name = 
REMARK  3 active torsions:
REMARK  status: ('A' for Active; 'I' for Inactive)
REMARK    1  A    between atoms: C_1  and  O_2
REMARK    2  A    between atoms: O_2  and  C_3
REMARK    3  A    between atoms: C_8  and  O_9
REMARK                            x       y       z     vdW  Elec       q    Type
REMARK                         _______ _______ _______ _____ _____    ______ ____
ROOT
ATOM      1  C   UNL     1       2.709  17.713 -13.128  0.00  0.00    +0.000 A 
ATOM      2  C   UNL     1       2.117  16.993 -12.090  0.00  0.00    +0.000 A 
ATOM      3  C   UNL     1       2.165  17.487 -10.781  0.00  0.00    +0.000 A 
ATOM      4  C   UNL     1       2.803  18.698 -10.503  0.00  0.00    +0.000 A 
ATOM      5  C   UNL     1       3.396  19.423 -11.534  0.00  0.00    +0.000 A 
ATOM      6  C   UNL     1       3.344  18.925 -12.830  0.00  0.00    +0.000 A 
ENDROOT
BRANCH   1   8
ATOM      7  C   UNL     1       1.820  16.344 -14.855  0.00  0.00    +0.000 C 
ATOM      8  O   UNL     1       2.739  17.352 -14.451  0.00  0.00    +0.000 OA
ENDBRANCH   1   8
BRANCH   6   9
ATOM      9  O   UNL     1       3.934  19.656 -13.827  0.00  0.00    +0.000 OA
ATOM     10  H   UNL     1       4.654  20.144 -13.384  0.00  0.00    +0.000 HD
ENDBRANCH   6   9
TORSDOF 2
ENDMDL
MODEL 5
REMARK VINA RESULT:    -3.944     11.179     12.159
REMARK INTER + INTRA:          -4.341
REMARK INTER:                  -4.303
REMARK INTRA:                  -0.038
REMARK UNBOUND:                -0.050
REMARK  Name = 
REMARK  3 active torsions:
REMARK  status: ('A' for Active; 'I' for Inactive)
REMARK    1  A    between atoms: C_1  and  O_2
REMARK    2  A    between atoms: O_2  and  C_3
REMARK    3  A    between atoms: C_8  and  O_9
REMARK                            x       y       z     vdW  Elec       q    Type
REMARK                         _______ _______ _______ _____ _____    ______ ____
ROOT
ATOM      1  C   UNL     1       1.922  16.984 -12.177  0.00  0.00    +0.000 A 
ATOM      2  C   UNL     1       1.551  17.257 -10.861  0.00  0.00    +0.000 A 
ATOM      3  C   UNL     1       2.238  18.232 -10.127  0.00  0.00    +0.000 A 
ATOM      4  C   UNL     1       3.298  18.935 -10.704  0.00  0.00    +0.000 A 
ATOM      5  C   UNL     1       3.674  18.669 -12.018  0.00  0.00    +0.000 A 
ATOM      6  C   UNL     1       2.987  17.700 -12.738  0.00  0.00    +0.000 A 
ENDROOT
BRANCH   1   8
ATOM      7  C   UNL     1       0.088  15.532 -12.593  0.00  0.00    +0.000 C 
ATOM      8  O   UNL     1       1.341  16.061 -13.009  0.00  0.00    +0.000 OA
ENDBRANCH   1   8
BRANCH   6   9
ATOM      9  O   UNL     1       3.375  17.456 -14.028  0.00  0.00    +0.000 OA
ATOM     10  H   UNL     1       4.351  17.479 -14.002  0.00  0.00    +0.000 HD
ENDBRANCH   6   9
TORSDOF 2
ENDMDL
MODEL 6
REMARK VINA RESULT:    -3.939      9.893     11.321
REMARK INTER + INTRA:          -4.335
REMARK INTER:                  -4.296
REMARK INTRA:                  -0.039
REMARK UNBOUND:                -0.050
REMARK  Name = 
REMARK  3 active torsions:
REMARK  status: ('A' for Active; 'I' for Inactive)
REMARK    1  A    between atoms: C_1  and  O_2
REMARK    2  A    between atoms: O_2  and  C_3
REMARK    3  A    between atoms: C_8  and  O_9
REMARK                            x       y       z     vdW  Elec       q    Type
REMARK                         _______ _______ _______ _____ _____    ______ ____
ROOT
ATOM      1  C   UNL     1       2.103  17.719 -10.208  0.00  0.00    +0.000 A 
ATOM      2  C   UNL     1       2.804  18.914 -10.049  0.00  0.00    +0.000 A 
ATOM      3  C   UNL     1       3.528  19.448 -11.122  0.00  0.00    +0.000 A 
ATOM      4  C   UNL     1       3.556  18.792 -12.354  0.00  0.00    +0.000 A 
ATOM      5  C   UNL     1       2.858  17.598 -12.521  0.00  0.00    +0.000 A 
ATOM      6  C   UNL     1       2.142  17.076 -11.451  0.00  0.00    +0.000 A 
ENDROOT
BRANCH   1   8
ATOM      7  C   UNL     1       0.894  17.886  -8.169  0.00  0.00    +0.000 C 
ATOM      8  O   UNL     1       1.356  17.083  -9.249  0.00  0.00    +0.000 OA
ENDBRANCH   1   8
BRANCH   6   9
ATOM      9  O   UNL     1       1.464  15.901 -11.639  0.00  0.00    +0.000 OA
ATOM     10  H   UNL     1       1.149  15.941 -12.562  0.00  0.00    +0.000 HD
ENDBRANCH   6   9
TORSDOF 2
ENDMDL
MODEL 7
REMARK VINA RESULT:    -3.890     10.689     12.288
REMARK INTER + INTRA:          -4.281
REMARK INTER:                  -4.239
REMARK INTRA:                  -0.042
REMARK UNBOUND:                -0.050
REMARK  Name = 
REMARK  3 active torsions:
REMARK  status: ('A' for Active; 'I' for Inactive)
REMARK    1  A    between atoms: C_1  and  O_2
REMARK    2  A    between atoms: O_2  and  C_3
REMARK    3  A    between atoms: C_8  and  O_9
REMARK                            x       y       z     vdW  Elec       q    Type
REMARK                         _______ _______ _______ _____ _____    ______ ____
ROOT
ATOM      1  C   UNL     1       2.924  18.822 -11.641  0.00  0.00    +0.000 A 
ATOM      2  C   UNL     1       2.589  17.914 -12.644  0.00  0.00    +0.000 A 
ATOM      3  C   UNL     1       1.863  16.759 -12.329  0.00  0.00    +0.000 A 
ATOM      4  C   UNL     1       1.469  16.507 -11.013  0.00  0.00    +0.000 A 
ATOM      5  C   UNL     1       1.799  17.410 -10.005  0.00  0.00    +0.000 A 
ATOM      6  C   UNL     1       2.520  18.553 -10.327  0.00  0.00    +0.000 A 
ENDROOT
BRANCH   1   8
ATOM      7  C   UNL     1       3.433  20.681 -13.030  0.00  0.00    +0.000 C 
ATOM      8  O   UNL     1       3.628  19.988 -11.803  0.00  0.00    +0.000 OA
ENDBRANCH   1   8
BRANCH   6   9
ATOM      9  O   UNL     1       2.833  19.425  -9.319  0.00  0.00    +0.000 OA
ATOM     10  H   UNL     1       3.758  19.217  -9.088  0.00  0.00    +0.000 HD
ENDBRANCH   6   9
TORSDOF 2
ENDMDL
MODEL 8
REMARK VINA RESULT:    -3.847     11.047     12.459
REMARK INTER + INTRA:          -4.235
REMARK INTER:                  -4.185
REMARK INTRA:                  -0.050
REMARK UNBOUND:                -0.050
REMARK  Name = 
REMARK  3 active torsions:
REMARK  status: ('A' for Active; 'I' for Inactive)
REMARK    1  A    between atoms: C_1  and  O_2
REMARK    2  A    between atoms: O_2  and  C_3
REMARK    3  A    between atoms: C_8  and  O_9
REMARK                            x       y       z     vdW  Elec       q    Type
REMARK                         _______ _______ _______ _____ _____    ______ ____
ROOT
ATOM      1  C   UNL     1       2.667  17.517 -12.625  0.00  0.00    +0.000 A 
ATOM      2  C   UNL     1       3.223  18.613 -11.966  0.00  0.00    +0.000 A 
ATOM      3  C   UNL     1       2.935  18.837 -10.614  0.00  0.00    +0.000 A 
ATOM      4  C   UNL     1       2.093  17.969  -9.916  0.00  0.00    +0.000 A 
ATOM      5  C   UNL     1       1.535  16.871 -10.567  0.00  0.00    +0.000 A 
ATOM      6  C   UNL     1       1.825  16.657 -11.909  0.00  0.00    +0.000 A 
ENDROOT
BRANCH   1   8
ATOM      7  C   UNL     1       2.578  18.186 -14.903  0.00  0.00    +0.000 C 
ATOM      8  O   UNL     1       2.859  17.178 -13.940  0.00  0.00    +0.000 OA
ENDBRANCH   1   8
BRANCH   6   9
ATOM      9  O   UNL     1       1.263  15.572 -12.527  0.00  0.00    +0.000 OA
ATOM     10  H   UNL     1       0.309  15.644 -12.336  0.00  0.00    +0.000 HD
ENDBRANCH   6   9
TORSDOF 2
ENDMDL
MODEL 9
REMARK VINA RESULT:    -3.739     11.573     12.553
REMARK INTER + INTRA:          -4.117
REMARK INTER:                  -4.065
REMARK INTRA:                  -0.052
REMARK UNBOUND:                -0.050
REMARK  Name = 
REMARK  3 active torsions:
REMARK  status: ('A' for Active; 'I' for Inactive)
REMARK    1  A    between atoms: C_1  and  O_2
REMARK    2  A    between atoms: O_2  and  C_3
REMARK    3  A    between atoms: C_8  and  O_9
REMARK                            x       y       z     vdW  Elec       q    Type
REMARK                         _______ _______ _______ _____ _____    ______ ____
ROOT
ATOM      1  C   UNL     1       9.301  22.344   2.277  0.00  0.00    +0.000 A 
ATOM      2  C   UNL     1      10.386  23.220   2.262  0.00  0.00    +0.000 A 
ATOM      3  C   UNL     1      11.692  22.714   2.264  0.00  0.00    +0.000 A 
ATOM      4  C   UNL     1      11.919  21.337   2.281  0.00  0.00    +0.000 A 
ATOM      5  C   UNL     1      10.839  20.456   2.295  0.00  0.00    +0.000 A 
ATOM      6  C   UNL     1       9.547  20.966   2.294  0.00  0.00    +0.000 A 
ENDROOT
BRANCH   1   8
ATOM      7  C   UNL     1       7.473  23.280   1.082  0.00  0.00    +0.000 C 
ATOM      8  O   UNL     1       7.975  22.696   2.278  0.00  0.00    +0.000 OA
ENDBRANCH   1   8
BRANCH   6   9
ATOM      9  O   UNL     1       8.503  20.080   2.308  0.00  0.00    +0.000 OA
ATOM     10  H   UNL     1       8.916  19.211   2.471  0.00  0.00    +0.000 HD
ENDBRANCH   6   9
TORSDOF 2
ENDMDL
