MODEL 1
REMARK VINA RESULT:    -5.423      0.000      0.000
REMARK INTER + INTRA:          -7.891
REMARK INTER:                  -7.325
REMARK INTRA:                  -0.566
REMARK UNBOUND:                -0.566
REMARK  Name = 
REMARK  10 active torsions:
REMARK  status: ('A' for Active; 'I' for Inactive)
REMARK    1  A    between atoms: C_1  and  C_2
REMARK    2  A    between atoms: C_5  and  N_8
REMARK    3  A    between atoms: N_8  and  C_9
REMARK    4  A    between atoms: N_8  and  C_13
REMARK    5  A    between atoms: C_9  and  C_10
REMARK    6  A    between atoms: C_10  and  C_11
REMARK    7  A    between atoms: C_10  and  O_12
REMARK    8  A    between atoms: C_13  and  C_14
REMARK    9  A    between atoms: C_14  and  C_15
REMARK   10  A    between atoms: C_14  and  O_16
REMARK                            x       y       z     vdW  Elec       q    Type
REMARK                         _______ _______ _______ _____ _____    ______ ____
ROOT
ATOM      1  N   UNL     1       0.615  17.852  -9.108  0.00  0.00    +0.000 N 
ENDROOT
BRANCH   1   6
ATOM      2  C   UNL     1      -5.003  18.173 -10.397  0.00  0.00    +0.000 C 
ATOM      3  C   UNL     1      -3.544  18.114 -10.061  0.00  0.00    +0.000 A 
ATOM      4  C   UNL     1      -2.580  18.109 -11.063  0.00  0.00    +0.000 A 
ATOM      5  C   UNL     1      -1.215  18.024 -10.744  0.00  0.00    +0.000 A 
ATOM      6  C   UNL     1      -0.749  17.917  -9.421  0.00  0.00    +0.000 A 
ATOM      7  C   UNL     1      -1.751  17.927  -8.434  0.00  0.00    +0.000 A 
ATOM      8  C   UNL     1      -3.119  18.014  -8.739  0.00  0.00    +0.000 A 
ENDBRANCH   1   6
BRANCH   1   9
ATOM      9  C   UNL     1       1.539  17.077  -9.971  0.00  0.00    +0.000 C 
BRANCH   9  10
ATOM     10  C   UNL     1       2.500  17.980 -10.783  0.00  0.00    +0.000 C 
ATOM     11  C   UNL     1       2.644  17.474 -12.214  0.00  0.00    +0.000 C 
BRANCH  10  12
ATOM     12  O   UNL     1       2.018  19.329 -10.835  0.00  0.00    +0.000 OA
ATOM     13  H   UNL     1       2.761  19.923 -10.636  0.00  0.00    +0.000 HD
ENDBRANCH  10  12
ENDBRANCH   9  10
ENDBRANCH   1   9
BRANCH   1  14
ATOM     14  C   UNL     1       1.098  18.079  -7.722  0.00  0.00    +0.000 C 
BRANCH  14  15
ATOM     15  C   UNL     1       1.435  19.566  -7.457  0.00  0.00    +0.000 C 
ATOM     16  C   UNL     1       0.564  20.194  -6.376  0.00  0.00    +0.000 C 
BRANCH  15  17
ATOM     17  O   UNL     1       2.800  19.737  -7.080  0.00  0.00    +0.000 OA
ATOM     18  H   UNL     1       2.869  20.672  -6.799  0.00  0.00    +0.000 HD
ENDBRANCH  15  17
ENDBRANCH  14  15
ENDBRANCH   1  14
TORSDOF 7
ENDMDL
MODEL 2
REMARK VINA RESULT:    -5.266      2.935      4.991
REMARK INTER + INTRA:          -7.680
REMARK INTER:                  -7.189
REMARK INTRA:                  -0.490
REMARK UNBOUND:                -0.566
REMARK  Name = 
REMARK  10 active torsions:
REMARK  status: ('A' for Active; 'I' for Inactive)
REMARK    1  A    between atoms: C_1  and  C_2
REMARK    2  A    between atoms: C_5  and  N_8
REMARK    3  A    between atoms: N_8  and  C_9
REMARK    4  A    between atoms: N_8  and  C_13
REMARK    5  A    between atoms: C_9  and  C_10
REMARK    6  A    between atoms: C_10  and  C_11
REMARK    7  A    between atoms: C_10  and  O_12
REMARK    8  A    between atoms: C_13  and  C_14
REMARK    9  A    between atoms: C_14  and  C_15
REMARK   10  A    between atoms: C_14  and  O_16
REMARK                            x       y       z     vdW  Elec       q    Type
REMARK                         _______ _______ _______ _____ _____    ______ ____
ROOT
ATOM      1  N   UNL     1       1.537  17.350 -12.446  0.00  0.00    +0.000 N 
ENDROOT
BRANCH   1   6
ATOM      2  C   UNL     1      -0.604  18.560  -7.224  0.00  0.00    +0.000 C 
ATOM      3  C   UNL     1      -0.033  18.266  -8.577  0.00  0.00    +0.000 A 
ATOM      4  C   UNL     1      -0.614  18.790  -9.727  0.00  0.00    +0.000 A 
ATOM      5  C   UNL     1      -0.093  18.486 -10.995  0.00  0.00    +0.000 A 
ATOM      6  C   UNL     1       1.010  17.633 -11.180  0.00  0.00    +0.000 A 
ATOM      7  C   UNL     1       1.573  17.123  -9.996  0.00  0.00    +0.000 A 
ATOM      8  C   UNL     1       1.063  17.421  -8.721  0.00  0.00    +0.000 A 
ENDBRANCH   1   6
BRANCH   1   9
ATOM      9  C   UNL     1       2.919  17.766 -12.787  0.00  0.00    +0.000 C 
BRANCH   9  10
ATOM     10  C   UNL     1       3.067  19.301 -12.921  0.00  0.00    +0.000 C 
ATOM     11  C   UNL     1       3.612  19.911 -11.635  0.00  0.00    +0.000 C 
BRANCH  10  12
ATOM     12  O   UNL     1       3.963  19.641 -13.988  0.00  0.00    +0.000 OA
ATOM     13  H   UNL     1       4.864  19.399 -13.714  0.00  0.00    +0.000 HD
ENDBRANCH  10  12
ENDBRANCH   9  10
ENDBRANCH   1   9
BRANCH   1  14
ATOM     14  C   UNL     1       0.649  17.119 -13.614  0.00  0.00    +0.000 C 
BRANCH  14  15
ATOM     15  C   UNL     1       0.521  15.616 -13.963  0.00  0.00    +0.000 C 
ATOM     16  C   UNL     1       1.430  15.187 -15.109  0.00  0.00    +0.000 C 
BRANCH  15  17
ATOM     17  O   UNL     1       0.807  14.788 -12.837  0.00  0.00    +0.000 OA
ATOM     18  H   UNL     1       1.168  15.396 -12.161  0.00  0.00    +0.000 HD
ENDBRANCH  15  17
ENDBRANCH  14  15
ENDBRANCH   1  14
TORSDOF 7
ENDMDL
MODEL 3
REMARK VINA RESULT:    -5.223      2.801      4.980
REMARK INTER + INTRA:          -7.621
REMARK INTER:                  -7.099
REMARK INTRA:                  -0.522
REMARK UNBOUND:                -0.566
REMARK  Name = 
REMARK  10 active torsions:
REMARK  status: ('A' for Active; 'I' for Inactive)
REMARK    1  A    between atoms: C_1  and  C_2
REMARK    2  A    between atoms: C_5  and  N_8
REMARK    3  A    between atoms: N_8  and  C_9
REMARK    4  A    between atoms: N_8  and  C_13
REMARK    5  A    between atoms: C_9  and  C_10
REMARK    6  A    between atoms: C_10  and  C_11
REMARK    7  A    between atoms: C_10  and  O_12
REMARK    8  A    between atoms: C_13  and  C_14
REMARK    9  A    between atoms: C_14  and  C_15
REMARK   10  A    between atoms: C_14  and  O_16
REMARK                            x       y       z     vdW  Elec       q    Type
REMARK                         _______ _______ _______ _____ _____    ______ ____
ROOT
ATOM      1  N   UNL     1       1.538  17.333 -12.473  0.00  0.00    +0.000 N 
ENDROOT
BRANCH   1   6
ATOM      2  C   UNL     1      -1.166  18.171  -7.442  0.00  0.00    +0.000 C 
ATOM      3  C   UNL     1      -0.474  17.931  -8.748  0.00  0.00    +0.000 A 
ATOM      4  C   UNL     1       0.822  17.429  -8.788  0.00  0.00    +0.000 A 
ATOM      5  C   UNL     1       1.477  17.234 -10.015  0.00  0.00    +0.000 A 
ATOM      6  C   UNL     1       0.886  17.549 -11.252  0.00  0.00    +0.000 A 
ATOM      7  C   UNL     1      -0.425  18.051 -11.174  0.00  0.00    +0.000 A 
ATOM      8  C   UNL     1      -1.093  18.249  -9.954  0.00  0.00    +0.000 A 
ENDBRANCH   1   6
BRANCH   1   9
ATOM      9  C   UNL     1       2.943  17.773 -12.653  0.00  0.00    +0.000 C 
BRANCH   9  10
ATOM     10  C   UNL     1       3.076  19.308 -12.805  0.00  0.00    +0.000 C 
ATOM     11  C   UNL     1       3.625  19.936 -11.530  0.00  0.00    +0.000 C 
BRANCH  10  12
ATOM     12  O   UNL     1       3.962  19.643 -13.882  0.00  0.00    +0.000 OA
ATOM     13  H   UNL     1       4.296  18.816 -14.267  0.00  0.00    +0.000 HD
ENDBRANCH  10  12
ENDBRANCH   9  10
ENDBRANCH   1   9
BRANCH   1  14
ATOM     14  C   UNL     1       0.772  17.159 -13.733  0.00  0.00    +0.000 C 
BRANCH  14  15
ATOM     15  C   UNL     1       0.717  15.679 -14.183  0.00  0.00    +0.000 C 
ATOM     16  C   UNL     1       1.684  15.360 -15.316  0.00  0.00    +0.000 C 
BRANCH  15  17
ATOM     17  O   UNL     1       0.993  14.789 -13.103  0.00  0.00    +0.000 OA
ATOM     18  H   UNL     1       0.854  15.322 -12.294  0.00  0.00    +0.000 HD
ENDBRANCH  15  17
ENDBRANCH  14  15
ENDBRANCH   1  14
TORSDOF 7
ENDMDL
MODEL 4
REMARK VINA RESULT:    -5.157      2.631      4.237
REMARK INTER + INTRA:          -7.532
REMARK INTER:                  -6.932
REMARK INTRA:                  -0.600
REMARK UNBOUND:                -0.566
REMARK  Name = 
REMARK  10 active torsions:
REMARK  status: ('A' for Active; 'I' for Inactive)
REMARK    1  A    between atoms: C_1  and  C_2
REMARK    2  A    between atoms: C_5  and  N_8
REMARK    3  A    between atoms: N_8  and  C_9
REMARK    4  A    between atoms: N_8  and  C_13
REMARK    5  A    between atoms: C_9  and  C_10
REMARK    6  A    between atoms: C_10  and  C_11
REMARK    7  A    between atoms: C_10  and  O_12
REMARK    8  A    between atoms: C_13  and  C_14
REMARK    9  A    between atoms: C_14  and  C_15
REMARK   10  A    between atoms: C_14  and  O_16
REMARK                            x       y       z     vdW  Elec       q    Type
REMARK                         _______ _______ _______ _____ _____    ______ ____
ROOT
ATOM      1  N   UNL     1       1.116  17.732 -12.195  0.00  0.00    +0.000 N 
ENDROOT
BRANCH   1   6
ATOM      2  C   UNL     1      -1.367  18.425  -7.030  0.00  0.00    +0.000 C 
ATOM      3  C   UNL     1      -0.713  18.268  -8.369  0.00  0.00    +0.000 A 
ATOM      4  C   UNL     1      -1.384  18.614  -9.537  0.00  0.00    +0.000 A 
ATOM      5  C   UNL     1      -0.777  18.437 -10.791  0.00  0.00    +0.000 A 
ATOM      6  C   UNL     1       0.509  17.888 -10.943  0.00  0.00    +0.000 A 
ATOM      7  C   UNL     1       1.159  17.552  -9.741  0.00  0.00    +0.000 A 
ATOM      8  C   UNL     1       0.564  17.726  -8.480  0.00  0.00    +0.000 A 
ENDBRANCH   1   6
BRANCH   1   9
ATOM      9  C   UNL     1       0.433  16.962 -13.262  0.00  0.00    +0.000 C 
BRANCH   9  10
ATOM     10  C   UNL     1       0.165  15.491 -12.862  0.00  0.00    +0.000 C 
ATOM     11  C   UNL     1      -1.226  15.050 -13.302  0.00  0.00    +0.000 C 
BRANCH  10  12
ATOM     12  O   UNL     1       1.122  14.611 -13.469  0.00  0.00    +0.000 OA
ATOM     13  H   UNL     1       1.843  15.152 -13.829  0.00  0.00    +0.000 HD
ENDBRANCH  10  12
ENDBRANCH   9  10
ENDBRANCH   1   9
BRANCH   1  14
ATOM     14  C   UNL     1       2.588  17.851 -12.357  0.00  0.00    +0.000 C 
BRANCH  14  15
ATOM     15  C   UNL     1       3.041  19.321 -12.524  0.00  0.00    +0.000 C 
ATOM     16  C   UNL     1       3.671  19.902 -11.263  0.00  0.00    +0.000 C 
BRANCH  15  17
ATOM     17  O   UNL     1       3.976  19.467 -13.592  0.00  0.00    +0.000 OA
ATOM     18  H   UNL     1       4.696  20.019 -13.224  0.00  0.00    +0.000 HD
ENDBRANCH  15  17
ENDBRANCH  14  15
ENDBRANCH   1  14
TORSDOF 7
ENDMDL
MODEL 5
REMARK VINA RESULT:    -5.153      2.861      4.521
REMARK INTER + INTRA:          -7.527
REMARK INTER:                  -7.032
REMARK INTRA:                  -0.494
REMARK UNBOUND:                -0.566
REMARK  Name = 
REMARK  10 active torsions:
REMARK  status: ('A' for Active; 'I' for Inactive)
REMARK    1  A    between atoms: C_1  and  C_2
REMARK    2  A    between atoms: C_5  and  N_8
REMARK    3  A    between atoms: N_8  and  C_9
REMARK    4  A    between atoms: N_8  and  C_13
REMARK    5  A    between atoms: C_9  and  C_10
REMARK    6  A    between atoms: C_10  and  C_11
REMARK    7  A    between atoms: C_10  and  O_12
REMARK    8  A    between atoms: C_13  and  C_14
REMARK    9  A    between atoms: C_14  and  C_15
REMARK   10  A    between atoms: C_14  and  O_16
REMARK                            x       y       z     vdW  Elec       q    Type
REMARK                         _______ _______ _______ _____ _____    ______ ____
ROOT
ATOM      1  N   UNL     1       1.446  18.232 -12.336  0.00  0.00    +0.000 N 
ENDROOT
BRANCH   1   6
ATOM      2  C   UNL     1      -2.016  17.862  -7.731  0.00  0.00    +0.000 C 
ATOM      3  C   UNL     1      -1.109  17.981  -8.918  0.00  0.00    +0.000 A 
ATOM      4  C   UNL     1      -1.560  18.542 -10.108  0.00  0.00    +0.000 A 
ATOM      5  C   UNL     1      -0.715  18.622 -11.227  0.00  0.00    +0.000 A 
ATOM      6  C   UNL     1       0.603  18.131 -11.223  0.00  0.00    +0.000 A 
ATOM      7  C   UNL     1       1.025  17.572 -10.002  0.00  0.00    +0.000 A 
ATOM      8  C   UNL     1       0.192  17.487  -8.875  0.00  0.00    +0.000 A 
ENDBRANCH   1   6
BRANCH   1   9
ATOM      9  C   UNL     1       2.026  17.010 -12.943  0.00  0.00    +0.000 C 
BRANCH   9  10
ATOM     10  C   UNL     1       0.964  16.123 -13.637  0.00  0.00    +0.000 C 
ATOM     11  C   UNL     1       1.238  16.014 -15.133  0.00  0.00    +0.000 C 
BRANCH  10  12
ATOM     12  O   UNL     1       0.961  14.798 -13.089  0.00  0.00    +0.000 OA
ATOM     13  H   UNL     1       0.043  14.560 -12.879  0.00  0.00    +0.000 HD
ENDBRANCH  10  12
ENDBRANCH   9  10
ENDBRANCH   1   9
BRANCH   1  14
ATOM     14  C   UNL     1       2.187  19.486 -12.627  0.00  0.00    +0.000 C 
BRANCH  14  15
ATOM     15  C   UNL     1       2.614  19.581 -14.112  0.00  0.00    +0.000 C 
ATOM     16  C   UNL     1       1.733  20.517 -14.930  0.00  0.00    +0.000 C 
BRANCH  15  17
ATOM     17  O   UNL     1       3.966  20.018 -14.245  0.00  0.00    +0.000 OA
ATOM     18  H   UNL     1       4.353  19.437 -14.931  0.00  0.00    +0.000 HD
ENDBRANCH  15  17
ENDBRANCH  14  15
ENDBRANCH   1  14
TORSDOF 7
ENDMDL
MODEL 6
REMARK VINA RESULT:    -5.078      2.984      5.072
REMARK INTER + INTRA:          -7.426
REMARK INTER:                  -6.928
REMARK INTRA:                  -0.497
REMARK UNBOUND:                -0.566
REMARK  Name = 
REMARK  10 active torsions:
REMARK  status: ('A' for Active; 'I' for Inactive)
REMARK    1  A    between atoms: C_1  and  C_2
REMARK    2  A    between atoms: C_5  and  N_8
REMARK    3  A    between atoms: N_8  and  C_9
REMARK    4  A    between atoms: N_8  and  C_13
REMARK    5  A    between atoms: C_9  and  C_10
REMARK    6  A    between atoms: C_10  and  C_11
REMARK    7  A    between atoms: C_10  and  O_12
REMARK    8  A    between atoms: C_13  and  C_14
REMARK    9  A    between atoms: C_14  and  C_15
REMARK   10  A    between atoms: C_14  and  O_16
REMARK                            x       y       z     vdW  Elec       q    Type
REMARK                         _______ _______ _______ _____ _____    ______ ____
ROOT
ATOM      1  N   UNL     1       0.781  18.036 -11.969  0.00  0.00    +0.000 N 
ENDROOT
BRANCH   1   6
ATOM      2  C   UNL     1      -0.096  18.919  -6.331  0.00  0.00    +0.000 C 
ATOM      3  C   UNL     1       0.132  18.665  -7.790  0.00  0.00    +0.000 A 
ATOM      4  C   UNL     1       1.419  18.642  -8.319  0.00  0.00    +0.000 A 
ATOM      5  C   UNL     1       1.625  18.434  -9.692  0.00  0.00    +0.000 A 
ATOM      6  C   UNL     1       0.567  18.263 -10.603  0.00  0.00    +0.000 A 
ATOM      7  C   UNL     1      -0.719  18.290 -10.034  0.00  0.00    +0.000 A 
ATOM      8  C   UNL     1      -0.939  18.495  -8.662  0.00  0.00    +0.000 A 
ENDBRANCH   1   6
BRANCH   1   9
ATOM      9  C   UNL     1      -0.257  18.418 -12.957  0.00  0.00    +0.000 C 
BRANCH   9  10
ATOM     10  C   UNL     1      -0.109  19.880 -13.447  0.00  0.00    +0.000 C 
ATOM     11  C   UNL     1       0.874  19.969 -14.608  0.00  0.00    +0.000 C 
BRANCH  10  12
ATOM     12  O   UNL     1      -1.369  20.403 -13.890  0.00  0.00    +0.000 OA
ATOM     13  H   UNL     1      -1.646  19.900 -14.674  0.00  0.00    +0.000 HD
ENDBRANCH  10  12
ENDBRANCH   9  10
ENDBRANCH   1   9
BRANCH   1  14
ATOM     14  C   UNL     1       1.736  16.999 -12.436  0.00  0.00    +0.000 C 
BRANCH  14  15
ATOM     15  C   UNL     1       1.188  16.202 -13.644  0.00  0.00    +0.000 C 
ATOM     16  C   UNL     1       2.042  16.351 -14.898  0.00  0.00    +0.000 C 
BRANCH  15  17
ATOM     17  O   UNL     1       1.076  14.810 -13.350  0.00  0.00    +0.000 OA
ATOM     18  H   UNL     1       0.485  14.452 -14.043  0.00  0.00    +0.000 HD
ENDBRANCH  15  17
ENDBRANCH  14  15
ENDBRANCH   1  14
TORSDOF 7
ENDMDL
MODEL 7
REMARK VINA RESULT:    -5.037      2.013      4.325
REMARK INTER + INTRA:          -7.370
REMARK INTER:                  -6.885
REMARK INTRA:                  -0.485
REMARK UNBOUND:                -0.566
REMARK  Name = 
REMARK  10 active torsions:
REMARK  status: ('A' for Active; 'I' for Inactive)
REMARK    1  A    between atoms: C_1  and  C_2
REMARK    2  A    between atoms: C_5  and  N_8
REMARK    3  A    between atoms: N_8  and  C_9
REMARK    4  A    between atoms: N_8  and  C_13
REMARK    5  A    between atoms: C_9  and  C_10
REMARK    6  A    between atoms: C_10  and  C_11
REMARK    7  A    between atoms: C_10  and  O_12
REMARK    8  A    between atoms: C_13  and  C_14
REMARK    9  A    between atoms: C_14  and  C_15
REMARK   10  A    between atoms: C_14  and  O_16
REMARK                            x       y       z     vdW  Elec       q    Type
REMARK                         _______ _______ _______ _____ _____    ______ ____
ROOT
ATOM      1  N   UNL     1       0.077  17.916  -9.243  0.00  0.00    +0.000 N 
ENDROOT
BRANCH   1   6
ATOM      2  C   UNL     1       1.277  15.665 -14.422  0.00  0.00    +0.000 C 
ATOM      3  C   UNL     1       0.967  16.272 -13.088  0.00  0.00    +0.000 A 
ATOM      4  C   UNL     1       1.979  16.538 -12.172  0.00  0.00    +0.000 A 
ATOM      5  C   UNL     1       1.680  17.080 -10.911  0.00  0.00    +0.000 A 
ATOM      6  C   UNL     1       0.366  17.358 -10.495  0.00  0.00    +0.000 A 
ATOM      7  C   UNL     1      -0.632  17.079 -11.447  0.00  0.00    +0.000 A 
ATOM      8  C   UNL     1      -0.346  16.540 -12.712  0.00  0.00    +0.000 A 
ENDBRANCH   1   6
BRANCH   1   9
ATOM      9  C   UNL     1      -1.070  17.410  -8.451  0.00  0.00    +0.000 C 
BRANCH   9  10
ATOM     10  C   UNL     1      -2.113  18.510  -8.135  0.00  0.00    +0.000 C 
ATOM     11  C   UNL     1      -3.434  18.226  -8.839  0.00  0.00    +0.000 C 
BRANCH  10  12
ATOM     12  O   UNL     1      -2.369  18.586  -6.725  0.00  0.00    +0.000 OA
ATOM     13  H   UNL     1      -3.330  18.549  -6.591  0.00  0.00    +0.000 HD
ENDBRANCH  10  12
ENDBRANCH   9  10
ENDBRANCH   1   9
BRANCH   1  14
ATOM     14  C   UNL     1       0.519  19.290  -8.893  0.00  0.00    +0.000 C 
BRANCH  14  15
ATOM     15  C   UNL     1       1.477  19.304  -7.677  0.00  0.00    +0.000 C 
ATOM     16  C   UNL     1       0.921  20.073  -6.485  0.00  0.00    +0.000 C 
BRANCH  15  17
ATOM     17  O   UNL     1       1.794  17.983  -7.241  0.00  0.00    +0.000 OA
ATOM     18  H   UNL     1       2.757  17.996  -7.072  0.00  0.00    +0.000 HD
ENDBRANCH  15  17
ENDBRANCH  14  15
ENDBRANCH   1  14
TORSDOF 7
ENDMDL
MODEL 8
REMARK VINA RESULT:    -4.929      1.945      5.173
REMARK INTER + INTRA:          -7.224
REMARK INTER:                  -6.710
REMARK INTRA:                  -0.514
REMARK UNBOUND:                -0.566
REMARK  Name = 
REMARK  10 active torsions:
REMARK  status: ('A' for Active; 'I' for Inactive)
REMARK    1  A    between atoms: C_1  and  C_2
REMARK    2  A    between atoms: C_5  and  N_8
REMARK    3  A    between atoms: N_8  and  C_9
REMARK    4  A    between atoms: N_8  and  C_13
REMARK    5  A    between atoms: C_9  and  C_10
REMARK    6  A    between atoms: C_10  and  C_11
REMARK    7  A    between atoms: C_10  and  O_12
REMARK    8  A    between atoms: C_13  and  C_14
REMARK    9  A    between atoms: C_14  and  C_15
REMARK   10  A    between atoms: C_14  and  O_16
REMARK                            x       y       z     vdW  Elec       q    Type
REMARK                         _______ _______ _______ _____ _____    ______ ____
ROOT
ATOM      1  N   UNL     1       0.515  18.588 -10.243  0.00  0.00    +0.000 N 
ENDROOT
BRANCH   1   6
ATOM      2  C   UNL     1       3.117  17.043 -15.159  0.00  0.00    +0.000 C 
ATOM      3  C   UNL     1       2.453  17.425 -13.872  0.00  0.00    +0.000 A 
ATOM      4  C   UNL     1       1.210  16.906 -13.527  0.00  0.00    +0.000 A 
ATOM      5  C   UNL     1       0.579  17.291 -12.333  0.00  0.00    +0.000 A 
ATOM      6  C   UNL     1       1.140  18.223 -11.442  0.00  0.00    +0.000 A 
ATOM      7  C   UNL     1       2.399  18.726 -11.821  0.00  0.00    +0.000 A 
ATOM      8  C   UNL     1       3.042  18.347 -13.011  0.00  0.00    +0.000 A 
ENDBRANCH   1   6
BRANCH   1   9
ATOM      9  C   UNL     1       1.009  18.051  -8.953  0.00  0.00    +0.000 C 
BRANCH   9  10
ATOM     10  C   UNL     1       1.119  19.136  -7.854  0.00  0.00    +0.000 C 
ATOM     11  C   UNL     1       0.244  18.788  -6.655  0.00  0.00    +0.000 C 
BRANCH  10  12
ATOM     12  O   UNL     1       2.471  19.269  -7.394  0.00  0.00    +0.000 OA
ATOM     13  H   UNL     1       2.453  19.706  -6.527  0.00  0.00    +0.000 HD
ENDBRANCH  10  12
ENDBRANCH   9  10
ENDBRANCH   1   9
BRANCH   1  14
ATOM     14  C   UNL     1      -0.893  19.061 -10.224  0.00  0.00    +0.000 C 
BRANCH  14  15
ATOM     15  C   UNL     1      -1.875  17.955  -9.769  0.00  0.00    +0.000 C 
ATOM     16  C   UNL     1      -2.846  18.421  -8.690  0.00  0.00    +0.000 C 
BRANCH  15  17
ATOM     17  O   UNL     1      -2.640  17.447 -10.861  0.00  0.00    +0.000 OA
ATOM     18  H   UNL     1      -2.652  16.477 -10.732  0.00  0.00    +0.000 HD
ENDBRANCH  15  17
ENDBRANCH  14  15
ENDBRANCH   1  14
TORSDOF 7
ENDMDL
MODEL 9
REMARK VINA RESULT:    -4.899      2.920      4.922
REMARK INTER + INTRA:          -7.183
REMARK INTER:                  -6.379
REMARK INTRA:                  -0.805
REMARK UNBOUND:                -0.566
REMARK  Name = 
REMARK  10 active torsions:
REMARK  status: ('A' for Active; 'I' for Inactive)
REMARK    1  A    between atoms: C_1  and  C_2
REMARK    2  A    between atoms: C_5  and  N_8
REMARK    3  A    between atoms: N_8  and  C_9
REMARK    4  A    between atoms: N_8  and  C_13
REMARK    5  A    between atoms: C_9  and  C_10
REMARK    6  A    between atoms: C_10  and  C_11
REMARK    7  A    between atoms: C_10  and  O_12
REMARK    8  A    between atoms: C_13  and  C_14
REMARK    9  A    between atoms: C_14  and  C_15
REMARK   10  A    between atoms: C_14  and  O_16
REMARK                            x       y       z     vdW  Elec       q    Type
REMARK                         _______ _______ _______ _____ _____    ______ ____
ROOT
ATOM      1  N   UNL     1       0.539  18.261 -11.338  0.00  0.00    +0.000 N 
ENDROOT
BRANCH   1   6
ATOM      2  C   UNL     1       3.238  21.936 -14.880  0.00  0.00    +0.000 C 
ATOM      3  C   UNL     1       2.538  21.000 -13.943  0.00  0.00    +0.000 A 
ATOM      4  C   UNL     1       3.258  20.111 -13.151  0.00  0.00    +0.000 A 
ATOM      5  C   UNL     1       2.595  19.215 -12.296  0.00  0.00    +0.000 A 
ATOM      6  C   UNL     1       1.193  19.144 -12.207  0.00  0.00    +0.000 A 
ATOM      7  C   UNL     1       0.498  20.058 -13.020  0.00  0.00    +0.000 A 
ATOM      8  C   UNL     1       1.148  20.961 -13.877  0.00  0.00    +0.000 A 
ENDBRANCH   1   6
BRANCH   1   9
ATOM      9  C   UNL     1      -0.292  17.161 -11.883  0.00  0.00    +0.000 C 
BRANCH   9  10
ATOM     10  C   UNL     1       0.535  15.899 -12.229  0.00  0.00    +0.000 C 
ATOM     11  C   UNL     1       0.839  15.838 -13.721  0.00  0.00    +0.000 C 
BRANCH  10  12
ATOM     12  O   UNL     1       1.783  15.891 -11.521  0.00  0.00    +0.000 OA
ATOM     13  H   UNL     1       1.590  15.945 -10.570  0.00  0.00    +0.000 HD
ENDBRANCH  10  12
ENDBRANCH   9  10
ENDBRANCH   1   9
BRANCH   1  14
ATOM     14  C   UNL     1       0.218  18.653  -9.941  0.00  0.00    +0.000 C 
BRANCH  14  15
ATOM     15  C   UNL     1       1.420  18.452  -8.987  0.00  0.00    +0.000 C 
ATOM     16  C   UNL     1       1.153  18.954  -7.573  0.00  0.00    +0.000 C 
BRANCH  15  17
ATOM     17  O   UNL     1       1.803  17.080  -8.904  0.00  0.00    +0.000 OA
ATOM     18  H   UNL     1       2.498  16.970  -9.583  0.00  0.00    +0.000 HD
ENDBRANCH  15  17
ENDBRANCH  14  15
ENDBRANCH   1  14
TORSDOF 7
ENDMDL
