MODEL 1
REMARK VINA RESULT:    -4.422      0.000      0.000
REMARK INTER + INTRA:          -4.861
REMARK INTER:                  -4.810
REMARK INTRA:                  -0.052
REMARK UNBOUND:                -0.052
REMARK  Name = 
REMARK  3 active torsions:
REMARK  status: ('A' for Active; 'I' for Inactive)
REMARK    1  A    between atoms: C_1  and  O_2
REMARK    2  A    between atoms: O_2  and  C_3
REMARK    3  A    between atoms: C_8  and  O_9
REMARK                            x       y       z     vdW  Elec       q    Type
REMARK                         _______ _______ _______ _____ _____    ______ ____
ROOT
ATOM      1  C   UNL     1       1.551  13.154  -0.312  0.00  0.00    +0.000 A 
ATOM      2  C   UNL     1       0.570  13.432   0.640  0.00  0.00    +0.000 A 
ATOM      3  C   UNL     1      -0.109  14.656   0.607  0.00  0.00    +0.000 A 
ATOM      4  C   UNL     1       0.188  15.605  -0.374  0.00  0.00    +0.000 A 
ATOM      5  C   UNL     1       1.166  15.334  -1.328  0.00  0.00    +0.000 A 
ATOM      6  C   UNL     1       1.835  14.118  -1.287  0.00  0.00    +0.000 A 
ENDROOT
BRANCH   1   8
ATOM      7  C   UNL     1       1.596  10.828  -0.796  0.00  0.00    +0.000 C 
ATOM      8  O   UNL     1       2.293  12.003  -0.400  0.00  0.00    +0.000 OA
ENDBRANCH   1   8
BRANCH   6   9
ATOM      9  O   UNL     1       2.793  13.874  -2.236  0.00  0.00    +0.000 OA
ATOM     10  H   UNL     1       3.012  14.754  -2.599  0.00  0.00    +0.000 HD
ENDBRANCH   6   9
TORSDOF 2
ENDMDL
MODEL 2
REMARK VINA RESULT:    -4.112      9.616     11.044
REMARK INTER + INTRA:          -4.524
REMARK INTER:                  -4.473
REMARK INTRA:                  -0.052
REMARK UNBOUND:                -0.052
REMARK  Name = 
REMARK  3 active torsions:
REMARK  status: ('A' for Active; 'I' for Inactive)
REMARK    1  A    between atoms: C_1  and  O_2
REMARK    2  A    between atoms: O_2  and  C_3
REMARK    3  A    between atoms: C_8  and  O_9
REMARK                            x       y       z     vdW  Elec       q    Type
REMARK                         _______ _______ _______ _____ _____    ______ ____
ROOT
ATOM      1  C   UNL     1       1.619  17.523  -9.974  0.00  0.00    +0.000 A 
ATOM      2  C   UNL     1       1.523  16.668 -11.071  0.00  0.00    +0.000 A 
ATOM      3  C   UNL     1       2.304  16.902 -12.210  0.00  0.00    +0.000 A 
ATOM      4  C   UNL     1       3.180  17.988 -12.257  0.00  0.00    +0.000 A 
ATOM      5  C   UNL     1       3.281  18.846 -11.165  0.00  0.00    +0.000 A 
ATOM      6  C   UNL     1       2.503  18.607 -10.040  0.00  0.00    +0.000 A 
ENDROOT
BRANCH   1   8
ATOM      7  C   UNL     1      -0.477  17.688  -8.866  0.00  0.00    +0.000 C 
ATOM      8  O   UNL     1       0.918  17.417  -8.799  0.00  0.00    +0.000 OA
ENDBRANCH   1   8
BRANCH   6   9
ATOM      9  O   UNL     1       2.620  19.465  -8.979  0.00  0.00    +0.000 OA
ATOM     10  H   UNL     1       1.700  19.676  -8.727  0.00  0.00    +0.000 HD
ENDBRANCH   6   9
TORSDOF 2
ENDMDL
MODEL 3
REMARK VINA RESULT:    -4.055      8.314      9.152
REMARK INTER + INTRA:          -4.462
REMARK INTER:                  -4.421
REMARK INTRA:                  -0.041
REMARK UNBOUND:                -0.052
REMARK  Name = 
REMARK  3 active torsions:
REMARK  status: ('A' for Active; 'I' for Inactive)
REMARK    1  A    between atoms: C_1  and  O_2
REMARK    2  A    between atoms: O_2  and  C_3
REMARK    3  A    between atoms: C_8  and  O_9
REMARK                            x       y       z     vdW  Elec       q    Type
REMARK                         _______ _______ _______ _____ _____    ______ ____
ROOT
ATOM      1  C   UNL     1       0.634  18.049  -8.742  0.00  0.00    +0.000 A 
ATOM      2  C   UNL     1      -0.667  17.669  -9.071  0.00  0.00    +0.000 A 
ATOM      3  C   UNL     1      -1.711  17.895  -8.166  0.00  0.00    +0.000 A 
ATOM      4  C   UNL     1      -1.461  18.500  -6.932  0.00  0.00    +0.000 A 
ATOM      5  C   UNL     1      -0.164  18.882  -6.597  0.00  0.00    +0.000 A 
ATOM      6  C   UNL     1       0.866  18.654  -7.500  0.00  0.00    +0.000 A 
ENDROOT
BRANCH   1   8
ATOM      7  C   UNL     1       1.736  16.791 -10.430  0.00  0.00    +0.000 C 
ATOM      8  O   UNL     1       1.748  17.889  -9.526  0.00  0.00    +0.000 OA
ENDBRANCH   1   8
BRANCH   6   9
ATOM      9  O   UNL     1       2.132  19.039  -7.148  0.00  0.00    +0.000 OA
ATOM     10  H   UNL     1       2.210  18.802  -6.204  0.00  0.00    +0.000 HD
ENDBRANCH   6   9
TORSDOF 2
ENDMDL
MODEL 4
REMARK VINA RESULT:    -4.004      8.727     10.058
REMARK INTER + INTRA:          -4.408
REMARK INTER:                  -4.361
REMARK INTRA:                  -0.047
REMARK UNBOUND:                -0.052
REMARK  Name = 
REMARK  3 active torsions:
REMARK  status: ('A' for Active; 'I' for Inactive)
REMARK    1  A    between atoms: C_1  and  O_2
REMARK    2  A    between atoms: O_2  and  C_3
REMARK    3  A    between atoms: C_8  and  O_9
REMARK                            x       y       z     vdW  Elec       q    Type
REMARK                         _______ _______ _______ _____ _____    ______ ____
ROOT
ATOM      1  C   UNL     1      -0.209  17.673  -9.077  0.00  0.00    +0.000 A 
ATOM      2  C   UNL     1      -0.758  17.551 -10.352  0.00  0.00    +0.000 A 
ATOM      3  C   UNL     1       0.031  17.088 -11.413  0.00  0.00    +0.000 A 
ATOM      4  C   UNL     1       1.369  16.747 -11.204  0.00  0.00    +0.000 A 
ATOM      5  C   UNL     1       1.925  16.866  -9.932  0.00  0.00    +0.000 A 
ATOM      6  C   UNL     1       1.135  17.326  -8.886  0.00  0.00    +0.000 A 
ENDROOT
BRANCH   1   8
ATOM      7  C   UNL     1      -2.153  17.567  -7.715  0.00  0.00    +0.000 C 
ATOM      8  O   UNL     1      -0.860  18.111  -7.952  0.00  0.00    +0.000 OA
ENDBRANCH   1   8
BRANCH   6   9
ATOM      9  O   UNL     1       1.704  17.434  -7.645  0.00  0.00    +0.000 OA
ATOM     10  H   UNL     1       2.292  16.659  -7.573  0.00  0.00    +0.000 HD
ENDBRANCH   6   9
TORSDOF 2
ENDMDL
MODEL 5
REMARK VINA RESULT:    -3.948     11.113     12.106
REMARK INTER + INTRA:          -4.346
REMARK INTER:                  -4.307
REMARK INTRA:                  -0.040
REMARK UNBOUND:                -0.052
REMARK  Name = 
REMARK  3 active torsions:
REMARK  status: ('A' for Active; 'I' for Inactive)
REMARK    1  A    between atoms: C_1  and  O_2
REMARK    2  A    between atoms: O_2  and  C_3
REMARK    3  A    between atoms: C_8  and  O_9
REMARK                            x       y       z     vdW  Elec       q    Type
REMARK                         _______ _______ _______ _____ _____    ______ ____
ROOT
ATOM      1  C   UNL     1       1.961  16.940 -12.088  0.00  0.00    +0.000 A 
ATOM      2  C   UNL     1       1.576  17.211 -10.776  0.00  0.00    +0.000 A 
ATOM      3  C   UNL     1       2.202  18.240 -10.061  0.00  0.00    +0.000 A 
ATOM      4  C   UNL     1       3.213  19.000 -10.653  0.00  0.00    +0.000 A 
ATOM      5  C   UNL     1       3.603  18.735 -11.964  0.00  0.00    +0.000 A 
ATOM      6  C   UNL     1       2.977  17.712 -12.665  0.00  0.00    +0.000 A 
ENDROOT
BRANCH   1   8
ATOM      7  C   UNL     1       0.107  15.554 -12.622  0.00  0.00    +0.000 C 
ATOM      8  O   UNL     1       1.439  15.967 -12.902  0.00  0.00    +0.000 OA
ENDBRANCH   1   8
BRANCH   6   9
ATOM      9  O   UNL     1       3.378  17.471 -13.952  0.00  0.00    +0.000 OA
ATOM     10  H   UNL     1       2.676  17.859 -14.508  0.00  0.00    +0.000 HD
ENDBRANCH   6   9
TORSDOF 2
ENDMDL
MODEL 6
REMARK VINA RESULT:    -3.917     10.382     11.757
REMARK INTER + INTRA:          -4.313
REMARK INTER:                  -4.263
REMARK INTRA:                  -0.049
REMARK UNBOUND:                -0.052
REMARK  Name = 
REMARK  3 active torsions:
REMARK  status: ('A' for Active; 'I' for Inactive)
REMARK    1  A    between atoms: C_1  and  O_2
REMARK    2  A    between atoms: O_2  and  C_3
REMARK    3  A    between atoms: C_8  and  O_9
REMARK                            x       y       z     vdW  Elec       q    Type
REMARK                         _______ _______ _______ _____ _____    ______ ____
ROOT
ATOM      1  C   UNL     1       2.203  17.410 -10.750  0.00  0.00    +0.000 A 
ATOM      2  C   UNL     1       2.934  18.597 -10.747  0.00  0.00    +0.000 A 
ATOM      3  C   UNL     1       3.313  19.189 -11.958  0.00  0.00    +0.000 A 
ATOM      4  C   UNL     1       2.964  18.599 -13.174  0.00  0.00    +0.000 A 
ATOM      5  C   UNL     1       2.234  17.413 -13.186  0.00  0.00    +0.000 A 
ATOM      6  C   UNL     1       1.863  16.832 -11.980  0.00  0.00    +0.000 A 
ENDROOT
BRANCH   1   8
ATOM      7  C   UNL     1       1.027  17.467  -8.686  0.00  0.00    +0.000 C 
ATOM      8  O   UNL     1       1.767  16.723  -9.646  0.00  0.00    +0.000 OA
ENDBRANCH   1   8
BRANCH   6   9
ATOM      9  O   UNL     1       1.145  15.667 -12.017  0.00  0.00    +0.000 OA
ATOM     10  H   UNL     1       0.214  15.951 -12.094  0.00  0.00    +0.000 HD
ENDBRANCH   6   9
TORSDOF 2
ENDMDL
MODEL 7
REMARK VINA RESULT:    -3.832     11.850     12.999
REMARK INTER + INTRA:          -4.220
REMARK INTER:                  -4.183
REMARK INTRA:                  -0.037
REMARK UNBOUND:                -0.052
REMARK  Name = 
REMARK  3 active torsions:
REMARK  status: ('A' for Active; 'I' for Inactive)
REMARK    1  A    between atoms: C_1  and  O_2
REMARK    2  A    between atoms: O_2  and  C_3
REMARK    3  A    between atoms: C_8  and  O_9
REMARK                            x       y       z     vdW  Elec       q    Type
REMARK                         _______ _______ _______ _____ _____    ______ ____
ROOT
ATOM      1  C   UNL     1       2.571  17.534 -13.207  0.00  0.00    +0.000 A 
ATOM      2  C   UNL     1       1.866  16.742 -12.302  0.00  0.00    +0.000 A 
ATOM      3  C   UNL     1       1.833  17.089 -10.945  0.00  0.00    +0.000 A 
ATOM      4  C   UNL     1       2.504  18.226 -10.489  0.00  0.00    +0.000 A 
ATOM      5  C   UNL     1       3.210  19.023 -11.388  0.00  0.00    +0.000 A 
ATOM      6  C   UNL     1       3.237  18.670 -12.731  0.00  0.00    +0.000 A 
ENDROOT
BRANCH   1   8
ATOM      7  C   UNL     1       1.960  16.215 -15.087  0.00  0.00    +0.000 C 
ATOM      8  O   UNL     1       2.689  17.315 -14.556  0.00  0.00    +0.000 OA
ENDBRANCH   1   8
BRANCH   6   9
ATOM      9  O   UNL     1       3.938  19.469 -13.595  0.00  0.00    +0.000 OA
ATOM     10  H   UNL     1       4.650  18.897 -13.939  0.00  0.00    +0.000 HD
ENDBRANCH   6   9
TORSDOF 2
ENDMDL
MODEL 8
REMARK VINA RESULT:    -3.825     11.113     12.521
REMARK INTER + INTRA:          -4.213
REMARK INTER:                  -4.170
REMARK INTRA:                  -0.043
REMARK UNBOUND:                -0.052
REMARK  Name = 
REMARK  3 active torsions:
REMARK  status: ('A' for Active; 'I' for Inactive)
REMARK    1  A    between atoms: C_1  and  O_2
REMARK    2  A    between atoms: O_2  and  C_3
REMARK    3  A    between atoms: C_8  and  O_9
REMARK                            x       y       z     vdW  Elec       q    Type
REMARK                         _______ _______ _______ _____ _____    ______ ____
ROOT
ATOM      1  C   UNL     1       2.583  17.481 -12.696  0.00  0.00    +0.000 A 
ATOM      2  C   UNL     1       3.167  18.612 -12.127  0.00  0.00    +0.000 A 
ATOM      3  C   UNL     1       2.957  18.903 -10.773  0.00  0.00    +0.000 A 
ATOM      4  C   UNL     1       2.164  18.066  -9.985  0.00  0.00    +0.000 A 
ATOM      5  C   UNL     1       1.578  16.934 -10.546  0.00  0.00    +0.000 A 
ATOM      6  C   UNL     1       1.792  16.654 -11.889  0.00  0.00    +0.000 A 
ENDROOT
BRANCH   1   8
ATOM      7  C   UNL     1       2.761  18.106 -14.982  0.00  0.00    +0.000 C 
ATOM      8  O   UNL     1       2.702  17.077 -14.001  0.00  0.00    +0.000 OA
ENDBRANCH   1   8
BRANCH   6   9
ATOM      9  O   UNL     1       1.205  15.535 -12.418  0.00  0.00    +0.000 OA
ATOM     10  H   UNL     1       0.249  15.658 -12.259  0.00  0.00    +0.000 HD
ENDBRANCH   6   9
TORSDOF 2
ENDMDL
MODEL 9
REMARK VINA RESULT:    -3.774     11.507     12.505
REMARK INTER + INTRA:          -4.156
REMARK INTER:                  -4.107
REMARK INTRA:                  -0.050
REMARK UNBOUND:                -0.052
REMARK  Name = 
REMARK  3 active torsions:
REMARK  status: ('A' for Active; 'I' for Inactive)
REMARK    1  A    between atoms: C_1  and  O_2
REMARK    2  A    between atoms: O_2  and  C_3
REMARK    3  A    between atoms: C_8  and  O_9
REMARK                            x       y       z     vdW  Elec       q    Type
REMARK                         _______ _______ _______ _____ _____    ______ ____
ROOT
ATOM      1  C   UNL     1       9.202  22.350   2.275  0.00  0.00    +0.000 A 
ATOM      2  C   UNL     1      10.265  23.250   2.232  0.00  0.00    +0.000 A 
ATOM      3  C   UNL     1      11.583  22.776   2.212  0.00  0.00    +0.000 A 
ATOM      4  C   UNL     1      11.842  21.405   2.236  0.00  0.00    +0.000 A 
ATOM      5  C   UNL     1      10.785  20.499   2.279  0.00  0.00    +0.000 A 
ATOM      6  C   UNL     1       9.481  20.978   2.299  0.00  0.00    +0.000 A 
ENDROOT
BRANCH   1   8
ATOM      7  C   UNL     1       7.318  23.188   1.095  0.00  0.00    +0.000 C 
ATOM      8  O   UNL     1       7.868  22.670   2.300  0.00  0.00    +0.000 OA
ENDBRANCH   1   8
BRANCH   6   9
ATOM      9  O   UNL     1       8.459  20.068   2.342  0.00  0.00    +0.000 OA
ATOM     10  H   UNL     1       8.281  19.851   1.407  0.00  0.00    +0.000 HD
ENDBRANCH   6   9
TORSDOF 2
ENDMDL
