MODEL 1
REMARK VINA RESULT:    -5.413      0.000      0.000
REMARK INTER + INTRA:          -7.903
REMARK INTER:                  -7.312
REMARK INTRA:                  -0.591
REMARK UNBOUND:                -0.591
REMARK  Name = 
REMARK  10 active torsions:
REMARK  status: ('A' for Active; 'I' for Inactive)
REMARK    1  A    between atoms: C_1  and  C_2
REMARK    2  A    between atoms: C_5  and  N_8
REMARK    3  A    between atoms: N_8  and  C_9
REMARK    4  A    between atoms: N_8  and  C_13
REMARK    5  A    between atoms: C_9  and  C_10
REMARK    6  A    between atoms: C_10  and  C_11
REMARK    7  A    between atoms: C_10  and  O_12
REMARK    8  A    between atoms: C_13  and  C_14
REMARK    9  A    between atoms: C_14  and  C_15
REMARK   10  A    between atoms: C_14  and  O_16
REMARK                            x       y       z     vdW  Elec       q    Type
REMARK                         _______ _______ _______ _____ _____    ______ ____
ROOT
ATOM      1  N   UNL     1       0.673  17.932  -9.196  0.00  0.00    +0.000 N 
ENDROOT
BRANCH   1   6
ATOM      2  C   UNL     1      -5.004  18.236 -10.196  0.00  0.00    +0.000 C 
ATOM      3  C   UNL     1      -3.530  18.182  -9.935  0.00  0.00    +0.000 A 
ATOM      4  C   UNL     1      -2.619  18.163 -10.986  0.00  0.00    +0.000 A 
ATOM      5  C   UNL     1      -1.239  18.082 -10.736  0.00  0.00    +0.000 A 
ATOM      6  C   UNL     1      -0.705  17.993  -9.438  0.00  0.00    +0.000 A 
ATOM      7  C   UNL     1      -1.655  18.017  -8.401  0.00  0.00    +0.000 A 
ATOM      8  C   UNL     1      -3.037  18.100  -8.637  0.00  0.00    +0.000 A 
ENDBRANCH   1   6
BRANCH   1   9
ATOM      9  C   UNL     1       1.559  17.186 -10.122  0.00  0.00    +0.000 C 
BRANCH   9  10
ATOM     10  C   UNL     1       2.555  18.105 -10.870  0.00  0.00    +0.000 C 
ATOM     11  C   UNL     1       2.980  17.483 -12.195  0.00  0.00    +0.000 C 
BRANCH  10  12
ATOM     12  O   UNL     1       1.968  19.383 -11.147  0.00  0.00    +0.000 OA
ATOM     13  H   UNL     1       1.019  19.330 -10.942  0.00  0.00    +0.000 HD
ENDBRANCH  10  12
ENDBRANCH   9  10
ENDBRANCH   1   9
BRANCH   1  14
ATOM     14  C   UNL     1       1.223  18.129  -7.830  0.00  0.00    +0.000 C 
BRANCH  14  15
ATOM     15  C   UNL     1       1.635  19.599  -7.573  0.00  0.00    +0.000 C 
ATOM     16  C   UNL     1       0.726  20.312  -6.579  0.00  0.00    +0.000 C 
BRANCH  15  17
ATOM     17  O   UNL     1       2.976  19.694  -7.094  0.00  0.00    +0.000 OA
ATOM     18  H   UNL     1       3.123  20.650  -6.944  0.00  0.00    +0.000 HD
ENDBRANCH  15  17
ENDBRANCH  14  15
ENDBRANCH   1  14
TORSDOF 7
ENDMDL
MODEL 2
REMARK VINA RESULT:    -5.310      1.736      4.694
REMARK INTER + INTRA:          -7.764
REMARK INTER:                  -7.230
REMARK INTRA:                  -0.534
REMARK UNBOUND:                -0.591
REMARK  Name = 
REMARK  10 active torsions:
REMARK  status: ('A' for Active; 'I' for Inactive)
REMARK    1  A    between atoms: C_1  and  C_2
REMARK    2  A    between atoms: C_5  and  N_8
REMARK    3  A    between atoms: N_8  and  C_9
REMARK    4  A    between atoms: N_8  and  C_13
REMARK    5  A    between atoms: C_9  and  C_10
REMARK    6  A    between atoms: C_10  and  C_11
REMARK    7  A    between atoms: C_10  and  O_12
REMARK    8  A    between atoms: C_13  and  C_14
REMARK    9  A    between atoms: C_14  and  C_15
REMARK   10  A    between atoms: C_14  and  O_16
REMARK                            x       y       z     vdW  Elec       q    Type
REMARK                         _______ _______ _______ _____ _____    ______ ____
ROOT
ATOM      1  N   UNL     1       0.282  18.008  -8.785  0.00  0.00    +0.000 N 
ENDROOT
BRANCH   1   6
ATOM      2  C   UNL     1       2.460  17.473 -14.104  0.00  0.00    +0.000 C 
ATOM      3  C   UNL     1       1.877  17.595 -12.730  0.00  0.00    +0.000 A 
ATOM      4  C   UNL     1       0.913  18.556 -12.445  0.00  0.00    +0.000 A 
ATOM      5  C   UNL     1       0.392  18.686 -11.147  0.00  0.00    +0.000 A 
ATOM      6  C   UNL     1       0.820  17.886 -10.072  0.00  0.00    +0.000 A 
ATOM      7  C   UNL     1       1.793  16.924 -10.397  0.00  0.00    +0.000 A 
ATOM      8  C   UNL     1       2.321  16.782 -11.691  0.00  0.00    +0.000 A 
ENDBRANCH   1   6
BRANCH   1   9
ATOM      9  C   UNL     1       1.177  18.210  -7.621  0.00  0.00    +0.000 C 
BRANCH   9  10
ATOM     10  C   UNL     1       1.621  19.684  -7.454  0.00  0.00    +0.000 C 
ATOM     11  C   UNL     1       0.708  20.422  -6.482  0.00  0.00    +0.000 C 
BRANCH  10  12
ATOM     12  O   UNL     1       2.962  19.765  -6.952  0.00  0.00    +0.000 OA
ATOM     13  H   UNL     1       3.552  19.340  -7.597  0.00  0.00    +0.000 HD
ENDBRANCH  10  12
ENDBRANCH   9  10
ENDBRANCH   1   9
BRANCH   1  14
ATOM     14  C   UNL     1      -1.055  17.451  -8.454  0.00  0.00    +0.000 C 
BRANCH  14  15
ATOM     15  C   UNL     1      -2.104  18.561  -8.202  0.00  0.00    +0.000 C 
ATOM     16  C   UNL     1      -3.422  18.317  -8.929  0.00  0.00    +0.000 C 
BRANCH  15  17
ATOM     17  O   UNL     1      -2.388  18.711  -6.812  0.00  0.00    +0.000 OA
ATOM     18  H   UNL     1      -3.364  18.688  -6.749  0.00  0.00    +0.000 HD
ENDBRANCH  15  17
ENDBRANCH  14  15
ENDBRANCH   1  14
TORSDOF 7
ENDMDL
MODEL 3
REMARK VINA RESULT:    -5.248      2.914      4.942
REMARK INTER + INTRA:          -7.681
REMARK INTER:                  -7.179
REMARK INTRA:                  -0.502
REMARK UNBOUND:                -0.591
REMARK  Name = 
REMARK  10 active torsions:
REMARK  status: ('A' for Active; 'I' for Inactive)
REMARK    1  A    between atoms: C_1  and  C_2
REMARK    2  A    between atoms: C_5  and  N_8
REMARK    3  A    between atoms: N_8  and  C_9
REMARK    4  A    between atoms: N_8  and  C_13
REMARK    5  A    between atoms: C_9  and  C_10
REMARK    6  A    between atoms: C_10  and  C_11
REMARK    7  A    between atoms: C_10  and  O_12
REMARK    8  A    between atoms: C_13  and  C_14
REMARK    9  A    between atoms: C_14  and  C_15
REMARK   10  A    between atoms: C_14  and  O_16
REMARK                            x       y       z     vdW  Elec       q    Type
REMARK                         _______ _______ _______ _____ _____    ______ ____
ROOT
ATOM      1  N   UNL     1       1.532  17.379 -12.480  0.00  0.00    +0.000 N 
ENDROOT
BRANCH   1   6
ATOM      2  C   UNL     1      -0.582  18.543  -7.235  0.00  0.00    +0.000 C 
ATOM      3  C   UNL     1      -0.018  18.261  -8.594  0.00  0.00    +0.000 A 
ATOM      4  C   UNL     1      -0.606  18.794  -9.737  0.00  0.00    +0.000 A 
ATOM      5  C   UNL     1      -0.091  18.501 -11.010  0.00  0.00    +0.000 A 
ATOM      6  C   UNL     1       1.012  17.651 -11.208  0.00  0.00    +0.000 A 
ATOM      7  C   UNL     1       1.582  17.132 -10.032  0.00  0.00    +0.000 A 
ATOM      8  C   UNL     1       1.079  17.418  -8.752  0.00  0.00    +0.000 A 
ENDBRANCH   1   6
BRANCH   1   9
ATOM      9  C   UNL     1       2.911  17.801 -12.825  0.00  0.00    +0.000 C 
BRANCH   9  10
ATOM     10  C   UNL     1       3.055  19.337 -12.952  0.00  0.00    +0.000 C 
ATOM     11  C   UNL     1       3.596  19.943 -11.663  0.00  0.00    +0.000 C 
BRANCH  10  12
ATOM     12  O   UNL     1       3.952  19.683 -14.017  0.00  0.00    +0.000 OA
ATOM     13  H   UNL     1       4.737  19.116 -13.946  0.00  0.00    +0.000 HD
ENDBRANCH  10  12
ENDBRANCH   9  10
ENDBRANCH   1   9
BRANCH   1  14
ATOM     14  C   UNL     1       0.638  17.156 -13.645  0.00  0.00    +0.000 C 
BRANCH  14  15
ATOM     15  C   UNL     1       0.573  15.665 -14.055  0.00  0.00    +0.000 C 
ATOM     16  C   UNL     1       1.480  15.328 -15.233  0.00  0.00    +0.000 C 
BRANCH  15  17
ATOM     17  O   UNL     1       0.919  14.805 -12.971  0.00  0.00    +0.000 OA
ATOM     18  H   UNL     1       0.474  15.191 -12.190  0.00  0.00    +0.000 HD
ENDBRANCH  15  17
ENDBRANCH  14  15
ENDBRANCH   1  14
TORSDOF 7
ENDMDL
MODEL 4
REMARK VINA RESULT:    -5.234      2.852      4.904
REMARK INTER + INTRA:          -7.661
REMARK INTER:                  -7.177
REMARK INTRA:                  -0.484
REMARK UNBOUND:                -0.591
REMARK  Name = 
REMARK  10 active torsions:
REMARK  status: ('A' for Active; 'I' for Inactive)
REMARK    1  A    between atoms: C_1  and  C_2
REMARK    2  A    between atoms: C_5  and  N_8
REMARK    3  A    between atoms: N_8  and  C_9
REMARK    4  A    between atoms: N_8  and  C_13
REMARK    5  A    between atoms: C_9  and  C_10
REMARK    6  A    between atoms: C_10  and  C_11
REMARK    7  A    between atoms: C_10  and  O_12
REMARK    8  A    between atoms: C_13  and  C_14
REMARK    9  A    between atoms: C_14  and  C_15
REMARK   10  A    between atoms: C_14  and  O_16
REMARK                            x       y       z     vdW  Elec       q    Type
REMARK                         _______ _______ _______ _____ _____    ______ ____
ROOT
ATOM      1  N   UNL     1       1.492  17.362 -12.354  0.00  0.00    +0.000 N 
ENDROOT
BRANCH   1   6
ATOM      2  C   UNL     1      -0.620  18.555  -7.115  0.00  0.00    +0.000 C 
ATOM      3  C   UNL     1      -0.087  18.226  -8.476  0.00  0.00    +0.000 A 
ATOM      4  C   UNL     1       1.051  17.439  -8.626  0.00  0.00    +0.000 A 
ATOM      5  C   UNL     1       1.563  17.158  -9.903  0.00  0.00    +0.000 A 
ATOM      6  C   UNL     1       0.987  17.663 -11.083  0.00  0.00    +0.000 A 
ATOM      7  C   UNL     1      -0.162  18.452 -10.893  0.00  0.00    +0.000 A 
ATOM      8  C   UNL     1      -0.687  18.739  -9.622  0.00  0.00    +0.000 A 
ENDBRANCH   1   6
BRANCH   1   9
ATOM      9  C   UNL     1       2.882  17.737 -12.709  0.00  0.00    +0.000 C 
BRANCH   9  10
ATOM     10  C   UNL     1       3.078  19.268 -12.831  0.00  0.00    +0.000 C 
ATOM     11  C   UNL     1       3.668  19.846 -11.550  0.00  0.00    +0.000 C 
BRANCH  10  12
ATOM     12  O   UNL     1       3.965  19.589 -13.912  0.00  0.00    +0.000 OA
ATOM     13  H   UNL     1       3.481  20.150 -14.542  0.00  0.00    +0.000 HD
ENDBRANCH  10  12
ENDBRANCH   9  10
ENDBRANCH   1   9
BRANCH   1  14
ATOM     14  C   UNL     1       0.586  17.156 -13.513  0.00  0.00    +0.000 C 
BRANCH  14  15
ATOM     15  C   UNL     1       0.417  15.659 -13.864  0.00  0.00    +0.000 C 
ATOM     16  C   UNL     1       1.320  15.204 -15.005  0.00  0.00    +0.000 C 
BRANCH  15  17
ATOM     17  O   UNL     1       0.674  14.821 -12.737  0.00  0.00    +0.000 OA
ATOM     18  H   UNL     1       1.632  14.918 -12.563  0.00  0.00    +0.000 HD
ENDBRANCH  15  17
ENDBRANCH  14  15
ENDBRANCH   1  14
TORSDOF 7
ENDMDL
MODEL 5
REMARK VINA RESULT:    -5.203      2.889      4.542
REMARK INTER + INTRA:          -7.620
REMARK INTER:                  -7.072
REMARK INTRA:                  -0.548
REMARK UNBOUND:                -0.591
REMARK  Name = 
REMARK  10 active torsions:
REMARK  status: ('A' for Active; 'I' for Inactive)
REMARK    1  A    between atoms: C_1  and  C_2
REMARK    2  A    between atoms: C_5  and  N_8
REMARK    3  A    between atoms: N_8  and  C_9
REMARK    4  A    between atoms: N_8  and  C_13
REMARK    5  A    between atoms: C_9  and  C_10
REMARK    6  A    between atoms: C_10  and  C_11
REMARK    7  A    between atoms: C_10  and  O_12
REMARK    8  A    between atoms: C_13  and  C_14
REMARK    9  A    between atoms: C_14  and  C_15
REMARK   10  A    between atoms: C_14  and  O_16
REMARK                            x       y       z     vdW  Elec       q    Type
REMARK                         _______ _______ _______ _____ _____    ______ ____
ROOT
ATOM      1  N   UNL     1       1.173  17.835 -12.390  0.00  0.00    +0.000 N 
ENDROOT
BRANCH   1   6
ATOM      2  C   UNL     1      -0.228  18.549  -6.836  0.00  0.00    +0.000 C 
ATOM      3  C   UNL     1       0.150  18.384  -8.276  0.00  0.00    +0.000 A 
ATOM      4  C   UNL     1      -0.612  18.962  -9.285  0.00  0.00    +0.000 A 
ATOM      5  C   UNL     1      -0.270  18.779 -10.635  0.00  0.00    +0.000 A 
ATOM      6  C   UNL     1       0.826  17.997 -11.043  0.00  0.00    +0.000 A 
ATOM      7  C   UNL     1       1.576  17.430  -9.996  0.00  0.00    +0.000 A 
ATOM      8  C   UNL     1       1.246  17.608  -8.642  0.00  0.00    +0.000 A 
ENDBRANCH   1   6
BRANCH   1   9
ATOM      9  C   UNL     1       0.299  17.049 -13.294  0.00  0.00    +0.000 C 
BRANCH   9  10
ATOM     10  C   UNL     1      -0.078  15.665 -12.710  0.00  0.00    +0.000 C 
ATOM     11  C   UNL     1      -1.350  15.129 -13.356  0.00  0.00    +0.000 C 
BRANCH  10  12
ATOM     12  O   UNL     1       0.970  14.711 -12.931  0.00  0.00    +0.000 OA
ATOM     13  H   UNL     1       1.741  15.186 -13.282  0.00  0.00    +0.000 HD
ENDBRANCH  10  12
ENDBRANCH   9  10
ENDBRANCH   1   9
BRANCH   1  14
ATOM     14  C   UNL     1       2.582  17.965 -12.842  0.00  0.00    +0.000 C 
BRANCH  14  15
ATOM     15  C   UNL     1       3.001  19.442 -13.034  0.00  0.00    +0.000 C 
ATOM     16  C   UNL     1       3.581  20.070 -11.773  0.00  0.00    +0.000 C 
BRANCH  15  17
ATOM     17  O   UNL     1       3.960  19.587 -14.081  0.00  0.00    +0.000 OA
ATOM     18  H   UNL     1       4.200  18.672 -14.332  0.00  0.00    +0.000 HD
ENDBRANCH  15  17
ENDBRANCH  14  15
ENDBRANCH   1  14
TORSDOF 7
ENDMDL
MODEL 6
REMARK VINA RESULT:    -5.157      2.815      4.525
REMARK INTER + INTRA:          -7.558
REMARK INTER:                  -7.069
REMARK INTRA:                  -0.489
REMARK UNBOUND:                -0.591
REMARK  Name = 
REMARK  10 active torsions:
REMARK  status: ('A' for Active; 'I' for Inactive)
REMARK    1  A    between atoms: C_1  and  C_2
REMARK    2  A    between atoms: C_5  and  N_8
REMARK    3  A    between atoms: N_8  and  C_9
REMARK    4  A    between atoms: N_8  and  C_13
REMARK    5  A    between atoms: C_9  and  C_10
REMARK    6  A    between atoms: C_10  and  C_11
REMARK    7  A    between atoms: C_10  and  O_12
REMARK    8  A    between atoms: C_13  and  C_14
REMARK    9  A    between atoms: C_14  and  C_15
REMARK   10  A    between atoms: C_14  and  O_16
REMARK                            x       y       z     vdW  Elec       q    Type
REMARK                         _______ _______ _______ _____ _____    ______ ____
ROOT
ATOM      1  N   UNL     1       1.447  18.228 -12.382  0.00  0.00    +0.000 N 
ENDROOT
BRANCH   1   6
ATOM      2  C   UNL     1      -2.057  17.724  -7.822  0.00  0.00    +0.000 C 
ATOM      3  C   UNL     1      -1.153  17.831  -9.012  0.00  0.00    +0.000 A 
ATOM      4  C   UNL     1       0.200  17.525  -8.911  0.00  0.00    +0.000 A 
ATOM      5  C   UNL     1       1.049  17.657 -10.022  0.00  0.00    +0.000 A 
ATOM      6  C   UNL     1       0.599  18.118 -11.273  0.00  0.00    +0.000 A 
ATOM      7  C   UNL     1      -0.774  18.416 -11.339  0.00  0.00    +0.000 A 
ATOM      8  C   UNL     1      -1.634  18.287 -10.236  0.00  0.00    +0.000 A 
ENDBRANCH   1   6
BRANCH   1   9
ATOM      9  C   UNL     1       2.100  17.020 -12.942  0.00  0.00    +0.000 C 
BRANCH   9  10
ATOM     10  C   UNL     1       1.105  16.083 -13.669  0.00  0.00    +0.000 C 
ATOM     11  C   UNL     1       1.552  15.820 -15.102  0.00  0.00    +0.000 C 
BRANCH  10  12
ATOM     12  O   UNL     1       1.002  14.820 -12.998  0.00  0.00    +0.000 OA
ATOM     13  H   UNL     1       0.223  14.356 -13.347  0.00  0.00    +0.000 HD
ENDBRANCH  10  12
ENDBRANCH   9  10
ENDBRANCH   1   9
BRANCH   1  14
ATOM     14  C   UNL     1       2.121  19.511 -12.711  0.00  0.00    +0.000 C 
BRANCH  14  15
ATOM     15  C   UNL     1       2.614  19.553 -14.177  0.00  0.00    +0.000 C 
ATOM     16  C   UNL     1       1.733  20.407 -15.082  0.00  0.00    +0.000 C 
BRANCH  15  17
ATOM     17  O   UNL     1       3.950  20.043 -14.271  0.00  0.00    +0.000 OA
ATOM     18  H   UNL     1       4.196  20.283 -13.354  0.00  0.00    +0.000 HD
ENDBRANCH  15  17
ENDBRANCH  14  15
ENDBRANCH   1  14
TORSDOF 7
ENDMDL
MODEL 7
REMARK VINA RESULT:    -5.073      1.029      3.406
REMARK INTER + INTRA:          -7.444
REMARK INTER:                  -7.143
REMARK INTRA:                  -0.301
REMARK UNBOUND:                -0.591
REMARK  Name = 
REMARK  10 active torsions:
REMARK  status: ('A' for Active; 'I' for Inactive)
REMARK    1  A    between atoms: C_1  and  C_2
REMARK    2  A    between atoms: C_5  and  N_8
REMARK    3  A    between atoms: N_8  and  C_9
REMARK    4  A    between atoms: N_8  and  C_13
REMARK    5  A    between atoms: C_9  and  C_10
REMARK    6  A    between atoms: C_10  and  C_11
REMARK    7  A    between atoms: C_10  and  O_12
REMARK    8  A    between atoms: C_13  and  C_14
REMARK    9  A    between atoms: C_14  and  C_15
REMARK   10  A    between atoms: C_14  and  O_16
REMARK                            x       y       z     vdW  Elec       q    Type
REMARK                         _______ _______ _______ _____ _____    ______ ____
ROOT
ATOM      1  N   UNL     1       0.590  18.040  -9.518  0.00  0.00    +0.000 N 
ENDROOT
BRANCH   1   6
ATOM      2  C   UNL     1      -5.004  18.209 -10.937  0.00  0.00    +0.000 C 
ATOM      3  C   UNL     1      -3.552  18.190 -10.569  0.00  0.00    +0.000 A 
ATOM      4  C   UNL     1      -2.567  18.123 -11.549  0.00  0.00    +0.000 A 
ATOM      5  C   UNL     1      -1.208  18.075 -11.197  0.00  0.00    +0.000 A 
ATOM      6  C   UNL     1      -0.768  18.068  -9.861  0.00  0.00    +0.000 A 
ATOM      7  C   UNL     1      -1.790  18.139  -8.897  0.00  0.00    +0.000 A 
ATOM      8  C   UNL     1      -3.153  18.189  -9.236  0.00  0.00    +0.000 A 
ENDBRANCH   1   6
BRANCH   1   9
ATOM      9  C   UNL     1       0.998  18.099  -8.094  0.00  0.00    +0.000 C 
BRANCH   9  10
ATOM     10  C   UNL     1       1.379  19.529  -7.638  0.00  0.00    +0.000 C 
ATOM     11  C   UNL     1       0.416  20.035  -6.571  0.00  0.00    +0.000 C 
BRANCH  10  12
ATOM     12  O   UNL     1       2.704  19.558  -7.089  0.00  0.00    +0.000 OA
ATOM     13  H   UNL     1       3.271  20.060  -7.698  0.00  0.00    +0.000 HD
ENDBRANCH  10  12
ENDBRANCH   9  10
ENDBRANCH   1   9
BRANCH   1  14
ATOM     14  C   UNL     1       1.636  18.459 -10.485  0.00  0.00    +0.000 C 
BRANCH  14  15
ATOM     15  C   UNL     1       1.974  17.343 -11.502  0.00  0.00    +0.000 C 
ATOM     16  C   UNL     1       3.242  17.621 -12.300  0.00  0.00    +0.000 C 
BRANCH  15  17
ATOM     17  O   UNL     1       2.123  16.076 -10.863  0.00  0.00    +0.000 OA
ATOM     18  H   UNL     1       1.516  16.105 -10.097  0.00  0.00    +0.000 HD
ENDBRANCH  15  17
ENDBRANCH  14  15
ENDBRANCH   1  14
TORSDOF 7
ENDMDL
MODEL 8
REMARK VINA RESULT:    -4.969      1.981      5.256
REMARK INTER + INTRA:          -7.303
REMARK INTER:                  -6.745
REMARK INTRA:                  -0.558
REMARK UNBOUND:                -0.591
REMARK  Name = 
REMARK  10 active torsions:
REMARK  status: ('A' for Active; 'I' for Inactive)
REMARK    1  A    between atoms: C_1  and  C_2
REMARK    2  A    between atoms: C_5  and  N_8
REMARK    3  A    between atoms: N_8  and  C_9
REMARK    4  A    between atoms: N_8  and  C_13
REMARK    5  A    between atoms: C_9  and  C_10
REMARK    6  A    between atoms: C_10  and  C_11
REMARK    7  A    between atoms: C_10  and  O_12
REMARK    8  A    between atoms: C_13  and  C_14
REMARK    9  A    between atoms: C_14  and  C_15
REMARK   10  A    between atoms: C_14  and  O_16
REMARK                            x       y       z     vdW  Elec       q    Type
REMARK                         _______ _______ _______ _____ _____    ______ ____
ROOT
ATOM      1  N   UNL     1       0.490  18.581 -10.237  0.00  0.00    +0.000 N 
ENDROOT
BRANCH   1   6
ATOM      2  C   UNL     1       3.076  17.083 -15.176  0.00  0.00    +0.000 C 
ATOM      3  C   UNL     1       2.408  17.495 -13.900  0.00  0.00    +0.000 A 
ATOM      4  C   UNL     1       3.139  17.637 -12.726  0.00  0.00    +0.000 A 
ATOM      5  C   UNL     1       2.503  17.995 -11.526  0.00  0.00    +0.000 A 
ATOM      6  C   UNL     1       1.115  18.205 -11.433  0.00  0.00    +0.000 A 
ATOM      7  C   UNL     1       0.409  18.055 -12.640  0.00  0.00    +0.000 A 
ATOM      8  C   UNL     1       1.033  17.699 -13.847  0.00  0.00    +0.000 A 
ENDBRANCH   1   6
BRANCH   1   9
ATOM      9  C   UNL     1       0.982  18.050  -8.942  0.00  0.00    +0.000 C 
BRANCH   9  10
ATOM     10  C   UNL     1       1.095  19.142  -7.850  0.00  0.00    +0.000 C 
ATOM     11  C   UNL     1       0.208  18.811  -6.656  0.00  0.00    +0.000 C 
BRANCH  10  12
ATOM     12  O   UNL     1       2.445  19.264  -7.381  0.00  0.00    +0.000 OA
ATOM     13  H   UNL     1       2.531  20.121  -6.932  0.00  0.00    +0.000 HD
ENDBRANCH  10  12
ENDBRANCH   9  10
ENDBRANCH   1   9
BRANCH   1  14
ATOM     14  C   UNL     1      -0.915  19.060 -10.221  0.00  0.00    +0.000 C 
BRANCH  14  15
ATOM     15  C   UNL     1      -1.904  17.955  -9.778  0.00  0.00    +0.000 C 
ATOM     16  C   UNL     1      -2.907  18.431  -8.734  0.00  0.00    +0.000 C 
BRANCH  15  17
ATOM     17  O   UNL     1      -2.636  17.428 -10.884  0.00  0.00    +0.000 OA
ATOM     18  H   UNL     1      -2.090  17.634 -11.670  0.00  0.00    +0.000 HD
ENDBRANCH  15  17
ENDBRANCH  14  15
ENDBRANCH   1  14
TORSDOF 7
ENDMDL
MODEL 9
REMARK VINA RESULT:    -4.884      2.404      4.629
REMARK INTER + INTRA:          -7.188
REMARK INTER:                  -6.616
REMARK INTRA:                  -0.572
REMARK UNBOUND:                -0.591
REMARK  Name = 
REMARK  10 active torsions:
REMARK  status: ('A' for Active; 'I' for Inactive)
REMARK    1  A    between atoms: C_1  and  C_2
REMARK    2  A    between atoms: C_5  and  N_8
REMARK    3  A    between atoms: N_8  and  C_9
REMARK    4  A    between atoms: N_8  and  C_13
REMARK    5  A    between atoms: C_9  and  C_10
REMARK    6  A    between atoms: C_10  and  C_11
REMARK    7  A    between atoms: C_10  and  O_12
REMARK    8  A    between atoms: C_13  and  C_14
REMARK    9  A    between atoms: C_14  and  C_15
REMARK   10  A    between atoms: C_14  and  O_16
REMARK                            x       y       z     vdW  Elec       q    Type
REMARK                         _______ _______ _______ _____ _____    ______ ____
ROOT
ATOM      1  N   UNL     1       0.437  17.785 -10.617  0.00  0.00    +0.000 N 
ENDROOT
BRANCH   1   6
ATOM      2  C   UNL     1       1.630  15.149 -15.613  0.00  0.00    +0.000 C 
ATOM      3  C   UNL     1       1.301  15.845 -14.328  0.00  0.00    +0.000 A 
ATOM      4  C   UNL     1       1.911  17.049 -13.991  0.00  0.00    +0.000 A 
ATOM      5  C   UNL     1       1.621  17.682 -12.771  0.00  0.00    +0.000 A 
ATOM      6  C   UNL     1       0.735  17.139 -11.823  0.00  0.00    +0.000 A 
ATOM      7  C   UNL     1       0.136  15.922 -12.197  0.00  0.00    +0.000 A 
ATOM      8  C   UNL     1       0.415  15.280 -13.415  0.00  0.00    +0.000 A 
ENDBRANCH   1   6
BRANCH   1   9
ATOM      9  C   UNL     1      -0.456  18.969 -10.609  0.00  0.00    +0.000 C 
BRANCH   9  10
ATOM     10  C   UNL     1      -1.936  18.603 -10.340  0.00  0.00    +0.000 C 
ATOM     11  C   UNL     1      -2.675  18.325 -11.644  0.00  0.00    +0.000 C 
BRANCH  10  12
ATOM     12  O   UNL     1      -2.035  17.433  -9.516  0.00  0.00    +0.000 OA
ATOM     13  H   UNL     1      -1.212  16.926  -9.612  0.00  0.00    +0.000 HD
ENDBRANCH  10  12
ENDBRANCH   9  10
ENDBRANCH   1   9
BRANCH   1  14
ATOM     14  C   UNL     1       1.339  17.676  -9.442  0.00  0.00    +0.000 C 
BRANCH  14  15
ATOM     15  C   UNL     1       1.258  18.920  -8.526  0.00  0.00    +0.000 C 
ATOM     16  C   UNL     1       0.819  18.591  -7.104  0.00  0.00    +0.000 C 
BRANCH  15  17
ATOM     17  O   UNL     1       2.508  19.605  -8.455  0.00  0.00    +0.000 OA
ATOM     18  H   UNL     1       2.387  20.409  -8.999  0.00  0.00    +0.000 HD
ENDBRANCH  15  17
ENDBRANCH  14  15
ENDBRANCH   1  14
TORSDOF 7
ENDMDL
