MODEL 1
REMARK VINA RESULT:    -4.424      0.000      0.000
REMARK INTER + INTRA:          -4.862
REMARK INTER:                  -4.812
REMARK INTRA:                  -0.050
REMARK UNBOUND:                -0.050
REMARK  Name = 
REMARK  3 active torsions:
REMARK  status: ('A' for Active; 'I' for Inactive)
REMARK    1  A    between atoms: C_1  and  O_2
REMARK    2  A    between atoms: O_2  and  C_3
REMARK    3  A    between atoms: C_8  and  O_9
REMARK                            x       y       z     vdW  Elec       q    Type
REMARK                         _______ _______ _______ _____ _____    ______ ____
ROOT
ATOM      1  C   UNL     1       1.564  13.215  -0.306  0.00  0.00    +0.000 A 
ATOM      2  C   UNL     1       0.611  13.462   0.682  0.00  0.00    +0.000 A 
ATOM      3  C   UNL     1      -0.098  14.670   0.684  0.00  0.00    +0.000 A 
ATOM      4  C   UNL     1       0.143  15.634  -0.297  0.00  0.00    +0.000 A 
ATOM      5  C   UNL     1       1.093  15.394  -1.288  0.00  0.00    +0.000 A 
ATOM      6  C   UNL     1       1.791  14.193  -1.282  0.00  0.00    +0.000 A 
ENDROOT
BRANCH   1   8
ATOM      7  C   UNL     1       1.654  10.904  -0.849  0.00  0.00    +0.000 C 
ATOM      8  O   UNL     1       2.329  12.084  -0.430  0.00  0.00    +0.000 OA
ENDBRANCH   1   8
BRANCH   6   9
ATOM      9  O   UNL     1       2.720  13.981  -2.265  0.00  0.00    +0.000 OA
ATOM     10  H   UNL     1       3.208  14.824  -2.332  0.00  0.00    +0.000 HD
ENDBRANCH   6   9
TORSDOF 2
ENDMDL
MODEL 2
REMARK VINA RESULT:    -4.123      9.532     10.952
REMARK INTER + INTRA:          -4.535
REMARK INTER:                  -4.482
REMARK INTRA:                  -0.052
REMARK UNBOUND:                -0.050
REMARK  Name = 
REMARK  3 active torsions:
REMARK  status: ('A' for Active; 'I' for Inactive)
REMARK    1  A    between atoms: C_1  and  O_2
REMARK    2  A    between atoms: O_2  and  C_3
REMARK    3  A    between atoms: C_8  and  O_9
REMARK                            x       y       z     vdW  Elec       q    Type
REMARK                         _______ _______ _______ _____ _____    ______ ____
ROOT
ATOM      1  C   UNL     1       1.648  17.549  -9.848  0.00  0.00    +0.000 A 
ATOM      2  C   UNL     1       1.539  16.667 -10.922  0.00  0.00    +0.000 A 
ATOM      3  C   UNL     1       2.269  16.899 -12.094  0.00  0.00    +0.000 A 
ATOM      4  C   UNL     1       3.109  18.009 -12.197  0.00  0.00    +0.000 A 
ATOM      5  C   UNL     1       3.224  18.894 -11.128  0.00  0.00    +0.000 A 
ATOM      6  C   UNL     1       2.496  18.657  -9.969  0.00  0.00    +0.000 A 
ENDROOT
BRANCH   1   8
ATOM      7  C   UNL     1      -0.413  17.655  -8.669  0.00  0.00    +0.000 C 
ATOM      8  O   UNL     1       0.995  17.448  -8.646  0.00  0.00    +0.000 OA
ENDBRANCH   1   8
BRANCH   6   9
ATOM      9  O   UNL     1       2.625  19.541  -8.932  0.00  0.00    +0.000 OA
ATOM     10  H   UNL     1       1.929  20.208  -9.086  0.00  0.00    +0.000 HD
ENDBRANCH   6   9
TORSDOF 2
ENDMDL
MODEL 3
REMARK VINA RESULT:    -4.012      8.305      9.165
REMARK INTER + INTRA:          -4.413
REMARK INTER:                  -4.371
REMARK INTRA:                  -0.042
REMARK UNBOUND:                -0.050
REMARK  Name = 
REMARK  3 active torsions:
REMARK  status: ('A' for Active; 'I' for Inactive)
REMARK    1  A    between atoms: C_1  and  O_2
REMARK    2  A    between atoms: O_2  and  C_3
REMARK    3  A    between atoms: C_8  and  O_9
REMARK                            x       y       z     vdW  Elec       q    Type
REMARK                         _______ _______ _______ _____ _____    ______ ____
ROOT
ATOM      1  C   UNL     1       0.619  18.110  -8.761  0.00  0.00    +0.000 A 
ATOM      2  C   UNL     1      -0.696  17.800  -9.105  0.00  0.00    +0.000 A 
ATOM      3  C   UNL     1      -1.735  18.056  -8.201  0.00  0.00    +0.000 A 
ATOM      4  C   UNL     1      -1.464  18.622  -6.954  0.00  0.00    +0.000 A 
ATOM      5  C   UNL     1      -0.153  18.935  -6.603  0.00  0.00    +0.000 A 
ATOM      6  C   UNL     1       0.871  18.677  -7.506  0.00  0.00    +0.000 A 
ENDROOT
BRANCH   1   8
ATOM      7  C   UNL     1       1.708  16.781 -10.402  0.00  0.00    +0.000 C 
ATOM      8  O   UNL     1       1.729  17.914  -9.543  0.00  0.00    +0.000 OA
ENDBRANCH   1   8
BRANCH   6   9
ATOM      9  O   UNL     1       2.152  18.993  -7.139  0.00  0.00    +0.000 OA
ATOM     10  H   UNL     1       2.575  19.309  -7.960  0.00  0.00    +0.000 HD
ENDBRANCH   6   9
TORSDOF 2
ENDMDL
MODEL 4
REMARK VINA RESULT:    -4.001      8.632      9.976
REMARK INTER + INTRA:          -4.402
REMARK INTER:                  -4.357
REMARK INTRA:                  -0.045
REMARK UNBOUND:                -0.050
REMARK  Name = 
REMARK  3 active torsions:
REMARK  status: ('A' for Active; 'I' for Inactive)
REMARK    1  A    between atoms: C_1  and  O_2
REMARK    2  A    between atoms: O_2  and  C_3
REMARK    3  A    between atoms: C_8  and  O_9
REMARK                            x       y       z     vdW  Elec       q    Type
REMARK                         _______ _______ _______ _____ _____    ______ ____
ROOT
ATOM      1  C   UNL     1      -0.267  17.678  -8.946  0.00  0.00    +0.000 A 
ATOM      2  C   UNL     1      -0.836  17.606 -10.216  0.00  0.00    +0.000 A 
ATOM      3  C   UNL     1      -0.060  17.197 -11.308  0.00  0.00    +0.000 A 
ATOM      4  C   UNL     1       1.283  16.860 -11.135  0.00  0.00    +0.000 A 
ATOM      5  C   UNL     1       1.859  16.929  -9.869  0.00  0.00    +0.000 A 
ATOM      6  C   UNL     1       1.082  17.336  -8.792  0.00  0.00    +0.000 A 
ENDROOT
BRANCH   1   8
ATOM      7  C   UNL     1      -2.218  17.555  -7.595  0.00  0.00    +0.000 C 
ATOM      8  O   UNL     1      -0.903  18.061  -7.792  0.00  0.00    +0.000 OA
ENDBRANCH   1   8
BRANCH   6   9
ATOM      9  O   UNL     1       1.671  17.396  -7.557  0.00  0.00    +0.000 OA
ATOM     10  H   UNL     1       0.925  17.422  -6.927  0.00  0.00    +0.000 HD
ENDBRANCH   6   9
TORSDOF 2
ENDMDL
MODEL 5
REMARK VINA RESULT:    -3.948     11.157     12.163
REMARK INTER + INTRA:          -4.344
REMARK INTER:                  -4.306
REMARK INTRA:                  -0.038
REMARK UNBOUND:                -0.050
REMARK  Name = 
REMARK  3 active torsions:
REMARK  status: ('A' for Active; 'I' for Inactive)
REMARK    1  A    between atoms: C_1  and  O_2
REMARK    2  A    between atoms: O_2  and  C_3
REMARK    3  A    between atoms: C_8  and  O_9
REMARK                            x       y       z     vdW  Elec       q    Type
REMARK                         _______ _______ _______ _____ _____    ______ ____
ROOT
ATOM      1  C   UNL     1       1.912  17.005 -12.178  0.00  0.00    +0.000 A 
ATOM      2  C   UNL     1       1.518  17.227 -10.859  0.00  0.00    +0.000 A 
ATOM      3  C   UNL     1       2.160  18.208 -10.093  0.00  0.00    +0.000 A 
ATOM      4  C   UNL     1       3.194  18.969 -10.641  0.00  0.00    +0.000 A 
ATOM      5  C   UNL     1       3.593  18.754 -11.958  0.00  0.00    +0.000 A 
ATOM      6  C   UNL     1       2.952  17.778 -12.710  0.00  0.00    +0.000 A 
ENDROOT
BRANCH   1   8
ATOM      7  C   UNL     1       0.123  15.520 -12.671  0.00  0.00    +0.000 C 
ATOM      8  O   UNL     1       1.377  16.081 -13.040  0.00  0.00    +0.000 OA
ENDBRANCH   1   8
BRANCH   6   9
ATOM      9  O   UNL     1       3.362  17.585 -14.002  0.00  0.00    +0.000 OA
ATOM     10  H   UNL     1       4.315  17.387 -13.933  0.00  0.00    +0.000 HD
ENDBRANCH   6   9
TORSDOF 2
ENDMDL
MODEL 6
REMARK VINA RESULT:    -3.919      9.940     11.356
REMARK INTER + INTRA:          -4.313
REMARK INTER:                  -4.260
REMARK INTRA:                  -0.053
REMARK UNBOUND:                -0.050
REMARK  Name = 
REMARK  3 active torsions:
REMARK  status: ('A' for Active; 'I' for Inactive)
REMARK    1  A    between atoms: C_1  and  O_2
REMARK    2  A    between atoms: O_2  and  C_3
REMARK    3  A    between atoms: C_8  and  O_9
REMARK                            x       y       z     vdW  Elec       q    Type
REMARK                         _______ _______ _______ _____ _____    ______ ____
ROOT
ATOM      1  C   UNL     1       2.100  17.720 -10.175  0.00  0.00    +0.000 A 
ATOM      2  C   UNL     1       2.825  18.901 -10.018  0.00  0.00    +0.000 A 
ATOM      3  C   UNL     1       3.585  19.402 -11.083  0.00  0.00    +0.000 A 
ATOM      4  C   UNL     1       3.623  18.727 -12.304  0.00  0.00    +0.000 A 
ATOM      5  C   UNL     1       2.902  17.547 -12.469  0.00  0.00    +0.000 A 
ATOM      6  C   UNL     1       2.151  17.057 -11.407  0.00  0.00    +0.000 A 
ENDROOT
BRANCH   1   8
ATOM      7  C   UNL     1       0.147  17.818  -8.826  0.00  0.00    +0.000 C 
ATOM      8  O   UNL     1       1.319  17.116  -9.223  0.00  0.00    +0.000 OA
ENDBRANCH   1   8
BRANCH   6   9
ATOM      9  O   UNL     1       1.451  15.895 -11.593  0.00  0.00    +0.000 OA
ATOM     10  H   UNL     1       1.543  15.699 -12.545  0.00  0.00    +0.000 HD
ENDBRANCH   6   9
TORSDOF 2
ENDMDL
MODEL 7
REMARK VINA RESULT:    -3.838     11.151     12.661
REMARK INTER + INTRA:          -4.225
REMARK INTER:                  -4.184
REMARK INTRA:                  -0.041
REMARK UNBOUND:                -0.050
REMARK  Name = 
REMARK  3 active torsions:
REMARK  status: ('A' for Active; 'I' for Inactive)
REMARK    1  A    between atoms: C_1  and  O_2
REMARK    2  A    between atoms: O_2  and  C_3
REMARK    3  A    between atoms: C_8  and  O_9
REMARK                            x       y       z     vdW  Elec       q    Type
REMARK                         _______ _______ _______ _____ _____    ______ ____
ROOT
ATOM      1  C   UNL     1       2.964  18.660 -12.268  0.00  0.00    +0.000 A 
ATOM      2  C   UNL     1       2.486  17.524 -12.919  0.00  0.00    +0.000 A 
ATOM      3  C   UNL     1       1.811  16.534 -12.193  0.00  0.00    +0.000 A 
ATOM      4  C   UNL     1       1.614  16.675 -10.818  0.00  0.00    +0.000 A 
ATOM      5  C   UNL     1       2.089  17.808 -10.161  0.00  0.00    +0.000 A 
ATOM      6  C   UNL     1       2.757  18.784 -10.889  0.00  0.00    +0.000 A 
ENDROOT
BRANCH   1   8
ATOM      7  C   UNL     1       3.348  19.965 -14.217  0.00  0.00    +0.000 C 
ATOM      8  O   UNL     1       3.639  19.704 -12.849  0.00  0.00    +0.000 OA
ENDBRANCH   1   8
BRANCH   6   9
ATOM      9  O   UNL     1       3.215  19.888 -10.221  0.00  0.00    +0.000 OA
ATOM     10  H   UNL     1       2.454  20.190  -9.688  0.00  0.00    +0.000 HD
ENDBRANCH   6   9
TORSDOF 2
ENDMDL
MODEL 8
REMARK VINA RESULT:    -3.801     12.157     13.341
REMARK INTER + INTRA:          -4.184
REMARK INTER:                  -4.132
REMARK INTRA:                  -0.052
REMARK UNBOUND:                -0.050
REMARK  Name = 
REMARK  3 active torsions:
REMARK  status: ('A' for Active; 'I' for Inactive)
REMARK    1  A    between atoms: C_1  and  O_2
REMARK    2  A    between atoms: O_2  and  C_3
REMARK    3  A    between atoms: C_8  and  O_9
REMARK                            x       y       z     vdW  Elec       q    Type
REMARK                         _______ _______ _______ _____ _____    ______ ____
ROOT
ATOM      1  C   UNL     1       2.471  18.045 -13.393  0.00  0.00    +0.000 A 
ATOM      2  C   UNL     1       1.812  17.252 -12.454  0.00  0.00    +0.000 A 
ATOM      3  C   UNL     1       2.001  17.485 -11.086  0.00  0.00    +0.000 A 
ATOM      4  C   UNL     1       2.847  18.507 -10.653  0.00  0.00    +0.000 A 
ATOM      5  C   UNL     1       3.508  19.304 -11.585  0.00  0.00    +0.000 A 
ATOM      6  C   UNL     1       3.315  19.066 -12.939  0.00  0.00    +0.000 A 
ENDROOT
BRANCH   1   8
ATOM      7  C   UNL     1       2.949  16.761 -15.335  0.00  0.00    +0.000 C 
ATOM      8  O   UNL     1       2.381  17.930 -14.757  0.00  0.00    +0.000 OA
ENDBRANCH   1   8
BRANCH   6   9
ATOM      9  O   UNL     1       3.976  19.862 -13.837  0.00  0.00    +0.000 OA
ATOM     10  H   UNL     1       3.273  20.232 -14.404  0.00  0.00    +0.000 HD
ENDBRANCH   6   9
TORSDOF 2
ENDMDL
MODEL 9
REMARK VINA RESULT:    -3.793     11.423     12.388
REMARK INTER + INTRA:          -4.175
REMARK INTER:                  -4.135
REMARK INTRA:                  -0.040
REMARK UNBOUND:                -0.050
REMARK  Name = 
REMARK  3 active torsions:
REMARK  status: ('A' for Active; 'I' for Inactive)
REMARK    1  A    between atoms: C_1  and  O_2
REMARK    2  A    between atoms: O_2  and  C_3
REMARK    3  A    between atoms: C_8  and  O_9
REMARK                            x       y       z     vdW  Elec       q    Type
REMARK                         _______ _______ _______ _____ _____    ______ ____
ROOT
ATOM      1  C   UNL     1       9.167  22.298   2.178  0.00  0.00    +0.000 A 
ATOM      2  C   UNL     1      10.209  23.213   2.043  0.00  0.00    +0.000 A 
ATOM      3  C   UNL     1      11.535  22.764   2.007  0.00  0.00    +0.000 A 
ATOM      4  C   UNL     1      11.823  21.401   2.106  0.00  0.00    +0.000 A 
ATOM      5  C   UNL     1      10.787  20.480   2.240  0.00  0.00    +0.000 A 
ATOM      6  C   UNL     1       9.475  20.935   2.275  0.00  0.00    +0.000 A 
ENDROOT
BRANCH   1   8
ATOM      7  C   UNL     1       7.208  22.939   0.996  0.00  0.00    +0.000 C 
ATOM      8  O   UNL     1       7.828  22.594   2.228  0.00  0.00    +0.000 OA
ENDBRANCH   1   8
BRANCH   6   9
ATOM      9  O   UNL     1       8.474  20.011   2.408  0.00  0.00    +0.000 OA
ATOM     10  H   UNL     1       7.649  20.519   2.288  0.00  0.00    +0.000 HD
ENDBRANCH   6   9
TORSDOF 2
ENDMDL
