MODEL 1
REMARK VINA RESULT:    -5.444      0.000      0.000
REMARK INTER + INTRA:          -7.931
REMARK INTER:                  -7.353
REMARK INTRA:                  -0.578
REMARK UNBOUND:                -0.578
REMARK  Name = 
REMARK  10 active torsions:
REMARK  status: ('A' for Active; 'I' for Inactive)
REMARK    1  A    between atoms: C_1  and  C_2
REMARK    2  A    between atoms: C_5  and  N_8
REMARK    3  A    between atoms: N_8  and  C_9
REMARK    4  A    between atoms: N_8  and  C_13
REMARK    5  A    between atoms: C_9  and  C_10
REMARK    6  A    between atoms: C_10  and  C_11
REMARK    7  A    between atoms: C_10  and  O_12
REMARK    8  A    between atoms: C_13  and  C_14
REMARK    9  A    between atoms: C_14  and  C_15
REMARK   10  A    between atoms: C_14  and  O_16
REMARK                            x       y       z     vdW  Elec       q    Type
REMARK                         _______ _______ _______ _____ _____    ______ ____
ROOT
ATOM      1  N   UNL     1       0.647  17.863  -9.131  0.00  0.00    +0.000 N 
ENDROOT
BRANCH   1   6
ATOM      2  C   UNL     1      -5.004  18.206 -10.259  0.00  0.00    +0.000 C 
ATOM      3  C   UNL     1      -3.539  18.092  -9.969  0.00  0.00    +0.000 A 
ATOM      4  C   UNL     1      -3.077  17.967  -8.663  0.00  0.00    +0.000 A 
ATOM      5  C   UNL     1      -1.700  17.891  -8.395  0.00  0.00    +0.000 A 
ATOM      6  C   UNL     1      -0.723  17.959  -9.404  0.00  0.00    +0.000 A 
ATOM      7  C   UNL     1      -1.226  18.084 -10.712  0.00  0.00    +0.000 A 
ATOM      8  C   UNL     1      -2.600  18.159 -10.994  0.00  0.00    +0.000 A 
ENDBRANCH   1   6
BRANCH   1   9
ATOM      9  C   UNL     1       1.529  17.070 -10.022  0.00  0.00    +0.000 C 
BRANCH   9  10
ATOM     10  C   UNL     1       2.503  17.952 -10.841  0.00  0.00    +0.000 C 
ATOM     11  C   UNL     1       2.632  17.438 -12.271  0.00  0.00    +0.000 C 
BRANCH  10  12
ATOM     12  O   UNL     1       2.044  19.310 -10.897  0.00  0.00    +0.000 OA
ATOM     13  H   UNL     1       2.789  19.889 -10.664  0.00  0.00    +0.000 HD
ENDBRANCH  10  12
ENDBRANCH   9  10
ENDBRANCH   1   9
BRANCH   1  14
ATOM     14  C   UNL     1       1.175  18.075  -7.759  0.00  0.00    +0.000 C 
BRANCH  14  15
ATOM     15  C   UNL     1       1.530  19.558  -7.492  0.00  0.00    +0.000 C 
ATOM     16  C   UNL     1       0.619  20.217  -6.464  0.00  0.00    +0.000 C 
BRANCH  15  17
ATOM     17  O   UNL     1       2.878  19.705  -7.047  0.00  0.00    +0.000 OA
ATOM     18  H   UNL     1       3.344  20.138  -7.790  0.00  0.00    +0.000 HD
ENDBRANCH  15  17
ENDBRANCH  14  15
ENDBRANCH   1  14
TORSDOF 7
ENDMDL
MODEL 2
REMARK VINA RESULT:    -5.305      1.669      4.661
REMARK INTER + INTRA:          -7.744
REMARK INTER:                  -7.212
REMARK INTRA:                  -0.532
REMARK UNBOUND:                -0.578
REMARK  Name = 
REMARK  10 active torsions:
REMARK  status: ('A' for Active; 'I' for Inactive)
REMARK    1  A    between atoms: C_1  and  C_2
REMARK    2  A    between atoms: C_5  and  N_8
REMARK    3  A    between atoms: N_8  and  C_9
REMARK    4  A    between atoms: N_8  and  C_13
REMARK    5  A    between atoms: C_9  and  C_10
REMARK    6  A    between atoms: C_10  and  C_11
REMARK    7  A    between atoms: C_10  and  O_12
REMARK    8  A    between atoms: C_13  and  C_14
REMARK    9  A    between atoms: C_14  and  C_15
REMARK   10  A    between atoms: C_14  and  O_16
REMARK                            x       y       z     vdW  Elec       q    Type
REMARK                         _______ _______ _______ _____ _____    ______ ____
ROOT
ATOM      1  N   UNL     1       0.246  17.991  -8.796  0.00  0.00    +0.000 N 
ENDROOT
BRANCH   1   6
ATOM      2  C   UNL     1       2.480  17.463 -14.094  0.00  0.00    +0.000 C 
ATOM      3  C   UNL     1       1.917  17.617 -12.713  0.00  0.00    +0.000 A 
ATOM      4  C   UNL     1       2.336  16.792 -11.675  0.00  0.00    +0.000 A 
ATOM      5  C   UNL     1       1.784  16.921 -10.391  0.00  0.00    +0.000 A 
ATOM      6  C   UNL     1       0.778  17.855 -10.085  0.00  0.00    +0.000 A 
ATOM      7  C   UNL     1       0.380  18.674 -11.158  0.00  0.00    +0.000 A 
ATOM      8  C   UNL     1       0.926  18.557 -12.447  0.00  0.00    +0.000 A 
ENDBRANCH   1   6
BRANCH   1   9
ATOM      9  C   UNL     1       1.147  18.189  -7.636  0.00  0.00    +0.000 C 
BRANCH   9  10
ATOM     10  C   UNL     1       1.600  19.661  -7.472  0.00  0.00    +0.000 C 
ATOM     11  C   UNL     1       0.713  20.395  -6.474  0.00  0.00    +0.000 C 
BRANCH  10  12
ATOM     12  O   UNL     1       2.953  19.734  -7.002  0.00  0.00    +0.000 OA
ATOM     13  H   UNL     1       3.028  19.173  -6.212  0.00  0.00    +0.000 HD
ENDBRANCH  10  12
ENDBRANCH   9  10
ENDBRANCH   1   9
BRANCH   1  14
ATOM     14  C   UNL     1      -1.097  17.453  -8.459  0.00  0.00    +0.000 C 
BRANCH  14  15
ATOM     15  C   UNL     1      -2.145  18.576  -8.265  0.00  0.00    +0.000 C 
ATOM     16  C   UNL     1      -3.465  18.293  -8.971  0.00  0.00    +0.000 C 
BRANCH  15  17
ATOM     17  O   UNL     1      -2.422  18.805  -6.884  0.00  0.00    +0.000 OA
ATOM     18  H   UNL     1      -1.569  18.664  -6.428  0.00  0.00    +0.000 HD
ENDBRANCH  15  17
ENDBRANCH  14  15
ENDBRANCH   1  14
TORSDOF 7
ENDMDL
MODEL 3
REMARK VINA RESULT:    -5.256      2.941      5.034
REMARK INTER + INTRA:          -7.677
REMARK INTER:                  -7.186
REMARK INTRA:                  -0.491
REMARK UNBOUND:                -0.578
REMARK  Name = 
REMARK  10 active torsions:
REMARK  status: ('A' for Active; 'I' for Inactive)
REMARK    1  A    between atoms: C_1  and  C_2
REMARK    2  A    between atoms: C_5  and  N_8
REMARK    3  A    between atoms: N_8  and  C_9
REMARK    4  A    between atoms: N_8  and  C_13
REMARK    5  A    between atoms: C_9  and  C_10
REMARK    6  A    between atoms: C_10  and  C_11
REMARK    7  A    between atoms: C_10  and  O_12
REMARK    8  A    between atoms: C_13  and  C_14
REMARK    9  A    between atoms: C_14  and  C_15
REMARK   10  A    between atoms: C_14  and  O_16
REMARK                            x       y       z     vdW  Elec       q    Type
REMARK                         _______ _______ _______ _____ _____    ______ ____
ROOT
ATOM      1  N   UNL     1       1.531  17.357 -12.478  0.00  0.00    +0.000 N 
ENDROOT
BRANCH   1   6
ATOM      2  C   UNL     1      -0.548  18.566  -7.230  0.00  0.00    +0.000 C 
ATOM      3  C   UNL     1       0.007  18.272  -8.590  0.00  0.00    +0.000 A 
ATOM      4  C   UNL     1      -0.596  18.786  -9.733  0.00  0.00    +0.000 A 
ATOM      5  C   UNL     1      -0.089  18.483 -11.008  0.00  0.00    +0.000 A 
ATOM      6  C   UNL     1       1.020  17.640 -11.205  0.00  0.00    +0.000 A 
ATOM      7  C   UNL     1       1.605  17.140 -10.027  0.00  0.00    +0.000 A 
ATOM      8  C   UNL     1       1.109  17.438  -8.747  0.00  0.00    +0.000 A 
ENDBRANCH   1   6
BRANCH   1   9
ATOM      9  C   UNL     1       2.905  17.784 -12.838  0.00  0.00    +0.000 C 
BRANCH   9  10
ATOM     10  C   UNL     1       3.039  19.320 -12.978  0.00  0.00    +0.000 C 
ATOM     11  C   UNL     1       3.568  19.940 -11.690  0.00  0.00    +0.000 C 
BRANCH  10  12
ATOM     12  O   UNL     1       3.941  19.663 -14.039  0.00  0.00    +0.000 OA
ATOM     13  H   UNL     1       3.418  19.799 -14.847  0.00  0.00    +0.000 HD
ENDBRANCH  10  12
ENDBRANCH   9  10
ENDBRANCH   1   9
BRANCH   1  14
ATOM     14  C   UNL     1       0.629  17.115 -13.633  0.00  0.00    +0.000 C 
BRANCH  14  15
ATOM     15  C   UNL     1       0.547  15.616 -14.006  0.00  0.00    +0.000 C 
ATOM     16  C   UNL     1       1.437  15.241 -15.185  0.00  0.00    +0.000 C 
BRANCH  15  17
ATOM     17  O   UNL     1       0.897  14.779 -12.905  0.00  0.00    +0.000 OA
ATOM     18  H   UNL     1       1.515  14.117 -13.277  0.00  0.00    +0.000 HD
ENDBRANCH  15  17
ENDBRANCH  14  15
ENDBRANCH   1  14
TORSDOF 7
ENDMDL
MODEL 4
REMARK VINA RESULT:    -5.146      3.149      4.811
REMARK INTER + INTRA:          -7.529
REMARK INTER:                  -6.993
REMARK INTRA:                  -0.536
REMARK UNBOUND:                -0.578
REMARK  Name = 
REMARK  10 active torsions:
REMARK  status: ('A' for Active; 'I' for Inactive)
REMARK    1  A    between atoms: C_1  and  C_2
REMARK    2  A    between atoms: C_5  and  N_8
REMARK    3  A    between atoms: N_8  and  C_9
REMARK    4  A    between atoms: N_8  and  C_13
REMARK    5  A    between atoms: C_9  and  C_10
REMARK    6  A    between atoms: C_10  and  C_11
REMARK    7  A    between atoms: C_10  and  O_12
REMARK    8  A    between atoms: C_13  and  C_14
REMARK    9  A    between atoms: C_14  and  C_15
REMARK   10  A    between atoms: C_14  and  O_16
REMARK                            x       y       z     vdW  Elec       q    Type
REMARK                         _______ _______ _______ _____ _____    ______ ____
ROOT
ATOM      1  N   UNL     1       1.504  17.886 -12.798  0.00  0.00    +0.000 N 
ENDROOT
BRANCH   1   6
ATOM      2  C   UNL     1      -0.378  18.539  -7.380  0.00  0.00    +0.000 C 
ATOM      3  C   UNL     1       0.097  18.348  -8.788  0.00  0.00    +0.000 A 
ATOM      4  C   UNL     1       1.280  17.668  -9.057  0.00  0.00    +0.000 A 
ATOM      5  C   UNL     1       1.736  17.519 -10.376  0.00  0.00    +0.000 A 
ATOM      6  C   UNL     1       1.054  18.056 -11.483  0.00  0.00    +0.000 A 
ATOM      7  C   UNL     1      -0.139  18.735 -11.174  0.00  0.00    +0.000 A 
ATOM      8  C   UNL     1      -0.608  18.890  -9.859  0.00  0.00    +0.000 A 
ENDBRANCH   1   6
BRANCH   1   9
ATOM      9  C   UNL     1       0.814  16.937 -13.704  0.00  0.00    +0.000 C 
BRANCH   9  10
ATOM     10  C   UNL     1       0.583  15.550 -13.056  0.00  0.00    +0.000 C 
ATOM     11  C   UNL     1      -0.894  15.175 -13.082  0.00  0.00    +0.000 C 
BRANCH  10  12
ATOM     12  O   UNL     1       1.313  14.529 -13.750  0.00  0.00    +0.000 OA
ATOM     13  H   UNL     1       1.615  14.897 -14.597  0.00  0.00    +0.000 HD
ENDBRANCH  10  12
ENDBRANCH   9  10
ENDBRANCH   1   9
BRANCH   1  14
ATOM     14  C   UNL     1       2.904  18.207 -13.179  0.00  0.00    +0.000 C 
BRANCH  14  15
ATOM     15  C   UNL     1       3.033  19.623 -13.791  0.00  0.00    +0.000 C 
ATOM     16  C   UNL     1       3.364  20.694 -12.758  0.00  0.00    +0.000 C 
BRANCH  15  17
ATOM     17  O   UNL     1       4.031  19.668 -14.809  0.00  0.00    +0.000 OA
ATOM     18  H   UNL     1       4.468  20.536 -14.697  0.00  0.00    +0.000 HD
ENDBRANCH  15  17
ENDBRANCH  14  15
ENDBRANCH   1  14
TORSDOF 7
ENDMDL
MODEL 5
REMARK VINA RESULT:    -5.136      0.939      3.386
REMARK INTER + INTRA:          -7.515
REMARK INTER:                  -7.213
REMARK INTRA:                  -0.302
REMARK UNBOUND:                -0.578
REMARK  Name = 
REMARK  10 active torsions:
REMARK  status: ('A' for Active; 'I' for Inactive)
REMARK    1  A    between atoms: C_1  and  C_2
REMARK    2  A    between atoms: C_5  and  N_8
REMARK    3  A    between atoms: N_8  and  C_9
REMARK    4  A    between atoms: N_8  and  C_13
REMARK    5  A    between atoms: C_9  and  C_10
REMARK    6  A    between atoms: C_10  and  C_11
REMARK    7  A    between atoms: C_10  and  O_12
REMARK    8  A    between atoms: C_13  and  C_14
REMARK    9  A    between atoms: C_14  and  C_15
REMARK   10  A    between atoms: C_14  and  O_16
REMARK                            x       y       z     vdW  Elec       q    Type
REMARK                         _______ _______ _______ _____ _____    ______ ____
ROOT
ATOM      1  N   UNL     1       0.662  18.127  -9.313  0.00  0.00    +0.000 N 
ENDROOT
BRANCH   1   6
ATOM      2  C   UNL     1      -5.004  18.251 -10.416  0.00  0.00    +0.000 C 
ATOM      3  C   UNL     1      -3.534  18.194 -10.130  0.00  0.00    +0.000 A 
ATOM      4  C   UNL     1      -3.060  18.190  -8.823  0.00  0.00    +0.000 A 
ATOM      5  C   UNL     1      -1.681  18.167  -8.561  0.00  0.00    +0.000 A 
ATOM      6  C   UNL     1      -0.712  18.170  -9.581  0.00  0.00    +0.000 A 
ATOM      7  C   UNL     1      -1.227  18.172 -10.891  0.00  0.00    +0.000 A 
ATOM      8  C   UNL     1      -2.605  18.193 -11.166  0.00  0.00    +0.000 A 
ENDBRANCH   1   6
BRANCH   1   9
ATOM      9  C   UNL     1       1.150  18.220  -7.916  0.00  0.00    +0.000 C 
BRANCH   9  10
ATOM     10  C   UNL     1       1.565  19.658  -7.519  0.00  0.00    +0.000 C 
ATOM     11  C   UNL     1       0.681  20.190  -6.397  0.00  0.00    +0.000 C 
BRANCH  10  12
ATOM     12  O   UNL     1       2.926  19.695  -7.068  0.00  0.00    +0.000 OA
ATOM     13  H   UNL     1       3.337  18.840  -7.281  0.00  0.00    +0.000 HD
ENDBRANCH  10  12
ENDBRANCH   9  10
ENDBRANCH   1   9
BRANCH   1  14
ATOM     14  C   UNL     1       1.659  18.500 -10.349  0.00  0.00    +0.000 C 
BRANCH  14  15
ATOM     15  C   UNL     1       1.903  17.357 -11.363  0.00  0.00    +0.000 C 
ATOM     16  C   UNL     1       3.085  17.619 -12.290  0.00  0.00    +0.000 C 
BRANCH  15  17
ATOM     17  O   UNL     1       2.124  16.109 -10.708  0.00  0.00    +0.000 OA
ATOM     18  H   UNL     1       2.976  16.217 -10.239  0.00  0.00    +0.000 HD
ENDBRANCH  15  17
ENDBRANCH  14  15
ENDBRANCH   1  14
TORSDOF 7
ENDMDL
MODEL 6
REMARK VINA RESULT:    -5.134      2.811      4.445
REMARK INTER + INTRA:          -7.512
REMARK INTER:                  -6.980
REMARK INTRA:                  -0.533
REMARK UNBOUND:                -0.578
REMARK  Name = 
REMARK  10 active torsions:
REMARK  status: ('A' for Active; 'I' for Inactive)
REMARK    1  A    between atoms: C_1  and  C_2
REMARK    2  A    between atoms: C_5  and  N_8
REMARK    3  A    between atoms: N_8  and  C_9
REMARK    4  A    between atoms: N_8  and  C_13
REMARK    5  A    between atoms: C_9  and  C_10
REMARK    6  A    between atoms: C_10  and  C_11
REMARK    7  A    between atoms: C_10  and  O_12
REMARK    8  A    between atoms: C_13  and  C_14
REMARK    9  A    between atoms: C_14  and  C_15
REMARK   10  A    between atoms: C_14  and  O_16
REMARK                            x       y       z     vdW  Elec       q    Type
REMARK                         _______ _______ _______ _____ _____    ______ ____
ROOT
ATOM      1  N   UNL     1       1.674  18.078 -11.959  0.00  0.00    +0.000 N 
ENDROOT
BRANCH   1   6
ATOM      2  C   UNL     1      -1.595  18.328  -7.208  0.00  0.00    +0.000 C 
ATOM      3  C   UNL     1      -0.754  18.239  -8.445  0.00  0.00    +0.000 A 
ATOM      4  C   UNL     1       0.580  17.853  -8.375  0.00  0.00    +0.000 A 
ATOM      5  C   UNL     1       1.372  17.801  -9.533  0.00  0.00    +0.000 A 
ATOM      6  C   UNL     1       0.884  18.151 -10.805  0.00  0.00    +0.000 A 
ATOM      7  C   UNL     1      -0.469  18.535 -10.839  0.00  0.00    +0.000 A 
ATOM      8  C   UNL     1      -1.273  18.589  -9.688  0.00  0.00    +0.000 A 
ENDBRANCH   1   6
BRANCH   1   9
ATOM      9  C   UNL     1       2.062  16.758 -12.513  0.00  0.00    +0.000 C 
BRANCH   9  10
ATOM     10  C   UNL     1       0.919  16.081 -13.307  0.00  0.00    +0.000 C 
ATOM     11  C   UNL     1       1.341  15.812 -14.747  0.00  0.00    +0.000 C 
BRANCH  10  12
ATOM     12  O   UNL     1       0.549  14.830 -12.712  0.00  0.00    +0.000 OA
ATOM     13  H   UNL     1      -0.396  14.870 -12.489  0.00  0.00    +0.000 HD
ENDBRANCH  10  12
ENDBRANCH   9  10
ENDBRANCH   1   9
BRANCH   1  14
ATOM     14  C   UNL     1       2.552  19.206 -12.363  0.00  0.00    +0.000 C 
BRANCH  14  15
ATOM     15  C   UNL     1       2.778  19.252 -13.894  0.00  0.00    +0.000 C 
ATOM     16  C   UNL     1       1.629  19.909 -14.650  0.00  0.00    +0.000 C 
BRANCH  15  17
ATOM     17  O   UNL     1       3.980  19.944 -14.228  0.00  0.00    +0.000 OA
ATOM     18  H   UNL     1       3.747  20.893 -14.181  0.00  0.00    +0.000 HD
ENDBRANCH  15  17
ENDBRANCH  14  15
ENDBRANCH   1  14
TORSDOF 7
ENDMDL
MODEL 7
REMARK VINA RESULT:    -4.879      2.888      4.887
REMARK INTER + INTRA:          -7.169
REMARK INTER:                  -6.362
REMARK INTRA:                  -0.806
REMARK UNBOUND:                -0.578
REMARK  Name = 
REMARK  10 active torsions:
REMARK  status: ('A' for Active; 'I' for Inactive)
REMARK    1  A    between atoms: C_1  and  C_2
REMARK    2  A    between atoms: C_5  and  N_8
REMARK    3  A    between atoms: N_8  and  C_9
REMARK    4  A    between atoms: N_8  and  C_13
REMARK    5  A    between atoms: C_9  and  C_10
REMARK    6  A    between atoms: C_10  and  C_11
REMARK    7  A    between atoms: C_10  and  O_12
REMARK    8  A    between atoms: C_13  and  C_14
REMARK    9  A    between atoms: C_14  and  C_15
REMARK   10  A    between atoms: C_14  and  O_16
REMARK                            x       y       z     vdW  Elec       q    Type
REMARK                         _______ _______ _______ _____ _____    ______ ____
ROOT
ATOM      1  N   UNL     1       0.508  18.293 -11.280  0.00  0.00    +0.000 N 
ENDROOT
BRANCH   1   6
ATOM      2  C   UNL     1       3.148  21.824 -15.008  0.00  0.00    +0.000 C 
ATOM      3  C   UNL     1       2.464  20.890 -14.058  0.00  0.00    +0.000 A 
ATOM      4  C   UNL     1       1.076  20.819 -14.000  0.00  0.00    +0.000 A 
ATOM      5  C   UNL     1       0.440  19.963 -13.086  0.00  0.00    +0.000 A 
ATOM      6  C   UNL     1       1.149  19.159 -12.176  0.00  0.00    +0.000 A 
ATOM      7  C   UNL     1       2.550  19.254 -12.263  0.00  0.00    +0.000 A 
ATOM      8  C   UNL     1       3.199  20.105 -13.174  0.00  0.00    +0.000 A 
ENDBRANCH   1   6
BRANCH   1   9
ATOM      9  C   UNL     1      -0.307  17.165 -11.792  0.00  0.00    +0.000 C 
BRANCH   9  10
ATOM     10  C   UNL     1       0.540  15.911 -12.116  0.00  0.00    +0.000 C 
ATOM     11  C   UNL     1       0.851  15.833 -13.606  0.00  0.00    +0.000 C 
BRANCH  10  12
ATOM     12  O   UNL     1       1.785  15.932 -11.403  0.00  0.00    +0.000 OA
ATOM     13  H   UNL     1       1.615  15.642 -10.492  0.00  0.00    +0.000 HD
ENDBRANCH  10  12
ENDBRANCH   9  10
ENDBRANCH   1   9
BRANCH   1  14
ATOM     14  C   UNL     1       0.183  18.722  -9.896  0.00  0.00    +0.000 C 
BRANCH  14  15
ATOM     15  C   UNL     1       1.402  18.616  -8.949  0.00  0.00    +0.000 C 
ATOM     16  C   UNL     1       1.135  19.186  -7.561  0.00  0.00    +0.000 C 
BRANCH  15  17
ATOM     17  O   UNL     1       1.834  17.265  -8.795  0.00  0.00    +0.000 OA
ATOM     18  H   UNL     1       2.548  17.151  -9.454  0.00  0.00    +0.000 HD
ENDBRANCH  15  17
ENDBRANCH  14  15
ENDBRANCH   1  14
TORSDOF 7
ENDMDL
MODEL 8
REMARK VINA RESULT:    -4.873      2.794      4.362
REMARK INTER + INTRA:          -7.160
REMARK INTER:                  -6.611
REMARK INTRA:                  -0.549
REMARK UNBOUND:                -0.578
REMARK  Name = 
REMARK  10 active torsions:
REMARK  status: ('A' for Active; 'I' for Inactive)
REMARK    1  A    between atoms: C_1  and  C_2
REMARK    2  A    between atoms: C_5  and  N_8
REMARK    3  A    between atoms: N_8  and  C_9
REMARK    4  A    between atoms: N_8  and  C_13
REMARK    5  A    between atoms: C_9  and  C_10
REMARK    6  A    between atoms: C_10  and  C_11
REMARK    7  A    between atoms: C_10  and  O_12
REMARK    8  A    between atoms: C_13  and  C_14
REMARK    9  A    between atoms: C_14  and  C_15
REMARK   10  A    between atoms: C_14  and  O_16
REMARK                            x       y       z     vdW  Elec       q    Type
REMARK                         _______ _______ _______ _____ _____    ______ ____
ROOT
ATOM      1  N   UNL     1       1.921  17.130 -11.450  0.00  0.00    +0.000 N 
ENDROOT
BRANCH   1   6
ATOM      2  C   UNL     1      -0.971  14.503 -15.700  0.00  0.00    +0.000 C 
ATOM      3  C   UNL     1      -0.232  15.206 -14.602  0.00  0.00    +0.000 A 
ATOM      4  C   UNL     1       1.005  15.796 -14.838  0.00  0.00    +0.000 A 
ATOM      5  C   UNL     1       1.707  16.428 -13.798  0.00  0.00    +0.000 A 
ATOM      6  C   UNL     1       1.225  16.481 -12.477  0.00  0.00    +0.000 A 
ATOM      7  C   UNL     1      -0.029  15.876 -12.276  0.00  0.00    +0.000 A 
ATOM      8  C   UNL     1      -0.742  15.243 -13.308  0.00  0.00    +0.000 A 
ENDBRANCH   1   6
BRANCH   1   9
ATOM      9  C   UNL     1       3.118  17.948 -11.763  0.00  0.00    +0.000 C 
BRANCH   9  10
ATOM     10  C   UNL     1       2.773  19.429 -12.054  0.00  0.00    +0.000 C 
ATOM     11  C   UNL     1       3.233  19.831 -13.450  0.00  0.00    +0.000 C 
BRANCH  10  12
ATOM     12  O   UNL     1       1.359  19.654 -11.971  0.00  0.00    +0.000 OA
ATOM     13  H   UNL     1       1.215  20.503 -11.520  0.00  0.00    +0.000 HD
ENDBRANCH  10  12
ENDBRANCH   9  10
ENDBRANCH   1   9
BRANCH   1  14
ATOM     14  C   UNL     1       1.843  16.649 -10.046  0.00  0.00    +0.000 C 
BRANCH  14  15
ATOM     15  C   UNL     1       1.328  17.744  -9.082  0.00  0.00    +0.000 C 
ATOM     16  C   UNL     1      -0.187  17.908  -9.115  0.00  0.00    +0.000 C 
BRANCH  15  17
ATOM     17  O   UNL     1       1.714  17.484  -7.733  0.00  0.00    +0.000 OA
ATOM     18  H   UNL     1       2.643  17.181  -7.790  0.00  0.00    +0.000 HD
ENDBRANCH  15  17
ENDBRANCH  14  15
ENDBRANCH   1  14
TORSDOF 7
ENDMDL
MODEL 9
REMARK VINA RESULT:    -4.856      2.455      4.700
REMARK INTER + INTRA:          -7.138
REMARK INTER:                  -6.701
REMARK INTRA:                  -0.436
REMARK UNBOUND:                -0.578
REMARK  Name = 
REMARK  10 active torsions:
REMARK  status: ('A' for Active; 'I' for Inactive)
REMARK    1  A    between atoms: C_1  and  C_2
REMARK    2  A    between atoms: C_5  and  N_8
REMARK    3  A    between atoms: N_8  and  C_9
REMARK    4  A    between atoms: N_8  and  C_13
REMARK    5  A    between atoms: C_9  and  C_10
REMARK    6  A    between atoms: C_10  and  C_11
REMARK    7  A    between atoms: C_10  and  O_12
REMARK    8  A    between atoms: C_13  and  C_14
REMARK    9  A    between atoms: C_14  and  C_15
REMARK   10  A    between atoms: C_14  and  O_16
REMARK                            x       y       z     vdW  Elec       q    Type
REMARK                         _______ _______ _______ _____ _____    ______ ____
ROOT
ATOM      1  N   UNL     1       0.904  17.983 -12.043  0.00  0.00    +0.000 N 
ENDROOT
BRANCH   1   6
ATOM      2  C   UNL     1      -0.207  18.927  -6.457  0.00  0.00    +0.000 C 
ATOM      3  C   UNL     1       0.077  18.706  -7.912  0.00  0.00    +0.000 A 
ATOM      4  C   UNL     1      -0.934  18.322  -8.787  0.00  0.00    +0.000 A 
ATOM      5  C   UNL     1      -0.656  18.087 -10.143  0.00  0.00    +0.000 A 
ATOM      6  C   UNL     1       0.637  18.200 -10.686  0.00  0.00    +0.000 A 
ATOM      7  C   UNL     1       1.633  18.592  -9.773  0.00  0.00    +0.000 A 
ATOM      8  C   UNL     1       1.368  18.832  -8.414  0.00  0.00    +0.000 A 
ENDBRANCH   1   6
BRANCH   1   9
ATOM      9  C   UNL     1      -0.062  18.438 -13.072  0.00  0.00    +0.000 C 
BRANCH   9  10
ATOM     10  C   UNL     1      -0.297  19.968 -13.040  0.00  0.00    +0.000 C 
ATOM     11  C   UNL     1       0.902  20.716 -13.611  0.00  0.00    +0.000 C 
BRANCH  10  12
ATOM     12  O   UNL     1      -1.453  20.328 -13.809  0.00  0.00    +0.000 OA
ATOM     13  H   UNL     1      -1.960  20.983 -13.302  0.00  0.00    +0.000 HD
ENDBRANCH  10  12
ENDBRANCH   9  10
ENDBRANCH   1   9
BRANCH   1  14
ATOM     14  C   UNL     1       1.822  16.901 -12.483  0.00  0.00    +0.000 C 
BRANCH  14  15
ATOM     15  C   UNL     1       3.052  17.452 -13.244  0.00  0.00    +0.000 C 
ATOM     16  C   UNL     1       2.794  17.659 -14.731  0.00  0.00    +0.000 C 
BRANCH  15  17
ATOM     17  O   UNL     1       3.499  18.691 -12.696  0.00  0.00    +0.000 OA
ATOM     18  H   UNL     1       2.910  19.368 -13.087  0.00  0.00    +0.000 HD
ENDBRANCH  15  17
ENDBRANCH  14  15
ENDBRANCH   1  14
TORSDOF 7
ENDMDL
