MODEL 1
REMARK VINA RESULT:    -4.965      0.000      0.000
REMARK INTER + INTRA:          -5.453
REMARK INTER:                  -5.400
REMARK INTRA:                  -0.052
REMARK UNBOUND:                -0.052
REMARK  Name = 
REMARK  3 active torsions:
REMARK  status: ('A' for Active; 'I' for Inactive)
REMARK    1  A    between atoms: C_1  and  O_2
REMARK    2  A    between atoms: O_2  and  C_3
REMARK    3  A    between atoms: C_8  and  O_9
REMARK                            x       y       z     vdW  Elec       q    Type
REMARK                         _______ _______ _______ _____ _____    ______ ____
ROOT
ATOM      1  C   UNL     1       6.872  13.029   0.979  0.00  0.00    +0.000 A 
ATOM      2  C   UNL     1       6.974  13.857   2.096  0.00  0.00    +0.000 A 
ATOM      3  C   UNL     1       6.120  13.666   3.189  0.00  0.00    +0.000 A 
ATOM      4  C   UNL     1       5.163  12.649   3.170  0.00  0.00    +0.000 A 
ATOM      5  C   UNL     1       5.055  11.818   2.058  0.00  0.00    +0.000 A 
ATOM      6  C   UNL     1       5.906  12.015   0.978  0.00  0.00    +0.000 A 
ENDROOT
BRANCH   1   8
ATOM      7  C   UNL     1       9.037  12.901   0.007  0.00  0.00    +0.000 C 
ATOM      8  O   UNL     1       7.638  13.102  -0.157  0.00  0.00    +0.000 OA
ENDBRANCH   1   8
BRANCH   6   9
ATOM      9  O   UNL     1       5.781  11.185  -0.104  0.00  0.00    +0.000 OA
ATOM     10  H   UNL     1       4.855  10.879  -0.076  0.00  0.00    +0.000 HD
ENDBRANCH   6   9
TORSDOF 2
ENDMDL
MODEL 2
REMARK VINA RESULT:    -4.738      2.079      3.428
REMARK INTER + INTRA:          -5.206
REMARK INTER:                  -5.155
REMARK INTRA:                  -0.050
REMARK UNBOUND:                -0.052
REMARK  Name = 
REMARK  3 active torsions:
REMARK  status: ('A' for Active; 'I' for Inactive)
REMARK    1  A    between atoms: C_1  and  O_2
REMARK    2  A    between atoms: O_2  and  C_3
REMARK    3  A    between atoms: C_8  and  O_9
REMARK                            x       y       z     vdW  Elec       q    Type
REMARK                         _______ _______ _______ _____ _____    ______ ____
ROOT
ATOM      1  C   UNL     1       5.344  12.884   2.707  0.00  0.00    +0.000 A 
ATOM      2  C   UNL     1       5.745  14.150   2.282  0.00  0.00    +0.000 A 
ATOM      3  C   UNL     1       6.136  14.350   0.952  0.00  0.00    +0.000 A 
ATOM      4  C   UNL     1       6.128  13.289   0.045  0.00  0.00    +0.000 A 
ATOM      5  C   UNL     1       5.729  12.021   0.462  0.00  0.00    +0.000 A 
ATOM      6  C   UNL     1       5.343  11.832   1.783  0.00  0.00    +0.000 A 
ENDROOT
BRANCH   1   8
ATOM      7  C   UNL     1       3.861  13.297   4.518  0.00  0.00    +0.000 C 
ATOM      8  O   UNL     1       4.938  12.544   3.973  0.00  0.00    +0.000 OA
ENDBRANCH   1   8
BRANCH   6   9
ATOM      9  O   UNL     1       4.954  10.577   2.169  0.00  0.00    +0.000 OA
ATOM     10  H   UNL     1       5.522  10.366   2.935  0.00  0.00    +0.000 HD
ENDBRANCH   6   9
TORSDOF 2
ENDMDL
MODEL 3
REMARK VINA RESULT:    -4.368      2.271      3.172
REMARK INTER + INTRA:          -4.803
REMARK INTER:                  -4.751
REMARK INTRA:                  -0.052
REMARK UNBOUND:                -0.052
REMARK  Name = 
REMARK  3 active torsions:
REMARK  status: ('A' for Active; 'I' for Inactive)
REMARK    1  A    between atoms: C_1  and  O_2
REMARK    2  A    between atoms: O_2  and  C_3
REMARK    3  A    between atoms: C_8  and  O_9
REMARK                            x       y       z     vdW  Elec       q    Type
REMARK                         _______ _______ _______ _____ _____    ______ ____
ROOT
ATOM      1  C   UNL     1       5.939  13.795   2.578  0.00  0.00    +0.000 A 
ATOM      2  C   UNL     1       6.691  13.986   1.420  0.00  0.00    +0.000 A 
ATOM      3  C   UNL     1       6.689  13.011   0.415  0.00  0.00    +0.000 A 
ATOM      4  C   UNL     1       5.937  11.843   0.564  0.00  0.00    +0.000 A 
ATOM      5  C   UNL     1       5.183  11.646   1.718  0.00  0.00    +0.000 A 
ATOM      6  C   UNL     1       5.191  12.619   2.709  0.00  0.00    +0.000 A 
ENDROOT
BRANCH   1   8
ATOM      7  C   UNL     1       7.065  14.984   4.300  0.00  0.00    +0.000 C 
ATOM      8  O   UNL     1       5.848  14.661   3.638  0.00  0.00    +0.000 OA
ENDBRANCH   1   8
BRANCH   6   9
ATOM      9  O   UNL     1       4.442  12.401   3.835  0.00  0.00    +0.000 OA
ATOM     10  H   UNL     1       5.095  12.214   4.536  0.00  0.00    +0.000 HD
ENDBRANCH   6   9
TORSDOF 2
ENDMDL
MODEL 4
REMARK VINA RESULT:    -4.320      2.291      4.013
REMARK INTER + INTRA:          -4.751
REMARK INTER:                  -4.703
REMARK INTRA:                  -0.047
REMARK UNBOUND:                -0.052
REMARK  Name = 
REMARK  3 active torsions:
REMARK  status: ('A' for Active; 'I' for Inactive)
REMARK    1  A    between atoms: C_1  and  O_2
REMARK    2  A    between atoms: O_2  and  C_3
REMARK    3  A    between atoms: C_8  and  O_9
REMARK                            x       y       z     vdW  Elec       q    Type
REMARK                         _______ _______ _______ _____ _____    ______ ____
ROOT
ATOM      1  C   UNL     1       5.474  12.952   2.814  0.00  0.00    +0.000 A 
ATOM      2  C   UNL     1       5.188  11.840   2.023  0.00  0.00    +0.000 A 
ATOM      3  C   UNL     1       5.661  11.778   0.706  0.00  0.00    +0.000 A 
ATOM      4  C   UNL     1       6.419  12.824   0.176  0.00  0.00    +0.000 A 
ATOM      5  C   UNL     1       6.709  13.938   0.961  0.00  0.00    +0.000 A 
ATOM      6  C   UNL     1       6.236  13.991   2.265  0.00  0.00    +0.000 A 
ENDROOT
BRANCH   1   8
ATOM      7  C   UNL     1       3.701  13.442   4.318  0.00  0.00    +0.000 C 
ATOM      8  O   UNL     1       5.077  13.146   4.113  0.00  0.00    +0.000 OA
ENDBRANCH   1   8
BRANCH   6   9
ATOM      9  O   UNL     1       6.534  15.096   3.017  0.00  0.00    +0.000 OA
ATOM     10  H   UNL     1       5.673  15.526   3.180  0.00  0.00    +0.000 HD
ENDBRANCH   6   9
TORSDOF 2
ENDMDL
MODEL 5
REMARK VINA RESULT:    -4.288      2.751      3.743
REMARK INTER + INTRA:          -4.716
REMARK INTER:                  -4.678
REMARK INTRA:                  -0.037
REMARK UNBOUND:                -0.052
REMARK  Name = 
REMARK  3 active torsions:
REMARK  status: ('A' for Active; 'I' for Inactive)
REMARK    1  A    between atoms: C_1  and  O_2
REMARK    2  A    between atoms: O_2  and  C_3
REMARK    3  A    between atoms: C_8  and  O_9
REMARK                            x       y       z     vdW  Elec       q    Type
REMARK                         _______ _______ _______ _____ _____    ______ ____
ROOT
ATOM      1  C   UNL     1       5.668  14.009   3.690  0.00  0.00    +0.000 A 
ATOM      2  C   UNL     1       6.760  14.280   2.866  0.00  0.00    +0.000 A 
ATOM      3  C   UNL     1       6.990  13.495   1.729  0.00  0.00    +0.000 A 
ATOM      4  C   UNL     1       6.133  12.439   1.413  0.00  0.00    +0.000 A 
ATOM      5  C   UNL     1       5.040  12.163   2.230  0.00  0.00    +0.000 A 
ATOM      6  C   UNL     1       4.820  12.946   3.356  0.00  0.00    +0.000 A 
ENDROOT
BRANCH   1   8
ATOM      7  C   UNL     1       6.148  15.795   5.182  0.00  0.00    +0.000 C 
ATOM      8  O   UNL     1       5.324  14.691   4.830  0.00  0.00    +0.000 OA
ENDBRANCH   1   8
BRANCH   6   9
ATOM      9  O   UNL     1       3.739  12.655   4.145  0.00  0.00    +0.000 OA
ATOM     10  H   UNL     1       4.057  12.782   5.059  0.00  0.00    +0.000 HD
ENDBRANCH   6   9
TORSDOF 2
ENDMDL
MODEL 6
REMARK VINA RESULT:    -4.040      3.536      4.421
REMARK INTER + INTRA:          -4.447
REMARK INTER:                  -4.394
REMARK INTRA:                  -0.053
REMARK UNBOUND:                -0.052
REMARK  Name = 
REMARK  3 active torsions:
REMARK  status: ('A' for Active; 'I' for Inactive)
REMARK    1  A    between atoms: C_1  and  O_2
REMARK    2  A    between atoms: O_2  and  C_3
REMARK    3  A    between atoms: C_8  and  O_9
REMARK                            x       y       z     vdW  Elec       q    Type
REMARK                         _______ _______ _______ _____ _____    ______ ____
ROOT
ATOM      1  C   UNL     1       4.975  14.377   4.811  0.00  0.00    +0.000 A 
ATOM      2  C   UNL     1       4.731  15.512   5.583  0.00  0.00    +0.000 A 
ATOM      3  C   UNL     1       3.415  15.934   5.810  0.00  0.00    +0.000 A 
ATOM      4  C   UNL     1       2.341  15.225   5.268  0.00  0.00    +0.000 A 
ATOM      5  C   UNL     1       2.577  14.090   4.497  0.00  0.00    +0.000 A 
ATOM      6  C   UNL     1       3.885  13.679   4.276  0.00  0.00    +0.000 A 
ENDROOT
BRANCH   1   8
ATOM      7  C   UNL     1       7.038  14.635   3.661  0.00  0.00    +0.000 C 
ATOM      8  O   UNL     1       6.206  13.852   4.507  0.00  0.00    +0.000 OA
ENDBRANCH   1   8
BRANCH   6   9
ATOM      9  O   UNL     1       4.092  12.560   3.515  0.00  0.00    +0.000 OA
ATOM     10  H   UNL     1       3.743  12.791   2.633  0.00  0.00    +0.000 HD
ENDBRANCH   6   9
TORSDOF 2
ENDMDL
MODEL 7
REMARK VINA RESULT:    -4.030      5.661      6.758
REMARK INTER + INTRA:          -4.435
REMARK INTER:                  -4.383
REMARK INTRA:                  -0.052
REMARK UNBOUND:                -0.052
REMARK  Name = 
REMARK  3 active torsions:
REMARK  status: ('A' for Active; 'I' for Inactive)
REMARK    1  A    between atoms: C_1  and  O_2
REMARK    2  A    between atoms: O_2  and  C_3
REMARK    3  A    between atoms: C_8  and  O_9
REMARK                            x       y       z     vdW  Elec       q    Type
REMARK                         _______ _______ _______ _____ _____    ______ ____
ROOT
ATOM      1  C   UNL     1       4.275  15.825   6.111  0.00  0.00    +0.000 A 
ATOM      2  C   UNL     1       4.533  15.063   4.972  0.00  0.00    +0.000 A 
ATOM      3  C   UNL     1       3.501  14.332   4.370  0.00  0.00    +0.000 A 
ATOM      4  C   UNL     1       2.211  14.359   4.902  0.00  0.00    +0.000 A 
ATOM      5  C   UNL     1       1.945  15.118   6.039  0.00  0.00    +0.000 A 
ATOM      6  C   UNL     1       2.974  15.840   6.630  0.00  0.00    +0.000 A 
ENDROOT
BRANCH   1   8
ATOM      7  C   UNL     1       5.659  17.756   6.148  0.00  0.00    +0.000 C 
ATOM      8  O   UNL     1       5.184  16.585   6.801  0.00  0.00    +0.000 OA
ENDBRANCH   1   8
BRANCH   6   9
ATOM      9  O   UNL     1       2.688  16.578   7.747  0.00  0.00    +0.000 OA
ATOM     10  H   UNL     1       2.656  15.927   8.474  0.00  0.00    +0.000 HD
ENDBRANCH   6   9
TORSDOF 2
ENDMDL
MODEL 8
REMARK VINA RESULT:    -3.998      4.484      5.514
REMARK INTER + INTRA:          -4.401
REMARK INTER:                  -4.362
REMARK INTRA:                  -0.039
REMARK UNBOUND:                -0.052
REMARK  Name = 
REMARK  3 active torsions:
REMARK  status: ('A' for Active; 'I' for Inactive)
REMARK    1  A    between atoms: C_1  and  O_2
REMARK    2  A    between atoms: O_2  and  C_3
REMARK    3  A    between atoms: C_8  and  O_9
REMARK                            x       y       z     vdW  Elec       q    Type
REMARK                         _______ _______ _______ _____ _____    ______ ____
ROOT
ATOM      1  C   UNL     1       4.317  13.360   5.889  0.00  0.00    +0.000 A 
ATOM      2  C   UNL     1       3.895  14.229   6.893  0.00  0.00    +0.000 A 
ATOM      3  C   UNL     1       2.874  15.153   6.636  0.00  0.00    +0.000 A 
ATOM      4  C   UNL     1       2.274  15.212   5.376  0.00  0.00    +0.000 A 
ATOM      5  C   UNL     1       2.690  14.346   4.368  0.00  0.00    +0.000 A 
ATOM      6  C   UNL     1       3.703  13.433   4.632  0.00  0.00    +0.000 A 
ENDROOT
BRANCH   1   8
ATOM      7  C   UNL     1       5.647  12.004   7.318  0.00  0.00    +0.000 C 
ATOM      8  O   UNL     1       5.301  12.410   5.999  0.00  0.00    +0.000 OA
ENDBRANCH   1   8
BRANCH   6   9
ATOM      9  O   UNL     1       4.095  12.592   3.625  0.00  0.00    +0.000 OA
ATOM     10  H   UNL     1       3.403  11.905   3.591  0.00  0.00    +0.000 HD
ENDBRANCH   6   9
TORSDOF 2
ENDMDL
MODEL 9
REMARK VINA RESULT:    -3.802      2.272      3.490
REMARK INTER + INTRA:          -4.187
REMARK INTER:                  -4.149
REMARK INTRA:                  -0.039
REMARK UNBOUND:                -0.052
REMARK  Name = 
REMARK  3 active torsions:
REMARK  status: ('A' for Active; 'I' for Inactive)
REMARK    1  A    between atoms: C_1  and  O_2
REMARK    2  A    between atoms: O_2  and  C_3
REMARK    3  A    between atoms: C_8  and  O_9
REMARK                            x       y       z     vdW  Elec       q    Type
REMARK                         _______ _______ _______ _____ _____    ______ ____
ROOT
ATOM      1  C   UNL     1       6.079  13.730   3.060  0.00  0.00    +0.000 A 
ATOM      2  C   UNL     1       4.921  12.956   3.111  0.00  0.00    +0.000 A 
ATOM      3  C   UNL     1       3.938  13.230   4.070  0.00  0.00    +0.000 A 
ATOM      4  C   UNL     1       4.108  14.274   4.981  0.00  0.00    +0.000 A 
ATOM      5  C   UNL     1       5.263  15.053   4.936  0.00  0.00    +0.000 A 
ATOM      6  C   UNL     1       6.233  14.774   3.982  0.00  0.00    +0.000 A 
ENDROOT
BRANCH   1   8
ATOM      7  C   UNL     1       6.838  12.859   0.984  0.00  0.00    +0.000 C 
ATOM      8  O   UNL     1       7.120  13.577   2.180  0.00  0.00    +0.000 OA
ENDBRANCH   1   8
BRANCH   6   9
ATOM      9  O   UNL     1       7.359  15.552   3.958  0.00  0.00    +0.000 OA
ATOM     10  H   UNL     1       7.071  16.393   3.554  0.00  0.00    +0.000 HD
ENDBRANCH   6   9
TORSDOF 2
ENDMDL
