MODEL 1
REMARK VINA RESULT:    -4.220      0.000      0.000
REMARK INTER + INTRA:          -4.642
REMARK INTER:                  -4.590
REMARK INTRA:                  -0.052
REMARK UNBOUND:                -0.052
REMARK  Name = 
REMARK  3 active torsions:
REMARK  status: ('A' for Active; 'I' for Inactive)
REMARK    1  A    between atoms: C_1  and  O_2
REMARK    2  A    between atoms: O_2  and  C_3
REMARK    3  A    between atoms: C_8  and  O_9
REMARK                            x       y       z     vdW  Elec       q    Type
REMARK                         _______ _______ _______ _____ _____    ______ ____
ROOT
ATOM      1  C   UNL     1       1.474  13.039  -0.343  0.00  0.00    +0.000 A 
ATOM      2  C   UNL     1       0.462  13.422   0.536  0.00  0.00    +0.000 A 
ATOM      3  C   UNL     1      -0.129  14.686   0.415  0.00  0.00    +0.000 A 
ATOM      4  C   UNL     1       0.288  15.570  -0.582  0.00  0.00    +0.000 A 
ATOM      5  C   UNL     1       1.299  15.195  -1.465  0.00  0.00    +0.000 A 
ATOM      6  C   UNL     1       1.880  13.939  -1.336  0.00  0.00    +0.000 A 
ENDROOT
BRANCH   1   8
ATOM      7  C   UNL     1       1.384  10.694  -0.716  0.00  0.00    +0.000 C 
ATOM      8  O   UNL     1       2.139  11.840  -0.341  0.00  0.00    +0.000 OA
ENDBRANCH   1   8
BRANCH   6   9
ATOM      9  O   UNL     1       2.871  13.593  -2.215  0.00  0.00    +0.000 OA
ATOM     10  H   UNL     1       3.465  13.011  -1.703  0.00  0.00    +0.000 HD
ENDBRANCH   6   9
TORSDOF 2
ENDMDL
MODEL 2
REMARK VINA RESULT:    -4.111      9.554     11.004
REMARK INTER + INTRA:          -4.523
REMARK INTER:                  -4.471
REMARK INTRA:                  -0.052
REMARK UNBOUND:                -0.052
REMARK  Name = 
REMARK  3 active torsions:
REMARK  status: ('A' for Active; 'I' for Inactive)
REMARK    1  A    between atoms: C_1  and  O_2
REMARK    2  A    between atoms: O_2  and  C_3
REMARK    3  A    between atoms: C_8  and  O_9
REMARK                            x       y       z     vdW  Elec       q    Type
REMARK                         _______ _______ _______ _____ _____    ______ ____
ROOT
ATOM      1  C   UNL     1       1.620  17.518  -9.965  0.00  0.00    +0.000 A 
ATOM      2  C   UNL     1       1.543  16.666 -11.066  0.00  0.00    +0.000 A 
ATOM      3  C   UNL     1       2.341  16.904 -12.192  0.00  0.00    +0.000 A 
ATOM      4  C   UNL     1       3.216  17.992 -12.223  0.00  0.00    +0.000 A 
ATOM      5  C   UNL     1       3.298  18.848 -11.127  0.00  0.00    +0.000 A 
ATOM      6  C   UNL     1       2.503  18.604 -10.014  0.00  0.00    +0.000 A 
ENDROOT
BRANCH   1   8
ATOM      7  C   UNL     1      -0.497  17.653  -8.894  0.00  0.00    +0.000 C 
ATOM      8  O   UNL     1       0.901  17.407  -8.802  0.00  0.00    +0.000 OA
ENDBRANCH   1   8
BRANCH   6   9
ATOM      9  O   UNL     1       2.602  19.459  -8.949  0.00  0.00    +0.000 OA
ATOM     10  H   UNL     1       2.178  20.284  -9.253  0.00  0.00    +0.000 HD
ENDBRANCH   6   9
TORSDOF 2
ENDMDL
MODEL 3
REMARK VINA RESULT:    -4.020      8.342      9.147
REMARK INTER + INTRA:          -4.425
REMARK INTER:                  -4.382
REMARK INTRA:                  -0.043
REMARK UNBOUND:                -0.052
REMARK  Name = 
REMARK  3 active torsions:
REMARK  status: ('A' for Active; 'I' for Inactive)
REMARK    1  A    between atoms: C_1  and  O_2
REMARK    2  A    between atoms: O_2  and  C_3
REMARK    3  A    between atoms: C_8  and  O_9
REMARK                            x       y       z     vdW  Elec       q    Type
REMARK                         _______ _______ _______ _____ _____    ______ ____
ROOT
ATOM      1  C   UNL     1       0.601  18.117  -8.703  0.00  0.00    +0.000 A 
ATOM      2  C   UNL     1      -0.707  17.731  -8.994  0.00  0.00    +0.000 A 
ATOM      3  C   UNL     1      -1.725  17.949  -8.057  0.00  0.00    +0.000 A 
ATOM      4  C   UNL     1      -1.441  18.551  -6.830  0.00  0.00    +0.000 A 
ATOM      5  C   UNL     1      -0.137  18.940  -6.533  0.00  0.00    +0.000 A 
ATOM      6  C   UNL     1       0.867  18.719  -7.467  0.00  0.00    +0.000 A 
ENDROOT
BRANCH   1   8
ATOM      7  C   UNL     1       1.730  16.786 -10.316  0.00  0.00    +0.000 C 
ATOM      8  O   UNL     1       1.692  17.965  -9.521  0.00  0.00    +0.000 OA
ENDBRANCH   1   8
BRANCH   6   9
ATOM      9  O   UNL     1       2.141  19.110  -7.153  0.00  0.00    +0.000 OA
ATOM     10  H   UNL     1       2.718  18.480  -7.626  0.00  0.00    +0.000 HD
ENDBRANCH   6   9
TORSDOF 2
ENDMDL
MODEL 4
REMARK VINA RESULT:    -3.990      8.690     10.018
REMARK INTER + INTRA:          -4.392
REMARK INTER:                  -4.342
REMARK INTRA:                  -0.050
REMARK UNBOUND:                -0.052
REMARK  Name = 
REMARK  3 active torsions:
REMARK  status: ('A' for Active; 'I' for Inactive)
REMARK    1  A    between atoms: C_1  and  O_2
REMARK    2  A    between atoms: O_2  and  C_3
REMARK    3  A    between atoms: C_8  and  O_9
REMARK                            x       y       z     vdW  Elec       q    Type
REMARK                         _______ _______ _______ _____ _____    ______ ____
ROOT
ATOM      1  C   UNL     1      -0.240  17.714  -9.098  0.00  0.00    +0.000 A 
ATOM      2  C   UNL     1      -0.735  17.586 -10.395  0.00  0.00    +0.000 A 
ATOM      3  C   UNL     1       0.090  17.095 -11.414  0.00  0.00    +0.000 A 
ATOM      4  C   UNL     1       1.410  16.730 -11.141  0.00  0.00    +0.000 A 
ATOM      5  C   UNL     1       1.912  16.854  -9.848  0.00  0.00    +0.000 A 
ATOM      6  C   UNL     1       1.086  17.343  -8.844  0.00  0.00    +0.000 A 
ENDROOT
BRANCH   1   8
ATOM      7  C   UNL     1      -2.154  17.519  -7.703  0.00  0.00    +0.000 C 
ATOM      8  O   UNL     1      -0.931  18.179  -8.008  0.00  0.00    +0.000 OA
ENDBRANCH   1   8
BRANCH   6   9
ATOM      9  O   UNL     1       1.602  17.456  -7.580  0.00  0.00    +0.000 OA
ATOM     10  H   UNL     1       1.901  16.555  -7.353  0.00  0.00    +0.000 HD
ENDBRANCH   6   9
TORSDOF 2
ENDMDL
MODEL 5
REMARK VINA RESULT:    -3.944      9.829     11.292
REMARK INTER + INTRA:          -4.342
REMARK INTER:                  -4.304
REMARK INTRA:                  -0.038
REMARK UNBOUND:                -0.052
REMARK  Name = 
REMARK  3 active torsions:
REMARK  status: ('A' for Active; 'I' for Inactive)
REMARK    1  A    between atoms: C_1  and  O_2
REMARK    2  A    between atoms: O_2  and  C_3
REMARK    3  A    between atoms: C_8  and  O_9
REMARK                            x       y       z     vdW  Elec       q    Type
REMARK                         _______ _______ _______ _____ _____    ______ ____
ROOT
ATOM      1  C   UNL     1       2.063  17.766 -10.192  0.00  0.00    +0.000 A 
ATOM      2  C   UNL     1       2.813  18.931 -10.038  0.00  0.00    +0.000 A 
ATOM      3  C   UNL     1       3.597  19.404 -11.098  0.00  0.00    +0.000 A 
ATOM      4  C   UNL     1       3.634  18.716 -12.312  0.00  0.00    +0.000 A 
ATOM      5  C   UNL     1       2.887  17.552 -12.474  0.00  0.00    +0.000 A 
ATOM      6  C   UNL     1       2.113  17.090 -11.417  0.00  0.00    +0.000 A 
ENDROOT
BRANCH   1   8
ATOM      7  C   UNL     1       0.978  17.970  -8.087  0.00  0.00    +0.000 C 
ATOM      8  O   UNL     1       1.256  17.190  -9.244  0.00  0.00    +0.000 OA
ENDBRANCH   1   8
BRANCH   6   9
ATOM      9  O   UNL     1       1.387  15.943 -11.600  0.00  0.00    +0.000 OA
ATOM     10  H   UNL     1       1.615  15.646 -12.502  0.00  0.00    +0.000 HD
ENDBRANCH   6   9
TORSDOF 2
ENDMDL
MODEL 6
REMARK VINA RESULT:    -3.921     11.144     12.146
REMARK INTER + INTRA:          -4.317
REMARK INTER:                  -4.279
REMARK INTRA:                  -0.038
REMARK UNBOUND:                -0.052
REMARK  Name = 
REMARK  3 active torsions:
REMARK  status: ('A' for Active; 'I' for Inactive)
REMARK    1  A    between atoms: C_1  and  O_2
REMARK    2  A    between atoms: O_2  and  C_3
REMARK    3  A    between atoms: C_8  and  O_9
REMARK                            x       y       z     vdW  Elec       q    Type
REMARK                         _______ _______ _______ _____ _____    ______ ____
ROOT
ATOM      1  C   UNL     1       1.867  17.049 -12.189  0.00  0.00    +0.000 A 
ATOM      2  C   UNL     1       1.475  17.239 -10.865  0.00  0.00    +0.000 A 
ATOM      3  C   UNL     1       2.132  18.185 -10.069  0.00  0.00    +0.000 A 
ATOM      4  C   UNL     1       3.182  18.943 -10.591  0.00  0.00    +0.000 A 
ATOM      5  C   UNL     1       3.579  18.759 -11.914  0.00  0.00    +0.000 A 
ATOM      6  C   UNL     1       2.922  17.818 -12.696  0.00  0.00    +0.000 A 
ENDROOT
BRANCH   1   8
ATOM      7  C   UNL     1       0.082  15.565 -12.700  0.00  0.00    +0.000 C 
ATOM      8  O   UNL     1       1.317  16.162 -13.080  0.00  0.00    +0.000 OA
ENDBRANCH   1   8
BRANCH   6   9
ATOM      9  O   UNL     1       3.331  17.656 -13.993  0.00  0.00    +0.000 OA
ATOM     10  H   UNL     1       2.572  17.951 -14.531  0.00  0.00    +0.000 HD
ENDBRANCH   6   9
TORSDOF 2
ENDMDL
MODEL 7
REMARK VINA RESULT:    -3.840     11.428     12.777
REMARK INTER + INTRA:          -4.229
REMARK INTER:                  -4.188
REMARK INTRA:                  -0.041
REMARK UNBOUND:                -0.052
REMARK  Name = 
REMARK  3 active torsions:
REMARK  status: ('A' for Active; 'I' for Inactive)
REMARK    1  A    between atoms: C_1  and  O_2
REMARK    2  A    between atoms: O_2  and  C_3
REMARK    3  A    between atoms: C_8  and  O_9
REMARK                            x       y       z     vdW  Elec       q    Type
REMARK                         _______ _______ _______ _____ _____    ______ ____
ROOT
ATOM      1  C   UNL     1       1.864  16.722 -12.109  0.00  0.00    +0.000 A 
ATOM      2  C   UNL     1       2.685  17.736 -12.599  0.00  0.00    +0.000 A 
ATOM      3  C   UNL     1       2.803  17.936 -13.980  0.00  0.00    +0.000 A 
ATOM      4  C   UNL     1       2.103  17.124 -14.875  0.00  0.00    +0.000 A 
ATOM      5  C   UNL     1       1.280  16.109 -14.393  0.00  0.00    +0.000 A 
ATOM      6  C   UNL     1       1.170  15.918 -13.022  0.00  0.00    +0.000 A 
ENDROOT
BRANCH   1   8
ATOM      7  C   UNL     1       1.746  17.490  -9.864  0.00  0.00    +0.000 C 
ATOM      8  O   UNL     1       1.655  16.413 -10.789  0.00  0.00    +0.000 OA
ENDBRANCH   1   8
BRANCH   6   9
ATOM      9  O   UNL     1       0.355  14.913 -12.573  0.00  0.00    +0.000 OA
ATOM     10  H   UNL     1       0.013  15.234 -11.717  0.00  0.00    +0.000 HD
ENDBRANCH   6   9
TORSDOF 2
ENDMDL
MODEL 8
REMARK VINA RESULT:    -3.828     11.656     12.934
REMARK INTER + INTRA:          -4.215
REMARK INTER:                  -4.167
REMARK INTRA:                  -0.049
REMARK UNBOUND:                -0.052
REMARK  Name = 
REMARK  3 active torsions:
REMARK  status: ('A' for Active; 'I' for Inactive)
REMARK    1  A    between atoms: C_1  and  O_2
REMARK    2  A    between atoms: O_2  and  C_3
REMARK    3  A    between atoms: C_8  and  O_9
REMARK                            x       y       z     vdW  Elec       q    Type
REMARK                         _______ _______ _______ _____ _____    ______ ____
ROOT
ATOM      1  C   UNL     1       2.895  17.739 -12.141  0.00  0.00    +0.000 A 
ATOM      2  C   UNL     1       2.057  16.832 -11.492  0.00  0.00    +0.000 A 
ATOM      3  C   UNL     1       1.113  16.103 -12.226  0.00  0.00    +0.000 A 
ATOM      4  C   UNL     1       1.003  16.276 -13.607  0.00  0.00    +0.000 A 
ATOM      5  C   UNL     1       1.837  17.179 -14.262  0.00  0.00    +0.000 A 
ATOM      6  C   UNL     1       2.769  17.899 -13.526  0.00  0.00    +0.000 A 
ENDROOT
BRANCH   1   8
ATOM      7  C   UNL     1       3.453  19.283 -10.423  0.00  0.00    +0.000 C 
ATOM      8  O   UNL     1       3.858  18.517 -11.552  0.00  0.00    +0.000 OA
ENDBRANCH   1   8
BRANCH   6   9
ATOM      9  O   UNL     1       3.578  18.781 -14.192  0.00  0.00    +0.000 OA
ATOM     10  H   UNL     1       3.665  19.543 -13.588  0.00  0.00    +0.000 HD
ENDBRANCH   6   9
TORSDOF 2
ENDMDL
MODEL 9
REMARK VINA RESULT:    -3.823     11.110     12.571
REMARK INTER + INTRA:          -4.210
REMARK INTER:                  -4.161
REMARK INTRA:                  -0.049
REMARK UNBOUND:                -0.052
REMARK  Name = 
REMARK  3 active torsions:
REMARK  status: ('A' for Active; 'I' for Inactive)
REMARK    1  A    between atoms: C_1  and  O_2
REMARK    2  A    between atoms: O_2  and  C_3
REMARK    3  A    between atoms: C_8  and  O_9
REMARK                            x       y       z     vdW  Elec       q    Type
REMARK                         _______ _______ _______ _____ _____    ______ ____
ROOT
ATOM      1  C   UNL     1       2.646  17.501 -12.754  0.00  0.00    +0.000 A 
ATOM      2  C   UNL     1       3.209  18.622 -12.146  0.00  0.00    +0.000 A 
ATOM      3  C   UNL     1       2.964  18.880 -10.791  0.00  0.00    +0.000 A 
ATOM      4  C   UNL     1       2.156  18.022 -10.042  0.00  0.00    +0.000 A 
ATOM      5  C   UNL     1       1.591  16.900 -10.643  0.00  0.00    +0.000 A 
ATOM      6  C   UNL     1       1.839  16.651 -11.987  0.00  0.00    +0.000 A 
ENDROOT
BRANCH   1   8
ATOM      7  C   UNL     1       2.547  18.127 -15.044  0.00  0.00    +0.000 C 
ATOM      8  O   UNL     1       2.800  17.126 -14.065  0.00  0.00    +0.000 OA
ENDBRANCH   1   8
BRANCH   6   9
ATOM      9  O   UNL     1       1.272  15.542 -12.555  0.00  0.00    +0.000 OA
ATOM     10  H   UNL     1       0.623  15.230 -11.896  0.00  0.00    +0.000 HD
ENDBRANCH   6   9
TORSDOF 2
ENDMDL
