MODEL 1
REMARK VINA RESULT:    -4.968      0.000      0.000
REMARK INTER + INTRA:          -5.456
REMARK INTER:                  -5.404
REMARK INTRA:                  -0.053
REMARK UNBOUND:                -0.053
REMARK  Name = 
REMARK  3 active torsions:
REMARK  status: ('A' for Active; 'I' for Inactive)
REMARK    1  A    between atoms: C_1  and  O_2
REMARK    2  A    between atoms: O_2  and  C_3
REMARK    3  A    between atoms: C_8  and  O_9
REMARK                            x       y       z     vdW  Elec       q    Type
REMARK                         _______ _______ _______ _____ _____    ______ ____
ROOT
ATOM      1  C   UNL     1       6.794  13.084   1.045  0.00  0.00    +0.000 A 
ATOM      2  C   UNL     1       6.872  13.926   2.154  0.00  0.00    +0.000 A 
ATOM      3  C   UNL     1       6.024  13.719   3.249  0.00  0.00    +0.000 A 
ATOM      4  C   UNL     1       5.099  12.673   3.241  0.00  0.00    +0.000 A 
ATOM      5  C   UNL     1       5.016  11.828   2.137  0.00  0.00    +0.000 A 
ATOM      6  C   UNL     1       5.860  12.041   1.054  0.00  0.00    +0.000 A 
ENDROOT
BRANCH   1   8
ATOM      7  C   UNL     1       8.944  12.889   0.051  0.00  0.00    +0.000 C 
ATOM      8  O   UNL     1       7.557  13.169  -0.093  0.00  0.00    +0.000 OA
ENDBRANCH   1   8
BRANCH   6   9
ATOM      9  O   UNL     1       5.760  11.197  -0.020  0.00  0.00    +0.000 OA
ATOM     10  H   UNL     1       4.810  11.194  -0.245  0.00  0.00    +0.000 HD
ENDBRANCH   6   9
TORSDOF 2
ENDMDL
MODEL 2
REMARK VINA RESULT:    -4.739      2.024      3.398
REMARK INTER + INTRA:          -5.207
REMARK INTER:                  -5.157
REMARK INTRA:                  -0.050
REMARK UNBOUND:                -0.053
REMARK  Name = 
REMARK  3 active torsions:
REMARK  status: ('A' for Active; 'I' for Inactive)
REMARK    1  A    between atoms: C_1  and  O_2
REMARK    2  A    between atoms: O_2  and  C_3
REMARK    3  A    between atoms: C_8  and  O_9
REMARK                            x       y       z     vdW  Elec       q    Type
REMARK                         _______ _______ _______ _____ _____    ______ ____
ROOT
ATOM      1  C   UNL     1       5.325  12.883   2.729  0.00  0.00    +0.000 A 
ATOM      2  C   UNL     1       5.742  14.148   2.318  0.00  0.00    +0.000 A 
ATOM      3  C   UNL     1       6.181  14.346   1.002  0.00  0.00    +0.000 A 
ATOM      4  C   UNL     1       6.206  13.284   0.097  0.00  0.00    +0.000 A 
ATOM      5  C   UNL     1       5.790  12.018   0.500  0.00  0.00    +0.000 A 
ATOM      6  C   UNL     1       5.357  11.830   1.807  0.00  0.00    +0.000 A 
ENDROOT
BRANCH   1   8
ATOM      7  C   UNL     1       3.812  13.332   4.506  0.00  0.00    +0.000 C 
ATOM      8  O   UNL     1       4.874  12.545   3.980  0.00  0.00    +0.000 OA
ENDBRANCH   1   8
BRANCH   6   9
ATOM      9  O   UNL     1       4.953  10.576   2.180  0.00  0.00    +0.000 OA
ATOM     10  H   UNL     1       4.873  10.620   3.152  0.00  0.00    +0.000 HD
ENDBRANCH   6   9
TORSDOF 2
ENDMDL
MODEL 3
REMARK VINA RESULT:    -4.369      2.225      3.147
REMARK INTER + INTRA:          -4.805
REMARK INTER:                  -4.754
REMARK INTRA:                  -0.051
REMARK UNBOUND:                -0.053
REMARK  Name = 
REMARK  3 active torsions:
REMARK  status: ('A' for Active; 'I' for Inactive)
REMARK    1  A    between atoms: C_1  and  O_2
REMARK    2  A    between atoms: O_2  and  C_3
REMARK    3  A    between atoms: C_8  and  O_9
REMARK                            x       y       z     vdW  Elec       q    Type
REMARK                         _______ _______ _______ _____ _____    ______ ____
ROOT
ATOM      1  C   UNL     1       5.931  13.770   2.618  0.00  0.00    +0.000 A 
ATOM      2  C   UNL     1       6.720  13.947   1.482  0.00  0.00    +0.000 A 
ATOM      3  C   UNL     1       6.743  12.964   0.486  0.00  0.00    +0.000 A 
ATOM      4  C   UNL     1       5.980  11.802   0.620  0.00  0.00    +0.000 A 
ATOM      5  C   UNL     1       5.189  11.618   1.751  0.00  0.00    +0.000 A 
ATOM      6  C   UNL     1       5.173  12.598   2.735  0.00  0.00    +0.000 A 
ENDROOT
BRANCH   1   8
ATOM      7  C   UNL     1       7.021  15.028   4.314  0.00  0.00    +0.000 C 
ATOM      8  O   UNL     1       5.813  14.645   3.668  0.00  0.00    +0.000 OA
ENDBRANCH   1   8
BRANCH   6   9
ATOM      9  O   UNL     1       4.387  12.395   3.838  0.00  0.00    +0.000 OA
ATOM     10  H   UNL     1       4.790  12.947   4.535  0.00  0.00    +0.000 HD
ENDBRANCH   6   9
TORSDOF 2
ENDMDL
MODEL 4
REMARK VINA RESULT:    -4.315      2.266      3.988
REMARK INTER + INTRA:          -4.746
REMARK INTER:                  -4.696
REMARK INTRA:                  -0.051
REMARK UNBOUND:                -0.053
REMARK  Name = 
REMARK  3 active torsions:
REMARK  status: ('A' for Active; 'I' for Inactive)
REMARK    1  A    between atoms: C_1  and  O_2
REMARK    2  A    between atoms: O_2  and  C_3
REMARK    3  A    between atoms: C_8  and  O_9
REMARK                            x       y       z     vdW  Elec       q    Type
REMARK                         _______ _______ _______ _____ _____    ______ ____
ROOT
ATOM      1  C   UNL     1       5.480  12.946   2.846  0.00  0.00    +0.000 A 
ATOM      2  C   UNL     1       5.188  11.843   2.045  0.00  0.00    +0.000 A 
ATOM      3  C   UNL     1       5.610  11.817   0.710  0.00  0.00    +0.000 A 
ATOM      4  C   UNL     1       6.324  12.889   0.172  0.00  0.00    +0.000 A 
ATOM      5  C   UNL     1       6.621  13.994   0.966  0.00  0.00    +0.000 A 
ATOM      6  C   UNL     1       6.197  14.012   2.289  0.00  0.00    +0.000 A 
ENDROOT
BRANCH   1   8
ATOM      7  C   UNL     1       3.751  13.330   4.430  0.00  0.00    +0.000 C 
ATOM      8  O   UNL     1       5.131  13.107   4.163  0.00  0.00    +0.000 OA
ENDBRANCH   1   8
BRANCH   6   9
ATOM      9  O   UNL     1       6.501  15.109   3.051  0.00  0.00    +0.000 OA
ATOM     10  H   UNL     1       5.680  15.306   3.541  0.00  0.00    +0.000 HD
ENDBRANCH   6   9
TORSDOF 2
ENDMDL
MODEL 5
REMARK VINA RESULT:    -4.284      2.673      3.664
REMARK INTER + INTRA:          -4.712
REMARK INTER:                  -4.674
REMARK INTRA:                  -0.038
REMARK UNBOUND:                -0.053
REMARK  Name = 
REMARK  3 active torsions:
REMARK  status: ('A' for Active; 'I' for Inactive)
REMARK    1  A    between atoms: C_1  and  O_2
REMARK    2  A    between atoms: O_2  and  C_3
REMARK    3  A    between atoms: C_8  and  O_9
REMARK                            x       y       z     vdW  Elec       q    Type
REMARK                         _______ _______ _______ _____ _____    ______ ____
ROOT
ATOM      1  C   UNL     1       5.656  14.030   3.627  0.00  0.00    +0.000 A 
ATOM      2  C   UNL     1       6.712  14.310   2.761  0.00  0.00    +0.000 A 
ATOM      3  C   UNL     1       6.936  13.495   1.644  0.00  0.00    +0.000 A 
ATOM      4  C   UNL     1       6.110  12.399   1.391  0.00  0.00    +0.000 A 
ATOM      5  C   UNL     1       5.052  12.113   2.251  0.00  0.00    +0.000 A 
ATOM      6  C   UNL     1       4.838  12.927   3.356  0.00  0.00    +0.000 A 
ENDROOT
BRANCH   1   8
ATOM      7  C   UNL     1       6.207  15.786   5.131  0.00  0.00    +0.000 C 
ATOM      8  O   UNL     1       5.321  14.738   4.753  0.00  0.00    +0.000 OA
ENDBRANCH   1   8
BRANCH   6   9
ATOM      9  O   UNL     1       3.792  12.625   4.188  0.00  0.00    +0.000 OA
ATOM     10  H   UNL     1       3.122  13.310   4.003  0.00  0.00    +0.000 HD
ENDBRANCH   6   9
TORSDOF 2
ENDMDL
MODEL 6
REMARK VINA RESULT:    -4.099      2.267      3.293
REMARK INTER + INTRA:          -4.511
REMARK INTER:                  -4.474
REMARK INTRA:                  -0.038
REMARK UNBOUND:                -0.053
REMARK  Name = 
REMARK  3 active torsions:
REMARK  status: ('A' for Active; 'I' for Inactive)
REMARK    1  A    between atoms: C_1  and  O_2
REMARK    2  A    between atoms: O_2  and  C_3
REMARK    3  A    between atoms: C_8  and  O_9
REMARK                            x       y       z     vdW  Elec       q    Type
REMARK                         _______ _______ _______ _____ _____    ______ ____
ROOT
ATOM      1  C   UNL     1       5.380  13.111   2.957  0.00  0.00    +0.000 A 
ATOM      2  C   UNL     1       6.575  13.806   2.780  0.00  0.00    +0.000 A 
ATOM      3  C   UNL     1       6.930  14.826   3.672  0.00  0.00    +0.000 A 
ATOM      4  C   UNL     1       6.095  15.154   4.741  0.00  0.00    +0.000 A 
ATOM      5  C   UNL     1       4.899  14.463   4.925  0.00  0.00    +0.000 A 
ATOM      6  C   UNL     1       4.555  13.454   4.035  0.00  0.00    +0.000 A 
ENDROOT
BRANCH   1   8
ATOM      7  C   UNL     1       5.631  11.835   0.968  0.00  0.00    +0.000 C 
ATOM      8  O   UNL     1       4.907  12.095   2.165  0.00  0.00    +0.000 OA
ENDBRANCH   1   8
BRANCH   6   9
ATOM      9  O   UNL     1       3.374  12.789   4.236  0.00  0.00    +0.000 OA
ATOM     10  H   UNL     1       3.190  12.346   3.386  0.00  0.00    +0.000 HD
ENDBRANCH   6   9
TORSDOF 2
ENDMDL
MODEL 7
REMARK VINA RESULT:    -4.050      3.456      4.332
REMARK INTER + INTRA:          -4.458
REMARK INTER:                  -4.406
REMARK INTRA:                  -0.052
REMARK UNBOUND:                -0.053
REMARK  Name = 
REMARK  3 active torsions:
REMARK  status: ('A' for Active; 'I' for Inactive)
REMARK    1  A    between atoms: C_1  and  O_2
REMARK    2  A    between atoms: O_2  and  C_3
REMARK    3  A    between atoms: C_8  and  O_9
REMARK                            x       y       z     vdW  Elec       q    Type
REMARK                         _______ _______ _______ _____ _____    ______ ____
ROOT
ATOM      1  C   UNL     1       4.981  14.387   4.821  0.00  0.00    +0.000 A 
ATOM      2  C   UNL     1       4.747  15.528   5.587  0.00  0.00    +0.000 A 
ATOM      3  C   UNL     1       3.434  15.960   5.815  0.00  0.00    +0.000 A 
ATOM      4  C   UNL     1       2.354  15.256   5.279  0.00  0.00    +0.000 A 
ATOM      5  C   UNL     1       2.580  14.115   4.513  0.00  0.00    +0.000 A 
ATOM      6  C   UNL     1       3.885  13.694   4.292  0.00  0.00    +0.000 A 
ENDROOT
BRANCH   1   8
ATOM      7  C   UNL     1       7.018  14.595   3.615  0.00  0.00    +0.000 C 
ATOM      8  O   UNL     1       6.207  13.852   4.517  0.00  0.00    +0.000 OA
ENDBRANCH   1   8
BRANCH   6   9
ATOM      9  O   UNL     1       4.083  12.570   3.536  0.00  0.00    +0.000 OA
ATOM     10  H   UNL     1       3.264  12.049   3.646  0.00  0.00    +0.000 HD
ENDBRANCH   6   9
TORSDOF 2
ENDMDL
MODEL 8
REMARK VINA RESULT:    -4.045      5.564      6.669
REMARK INTER + INTRA:          -4.453
REMARK INTER:                  -4.400
REMARK INTRA:                  -0.053
REMARK UNBOUND:                -0.053
REMARK  Name = 
REMARK  3 active torsions:
REMARK  status: ('A' for Active; 'I' for Inactive)
REMARK    1  A    between atoms: C_1  and  O_2
REMARK    2  A    between atoms: O_2  and  C_3
REMARK    3  A    between atoms: C_8  and  O_9
REMARK                            x       y       z     vdW  Elec       q    Type
REMARK                         _______ _______ _______ _____ _____    ______ ____
ROOT
ATOM      1  C   UNL     1       4.239  15.784   6.110  0.00  0.00    +0.000 A 
ATOM      2  C   UNL     1       4.475  15.016   4.970  0.00  0.00    +0.000 A 
ATOM      3  C   UNL     1       3.424  14.309   4.373  0.00  0.00    +0.000 A 
ATOM      4  C   UNL     1       2.137  14.365   4.911  0.00  0.00    +0.000 A 
ATOM      5  C   UNL     1       1.893  15.130   6.049  0.00  0.00    +0.000 A 
ATOM      6  C   UNL     1       2.941  15.828   6.635  0.00  0.00    +0.000 A 
ENDROOT
BRANCH   1   8
ATOM      7  C   UNL     1       5.709  17.650   6.118  0.00  0.00    +0.000 C 
ATOM      8  O   UNL     1       5.168  16.523   6.797  0.00  0.00    +0.000 OA
ENDBRANCH   1   8
BRANCH   6   9
ATOM      9  O   UNL     1       2.677  16.573   7.753  0.00  0.00    +0.000 OA
ATOM     10  H   UNL     1       2.039  16.038   8.263  0.00  0.00    +0.000 HD
ENDBRANCH   6   9
TORSDOF 2
ENDMDL
MODEL 9
REMARK VINA RESULT:    -3.964      4.346      5.416
REMARK INTER + INTRA:          -4.364
REMARK INTER:                  -4.318
REMARK INTRA:                  -0.045
REMARK UNBOUND:                -0.053
REMARK  Name = 
REMARK  3 active torsions:
REMARK  status: ('A' for Active; 'I' for Inactive)
REMARK    1  A    between atoms: C_1  and  O_2
REMARK    2  A    between atoms: O_2  and  C_3
REMARK    3  A    between atoms: C_8  and  O_9
REMARK                            x       y       z     vdW  Elec       q    Type
REMARK                         _______ _______ _______ _____ _____    ______ ____
ROOT
ATOM      1  C   UNL     1       4.444  13.430   5.958  0.00  0.00    +0.000 A 
ATOM      2  C   UNL     1       3.926  14.345   6.873  0.00  0.00    +0.000 A 
ATOM      3  C   UNL     1       2.825  15.138   6.523  0.00  0.00    +0.000 A 
ATOM      4  C   UNL     1       2.241  15.020   5.260  0.00  0.00    +0.000 A 
ATOM      5  C   UNL     1       2.753  14.107   4.340  0.00  0.00    +0.000 A 
ATOM      6  C   UNL     1       3.845  13.325   4.696  0.00  0.00    +0.000 A 
ENDROOT
BRANCH   1   8
ATOM      7  C   UNL     1       5.576  11.944   7.427  0.00  0.00    +0.000 C 
ATOM      8  O   UNL     1       5.512  12.594   6.163  0.00  0.00    +0.000 OA
ENDBRANCH   1   8
BRANCH   6   9
ATOM      9  O   UNL     1       4.330  12.436   3.775  0.00  0.00    +0.000 OA
ATOM     10  H   UNL     1       5.047  12.917   3.319  0.00  0.00    +0.000 HD
ENDBRANCH   6   9
TORSDOF 2
ENDMDL
