MODEL 1
REMARK VINA RESULT:    -5.462      0.000      0.000
REMARK INTER + INTRA:          -8.126
REMARK INTER:                  -7.378
REMARK INTRA:                  -0.748
REMARK UNBOUND:                -0.748
REMARK  Name = 
REMARK  10 active torsions:
REMARK  status: ('A' for Active; 'I' for Inactive)
REMARK    1  A    between atoms: C_1  and  C_2
REMARK    2  A    between atoms: C_5  and  N_8
REMARK    3  A    between atoms: N_8  and  C_9
REMARK    4  A    between atoms: N_8  and  C_13
REMARK    5  A    between atoms: C_9  and  C_10
REMARK    6  A    between atoms: C_10  and  C_11
REMARK    7  A    between atoms: C_10  and  O_12
REMARK    8  A    between atoms: C_13  and  C_14
REMARK    9  A    between atoms: C_14  and  C_15
REMARK   10  A    between atoms: C_14  and  O_16
REMARK                            x       y       z     vdW  Elec       q    Type
REMARK                         _______ _______ _______ _____ _____    ______ ____
ROOT
ATOM      1  N   UNL     1       5.145  13.985   5.706  0.00  0.00    +0.000 N 
ENDROOT
BRANCH   1   6
ATOM      2  C   UNL     1       6.770  12.739   0.308  0.00  0.00    +0.000 C 
ATOM      3  C   UNL     1       6.364  13.045   1.718  0.00  0.00    +0.000 A 
ATOM      4  C   UNL     1       5.273  12.409   2.301  0.00  0.00    +0.000 A 
ATOM      5  C   UNL     1       4.879  12.722   3.612  0.00  0.00    +0.000 A 
ATOM      6  C   UNL     1       5.532  13.692   4.392  0.00  0.00    +0.000 A 
ATOM      7  C   UNL     1       6.632  14.313   3.772  0.00  0.00    +0.000 A 
ATOM      8  C   UNL     1       7.038  14.009   2.462  0.00  0.00    +0.000 A 
ENDBRANCH   1   6
BRANCH   1   9
ATOM      9  C   UNL     1       4.383  15.223   5.998  0.00  0.00    +0.000 C 
BRANCH   9  10
ATOM     10  C   UNL     1       2.852  14.990   6.031  0.00  0.00    +0.000 C 
ATOM     11  C   UNL     1       2.249  15.133   4.639  0.00  0.00    +0.000 C 
BRANCH  10  12
ATOM     12  O   UNL     1       2.541  13.677   6.518  0.00  0.00    +0.000 OA
ATOM     13  H   UNL     1       1.873  13.289   5.929  0.00  0.00    +0.000 HD
ENDBRANCH  10  12
ENDBRANCH   9  10
ENDBRANCH   1   9
BRANCH   1  14
ATOM     14  C   UNL     1       5.872  13.411   6.868  0.00  0.00    +0.000 C 
BRANCH  14  15
ATOM     15  C   UNL     1       5.528  11.918   7.091  0.00  0.00    +0.000 C 
ATOM     16  C   UNL     1       6.507  11.211   8.021  0.00  0.00    +0.000 C 
BRANCH  15  17
ATOM     17  O   UNL     1       4.215  11.754   7.624  0.00  0.00    +0.000 OA
ATOM     18  H   UNL     1       4.338  11.230   8.442  0.00  0.00    +0.000 HD
ENDBRANCH  15  17
ENDBRANCH  14  15
ENDBRANCH   1  14
TORSDOF 7
ENDMDL
MODEL 2
REMARK VINA RESULT:    -5.410      1.318      3.407
REMARK INTER + INTRA:          -8.056
REMARK INTER:                  -7.559
REMARK INTRA:                  -0.496
REMARK UNBOUND:                -0.748
REMARK  Name = 
REMARK  10 active torsions:
REMARK  status: ('A' for Active; 'I' for Inactive)
REMARK    1  A    between atoms: C_1  and  C_2
REMARK    2  A    between atoms: C_5  and  N_8
REMARK    3  A    between atoms: N_8  and  C_9
REMARK    4  A    between atoms: N_8  and  C_13
REMARK    5  A    between atoms: C_9  and  C_10
REMARK    6  A    between atoms: C_10  and  C_11
REMARK    7  A    between atoms: C_10  and  O_12
REMARK    8  A    between atoms: C_13  and  C_14
REMARK    9  A    between atoms: C_14  and  C_15
REMARK   10  A    between atoms: C_14  and  O_16
REMARK                            x       y       z     vdW  Elec       q    Type
REMARK                         _______ _______ _______ _____ _____    ______ ____
ROOT
ATOM      1  N   UNL     1       4.374  13.457   4.490  0.00  0.00    +0.000 N 
ENDROOT
BRANCH   1   6
ATOM      2  C   UNL     1       7.901  12.698  -0.017  0.00  0.00    +0.000 C 
ATOM      3  C   UNL     1       6.971  12.911   1.139  0.00  0.00    +0.000 A 
ATOM      4  C   UNL     1       7.205  13.919   2.067  0.00  0.00    +0.000 A 
ATOM      5  C   UNL     1       6.347  14.094   3.166  0.00  0.00    +0.000 A 
ATOM      6  C   UNL     1       5.237  13.265   3.404  0.00  0.00    +0.000 A 
ATOM      7  C   UNL     1       5.030  12.257   2.444  0.00  0.00    +0.000 A 
ATOM      8  C   UNL     1       5.879  12.072   1.340  0.00  0.00    +0.000 A 
ENDBRANCH   1   6
BRANCH   1   9
ATOM      9  C   UNL     1       4.484  12.592   5.689  0.00  0.00    +0.000 C 
BRANCH   9  10
ATOM     10  C   UNL     1       5.780  12.848   6.498  0.00  0.00    +0.000 C 
ATOM     11  C   UNL     1       5.513  13.781   7.673  0.00  0.00    +0.000 C 
BRANCH  10  12
ATOM     12  O   UNL     1       6.314  11.622   7.016  0.00  0.00    +0.000 OA
ATOM     13  H   UNL     1       5.751  10.893   6.706  0.00  0.00    +0.000 HD
ENDBRANCH  10  12
ENDBRANCH   9  10
ENDBRANCH   1   9
BRANCH   1  14
ATOM     14  C   UNL     1       3.056  14.121   4.318  0.00  0.00    +0.000 C 
BRANCH  14  15
ATOM     15  C   UNL     1       2.375  14.427   5.673  0.00  0.00    +0.000 C 
ATOM     16  C   UNL     1       2.624  15.849   6.162  0.00  0.00    +0.000 C 
BRANCH  15  17
ATOM     17  O   UNL     1       0.964  14.222   5.612  0.00  0.00    +0.000 OA
ATOM     18  H   UNL     1       0.692  14.059   6.538  0.00  0.00    +0.000 HD
ENDBRANCH  15  17
ENDBRANCH  14  15
ENDBRANCH   1  14
TORSDOF 7
ENDMDL
MODEL 3
REMARK VINA RESULT:    -5.351      1.450      3.137
REMARK INTER + INTRA:          -7.976
REMARK INTER:                  -7.452
REMARK INTRA:                  -0.523
REMARK UNBOUND:                -0.748
REMARK  Name = 
REMARK  10 active torsions:
REMARK  status: ('A' for Active; 'I' for Inactive)
REMARK    1  A    between atoms: C_1  and  C_2
REMARK    2  A    between atoms: C_5  and  N_8
REMARK    3  A    between atoms: N_8  and  C_9
REMARK    4  A    between atoms: N_8  and  C_13
REMARK    5  A    between atoms: C_9  and  C_10
REMARK    6  A    between atoms: C_10  and  C_11
REMARK    7  A    between atoms: C_10  and  O_12
REMARK    8  A    between atoms: C_13  and  C_14
REMARK    9  A    between atoms: C_14  and  C_15
REMARK   10  A    between atoms: C_14  and  O_16
REMARK                            x       y       z     vdW  Elec       q    Type
REMARK                         _______ _______ _______ _____ _____    ______ ____
ROOT
ATOM      1  N   UNL     1       4.358  13.644   4.773  0.00  0.00    +0.000 N 
ENDROOT
BRANCH   1   6
ATOM      2  C   UNL     1       7.643  12.740   0.112  0.00  0.00    +0.000 C 
ATOM      3  C   UNL     1       6.806  12.960   1.335  0.00  0.00    +0.000 A 
ATOM      4  C   UNL     1       5.723  12.134   1.618  0.00  0.00    +0.000 A 
ATOM      5  C   UNL     1       4.924  12.363   2.750  0.00  0.00    +0.000 A 
ATOM      6  C   UNL     1       5.148  13.433   3.635  0.00  0.00    +0.000 A 
ATOM      7  C   UNL     1       6.251  14.246   3.319  0.00  0.00    +0.000 A 
ATOM      8  C   UNL     1       7.060  14.027   2.192  0.00  0.00    +0.000 A 
ENDBRANCH   1   6
BRANCH   1   9
ATOM      9  C   UNL     1       4.581  12.832   5.994  0.00  0.00    +0.000 C 
BRANCH   9  10
ATOM     10  C   UNL     1       5.665  13.431   6.923  0.00  0.00    +0.000 C 
ATOM     11  C   UNL     1       7.013  12.757   6.694  0.00  0.00    +0.000 C 
BRANCH  10  12
ATOM     12  O   UNL     1       5.826  14.837   6.687  0.00  0.00    +0.000 OA
ATOM     13  H   UNL     1       6.400  14.948   5.911  0.00  0.00    +0.000 HD
ENDBRANCH  10  12
ENDBRANCH   9  10
ENDBRANCH   1   9
BRANCH   1  14
ATOM     14  C   UNL     1       3.010  14.260   4.670  0.00  0.00    +0.000 C 
BRANCH  14  15
ATOM     15  C   UNL     1       2.364  14.486   6.058  0.00  0.00    +0.000 C 
ATOM     16  C   UNL     1       2.548  15.905   6.581  0.00  0.00    +0.000 C 
BRANCH  15  17
ATOM     17  O   UNL     1       0.966  14.199   6.041  0.00  0.00    +0.000 OA
ATOM     18  H   UNL     1       0.903  13.267   5.749  0.00  0.00    +0.000 HD
ENDBRANCH  15  17
ENDBRANCH  14  15
ENDBRANCH   1  14
TORSDOF 7
ENDMDL
MODEL 4
REMARK VINA RESULT:    -5.327      1.819      3.050
REMARK INTER + INTRA:          -7.943
REMARK INTER:                  -7.382
REMARK INTRA:                  -0.561
REMARK UNBOUND:                -0.748
REMARK  Name = 
REMARK  10 active torsions:
REMARK  status: ('A' for Active; 'I' for Inactive)
REMARK    1  A    between atoms: C_1  and  C_2
REMARK    2  A    between atoms: C_5  and  N_8
REMARK    3  A    between atoms: N_8  and  C_9
REMARK    4  A    between atoms: N_8  and  C_13
REMARK    5  A    between atoms: C_9  and  C_10
REMARK    6  A    between atoms: C_10  and  C_11
REMARK    7  A    between atoms: C_10  and  O_12
REMARK    8  A    between atoms: C_13  and  C_14
REMARK    9  A    between atoms: C_14  and  C_15
REMARK   10  A    between atoms: C_14  and  O_16
REMARK                            x       y       z     vdW  Elec       q    Type
REMARK                         _______ _______ _______ _____ _____    ______ ____
ROOT
ATOM      1  N   UNL     1       5.026  14.392   5.147  0.00  0.00    +0.000 N 
ENDROOT
BRANCH   1   6
ATOM      2  C   UNL     1       6.890  12.175   0.152  0.00  0.00    +0.000 C 
ATOM      3  C   UNL     1       6.420  12.734   1.461  0.00  0.00    +0.000 A 
ATOM      4  C   UNL     1       5.257  12.265   2.061  0.00  0.00    +0.000 A 
ATOM      5  C   UNL     1       4.805  12.813   3.273  0.00  0.00    +0.000 A 
ATOM      6  C   UNL     1       5.472  13.864   3.929  0.00  0.00    +0.000 A 
ATOM      7  C   UNL     1       6.645  14.311   3.294  0.00  0.00    +0.000 A 
ATOM      8  C   UNL     1       7.109  13.771   2.084  0.00  0.00    +0.000 A 
ENDBRANCH   1   6
BRANCH   1   9
ATOM      9  C   UNL     1       5.912  15.276   5.942  0.00  0.00    +0.000 C 
BRANCH   9  10
ATOM     10  C   UNL     1       5.641  16.780   5.692  0.00  0.00    +0.000 C 
ATOM     11  C   UNL     1       5.263  17.488   6.988  0.00  0.00    +0.000 C 
BRANCH  10  12
ATOM     12  O   UNL     1       6.800  17.429   5.152  0.00  0.00    +0.000 OA
ATOM     13  H   UNL     1       6.503  18.070   4.485  0.00  0.00    +0.000 HD
ENDBRANCH  10  12
ENDBRANCH   9  10
ENDBRANCH   1   9
BRANCH   1  14
ATOM     14  C   UNL     1       3.944  13.732   5.921  0.00  0.00    +0.000 C 
BRANCH  14  15
ATOM     15  C   UNL     1       2.675  14.612   6.018  0.00  0.00    +0.000 C 
ATOM     16  C   UNL     1       2.267  15.225   4.683  0.00  0.00    +0.000 C 
BRANCH  15  17
ATOM     17  O   UNL     1       1.562  13.878   6.525  0.00  0.00    +0.000 OA
ATOM     18  H   UNL     1       1.407  13.168   5.870  0.00  0.00    +0.000 HD
ENDBRANCH  15  17
ENDBRANCH  14  15
ENDBRANCH   1  14
TORSDOF 7
ENDMDL
MODEL 5
REMARK VINA RESULT:    -5.320      1.797      3.273
REMARK INTER + INTRA:          -7.934
REMARK INTER:                  -7.410
REMARK INTRA:                  -0.524
REMARK UNBOUND:                -0.748
REMARK  Name = 
REMARK  10 active torsions:
REMARK  status: ('A' for Active; 'I' for Inactive)
REMARK    1  A    between atoms: C_1  and  C_2
REMARK    2  A    between atoms: C_5  and  N_8
REMARK    3  A    between atoms: N_8  and  C_9
REMARK    4  A    between atoms: N_8  and  C_13
REMARK    5  A    between atoms: C_9  and  C_10
REMARK    6  A    between atoms: C_10  and  C_11
REMARK    7  A    between atoms: C_10  and  O_12
REMARK    8  A    between atoms: C_13  and  C_14
REMARK    9  A    between atoms: C_14  and  C_15
REMARK   10  A    between atoms: C_14  and  O_16
REMARK                            x       y       z     vdW  Elec       q    Type
REMARK                         _______ _______ _______ _____ _____    ______ ____
ROOT
ATOM      1  N   UNL     1       4.969  14.373   5.211  0.00  0.00    +0.000 N 
ENDROOT
BRANCH   1   6
ATOM      2  C   UNL     1       6.828  12.175   0.208  0.00  0.00    +0.000 C 
ATOM      3  C   UNL     1       6.330  12.761   1.493  0.00  0.00    +0.000 A 
ATOM      4  C   UNL     1       6.987  13.831   2.092  0.00  0.00    +0.000 A 
ATOM      5  C   UNL     1       6.534  14.357   3.313  0.00  0.00    +0.000 A 
ATOM      6  C   UNL     1       5.427  13.831   4.004  0.00  0.00    +0.000 A 
ATOM      7  C   UNL     1       4.787  12.751   3.369  0.00  0.00    +0.000 A 
ATOM      8  C   UNL     1       5.228  12.217   2.147  0.00  0.00    +0.000 A 
ENDBRANCH   1   6
BRANCH   1   9
ATOM      9  C   UNL     1       5.850  15.258   6.011  0.00  0.00    +0.000 C 
BRANCH   9  10
ATOM     10  C   UNL     1       5.574  16.762   5.763  0.00  0.00    +0.000 C 
ATOM     11  C   UNL     1       5.293  17.487   7.074  0.00  0.00    +0.000 C 
BRANCH  10  12
ATOM     12  O   UNL     1       6.699  17.395   5.137  0.00  0.00    +0.000 OA
ATOM     13  H   UNL     1       7.191  17.879   5.821  0.00  0.00    +0.000 HD
ENDBRANCH  10  12
ENDBRANCH   9  10
ENDBRANCH   1   9
BRANCH   1  14
ATOM     14  C   UNL     1       3.872  13.727   5.977  0.00  0.00    +0.000 C 
BRANCH  14  15
ATOM     15  C   UNL     1       2.591  14.595   6.009  0.00  0.00    +0.000 C 
ATOM     16  C   UNL     1       2.259  15.224   4.661  0.00  0.00    +0.000 C 
BRANCH  15  17
ATOM     17  O   UNL     1       1.456  13.844   6.437  0.00  0.00    +0.000 OA
ATOM     18  H   UNL     1       1.550  13.777   7.409  0.00  0.00    +0.000 HD
ENDBRANCH  15  17
ENDBRANCH  14  15
ENDBRANCH   1  14
TORSDOF 7
ENDMDL
MODEL 6
REMARK VINA RESULT:    -5.204      1.442      1.731
REMARK INTER + INTRA:          -7.777
REMARK INTER:                  -7.229
REMARK INTRA:                  -0.548
REMARK UNBOUND:                -0.748
REMARK  Name = 
REMARK  10 active torsions:
REMARK  status: ('A' for Active; 'I' for Inactive)
REMARK    1  A    between atoms: C_1  and  C_2
REMARK    2  A    between atoms: C_5  and  N_8
REMARK    3  A    between atoms: N_8  and  C_9
REMARK    4  A    between atoms: N_8  and  C_13
REMARK    5  A    between atoms: C_9  and  C_10
REMARK    6  A    between atoms: C_10  and  C_11
REMARK    7  A    between atoms: C_10  and  O_12
REMARK    8  A    between atoms: C_13  and  C_14
REMARK    9  A    between atoms: C_14  and  C_15
REMARK   10  A    between atoms: C_14  and  O_16
REMARK                            x       y       z     vdW  Elec       q    Type
REMARK                         _______ _______ _______ _____ _____    ______ ____
ROOT
ATOM      1  N   UNL     1       4.745  14.528   5.704  0.00  0.00    +0.000 N 
ENDROOT
BRANCH   1   6
ATOM      2  C   UNL     1       6.572  12.651   0.560  0.00  0.00    +0.000 C 
ATOM      3  C   UNL     1       6.115  13.124   1.906  0.00  0.00    +0.000 A 
ATOM      4  C   UNL     1       5.098  12.464   2.587  0.00  0.00    +0.000 A 
ATOM      5  C   UNL     1       4.653  12.930   3.836  0.00  0.00    +0.000 A 
ATOM      6  C   UNL     1       5.180  14.080   4.450  0.00  0.00    +0.000 A 
ATOM      7  C   UNL     1       6.208  14.720   3.734  0.00  0.00    +0.000 A 
ATOM      8  C   UNL     1       6.663  14.264   2.486  0.00  0.00    +0.000 A 
ENDBRANCH   1   6
BRANCH   1   9
ATOM      9  C   UNL     1       3.670  15.545   5.799  0.00  0.00    +0.000 C 
BRANCH   9  10
ATOM     10  C   UNL     1       3.907  16.564   6.940  0.00  0.00    +0.000 C 
ATOM     11  C   UNL     1       4.254  17.938   6.380  0.00  0.00    +0.000 C 
BRANCH  10  12
ATOM     12  O   UNL     1       2.738  16.700   7.760  0.00  0.00    +0.000 OA
ATOM     13  H   UNL     1       3.019  17.012   8.636  0.00  0.00    +0.000 HD
ENDBRANCH  10  12
ENDBRANCH   9  10
ENDBRANCH   1   9
BRANCH   1  14
ATOM     14  C   UNL     1       5.619  14.430   6.901  0.00  0.00    +0.000 C 
BRANCH  14  15
ATOM     15  C   UNL     1       5.498  13.056   7.603  0.00  0.00    +0.000 C 
ATOM     16  C   UNL     1       4.075  12.510   7.610  0.00  0.00    +0.000 C 
BRANCH  15  17
ATOM     17  O   UNL     1       6.344  12.079   6.998  0.00  0.00    +0.000 OA
ATOM     18  H   UNL     1       5.982  11.217   7.288  0.00  0.00    +0.000 HD
ENDBRANCH  15  17
ENDBRANCH  14  15
ENDBRANCH   1  14
TORSDOF 7
ENDMDL
MODEL 7
REMARK VINA RESULT:    -5.180      2.092      2.453
REMARK INTER + INTRA:          -7.745
REMARK INTER:                  -7.013
REMARK INTRA:                  -0.732
REMARK UNBOUND:                -0.748
REMARK  Name = 
REMARK  10 active torsions:
REMARK  status: ('A' for Active; 'I' for Inactive)
REMARK    1  A    between atoms: C_1  and  C_2
REMARK    2  A    between atoms: C_5  and  N_8
REMARK    3  A    between atoms: N_8  and  C_9
REMARK    4  A    between atoms: N_8  and  C_13
REMARK    5  A    between atoms: C_9  and  C_10
REMARK    6  A    between atoms: C_10  and  C_11
REMARK    7  A    between atoms: C_10  and  O_12
REMARK    8  A    between atoms: C_13  and  C_14
REMARK    9  A    between atoms: C_14  and  C_15
REMARK   10  A    between atoms: C_14  and  O_16
REMARK                            x       y       z     vdW  Elec       q    Type
REMARK                         _______ _______ _______ _____ _____    ______ ____
ROOT
ATOM      1  N   UNL     1       5.008  14.701   5.323  0.00  0.00    +0.000 N 
ENDROOT
BRANCH   1   6
ATOM      2  C   UNL     1       6.416  12.172   0.328  0.00  0.00    +0.000 C 
ATOM      3  C   UNL     1       6.068  12.814   1.636  0.00  0.00    +0.000 A 
ATOM      4  C   UNL     1       5.059  12.296   2.440  0.00  0.00    +0.000 A 
ATOM      5  C   UNL     1       4.716  12.919   3.651  0.00  0.00    +0.000 A 
ATOM      6  C   UNL     1       5.341  14.095   4.105  0.00  0.00    +0.000 A 
ATOM      7  C   UNL     1       6.358  14.590   3.268  0.00  0.00    +0.000 A 
ATOM      8  C   UNL     1       6.712  13.975   2.056  0.00  0.00    +0.000 A 
ENDBRANCH   1   6
BRANCH   1   9
ATOM      9  C   UNL     1       3.767  14.307   6.034  0.00  0.00    +0.000 C 
BRANCH   9  10
ATOM     10  C   UNL     1       2.589  15.275   5.765  0.00  0.00    +0.000 C 
ATOM     11  C   UNL     1       1.364  14.517   5.268  0.00  0.00    +0.000 C 
BRANCH  10  12
ATOM     12  O   UNL     1       2.220  15.981   6.958  0.00  0.00    +0.000 OA
ATOM     13  H   UNL     1       3.035  16.233   7.424  0.00  0.00    +0.000 HD
ENDBRANCH  10  12
ENDBRANCH   9  10
ENDBRANCH   1   9
BRANCH   1  14
ATOM     14  C   UNL     1       5.537  16.040   5.686  0.00  0.00    +0.000 C 
BRANCH  14  15
ATOM     15  C   UNL     1       5.837  16.160   7.200  0.00  0.00    +0.000 C 
ATOM     16  C   UNL     1       7.270  16.585   7.496  0.00  0.00    +0.000 C 
BRANCH  15  17
ATOM     17  O   UNL     1       4.960  17.086   7.839  0.00  0.00    +0.000 OA
ATOM     18  H   UNL     1       4.080  16.661   7.812  0.00  0.00    +0.000 HD
ENDBRANCH  15  17
ENDBRANCH  14  15
ENDBRANCH   1  14
TORSDOF 7
ENDMDL
MODEL 8
REMARK VINA RESULT:    -4.965      2.306      4.331
REMARK INTER + INTRA:          -7.454
REMARK INTER:                  -6.688
REMARK INTRA:                  -0.766
REMARK UNBOUND:                -0.748
REMARK  Name = 
REMARK  10 active torsions:
REMARK  status: ('A' for Active; 'I' for Inactive)
REMARK    1  A    between atoms: C_1  and  C_2
REMARK    2  A    between atoms: C_5  and  N_8
REMARK    3  A    between atoms: N_8  and  C_9
REMARK    4  A    between atoms: N_8  and  C_13
REMARK    5  A    between atoms: C_9  and  C_10
REMARK    6  A    between atoms: C_10  and  C_11
REMARK    7  A    between atoms: C_10  and  O_12
REMARK    8  A    between atoms: C_13  and  C_14
REMARK    9  A    between atoms: C_14  and  C_15
REMARK   10  A    between atoms: C_14  and  O_16
REMARK                            x       y       z     vdW  Elec       q    Type
REMARK                         _______ _______ _______ _____ _____    ______ ____
ROOT
ATOM      1  N   UNL     1       5.640  14.322   4.436  0.00  0.00    +0.000 N 
ENDROOT
BRANCH   1   6
ATOM      2  C   UNL     1      10.828  12.855   6.501  0.00  0.00    +0.000 C 
ATOM      3  C   UNL     1       9.479  13.213   5.955  0.00  0.00    +0.000 A 
ATOM      4  C   UNL     1       9.353  13.840   4.720  0.00  0.00    +0.000 A 
ATOM      5  C   UNL     1       8.088  14.201   4.226  0.00  0.00    +0.000 A 
ATOM      6  C   UNL     1       6.899  13.978   4.943  0.00  0.00    +0.000 A 
ATOM      7  C   UNL     1       7.065  13.340   6.187  0.00  0.00    +0.000 A 
ATOM      8  C   UNL     1       8.323  12.973   6.691  0.00  0.00    +0.000 A 
ENDBRANCH   1   6
BRANCH   1   9
ATOM      9  C   UNL     1       5.406  14.336   2.972  0.00  0.00    +0.000 C 
BRANCH   9  10
ATOM     10  C   UNL     1       5.046  12.939   2.409  0.00  0.00    +0.000 C 
ATOM     11  C   UNL     1       6.141  12.428   1.479  0.00  0.00    +0.000 C 
BRANCH  10  12
ATOM     12  O   UNL     1       4.881  11.984   3.467  0.00  0.00    +0.000 OA
ATOM     13  H   UNL     1       4.529  11.165   3.081  0.00  0.00    +0.000 HD
ENDBRANCH  10  12
ENDBRANCH   9  10
ENDBRANCH   1   9
BRANCH   1  14
ATOM     14  C   UNL     1       4.692  15.148   5.227  0.00  0.00    +0.000 C 
BRANCH  14  15
ATOM     15  C   UNL     1       3.429  14.355   5.641  0.00  0.00    +0.000 C 
ATOM     16  C   UNL     1       2.258  14.550   4.685  0.00  0.00    +0.000 C 
BRANCH  15  17
ATOM     17  O   UNL     1       3.693  12.956   5.735  0.00  0.00    +0.000 OA
ATOM     18  H   UNL     1       4.536  12.890   6.229  0.00  0.00    +0.000 HD
ENDBRANCH  15  17
ENDBRANCH  14  15
ENDBRANCH   1  14
TORSDOF 7
ENDMDL
MODEL 9
REMARK VINA RESULT:    -4.850      3.156      4.888
REMARK INTER + INTRA:          -7.299
REMARK INTER:                  -6.828
REMARK INTRA:                  -0.471
REMARK UNBOUND:                -0.748
REMARK  Name = 
REMARK  10 active torsions:
REMARK  status: ('A' for Active; 'I' for Inactive)
REMARK    1  A    between atoms: C_1  and  C_2
REMARK    2  A    between atoms: C_5  and  N_8
REMARK    3  A    between atoms: N_8  and  C_9
REMARK    4  A    between atoms: N_8  and  C_13
REMARK    5  A    between atoms: C_9  and  C_10
REMARK    6  A    between atoms: C_10  and  C_11
REMARK    7  A    between atoms: C_10  and  O_12
REMARK    8  A    between atoms: C_13  and  C_14
REMARK    9  A    between atoms: C_14  and  C_15
REMARK   10  A    between atoms: C_14  and  O_16
REMARK                            x       y       z     vdW  Elec       q    Type
REMARK                         _______ _______ _______ _____ _____    ______ ____
ROOT
ATOM      1  N   UNL     1       6.263  14.338   3.298  0.00  0.00    +0.000 N 
ENDROOT
BRANCH   1   6
ATOM      2  C   UNL     1      11.085  15.537   6.238  0.00  0.00    +0.000 C 
ATOM      3  C   UNL     1       9.843  15.236   5.455  0.00  0.00    +0.000 A 
ATOM      4  C   UNL     1       8.771  16.122   5.448  0.00  0.00    +0.000 A 
ATOM      5  C   UNL     1       7.598  15.822   4.736  0.00  0.00    +0.000 A 
ATOM      6  C   UNL     1       7.428  14.622   4.022  0.00  0.00    +0.000 A 
ATOM      7  C   UNL     1       8.533  13.751   4.049  0.00  0.00    +0.000 A 
ATOM      8  C   UNL     1       9.712  14.041   4.755  0.00  0.00    +0.000 A 
ENDBRANCH   1   6
BRANCH   1   9
ATOM      9  C   UNL     1       6.249  14.486   1.823  0.00  0.00    +0.000 C 
BRANCH   9  10
ATOM     10  C   UNL     1       6.776  13.229   1.089  0.00  0.00    +0.000 C 
ATOM     11  C   UNL     1       5.704  12.148   1.021  0.00  0.00    +0.000 C 
BRANCH  10  12
ATOM     12  O   UNL     1       7.174  13.545  -0.253  0.00  0.00    +0.000 OA
ATOM     13  H   UNL     1       7.569  14.433  -0.249  0.00  0.00    +0.000 HD
ENDBRANCH  10  12
ENDBRANCH   9  10
ENDBRANCH   1   9
BRANCH   1  14
ATOM     14  C   UNL     1       4.926  14.388   3.943  0.00  0.00    +0.000 C 
BRANCH  14  15
ATOM     15  C   UNL     1       4.486  13.006   4.484  0.00  0.00    +0.000 C 
ATOM     16  C   UNL     1       4.905  12.767   5.929  0.00  0.00    +0.000 C 
BRANCH  15  17
ATOM     17  O   UNL     1       3.072  12.832   4.399  0.00  0.00    +0.000 OA
ATOM     18  H   UNL     1       2.725  13.711   4.145  0.00  0.00    +0.000 HD
ENDBRANCH  15  17
ENDBRANCH  14  15
ENDBRANCH   1  14
TORSDOF 7
ENDMDL
