MODEL 1
REMARK VINA RESULT:    -4.413      0.000      0.000
REMARK INTER + INTRA:          -4.851
REMARK INTER:                  -4.800
REMARK INTRA:                  -0.051
REMARK UNBOUND:                -0.051
REMARK  Name = 
REMARK  3 active torsions:
REMARK  status: ('A' for Active; 'I' for Inactive)
REMARK    1  A    between atoms: C_1  and  O_2
REMARK    2  A    between atoms: O_2  and  C_3
REMARK    3  A    between atoms: C_8  and  O_9
REMARK                            x       y       z     vdW  Elec       q    Type
REMARK                         _______ _______ _______ _____ _____    ______ ____
ROOT
ATOM      1  C   UNL     1       1.587  13.190  -0.287  0.00  0.00    +0.000 A 
ATOM      2  C   UNL     1       0.664  13.462   0.722  0.00  0.00    +0.000 A 
ATOM      3  C   UNL     1      -0.028  14.679   0.727  0.00  0.00    +0.000 A 
ATOM      4  C   UNL     1       0.199  15.627  -0.272  0.00  0.00    +0.000 A 
ATOM      5  C   UNL     1       1.120  15.363  -1.284  0.00  0.00    +0.000 A 
ATOM      6  C   UNL     1       1.802  14.153  -1.281  0.00  0.00    +0.000 A 
ENDROOT
BRANCH   1   8
ATOM      7  C   UNL     1       1.628  10.866  -0.784  0.00  0.00    +0.000 C 
ATOM      8  O   UNL     1       2.333  12.046  -0.417  0.00  0.00    +0.000 OA
ENDBRANCH   1   8
BRANCH   6   9
ATOM      9  O   UNL     1       2.701  13.916  -2.286  0.00  0.00    +0.000 OA
ATOM     10  H   UNL     1       2.539  14.625  -2.937  0.00  0.00    +0.000 HD
ENDBRANCH   6   9
TORSDOF 2
ENDMDL
MODEL 2
REMARK VINA RESULT:    -4.088      9.652     11.088
REMARK INTER + INTRA:          -4.497
REMARK INTER:                  -4.446
REMARK INTRA:                  -0.052
REMARK UNBOUND:                -0.051
REMARK  Name = 
REMARK  3 active torsions:
REMARK  status: ('A' for Active; 'I' for Inactive)
REMARK    1  A    between atoms: C_1  and  O_2
REMARK    2  A    between atoms: O_2  and  C_3
REMARK    3  A    between atoms: C_8  and  O_9
REMARK                            x       y       z     vdW  Elec       q    Type
REMARK                         _______ _______ _______ _____ _____    ______ ____
ROOT
ATOM      1  C   UNL     1       1.580  17.520  -9.992  0.00  0.00    +0.000 A 
ATOM      2  C   UNL     1       1.419  16.675 -11.088  0.00  0.00    +0.000 A 
ATOM      3  C   UNL     1       2.160  16.895 -12.256  0.00  0.00    +0.000 A 
ATOM      4  C   UNL     1       3.061  17.958 -12.332  0.00  0.00    +0.000 A 
ATOM      5  C   UNL     1       3.228  18.807 -11.241  0.00  0.00    +0.000 A 
ATOM      6  C   UNL     1       2.488  18.582 -10.087  0.00  0.00    +0.000 A 
ENDROOT
BRANCH   1   8
ATOM      7  C   UNL     1      -0.465  17.736  -8.800  0.00  0.00    +0.000 C 
ATOM      8  O   UNL     1       0.923  17.425  -8.791  0.00  0.00    +0.000 OA
ENDBRANCH   1   8
BRANCH   6   9
ATOM      9  O   UNL     1       2.669  19.430  -9.027  0.00  0.00    +0.000 OA
ATOM     10  H   UNL     1       3.562  19.221  -8.691  0.00  0.00    +0.000 HD
ENDBRANCH   6   9
TORSDOF 2
ENDMDL
MODEL 3
REMARK VINA RESULT:    -4.087      8.726      9.201
REMARK INTER + INTRA:          -4.497
REMARK INTER:                  -4.460
REMARK INTRA:                  -0.037
REMARK UNBOUND:                -0.051
REMARK  Name = 
REMARK  3 active torsions:
REMARK  status: ('A' for Active; 'I' for Inactive)
REMARK    1  A    between atoms: C_1  and  O_2
REMARK    2  A    between atoms: O_2  and  C_3
REMARK    3  A    between atoms: C_8  and  O_9
REMARK                            x       y       z     vdW  Elec       q    Type
REMARK                         _______ _______ _______ _____ _____    ______ ____
ROOT
ATOM      1  C   UNL     1      -1.020  18.191  -7.540  0.00  0.00    +0.000 A 
ATOM      2  C   UNL     1       0.085  17.887  -8.333  0.00  0.00    +0.000 A 
ATOM      3  C   UNL     1       1.273  18.614  -8.186  0.00  0.00    +0.000 A 
ATOM      4  C   UNL     1       1.360  19.645  -7.250  0.00  0.00    +0.000 A 
ATOM      5  C   UNL     1       0.260  19.955  -6.453  0.00  0.00    +0.000 A 
ATOM      6  C   UNL     1      -0.914  19.229  -6.606  0.00  0.00    +0.000 A 
ENDROOT
BRANCH   1   8
ATOM      7  C   UNL     1      -3.096  17.906  -8.662  0.00  0.00    +0.000 C 
ATOM      8  O   UNL     1      -2.241  17.566  -7.576  0.00  0.00    +0.000 OA
ENDBRANCH   1   8
BRANCH   6   9
ATOM      9  O   UNL     1      -1.982  19.552  -5.813  0.00  0.00    +0.000 OA
ATOM     10  H   UNL     1      -1.802  19.110  -4.961  0.00  0.00    +0.000 HD
ENDBRANCH   6   9
TORSDOF 2
ENDMDL
MODEL 4
REMARK VINA RESULT:    -4.057      8.406      8.949
REMARK INTER + INTRA:          -4.464
REMARK INTER:                  -4.421
REMARK INTRA:                  -0.043
REMARK UNBOUND:                -0.051
REMARK  Name = 
REMARK  3 active torsions:
REMARK  status: ('A' for Active; 'I' for Inactive)
REMARK    1  A    between atoms: C_1  and  O_2
REMARK    2  A    between atoms: O_2  and  C_3
REMARK    3  A    between atoms: C_8  and  O_9
REMARK                            x       y       z     vdW  Elec       q    Type
REMARK                         _______ _______ _______ _____ _____    ______ ____
ROOT
ATOM      1  C   UNL     1       0.438  17.804  -8.363  0.00  0.00    +0.000 A 
ATOM      2  C   UNL     1      -0.921  17.521  -8.498  0.00  0.00    +0.000 A 
ATOM      3  C   UNL     1      -1.846  18.102  -7.622  0.00  0.00    +0.000 A 
ATOM      4  C   UNL     1      -1.419  18.965  -6.611  0.00  0.00    +0.000 A 
ATOM      5  C   UNL     1      -0.063  19.253  -6.471  0.00  0.00    +0.000 A 
ATOM      6  C   UNL     1       0.848  18.672  -7.343  0.00  0.00    +0.000 A 
ENDROOT
BRANCH   1   8
ATOM      7  C   UNL     1       1.156  17.125 -10.524  0.00  0.00    +0.000 C 
ATOM      8  O   UNL     1       1.451  17.309  -9.145  0.00  0.00    +0.000 OA
ENDBRANCH   1   8
BRANCH   6   9
ATOM      9  O   UNL     1       2.175  18.970  -7.186  0.00  0.00    +0.000 OA
ATOM     10  H   UNL     1       2.557  18.884  -8.080  0.00  0.00    +0.000 HD
ENDBRANCH   6   9
TORSDOF 2
ENDMDL
MODEL 5
REMARK VINA RESULT:    -3.947     11.137     12.135
REMARK INTER + INTRA:          -4.344
REMARK INTER:                  -4.304
REMARK INTRA:                  -0.040
REMARK UNBOUND:                -0.051
REMARK  Name = 
REMARK  3 active torsions:
REMARK  status: ('A' for Active; 'I' for Inactive)
REMARK    1  A    between atoms: C_1  and  O_2
REMARK    2  A    between atoms: O_2  and  C_3
REMARK    3  A    between atoms: C_8  and  O_9
REMARK                            x       y       z     vdW  Elec       q    Type
REMARK                         _______ _______ _______ _____ _____    ______ ____
ROOT
ATOM      1  C   UNL     1       1.995  16.946 -12.086  0.00  0.00    +0.000 A 
ATOM      2  C   UNL     1       1.611  17.222 -10.775  0.00  0.00    +0.000 A 
ATOM      3  C   UNL     1       2.232  18.259 -10.067  0.00  0.00    +0.000 A 
ATOM      4  C   UNL     1       3.236  19.021 -10.666  0.00  0.00    +0.000 A 
ATOM      5  C   UNL     1       3.625  18.752 -11.976  0.00  0.00    +0.000 A 
ATOM      6  C   UNL     1       3.004  17.722 -12.670  0.00  0.00    +0.000 A 
ENDROOT
BRANCH   1   8
ATOM      7  C   UNL     1       0.141  15.557 -12.620  0.00  0.00    +0.000 C 
ATOM      8  O   UNL     1       1.476  15.966 -12.894  0.00  0.00    +0.000 OA
ENDBRANCH   1   8
BRANCH   6   9
ATOM      9  O   UNL     1       3.403  17.476 -13.957  0.00  0.00    +0.000 OA
ATOM     10  H   UNL     1       2.661  17.785 -14.511  0.00  0.00    +0.000 HD
ENDBRANCH   6   9
TORSDOF 2
ENDMDL
MODEL 6
REMARK VINA RESULT:    -3.919      9.955     11.386
REMARK INTER + INTRA:          -4.314
REMARK INTER:                  -4.262
REMARK INTRA:                  -0.052
REMARK UNBOUND:                -0.051
REMARK  Name = 
REMARK  3 active torsions:
REMARK  status: ('A' for Active; 'I' for Inactive)
REMARK    1  A    between atoms: C_1  and  O_2
REMARK    2  A    between atoms: O_2  and  C_3
REMARK    3  A    between atoms: C_8  and  O_9
REMARK                            x       y       z     vdW  Elec       q    Type
REMARK                         _______ _______ _______ _____ _____    ______ ____
ROOT
ATOM      1  C   UNL     1       2.077  17.725 -10.195  0.00  0.00    +0.000 A 
ATOM      2  C   UNL     1       2.772  18.925 -10.051  0.00  0.00    +0.000 A 
ATOM      3  C   UNL     1       3.514  19.437 -11.123  0.00  0.00    +0.000 A 
ATOM      4  C   UNL     1       3.564  18.754 -12.339  0.00  0.00    +0.000 A 
ATOM      5  C   UNL     1       2.872  17.555 -12.491  0.00  0.00    +0.000 A 
ATOM      6  C   UNL     1       2.139  17.054 -11.422  0.00  0.00    +0.000 A 
ENDROOT
BRANCH   1   8
ATOM      7  C   UNL     1       0.219  17.855  -8.720  0.00  0.00    +0.000 C 
ATOM      8  O   UNL     1       1.315  17.109  -9.235  0.00  0.00    +0.000 OA
ENDBRANCH   1   8
BRANCH   6   9
ATOM      9  O   UNL     1       1.467  15.874 -11.596  0.00  0.00    +0.000 OA
ATOM     10  H   UNL     1       0.739  15.905 -10.947  0.00  0.00    +0.000 HD
ENDBRANCH   6   9
TORSDOF 2
ENDMDL
MODEL 7
REMARK VINA RESULT:    -3.892     10.730     12.332
REMARK INTER + INTRA:          -4.285
REMARK INTER:                  -4.240
REMARK INTRA:                  -0.045
REMARK UNBOUND:                -0.051
REMARK  Name = 
REMARK  3 active torsions:
REMARK  status: ('A' for Active; 'I' for Inactive)
REMARK    1  A    between atoms: C_1  and  O_2
REMARK    2  A    between atoms: O_2  and  C_3
REMARK    3  A    between atoms: C_8  and  O_9
REMARK                            x       y       z     vdW  Elec       q    Type
REMARK                         _______ _______ _______ _____ _____    ______ ____
ROOT
ATOM      1  C   UNL     1       2.974  18.880 -11.641  0.00  0.00    +0.000 A 
ATOM      2  C   UNL     1       2.622  17.933 -12.601  0.00  0.00    +0.000 A 
ATOM      3  C   UNL     1       1.884  16.802 -12.229  0.00  0.00    +0.000 A 
ATOM      4  C   UNL     1       1.498  16.613 -10.901  0.00  0.00    +0.000 A 
ATOM      5  C   UNL     1       1.846  17.556  -9.936  0.00  0.00    +0.000 A 
ATOM      6  C   UNL     1       2.578  18.675 -10.314  0.00  0.00    +0.000 A 
ENDROOT
BRANCH   1   8
ATOM      7  C   UNL     1       3.385  20.751 -13.047  0.00  0.00    +0.000 C 
ATOM      8  O   UNL     1       3.692  20.029 -11.861  0.00  0.00    +0.000 OA
ENDBRANCH   1   8
BRANCH   6   9
ATOM      9  O   UNL     1       2.909  19.587  -9.348  0.00  0.00    +0.000 OA
ATOM     10  H   UNL     1       2.963  20.440  -9.820  0.00  0.00    +0.000 HD
ENDBRANCH   6   9
TORSDOF 2
ENDMDL
MODEL 8
REMARK VINA RESULT:    -3.819     11.755     13.020
REMARK INTER + INTRA:          -4.205
REMARK INTER:                  -4.156
REMARK INTRA:                  -0.049
REMARK UNBOUND:                -0.051
REMARK  Name = 
REMARK  3 active torsions:
REMARK  status: ('A' for Active; 'I' for Inactive)
REMARK    1  A    between atoms: C_1  and  O_2
REMARK    2  A    between atoms: O_2  and  C_3
REMARK    3  A    between atoms: C_8  and  O_9
REMARK                            x       y       z     vdW  Elec       q    Type
REMARK                         _______ _______ _______ _____ _____    ______ ____
ROOT
ATOM      1  C   UNL     1       2.943  17.793 -12.184  0.00  0.00    +0.000 A 
ATOM      2  C   UNL     1       2.119  16.893 -11.509  0.00  0.00    +0.000 A 
ATOM      3  C   UNL     1       1.162  16.155 -12.215  0.00  0.00    +0.000 A 
ATOM      4  C   UNL     1       1.023  16.313 -13.595  0.00  0.00    +0.000 A 
ATOM      5  C   UNL     1       1.842  17.210 -14.278  0.00  0.00    +0.000 A 
ATOM      6  C   UNL     1       2.789  17.938 -13.569  0.00  0.00    +0.000 A 
ENDROOT
BRANCH   1   8
ATOM      7  C   UNL     1       3.536  19.353 -10.493  0.00  0.00    +0.000 C 
ATOM      8  O   UNL     1       3.918  18.579 -11.624  0.00  0.00    +0.000 OA
ENDBRANCH   1   8
BRANCH   6   9
ATOM      9  O   UNL     1       3.582  18.813 -14.261  0.00  0.00    +0.000 OA
ATOM     10  H   UNL     1       4.286  19.062 -13.632  0.00  0.00    +0.000 HD
ENDBRANCH   6   9
TORSDOF 2
ENDMDL
MODEL 9
REMARK VINA RESULT:    -3.770     12.236     13.485
REMARK INTER + INTRA:          -4.151
REMARK INTER:                  -4.104
REMARK INTRA:                  -0.048
REMARK UNBOUND:                -0.051
REMARK  Name = 
REMARK  3 active torsions:
REMARK  status: ('A' for Active; 'I' for Inactive)
REMARK    1  A    between atoms: C_1  and  O_2
REMARK    2  A    between atoms: O_2  and  C_3
REMARK    3  A    between atoms: C_8  and  O_9
REMARK                            x       y       z     vdW  Elec       q    Type
REMARK                         _______ _______ _______ _____ _____    ______ ____
ROOT
ATOM      1  C   UNL     1       2.501  17.802 -13.572  0.00  0.00    +0.000 A 
ATOM      2  C   UNL     1       1.846  16.946 -12.687  0.00  0.00    +0.000 A 
ATOM      3  C   UNL     1       1.930  17.169 -11.307  0.00  0.00    +0.000 A 
ATOM      4  C   UNL     1       2.666  18.245 -10.808  0.00  0.00    +0.000 A 
ATOM      5  C   UNL     1       3.322  19.105 -11.685  0.00  0.00    +0.000 A 
ATOM      6  C   UNL     1       3.234  18.875 -13.053  0.00  0.00    +0.000 A 
ENDROOT
BRANCH   1   8
ATOM      7  C   UNL     1       1.243  17.518 -15.569  0.00  0.00    +0.000 C 
ATOM      8  O   UNL     1       2.506  17.703 -14.941  0.00  0.00    +0.000 OA
ENDBRANCH   1   8
BRANCH   6   9
ATOM      9  O   UNL     1       3.887  19.734 -13.896  0.00  0.00    +0.000 OA
ATOM     10  H   UNL     1       4.800  19.392 -13.940  0.00  0.00    +0.000 HD
ENDBRANCH   6   9
TORSDOF 2
ENDMDL
