MODEL 1
REMARK VINA RESULT:    -5.471      0.000      0.000
REMARK INTER + INTRA:          -8.138
REMARK INTER:                  -7.390
REMARK INTRA:                  -0.748
REMARK UNBOUND:                -0.748
REMARK  Name = 
REMARK  10 active torsions:
REMARK  status: ('A' for Active; 'I' for Inactive)
REMARK    1  A    between atoms: C_1  and  C_2
REMARK    2  A    between atoms: C_5  and  N_8
REMARK    3  A    between atoms: N_8  and  C_9
REMARK    4  A    between atoms: N_8  and  C_13
REMARK    5  A    between atoms: C_9  and  C_10
REMARK    6  A    between atoms: C_10  and  C_11
REMARK    7  A    between atoms: C_10  and  O_12
REMARK    8  A    between atoms: C_13  and  C_14
REMARK    9  A    between atoms: C_14  and  C_15
REMARK   10  A    between atoms: C_14  and  O_16
REMARK                            x       y       z     vdW  Elec       q    Type
REMARK                         _______ _______ _______ _____ _____    ______ ____
ROOT
ATOM      1  N   UNL     1       5.134  13.978   5.712  0.00  0.00    +0.000 N 
ENDROOT
BRANCH   1   6
ATOM      2  C   UNL     1       6.719  12.691   0.312  0.00  0.00    +0.000 C 
ATOM      3  C   UNL     1       6.323  13.008   1.722  0.00  0.00    +0.000 A 
ATOM      4  C   UNL     1       5.234  12.380   2.316  0.00  0.00    +0.000 A 
ATOM      5  C   UNL     1       4.849  12.702   3.627  0.00  0.00    +0.000 A 
ATOM      6  C   UNL     1       5.511  13.675   4.397  0.00  0.00    +0.000 A 
ATOM      7  C   UNL     1       6.609  14.288   3.766  0.00  0.00    +0.000 A 
ATOM      8  C   UNL     1       7.006  13.974   2.456  0.00  0.00    +0.000 A 
ENDBRANCH   1   6
BRANCH   1   9
ATOM      9  C   UNL     1       4.380  15.221   6.002  0.00  0.00    +0.000 C 
BRANCH   9  10
ATOM     10  C   UNL     1       2.849  14.999   6.042  0.00  0.00    +0.000 C 
ATOM     11  C   UNL     1       2.241  15.134   4.651  0.00  0.00    +0.000 C 
BRANCH  10  12
ATOM     12  O   UNL     1       2.531  13.692   6.540  0.00  0.00    +0.000 OA
ATOM     13  H   UNL     1       1.569  13.572   6.480  0.00  0.00    +0.000 HD
ENDBRANCH  10  12
ENDBRANCH   9  10
ENDBRANCH   1   9
BRANCH   1  14
ATOM     14  C   UNL     1       5.864  13.406   6.872  0.00  0.00    +0.000 C 
BRANCH  14  15
ATOM     15  C   UNL     1       5.521  11.914   7.100  0.00  0.00    +0.000 C 
ATOM     16  C   UNL     1       6.500  11.209   8.032  0.00  0.00    +0.000 C 
BRANCH  15  17
ATOM     17  O   UNL     1       4.208  11.750   7.634  0.00  0.00    +0.000 OA
ATOM     18  H   UNL     1       3.609  12.098   6.943  0.00  0.00    +0.000 HD
ENDBRANCH  15  17
ENDBRANCH  14  15
ENDBRANCH   1  14
TORSDOF 7
ENDMDL
MODEL 2
REMARK VINA RESULT:    -5.405      1.323      3.417
REMARK INTER + INTRA:          -8.048
REMARK INTER:                  -7.555
REMARK INTRA:                  -0.494
REMARK UNBOUND:                -0.748
REMARK  Name = 
REMARK  10 active torsions:
REMARK  status: ('A' for Active; 'I' for Inactive)
REMARK    1  A    between atoms: C_1  and  C_2
REMARK    2  A    between atoms: C_5  and  N_8
REMARK    3  A    between atoms: N_8  and  C_9
REMARK    4  A    between atoms: N_8  and  C_13
REMARK    5  A    between atoms: C_9  and  C_10
REMARK    6  A    between atoms: C_10  and  C_11
REMARK    7  A    between atoms: C_10  and  O_12
REMARK    8  A    between atoms: C_13  and  C_14
REMARK    9  A    between atoms: C_14  and  C_15
REMARK   10  A    between atoms: C_14  and  O_16
REMARK                            x       y       z     vdW  Elec       q    Type
REMARK                         _______ _______ _______ _____ _____    ______ ____
ROOT
ATOM      1  N   UNL     1       4.357  13.429   4.488  0.00  0.00    +0.000 N 
ENDROOT
BRANCH   1   6
ATOM      2  C   UNL     1       7.897  12.769  -0.024  0.00  0.00    +0.000 C 
ATOM      3  C   UNL     1       6.964  12.955   1.133  0.00  0.00    +0.000 A 
ATOM      4  C   UNL     1       7.172  13.969   2.062  0.00  0.00    +0.000 A 
ATOM      5  C   UNL     1       6.311  14.120   3.162  0.00  0.00    +0.000 A 
ATOM      6  C   UNL     1       5.223  13.261   3.400  0.00  0.00    +0.000 A 
ATOM      7  C   UNL     1       5.042  12.249   2.440  0.00  0.00    +0.000 A 
ATOM      8  C   UNL     1       5.894  12.088   1.334  0.00  0.00    +0.000 A 
ENDBRANCH   1   6
BRANCH   1   9
ATOM      9  C   UNL     1       4.498  12.573   5.690  0.00  0.00    +0.000 C 
BRANCH   9  10
ATOM     10  C   UNL     1       5.788  12.873   6.493  0.00  0.00    +0.000 C 
ATOM     11  C   UNL     1       5.498  13.812   7.658  0.00  0.00    +0.000 C 
BRANCH  10  12
ATOM     12  O   UNL     1       6.356  11.668   7.024  0.00  0.00    +0.000 OA
ATOM     13  H   UNL     1       6.261  11.691   7.991  0.00  0.00    +0.000 HD
ENDBRANCH  10  12
ENDBRANCH   9  10
ENDBRANCH   1   9
BRANCH   1  14
ATOM     14  C   UNL     1       3.018  14.048   4.316  0.00  0.00    +0.000 C 
BRANCH  14  15
ATOM     15  C   UNL     1       2.384  14.456   5.668  0.00  0.00    +0.000 C 
ATOM     16  C   UNL     1       2.645  15.912   6.037  0.00  0.00    +0.000 C 
BRANCH  15  17
ATOM     17  O   UNL     1       0.973  14.244   5.675  0.00  0.00    +0.000 OA
ATOM     18  H   UNL     1       0.605  14.980   5.146  0.00  0.00    +0.000 HD
ENDBRANCH  15  17
ENDBRANCH  14  15
ENDBRANCH   1  14
TORSDOF 7
ENDMDL
MODEL 3
REMARK VINA RESULT:    -5.382      1.342      1.546
REMARK INTER + INTRA:          -8.017
REMARK INTER:                  -7.654
REMARK INTRA:                  -0.364
REMARK UNBOUND:                -0.748
REMARK  Name = 
REMARK  10 active torsions:
REMARK  status: ('A' for Active; 'I' for Inactive)
REMARK    1  A    between atoms: C_1  and  C_2
REMARK    2  A    between atoms: C_5  and  N_8
REMARK    3  A    between atoms: N_8  and  C_9
REMARK    4  A    between atoms: N_8  and  C_13
REMARK    5  A    between atoms: C_9  and  C_10
REMARK    6  A    between atoms: C_10  and  C_11
REMARK    7  A    between atoms: C_10  and  O_12
REMARK    8  A    between atoms: C_13  and  C_14
REMARK    9  A    between atoms: C_14  and  C_15
REMARK   10  A    between atoms: C_14  and  O_16
REMARK                            x       y       z     vdW  Elec       q    Type
REMARK                         _______ _______ _______ _____ _____    ______ ____
ROOT
ATOM      1  N   UNL     1       4.311  14.441   5.659  0.00  0.00    +0.000 N 
ENDROOT
BRANCH   1   6
ATOM      2  C   UNL     1       6.888  12.868   0.738  0.00  0.00    +0.000 C 
ATOM      3  C   UNL     1       6.235  13.261   2.027  0.00  0.00    +0.000 A 
ATOM      4  C   UNL     1       5.135  12.563   2.514  0.00  0.00    +0.000 A 
ATOM      5  C   UNL     1       4.508  12.954   3.708  0.00  0.00    +0.000 A 
ATOM      6  C   UNL     1       4.929  14.067   4.458  0.00  0.00    +0.000 A 
ATOM      7  C   UNL     1       6.044  14.749   3.938  0.00  0.00    +0.000 A 
ATOM      8  C   UNL     1       6.682  14.366   2.746  0.00  0.00    +0.000 A 
ENDBRANCH   1   6
BRANCH   1   9
ATOM      9  C   UNL     1       3.507  15.685   5.725  0.00  0.00    +0.000 C 
BRANCH   9  10
ATOM     10  C   UNL     1       3.852  16.557   6.957  0.00  0.00    +0.000 C 
ATOM     11  C   UNL     1       4.292  17.953   6.532  0.00  0.00    +0.000 C 
BRANCH  10  12
ATOM     12  O   UNL     1       2.717  16.694   7.825  0.00  0.00    +0.000 OA
ATOM     13  H   UNL     1       1.965  16.999   7.291  0.00  0.00    +0.000 HD
ENDBRANCH  10  12
ENDBRANCH   9  10
ENDBRANCH   1   9
BRANCH   1  14
ATOM     14  C   UNL     1       4.817  13.953   6.968  0.00  0.00    +0.000 C 
BRANCH  14  15
ATOM     15  C   UNL     1       4.715  12.414   7.097  0.00  0.00    +0.000 C 
ATOM     16  C   UNL     1       5.952  11.783   7.724  0.00  0.00    +0.000 C 
BRANCH  15  17
ATOM     17  O   UNL     1       3.580  12.024   7.868  0.00  0.00    +0.000 OA
ATOM     18  H   UNL     1       2.848  11.954   7.223  0.00  0.00    +0.000 HD
ENDBRANCH  15  17
ENDBRANCH  14  15
ENDBRANCH   1  14
TORSDOF 7
ENDMDL
MODEL 4
REMARK VINA RESULT:    -5.334      1.427      3.131
REMARK INTER + INTRA:          -7.953
REMARK INTER:                  -7.422
REMARK INTRA:                  -0.532
REMARK UNBOUND:                -0.748
REMARK  Name = 
REMARK  10 active torsions:
REMARK  status: ('A' for Active; 'I' for Inactive)
REMARK    1  A    between atoms: C_1  and  C_2
REMARK    2  A    between atoms: C_5  and  N_8
REMARK    3  A    between atoms: N_8  and  C_9
REMARK    4  A    between atoms: N_8  and  C_13
REMARK    5  A    between atoms: C_9  and  C_10
REMARK    6  A    between atoms: C_10  and  C_11
REMARK    7  A    between atoms: C_10  and  O_12
REMARK    8  A    between atoms: C_13  and  C_14
REMARK    9  A    between atoms: C_14  and  C_15
REMARK   10  A    between atoms: C_14  and  O_16
REMARK                            x       y       z     vdW  Elec       q    Type
REMARK                         _______ _______ _______ _____ _____    ______ ____
ROOT
ATOM      1  N   UNL     1       4.412  13.667   4.822  0.00  0.00    +0.000 N 
ENDROOT
BRANCH   1   6
ATOM      2  C   UNL     1       7.672  12.731   0.150  0.00  0.00    +0.000 C 
ATOM      3  C   UNL     1       6.841  12.959   1.375  0.00  0.00    +0.000 A 
ATOM      4  C   UNL     1       5.724  12.172   1.637  0.00  0.00    +0.000 A 
ATOM      5  C   UNL     1       4.931  12.409   2.772  0.00  0.00    +0.000 A 
ATOM      6  C   UNL     1       5.196  13.448   3.682  0.00  0.00    +0.000 A 
ATOM      7  C   UNL     1       6.334  14.222   3.387  0.00  0.00    +0.000 A 
ATOM      8  C   UNL     1       7.136  13.994   2.257  0.00  0.00    +0.000 A 
ENDBRANCH   1   6
BRANCH   1   9
ATOM      9  C   UNL     1       4.610  12.831   6.031  0.00  0.00    +0.000 C 
BRANCH   9  10
ATOM     10  C   UNL     1       5.694  13.398   6.981  0.00  0.00    +0.000 C 
ATOM     11  C   UNL     1       7.030  12.696   6.763  0.00  0.00    +0.000 C 
BRANCH  10  12
ATOM     12  O   UNL     1       5.889  14.802   6.761  0.00  0.00    +0.000 OA
ATOM     13  H   UNL     1       6.547  14.908   6.054  0.00  0.00    +0.000 HD
ENDBRANCH  10  12
ENDBRANCH   9  10
ENDBRANCH   1   9
BRANCH   1  14
ATOM     14  C   UNL     1       3.083  14.323   4.727  0.00  0.00    +0.000 C 
BRANCH  14  15
ATOM     15  C   UNL     1       2.424  14.510   6.115  0.00  0.00    +0.000 C 
ATOM     16  C   UNL     1       2.589  15.918   6.673  0.00  0.00    +0.000 C 
BRANCH  15  17
ATOM     17  O   UNL     1       1.029  14.209   6.080  0.00  0.00    +0.000 OA
ATOM     18  H   UNL     1       0.596  14.967   6.523  0.00  0.00    +0.000 HD
ENDBRANCH  15  17
ENDBRANCH  14  15
ENDBRANCH   1  14
TORSDOF 7
ENDMDL
MODEL 5
REMARK VINA RESULT:    -5.262      1.819      3.307
REMARK INTER + INTRA:          -7.856
REMARK INTER:                  -7.357
REMARK INTRA:                  -0.500
REMARK UNBOUND:                -0.748
REMARK  Name = 
REMARK  10 active torsions:
REMARK  status: ('A' for Active; 'I' for Inactive)
REMARK    1  A    between atoms: C_1  and  C_2
REMARK    2  A    between atoms: C_5  and  N_8
REMARK    3  A    between atoms: N_8  and  C_9
REMARK    4  A    between atoms: N_8  and  C_13
REMARK    5  A    between atoms: C_9  and  C_10
REMARK    6  A    between atoms: C_10  and  C_11
REMARK    7  A    between atoms: C_10  and  O_12
REMARK    8  A    between atoms: C_13  and  C_14
REMARK    9  A    between atoms: C_14  and  C_15
REMARK   10  A    between atoms: C_14  and  O_16
REMARK                            x       y       z     vdW  Elec       q    Type
REMARK                         _______ _______ _______ _____ _____    ______ ____
ROOT
ATOM      1  N   UNL     1       5.001  14.417   5.214  0.00  0.00    +0.000 N 
ENDROOT
BRANCH   1   6
ATOM      2  C   UNL     1       6.738  12.080   0.229  0.00  0.00    +0.000 C 
ATOM      3  C   UNL     1       6.271  12.700   1.510  0.00  0.00    +0.000 A 
ATOM      4  C   UNL     1       6.880  13.845   2.014  0.00  0.00    +0.000 A 
ATOM      5  C   UNL     1       6.457  14.404   3.230  0.00  0.00    +0.000 A 
ATOM      6  C   UNL     1       5.431  13.843   4.011  0.00  0.00    +0.000 A 
ATOM      7  C   UNL     1       4.837  12.688   3.470  0.00  0.00    +0.000 A 
ATOM      8  C   UNL     1       5.248  12.119   2.254  0.00  0.00    +0.000 A 
ENDBRANCH   1   6
BRANCH   1   9
ATOM      9  C   UNL     1       5.916  15.289   5.990  0.00  0.00    +0.000 C 
BRANCH   9  10
ATOM     10  C   UNL     1       5.625  16.796   5.788  0.00  0.00    +0.000 C 
ATOM     11  C   UNL     1       5.492  17.510   7.128  0.00  0.00    +0.000 C 
BRANCH  10  12
ATOM     12  O   UNL     1       6.679  17.429   5.049  0.00  0.00    +0.000 OA
ATOM     13  H   UNL     1       7.525  17.072   5.365  0.00  0.00    +0.000 HD
ENDBRANCH  10  12
ENDBRANCH   9  10
ENDBRANCH   1   9
BRANCH   1  14
ATOM     14  C   UNL     1       3.895  13.816   6.001  0.00  0.00    +0.000 C 
BRANCH  14  15
ATOM     15  C   UNL     1       2.615  14.686   5.970  0.00  0.00    +0.000 C 
ATOM     16  C   UNL     1       2.290  15.224   4.582  0.00  0.00    +0.000 C 
BRANCH  15  17
ATOM     17  O   UNL     1       1.477  13.968   6.444  0.00  0.00    +0.000 OA
ATOM     18  H   UNL     1       1.592  13.059   6.101  0.00  0.00    +0.000 HD
ENDBRANCH  15  17
ENDBRANCH  14  15
ENDBRANCH   1  14
TORSDOF 7
ENDMDL
MODEL 6
REMARK VINA RESULT:    -5.223      1.221      3.469
REMARK INTER + INTRA:          -7.803
REMARK INTER:                  -7.506
REMARK INTRA:                  -0.297
REMARK UNBOUND:                -0.748
REMARK  Name = 
REMARK  10 active torsions:
REMARK  status: ('A' for Active; 'I' for Inactive)
REMARK    1  A    between atoms: C_1  and  C_2
REMARK    2  A    between atoms: C_5  and  N_8
REMARK    3  A    between atoms: N_8  and  C_9
REMARK    4  A    between atoms: N_8  and  C_13
REMARK    5  A    between atoms: C_9  and  C_10
REMARK    6  A    between atoms: C_10  and  C_11
REMARK    7  A    between atoms: C_10  and  O_12
REMARK    8  A    between atoms: C_13  and  C_14
REMARK    9  A    between atoms: C_14  and  C_15
REMARK   10  A    between atoms: C_14  and  O_16
REMARK                            x       y       z     vdW  Elec       q    Type
REMARK                         _______ _______ _______ _____ _____    ______ ____
ROOT
ATOM      1  N   UNL     1       4.953  14.550   5.782  0.00  0.00    +0.000 N 
ENDROOT
BRANCH   1   6
ATOM      2  C   UNL     1       6.765  12.616   0.653  0.00  0.00    +0.000 C 
ATOM      3  C   UNL     1       6.283  13.136   1.973  0.00  0.00    +0.000 A 
ATOM      4  C   UNL     1       7.051  14.030   2.712  0.00  0.00    +0.000 A 
ATOM      5  C   UNL     1       6.607  14.492   3.962  0.00  0.00    +0.000 A 
ATOM      6  C   UNL     1       5.398  14.070   4.544  0.00  0.00    +0.000 A 
ATOM      7  C   UNL     1       4.647  13.168   3.768  0.00  0.00    +0.000 A 
ATOM      8  C   UNL     1       5.078  12.701   2.515  0.00  0.00    +0.000 A 
ENDBRANCH   1   6
BRANCH   1   9
ATOM      9  C   UNL     1       5.324  13.841   7.031  0.00  0.00    +0.000 C 
BRANCH   9  10
ATOM     10  C   UNL     1       4.915  12.348   7.018  0.00  0.00    +0.000 C 
ATOM     11  C   UNL     1       5.974  11.486   7.694  0.00  0.00    +0.000 C 
BRANCH  10  12
ATOM     12  O   UNL     1       3.673  12.149   7.708  0.00  0.00    +0.000 OA
ATOM     13  H   UNL     1       3.728  11.307   8.189  0.00  0.00    +0.000 HD
ENDBRANCH  10  12
ENDBRANCH   9  10
ENDBRANCH   1   9
BRANCH   1  14
ATOM     14  C   UNL     1       3.742  15.404   5.886  0.00  0.00    +0.000 C 
BRANCH  14  15
ATOM     15  C   UNL     1       3.886  16.490   6.979  0.00  0.00    +0.000 C 
ATOM     16  C   UNL     1       4.236  17.863   6.418  0.00  0.00    +0.000 C 
BRANCH  15  17
ATOM     17  O   UNL     1       2.694  16.620   7.753  0.00  0.00    +0.000 OA
ATOM     18  H   UNL     1       2.923  17.248   8.467  0.00  0.00    +0.000 HD
ENDBRANCH  15  17
ENDBRANCH  14  15
ENDBRANCH   1  14
TORSDOF 7
ENDMDL
MODEL 7
REMARK VINA RESULT:    -5.135      2.045      2.426
REMARK INTER + INTRA:          -7.684
REMARK INTER:                  -6.962
REMARK INTRA:                  -0.723
REMARK UNBOUND:                -0.748
REMARK  Name = 
REMARK  10 active torsions:
REMARK  status: ('A' for Active; 'I' for Inactive)
REMARK    1  A    between atoms: C_1  and  C_2
REMARK    2  A    between atoms: C_5  and  N_8
REMARK    3  A    between atoms: N_8  and  C_9
REMARK    4  A    between atoms: N_8  and  C_13
REMARK    5  A    between atoms: C_9  and  C_10
REMARK    6  A    between atoms: C_10  and  C_11
REMARK    7  A    between atoms: C_10  and  O_12
REMARK    8  A    between atoms: C_13  and  C_14
REMARK    9  A    between atoms: C_14  and  C_15
REMARK   10  A    between atoms: C_14  and  O_16
REMARK                            x       y       z     vdW  Elec       q    Type
REMARK                         _______ _______ _______ _____ _____    ______ ____
ROOT
ATOM      1  N   UNL     1       5.107  14.679   5.253  0.00  0.00    +0.000 N 
ENDROOT
BRANCH   1   6
ATOM      2  C   UNL     1       6.575  12.223   0.239  0.00  0.00    +0.000 C 
ATOM      3  C   UNL     1       6.211  12.846   1.552  0.00  0.00    +0.000 A 
ATOM      4  C   UNL     1       5.200  12.310   2.341  0.00  0.00    +0.000 A 
ATOM      5  C   UNL     1       4.843  12.916   3.557  0.00  0.00    +0.000 A 
ATOM      6  C   UNL     1       5.455  14.091   4.030  0.00  0.00    +0.000 A 
ATOM      7  C   UNL     1       6.474  14.604   3.207  0.00  0.00    +0.000 A 
ATOM      8  C   UNL     1       6.842  14.007   1.990  0.00  0.00    +0.000 A 
ENDBRANCH   1   6
BRANCH   1   9
ATOM      9  C   UNL     1       3.862  14.270   5.947  0.00  0.00    +0.000 C 
BRANCH   9  10
ATOM     10  C   UNL     1       2.687  15.247   5.699  0.00  0.00    +0.000 C 
ATOM     11  C   UNL     1       1.480  14.513   5.126  0.00  0.00    +0.000 C 
BRANCH  10  12
ATOM     12  O   UNL     1       2.282  15.885   6.917  0.00  0.00    +0.000 OA
ATOM     13  H   UNL     1       1.323  15.767   7.015  0.00  0.00    +0.000 HD
ENDBRANCH  10  12
ENDBRANCH   9  10
ENDBRANCH   1   9
BRANCH   1  14
ATOM     14  C   UNL     1       5.625  16.017   5.637  0.00  0.00    +0.000 C 
BRANCH  14  15
ATOM     15  C   UNL     1       5.893  16.125   7.158  0.00  0.00    +0.000 C 
ATOM     16  C   UNL     1       7.296  16.620   7.486  0.00  0.00    +0.000 C 
BRANCH  15  17
ATOM     17  O   UNL     1       4.957  16.992   7.798  0.00  0.00    +0.000 OA
ATOM     18  H   UNL     1       4.112  16.498   7.795  0.00  0.00    +0.000 HD
ENDBRANCH  15  17
ENDBRANCH  14  15
ENDBRANCH   1  14
TORSDOF 7
ENDMDL
MODEL 8
REMARK VINA RESULT:    -4.933      2.294      4.407
REMARK INTER + INTRA:          -7.411
REMARK INTER:                  -6.678
REMARK INTRA:                  -0.733
REMARK UNBOUND:                -0.748
REMARK  Name = 
REMARK  10 active torsions:
REMARK  status: ('A' for Active; 'I' for Inactive)
REMARK    1  A    between atoms: C_1  and  C_2
REMARK    2  A    between atoms: C_5  and  N_8
REMARK    3  A    between atoms: N_8  and  C_9
REMARK    4  A    between atoms: N_8  and  C_13
REMARK    5  A    between atoms: C_9  and  C_10
REMARK    6  A    between atoms: C_10  and  C_11
REMARK    7  A    between atoms: C_10  and  O_12
REMARK    8  A    between atoms: C_13  and  C_14
REMARK    9  A    between atoms: C_14  and  C_15
REMARK   10  A    between atoms: C_14  and  O_16
REMARK                            x       y       z     vdW  Elec       q    Type
REMARK                         _______ _______ _______ _____ _____    ______ ____
ROOT
ATOM      1  N   UNL     1       5.744  14.293   4.587  0.00  0.00    +0.000 N 
ENDROOT
BRANCH   1   6
ATOM      2  C   UNL     1      10.772  12.571   6.840  0.00  0.00    +0.000 C 
ATOM      3  C   UNL     1       9.465  12.995   6.244  0.00  0.00    +0.000 A 
ATOM      4  C   UNL     1       9.418  13.655   5.021  0.00  0.00    +0.000 A 
ATOM      5  C   UNL     1       8.193  14.078   4.481  0.00  0.00    +0.000 A 
ATOM      6  C   UNL     1       6.965  13.886   5.140  0.00  0.00    +0.000 A 
ATOM      7  C   UNL     1       7.049  13.214   6.373  0.00  0.00    +0.000 A 
ATOM      8  C   UNL     1       8.268  12.784   6.923  0.00  0.00    +0.000 A 
ENDBRANCH   1   6
BRANCH   1   9
ATOM      9  C   UNL     1       5.587  14.381   3.115  0.00  0.00    +0.000 C 
BRANCH   9  10
ATOM     10  C   UNL     1       5.101  13.054   2.483  0.00  0.00    +0.000 C 
ATOM     11  C   UNL     1       6.112  12.530   1.470  0.00  0.00    +0.000 C 
BRANCH  10  12
ATOM     12  O   UNL     1       4.912  12.045   3.485  0.00  0.00    +0.000 OA
ATOM     13  H   UNL     1       5.777  11.852   3.884  0.00  0.00    +0.000 HD
ENDBRANCH  10  12
ENDBRANCH   9  10
ENDBRANCH   1   9
BRANCH   1  14
ATOM     14  C   UNL     1       4.781  15.112   5.368  0.00  0.00    +0.000 C 
BRANCH  14  15
ATOM     15  C   UNL     1       3.470  14.345   5.667  0.00  0.00    +0.000 C 
ATOM     16  C   UNL     1       2.373  14.610   4.642  0.00  0.00    +0.000 C 
BRANCH  15  17
ATOM     17  O   UNL     1       3.686  12.936   5.728  0.00  0.00    +0.000 OA
ATOM     18  H   UNL     1       3.613  12.629   4.801  0.00  0.00    +0.000 HD
ENDBRANCH  15  17
ENDBRANCH  14  15
ENDBRANCH   1  14
TORSDOF 7
ENDMDL
