MODEL 1
REMARK VINA RESULT:    -4.965      0.000      0.000
REMARK INTER + INTRA:          -5.452
REMARK INTER:                  -5.400
REMARK INTRA:                  -0.052
REMARK UNBOUND:                -0.052
REMARK  Name = 
REMARK  3 active torsions:
REMARK  status: ('A' for Active; 'I' for Inactive)
REMARK    1  A    between atoms: C_1  and  O_2
REMARK    2  A    between atoms: O_2  and  C_3
REMARK    3  A    between atoms: C_8  and  O_9
REMARK                            x       y       z     vdW  Elec       q    Type
REMARK                         _______ _______ _______ _____ _____    ______ ____
ROOT
ATOM      1  C   UNL     1       6.824  13.041   1.024  0.00  0.00    +0.000 A 
ATOM      2  C   UNL     1       6.936  13.849   2.155  0.00  0.00    +0.000 A 
ATOM      3  C   UNL     1       6.089  13.640   3.250  0.00  0.00    +0.000 A 
ATOM      4  C   UNL     1       5.130  12.626   3.220  0.00  0.00    +0.000 A 
ATOM      5  C   UNL     1       5.012  11.815   2.094  0.00  0.00    +0.000 A 
ATOM      6  C   UNL     1       5.856  12.030   1.012  0.00  0.00    +0.000 A 
ENDROOT
BRANCH   1   8
ATOM      7  C   UNL     1       8.975  12.878   0.026  0.00  0.00    +0.000 C 
ATOM      8  O   UNL     1       7.582  13.132  -0.116  0.00  0.00    +0.000 OA
ENDBRANCH   1   8
BRANCH   6   9
ATOM      9  O   UNL     1       5.721  11.220  -0.084  0.00  0.00    +0.000 OA
ATOM     10  H   UNL     1       6.397  11.537  -0.713  0.00  0.00    +0.000 HD
ENDBRANCH   6   9
TORSDOF 2
ENDMDL
MODEL 2
REMARK VINA RESULT:    -4.736      2.063      3.432
REMARK INTER + INTRA:          -5.204
REMARK INTER:                  -5.155
REMARK INTRA:                  -0.050
REMARK UNBOUND:                -0.052
REMARK  Name = 
REMARK  3 active torsions:
REMARK  status: ('A' for Active; 'I' for Inactive)
REMARK    1  A    between atoms: C_1  and  O_2
REMARK    2  A    between atoms: O_2  and  C_3
REMARK    3  A    between atoms: C_8  and  O_9
REMARK                            x       y       z     vdW  Elec       q    Type
REMARK                         _______ _______ _______ _____ _____    ______ ____
ROOT
ATOM      1  C   UNL     1       5.302  12.923   2.758  0.00  0.00    +0.000 A 
ATOM      2  C   UNL     1       5.661  14.210   2.359  0.00  0.00    +0.000 A 
ATOM      3  C   UNL     1       6.054  14.448   1.036  0.00  0.00    +0.000 A 
ATOM      4  C   UNL     1       6.090  13.404   0.110  0.00  0.00    +0.000 A 
ATOM      5  C   UNL     1       5.733  12.116   0.501  0.00  0.00    +0.000 A 
ATOM      6  C   UNL     1       5.345  11.889   1.815  0.00  0.00    +0.000 A 
ENDROOT
BRANCH   1   8
ATOM      7  C   UNL     1       3.832  13.290   4.588  0.00  0.00    +0.000 C 
ATOM      8  O   UNL     1       4.900  12.547   4.015  0.00  0.00    +0.000 OA
ENDBRANCH   1   8
BRANCH   6   9
ATOM      9  O   UNL     1       4.999  10.614   2.176  0.00  0.00    +0.000 OA
ATOM     10  H   UNL     1       5.844  10.126   2.206  0.00  0.00    +0.000 HD
ENDBRANCH   6   9
TORSDOF 2
ENDMDL
MODEL 3
REMARK VINA RESULT:    -4.358      2.248      3.148
REMARK INTER + INTRA:          -4.793
REMARK INTER:                  -4.740
REMARK INTRA:                  -0.052
REMARK UNBOUND:                -0.052
REMARK  Name = 
REMARK  3 active torsions:
REMARK  status: ('A' for Active; 'I' for Inactive)
REMARK    1  A    between atoms: C_1  and  O_2
REMARK    2  A    between atoms: O_2  and  C_3
REMARK    3  A    between atoms: C_8  and  O_9
REMARK                            x       y       z     vdW  Elec       q    Type
REMARK                         _______ _______ _______ _____ _____    ______ ____
ROOT
ATOM      1  C   UNL     1       5.942  13.795   2.546  0.00  0.00    +0.000 A 
ATOM      2  C   UNL     1       6.673  13.968   1.371  0.00  0.00    +0.000 A 
ATOM      3  C   UNL     1       6.657  12.974   0.385  0.00  0.00    +0.000 A 
ATOM      4  C   UNL     1       5.914  11.806   0.569  0.00  0.00    +0.000 A 
ATOM      5  C   UNL     1       5.181  11.626   1.740  0.00  0.00    +0.000 A 
ATOM      6  C   UNL     1       5.203  12.618   2.713  0.00  0.00    +0.000 A 
ENDROOT
BRANCH   1   8
ATOM      7  C   UNL     1       7.076  14.934   4.297  0.00  0.00    +0.000 C 
ATOM      8  O   UNL     1       5.867  14.680   3.592  0.00  0.00    +0.000 OA
ENDBRANCH   1   8
BRANCH   6   9
ATOM      9  O   UNL     1       4.475  12.418   3.855  0.00  0.00    +0.000 OA
ATOM     10  H   UNL     1       5.093  12.622   4.582  0.00  0.00    +0.000 HD
ENDBRANCH   6   9
TORSDOF 2
ENDMDL
MODEL 4
REMARK VINA RESULT:    -4.315      2.279      3.989
REMARK INTER + INTRA:          -4.746
REMARK INTER:                  -4.698
REMARK INTRA:                  -0.047
REMARK UNBOUND:                -0.052
REMARK  Name = 
REMARK  3 active torsions:
REMARK  status: ('A' for Active; 'I' for Inactive)
REMARK    1  A    between atoms: C_1  and  O_2
REMARK    2  A    between atoms: O_2  and  C_3
REMARK    3  A    between atoms: C_8  and  O_9
REMARK                            x       y       z     vdW  Elec       q    Type
REMARK                         _______ _______ _______ _____ _____    ______ ____
ROOT
ATOM      1  C   UNL     1       5.497  12.941   2.812  0.00  0.00    +0.000 A 
ATOM      2  C   UNL     1       5.210  11.836   2.011  0.00  0.00    +0.000 A 
ATOM      3  C   UNL     1       5.627  11.813   0.674  0.00  0.00    +0.000 A 
ATOM      4  C   UNL     1       6.331  12.891   0.134  0.00  0.00    +0.000 A 
ATOM      5  C   UNL     1       6.622  13.999   0.928  0.00  0.00    +0.000 A 
ATOM      6  C   UNL     1       6.203  14.013   2.252  0.00  0.00    +0.000 A 
ENDROOT
BRANCH   1   8
ATOM      7  C   UNL     1       3.776  13.348   4.399  0.00  0.00    +0.000 C 
ATOM      8  O   UNL     1       5.151  13.099   4.130  0.00  0.00    +0.000 OA
ENDBRANCH   1   8
BRANCH   6   9
ATOM      9  O   UNL     1       6.501  15.112   3.012  0.00  0.00    +0.000 OA
ATOM     10  H   UNL     1       5.655  15.360   3.432  0.00  0.00    +0.000 HD
ENDBRANCH   6   9
TORSDOF 2
ENDMDL
MODEL 5
REMARK VINA RESULT:    -4.250      2.788      3.773
REMARK INTER + INTRA:          -4.675
REMARK INTER:                  -4.637
REMARK INTRA:                  -0.037
REMARK UNBOUND:                -0.052
REMARK  Name = 
REMARK  3 active torsions:
REMARK  status: ('A' for Active; 'I' for Inactive)
REMARK    1  A    between atoms: C_1  and  O_2
REMARK    2  A    between atoms: O_2  and  C_3
REMARK    3  A    between atoms: C_8  and  O_9
REMARK                            x       y       z     vdW  Elec       q    Type
REMARK                         _______ _______ _______ _____ _____    ______ ____
ROOT
ATOM      1  C   UNL     1       5.697  14.006   3.817  0.00  0.00    +0.000 A 
ATOM      2  C   UNL     1       6.772  14.260   2.967  0.00  0.00    +0.000 A 
ATOM      3  C   UNL     1       6.971  13.462   1.833  0.00  0.00    +0.000 A 
ATOM      4  C   UNL     1       6.099  12.410   1.545  0.00  0.00    +0.000 A 
ATOM      5  C   UNL     1       5.022  12.151   2.390  0.00  0.00    +0.000 A 
ATOM      6  C   UNL     1       4.832  12.947   3.512  0.00  0.00    +0.000 A 
ENDROOT
BRANCH   1   8
ATOM      7  C   UNL     1       6.150  15.869   5.220  0.00  0.00    +0.000 C 
ATOM      8  O   UNL     1       5.382  14.701   4.957  0.00  0.00    +0.000 OA
ENDBRANCH   1   8
BRANCH   6   9
ATOM      9  O   UNL     1       3.767  12.672   4.327  0.00  0.00    +0.000 OA
ATOM     10  H   UNL     1       3.608  11.716   4.215  0.00  0.00    +0.000 HD
ENDBRANCH   6   9
TORSDOF 2
ENDMDL
MODEL 6
REMARK VINA RESULT:    -4.126      2.288      3.311
REMARK INTER + INTRA:          -4.540
REMARK INTER:                  -4.502
REMARK INTRA:                  -0.038
REMARK UNBOUND:                -0.052
REMARK  Name = 
REMARK  3 active torsions:
REMARK  status: ('A' for Active; 'I' for Inactive)
REMARK    1  A    between atoms: C_1  and  O_2
REMARK    2  A    between atoms: O_2  and  C_3
REMARK    3  A    between atoms: C_8  and  O_9
REMARK                            x       y       z     vdW  Elec       q    Type
REMARK                         _______ _______ _______ _____ _____    ______ ____
ROOT
ATOM      1  C   UNL     1       5.421  13.091   2.971  0.00  0.00    +0.000 A 
ATOM      2  C   UNL     1       6.613  13.793   2.802  0.00  0.00    +0.000 A 
ATOM      3  C   UNL     1       6.944  14.832   3.682  0.00  0.00    +0.000 A 
ATOM      4  C   UNL     1       6.086  15.172   4.729  0.00  0.00    +0.000 A 
ATOM      5  C   UNL     1       4.893  14.475   4.905  0.00  0.00    +0.000 A 
ATOM      6  C   UNL     1       4.573  13.446   4.028  0.00  0.00    +0.000 A 
ENDROOT
BRANCH   1   8
ATOM      7  C   UNL     1       5.654  11.847   0.960  0.00  0.00    +0.000 C 
ATOM      8  O   UNL     1       4.971  12.057   2.190  0.00  0.00    +0.000 OA
ENDBRANCH   1   8
BRANCH   6   9
ATOM      9  O   UNL     1       3.395  12.775   4.221  0.00  0.00    +0.000 OA
ATOM     10  H   UNL     1       2.755  13.466   4.479  0.00  0.00    +0.000 HD
ENDBRANCH   6   9
TORSDOF 2
ENDMDL
MODEL 7
REMARK VINA RESULT:    -4.051      3.499      4.373
REMARK INTER + INTRA:          -4.458
REMARK INTER:                  -4.406
REMARK INTRA:                  -0.052
REMARK UNBOUND:                -0.052
REMARK  Name = 
REMARK  3 active torsions:
REMARK  status: ('A' for Active; 'I' for Inactive)
REMARK    1  A    between atoms: C_1  and  O_2
REMARK    2  A    between atoms: O_2  and  C_3
REMARK    3  A    between atoms: C_8  and  O_9
REMARK                            x       y       z     vdW  Elec       q    Type
REMARK                         _______ _______ _______ _____ _____    ______ ____
ROOT
ATOM      1  C   UNL     1       4.967  14.372   4.813  0.00  0.00    +0.000 A 
ATOM      2  C   UNL     1       4.727  15.509   5.584  0.00  0.00    +0.000 A 
ATOM      3  C   UNL     1       3.413  15.937   5.811  0.00  0.00    +0.000 A 
ATOM      4  C   UNL     1       2.336  15.233   5.269  0.00  0.00    +0.000 A 
ATOM      5  C   UNL     1       2.567  14.096   4.498  0.00  0.00    +0.000 A 
ATOM      6  C   UNL     1       3.874  13.679   4.278  0.00  0.00    +0.000 A 
ENDROOT
BRANCH   1   8
ATOM      7  C   UNL     1       7.012  14.597   3.624  0.00  0.00    +0.000 C 
ATOM      8  O   UNL     1       6.195  13.841   4.510  0.00  0.00    +0.000 OA
ENDBRANCH   1   8
BRANCH   6   9
ATOM      9  O   UNL     1       4.076  12.559   3.517  0.00  0.00    +0.000 OA
ATOM     10  H   UNL     1       3.368  12.584   2.845  0.00  0.00    +0.000 HD
ENDBRANCH   6   9
TORSDOF 2
ENDMDL
MODEL 8
REMARK VINA RESULT:    -4.037      5.617      6.712
REMARK INTER + INTRA:          -4.443
REMARK INTER:                  -4.391
REMARK INTRA:                  -0.052
REMARK UNBOUND:                -0.052
REMARK  Name = 
REMARK  3 active torsions:
REMARK  status: ('A' for Active; 'I' for Inactive)
REMARK    1  A    between atoms: C_1  and  O_2
REMARK    2  A    between atoms: O_2  and  C_3
REMARK    3  A    between atoms: C_8  and  O_9
REMARK                            x       y       z     vdW  Elec       q    Type
REMARK                         _______ _______ _______ _____ _____    ______ ____
ROOT
ATOM      1  C   UNL     1       4.265  15.782   6.132  0.00  0.00    +0.000 A 
ATOM      2  C   UNL     1       4.512  15.015   4.994  0.00  0.00    +0.000 A 
ATOM      3  C   UNL     1       3.464  14.315   4.382  0.00  0.00    +0.000 A 
ATOM      4  C   UNL     1       2.170  14.379   4.903  0.00  0.00    +0.000 A 
ATOM      5  C   UNL     1       1.916  15.145   6.039  0.00  0.00    +0.000 A 
ATOM      6  C   UNL     1       2.961  15.835   6.640  0.00  0.00    +0.000 A 
ENDROOT
BRANCH   1   8
ATOM      7  C   UNL     1       5.729  17.654   6.171  0.00  0.00    +0.000 C 
ATOM      8  O   UNL     1       5.190  16.515   6.832  0.00  0.00    +0.000 OA
ENDBRANCH   1   8
BRANCH   6   9
ATOM      9  O   UNL     1       2.687  16.580   7.755  0.00  0.00    +0.000 OA
ATOM     10  H   UNL     1       2.164  15.987   8.328  0.00  0.00    +0.000 HD
ENDBRANCH   6   9
TORSDOF 2
ENDMDL
