MODEL 1
REMARK VINA RESULT:    -4.686      0.000      0.000
REMARK INTER + INTRA:          -5.146
REMARK INTER:                  -5.097
REMARK INTRA:                  -0.049
REMARK UNBOUND:                -0.049
REMARK  Name = 
REMARK  3 active torsions:
REMARK  status: ('A' for Active; 'I' for Inactive)
REMARK    1  A    between atoms: C_1  and  O_2
REMARK    2  A    between atoms: O_2  and  C_3
REMARK    3  A    between atoms: C_8  and  O_9
REMARK                            x       y       z     vdW  Elec       q    Type
REMARK                         _______ _______ _______ _____ _____    ______ ____
ROOT
ATOM      1  C   UNL     1      32.758   3.079  -6.320  0.00  0.00    +0.000 A 
ATOM      2  C   UNL     1      33.109   1.770  -6.648  0.00  0.00    +0.000 A 
ATOM      3  C   UNL     1      32.310   1.031  -7.530  0.00  0.00    +0.000 A 
ATOM      4  C   UNL     1      31.160   1.596  -8.085  0.00  0.00    +0.000 A 
ATOM      5  C   UNL     1      30.803   2.903  -7.763  0.00  0.00    +0.000 A 
ATOM      6  C   UNL     1      31.601   3.628  -6.887  0.00  0.00    +0.000 A 
ENDROOT
BRANCH   1   8
ATOM      7  C   UNL     1      34.681   4.425  -5.952  0.00  0.00    +0.000 C 
ATOM      8  O   UNL     1      33.442   3.915  -5.475  0.00  0.00    +0.000 OA
ENDBRANCH   1   8
BRANCH   6   9
ATOM      9  O   UNL     1      31.229   4.911  -6.586  0.00  0.00    +0.000 OA
ATOM     10  H   UNL     1      32.068   5.379  -6.412  0.00  0.00    +0.000 HD
ENDBRANCH   6   9
TORSDOF 2
ENDMDL
MODEL 2
REMARK VINA RESULT:    -4.634      1.250      3.155
REMARK INTER + INTRA:          -5.089
REMARK INTER:                  -5.047
REMARK INTRA:                  -0.042
REMARK UNBOUND:                -0.049
REMARK  Name = 
REMARK  3 active torsions:
REMARK  status: ('A' for Active; 'I' for Inactive)
REMARK    1  A    between atoms: C_1  and  O_2
REMARK    2  A    between atoms: O_2  and  C_3
REMARK    3  A    between atoms: C_8  and  O_9
REMARK                            x       y       z     vdW  Elec       q    Type
REMARK                         _______ _______ _______ _____ _____    ______ ____
ROOT
ATOM      1  C   UNL     1      32.367   3.228  -6.756  0.00  0.00    +0.000 A 
ATOM      2  C   UNL     1      33.026   2.076  -6.332  0.00  0.00    +0.000 A 
ATOM      3  C   UNL     1      34.292   2.171  -5.739  0.00  0.00    +0.000 A 
ATOM      4  C   UNL     1      34.902   3.415  -5.570  0.00  0.00    +0.000 A 
ATOM      5  C   UNL     1      34.249   4.572  -5.991  0.00  0.00    +0.000 A 
ATOM      6  C   UNL     1      32.995   4.468  -6.577  0.00  0.00    +0.000 A 
ENDROOT
BRANCH   1   8
ATOM      7  C   UNL     1      30.785   2.196  -8.197  0.00  0.00    +0.000 C 
ATOM      8  O   UNL     1      31.131   3.284  -7.349  0.00  0.00    +0.000 OA
ENDBRANCH   1   8
BRANCH   6   9
ATOM      9  O   UNL     1      32.373   5.618  -6.983  0.00  0.00    +0.000 OA
ATOM     10  H   UNL     1      32.797   6.327  -6.461  0.00  0.00    +0.000 HD
ENDBRANCH   6   9
TORSDOF 2
ENDMDL
MODEL 3
REMARK VINA RESULT:    -4.634      2.205      3.150
REMARK INTER + INTRA:          -5.089
REMARK INTER:                  -5.050
REMARK INTRA:                  -0.039
REMARK UNBOUND:                -0.049
REMARK  Name = 
REMARK  3 active torsions:
REMARK  status: ('A' for Active; 'I' for Inactive)
REMARK    1  A    between atoms: C_1  and  O_2
REMARK    2  A    between atoms: O_2  and  C_3
REMARK    3  A    between atoms: C_8  and  O_9
REMARK                            x       y       z     vdW  Elec       q    Type
REMARK                         _______ _______ _______ _____ _____    ______ ____
ROOT
ATOM      1  C   UNL     1      31.079   3.122  -4.840  0.00  0.00    +0.000 A 
ATOM      2  C   UNL     1      31.793   2.070  -4.267  0.00  0.00    +0.000 A 
ATOM      3  C   UNL     1      33.026   1.684  -4.810  0.00  0.00    +0.000 A 
ATOM      4  C   UNL     1      33.547   2.345  -5.924  0.00  0.00    +0.000 A 
ATOM      5  C   UNL     1      32.839   3.396  -6.502  0.00  0.00    +0.000 A 
ATOM      6  C   UNL     1      31.618   3.772  -5.957  0.00  0.00    +0.000 A 
ENDROOT
BRANCH   1   8
ATOM      7  C   UNL     1      29.480   3.272  -3.089  0.00  0.00    +0.000 C 
ATOM      8  O   UNL     1      29.866   3.604  -4.417  0.00  0.00    +0.000 OA
ENDBRANCH   1   8
BRANCH   6   9
ATOM      9  O   UNL     1      30.941   4.809  -6.543  0.00  0.00    +0.000 OA
ATOM     10  H   UNL     1      30.525   5.285  -5.799  0.00  0.00    +0.000 HD
ENDBRANCH   6   9
TORSDOF 2
ENDMDL
MODEL 4
REMARK VINA RESULT:    -4.416      1.867      2.052
REMARK INTER + INTRA:          -4.852
REMARK INTER:                  -4.806
REMARK INTRA:                  -0.046
REMARK UNBOUND:                -0.049
REMARK  Name = 
REMARK  3 active torsions:
REMARK  status: ('A' for Active; 'I' for Inactive)
REMARK    1  A    between atoms: C_1  and  O_2
REMARK    2  A    between atoms: O_2  and  C_3
REMARK    3  A    between atoms: C_8  and  O_9
REMARK                            x       y       z     vdW  Elec       q    Type
REMARK                         _______ _______ _______ _____ _____    ______ ____
ROOT
ATOM      1  C   UNL     1      33.037   3.639  -6.015  0.00  0.00    +0.000 A 
ATOM      2  C   UNL     1      33.597   2.580  -5.302  0.00  0.00    +0.000 A 
ATOM      3  C   UNL     1      32.784   1.770  -4.499  0.00  0.00    +0.000 A 
ATOM      4  C   UNL     1      31.412   2.016  -4.404  0.00  0.00    +0.000 A 
ATOM      5  C   UNL     1      30.846   3.072  -5.114  0.00  0.00    +0.000 A 
ATOM      6  C   UNL     1      31.660   3.870  -5.908  0.00  0.00    +0.000 A 
ENDROOT
BRANCH   1   8
ATOM      7  C   UNL     1      34.947   5.013  -6.347  0.00  0.00    +0.000 C 
ATOM      8  O   UNL     1      33.709   4.510  -6.835  0.00  0.00    +0.000 OA
ENDBRANCH   1   8
BRANCH   6   9
ATOM      9  O   UNL     1      31.080   4.903  -6.595  0.00  0.00    +0.000 OA
ATOM     10  H   UNL     1      31.828   5.459  -6.886  0.00  0.00    +0.000 HD
ENDBRANCH   6   9
TORSDOF 2
ENDMDL
MODEL 5
REMARK VINA RESULT:    -4.307      1.600      3.685
REMARK INTER + INTRA:          -4.734
REMARK INTER:                  -4.685
REMARK INTRA:                  -0.049
REMARK UNBOUND:                -0.049
REMARK  Name = 
REMARK  3 active torsions:
REMARK  status: ('A' for Active; 'I' for Inactive)
REMARK    1  A    between atoms: C_1  and  O_2
REMARK    2  A    between atoms: O_2  and  C_3
REMARK    3  A    between atoms: C_8  and  O_9
REMARK                            x       y       z     vdW  Elec       q    Type
REMARK                         _______ _______ _______ _____ _____    ______ ____
ROOT
ATOM      1  C   UNL     1      32.034   3.271  -6.406  0.00  0.00    +0.000 A 
ATOM      2  C   UNL     1      32.775   4.360  -6.864  0.00  0.00    +0.000 A 
ATOM      3  C   UNL     1      33.994   4.682  -6.256  0.00  0.00    +0.000 A 
ATOM      4  C   UNL     1      34.476   3.921  -5.190  0.00  0.00    +0.000 A 
ATOM      5  C   UNL     1      33.742   2.832  -4.726  0.00  0.00    +0.000 A 
ATOM      6  C   UNL     1      32.534   2.519  -5.335  0.00  0.00    +0.000 A 
ENDROOT
BRANCH   1   8
ATOM      7  C   UNL     1      30.858   2.209  -8.177  0.00  0.00    +0.000 C 
ATOM      8  O   UNL     1      30.830   2.842  -6.903  0.00  0.00    +0.000 OA
ENDBRANCH   1   8
BRANCH   6   9
ATOM      9  O   UNL     1      31.830   1.444  -4.862  0.00  0.00    +0.000 OA
ATOM     10  H   UNL     1      31.699   1.631  -3.913  0.00  0.00    +0.000 HD
ENDBRANCH   6   9
TORSDOF 2
ENDMDL
MODEL 6
REMARK VINA RESULT:    -4.285      1.284      2.353
REMARK INTER + INTRA:          -4.710
REMARK INTER:                  -4.658
REMARK INTRA:                  -0.052
REMARK UNBOUND:                -0.049
REMARK  Name = 
REMARK  3 active torsions:
REMARK  status: ('A' for Active; 'I' for Inactive)
REMARK    1  A    between atoms: C_1  and  O_2
REMARK    2  A    between atoms: O_2  and  C_3
REMARK    3  A    between atoms: C_8  and  O_9
REMARK                            x       y       z     vdW  Elec       q    Type
REMARK                         _______ _______ _______ _____ _____    ______ ____
ROOT
ATOM      1  C   UNL     1      33.198   3.534  -6.099  0.00  0.00    +0.000 A 
ATOM      2  C   UNL     1      32.064   4.138  -6.642  0.00  0.00    +0.000 A 
ATOM      3  C   UNL     1      31.124   3.366  -7.336  0.00  0.00    +0.000 A 
ATOM      4  C   UNL     1      31.313   1.991  -7.490  0.00  0.00    +0.000 A 
ATOM      5  C   UNL     1      32.442   1.380  -6.950  0.00  0.00    +0.000 A 
ATOM      6  C   UNL     1      33.370   2.154  -6.264  0.00  0.00    +0.000 A 
ENDROOT
BRANCH   1   8
ATOM      7  C   UNL     1      34.952   5.137  -6.110  0.00  0.00    +0.000 C 
ATOM      8  O   UNL     1      34.196   4.164  -5.400  0.00  0.00    +0.000 OA
ENDBRANCH   1   8
BRANCH   6   9
ATOM      9  O   UNL     1      34.472   1.531  -5.742  0.00  0.00    +0.000 OA
ATOM     10  H   UNL     1      34.123   0.967  -5.026  0.00  0.00    +0.000 HD
ENDBRANCH   6   9
TORSDOF 2
ENDMDL
MODEL 7
REMARK VINA RESULT:    -4.254      2.085      3.181
REMARK INTER + INTRA:          -4.676
REMARK INTER:                  -4.635
REMARK INTRA:                  -0.042
REMARK UNBOUND:                -0.049
REMARK  Name = 
REMARK  3 active torsions:
REMARK  status: ('A' for Active; 'I' for Inactive)
REMARK    1  A    between atoms: C_1  and  O_2
REMARK    2  A    between atoms: O_2  and  C_3
REMARK    3  A    between atoms: C_8  and  O_9
REMARK                            x       y       z     vdW  Elec       q    Type
REMARK                         _______ _______ _______ _____ _____    ______ ____
ROOT
ATOM      1  C   UNL     1      31.470   2.528  -5.183  0.00  0.00    +0.000 A 
ATOM      2  C   UNL     1      30.608   2.911  -6.209  0.00  0.00    +0.000 A 
ATOM      3  C   UNL     1      30.881   2.533  -7.530  0.00  0.00    +0.000 A 
ATOM      4  C   UNL     1      32.015   1.775  -7.829  0.00  0.00    +0.000 A 
ATOM      5  C   UNL     1      32.881   1.389  -6.809  0.00  0.00    +0.000 A 
ATOM      6  C   UNL     1      32.602   1.768  -5.502  0.00  0.00    +0.000 A 
ENDROOT
BRANCH   1   8
ATOM      7  C   UNL     1      29.996   2.917  -3.360  0.00  0.00    +0.000 C 
ATOM      8  O   UNL     1      31.328   2.826  -3.851  0.00  0.00    +0.000 OA
ENDBRANCH   1   8
BRANCH   6   9
ATOM      9  O   UNL     1      33.468   1.377  -4.516  0.00  0.00    +0.000 OA
ATOM     10  H   UNL     1      34.327   1.766  -4.771  0.00  0.00    +0.000 HD
ENDBRANCH   6   9
TORSDOF 2
ENDMDL
MODEL 8
REMARK VINA RESULT:    -4.204      2.154      3.740
REMARK INTER + INTRA:          -4.621
REMARK INTER:                  -4.575
REMARK INTRA:                  -0.046
REMARK UNBOUND:                -0.049
REMARK  Name = 
REMARK  3 active torsions:
REMARK  status: ('A' for Active; 'I' for Inactive)
REMARK    1  A    between atoms: C_1  and  O_2
REMARK    2  A    between atoms: O_2  and  C_3
REMARK    3  A    between atoms: C_8  and  O_9
REMARK                            x       y       z     vdW  Elec       q    Type
REMARK                         _______ _______ _______ _____ _____    ______ ____
ROOT
ATOM      1  C   UNL     1      31.514   2.595  -6.551  0.00  0.00    +0.000 A 
ATOM      2  C   UNL     1      30.498   3.148  -5.773  0.00  0.00    +0.000 A 
ATOM      3  C   UNL     1      30.511   2.980  -4.382  0.00  0.00    +0.000 A 
ATOM      4  C   UNL     1      31.536   2.260  -3.766  0.00  0.00    +0.000 A 
ATOM      5  C   UNL     1      32.555   1.704  -4.537  0.00  0.00    +0.000 A 
ATOM      6  C   UNL     1      32.533   1.875  -5.915  0.00  0.00    +0.000 A 
ENDROOT
BRANCH   1   8
ATOM      7  C   UNL     1      30.721   1.889  -8.677  0.00  0.00    +0.000 C 
ATOM      8  O   UNL     1      31.627   2.678  -7.916  0.00  0.00    +0.000 OA
ENDBRANCH   1   8
BRANCH   6   9
ATOM      9  O   UNL     1      33.545   1.319  -6.652  0.00  0.00    +0.000 OA
ATOM     10  H   UNL     1      33.911   2.061  -7.170  0.00  0.00    +0.000 HD
ENDBRANCH   6   9
TORSDOF 2
ENDMDL
MODEL 9
REMARK VINA RESULT:    -4.007      2.258      2.732
REMARK INTER + INTRA:          -4.407
REMARK INTER:                  -4.369
REMARK INTRA:                  -0.038
REMARK UNBOUND:                -0.049
REMARK  Name = 
REMARK  3 active torsions:
REMARK  status: ('A' for Active; 'I' for Inactive)
REMARK    1  A    between atoms: C_1  and  O_2
REMARK    2  A    between atoms: O_2  and  C_3
REMARK    3  A    between atoms: C_8  and  O_9
REMARK                            x       y       z     vdW  Elec       q    Type
REMARK                         _______ _______ _______ _____ _____    ______ ____
ROOT
ATOM      1  C   UNL     1      33.396   2.808  -5.196  0.00  0.00    +0.000 A 
ATOM      2  C   UNL     1      33.879   3.856  -5.978  0.00  0.00    +0.000 A 
ATOM      3  C   UNL     1      32.998   4.596  -6.777  0.00  0.00    +0.000 A 
ATOM      4  C   UNL     1      31.635   4.292  -6.797  0.00  0.00    +0.000 A 
ATOM      5  C   UNL     1      31.146   3.246  -6.018  0.00  0.00    +0.000 A 
ATOM      6  C   UNL     1      32.027   2.517  -5.229  0.00  0.00    +0.000 A 
ENDROOT
BRANCH   1   8
ATOM      7  C   UNL     1      35.444   2.464  -4.040  0.00  0.00    +0.000 C 
ATOM      8  O   UNL     1      34.140   2.003  -4.371  0.00  0.00    +0.000 OA
ENDBRANCH   1   8
BRANCH   6   9
ATOM      9  O   UNL     1      31.522   1.494  -4.472  0.00  0.00    +0.000 OA
ATOM     10  H   UNL     1      31.791   1.705  -3.558  0.00  0.00    +0.000 HD
ENDBRANCH   6   9
TORSDOF 2
ENDMDL
