MODEL 1
REMARK VINA RESULT:    -4.280      0.000      0.000
REMARK INTER + INTRA:          -4.695
REMARK INTER:                  -4.655
REMARK INTRA:                  -0.040
REMARK UNBOUND:                -0.040
REMARK  Name = 
REMARK  3 active torsions:
REMARK  status: ('A' for Active; 'I' for Inactive)
REMARK    1  A    between atoms: C_1  and  O_2
REMARK    2  A    between atoms: O_2  and  C_3
REMARK    3  A    between atoms: C_8  and  O_9
REMARK                            x       y       z     vdW  Elec       q    Type
REMARK                         _______ _______ _______ _____ _____    ______ ____
ROOT
ATOM      1  C   UNL     1       3.729  22.732  20.099  0.00  0.00    +0.000 A 
ATOM      2  C   UNL     1       4.456  23.150  21.213  0.00  0.00    +0.000 A 
ATOM      3  C   UNL     1       3.843  23.939  22.194  0.00  0.00    +0.000 A 
ATOM      4  C   UNL     1       2.504  24.314  22.065  0.00  0.00    +0.000 A 
ATOM      5  C   UNL     1       1.770  23.900  20.956  0.00  0.00    +0.000 A 
ATOM      6  C   UNL     1       2.387  23.118  19.988  0.00  0.00    +0.000 A 
ENDROOT
BRANCH   1   8
ATOM      7  C   UNL     1       5.591  22.045  18.793  0.00  0.00    +0.000 C 
ATOM      8  O   UNL     1       4.198  21.960  19.067  0.00  0.00    +0.000 OA
ENDBRANCH   1   8
BRANCH   6   9
ATOM      9  O   UNL     1       1.645  22.723  18.906  0.00  0.00    +0.000 OA
ATOM     10  H   UNL     1       0.765  22.514  19.272  0.00  0.00    +0.000 HD
ENDBRANCH   6   9
TORSDOF 2
ENDMDL
MODEL 2
REMARK VINA RESULT:    -3.773      1.654      3.287
REMARK INTER + INTRA:          -4.144
REMARK INTER:                  -4.092
REMARK INTRA:                  -0.053
REMARK UNBOUND:                -0.040
REMARK  Name = 
REMARK  3 active torsions:
REMARK  status: ('A' for Active; 'I' for Inactive)
REMARK    1  A    between atoms: C_1  and  O_2
REMARK    2  A    between atoms: O_2  and  C_3
REMARK    3  A    between atoms: C_8  and  O_9
REMARK                            x       y       z     vdW  Elec       q    Type
REMARK                         _______ _______ _______ _____ _____    ______ ____
ROOT
ATOM      1  C   UNL     1       3.897  23.793  20.810  0.00  0.00    +0.000 A 
ATOM      2  C   UNL     1       5.169  24.315  20.579  0.00  0.00    +0.000 A 
ATOM      3  C   UNL     1       6.028  23.687  19.668  0.00  0.00    +0.000 A 
ATOM      4  C   UNL     1       5.620  22.539  18.987  0.00  0.00    +0.000 A 
ATOM      5  C   UNL     1       4.350  22.012  19.211  0.00  0.00    +0.000 A 
ATOM      6  C   UNL     1       3.505  22.641  20.117  0.00  0.00    +0.000 A 
ENDROOT
BRANCH   1   8
ATOM      7  C   UNL     1       3.274  24.257  23.056  0.00  0.00    +0.000 C 
ATOM      8  O   UNL     1       2.956  24.300  21.670  0.00  0.00    +0.000 OA
ENDBRANCH   1   8
BRANCH   6   9
ATOM      9  O   UNL     1       2.262  22.104  20.321  0.00  0.00    +0.000 OA
ATOM     10  H   UNL     1       1.807  22.198  19.463  0.00  0.00    +0.000 HD
ENDBRANCH   6   9
TORSDOF 2
ENDMDL
MODEL 3
REMARK VINA RESULT:    -3.673      1.974      4.357
REMARK INTER + INTRA:          -4.036
REMARK INTER:                  -3.987
REMARK INTRA:                  -0.049
REMARK UNBOUND:                -0.040
REMARK  Name = 
REMARK  3 active torsions:
REMARK  status: ('A' for Active; 'I' for Inactive)
REMARK    1  A    between atoms: C_1  and  O_2
REMARK    2  A    between atoms: O_2  and  C_3
REMARK    3  A    between atoms: C_8  and  O_9
REMARK                            x       y       z     vdW  Elec       q    Type
REMARK                         _______ _______ _______ _____ _____    ______ ____
ROOT
ATOM      1  C   UNL     1       6.055  23.064  19.471  0.00  0.00    +0.000 A 
ATOM      2  C   UNL     1       7.360  23.164  19.951  0.00  0.00    +0.000 A 
ATOM      3  C   UNL     1       8.276  22.134  19.704  0.00  0.00    +0.000 A 
ATOM      4  C   UNL     1       7.893  21.003  18.980  0.00  0.00    +0.000 A 
ATOM      5  C   UNL     1       6.590  20.896  18.498  0.00  0.00    +0.000 A 
ATOM      6  C   UNL     1       5.688  21.923  18.748  0.00  0.00    +0.000 A 
ENDROOT
BRANCH   1   8
ATOM      7  C   UNL     1       4.505  24.102  20.944  0.00  0.00    +0.000 C 
ATOM      8  O   UNL     1       5.057  23.991  19.638  0.00  0.00    +0.000 OA
ENDBRANCH   1   8
BRANCH   6   9
ATOM      9  O   UNL     1       4.413  21.795  18.263  0.00  0.00    +0.000 OA
ATOM     10  H   UNL     1       3.884  22.423  18.790  0.00  0.00    +0.000 HD
ENDBRANCH   6   9
TORSDOF 2
ENDMDL
MODEL 4
REMARK VINA RESULT:    -3.408      9.466     10.291
REMARK INTER + INTRA:          -3.747
REMARK INTER:                  -3.695
REMARK INTRA:                  -0.052
REMARK UNBOUND:                -0.040
REMARK  Name = 
REMARK  3 active torsions:
REMARK  status: ('A' for Active; 'I' for Inactive)
REMARK    1  A    between atoms: C_1  and  O_2
REMARK    2  A    between atoms: O_2  and  C_3
REMARK    3  A    between atoms: C_8  and  O_9
REMARK                            x       y       z     vdW  Elec       q    Type
REMARK                         _______ _______ _______ _____ _____    ______ ____
ROOT
ATOM      1  C   UNL     1       0.208  14.876  15.548  0.00  0.00    +0.000 A 
ATOM      2  C   UNL     1       1.292  14.662  14.698  0.00  0.00    +0.000 A 
ATOM      3  C   UNL     1       1.353  15.318  13.462  0.00  0.00    +0.000 A 
ATOM      4  C   UNL     1       0.333  16.187  13.071  0.00  0.00    +0.000 A 
ATOM      5  C   UNL     1      -0.754  16.407  13.915  0.00  0.00    +0.000 A 
ATOM      6  C   UNL     1      -0.806  15.752  15.139  0.00  0.00    +0.000 A 
ENDROOT
BRANCH   1   8
ATOM      7  C   UNL     1       0.981  14.615  17.779  0.00  0.00    +0.000 C 
ATOM      8  O   UNL     1       0.018  14.304  16.780  0.00  0.00    +0.000 OA
ENDBRANCH   1   8
BRANCH   6   9
ATOM      9  O   UNL     1      -1.884  15.984  15.951  0.00  0.00    +0.000 OA
ATOM     10  H   UNL     1      -1.553  16.597  16.634  0.00  0.00    +0.000 HD
ENDBRANCH   6   9
TORSDOF 2
ENDMDL
MODEL 5
REMARK VINA RESULT:    -3.323     10.044     10.373
REMARK INTER + INTRA:          -3.655
REMARK INTER:                  -3.617
REMARK INTRA:                  -0.038
REMARK UNBOUND:                -0.040
REMARK  Name = 
REMARK  3 active torsions:
REMARK  status: ('A' for Active; 'I' for Inactive)
REMARK    1  A    between atoms: C_1  and  O_2
REMARK    2  A    between atoms: O_2  and  C_3
REMARK    3  A    between atoms: C_8  and  O_9
REMARK                            x       y       z     vdW  Elec       q    Type
REMARK                         _______ _______ _______ _____ _____    ______ ____
ROOT
ATOM      1  C   UNL     1      -0.206  16.029  14.301  0.00  0.00    +0.000 A 
ATOM      2  C   UNL     1       1.004  15.477  13.883  0.00  0.00    +0.000 A 
ATOM      3  C   UNL     1       1.608  14.463  14.636  0.00  0.00    +0.000 A 
ATOM      4  C   UNL     1       1.008  13.999  15.808  0.00  0.00    +0.000 A 
ATOM      5  C   UNL     1      -0.201  14.545  16.232  0.00  0.00    +0.000 A 
ATOM      6  C   UNL     1      -0.794  15.550  15.479  0.00  0.00    +0.000 A 
ENDROOT
BRANCH   1   8
ATOM      7  C   UNL     1      -0.562  17.276  12.310  0.00  0.00    +0.000 C 
ATOM      8  O   UNL     1      -0.907  17.023  13.666  0.00  0.00    +0.000 OA
ENDBRANCH   1   8
BRANCH   6   9
ATOM      9  O   UNL     1      -1.982  16.071  15.916  0.00  0.00    +0.000 OA
ATOM     10  H   UNL     1      -2.576  15.301  15.999  0.00  0.00    +0.000 HD
ENDBRANCH   6   9
TORSDOF 2
ENDMDL
MODEL 6
REMARK VINA RESULT:    -3.270      1.676      3.607
REMARK INTER + INTRA:          -3.597
REMARK INTER:                  -3.546
REMARK INTRA:                  -0.052
REMARK UNBOUND:                -0.040
REMARK  Name = 
REMARK  3 active torsions:
REMARK  status: ('A' for Active; 'I' for Inactive)
REMARK    1  A    between atoms: C_1  and  O_2
REMARK    2  A    between atoms: O_2  and  C_3
REMARK    3  A    between atoms: C_8  and  O_9
REMARK                            x       y       z     vdW  Elec       q    Type
REMARK                         _______ _______ _______ _____ _____    ______ ____
ROOT
ATOM      1  C   UNL     1       3.736  22.757  20.117  0.00  0.00    +0.000 A 
ATOM      2  C   UNL     1       4.196  22.022  19.025  0.00  0.00    +0.000 A 
ATOM      3  C   UNL     1       5.538  22.114  18.635  0.00  0.00    +0.000 A 
ATOM      4  C   UNL     1       6.422  22.941  19.331  0.00  0.00    +0.000 A 
ATOM      5  C   UNL     1       5.970  23.678  20.423  0.00  0.00    +0.000 A 
ATOM      6  C   UNL     1       4.638  23.580  20.803  0.00  0.00    +0.000 A 
ENDROOT
BRANCH   1   8
ATOM      7  C   UNL     1       1.435  23.187  19.712  0.00  0.00    +0.000 C 
ATOM      8  O   UNL     1       2.455  22.764  20.608  0.00  0.00    +0.000 OA
ENDBRANCH   1   8
BRANCH   6   9
ATOM      9  O   UNL     1       4.217  24.315  21.879  0.00  0.00    +0.000 OA
ATOM     10  H   UNL     1       4.697  23.938  22.640  0.00  0.00    +0.000 HD
ENDBRANCH   6   9
TORSDOF 2
ENDMDL
MODEL 7
REMARK VINA RESULT:    -3.256     18.794     20.043
REMARK INTER + INTRA:          -3.582
REMARK INTER:                  -3.531
REMARK INTRA:                  -0.051
REMARK UNBOUND:                -0.040
REMARK  Name = 
REMARK  3 active torsions:
REMARK  status: ('A' for Active; 'I' for Inactive)
REMARK    1  A    between atoms: C_1  and  O_2
REMARK    2  A    between atoms: O_2  and  C_3
REMARK    3  A    between atoms: C_8  and  O_9
REMARK                            x       y       z     vdW  Elec       q    Type
REMARK                         _______ _______ _______ _____ _____    ______ ____
ROOT
ATOM      1  C   UNL     1      14.034   7.155  15.852  0.00  0.00    +0.000 A 
ATOM      2  C   UNL     1      14.467   5.926  15.356  0.00  0.00    +0.000 A 
ATOM      3  C   UNL     1      14.948   5.832  14.044  0.00  0.00    +0.000 A 
ATOM      4  C   UNL     1      14.997   6.962  13.225  0.00  0.00    +0.000 A 
ATOM      5  C   UNL     1      14.566   8.193  13.713  0.00  0.00    +0.000 A 
ATOM      6  C   UNL     1      14.090   8.277  15.015  0.00  0.00    +0.000 A 
ENDROOT
BRANCH   1   8
ATOM      7  C   UNL     1      12.388   6.652  17.490  0.00  0.00    +0.000 C 
ATOM      8  O   UNL     1      13.540   7.393  17.109  0.00  0.00    +0.000 OA
ENDBRANCH   1   8
BRANCH   6   9
ATOM      9  O   UNL     1      13.672   9.498  15.473  0.00  0.00    +0.000 OA
ATOM     10  H   UNL     1      13.576  10.045  14.670  0.00  0.00    +0.000 HD
ENDBRANCH   6   9
TORSDOF 2
ENDMDL
MODEL 8
REMARK VINA RESULT:    -3.242     19.062     20.854
REMARK INTER + INTRA:          -3.566
REMARK INTER:                  -3.516
REMARK INTRA:                  -0.051
REMARK UNBOUND:                -0.040
REMARK  Name = 
REMARK  3 active torsions:
REMARK  status: ('A' for Active; 'I' for Inactive)
REMARK    1  A    between atoms: C_1  and  O_2
REMARK    2  A    between atoms: O_2  and  C_3
REMARK    3  A    between atoms: C_8  and  O_9
REMARK                            x       y       z     vdW  Elec       q    Type
REMARK                         _______ _______ _______ _____ _____    ______ ____
ROOT
ATOM      1  C   UNL     1      14.349   6.963  16.223  0.00  0.00    +0.000 A 
ATOM      2  C   UNL     1      14.014   6.448  14.971  0.00  0.00    +0.000 A 
ATOM      3  C   UNL     1      15.014   5.938  14.134  0.00  0.00    +0.000 A 
ATOM      4  C   UNL     1      16.349   5.942  14.542  0.00  0.00    +0.000 A 
ATOM      5  C   UNL     1      16.692   6.455  15.791  0.00  0.00    +0.000 A 
ATOM      6  C   UNL     1      15.693   6.959  16.615  0.00  0.00    +0.000 A 
ENDROOT
BRANCH   1   8
ATOM      7  C   UNL     1      12.401   6.658  17.550  0.00  0.00    +0.000 C 
ATOM      8  O   UNL     1      13.478   7.493  17.141  0.00  0.00    +0.000 OA
ENDBRANCH   1   8
BRANCH   6   9
ATOM      9  O   UNL     1      16.054   7.458  17.838  0.00  0.00    +0.000 OA
ATOM     10  H   UNL     1      16.181   6.670  18.400  0.00  0.00    +0.000 HD
ENDBRANCH   6   9
TORSDOF 2
ENDMDL
MODEL 9
REMARK VINA RESULT:    -3.220     10.337     11.116
REMARK INTER + INTRA:          -3.543
REMARK INTER:                  -3.502
REMARK INTRA:                  -0.041
REMARK UNBOUND:                -0.040
REMARK  Name = 
REMARK  3 active torsions:
REMARK  status: ('A' for Active; 'I' for Inactive)
REMARK    1  A    between atoms: C_1  and  O_2
REMARK    2  A    between atoms: O_2  and  C_3
REMARK    3  A    between atoms: C_8  and  O_9
REMARK                            x       y       z     vdW  Elec       q    Type
REMARK                         _______ _______ _______ _____ _____    ______ ____
ROOT
ATOM      1  C   UNL     1      -0.349  13.998  14.670  0.00  0.00    +0.000 A 
ATOM      2  C   UNL     1       0.149  15.260  14.350  0.00  0.00    +0.000 A 
ATOM      3  C   UNL     1       0.703  16.068  15.351  0.00  0.00    +0.000 A 
ATOM      4  C   UNL     1       0.761  15.619  16.672  0.00  0.00    +0.000 A 
ATOM      5  C   UNL     1       0.265  14.359  16.999  0.00  0.00    +0.000 A 
ATOM      6  C   UNL     1      -0.283  13.565  16.000  0.00  0.00    +0.000 A 
ENDROOT
BRANCH   1   8
ATOM      7  C   UNL     1      -1.615  13.658  12.688  0.00  0.00    +0.000 C 
ATOM      8  O   UNL     1      -0.916  13.105  13.797  0.00  0.00    +0.000 OA
ENDBRANCH   1   8
BRANCH   6   9
ATOM      9  O   UNL     1      -0.763  12.330  16.346  0.00  0.00    +0.000 OA
ATOM     10  H   UNL     1      -0.696  11.800  15.530  0.00  0.00    +0.000 HD
ENDBRANCH   6   9
TORSDOF 2
ENDMDL
