MODEL 1
REMARK VINA RESULT:    -5.060      0.000      0.000
REMARK INTER + INTRA:          -5.550
REMARK INTER:                  -5.504
REMARK INTRA:                  -0.046
REMARK UNBOUND:                -0.046
REMARK  Name = 
REMARK  3 active torsions:
REMARK  status: ('A' for Active; 'I' for Inactive)
REMARK    1  A    between atoms: C_1  and  O_2
REMARK    2  A    between atoms: O_2  and  C_3
REMARK    3  A    between atoms: C_8  and  O_9
REMARK                            x       y       z     vdW  Elec       q    Type
REMARK                         _______ _______ _______ _____ _____    ______ ____
ROOT
ATOM      1  C   UNL     1       4.406  12.649   2.256  0.00  0.00    +0.000 A 
ATOM      2  C   UNL     1       5.032  13.786   1.747  0.00  0.00    +0.000 A 
ATOM      3  C   UNL     1       5.452  13.815   0.411  0.00  0.00    +0.000 A 
ATOM      4  C   UNL     1       5.249  12.711  -0.419  0.00  0.00    +0.000 A 
ATOM      5  C   UNL     1       4.624  11.571   0.082  0.00  0.00    +0.000 A 
ATOM      6  C   UNL     1       4.211  11.551   1.408  0.00  0.00    +0.000 A 
ENDROOT
BRANCH   1   8
ATOM      7  C   UNL     1       2.764  13.191   3.885  0.00  0.00    +0.000 C 
ATOM      8  O   UNL     1       3.946  12.481   3.537  0.00  0.00    +0.000 OA
ENDBRANCH   1   8
BRANCH   6   9
ATOM      9  O   UNL     1       3.599  10.420   1.878  0.00  0.00    +0.000 OA
ATOM     10  H   UNL     1       4.063   9.684   1.435  0.00  0.00    +0.000 HD
ENDBRANCH   6   9
TORSDOF 2
ENDMDL
MODEL 2
REMARK VINA RESULT:    -5.001      2.827      3.200
REMARK INTER + INTRA:          -5.485
REMARK INTER:                  -5.442
REMARK INTRA:                  -0.044
REMARK UNBOUND:                -0.046
REMARK  Name = 
REMARK  3 active torsions:
REMARK  status: ('A' for Active; 'I' for Inactive)
REMARK    1  A    between atoms: C_1  and  O_2
REMARK    2  A    between atoms: O_2  and  C_3
REMARK    3  A    between atoms: C_8  and  O_9
REMARK                            x       y       z     vdW  Elec       q    Type
REMARK                         _______ _______ _______ _____ _____    ______ ____
ROOT
ATOM      1  C   UNL     1       3.591  13.820  -0.019  0.00  0.00    +0.000 A 
ATOM      2  C   UNL     1       4.834  14.451  -0.032  0.00  0.00    +0.000 A 
ATOM      3  C   UNL     1       5.198  15.258  -1.117  0.00  0.00    +0.000 A 
ATOM      4  C   UNL     1       4.324  15.436  -2.191  0.00  0.00    +0.000 A 
ATOM      5  C   UNL     1       3.080  14.809  -2.186  0.00  0.00    +0.000 A 
ATOM      6  C   UNL     1       2.728  14.010  -1.105  0.00  0.00    +0.000 A 
ENDROOT
BRANCH   1   8
ATOM      7  C   UNL     1       3.414  13.379   2.309  0.00  0.00    +0.000 C 
ATOM      8  O   UNL     1       3.105  13.005   0.972  0.00  0.00    +0.000 OA
ENDBRANCH   1   8
BRANCH   6   9
ATOM      9  O   UNL     1       1.500  13.404  -1.122  0.00  0.00    +0.000 OA
ATOM     10  H   UNL     1       1.029  13.775  -0.352  0.00  0.00    +0.000 HD
ENDBRANCH   6   9
TORSDOF 2
ENDMDL
MODEL 3
REMARK VINA RESULT:    -4.966      2.444      2.908
REMARK INTER + INTRA:          -5.448
REMARK INTER:                  -5.420
REMARK INTRA:                  -0.027
REMARK UNBOUND:                -0.046
REMARK  Name = 
REMARK  3 active torsions:
REMARK  status: ('A' for Active; 'I' for Inactive)
REMARK    1  A    between atoms: C_1  and  O_2
REMARK    2  A    between atoms: O_2  and  C_3
REMARK    3  A    between atoms: C_8  and  O_9
REMARK                            x       y       z     vdW  Elec       q    Type
REMARK                         _______ _______ _______ _____ _____    ______ ____
ROOT
ATOM      1  C   UNL     1       3.708  13.291   0.244  0.00  0.00    +0.000 A 
ATOM      2  C   UNL     1       2.639  13.853  -0.451  0.00  0.00    +0.000 A 
ATOM      3  C   UNL     1       2.880  14.751  -1.499  0.00  0.00    +0.000 A 
ATOM      4  C   UNL     1       4.187  15.091  -1.853  0.00  0.00    +0.000 A 
ATOM      5  C   UNL     1       5.261  14.534  -1.163  0.00  0.00    +0.000 A 
ATOM      6  C   UNL     1       5.012  13.644  -0.125  0.00  0.00    +0.000 A 
ENDROOT
BRANCH   1   8
ATOM      7  C   UNL     1       3.304  12.949   2.561  0.00  0.00    +0.000 C 
ATOM      8  O   UNL     1       3.621  12.403   1.286  0.00  0.00    +0.000 OA
ENDBRANCH   1   8
BRANCH   6   9
ATOM      9  O   UNL     1       6.084  13.109   0.538  0.00  0.00    +0.000 OA
ATOM     10  H   UNL     1       5.816  13.102   1.477  0.00  0.00    +0.000 HD
ENDBRANCH   6   9
TORSDOF 2
ENDMDL
MODEL 4
REMARK VINA RESULT:    -4.932      2.797      3.822
REMARK INTER + INTRA:          -5.410
REMARK INTER:                  -5.361
REMARK INTRA:                  -0.049
REMARK UNBOUND:                -0.046
REMARK  Name = 
REMARK  3 active torsions:
REMARK  status: ('A' for Active; 'I' for Inactive)
REMARK    1  A    between atoms: C_1  and  O_2
REMARK    2  A    between atoms: O_2  and  C_3
REMARK    3  A    between atoms: C_8  and  O_9
REMARK                            x       y       z     vdW  Elec       q    Type
REMARK                         _______ _______ _______ _____ _____    ______ ____
ROOT
ATOM      1  C   UNL     1       4.351  13.956  -0.603  0.00  0.00    +0.000 A 
ATOM      2  C   UNL     1       5.513  14.052   0.160  0.00  0.00    +0.000 A 
ATOM      3  C   UNL     1       5.496  13.681   1.511  0.00  0.00    +0.000 A 
ATOM      4  C   UNL     1       4.320  13.217   2.102  0.00  0.00    +0.000 A 
ATOM      5  C   UNL     1       3.154  13.118   1.346  0.00  0.00    +0.000 A 
ATOM      6  C   UNL     1       3.181  13.487   0.007  0.00  0.00    +0.000 A 
ENDROOT
BRANCH   1   8
ATOM      7  C   UNL     1       4.251  15.668  -2.248  0.00  0.00    +0.000 C 
ATOM      8  O   UNL     1       4.222  14.282  -1.930  0.00  0.00    +0.000 OA
ENDBRANCH   1   8
BRANCH   6   9
ATOM      9  O   UNL     1       2.022  13.382  -0.715  0.00  0.00    +0.000 OA
ATOM     10  H   UNL     1       2.151  13.975  -1.480  0.00  0.00    +0.000 HD
ENDBRANCH   6   9
TORSDOF 2
ENDMDL
MODEL 5
REMARK VINA RESULT:    -4.919      2.692      3.550
REMARK INTER + INTRA:          -5.396
REMARK INTER:                  -5.344
REMARK INTRA:                  -0.053
REMARK UNBOUND:                -0.046
REMARK  Name = 
REMARK  3 active torsions:
REMARK  status: ('A' for Active; 'I' for Inactive)
REMARK    1  A    between atoms: C_1  and  O_2
REMARK    2  A    between atoms: O_2  and  C_3
REMARK    3  A    between atoms: C_8  and  O_9
REMARK                            x       y       z     vdW  Elec       q    Type
REMARK                         _______ _______ _______ _____ _____    ______ ____
ROOT
ATOM      1  C   UNL     1       3.535  14.261   0.382  0.00  0.00    +0.000 A 
ATOM      2  C   UNL     1       2.663  13.975  -0.668  0.00  0.00    +0.000 A 
ATOM      3  C   UNL     1       2.913  14.491  -1.945  0.00  0.00    +0.000 A 
ATOM      4  C   UNL     1       4.031  15.295  -2.178  0.00  0.00    +0.000 A 
ATOM      5  C   UNL     1       4.907  15.585  -1.135  0.00  0.00    +0.000 A 
ATOM      6  C   UNL     1       4.651  15.068   0.129  0.00  0.00    +0.000 A 
ENDROOT
BRANCH   1   8
ATOM      7  C   UNL     1       3.566  12.428   1.894  0.00  0.00    +0.000 C 
ATOM      8  O   UNL     1       3.416  13.826   1.677  0.00  0.00    +0.000 OA
ENDBRANCH   1   8
BRANCH   6   9
ATOM      9  O   UNL     1       5.527  15.367   1.139  0.00  0.00    +0.000 OA
ATOM     10  H   UNL     1       5.840  14.501   1.461  0.00  0.00    +0.000 HD
ENDBRANCH   6   9
TORSDOF 2
ENDMDL
MODEL 6
REMARK VINA RESULT:    -4.891      2.632      3.226
REMARK INTER + INTRA:          -5.366
REMARK INTER:                  -5.314
REMARK INTRA:                  -0.052
REMARK UNBOUND:                -0.046
REMARK  Name = 
REMARK  3 active torsions:
REMARK  status: ('A' for Active; 'I' for Inactive)
REMARK    1  A    between atoms: C_1  and  O_2
REMARK    2  A    between atoms: O_2  and  C_3
REMARK    3  A    between atoms: C_8  and  O_9
REMARK                            x       y       z     vdW  Elec       q    Type
REMARK                         _______ _______ _______ _____ _____    ______ ____
ROOT
ATOM      1  C   UNL     1       4.543  13.775  -0.250  0.00  0.00    +0.000 A 
ATOM      2  C   UNL     1       4.905  14.586  -1.326  0.00  0.00    +0.000 A 
ATOM      3  C   UNL     1       3.933  15.006  -2.243  0.00  0.00    +0.000 A 
ATOM      4  C   UNL     1       2.601  14.619  -2.090  0.00  0.00    +0.000 A 
ATOM      5  C   UNL     1       2.232  13.809  -1.018  0.00  0.00    +0.000 A 
ATOM      6  C   UNL     1       3.202  13.397  -0.113  0.00  0.00    +0.000 A 
ENDROOT
BRANCH   1   8
ATOM      7  C   UNL     1       5.923  14.244   1.626  0.00  0.00    +0.000 C 
ATOM      8  O   UNL     1       5.384  13.291   0.719  0.00  0.00    +0.000 OA
ENDBRANCH   1   8
BRANCH   6   9
ATOM      9  O   UNL     1       2.815  12.602   0.932  0.00  0.00    +0.000 OA
ATOM     10  H   UNL     1       2.715  11.712   0.544  0.00  0.00    +0.000 HD
ENDBRANCH   6   9
TORSDOF 2
ENDMDL
MODEL 7
REMARK VINA RESULT:    -4.803      3.416      4.014
REMARK INTER + INTRA:          -5.270
REMARK INTER:                  -5.219
REMARK INTRA:                  -0.052
REMARK UNBOUND:                -0.046
REMARK  Name = 
REMARK  3 active torsions:
REMARK  status: ('A' for Active; 'I' for Inactive)
REMARK    1  A    between atoms: C_1  and  O_2
REMARK    2  A    between atoms: O_2  and  C_3
REMARK    3  A    between atoms: C_8  and  O_9
REMARK                            x       y       z     vdW  Elec       q    Type
REMARK                         _______ _______ _______ _____ _____    ______ ____
ROOT
ATOM      1  C   UNL     1       3.262  14.122  -0.546  0.00  0.00    +0.000 A 
ATOM      2  C   UNL     1       3.007  13.416   0.629  0.00  0.00    +0.000 A 
ATOM      3  C   UNL     1       4.055  12.778   1.303  0.00  0.00    +0.000 A 
ATOM      4  C   UNL     1       5.359  12.842   0.807  0.00  0.00    +0.000 A 
ATOM      5  C   UNL     1       5.621  13.546  -0.366  0.00  0.00    +0.000 A 
ATOM      6  C   UNL     1       4.575  14.176  -1.028  0.00  0.00    +0.000 A 
ENDROOT
BRANCH   1   8
ATOM      7  C   UNL     1       1.266  14.016  -1.831  0.00  0.00    +0.000 C 
ATOM      8  O   UNL     1       2.337  14.791  -1.307  0.00  0.00    +0.000 OA
ENDBRANCH   1   8
BRANCH   6   9
ATOM      9  O   UNL     1       4.858  14.862  -2.179  0.00  0.00    +0.000 OA
ATOM     10  H   UNL     1       5.575  14.352  -2.602  0.00  0.00    +0.000 HD
ENDBRANCH   6   9
TORSDOF 2
ENDMDL
MODEL 8
REMARK VINA RESULT:    -4.705      1.401      2.795
REMARK INTER + INTRA:          -5.164
REMARK INTER:                  -5.118
REMARK INTRA:                  -0.046
REMARK UNBOUND:                -0.046
REMARK  Name = 
REMARK  3 active torsions:
REMARK  status: ('A' for Active; 'I' for Inactive)
REMARK    1  A    between atoms: C_1  and  O_2
REMARK    2  A    between atoms: O_2  and  C_3
REMARK    3  A    between atoms: C_8  and  O_9
REMARK                            x       y       z     vdW  Elec       q    Type
REMARK                         _______ _______ _______ _____ _____    ______ ____
ROOT
ATOM      1  C   UNL     1       4.582  12.354   0.763  0.00  0.00    +0.000 A 
ATOM      2  C   UNL     1       5.320  12.885  -0.294  0.00  0.00    +0.000 A 
ATOM      3  C   UNL     1       5.201  14.242  -0.618  0.00  0.00    +0.000 A 
ATOM      4  C   UNL     1       4.347  15.071   0.111  0.00  0.00    +0.000 A 
ATOM      5  C   UNL     1       3.606  14.549   1.169  0.00  0.00    +0.000 A 
ATOM      6  C   UNL     1       3.730  13.201   1.482  0.00  0.00    +0.000 A 
ENDROOT
BRANCH   1   8
ATOM      7  C   UNL     1       4.567  10.051   0.177  0.00  0.00    +0.000 C 
ATOM      8  O   UNL     1       4.598  11.050   1.189  0.00  0.00    +0.000 OA
ENDBRANCH   1   8
BRANCH   6   9
ATOM      9  O   UNL     1       2.992  12.710   2.526  0.00  0.00    +0.000 OA
ATOM     10  H   UNL     1       3.287  11.785   2.625  0.00  0.00    +0.000 HD
ENDBRANCH   6   9
TORSDOF 2
ENDMDL
MODEL 9
REMARK VINA RESULT:    -4.573      2.547      3.371
REMARK INTER + INTRA:          -5.020
REMARK INTER:                  -4.977
REMARK INTRA:                  -0.044
REMARK UNBOUND:                -0.046
REMARK  Name = 
REMARK  3 active torsions:
REMARK  status: ('A' for Active; 'I' for Inactive)
REMARK    1  A    between atoms: C_1  and  O_2
REMARK    2  A    between atoms: O_2  and  C_3
REMARK    3  A    between atoms: C_8  and  O_9
REMARK                            x       y       z     vdW  Elec       q    Type
REMARK                         _______ _______ _______ _____ _____    ______ ____
ROOT
ATOM      1  C   UNL     1       3.644  13.860  -0.662  0.00  0.00    +0.000 A 
ATOM      2  C   UNL     1       4.051  15.192  -0.585  0.00  0.00    +0.000 A 
ATOM      3  C   UNL     1       5.051  15.567   0.320  0.00  0.00    +0.000 A 
ATOM      4  C   UNL     1       5.646  14.615   1.151  0.00  0.00    +0.000 A 
ATOM      5  C   UNL     1       5.246  13.283   1.080  0.00  0.00    +0.000 A 
ATOM      6  C   UNL     1       4.253  12.920   0.179  0.00  0.00    +0.000 A 
ENDROOT
BRANCH   1   8
ATOM      7  C   UNL     1       1.540  14.173  -1.721  0.00  0.00    +0.000 C 
ATOM      8  O   UNL     1       2.681  13.353  -1.497  0.00  0.00    +0.000 OA
ENDBRANCH   1   8
BRANCH   6   9
ATOM      9  O   UNL     1       3.876  11.605   0.127  0.00  0.00    +0.000 OA
ATOM     10  H   UNL     1       3.682  11.439  -0.815  0.00  0.00    +0.000 HD
ENDBRANCH   6   9
TORSDOF 2
ENDMDL
