MODEL 1
REMARK VINA RESULT:    -3.915      0.000      0.000
REMARK INTER + INTRA:          -5.995
REMARK INTER:                  -5.288
REMARK INTRA:                  -0.707
REMARK UNBOUND:                -0.707
REMARK  Name = 
REMARK  10 active torsions:
REMARK  status: ('A' for Active; 'I' for Inactive)
REMARK    1  A    between atoms: C_1  and  C_2
REMARK    2  A    between atoms: C_5  and  N_8
REMARK    3  A    between atoms: N_8  and  C_9
REMARK    4  A    between atoms: N_8  and  C_13
REMARK    5  A    between atoms: C_9  and  C_10
REMARK    6  A    between atoms: C_10  and  C_11
REMARK    7  A    between atoms: C_10  and  O_12
REMARK    8  A    between atoms: C_13  and  C_14
REMARK    9  A    between atoms: C_14  and  C_15
REMARK   10  A    between atoms: C_14  and  O_16
REMARK                            x       y       z     vdW  Elec       q    Type
REMARK                         _______ _______ _______ _____ _____    ______ ____
ROOT
ATOM      1  N   UNL     1      10.345  18.757  15.356  0.00  0.00    +0.000 N 
ENDROOT
BRANCH   1   6
ATOM      2  C   UNL     1       5.217  17.237  13.182  0.00  0.00    +0.000 C 
ATOM      3  C   UNL     1       6.538  17.633  13.769  0.00  0.00    +0.000 A 
ATOM      4  C   UNL     1       6.925  18.968  13.819  0.00  0.00    +0.000 A 
ATOM      5  C   UNL     1       8.177  19.330  14.343  0.00  0.00    +0.000 A 
ATOM      6  C   UNL     1       9.106  18.387  14.817  0.00  0.00    +0.000 A 
ATOM      7  C   UNL     1       8.680  17.047  14.752  0.00  0.00    +0.000 A 
ATOM      8  C   UNL     1       7.430  16.671  14.233  0.00  0.00    +0.000 A 
ENDBRANCH   1   6
BRANCH   1   9
ATOM      9  C   UNL     1      10.415  19.793  16.414  0.00  0.00    +0.000 C 
BRANCH   9  10
ATOM     10  C   UNL     1      10.109  19.233  17.824  0.00  0.00    +0.000 C 
ATOM     11  C   UNL     1       8.674  19.543  18.234  0.00  0.00    +0.000 C 
BRANCH  10  12
ATOM     12  O   UNL     1      10.284  17.810  17.862  0.00  0.00    +0.000 OA
ATOM     13  H   UNL     1       9.407  17.397  17.807  0.00  0.00    +0.000 HD
ENDBRANCH  10  12
ENDBRANCH   9  10
ENDBRANCH   1   9
BRANCH   1  14
ATOM     14  C   UNL     1      11.606  18.552  14.597  0.00  0.00    +0.000 C 
BRANCH  14  15
ATOM     15  C   UNL     1      12.159  17.116  14.760  0.00  0.00    +0.000 C 
ATOM     16  C   UNL     1      13.667  17.028  14.555  0.00  0.00    +0.000 C 
BRANCH  15  17
ATOM     17  O   UNL     1      11.856  16.578  16.046  0.00  0.00    +0.000 OA
ATOM     18  H   UNL     1      12.522  16.969  16.647  0.00  0.00    +0.000 HD
ENDBRANCH  15  17
ENDBRANCH  14  15
ENDBRANCH   1  14
TORSDOF 7
ENDMDL
MODEL 2
REMARK VINA RESULT:    -3.865      1.317      3.142
REMARK INTER + INTRA:          -5.928
REMARK INTER:                  -5.227
REMARK INTRA:                  -0.700
REMARK UNBOUND:                -0.707
REMARK  Name = 
REMARK  10 active torsions:
REMARK  status: ('A' for Active; 'I' for Inactive)
REMARK    1  A    between atoms: C_1  and  C_2
REMARK    2  A    between atoms: C_5  and  N_8
REMARK    3  A    between atoms: N_8  and  C_9
REMARK    4  A    between atoms: N_8  and  C_13
REMARK    5  A    between atoms: C_9  and  C_10
REMARK    6  A    between atoms: C_10  and  C_11
REMARK    7  A    between atoms: C_10  and  O_12
REMARK    8  A    between atoms: C_13  and  C_14
REMARK    9  A    between atoms: C_14  and  C_15
REMARK   10  A    between atoms: C_14  and  O_16
REMARK                            x       y       z     vdW  Elec       q    Type
REMARK                         _______ _______ _______ _____ _____    ______ ____
ROOT
ATOM      1  N   UNL     1       9.731  17.846  15.304  0.00  0.00    +0.000 N 
ENDROOT
BRANCH   1   6
ATOM      2  C   UNL     1       4.619  16.976  12.767  0.00  0.00    +0.000 C 
ATOM      3  C   UNL     1       5.934  17.201  13.448  0.00  0.00    +0.000 A 
ATOM      4  C   UNL     1       6.411  18.488  13.672  0.00  0.00    +0.000 A 
ATOM      5  C   UNL     1       7.659  18.693  14.283  0.00  0.00    +0.000 A 
ATOM      6  C   UNL     1       8.497  17.634  14.677  0.00  0.00    +0.000 A 
ATOM      7  C   UNL     1       7.981  16.347  14.437  0.00  0.00    +0.000 A 
ATOM      8  C   UNL     1       6.734  16.128  13.829  0.00  0.00    +0.000 A 
ENDBRANCH   1   6
BRANCH   1   9
ATOM      9  C   UNL     1      10.986  17.425  14.636  0.00  0.00    +0.000 C 
BRANCH   9  10
ATOM     10  C   UNL     1      11.888  18.620  14.245  0.00  0.00    +0.000 C 
ATOM     11  C   UNL     1      11.050  19.813  13.799  0.00  0.00    +0.000 C 
BRANCH  10  12
ATOM     12  O   UNL     1      12.699  19.037  15.352  0.00  0.00    +0.000 OA
ATOM     13  H   UNL     1      12.388  19.911  15.641  0.00  0.00    +0.000 HD
ENDBRANCH  10  12
ENDBRANCH   9  10
ENDBRANCH   1   9
BRANCH   1  14
ATOM     14  C   UNL     1       9.829  17.997  16.779  0.00  0.00    +0.000 C 
BRANCH  14  15
ATOM     15  C   UNL     1       9.687  19.471  17.226  0.00  0.00    +0.000 C 
ATOM     16  C   UNL     1       8.791  19.644  18.447  0.00  0.00    +0.000 C 
BRANCH  15  17
ATOM     17  O   UNL     1      10.954  20.057  17.521  0.00  0.00    +0.000 OA
ATOM     18  H   UNL     1      11.041  19.994  18.494  0.00  0.00    +0.000 HD
ENDBRANCH  15  17
ENDBRANCH  14  15
ENDBRANCH   1  14
TORSDOF 7
ENDMDL
MODEL 3
REMARK VINA RESULT:    -3.857      7.820     10.544
REMARK INTER + INTRA:          -5.916
REMARK INTER:                  -5.325
REMARK INTRA:                  -0.592
REMARK UNBOUND:                -0.707
REMARK  Name = 
REMARK  10 active torsions:
REMARK  status: ('A' for Active; 'I' for Inactive)
REMARK    1  A    between atoms: C_1  and  C_2
REMARK    2  A    between atoms: C_5  and  N_8
REMARK    3  A    between atoms: N_8  and  C_9
REMARK    4  A    between atoms: N_8  and  C_13
REMARK    5  A    between atoms: C_9  and  C_10
REMARK    6  A    between atoms: C_10  and  C_11
REMARK    7  A    between atoms: C_10  and  O_12
REMARK    8  A    between atoms: C_13  and  C_14
REMARK    9  A    between atoms: C_14  and  C_15
REMARK   10  A    between atoms: C_14  and  O_16
REMARK                            x       y       z     vdW  Elec       q    Type
REMARK                         _______ _______ _______ _____ _____    ______ ____
ROOT
ATOM      1  N   UNL     1      -0.008  14.669  14.443  0.00  0.00    +0.000 N 
ENDROOT
BRANCH   1   6
ATOM      2  C   UNL     1       5.479  14.574  12.651  0.00  0.00    +0.000 C 
ATOM      3  C   UNL     1       4.048  14.591  13.093  0.00  0.00    +0.000 A 
ATOM      4  C   UNL     1       3.289  15.754  13.013  0.00  0.00    +0.000 A 
ATOM      5  C   UNL     1       1.957  15.773  13.457  0.00  0.00    +0.000 A 
ATOM      6  C   UNL     1       1.327  14.649  14.020  0.00  0.00    +0.000 A 
ATOM      7  C   UNL     1       2.123  13.490  14.084  0.00  0.00    +0.000 A 
ATOM      8  C   UNL     1       3.455  13.457  13.641  0.00  0.00    +0.000 A 
ENDBRANCH   1   6
BRANCH   1   9
ATOM      9  C   UNL     1      -1.104  14.711  13.445  0.00  0.00    +0.000 C 
BRANCH   9  10
ATOM     10  C   UNL     1      -1.693  13.311  13.142  0.00  0.00    +0.000 C 
ATOM     11  C   UNL     1      -0.948  12.643  11.993  0.00  0.00    +0.000 C 
BRANCH  10  12
ATOM     12  O   UNL     1      -1.602  12.455  14.289  0.00  0.00    +0.000 OA
ATOM     13  H   UNL     1      -2.343  11.827  14.256  0.00  0.00    +0.000 HD
ENDBRANCH  10  12
ENDBRANCH   9  10
ENDBRANCH   1   9
BRANCH   1  14
ATOM     14  C   UNL     1      -0.378  15.155  15.797  0.00  0.00    +0.000 C 
BRANCH  14  15
ATOM     15  C   UNL     1      -0.008  14.138  16.904  0.00  0.00    +0.000 C 
ATOM     16  C   UNL     1       1.115  14.624  17.813  0.00  0.00    +0.000 C 
BRANCH  15  17
ATOM     17  O   UNL     1      -1.132  13.818  17.723  0.00  0.00    +0.000 OA
ATOM     18  H   UNL     1      -0.773  13.751  18.631  0.00  0.00    +0.000 HD
ENDBRANCH  15  17
ENDBRANCH  14  15
ENDBRANCH   1  14
TORSDOF 7
ENDMDL
MODEL 4
REMARK VINA RESULT:    -3.843      9.676     11.904
REMARK INTER + INTRA:          -5.897
REMARK INTER:                  -5.464
REMARK INTRA:                  -0.433
REMARK UNBOUND:                -0.707
REMARK  Name = 
REMARK  10 active torsions:
REMARK  status: ('A' for Active; 'I' for Inactive)
REMARK    1  A    between atoms: C_1  and  C_2
REMARK    2  A    between atoms: C_5  and  N_8
REMARK    3  A    between atoms: N_8  and  C_9
REMARK    4  A    between atoms: N_8  and  C_13
REMARK    5  A    between atoms: C_9  and  C_10
REMARK    6  A    between atoms: C_10  and  C_11
REMARK    7  A    between atoms: C_10  and  O_12
REMARK    8  A    between atoms: C_13  and  C_14
REMARK    9  A    between atoms: C_14  and  C_15
REMARK   10  A    between atoms: C_14  and  O_16
REMARK                            x       y       z     vdW  Elec       q    Type
REMARK                         _______ _______ _______ _____ _____    ______ ____
ROOT
ATOM      1  N   UNL     1       4.715   9.440  10.591  0.00  0.00    +0.000 N 
ENDROOT
BRANCH   1   6
ATOM      2  C   UNL     1       9.300   7.104   7.973  0.00  0.00    +0.000 C 
ATOM      3  C   UNL     1       8.121   7.733   8.651  0.00  0.00    +0.000 A 
ATOM      4  C   UNL     1       8.051   7.809  10.038  0.00  0.00    +0.000 A 
ATOM      5  C   UNL     1       6.930   8.372  10.669  0.00  0.00    +0.000 A 
ATOM      6  C   UNL     1       5.821   8.862   9.956  0.00  0.00    +0.000 A 
ATOM      7  C   UNL     1       5.927   8.771   8.555  0.00  0.00    +0.000 A 
ATOM      8  C   UNL     1       7.043   8.212   7.912  0.00  0.00    +0.000 A 
ENDBRANCH   1   6
BRANCH   1   9
ATOM      9  C   UNL     1       3.359   8.876  10.383  0.00  0.00    +0.000 C 
BRANCH   9  10
ATOM     10  C   UNL     1       2.680   8.442  11.705  0.00  0.00    +0.000 C 
ATOM     11  C   UNL     1       1.306   7.839  11.440  0.00  0.00    +0.000 C 
BRANCH  10  12
ATOM     12  O   UNL     1       3.471   7.462  12.392  0.00  0.00    +0.000 OA
ATOM     13  H   UNL     1       3.321   7.570  13.346  0.00  0.00    +0.000 HD
ENDBRANCH  10  12
ENDBRANCH   9  10
ENDBRANCH   1   9
BRANCH   1  14
ATOM     14  C   UNL     1       4.739  10.855  11.041  0.00  0.00    +0.000 C 
BRANCH  14  15
ATOM     15  C   UNL     1       4.942  10.978  12.570  0.00  0.00    +0.000 C 
ATOM     16  C   UNL     1       6.402  11.160  12.969  0.00  0.00    +0.000 C 
BRANCH  15  17
ATOM     17  O   UNL     1       4.197  12.066  13.115  0.00  0.00    +0.000 OA
ATOM     18  H   UNL     1       4.870  12.675  13.481  0.00  0.00    +0.000 HD
ENDBRANCH  15  17
ENDBRANCH  14  15
ENDBRANCH   1  14
TORSDOF 7
ENDMDL
MODEL 5
REMARK VINA RESULT:    -3.841      8.042     10.245
REMARK INTER + INTRA:          -5.895
REMARK INTER:                  -5.144
REMARK INTRA:                  -0.752
REMARK UNBOUND:                -0.707
REMARK  Name = 
REMARK  10 active torsions:
REMARK  status: ('A' for Active; 'I' for Inactive)
REMARK    1  A    between atoms: C_1  and  C_2
REMARK    2  A    between atoms: C_5  and  N_8
REMARK    3  A    between atoms: N_8  and  C_9
REMARK    4  A    between atoms: N_8  and  C_13
REMARK    5  A    between atoms: C_9  and  C_10
REMARK    6  A    between atoms: C_10  and  C_11
REMARK    7  A    between atoms: C_10  and  O_12
REMARK    8  A    between atoms: C_13  and  C_14
REMARK    9  A    between atoms: C_14  and  C_15
REMARK   10  A    between atoms: C_14  and  O_16
REMARK                            x       y       z     vdW  Elec       q    Type
REMARK                         _______ _______ _______ _____ _____    ______ ____
ROOT
ATOM      1  N   UNL     1       5.933  11.093  11.315  0.00  0.00    +0.000 N 
ENDROOT
BRANCH   1   6
ATOM      2  C   UNL     1       9.900   7.143   9.903  0.00  0.00    +0.000 C 
ATOM      3  C   UNL     1       8.867   8.173  10.245  0.00  0.00    +0.000 A 
ATOM      4  C   UNL     1       9.228   9.494  10.487  0.00  0.00    +0.000 A 
ATOM      5  C   UNL     1       8.259  10.448  10.837  0.00  0.00    +0.000 A 
ATOM      6  C   UNL     1       6.897  10.131  10.985  0.00  0.00    +0.000 A 
ATOM      7  C   UNL     1       6.568   8.787  10.731  0.00  0.00    +0.000 A 
ATOM      8  C   UNL     1       7.526   7.823  10.378  0.00  0.00    +0.000 A 
ENDBRANCH   1   6
BRANCH   1   9
ATOM      9  C   UNL     1       4.563  10.993  10.757  0.00  0.00    +0.000 C 
BRANCH   9  10
ATOM     10  C   UNL     1       3.488  10.750  11.844  0.00  0.00    +0.000 C 
ATOM     11  C   UNL     1       2.319   9.949  11.285  0.00  0.00    +0.000 C 
BRANCH  10  12
ATOM     12  O   UNL     1       4.034  10.022  12.954  0.00  0.00    +0.000 OA
ATOM     13  H   UNL     1       4.578  10.635  13.477  0.00  0.00    +0.000 HD
ENDBRANCH  10  12
ENDBRANCH   9  10
ENDBRANCH   1   9
BRANCH   1  14
ATOM     14  C   UNL     1       6.326  12.452  11.767  0.00  0.00    +0.000 C 
BRANCH  14  15
ATOM     15  C   UNL     1       6.407  12.554  13.309  0.00  0.00    +0.000 C 
ATOM     16  C   UNL     1       5.259  13.350  13.918  0.00  0.00    +0.000 C 
BRANCH  15  17
ATOM     17  O   UNL     1       6.425  11.266  13.923  0.00  0.00    +0.000 OA
ATOM     18  H   UNL     1       6.047  10.661  13.252  0.00  0.00    +0.000 HD
ENDBRANCH  15  17
ENDBRANCH  14  15
ENDBRANCH   1  14
TORSDOF 7
ENDMDL
MODEL 6
REMARK VINA RESULT:    -3.835      9.258     11.369
REMARK INTER + INTRA:          -5.886
REMARK INTER:                  -5.218
REMARK INTRA:                  -0.668
REMARK UNBOUND:                -0.707
REMARK  Name = 
REMARK  10 active torsions:
REMARK  status: ('A' for Active; 'I' for Inactive)
REMARK    1  A    between atoms: C_1  and  C_2
REMARK    2  A    between atoms: C_5  and  N_8
REMARK    3  A    between atoms: N_8  and  C_9
REMARK    4  A    between atoms: N_8  and  C_13
REMARK    5  A    between atoms: C_9  and  C_10
REMARK    6  A    between atoms: C_10  and  C_11
REMARK    7  A    between atoms: C_10  and  O_12
REMARK    8  A    between atoms: C_13  and  C_14
REMARK    9  A    between atoms: C_14  and  C_15
REMARK   10  A    between atoms: C_14  and  O_16
REMARK                            x       y       z     vdW  Elec       q    Type
REMARK                         _______ _______ _______ _____ _____    ______ ____
ROOT
ATOM      1  N   UNL     1       5.467   9.672  10.932  0.00  0.00    +0.000 N 
ENDROOT
BRANCH   1   6
ATOM      2  C   UNL     1       9.358   6.975   7.627  0.00  0.00    +0.000 C 
ATOM      3  C   UNL     1       8.356   7.697   8.475  0.00  0.00    +0.000 A 
ATOM      4  C   UNL     1       8.681   8.125   9.758  0.00  0.00    +0.000 A 
ATOM      5  C   UNL     1       7.728   8.775  10.559  0.00  0.00    +0.000 A 
ATOM      6  C   UNL     1       6.407   9.006  10.135  0.00  0.00    +0.000 A 
ATOM      7  C   UNL     1       6.114   8.562   8.832  0.00  0.00    +0.000 A 
ATOM      8  C   UNL     1       7.058   7.913   8.019  0.00  0.00    +0.000 A 
ENDBRANCH   1   6
BRANCH   1   9
ATOM      9  C   UNL     1       5.756  11.033  11.442  0.00  0.00    +0.000 C 
BRANCH   9  10
ATOM     10  C   UNL     1       6.130  11.044  12.945  0.00  0.00    +0.000 C 
ATOM     11  C   UNL     1       7.538  11.588  13.152  0.00  0.00    +0.000 C 
BRANCH  10  12
ATOM     12  O   UNL     1       5.222  11.864  13.695  0.00  0.00    +0.000 OA
ATOM     13  H   UNL     1       4.416  11.347  13.860  0.00  0.00    +0.000 HD
ENDBRANCH  10  12
ENDBRANCH   9  10
ENDBRANCH   1   9
BRANCH   1  14
ATOM     14  C   UNL     1       4.443   8.921  11.702  0.00  0.00    +0.000 C 
BRANCH  14  15
ATOM     15  C   UNL     1       3.077   9.648  11.723  0.00  0.00    +0.000 C 
ATOM     16  C   UNL     1       1.928   8.782  11.222  0.00  0.00    +0.000 C 
BRANCH  15  17
ATOM     17  O   UNL     1       2.745  10.108  13.032  0.00  0.00    +0.000 OA
ATOM     18  H   UNL     1       3.027  11.045  13.050  0.00  0.00    +0.000 HD
ENDBRANCH  15  17
ENDBRANCH  14  15
ENDBRANCH   1  14
TORSDOF 7
ENDMDL
MODEL 7
REMARK VINA RESULT:    -3.787      8.940     11.277
REMARK INTER + INTRA:          -5.822
REMARK INTER:                  -5.280
REMARK INTRA:                  -0.542
REMARK UNBOUND:                -0.707
REMARK  Name = 
REMARK  10 active torsions:
REMARK  status: ('A' for Active; 'I' for Inactive)
REMARK    1  A    between atoms: C_1  and  C_2
REMARK    2  A    between atoms: C_5  and  N_8
REMARK    3  A    between atoms: N_8  and  C_9
REMARK    4  A    between atoms: N_8  and  C_13
REMARK    5  A    between atoms: C_9  and  C_10
REMARK    6  A    between atoms: C_10  and  C_11
REMARK    7  A    between atoms: C_10  and  O_12
REMARK    8  A    between atoms: C_13  and  C_14
REMARK    9  A    between atoms: C_14  and  C_15
REMARK   10  A    between atoms: C_14  and  O_16
REMARK                            x       y       z     vdW  Elec       q    Type
REMARK                         _______ _______ _______ _____ _____    ______ ____
ROOT
ATOM      1  N   UNL     1       4.900   9.676  11.345  0.00  0.00    +0.000 N 
ENDROOT
BRANCH   1   6
ATOM      2  C   UNL     1      10.388   8.479  10.010  0.00  0.00    +0.000 C 
ATOM      3  C   UNL     1       8.960   8.796  10.333  0.00  0.00    +0.000 A 
ATOM      4  C   UNL     1       8.598  10.051  10.812  0.00  0.00    +0.000 A 
ATOM      5  C   UNL     1       7.263  10.334  11.141  0.00  0.00    +0.000 A 
ATOM      6  C   UNL     1       6.234   9.381  11.033  0.00  0.00    +0.000 A 
ATOM      7  C   UNL     1       6.635   8.124  10.544  0.00  0.00    +0.000 A 
ATOM      8  C   UNL     1       7.967   7.829  10.208  0.00  0.00    +0.000 A 
ENDBRANCH   1   6
BRANCH   1   9
ATOM      9  C   UNL     1       4.576  10.437  12.575  0.00  0.00    +0.000 C 
BRANCH   9  10
ATOM     10  C   UNL     1       4.074  11.871  12.279  0.00  0.00    +0.000 C 
ATOM     11  C   UNL     1       2.625  12.043  12.718  0.00  0.00    +0.000 C 
BRANCH  10  12
ATOM     12  O   UNL     1       4.867  12.847  12.970  0.00  0.00    +0.000 OA
ATOM     13  H   UNL     1       4.448  13.020  13.830  0.00  0.00    +0.000 HD
ENDBRANCH  10  12
ENDBRANCH   9  10
ENDBRANCH   1   9
BRANCH   1  14
ATOM     14  C   UNL     1       3.785   8.857  10.805  0.00  0.00    +0.000 C 
BRANCH  14  15
ATOM     15  C   UNL     1       2.845   8.342  11.921  0.00  0.00    +0.000 C 
ATOM     16  C   UNL     1       1.423   8.086  11.436  0.00  0.00    +0.000 C 
BRANCH  15  17
ATOM     17  O   UNL     1       3.334   7.137  12.508  0.00  0.00    +0.000 OA
ATOM     18  H   UNL     1       2.549   6.560  12.593  0.00  0.00    +0.000 HD
ENDBRANCH  15  17
ENDBRANCH  14  15
ENDBRANCH   1  14
TORSDOF 7
ENDMDL
MODEL 8
REMARK VINA RESULT:    -3.749      8.008     10.204
REMARK INTER + INTRA:          -5.770
REMARK INTER:                  -5.268
REMARK INTRA:                  -0.502
REMARK UNBOUND:                -0.707
REMARK  Name = 
REMARK  10 active torsions:
REMARK  status: ('A' for Active; 'I' for Inactive)
REMARK    1  A    between atoms: C_1  and  C_2
REMARK    2  A    between atoms: C_5  and  N_8
REMARK    3  A    between atoms: N_8  and  C_9
REMARK    4  A    between atoms: N_8  and  C_13
REMARK    5  A    between atoms: C_9  and  C_10
REMARK    6  A    between atoms: C_10  and  C_11
REMARK    7  A    between atoms: C_10  and  O_12
REMARK    8  A    between atoms: C_13  and  C_14
REMARK    9  A    between atoms: C_14  and  C_15
REMARK   10  A    between atoms: C_14  and  O_16
REMARK                            x       y       z     vdW  Elec       q    Type
REMARK                         _______ _______ _______ _____ _____    ______ ____
ROOT
ATOM      1  N   UNL     1       5.838  10.714  11.764  0.00  0.00    +0.000 N 
ENDROOT
BRANCH   1   6
ATOM      2  C   UNL     1       9.876   7.304   9.442  0.00  0.00    +0.000 C 
ATOM      3  C   UNL     1       8.834   8.179  10.067  0.00  0.00    +0.000 A 
ATOM      4  C   UNL     1       7.515   7.752  10.179  0.00  0.00    +0.000 A 
ATOM      5  C   UNL     1       6.536   8.589  10.739  0.00  0.00    +0.000 A 
ATOM      6  C   UNL     1       6.816   9.892  11.189  0.00  0.00    +0.000 A 
ATOM      7  C   UNL     1       8.159  10.290  11.063  0.00  0.00    +0.000 A 
ATOM      8  C   UNL     1       9.149   9.462  10.507  0.00  0.00    +0.000 A 
ENDBRANCH   1   6
BRANCH   1   9
ATOM      9  C   UNL     1       6.083  11.351  13.081  0.00  0.00    +0.000 C 
BRANCH   9  10
ATOM     10  C   UNL     1       6.470  12.846  12.962  0.00  0.00    +0.000 C 
ATOM     11  C   UNL     1       5.502  13.723  13.746  0.00  0.00    +0.000 C 
BRANCH  10  12
ATOM     12  O   UNL     1       7.791  13.078  13.469  0.00  0.00    +0.000 OA
ATOM     13  H   UNL     1       7.900  12.550  14.278  0.00  0.00    +0.000 HD
ENDBRANCH  10  12
ENDBRANCH   9  10
ENDBRANCH   1   9
BRANCH   1  14
ATOM     14  C   UNL     1       4.407  10.583  11.391  0.00  0.00    +0.000 C 
BRANCH  14  15
ATOM     15  C   UNL     1       3.468  10.738  12.612  0.00  0.00    +0.000 C 
ATOM     16  C   UNL     1       2.489  11.897  12.472  0.00  0.00    +0.000 C 
BRANCH  15  17
ATOM     17  O   UNL     1       2.715   9.550  12.851  0.00  0.00    +0.000 OA
ATOM     18  H   UNL     1       1.788   9.793  12.652  0.00  0.00    +0.000 HD
ENDBRANCH  15  17
ENDBRANCH  14  15
ENDBRANCH   1  14
TORSDOF 7
ENDMDL
MODEL 9
REMARK VINA RESULT:    -3.732     10.722     13.399
REMARK INTER + INTRA:          -5.747
REMARK INTER:                  -5.064
REMARK INTRA:                  -0.684
REMARK UNBOUND:                -0.707
REMARK  Name = 
REMARK  10 active torsions:
REMARK  status: ('A' for Active; 'I' for Inactive)
REMARK    1  A    between atoms: C_1  and  C_2
REMARK    2  A    between atoms: C_5  and  N_8
REMARK    3  A    between atoms: N_8  and  C_9
REMARK    4  A    between atoms: N_8  and  C_13
REMARK    5  A    between atoms: C_9  and  C_10
REMARK    6  A    between atoms: C_10  and  C_11
REMARK    7  A    between atoms: C_10  and  O_12
REMARK    8  A    between atoms: C_13  and  C_14
REMARK    9  A    between atoms: C_14  and  C_15
REMARK   10  A    between atoms: C_14  and  O_16
REMARK                            x       y       z     vdW  Elec       q    Type
REMARK                         _______ _______ _______ _____ _____    ______ ____
ROOT
ATOM      1  N   UNL     1      15.972   7.479  16.029  0.00  0.00    +0.000 N 
ENDROOT
BRANCH   1   6
ATOM      2  C   UNL     1      17.547   3.873  11.804  0.00  0.00    +0.000 C 
ATOM      3  C   UNL     1      17.149   4.828  12.888  0.00  0.00    +0.000 A 
ATOM      4  C   UNL     1      17.970   5.039  13.991  0.00  0.00    +0.000 A 
ATOM      5  C   UNL     1      17.578   5.912  15.019  0.00  0.00    +0.000 A 
ATOM      6  C   UNL     1      16.348   6.594  15.010  0.00  0.00    +0.000 A 
ATOM      7  C   UNL     1      15.545   6.359  13.879  0.00  0.00    +0.000 A 
ATOM      8  C   UNL     1      15.926   5.490  12.843  0.00  0.00    +0.000 A 
ENDBRANCH   1   6
BRANCH   1   9
ATOM      9  C   UNL     1      16.837   8.634  16.367  0.00  0.00    +0.000 C 
BRANCH   9  10
ATOM     10  C   UNL     1      16.196   9.993  15.996  0.00  0.00    +0.000 C 
ATOM     11  C   UNL     1      15.402   9.885  14.699  0.00  0.00    +0.000 C 
BRANCH  10  12
ATOM     12  O   UNL     1      15.304  10.441  17.026  0.00  0.00    +0.000 OA
ATOM     13  H   UNL     1      15.748  11.149  17.522  0.00  0.00    +0.000 HD
ENDBRANCH  10  12
ENDBRANCH   9  10
ENDBRANCH   1   9
BRANCH   1  14
ATOM     14  C   UNL     1      15.043   7.057  17.109  0.00  0.00    +0.000 C 
BRANCH  14  15
ATOM     15  C   UNL     1      13.562   7.306  16.735  0.00  0.00    +0.000 C 
ATOM     16  C   UNL     1      12.608   6.294  17.359  0.00  0.00    +0.000 C 
BRANCH  15  17
ATOM     17  O   UNL     1      13.133   8.612  17.119  0.00  0.00    +0.000 OA
ATOM     18  H   UNL     1      12.156   8.575  17.093  0.00  0.00    +0.000 HD
ENDBRANCH  15  17
ENDBRANCH  14  15
ENDBRANCH   1  14
TORSDOF 7
ENDMDL
