MODEL 1
REMARK VINA RESULT:    -5.011      0.000      0.000
REMARK INTER + INTRA:          -5.493
REMARK INTER:                  -5.451
REMARK INTRA:                  -0.043
REMARK UNBOUND:                -0.043
REMARK  Name = 
REMARK  3 active torsions:
REMARK  status: ('A' for Active; 'I' for Inactive)
REMARK    1  A    between atoms: C_1  and  O_2
REMARK    2  A    between atoms: O_2  and  C_3
REMARK    3  A    between atoms: C_8  and  O_9
REMARK                            x       y       z     vdW  Elec       q    Type
REMARK                         _______ _______ _______ _____ _____    ______ ____
ROOT
ATOM      1  C   UNL     1       3.574  13.802   0.003  0.00  0.00    +0.000 A 
ATOM      2  C   UNL     1       4.829  14.411  -0.015  0.00  0.00    +0.000 A 
ATOM      3  C   UNL     1       5.204  15.208  -1.104  0.00  0.00    +0.000 A 
ATOM      4  C   UNL     1       4.330  15.398  -2.176  0.00  0.00    +0.000 A 
ATOM      5  C   UNL     1       3.075  14.794  -2.165  0.00  0.00    +0.000 A 
ATOM      6  C   UNL     1       2.712  14.005  -1.081  0.00  0.00    +0.000 A 
ENDROOT
BRANCH   1   8
ATOM      7  C   UNL     1       3.444  13.338   2.330  0.00  0.00    +0.000 C 
ATOM      8  O   UNL     1       3.077  12.999   0.998  0.00  0.00    +0.000 OA
ENDBRANCH   1   8
BRANCH   6   9
ATOM      9  O   UNL     1       1.473  13.421  -1.093  0.00  0.00    +0.000 OA
ATOM     10  H   UNL     1       1.534  12.696  -0.442  0.00  0.00    +0.000 HD
ENDBRANCH   6   9
TORSDOF 2
ENDMDL
MODEL 2
REMARK VINA RESULT:    -4.967      1.330      2.349
REMARK INTER + INTRA:          -5.445
REMARK INTER:                  -5.415
REMARK INTRA:                  -0.030
REMARK UNBOUND:                -0.043
REMARK  Name = 
REMARK  3 active torsions:
REMARK  status: ('A' for Active; 'I' for Inactive)
REMARK    1  A    between atoms: C_1  and  O_2
REMARK    2  A    between atoms: O_2  and  C_3
REMARK    3  A    between atoms: C_8  and  O_9
REMARK                            x       y       z     vdW  Elec       q    Type
REMARK                         _______ _______ _______ _____ _____    ______ ____
ROOT
ATOM      1  C   UNL     1       3.717  13.262   0.315  0.00  0.00    +0.000 A 
ATOM      2  C   UNL     1       2.640  13.803  -0.386  0.00  0.00    +0.000 A 
ATOM      3  C   UNL     1       2.870  14.682  -1.452  0.00  0.00    +0.000 A 
ATOM      4  C   UNL     1       4.173  15.022  -1.821  0.00  0.00    +0.000 A 
ATOM      5  C   UNL     1       5.254  14.484  -1.125  0.00  0.00    +0.000 A 
ATOM      6  C   UNL     1       5.017  13.614  -0.069  0.00  0.00    +0.000 A 
ENDROOT
BRANCH   1   8
ATOM      7  C   UNL     1       3.319  12.963   2.639  0.00  0.00    +0.000 C 
ATOM      8  O   UNL     1       3.641  12.394   1.375  0.00  0.00    +0.000 OA
ENDBRANCH   1   8
BRANCH   6   9
ATOM      9  O   UNL     1       6.095  13.099   0.599  0.00  0.00    +0.000 OA
ATOM     10  H   UNL     1       6.384  12.340   0.058  0.00  0.00    +0.000 HD
ENDBRANCH   6   9
TORSDOF 2
ENDMDL
MODEL 3
REMARK VINA RESULT:    -4.947      1.340      3.144
REMARK INTER + INTRA:          -5.423
REMARK INTER:                  -5.376
REMARK INTRA:                  -0.047
REMARK UNBOUND:                -0.043
REMARK  Name = 
REMARK  3 active torsions:
REMARK  status: ('A' for Active; 'I' for Inactive)
REMARK    1  A    between atoms: C_1  and  O_2
REMARK    2  A    between atoms: O_2  and  C_3
REMARK    3  A    between atoms: C_8  and  O_9
REMARK                            x       y       z     vdW  Elec       q    Type
REMARK                         _______ _______ _______ _____ _____    ______ ____
ROOT
ATOM      1  C   UNL     1       4.309  13.957  -0.663  0.00  0.00    +0.000 A 
ATOM      2  C   UNL     1       5.485  14.036   0.082  0.00  0.00    +0.000 A 
ATOM      3  C   UNL     1       5.485  13.663   1.432  0.00  0.00    +0.000 A 
ATOM      4  C   UNL     1       4.312  13.212   2.042  0.00  0.00    +0.000 A 
ATOM      5  C   UNL     1       3.133  13.130   1.304  0.00  0.00    +0.000 A 
ATOM      6  C   UNL     1       3.143  13.502  -0.035  0.00  0.00    +0.000 A 
ENDROOT
BRANCH   1   8
ATOM      7  C   UNL     1       4.188  15.675  -2.300  0.00  0.00    +0.000 C 
ATOM      8  O   UNL     1       4.164  14.287  -1.986  0.00  0.00    +0.000 OA
ENDBRANCH   1   8
BRANCH   6   9
ATOM      9  O   UNL     1       1.973  13.412  -0.739  0.00  0.00    +0.000 OA
ATOM     10  H   UNL     1       2.164  12.783  -1.461  0.00  0.00    +0.000 HD
ENDBRANCH   6   9
TORSDOF 2
ENDMDL
MODEL 4
REMARK VINA RESULT:    -4.856      1.345      1.961
REMARK INTER + INTRA:          -5.325
REMARK INTER:                  -5.319
REMARK INTRA:                  -0.006
REMARK UNBOUND:                -0.043
REMARK  Name = 
REMARK  3 active torsions:
REMARK  status: ('A' for Active; 'I' for Inactive)
REMARK    1  A    between atoms: C_1  and  O_2
REMARK    2  A    between atoms: O_2  and  C_3
REMARK    3  A    between atoms: C_8  and  O_9
REMARK                            x       y       z     vdW  Elec       q    Type
REMARK                         _______ _______ _______ _____ _____    ______ ____
ROOT
ATOM      1  C   UNL     1       4.903  13.911  -0.406  0.00  0.00    +0.000 A 
ATOM      2  C   UNL     1       5.152  14.961  -1.289  0.00  0.00    +0.000 A 
ATOM      3  C   UNL     1       4.144  15.398  -2.158  0.00  0.00    +0.000 A 
ATOM      4  C   UNL     1       2.888  14.789  -2.148  0.00  0.00    +0.000 A 
ATOM      5  C   UNL     1       2.631  13.740  -1.268  0.00  0.00    +0.000 A 
ATOM      6  C   UNL     1       3.637  13.313  -0.410  0.00  0.00    +0.000 A 
ENDROOT
BRANCH   1   8
ATOM      7  C   UNL     1       5.923  14.068   1.735  0.00  0.00    +0.000 C 
ATOM      8  O   UNL     1       5.791  13.381   0.496  0.00  0.00    +0.000 OA
ENDBRANCH   1   8
BRANCH   6   9
ATOM      9  O   UNL     1       3.361  12.280   0.445  0.00  0.00    +0.000 OA
ATOM     10  H   UNL     1       2.472  12.478   0.796  0.00  0.00    +0.000 HD
ENDBRANCH   6   9
TORSDOF 2
ENDMDL
MODEL 5
REMARK VINA RESULT:    -4.801      1.818      3.288
REMARK INTER + INTRA:          -5.264
REMARK INTER:                  -5.215
REMARK INTRA:                  -0.049
REMARK UNBOUND:                -0.043
REMARK  Name = 
REMARK  3 active torsions:
REMARK  status: ('A' for Active; 'I' for Inactive)
REMARK    1  A    between atoms: C_1  and  O_2
REMARK    2  A    between atoms: O_2  and  C_3
REMARK    3  A    between atoms: C_8  and  O_9
REMARK                            x       y       z     vdW  Elec       q    Type
REMARK                         _______ _______ _______ _____ _____    ______ ____
ROOT
ATOM      1  C   UNL     1       3.273  14.105  -0.609  0.00  0.00    +0.000 A 
ATOM      2  C   UNL     1       2.980  13.372   0.541  0.00  0.00    +0.000 A 
ATOM      3  C   UNL     1       4.012  12.754   1.258  0.00  0.00    +0.000 A 
ATOM      4  C   UNL     1       5.337  12.865   0.831  0.00  0.00    +0.000 A 
ATOM      5  C   UNL     1       5.637  13.596  -0.317  0.00  0.00    +0.000 A 
ATOM      6  C   UNL     1       4.607  14.205  -1.022  0.00  0.00    +0.000 A 
ENDROOT
BRANCH   1   8
ATOM      7  C   UNL     1       1.254  13.998  -1.857  0.00  0.00    +0.000 C 
ATOM      8  O   UNL     1       2.368  14.758  -1.406  0.00  0.00    +0.000 OA
ENDBRANCH   1   8
BRANCH   6   9
ATOM      9  O   UNL     1       4.927  14.918  -2.147  0.00  0.00    +0.000 OA
ATOM     10  H   UNL     1       4.740  15.847  -1.914  0.00  0.00    +0.000 HD
ENDBRANCH   6   9
TORSDOF 2
ENDMDL
MODEL 6
REMARK VINA RESULT:    -4.770      1.907      2.564
REMARK INTER + INTRA:          -5.231
REMARK INTER:                  -5.189
REMARK INTRA:                  -0.042
REMARK UNBOUND:                -0.043
REMARK  Name = 
REMARK  3 active torsions:
REMARK  status: ('A' for Active; 'I' for Inactive)
REMARK    1  A    between atoms: C_1  and  O_2
REMARK    2  A    between atoms: O_2  and  C_3
REMARK    3  A    between atoms: C_8  and  O_9
REMARK                            x       y       z     vdW  Elec       q    Type
REMARK                         _______ _______ _______ _____ _____    ______ ____
ROOT
ATOM      1  C   UNL     1       4.060  14.031   0.807  0.00  0.00    +0.000 A 
ATOM      2  C   UNL     1       3.065  13.291   0.169  0.00  0.00    +0.000 A 
ATOM      3  C   UNL     1       2.408  13.821  -0.949  0.00  0.00    +0.000 A 
ATOM      4  C   UNL     1       2.740  15.088  -1.431  0.00  0.00    +0.000 A 
ATOM      5  C   UNL     1       3.733  15.833  -0.799  0.00  0.00    +0.000 A 
ATOM      6  C   UNL     1       4.380  15.300   0.309  0.00  0.00    +0.000 A 
ENDROOT
BRANCH   1   8
ATOM      7  C   UNL     1       4.099  12.841   2.863  0.00  0.00    +0.000 C 
ATOM      8  O   UNL     1       4.782  13.640   1.906  0.00  0.00    +0.000 OA
ENDBRANCH   1   8
BRANCH   6   9
ATOM      9  O   UNL     1       5.352  16.051   0.913  0.00  0.00    +0.000 OA
ATOM     10  H   UNL     1       5.037  16.972   0.839  0.00  0.00    +0.000 HD
ENDBRANCH   6   9
TORSDOF 2
ENDMDL
MODEL 7
REMARK VINA RESULT:    -4.665      2.041      2.803
REMARK INTER + INTRA:          -5.116
REMARK INTER:                  -5.064
REMARK INTRA:                  -0.053
REMARK UNBOUND:                -0.043
REMARK  Name = 
REMARK  3 active torsions:
REMARK  status: ('A' for Active; 'I' for Inactive)
REMARK    1  A    between atoms: C_1  and  O_2
REMARK    2  A    between atoms: O_2  and  C_3
REMARK    3  A    between atoms: C_8  and  O_9
REMARK                            x       y       z     vdW  Elec       q    Type
REMARK                         _______ _______ _______ _____ _____    ______ ____
ROOT
ATOM      1  C   UNL     1       4.749  12.402   0.727  0.00  0.00    +0.000 A 
ATOM      2  C   UNL     1       5.450  13.026  -0.304  0.00  0.00    +0.000 A 
ATOM      3  C   UNL     1       5.178  14.362  -0.626  0.00  0.00    +0.000 A 
ATOM      4  C   UNL     1       4.207  15.076   0.078  0.00  0.00    +0.000 A 
ATOM      5  C   UNL     1       3.503  14.459   1.110  0.00  0.00    +0.000 A 
ATOM      6  C   UNL     1       3.779  13.134   1.422  0.00  0.00    +0.000 A 
ENDROOT
BRANCH   1   8
ATOM      7  C   UNL     1       4.586  10.088   0.208  0.00  0.00    +0.000 C 
ATOM      8  O   UNL     1       4.910  11.106   1.148  0.00  0.00    +0.000 OA
ENDBRANCH   1   8
BRANCH   6   9
ATOM      9  O   UNL     1       3.074  12.549   2.440  0.00  0.00    +0.000 OA
ATOM     10  H   UNL     1       3.417  11.636   2.488  0.00  0.00    +0.000 HD
ENDBRANCH   6   9
TORSDOF 2
ENDMDL
MODEL 8
REMARK VINA RESULT:    -4.638      1.868      3.949
REMARK INTER + INTRA:          -5.087
REMARK INTER:                  -5.043
REMARK INTRA:                  -0.044
REMARK UNBOUND:                -0.043
REMARK  Name = 
REMARK  3 active torsions:
REMARK  status: ('A' for Active; 'I' for Inactive)
REMARK    1  A    between atoms: C_1  and  O_2
REMARK    2  A    between atoms: O_2  and  C_3
REMARK    3  A    between atoms: C_8  and  O_9
REMARK                            x       y       z     vdW  Elec       q    Type
REMARK                         _______ _______ _______ _____ _____    ______ ____
ROOT
ATOM      1  C   UNL     1       4.386  13.293   0.168  0.00  0.00    +0.000 A 
ATOM      2  C   UNL     1       3.725  14.144   1.053  0.00  0.00    +0.000 A 
ATOM      3  C   UNL     1       3.320  13.672   2.308  0.00  0.00    +0.000 A 
ATOM      4  C   UNL     1       3.574  12.352   2.683  0.00  0.00    +0.000 A 
ATOM      5  C   UNL     1       4.234  11.495   1.805  0.00  0.00    +0.000 A 
ATOM      6  C   UNL     1       4.631  11.972   0.562  0.00  0.00    +0.000 A 
ENDROOT
BRANCH   1   8
ATOM      7  C   UNL     1       3.986  14.444  -1.871  0.00  0.00    +0.000 C 
ATOM      8  O   UNL     1       4.836  13.618  -1.086  0.00  0.00    +0.000 OA
ENDBRANCH   1   8
BRANCH   6   9
ATOM      9  O   UNL     1       5.279  11.111  -0.284  0.00  0.00    +0.000 OA
ATOM     10  H   UNL     1       5.217  10.240   0.153  0.00  0.00    +0.000 HD
ENDBRANCH   6   9
TORSDOF 2
ENDMDL
MODEL 9
REMARK VINA RESULT:    -4.590      1.529      2.959
REMARK INTER + INTRA:          -5.035
REMARK INTER:                  -4.997
REMARK INTRA:                  -0.038
REMARK UNBOUND:                -0.043
REMARK  Name = 
REMARK  3 active torsions:
REMARK  status: ('A' for Active; 'I' for Inactive)
REMARK    1  A    between atoms: C_1  and  O_2
REMARK    2  A    between atoms: O_2  and  C_3
REMARK    3  A    between atoms: C_8  and  O_9
REMARK                            x       y       z     vdW  Elec       q    Type
REMARK                         _______ _______ _______ _____ _____    ______ ____
ROOT
ATOM      1  C   UNL     1       3.525  13.766  -0.536  0.00  0.00    +0.000 A 
ATOM      2  C   UNL     1       3.906  15.102  -0.421  0.00  0.00    +0.000 A 
ATOM      3  C   UNL     1       4.982  15.454   0.404  0.00  0.00    +0.000 A 
ATOM      4  C   UNL     1       5.679  14.475   1.114  0.00  0.00    +0.000 A 
ATOM      5  C   UNL     1       5.304  13.138   1.004  0.00  0.00    +0.000 A 
ATOM      6  C   UNL     1       4.236  12.798   0.184  0.00  0.00    +0.000 A 
ENDROOT
BRANCH   1   8
ATOM      7  C   UNL     1       1.558  14.233  -1.786  0.00  0.00    +0.000 C 
ATOM      8  O   UNL     1       2.496  13.279  -1.302  0.00  0.00    +0.000 OA
ENDBRANCH   1   8
BRANCH   6   9
ATOM      9  O   UNL     1       3.887  11.477   0.092  0.00  0.00    +0.000 OA
ATOM     10  H   UNL     1       4.552  11.085  -0.506  0.00  0.00    +0.000 HD
ENDBRANCH   6   9
TORSDOF 2
ENDMDL
