MODEL 1
REMARK VINA RESULT:    -5.678      0.000      0.000
REMARK INTER + INTRA:          -7.677
REMARK INTER:                  -7.670
REMARK INTRA:                  -0.007
REMARK UNBOUND:                -0.007
REMARK  Name = 
REMARK  10 active torsions:
REMARK  status: ('A' for Active; 'I' for Inactive)
REMARK    1  A    between atoms: C_1  and  C_2
REMARK    2  A    between atoms: C_5  and  N_8
REMARK    3  A    between atoms: N_8  and  C_9
REMARK    4  A    between atoms: N_8  and  C_13
REMARK    5  A    between atoms: C_9  and  C_10
REMARK    6  A    between atoms: C_10  and  C_11
REMARK    7  A    between atoms: C_10  and  O_12
REMARK    8  A    between atoms: C_13  and  C_14
REMARK    9  A    between atoms: C_14  and  C_15
REMARK   10  A    between atoms: C_14  and  O_16
REMARK                            x       y       z     vdW  Elec       q    Type
REMARK                         _______ _______ _______ _____ _____    ______ ____
ROOT
ATOM      1  N   UNL     1       3.393  13.214   2.131  0.00  0.00    +0.000 N 
ENDROOT
BRANCH   1   6
ATOM      2  C   UNL     1       4.449  16.122  -2.743  0.00  0.00    +0.000 C 
ATOM      3  C   UNL     1       4.187  15.348  -1.488  0.00  0.00    +0.000 A 
ATOM      4  C   UNL     1       3.022  14.604  -1.337  0.00  0.00    +0.000 A 
ATOM      5  C   UNL     1       2.768  13.904  -0.147  0.00  0.00    +0.000 A 
ATOM      6  C   UNL     1       3.644  13.930   0.954  0.00  0.00    +0.000 A 
ATOM      7  C   UNL     1       4.812  14.691   0.766  0.00  0.00    +0.000 A 
ATOM      8  C   UNL     1       5.080  15.394  -0.421  0.00  0.00    +0.000 A 
ENDBRANCH   1   6
BRANCH   1   9
ATOM      9  C   UNL     1       2.750  13.885   3.287  0.00  0.00    +0.000 C 
BRANCH   9  10
ATOM     10  C   UNL     1       2.471  12.918   4.463  0.00  0.00    +0.000 C 
ATOM     11  C   UNL     1       3.629  12.916   5.454  0.00  0.00    +0.000 C 
BRANCH  10  12
ATOM     12  O   UNL     1       1.282  13.296   5.170  0.00  0.00    +0.000 OA
ATOM     13  H   UNL     1       0.862  12.488   5.508  0.00  0.00    +0.000 HD
ENDBRANCH  10  12
ENDBRANCH   9  10
ENDBRANCH   1   9
BRANCH   1  14
ATOM     14  C   UNL     1       4.172  11.996   2.470  0.00  0.00    +0.000 C 
BRANCH  14  15
ATOM     15  C   UNL     1       3.932  10.848   1.460  0.00  0.00    +0.000 C 
ATOM     16  C   UNL     1       4.870  10.902   0.259  0.00  0.00    +0.000 C 
BRANCH  15  17
ATOM     17  O   UNL     1       4.072   9.568   2.073  0.00  0.00    +0.000 OA
ATOM     18  H   UNL     1       4.070   8.930   1.330  0.00  0.00    +0.000 HD
ENDBRANCH  15  17
ENDBRANCH  14  15
ENDBRANCH   1  14
TORSDOF 7
ENDMDL
MODEL 2
REMARK VINA RESULT:    -5.543      1.211      3.439
REMARK INTER + INTRA:          -7.493
REMARK INTER:                  -7.052
REMARK INTRA:                  -0.441
REMARK UNBOUND:                -0.007
REMARK  Name = 
REMARK  10 active torsions:
REMARK  status: ('A' for Active; 'I' for Inactive)
REMARK    1  A    between atoms: C_1  and  C_2
REMARK    2  A    between atoms: C_5  and  N_8
REMARK    3  A    between atoms: N_8  and  C_9
REMARK    4  A    between atoms: N_8  and  C_13
REMARK    5  A    between atoms: C_9  and  C_10
REMARK    6  A    between atoms: C_10  and  C_11
REMARK    7  A    between atoms: C_10  and  O_12
REMARK    8  A    between atoms: C_13  and  C_14
REMARK    9  A    between atoms: C_14  and  C_15
REMARK   10  A    between atoms: C_14  and  O_16
REMARK                            x       y       z     vdW  Elec       q    Type
REMARK                         _______ _______ _______ _____ _____    ______ ____
ROOT
ATOM      1  N   UNL     1       4.492  12.522   1.884  0.00  0.00    +0.000 N 
ENDROOT
BRANCH   1   6
ATOM      2  C   UNL     1       3.932  15.967  -2.715  0.00  0.00    +0.000 C 
ATOM      3  C   UNL     1       4.080  15.053  -1.537  0.00  0.00    +0.000 A 
ATOM      4  C   UNL     1       2.969  14.460  -0.948  0.00  0.00    +0.000 A 
ATOM      5  C   UNL     1       3.111  13.629   0.175  0.00  0.00    +0.000 A 
ATOM      6  C   UNL     1       4.355  13.368   0.776  0.00  0.00    +0.000 A 
ATOM      7  C   UNL     1       5.457  13.983   0.153  0.00  0.00    +0.000 A 
ATOM      8  C   UNL     1       5.329  14.814  -0.971  0.00  0.00    +0.000 A 
ENDBRANCH   1   6
BRANCH   1   9
ATOM      9  C   UNL     1       3.926  11.152   1.848  0.00  0.00    +0.000 C 
BRANCH   9  10
ATOM     10  C   UNL     1       4.741  10.189   0.951  0.00  0.00    +0.000 C 
ATOM     11  C   UNL     1       5.113   8.921   1.710  0.00  0.00    +0.000 C 
BRANCH  10  12
ATOM     12  O   UNL     1       3.990   9.807  -0.210  0.00  0.00    +0.000 OA
ATOM     13  H   UNL     1       4.299   8.931  -0.494  0.00  0.00    +0.000 HD
ENDBRANCH  10  12
ENDBRANCH   9  10
ENDBRANCH   1   9
BRANCH   1  14
ATOM     14  C   UNL     1       4.715  13.070   3.247  0.00  0.00    +0.000 C 
BRANCH  14  15
ATOM     15  C   UNL     1       3.643  12.587   4.253  0.00  0.00    +0.000 C 
ATOM     16  C   UNL     1       4.080  12.725   5.707  0.00  0.00    +0.000 C 
BRANCH  15  17
ATOM     17  O   UNL     1       2.414  13.293   4.092  0.00  0.00    +0.000 OA
ATOM     18  H   UNL     1       2.105  13.061   3.193  0.00  0.00    +0.000 HD
ENDBRANCH  15  17
ENDBRANCH  14  15
ENDBRANCH   1  14
TORSDOF 7
ENDMDL
MODEL 3
REMARK VINA RESULT:    -5.054      9.524     11.363
REMARK INTER + INTRA:          -6.834
REMARK INTER:                  -6.404
REMARK INTRA:                  -0.430
REMARK UNBOUND:                -0.007
REMARK  Name = 
REMARK  10 active torsions:
REMARK  status: ('A' for Active; 'I' for Inactive)
REMARK    1  A    between atoms: C_1  and  C_2
REMARK    2  A    between atoms: C_5  and  N_8
REMARK    3  A    between atoms: N_8  and  C_9
REMARK    4  A    between atoms: N_8  and  C_13
REMARK    5  A    between atoms: C_9  and  C_10
REMARK    6  A    between atoms: C_10  and  C_11
REMARK    7  A    between atoms: C_10  and  O_12
REMARK    8  A    between atoms: C_13  and  C_14
REMARK    9  A    between atoms: C_14  and  C_15
REMARK   10  A    between atoms: C_14  and  O_16
REMARK                            x       y       z     vdW  Elec       q    Type
REMARK                         _______ _______ _______ _____ _____    ______ ____
ROOT
ATOM      1  N   UNL     1      10.601  20.381  -2.176  0.00  0.00    +0.000 N 
ENDROOT
BRANCH   1   6
ATOM      2  C   UNL     1      15.886  18.078  -2.491  0.00  0.00    +0.000 C 
ATOM      3  C   UNL     1      14.515  18.679  -2.434  0.00  0.00    +0.000 A 
ATOM      4  C   UNL     1      14.340  20.042  -2.221  0.00  0.00    +0.000 A 
ATOM      5  C   UNL     1      13.052  20.595  -2.139  0.00  0.00    +0.000 A 
ATOM      6  C   UNL     1      11.883  19.820  -2.239  0.00  0.00    +0.000 A 
ATOM      7  C   UNL     1      12.097  18.446  -2.456  0.00  0.00    +0.000 A 
ATOM      8  C   UNL     1      13.380  17.881  -2.543  0.00  0.00    +0.000 A 
ENDBRANCH   1   6
BRANCH   1   9
ATOM      9  C   UNL     1      10.248  21.304  -1.071  0.00  0.00    +0.000 C 
BRANCH   9  10
ATOM     10  C   UNL     1       8.978  20.863  -0.303  0.00  0.00    +0.000 C 
ATOM     11  C   UNL     1       9.340  20.008   0.905  0.00  0.00    +0.000 C 
BRANCH  10  12
ATOM     12  O   UNL     1       8.238  22.000   0.163  0.00  0.00    +0.000 OA
ATOM     13  H   UNL     1       7.310  21.732   0.272  0.00  0.00    +0.000 HD
ENDBRANCH  10  12
ENDBRANCH   9  10
ENDBRANCH   1   9
BRANCH   1  14
ATOM     14  C   UNL     1       9.443  19.729  -2.839  0.00  0.00    +0.000 C 
BRANCH  14  15
ATOM     15  C   UNL     1       9.423  19.986  -4.365  0.00  0.00    +0.000 C 
ATOM     16  C   UNL     1      10.201  21.231  -4.774  0.00  0.00    +0.000 C 
BRANCH  15  17
ATOM     17  O   UNL     1       9.950  18.877  -5.093  0.00  0.00    +0.000 OA
ATOM     18  H   UNL     1       9.472  18.885  -5.946  0.00  0.00    +0.000 HD
ENDBRANCH  15  17
ENDBRANCH  14  15
ENDBRANCH   1  14
TORSDOF 7
ENDMDL
MODEL 4
REMARK VINA RESULT:    -5.002     11.387     13.705
REMARK INTER + INTRA:          -6.763
REMARK INTER:                  -6.304
REMARK INTRA:                  -0.460
REMARK UNBOUND:                -0.007
REMARK  Name = 
REMARK  10 active torsions:
REMARK  status: ('A' for Active; 'I' for Inactive)
REMARK    1  A    between atoms: C_1  and  C_2
REMARK    2  A    between atoms: C_5  and  N_8
REMARK    3  A    between atoms: N_8  and  C_9
REMARK    4  A    between atoms: N_8  and  C_13
REMARK    5  A    between atoms: C_9  and  C_10
REMARK    6  A    between atoms: C_10  and  C_11
REMARK    7  A    between atoms: C_10  and  O_12
REMARK    8  A    between atoms: C_13  and  C_14
REMARK    9  A    between atoms: C_14  and  C_15
REMARK   10  A    between atoms: C_14  and  O_16
REMARK                            x       y       z     vdW  Elec       q    Type
REMARK                         _______ _______ _______ _____ _____    ______ ____
ROOT
ATOM      1  N   UNL     1      14.575  19.571  -3.096  0.00  0.00    +0.000 N 
ENDROOT
BRANCH   1   6
ATOM      2  C   UNL     1       9.132  17.755  -3.738  0.00  0.00    +0.000 C 
ATOM      3  C   UNL     1      10.550  18.216  -3.594  0.00  0.00    +0.000 A 
ATOM      4  C   UNL     1      11.498  17.423  -2.956  0.00  0.00    +0.000 A 
ATOM      5  C   UNL     1      12.819  17.874  -2.797  0.00  0.00    +0.000 A 
ATOM      6  C   UNL     1      13.251  19.136  -3.241  0.00  0.00    +0.000 A 
ATOM      7  C   UNL     1      12.267  19.911  -3.882  0.00  0.00    +0.000 A 
ATOM      8  C   UNL     1      10.943  19.471  -4.050  0.00  0.00    +0.000 A 
ENDBRANCH   1   6
BRANCH   1   9
ATOM      9  C   UNL     1      15.529  18.787  -2.276  0.00  0.00    +0.000 C 
BRANCH   9  10
ATOM     10  C   UNL     1      16.716  18.234  -3.102  0.00  0.00    +0.000 C 
ATOM     11  C   UNL     1      18.045  18.548  -2.425  0.00  0.00    +0.000 C 
BRANCH  10  12
ATOM     12  O   UNL     1      16.619  16.810  -3.251  0.00  0.00    +0.000 OA
ATOM     13  H   UNL     1      17.164  16.397  -2.561  0.00  0.00    +0.000 HD
ENDBRANCH  10  12
ENDBRANCH   9  10
ENDBRANCH   1   9
BRANCH   1  14
ATOM     14  C   UNL     1      14.940  20.998  -3.286  0.00  0.00    +0.000 C 
BRANCH  14  15
ATOM     15  C   UNL     1      15.544  21.265  -4.686  0.00  0.00    +0.000 C 
ATOM     16  C   UNL     1      17.033  21.590  -4.645  0.00  0.00    +0.000 C 
BRANCH  15  17
ATOM     17  O   UNL     1      15.358  20.154  -5.561  0.00  0.00    +0.000 OA
ATOM     18  H   UNL     1      15.972  20.313  -6.306  0.00  0.00    +0.000 HD
ENDBRANCH  15  17
ENDBRANCH  14  15
ENDBRANCH   1  14
TORSDOF 7
ENDMDL
MODEL 5
REMARK VINA RESULT:    -4.986     10.014     11.639
REMARK INTER + INTRA:          -6.742
REMARK INTER:                  -6.083
REMARK INTRA:                  -0.658
REMARK UNBOUND:                -0.007
REMARK  Name = 
REMARK  10 active torsions:
REMARK  status: ('A' for Active; 'I' for Inactive)
REMARK    1  A    between atoms: C_1  and  C_2
REMARK    2  A    between atoms: C_5  and  N_8
REMARK    3  A    between atoms: N_8  and  C_9
REMARK    4  A    between atoms: N_8  and  C_13
REMARK    5  A    between atoms: C_9  and  C_10
REMARK    6  A    between atoms: C_10  and  C_11
REMARK    7  A    between atoms: C_10  and  O_12
REMARK    8  A    between atoms: C_13  and  C_14
REMARK    9  A    between atoms: C_14  and  C_15
REMARK   10  A    between atoms: C_14  and  O_16
REMARK                            x       y       z     vdW  Elec       q    Type
REMARK                         _______ _______ _______ _____ _____    ______ ____
ROOT
ATOM      1  N   UNL     1      11.286  20.421  -2.532  0.00  0.00    +0.000 N 
ENDROOT
BRANCH   1   6
ATOM      2  C   UNL     1       9.720  21.488   2.922  0.00  0.00    +0.000 C 
ATOM      3  C   UNL     1      10.143  21.194   1.515  0.00  0.00    +0.000 A 
ATOM      4  C   UNL     1      11.168  21.915   0.911  0.00  0.00    +0.000 A 
ATOM      5  C   UNL     1      11.539  21.655  -0.418  0.00  0.00    +0.000 A 
ATOM      6  C   UNL     1      10.898  20.688  -1.213  0.00  0.00    +0.000 A 
ATOM      7  C   UNL     1       9.868  19.977  -0.570  0.00  0.00    +0.000 A 
ATOM      8  C   UNL     1       9.488  20.225   0.760  0.00  0.00    +0.000 A 
ENDBRANCH   1   6
BRANCH   1   9
ATOM      9  C   UNL     1      12.613  19.820  -2.808  0.00  0.00    +0.000 C 
BRANCH   9  10
ATOM     10  C   UNL     1      12.809  18.451  -2.112  0.00  0.00    +0.000 C 
ATOM     11  C   UNL     1      12.005  17.363  -2.813  0.00  0.00    +0.000 C 
BRANCH  10  12
ATOM     12  O   UNL     1      14.189  18.060  -2.123  0.00  0.00    +0.000 OA
ATOM     13  H   UNL     1      14.257  17.181  -1.716  0.00  0.00    +0.000 HD
ENDBRANCH  10  12
ENDBRANCH   9  10
ENDBRANCH   1   9
BRANCH   1  14
ATOM     14  C   UNL     1      10.682  21.152  -3.675  0.00  0.00    +0.000 C 
BRANCH  14  15
ATOM     15  C   UNL     1      10.042  20.194  -4.708  0.00  0.00    +0.000 C 
ATOM     16  C   UNL     1       9.094  19.180  -4.080  0.00  0.00    +0.000 C 
BRANCH  15  17
ATOM     17  O   UNL     1       9.323  20.907  -5.714  0.00  0.00    +0.000 OA
ATOM     18  H   UNL     1       8.960  21.692  -5.256  0.00  0.00    +0.000 HD
ENDBRANCH  15  17
ENDBRANCH  14  15
ENDBRANCH   1  14
TORSDOF 7
ENDMDL
MODEL 6
REMARK VINA RESULT:    -4.974      9.994     11.801
REMARK INTER + INTRA:          -6.726
REMARK INTER:                  -6.023
REMARK INTRA:                  -0.703
REMARK UNBOUND:                -0.007
REMARK  Name = 
REMARK  10 active torsions:
REMARK  status: ('A' for Active; 'I' for Inactive)
REMARK    1  A    between atoms: C_1  and  C_2
REMARK    2  A    between atoms: C_5  and  N_8
REMARK    3  A    between atoms: N_8  and  C_9
REMARK    4  A    between atoms: N_8  and  C_13
REMARK    5  A    between atoms: C_9  and  C_10
REMARK    6  A    between atoms: C_10  and  C_11
REMARK    7  A    between atoms: C_10  and  O_12
REMARK    8  A    between atoms: C_13  and  C_14
REMARK    9  A    between atoms: C_14  and  C_15
REMARK   10  A    between atoms: C_14  and  O_16
REMARK                            x       y       z     vdW  Elec       q    Type
REMARK                         _______ _______ _______ _____ _____    ______ ____
ROOT
ATOM      1  N   UNL     1      11.466  20.559  -3.363  0.00  0.00    +0.000 N 
ENDROOT
BRANCH   1   6
ATOM      2  C   UNL     1       9.098  21.335   1.844  0.00  0.00    +0.000 C 
ATOM      3  C   UNL     1       9.700  21.153   0.485  0.00  0.00    +0.000 A 
ATOM      4  C   UNL     1       9.089  20.341  -0.465  0.00  0.00    +0.000 A 
ATOM      5  C   UNL     1       9.674  20.151  -1.727  0.00  0.00    +0.000 A 
ATOM      6  C   UNL     1      10.898  20.737  -2.095  0.00  0.00    +0.000 A 
ATOM      7  C   UNL     1      11.486  21.553  -1.112  0.00  0.00    +0.000 A 
ATOM      8  C   UNL     1      10.911  21.754   0.154  0.00  0.00    +0.000 A 
ENDBRANCH   1   6
BRANCH   1   9
ATOM      9  C   UNL     1      12.672  19.711  -3.526  0.00  0.00    +0.000 C 
BRANCH   9  10
ATOM     10  C   UNL     1      12.331  18.214  -3.723  0.00  0.00    +0.000 C 
ATOM     11  C   UNL     1      12.082  17.530  -2.384  0.00  0.00    +0.000 C 
BRANCH  10  12
ATOM     12  O   UNL     1      11.154  18.056  -4.528  0.00  0.00    +0.000 OA
ATOM     13  H   UNL     1      10.900  18.931  -4.865  0.00  0.00    +0.000 HD
ENDBRANCH  10  12
ENDBRANCH   9  10
ENDBRANCH   1   9
BRANCH   1  14
ATOM     14  C   UNL     1      11.247  21.548  -4.450  0.00  0.00    +0.000 C 
BRANCH  14  15
ATOM     15  C   UNL     1       9.849  21.405  -5.097  0.00  0.00    +0.000 C 
ATOM     16  C   UNL     1       9.761  22.038  -6.481  0.00  0.00    +0.000 C 
BRANCH  15  17
ATOM     17  O   UNL     1       9.458  20.038  -5.211  0.00  0.00    +0.000 OA
ATOM     18  H   UNL     1       9.672  19.789  -6.133  0.00  0.00    +0.000 HD
ENDBRANCH  15  17
ENDBRANCH  14  15
ENDBRANCH   1  14
TORSDOF 7
ENDMDL
MODEL 7
REMARK VINA RESULT:    -4.857      9.870     12.197
REMARK INTER + INTRA:          -6.567
REMARK INTER:                  -5.963
REMARK INTRA:                  -0.604
REMARK UNBOUND:                -0.007
REMARK  Name = 
REMARK  10 active torsions:
REMARK  status: ('A' for Active; 'I' for Inactive)
REMARK    1  A    between atoms: C_1  and  C_2
REMARK    2  A    between atoms: C_5  and  N_8
REMARK    3  A    between atoms: N_8  and  C_9
REMARK    4  A    between atoms: N_8  and  C_13
REMARK    5  A    between atoms: C_9  and  C_10
REMARK    6  A    between atoms: C_10  and  C_11
REMARK    7  A    between atoms: C_10  and  O_12
REMARK    8  A    between atoms: C_13  and  C_14
REMARK    9  A    between atoms: C_14  and  C_15
REMARK   10  A    between atoms: C_14  and  O_16
REMARK                            x       y       z     vdW  Elec       q    Type
REMARK                         _______ _______ _______ _____ _____    ______ ____
ROOT
ATOM      1  N   UNL     1      11.366  20.451  -3.100  0.00  0.00    +0.000 N 
ENDROOT
BRANCH   1   6
ATOM      2  C   UNL     1      16.804  18.527  -2.882  0.00  0.00    +0.000 C 
ATOM      3  C   UNL     1      15.398  19.042  -2.920  0.00  0.00    +0.000 A 
ATOM      4  C   UNL     1      14.387  18.410  -2.204  0.00  0.00    +0.000 A 
ATOM      5  C   UNL     1      13.064  18.878  -2.266  0.00  0.00    +0.000 A 
ATOM      6  C   UNL     1      12.683  19.977  -3.058  0.00  0.00    +0.000 A 
ATOM      7  C   UNL     1      13.731  20.593  -3.766  0.00  0.00    +0.000 A 
ATOM      8  C   UNL     1      15.058  20.135  -3.711  0.00  0.00    +0.000 A 
ENDBRANCH   1   6
BRANCH   1   9
ATOM      9  C   UNL     1      10.567  20.318  -4.342  0.00  0.00    +0.000 C 
BRANCH   9  10
ATOM     10  C   UNL     1       9.395  19.316  -4.198  0.00  0.00    +0.000 C 
ATOM     11  C   UNL     1       9.853  18.038  -3.505  0.00  0.00    +0.000 C 
BRANCH  10  12
ATOM     12  O   UNL     1       8.327  19.882  -3.426  0.00  0.00    +0.000 OA
ATOM     13  H   UNL     1       7.650  20.207  -4.042  0.00  0.00    +0.000 HD
ENDBRANCH  10  12
ENDBRANCH   9  10
ENDBRANCH   1   9
BRANCH   1  14
ATOM     14  C   UNL     1      10.899  21.511  -2.169  0.00  0.00    +0.000 C 
BRANCH  14  15
ATOM     15  C   UNL     1      10.305  20.923  -0.866  0.00  0.00    +0.000 C 
ATOM     16  C   UNL     1      10.898  21.541   0.395  0.00  0.00    +0.000 C 
BRANCH  15  17
ATOM     17  O   UNL     1       8.889  21.085  -0.813  0.00  0.00    +0.000 OA
ATOM     18  H   UNL     1       8.653  20.947   0.126  0.00  0.00    +0.000 HD
ENDBRANCH  15  17
ENDBRANCH  14  15
ENDBRANCH   1  14
TORSDOF 7
ENDMDL
MODEL 8
REMARK VINA RESULT:    -4.792     10.100     11.982
REMARK INTER + INTRA:          -6.480
REMARK INTER:                  -5.990
REMARK INTRA:                  -0.490
REMARK UNBOUND:                -0.007
REMARK  Name = 
REMARK  10 active torsions:
REMARK  status: ('A' for Active; 'I' for Inactive)
REMARK    1  A    between atoms: C_1  and  C_2
REMARK    2  A    between atoms: C_5  and  N_8
REMARK    3  A    between atoms: N_8  and  C_9
REMARK    4  A    between atoms: N_8  and  C_13
REMARK    5  A    between atoms: C_9  and  C_10
REMARK    6  A    between atoms: C_10  and  C_11
REMARK    7  A    between atoms: C_10  and  O_12
REMARK    8  A    between atoms: C_13  and  C_14
REMARK    9  A    between atoms: C_14  and  C_15
REMARK   10  A    between atoms: C_14  and  O_16
REMARK                            x       y       z     vdW  Elec       q    Type
REMARK                         _______ _______ _______ _____ _____    ______ ____
ROOT
ATOM      1  N   UNL     1      11.505  19.523  -2.863  0.00  0.00    +0.000 N 
ENDROOT
BRANCH   1   6
ATOM      2  C   UNL     1       9.345  21.857   1.955  0.00  0.00    +0.000 C 
ATOM      3  C   UNL     1       9.919  21.235   0.719  0.00  0.00    +0.000 A 
ATOM      4  C   UNL     1      11.062  21.757   0.122  0.00  0.00    +0.000 A 
ATOM      5  C   UNL     1      11.579  21.189  -1.054  0.00  0.00    +0.000 A 
ATOM      6  C   UNL     1      10.974  20.096  -1.701  0.00  0.00    +0.000 A 
ATOM      7  C   UNL     1       9.821  19.594  -1.069  0.00  0.00    +0.000 A 
ATOM      8  C   UNL     1       9.295  20.151   0.108  0.00  0.00    +0.000 A 
ENDBRANCH   1   6
BRANCH   1   9
ATOM      9  C   UNL     1      10.703  19.488  -4.110  0.00  0.00    +0.000 C 
BRANCH   9  10
ATOM     10  C   UNL     1      10.133  20.876  -4.494  0.00  0.00    +0.000 C 
ATOM     11  C   UNL     1      11.256  21.872  -4.758  0.00  0.00    +0.000 C 
BRANCH  10  12
ATOM     12  O   UNL     1       9.328  20.791  -5.678  0.00  0.00    +0.000 OA
ATOM     13  H   UNL     1       8.554  20.239  -5.477  0.00  0.00    +0.000 HD
ENDBRANCH  10  12
ENDBRANCH   9  10
ENDBRANCH   1   9
BRANCH   1  14
ATOM     14  C   UNL     1      12.595  18.515  -2.794  0.00  0.00    +0.000 C 
BRANCH  14  15
ATOM     15  C   UNL     1      13.992  19.150  -2.995  0.00  0.00    +0.000 C 
ATOM     16  C   UNL     1      15.130  18.263  -2.504  0.00  0.00    +0.000 C 
BRANCH  15  17
ATOM     17  O   UNL     1      14.235  19.464  -4.365  0.00  0.00    +0.000 OA
ATOM     18  H   UNL     1      15.206  19.568  -4.432  0.00  0.00    +0.000 HD
ENDBRANCH  15  17
ENDBRANCH  14  15
ENDBRANCH   1  14
TORSDOF 7
ENDMDL
MODEL 9
REMARK VINA RESULT:    -4.709     10.052     11.874
REMARK INTER + INTRA:          -6.367
REMARK INTER:                  -5.822
REMARK INTRA:                  -0.545
REMARK UNBOUND:                -0.007
REMARK  Name = 
REMARK  10 active torsions:
REMARK  status: ('A' for Active; 'I' for Inactive)
REMARK    1  A    between atoms: C_1  and  C_2
REMARK    2  A    between atoms: C_5  and  N_8
REMARK    3  A    between atoms: N_8  and  C_9
REMARK    4  A    between atoms: N_8  and  C_13
REMARK    5  A    between atoms: C_9  and  C_10
REMARK    6  A    between atoms: C_10  and  C_11
REMARK    7  A    between atoms: C_10  and  O_12
REMARK    8  A    between atoms: C_13  and  C_14
REMARK    9  A    between atoms: C_14  and  C_15
REMARK   10  A    between atoms: C_14  and  O_16
REMARK                            x       y       z     vdW  Elec       q    Type
REMARK                         _______ _______ _______ _____ _____    ______ ____
ROOT
ATOM      1  N   UNL     1      11.927  19.412  -2.306  0.00  0.00    +0.000 N 
ENDROOT
BRANCH   1   6
ATOM      2  C   UNL     1      17.697  19.279  -2.180  0.00  0.00    +0.000 C 
ATOM      3  C   UNL     1      16.200  19.309  -2.188  0.00  0.00    +0.000 A 
ATOM      4  C   UNL     1      15.464  18.160  -2.460  0.00  0.00    +0.000 A 
ATOM      5  C   UNL     1      14.061  18.200  -2.496  0.00  0.00    +0.000 A 
ATOM      6  C   UNL     1      13.327  19.383  -2.288  0.00  0.00    +0.000 A 
ATOM      7  C   UNL     1      14.103  20.524  -2.014  0.00  0.00    +0.000 A 
ATOM      8  C   UNL     1      15.507  20.497  -1.973  0.00  0.00    +0.000 A 
ENDBRANCH   1   6
BRANCH   1   9
ATOM      9  C   UNL     1      11.203  20.625  -1.857  0.00  0.00    +0.000 C 
BRANCH   9  10
ATOM     10  C   UNL     1      10.071  20.308  -0.849  0.00  0.00    +0.000 C 
ATOM     11  C   UNL     1      10.275  21.068   0.456  0.00  0.00    +0.000 C 
BRANCH  10  12
ATOM     12  O   UNL     1       8.790  20.676  -1.381  0.00  0.00    +0.000 OA
ATOM     13  H   UNL     1       8.126  20.070  -1.013  0.00  0.00    +0.000 HD
ENDBRANCH  10  12
ENDBRANCH   9  10
ENDBRANCH   1   9
BRANCH   1  14
ATOM     14  C   UNL     1      11.132  18.158  -2.264  0.00  0.00    +0.000 C 
BRANCH  14  15
ATOM     15  C   UNL     1      10.502  17.819  -3.637  0.00  0.00    +0.000 C 
ATOM     16  C   UNL     1       8.991  18.012  -3.668  0.00  0.00    +0.000 C 
BRANCH  15  17
ATOM     17  O   UNL     1      11.069  18.604  -4.685  0.00  0.00    +0.000 OA
ATOM     18  H   UNL     1      10.543  18.382  -5.480  0.00  0.00    +0.000 HD
ENDBRANCH  15  17
ENDBRANCH  14  15
ENDBRANCH   1  14
TORSDOF 7
ENDMDL
