MODEL 1
REMARK VINA RESULT:    -3.942      0.000      0.000
REMARK INTER + INTRA:          -6.018
REMARK INTER:                  -5.325
REMARK INTRA:                  -0.693
REMARK UNBOUND:                -0.693
REMARK  Name = 
REMARK  10 active torsions:
REMARK  status: ('A' for Active; 'I' for Inactive)
REMARK    1  A    between atoms: C_1  and  C_2
REMARK    2  A    between atoms: C_5  and  N_8
REMARK    3  A    between atoms: N_8  and  C_9
REMARK    4  A    between atoms: N_8  and  C_13
REMARK    5  A    between atoms: C_9  and  C_10
REMARK    6  A    between atoms: C_10  and  C_11
REMARK    7  A    between atoms: C_10  and  O_12
REMARK    8  A    between atoms: C_13  and  C_14
REMARK    9  A    between atoms: C_14  and  C_15
REMARK   10  A    between atoms: C_14  and  O_16
REMARK                            x       y       z     vdW  Elec       q    Type
REMARK                         _______ _______ _______ _____ _____    ______ ____
ROOT
ATOM      1  N   UNL     1      10.337  18.615  15.379  0.00  0.00    +0.000 N 
ENDROOT
BRANCH   1   6
ATOM      2  C   UNL     1       5.201  17.185  13.164  0.00  0.00    +0.000 C 
ATOM      3  C   UNL     1       6.523  17.557  13.762  0.00  0.00    +0.000 A 
ATOM      4  C   UNL     1       6.924  18.887  13.839  0.00  0.00    +0.000 A 
ATOM      5  C   UNL     1       8.177  19.228  14.372  0.00  0.00    +0.000 A 
ATOM      6  C   UNL     1       9.097  18.267  14.830  0.00  0.00    +0.000 A 
ATOM      7  C   UNL     1       8.658  16.933  14.739  0.00  0.00    +0.000 A 
ATOM      8  C   UNL     1       7.406  16.578  14.210  0.00  0.00    +0.000 A 
ENDBRANCH   1   6
BRANCH   1   9
ATOM      9  C   UNL     1      10.429  19.712  16.372  0.00  0.00    +0.000 C 
BRANCH   9  10
ATOM     10  C   UNL     1      10.108  19.246  17.813  0.00  0.00    +0.000 C 
ATOM     11  C   UNL     1       8.685  19.628  18.205  0.00  0.00    +0.000 C 
BRANCH  10  12
ATOM     12  O   UNL     1      10.235  17.822  17.934  0.00  0.00    +0.000 OA
ATOM     13  H   UNL     1      10.398  17.458  17.048  0.00  0.00    +0.000 HD
ENDBRANCH  10  12
ENDBRANCH   9  10
ENDBRANCH   1   9
BRANCH   1  14
ATOM     14  C   UNL     1      11.605  18.307  14.669  0.00  0.00    +0.000 C 
BRANCH  14  15
ATOM     15  C   UNL     1      12.067  16.849  14.904  0.00  0.00    +0.000 C 
ATOM     16  C   UNL     1      13.553  16.640  14.640  0.00  0.00    +0.000 C 
BRANCH  15  17
ATOM     17  O   UNL     1      11.789  16.415  16.234  0.00  0.00    +0.000 OA
ATOM     18  H   UNL     1      12.494  16.814  16.783  0.00  0.00    +0.000 HD
ENDBRANCH  15  17
ENDBRANCH  14  15
ENDBRANCH   1  14
TORSDOF 7
ENDMDL
MODEL 2
REMARK VINA RESULT:    -3.910      9.725     12.111
REMARK INTER + INTRA:          -5.974
REMARK INTER:                  -5.458
REMARK INTRA:                  -0.516
REMARK UNBOUND:                -0.693
REMARK  Name = 
REMARK  10 active torsions:
REMARK  status: ('A' for Active; 'I' for Inactive)
REMARK    1  A    between atoms: C_1  and  C_2
REMARK    2  A    between atoms: C_5  and  N_8
REMARK    3  A    between atoms: N_8  and  C_9
REMARK    4  A    between atoms: N_8  and  C_13
REMARK    5  A    between atoms: C_9  and  C_10
REMARK    6  A    between atoms: C_10  and  C_11
REMARK    7  A    between atoms: C_10  and  O_12
REMARK    8  A    between atoms: C_13  and  C_14
REMARK    9  A    between atoms: C_14  and  C_15
REMARK   10  A    between atoms: C_14  and  O_16
REMARK                            x       y       z     vdW  Elec       q    Type
REMARK                         _______ _______ _______ _____ _____    ______ ____
ROOT
ATOM      1  N   UNL     1       4.032   9.338  10.683  0.00  0.00    +0.000 N 
ENDROOT
BRANCH   1   6
ATOM      2  C   UNL     1       9.038   7.590   8.401  0.00  0.00    +0.000 C 
ATOM      3  C   UNL     1       7.731   8.020   8.993  0.00  0.00    +0.000 A 
ATOM      4  C   UNL     1       6.673   8.413   8.180  0.00  0.00    +0.000 A 
ATOM      5  C   UNL     1       5.460   8.843   8.742  0.00  0.00    +0.000 A 
ATOM      6  C   UNL     1       5.251   8.926  10.130  0.00  0.00    +0.000 A 
ATOM      7  C   UNL     1       6.341   8.519  10.921  0.00  0.00    +0.000 A 
ATOM      8  C   UNL     1       7.559   8.085  10.373  0.00  0.00    +0.000 A 
ENDBRANCH   1   6
BRANCH   1   9
ATOM      9  C   UNL     1       2.798   8.555  10.431  0.00  0.00    +0.000 C 
BRANCH   9  10
ATOM     10  C   UNL     1       2.285   7.820  11.693  0.00  0.00    +0.000 C 
ATOM     11  C   UNL     1       1.580   6.521  11.319  0.00  0.00    +0.000 C 
BRANCH  10  12
ATOM     12  O   UNL     1       3.367   7.499  12.578  0.00  0.00    +0.000 OA
ATOM     13  H   UNL     1       3.413   6.532  12.660  0.00  0.00    +0.000 HD
ENDBRANCH  10  12
ENDBRANCH   9  10
ENDBRANCH   1   9
BRANCH   1  14
ATOM     14  C   UNL     1       3.804  10.753  11.074  0.00  0.00    +0.000 C 
BRANCH  14  15
ATOM     15  C   UNL     1       4.009  10.980  12.591  0.00  0.00    +0.000 C 
ATOM     16  C   UNL     1       4.261  12.440  12.950  0.00  0.00    +0.000 C 
BRANCH  15  17
ATOM     17  O   UNL     1       2.889  10.526  13.349  0.00  0.00    +0.000 OA
ATOM     18  H   UNL     1       2.869  11.101  14.140  0.00  0.00    +0.000 HD
ENDBRANCH  15  17
ENDBRANCH  14  15
ENDBRANCH   1  14
TORSDOF 7
ENDMDL
MODEL 3
REMARK VINA RESULT:    -3.880      1.376      3.132
REMARK INTER + INTRA:          -5.933
REMARK INTER:                  -5.238
REMARK INTRA:                  -0.695
REMARK UNBOUND:                -0.693
REMARK  Name = 
REMARK  10 active torsions:
REMARK  status: ('A' for Active; 'I' for Inactive)
REMARK    1  A    between atoms: C_1  and  C_2
REMARK    2  A    between atoms: C_5  and  N_8
REMARK    3  A    between atoms: N_8  and  C_9
REMARK    4  A    between atoms: N_8  and  C_13
REMARK    5  A    between atoms: C_9  and  C_10
REMARK    6  A    between atoms: C_10  and  C_11
REMARK    7  A    between atoms: C_10  and  O_12
REMARK    8  A    between atoms: C_13  and  C_14
REMARK    9  A    between atoms: C_14  and  C_15
REMARK   10  A    between atoms: C_14  and  O_16
REMARK                            x       y       z     vdW  Elec       q    Type
REMARK                         _______ _______ _______ _____ _____    ______ ____
ROOT
ATOM      1  N   UNL     1       9.780  17.901  15.347  0.00  0.00    +0.000 N 
ENDROOT
BRANCH   1   6
ATOM      2  C   UNL     1       4.641  16.997  12.875  0.00  0.00    +0.000 C 
ATOM      3  C   UNL     1       5.964  17.231  13.539  0.00  0.00    +0.000 A 
ATOM      4  C   UNL     1       6.444  18.521  13.739  0.00  0.00    +0.000 A 
ATOM      5  C   UNL     1       7.698  18.734  14.334  0.00  0.00    +0.000 A 
ATOM      6  C   UNL     1       8.539  17.681  14.736  0.00  0.00    +0.000 A 
ATOM      7  C   UNL     1       8.021  16.390  14.520  0.00  0.00    +0.000 A 
ATOM      8  C   UNL     1       6.767  16.163  13.928  0.00  0.00    +0.000 A 
ENDBRANCH   1   6
BRANCH   1   9
ATOM      9  C   UNL     1      11.029  17.494  14.660  0.00  0.00    +0.000 C 
BRANCH   9  10
ATOM     10  C   UNL     1      11.923  18.699  14.277  0.00  0.00    +0.000 C 
ATOM     11  C   UNL     1      11.077  19.887  13.836  0.00  0.00    +0.000 C 
BRANCH  10  12
ATOM     12  O   UNL     1      12.729  19.116  15.388  0.00  0.00    +0.000 OA
ATOM     13  H   UNL     1      12.374  18.698  16.191  0.00  0.00    +0.000 HD
ENDBRANCH  10  12
ENDBRANCH   9  10
ENDBRANCH   1   9
BRANCH   1  14
ATOM     14  C   UNL     1       9.896  18.045  16.820  0.00  0.00    +0.000 C 
BRANCH  14  15
ATOM     15  C   UNL     1       9.701  19.510  17.281  0.00  0.00    +0.000 C 
ATOM     16  C   UNL     1       8.824  19.636  18.521  0.00  0.00    +0.000 C 
BRANCH  15  17
ATOM     17  O   UNL     1      10.947  20.147  17.555  0.00  0.00    +0.000 OA
ATOM     18  H   UNL     1      10.865  21.041  17.167  0.00  0.00    +0.000 HD
ENDBRANCH  15  17
ENDBRANCH  14  15
ENDBRANCH   1  14
TORSDOF 7
ENDMDL
MODEL 4
REMARK VINA RESULT:    -3.878      7.747     10.466
REMARK INTER + INTRA:          -5.931
REMARK INTER:                  -5.323
REMARK INTRA:                  -0.608
REMARK UNBOUND:                -0.693
REMARK  Name = 
REMARK  10 active torsions:
REMARK  status: ('A' for Active; 'I' for Inactive)
REMARK    1  A    between atoms: C_1  and  C_2
REMARK    2  A    between atoms: C_5  and  N_8
REMARK    3  A    between atoms: N_8  and  C_9
REMARK    4  A    between atoms: N_8  and  C_13
REMARK    5  A    between atoms: C_9  and  C_10
REMARK    6  A    between atoms: C_10  and  C_11
REMARK    7  A    between atoms: C_10  and  O_12
REMARK    8  A    between atoms: C_13  and  C_14
REMARK    9  A    between atoms: C_14  and  C_15
REMARK   10  A    between atoms: C_14  and  O_16
REMARK                            x       y       z     vdW  Elec       q    Type
REMARK                         _______ _______ _______ _____ _____    ______ ____
ROOT
ATOM      1  N   UNL     1       0.033  14.649  14.446  0.00  0.00    +0.000 N 
ENDROOT
BRANCH   1   6
ATOM      2  C   UNL     1       5.523  14.501  12.665  0.00  0.00    +0.000 C 
ATOM      3  C   UNL     1       4.091  14.534  13.104  0.00  0.00    +0.000 A 
ATOM      4  C   UNL     1       3.367  15.722  13.091  0.00  0.00    +0.000 A 
ATOM      5  C   UNL     1       2.034  15.752  13.532  0.00  0.00    +0.000 A 
ATOM      6  C   UNL     1       1.369  14.615  14.026  0.00  0.00    +0.000 A 
ATOM      7  C   UNL     1       2.131  13.432  14.022  0.00  0.00    +0.000 A 
ATOM      8  C   UNL     1       3.464  13.387  13.582  0.00  0.00    +0.000 A 
ENDBRANCH   1   6
BRANCH   1   9
ATOM      9  C   UNL     1      -1.060  14.679  13.445  0.00  0.00    +0.000 C 
BRANCH   9  10
ATOM     10  C   UNL     1      -1.682  13.283  13.194  0.00  0.00    +0.000 C 
ATOM     11  C   UNL     1      -1.030  12.604  11.995  0.00  0.00    +0.000 C 
BRANCH  10  12
ATOM     12  O   UNL     1      -1.512  12.431  14.335  0.00  0.00    +0.000 OA
ATOM     13  H   UNL     1      -2.220  11.765  14.322  0.00  0.00    +0.000 HD
ENDBRANCH  10  12
ENDBRANCH   9  10
ENDBRANCH   1   9
BRANCH   1  14
ATOM     14  C   UNL     1      -0.337  15.160  15.790  0.00  0.00    +0.000 C 
BRANCH  14  15
ATOM     15  C   UNL     1       0.024  14.160  16.915  0.00  0.00    +0.000 C 
ATOM     16  C   UNL     1       1.128  14.667  17.836  0.00  0.00    +0.000 C 
BRANCH  15  17
ATOM     17  O   UNL     1      -1.109  13.839  17.720  0.00  0.00    +0.000 OA
ATOM     18  H   UNL     1      -1.167  12.863  17.697  0.00  0.00    +0.000 HD
ENDBRANCH  15  17
ENDBRANCH  14  15
ENDBRANCH   1  14
TORSDOF 7
ENDMDL
MODEL 5
REMARK VINA RESULT:    -3.874      9.441     12.193
REMARK INTER + INTRA:          -5.925
REMARK INTER:                  -5.309
REMARK INTRA:                  -0.616
REMARK UNBOUND:                -0.693
REMARK  Name = 
REMARK  10 active torsions:
REMARK  status: ('A' for Active; 'I' for Inactive)
REMARK    1  A    between atoms: C_1  and  C_2
REMARK    2  A    between atoms: C_5  and  N_8
REMARK    3  A    between atoms: N_8  and  C_9
REMARK    4  A    between atoms: N_8  and  C_13
REMARK    5  A    between atoms: C_9  and  C_10
REMARK    6  A    between atoms: C_10  and  C_11
REMARK    7  A    between atoms: C_10  and  O_12
REMARK    8  A    between atoms: C_13  and  C_14
REMARK    9  A    between atoms: C_14  and  C_15
REMARK   10  A    between atoms: C_14  and  O_16
REMARK                            x       y       z     vdW  Elec       q    Type
REMARK                         _______ _______ _______ _____ _____    ______ ____
ROOT
ATOM      1  N   UNL     1       3.242   9.195  11.340  0.00  0.00    +0.000 N 
ENDROOT
BRANCH   1   6
ATOM      2  C   UNL     1       8.355  11.605  12.513  0.00  0.00    +0.000 C 
ATOM      3  C   UNL     1       7.034  10.962  12.225  0.00  0.00    +0.000 A 
ATOM      4  C   UNL     1       6.902  10.023  11.208  0.00  0.00    +0.000 A 
ATOM      5  C   UNL     1       5.654   9.445  10.923  0.00  0.00    +0.000 A 
ATOM      6  C   UNL     1       4.480   9.789  11.617  0.00  0.00    +0.000 A 
ATOM      7  C   UNL     1       4.650  10.740  12.640  0.00  0.00    +0.000 A 
ATOM      8  C   UNL     1       5.893  11.324  12.937  0.00  0.00    +0.000 A 
ENDBRANCH   1   6
BRANCH   1   9
ATOM      9  C   UNL     1       2.870   7.916  11.991  0.00  0.00    +0.000 C 
BRANCH   9  10
ATOM     10  C   UNL     1       1.516   7.358  11.488  0.00  0.00    +0.000 C 
ATOM     11  C   UNL     1       1.516   5.834  11.500  0.00  0.00    +0.000 C 
BRANCH  10  12
ATOM     12  O   UNL     1       0.435   7.809  12.315  0.00  0.00    +0.000 OA
ATOM     13  H   UNL     1      -0.255   7.125  12.308  0.00  0.00    +0.000 HD
ENDBRANCH  10  12
ENDBRANCH   9  10
ENDBRANCH   1   9
BRANCH   1  14
ATOM     14  C   UNL     1       2.511   9.491  10.082  0.00  0.00    +0.000 C 
BRANCH  14  15
ATOM     15  C   UNL     1       1.577  10.716  10.223  0.00  0.00    +0.000 C 
ATOM     16  C   UNL     1       0.422  10.707   9.229  0.00  0.00    +0.000 C 
BRANCH  15  17
ATOM     17  O   UNL     1       1.028  10.812  11.537  0.00  0.00    +0.000 OA
ATOM     18  H   UNL     1       0.444  11.596  11.511  0.00  0.00    +0.000 HD
ENDBRANCH  15  17
ENDBRANCH  14  15
ENDBRANCH   1  14
TORSDOF 7
ENDMDL
MODEL 6
REMARK VINA RESULT:    -3.856      9.240     11.359
REMARK INTER + INTRA:          -5.901
REMARK INTER:                  -5.252
REMARK INTRA:                  -0.649
REMARK UNBOUND:                -0.693
REMARK  Name = 
REMARK  10 active torsions:
REMARK  status: ('A' for Active; 'I' for Inactive)
REMARK    1  A    between atoms: C_1  and  C_2
REMARK    2  A    between atoms: C_5  and  N_8
REMARK    3  A    between atoms: N_8  and  C_9
REMARK    4  A    between atoms: N_8  and  C_13
REMARK    5  A    between atoms: C_9  and  C_10
REMARK    6  A    between atoms: C_10  and  C_11
REMARK    7  A    between atoms: C_10  and  O_12
REMARK    8  A    between atoms: C_13  and  C_14
REMARK    9  A    between atoms: C_14  and  C_15
REMARK   10  A    between atoms: C_14  and  O_16
REMARK                            x       y       z     vdW  Elec       q    Type
REMARK                         _______ _______ _______ _____ _____    ______ ____
ROOT
ATOM      1  N   UNL     1       5.375   9.606  10.849  0.00  0.00    +0.000 N 
ENDROOT
BRANCH   1   6
ATOM      2  C   UNL     1       9.352   6.960   7.607  0.00  0.00    +0.000 C 
ATOM      3  C   UNL     1       8.330   7.668   8.442  0.00  0.00    +0.000 A 
ATOM      4  C   UNL     1       8.552   7.904   9.795  0.00  0.00    +0.000 A 
ATOM      5  C   UNL     1       7.578   8.542  10.579  0.00  0.00    +0.000 A 
ATOM      6  C   UNL     1       6.335   8.952  10.065  0.00  0.00    +0.000 A 
ATOM      7  C   UNL     1       6.146   8.700   8.693  0.00  0.00    +0.000 A 
ATOM      8  C   UNL     1       7.113   8.065   7.897  0.00  0.00    +0.000 A 
ENDBRANCH   1   6
BRANCH   1   9
ATOM      9  C   UNL     1       5.629  10.982  11.340  0.00  0.00    +0.000 C 
BRANCH   9  10
ATOM     10  C   UNL     1       6.123  11.014  12.807  0.00  0.00    +0.000 C 
ATOM     11  C   UNL     1       7.520  11.617  12.898  0.00  0.00    +0.000 C 
BRANCH  10  12
ATOM     12  O   UNL     1       5.247  11.796  13.629  0.00  0.00    +0.000 OA
ATOM     13  H   UNL     1       5.673  11.918  14.494  0.00  0.00    +0.000 HD
ENDBRANCH  10  12
ENDBRANCH   9  10
ENDBRANCH   1   9
BRANCH   1  14
ATOM     14  C   UNL     1       4.367   8.841  11.626  0.00  0.00    +0.000 C 
BRANCH  14  15
ATOM     15  C   UNL     1       3.009   9.578  11.708  0.00  0.00    +0.000 C 
ATOM     16  C   UNL     1       1.832   8.719  11.261  0.00  0.00    +0.000 C 
BRANCH  15  17
ATOM     17  O   UNL     1       2.740  10.043  13.030  0.00  0.00    +0.000 OA
ATOM     18  H   UNL     1       2.234  10.872  12.909  0.00  0.00    +0.000 HD
ENDBRANCH  15  17
ENDBRANCH  14  15
ENDBRANCH   1  14
TORSDOF 7
ENDMDL
MODEL 7
REMARK VINA RESULT:    -3.824      9.398     11.969
REMARK INTER + INTRA:          -5.858
REMARK INTER:                  -5.327
REMARK INTRA:                  -0.531
REMARK UNBOUND:                -0.693
REMARK  Name = 
REMARK  10 active torsions:
REMARK  status: ('A' for Active; 'I' for Inactive)
REMARK    1  A    between atoms: C_1  and  C_2
REMARK    2  A    between atoms: C_5  and  N_8
REMARK    3  A    between atoms: N_8  and  C_9
REMARK    4  A    between atoms: N_8  and  C_13
REMARK    5  A    between atoms: C_9  and  C_10
REMARK    6  A    between atoms: C_10  and  C_11
REMARK    7  A    between atoms: C_10  and  O_12
REMARK    8  A    between atoms: C_13  and  C_14
REMARK    9  A    between atoms: C_14  and  C_15
REMARK   10  A    between atoms: C_14  and  O_16
REMARK                            x       y       z     vdW  Elec       q    Type
REMARK                         _______ _______ _______ _____ _____    ______ ____
ROOT
ATOM      1  N   UNL     1       3.346   9.053  11.219  0.00  0.00    +0.000 N 
ENDROOT
BRANCH   1   6
ATOM      2  C   UNL     1       8.382  11.569  12.497  0.00  0.00    +0.000 C 
ATOM      3  C   UNL     1       7.081  10.897  12.181  0.00  0.00    +0.000 A 
ATOM      4  C   UNL     1       6.973  10.017  11.109  0.00  0.00    +0.000 A 
ATOM      5  C   UNL     1       5.743   9.414  10.799  0.00  0.00    +0.000 A 
ATOM      6  C   UNL     1       4.565   9.673  11.522  0.00  0.00    +0.000 A 
ATOM      7  C   UNL     1       4.711  10.566  12.599  0.00  0.00    +0.000 A 
ATOM      8  C   UNL     1       5.936  11.174  12.922  0.00  0.00    +0.000 A 
ENDBRANCH   1   6
BRANCH   1   9
ATOM      9  C   UNL     1       2.352   9.744  10.363  0.00  0.00    +0.000 C 
BRANCH   9  10
ATOM     10  C   UNL     1       1.647  10.916  11.089  0.00  0.00    +0.000 C 
ATOM     11  C   UNL     1       1.774  12.208  10.289  0.00  0.00    +0.000 C 
BRANCH  10  12
ATOM     12  O   UNL     1       0.251  10.643  11.273  0.00  0.00    +0.000 OA
ATOM     13  H   UNL     1      -0.115  11.325  11.860  0.00  0.00    +0.000 HD
ENDBRANCH  10  12
ENDBRANCH   9  10
ENDBRANCH   1   9
BRANCH   1  14
ATOM     14  C   UNL     1       2.785   7.992  12.094  0.00  0.00    +0.000 C 
BRANCH  14  15
ATOM     15  C   UNL     1       1.496   7.370  11.506  0.00  0.00    +0.000 C 
ATOM     16  C   UNL     1       1.536   5.847  11.449  0.00  0.00    +0.000 C 
BRANCH  15  17
ATOM     17  O   UNL     1       0.339   7.755  12.247  0.00  0.00    +0.000 OA
ATOM     18  H   UNL     1      -0.402   7.690  11.612  0.00  0.00    +0.000 HD
ENDBRANCH  15  17
ENDBRANCH  14  15
ENDBRANCH   1  14
TORSDOF 7
ENDMDL
MODEL 8
REMARK VINA RESULT:    -3.811      9.514     11.449
REMARK INTER + INTRA:          -5.841
REMARK INTER:                  -5.398
REMARK INTRA:                  -0.442
REMARK UNBOUND:                -0.693
REMARK  Name = 
REMARK  10 active torsions:
REMARK  status: ('A' for Active; 'I' for Inactive)
REMARK    1  A    between atoms: C_1  and  C_2
REMARK    2  A    between atoms: C_5  and  N_8
REMARK    3  A    between atoms: N_8  and  C_9
REMARK    4  A    between atoms: N_8  and  C_13
REMARK    5  A    between atoms: C_9  and  C_10
REMARK    6  A    between atoms: C_10  and  C_11
REMARK    7  A    between atoms: C_10  and  O_12
REMARK    8  A    between atoms: C_13  and  C_14
REMARK    9  A    between atoms: C_14  and  C_15
REMARK   10  A    between atoms: C_14  and  O_16
REMARK                            x       y       z     vdW  Elec       q    Type
REMARK                         _______ _______ _______ _____ _____    ______ ____
ROOT
ATOM      1  N   UNL     1       4.417   9.713  11.354  0.00  0.00    +0.000 N 
ENDROOT
BRANCH   1   6
ATOM      2  C   UNL     1      10.005   8.898  10.154  0.00  0.00    +0.000 C 
ATOM      3  C   UNL     1       8.551   9.119  10.443  0.00  0.00    +0.000 A 
ATOM      4  C   UNL     1       8.111  10.302  11.025  0.00  0.00    +0.000 A 
ATOM      5  C   UNL     1       6.751  10.492  11.321  0.00  0.00    +0.000 A 
ATOM      6  C   UNL     1       5.774   9.510  11.075  0.00  0.00    +0.000 A 
ATOM      7  C   UNL     1       6.255   8.327  10.483  0.00  0.00    +0.000 A 
ATOM      8  C   UNL     1       7.612   8.126  10.181  0.00  0.00    +0.000 A 
ENDBRANCH   1   6
BRANCH   1   9
ATOM      9  C   UNL     1       4.013  10.487  12.553  0.00  0.00    +0.000 C 
BRANCH   9  10
ATOM     10  C   UNL     1       3.197  11.755  12.202  0.00  0.00    +0.000 C 
ATOM     11  C   UNL     1       3.518  12.237  10.792  0.00  0.00    +0.000 C 
BRANCH  10  12
ATOM     12  O   UNL     1       1.788  11.496  12.272  0.00  0.00    +0.000 OA
ATOM     13  H   UNL     1       1.646  10.771  12.903  0.00  0.00    +0.000 HD
ENDBRANCH  10  12
ENDBRANCH   9  10
ENDBRANCH   1   9
BRANCH   1  14
ATOM     14  C   UNL     1       3.377   8.796  10.823  0.00  0.00    +0.000 C 
BRANCH  14  15
ATOM     15  C   UNL     1       2.577   8.103  11.952  0.00  0.00    +0.000 C 
ATOM     16  C   UNL     1       1.249   7.524  11.479  0.00  0.00    +0.000 C 
BRANCH  15  17
ATOM     17  O   UNL     1       3.326   7.051  12.560  0.00  0.00    +0.000 OA
ATOM     18  H   UNL     1       3.481   6.404  11.843  0.00  0.00    +0.000 HD
ENDBRANCH  15  17
ENDBRANCH  14  15
ENDBRANCH   1  14
TORSDOF 7
ENDMDL
MODEL 9
REMARK VINA RESULT:    -3.797      8.094     10.406
REMARK INTER + INTRA:          -5.822
REMARK INTER:                  -5.081
REMARK INTRA:                  -0.740
REMARK UNBOUND:                -0.693
REMARK  Name = 
REMARK  10 active torsions:
REMARK  status: ('A' for Active; 'I' for Inactive)
REMARK    1  A    between atoms: C_1  and  C_2
REMARK    2  A    between atoms: C_5  and  N_8
REMARK    3  A    between atoms: N_8  and  C_9
REMARK    4  A    between atoms: N_8  and  C_13
REMARK    5  A    between atoms: C_9  and  C_10
REMARK    6  A    between atoms: C_10  and  C_11
REMARK    7  A    between atoms: C_10  and  O_12
REMARK    8  A    between atoms: C_13  and  C_14
REMARK    9  A    between atoms: C_14  and  C_15
REMARK   10  A    between atoms: C_14  and  O_16
REMARK                            x       y       z     vdW  Elec       q    Type
REMARK                         _______ _______ _______ _____ _____    ______ ____
ROOT
ATOM      1  N   UNL     1       5.669  10.995  11.121  0.00  0.00    +0.000 N 
ENDROOT
BRANCH   1   6
ATOM      2  C   UNL     1       9.900   7.247   9.950  0.00  0.00    +0.000 C 
ATOM      3  C   UNL     1       8.805   8.215  10.278  0.00  0.00    +0.000 A 
ATOM      4  C   UNL     1       7.478   7.802  10.329  0.00  0.00    +0.000 A 
ATOM      5  C   UNL     1       6.453   8.720  10.607  0.00  0.00    +0.000 A 
ATOM      6  C   UNL     1       6.694  10.089  10.824  0.00  0.00    +0.000 A 
ATOM      7  C   UNL     1       8.047  10.470  10.768  0.00  0.00    +0.000 A 
ATOM      8  C   UNL     1       9.083   9.562  10.493  0.00  0.00    +0.000 A 
ENDBRANCH   1   6
BRANCH   1   9
ATOM      9  C   UNL     1       4.320  10.809  10.534  0.00  0.00    +0.000 C 
BRANCH   9  10
ATOM     10  C   UNL     1       3.223  10.598  11.607  0.00  0.00    +0.000 C 
ATOM     11  C   UNL     1       2.042   9.824  11.034  0.00  0.00    +0.000 C 
BRANCH  10  12
ATOM     12  O   UNL     1       3.734   9.864  12.728  0.00  0.00    +0.000 OA
ATOM     13  H   UNL     1       3.325   8.982  12.721  0.00  0.00    +0.000 HD
ENDBRANCH  10  12
ENDBRANCH   9  10
ENDBRANCH   1   9
BRANCH   1  14
ATOM     14  C   UNL     1       5.971  12.380  11.564  0.00  0.00    +0.000 C 
BRANCH  14  15
ATOM     15  C   UNL     1       6.061  12.493  13.105  0.00  0.00    +0.000 C 
ATOM     16  C   UNL     1       4.896  13.261  13.719  0.00  0.00    +0.000 C 
BRANCH  15  17
ATOM     17  O   UNL     1       6.121  11.210  13.726  0.00  0.00    +0.000 OA
ATOM     18  H   UNL     1       6.543  10.628  13.062  0.00  0.00    +0.000 HD
ENDBRANCH  15  17
ENDBRANCH  14  15
ENDBRANCH   1  14
TORSDOF 7
ENDMDL
