MODEL 1
REMARK VINA RESULT:    -5.016      0.000      0.000
REMARK INTER + INTRA:          -5.498
REMARK INTER:                  -5.456
REMARK INTRA:                  -0.042
REMARK UNBOUND:                -0.042
REMARK  Name = 
REMARK  3 active torsions:
REMARK  status: ('A' for Active; 'I' for Inactive)
REMARK    1  A    between atoms: C_1  and  O_2
REMARK    2  A    between atoms: O_2  and  C_3
REMARK    3  A    between atoms: C_8  and  O_9
REMARK                            x       y       z     vdW  Elec       q    Type
REMARK                         _______ _______ _______ _____ _____    ______ ____
ROOT
ATOM      1  C   UNL     1       3.570  13.793   0.049  0.00  0.00    +0.000 A 
ATOM      2  C   UNL     1       4.822  14.407   0.038  0.00  0.00    +0.000 A 
ATOM      3  C   UNL     1       5.204  15.197  -1.054  0.00  0.00    +0.000 A 
ATOM      4  C   UNL     1       4.340  15.374  -2.136  0.00  0.00    +0.000 A 
ATOM      5  C   UNL     1       3.088  14.764  -2.132  0.00  0.00    +0.000 A 
ATOM      6  C   UNL     1       2.717  13.983  -1.045  0.00  0.00    +0.000 A 
ENDROOT
BRANCH   1   8
ATOM      7  C   UNL     1       3.456  13.321   2.375  0.00  0.00    +0.000 C 
ATOM      8  O   UNL     1       3.067  12.997   1.046  0.00  0.00    +0.000 OA
ENDBRANCH   1   8
BRANCH   6   9
ATOM      9  O   UNL     1       1.481  13.393  -1.064  0.00  0.00    +0.000 OA
ATOM     10  H   UNL     1       0.853  14.130  -0.942  0.00  0.00    +0.000 HD
ENDBRANCH   6   9
TORSDOF 2
ENDMDL
MODEL 2
REMARK VINA RESULT:    -4.972      1.298      2.327
REMARK INTER + INTRA:          -5.450
REMARK INTER:                  -5.419
REMARK INTRA:                  -0.031
REMARK UNBOUND:                -0.042
REMARK  Name = 
REMARK  3 active torsions:
REMARK  status: ('A' for Active; 'I' for Inactive)
REMARK    1  A    between atoms: C_1  and  O_2
REMARK    2  A    between atoms: O_2  and  C_3
REMARK    3  A    between atoms: C_8  and  O_9
REMARK                            x       y       z     vdW  Elec       q    Type
REMARK                         _______ _______ _______ _____ _____    ______ ____
ROOT
ATOM      1  C   UNL     1       3.703  13.267   0.295  0.00  0.00    +0.000 A 
ATOM      2  C   UNL     1       2.623  13.814  -0.398  0.00  0.00    +0.000 A 
ATOM      3  C   UNL     1       2.849  14.697  -1.461  0.00  0.00    +0.000 A 
ATOM      4  C   UNL     1       4.151  15.037  -1.834  0.00  0.00    +0.000 A 
ATOM      5  C   UNL     1       5.234  14.495  -1.147  0.00  0.00    +0.000 A 
ATOM      6  C   UNL     1       5.001  13.620  -0.094  0.00  0.00    +0.000 A 
ENDROOT
BRANCH   1   8
ATOM      7  C   UNL     1       3.308  12.955   2.617  0.00  0.00    +0.000 C 
ATOM      8  O   UNL     1       3.631  12.394   1.350  0.00  0.00    +0.000 OA
ENDBRANCH   1   8
BRANCH   6   9
ATOM      9  O   UNL     1       6.082  13.100   0.566  0.00  0.00    +0.000 OA
ATOM     10  H   UNL     1       6.520  13.872   0.972  0.00  0.00    +0.000 HD
ENDBRANCH   6   9
TORSDOF 2
ENDMDL
MODEL 3
REMARK VINA RESULT:    -4.948      1.347      3.150
REMARK INTER + INTRA:          -5.424
REMARK INTER:                  -5.374
REMARK INTRA:                  -0.050
REMARK UNBOUND:                -0.042
REMARK  Name = 
REMARK  3 active torsions:
REMARK  status: ('A' for Active; 'I' for Inactive)
REMARK    1  A    between atoms: C_1  and  O_2
REMARK    2  A    between atoms: O_2  and  C_3
REMARK    3  A    between atoms: C_8  and  O_9
REMARK                            x       y       z     vdW  Elec       q    Type
REMARK                         _______ _______ _______ _____ _____    ______ ____
ROOT
ATOM      1  C   UNL     1       4.341  13.942  -0.615  0.00  0.00    +0.000 A 
ATOM      2  C   UNL     1       5.507  14.060   0.140  0.00  0.00    +0.000 A 
ATOM      3  C   UNL     1       5.505  13.694   1.492  0.00  0.00    +0.000 A 
ATOM      4  C   UNL     1       4.341  13.210   2.093  0.00  0.00    +0.000 A 
ATOM      5  C   UNL     1       3.173  13.089   1.345  0.00  0.00    +0.000 A 
ATOM      6  C   UNL     1       3.183  13.455   0.005  0.00  0.00    +0.000 A 
ENDROOT
BRANCH   1   8
ATOM      7  C   UNL     1       4.213  15.647  -2.265  0.00  0.00    +0.000 C 
ATOM      8  O   UNL     1       4.197  14.262  -1.941  0.00  0.00    +0.000 OA
ENDBRANCH   1   8
BRANCH   6   9
ATOM      9  O   UNL     1       2.022  13.326  -0.709  0.00  0.00    +0.000 OA
ATOM     10  H   UNL     1       1.999  14.112  -1.288  0.00  0.00    +0.000 HD
ENDBRANCH   6   9
TORSDOF 2
ENDMDL
MODEL 4
REMARK VINA RESULT:    -4.902      2.021      2.657
REMARK INTER + INTRA:          -5.374
REMARK INTER:                  -5.322
REMARK INTRA:                  -0.052
REMARK UNBOUND:                -0.042
REMARK  Name = 
REMARK  3 active torsions:
REMARK  status: ('A' for Active; 'I' for Inactive)
REMARK    1  A    between atoms: C_1  and  O_2
REMARK    2  A    between atoms: O_2  and  C_3
REMARK    3  A    between atoms: C_8  and  O_9
REMARK                            x       y       z     vdW  Elec       q    Type
REMARK                         _______ _______ _______ _____ _____    ______ ____
ROOT
ATOM      1  C   UNL     1       4.461  13.877  -0.453  0.00  0.00    +0.000 A 
ATOM      2  C   UNL     1       3.241  13.318  -0.078  0.00  0.00    +0.000 A 
ATOM      3  C   UNL     1       2.089  13.580  -0.831  0.00  0.00    +0.000 A 
ATOM      4  C   UNL     1       2.153  14.401  -1.959  0.00  0.00    +0.000 A 
ATOM      5  C   UNL     1       3.369  14.963  -2.341  0.00  0.00    +0.000 A 
ATOM      6  C   UNL     1       4.506  14.698  -1.587  0.00  0.00    +0.000 A 
ENDROOT
BRANCH   1   8
ATOM      7  C   UNL     1       5.719  14.121   1.548  0.00  0.00    +0.000 C 
ATOM      8  O   UNL     1       5.662  13.708   0.188  0.00  0.00    +0.000 OA
ENDBRANCH   1   8
BRANCH   6   9
ATOM      9  O   UNL     1       5.690  15.261  -1.982  0.00  0.00    +0.000 OA
ATOM     10  H   UNL     1       5.804  16.034  -1.397  0.00  0.00    +0.000 HD
ENDBRANCH   6   9
TORSDOF 2
ENDMDL
MODEL 5
REMARK VINA RESULT:    -4.817      1.809      3.266
REMARK INTER + INTRA:          -5.281
REMARK INTER:                  -5.230
REMARK INTRA:                  -0.051
REMARK UNBOUND:                -0.042
REMARK  Name = 
REMARK  3 active torsions:
REMARK  status: ('A' for Active; 'I' for Inactive)
REMARK    1  A    between atoms: C_1  and  O_2
REMARK    2  A    between atoms: O_2  and  C_3
REMARK    3  A    between atoms: C_8  and  O_9
REMARK                            x       y       z     vdW  Elec       q    Type
REMARK                         _______ _______ _______ _____ _____    ______ ____
ROOT
ATOM      1  C   UNL     1       3.229  14.102  -0.594  0.00  0.00    +0.000 A 
ATOM      2  C   UNL     1       2.963  13.387   0.573  0.00  0.00    +0.000 A 
ATOM      3  C   UNL     1       4.009  12.767   1.268  0.00  0.00    +0.000 A 
ATOM      4  C   UNL     1       5.321  12.858   0.800  0.00  0.00    +0.000 A 
ATOM      5  C   UNL     1       5.595  13.571  -0.365  0.00  0.00    +0.000 A 
ATOM      6  C   UNL     1       4.551  14.182  -1.048  0.00  0.00    +0.000 A 
ENDROOT
BRANCH   1   8
ATOM      7  C   UNL     1       1.225  13.974  -1.865  0.00  0.00    +0.000 C 
ATOM      8  O   UNL     1       2.308  14.755  -1.373  0.00  0.00    +0.000 OA
ENDBRANCH   1   8
BRANCH   6   9
ATOM      9  O   UNL     1       4.845  14.877  -2.190  0.00  0.00    +0.000 OA
ATOM     10  H   UNL     1       4.010  15.321  -2.433  0.00  0.00    +0.000 HD
ENDBRANCH   6   9
TORSDOF 2
ENDMDL
MODEL 6
REMARK VINA RESULT:    -4.707      1.845      2.915
REMARK INTER + INTRA:          -5.161
REMARK INTER:                  -5.109
REMARK INTRA:                  -0.052
REMARK UNBOUND:                -0.042
REMARK  Name = 
REMARK  3 active torsions:
REMARK  status: ('A' for Active; 'I' for Inactive)
REMARK    1  A    between atoms: C_1  and  O_2
REMARK    2  A    between atoms: O_2  and  C_3
REMARK    3  A    between atoms: C_8  and  O_9
REMARK                            x       y       z     vdW  Elec       q    Type
REMARK                         _______ _______ _______ _____ _____    ______ ____
ROOT
ATOM      1  C   UNL     1       4.153  13.138   0.617  0.00  0.00    +0.000 A 
ATOM      2  C   UNL     1       3.109  13.416  -0.265  0.00  0.00    +0.000 A 
ATOM      3  C   UNL     1       3.007  14.684  -0.851  0.00  0.00    +0.000 A 
ATOM      4  C   UNL     1       3.945  15.676  -0.559  0.00  0.00    +0.000 A 
ATOM      5  C   UNL     1       4.991  15.406   0.320  0.00  0.00    +0.000 A 
ATOM      6  C   UNL     1       5.084  14.146   0.897  0.00  0.00    +0.000 A 
ENDROOT
BRANCH   1   8
ATOM      7  C   UNL     1       4.647  10.821   0.437  0.00  0.00    +0.000 C 
ATOM      8  O   UNL     1       4.375  11.948   1.261  0.00  0.00    +0.000 OA
ENDBRANCH   1   8
BRANCH   6   9
ATOM      9  O   UNL     1       6.121  13.904   1.759  0.00  0.00    +0.000 OA
ATOM     10  H   UNL     1       6.700  13.280   1.281  0.00  0.00    +0.000 HD
ENDBRANCH   6   9
TORSDOF 2
ENDMDL
MODEL 7
REMARK VINA RESULT:    -4.477      2.361      4.210
REMARK INTER + INTRA:          -4.912
REMARK INTER:                  -4.859
REMARK INTRA:                  -0.053
REMARK UNBOUND:                -0.042
REMARK  Name = 
REMARK  3 active torsions:
REMARK  status: ('A' for Active; 'I' for Inactive)
REMARK    1  A    between atoms: C_1  and  O_2
REMARK    2  A    between atoms: O_2  and  C_3
REMARK    3  A    between atoms: C_8  and  O_9
REMARK                            x       y       z     vdW  Elec       q    Type
REMARK                         _______ _______ _______ _____ _____    ______ ____
ROOT
ATOM      1  C   UNL     1       5.114  12.849   0.352  0.00  0.00    +0.000 A 
ATOM      2  C   UNL     1       5.183  11.646  -0.349  0.00  0.00    +0.000 A 
ATOM      3  C   UNL     1       4.679  10.472   0.225  0.00  0.00    +0.000 A 
ATOM      4  C   UNL     1       4.108  10.496   1.498  0.00  0.00    +0.000 A 
ATOM      5  C   UNL     1       4.035  11.694   2.205  0.00  0.00    +0.000 A 
ATOM      6  C   UNL     1       4.538  12.853   1.628  0.00  0.00    +0.000 A 
ENDROOT
BRANCH   1   8
ATOM      7  C   UNL     1       4.894  14.631  -1.205  0.00  0.00    +0.000 C 
ATOM      8  O   UNL     1       5.566  14.069  -0.084  0.00  0.00    +0.000 OA
ENDBRANCH   1   8
BRANCH   6   9
ATOM      9  O   UNL     1       4.455  14.019   2.343  0.00  0.00    +0.000 OA
ATOM     10  H   UNL     1       4.620  13.755   3.268  0.00  0.00    +0.000 HD
ENDBRANCH   6   9
TORSDOF 2
ENDMDL
MODEL 8
REMARK VINA RESULT:    -4.389      1.082      2.713
REMARK INTER + INTRA:          -4.816
REMARK INTER:                  -4.779
REMARK INTRA:                  -0.037
REMARK UNBOUND:                -0.042
REMARK  Name = 
REMARK  3 active torsions:
REMARK  status: ('A' for Active; 'I' for Inactive)
REMARK    1  A    between atoms: C_1  and  O_2
REMARK    2  A    between atoms: O_2  and  C_3
REMARK    3  A    between atoms: C_8  and  O_9
REMARK                            x       y       z     vdW  Elec       q    Type
REMARK                         _______ _______ _______ _____ _____    ______ ____
ROOT
ATOM      1  C   UNL     1       2.920  13.993  -1.210  0.00  0.00    +0.000 A 
ATOM      2  C   UNL     1       3.337  15.103  -1.943  0.00  0.00    +0.000 A 
ATOM      3  C   UNL     1       4.653  15.566  -1.825  0.00  0.00    +0.000 A 
ATOM      4  C   UNL     1       5.555  14.923  -0.975  0.00  0.00    +0.000 A 
ATOM      5  C   UNL     1       5.147  13.813  -0.239  0.00  0.00    +0.000 A 
ATOM      6  C   UNL     1       3.839  13.362  -0.363  0.00  0.00    +0.000 A 
ENDROOT
BRANCH   1   8
ATOM      7  C   UNL     1       0.722  14.021  -2.113  0.00  0.00    +0.000 C 
ATOM      8  O   UNL     1       1.667  13.434  -1.226  0.00  0.00    +0.000 OA
ENDBRANCH   1   8
BRANCH   6   9
ATOM      9  O   UNL     1       3.460  12.269   0.371  0.00  0.00    +0.000 OA
ATOM     10  H   UNL     1       3.677  11.503  -0.195  0.00  0.00    +0.000 HD
ENDBRANCH   6   9
TORSDOF 2
ENDMDL
MODEL 9
REMARK VINA RESULT:    -4.224      8.231      8.555
REMARK INTER + INTRA:          -4.637
REMARK INTER:                  -4.587
REMARK INTRA:                  -0.050
REMARK UNBOUND:                -0.042
REMARK  Name = 
REMARK  3 active torsions:
REMARK  status: ('A' for Active; 'I' for Inactive)
REMARK    1  A    between atoms: C_1  and  O_2
REMARK    2  A    between atoms: O_2  and  C_3
REMARK    3  A    between atoms: C_8  and  O_9
REMARK                            x       y       z     vdW  Elec       q    Type
REMARK                         _______ _______ _______ _____ _____    ______ ____
ROOT
ATOM      1  C   UNL     1      10.118  19.460  -1.827  0.00  0.00    +0.000 A 
ATOM      2  C   UNL     1      11.280  18.728  -1.584  0.00  0.00    +0.000 A 
ATOM      3  C   UNL     1      11.702  17.760  -2.504  0.00  0.00    +0.000 A 
ATOM      4  C   UNL     1      10.965  17.518  -3.665  0.00  0.00    +0.000 A 
ATOM      5  C   UNL     1       9.803  18.245  -3.914  0.00  0.00    +0.000 A 
ATOM      6  C   UNL     1       9.393  19.203  -2.997  0.00  0.00    +0.000 A 
ENDROOT
BRANCH   1   8
ATOM      7  C   UNL     1       9.346  20.070   0.336  0.00  0.00    +0.000 C 
ATOM      8  O   UNL     1       9.589  20.433  -1.018  0.00  0.00    +0.000 OA
ENDBRANCH   1   8
BRANCH   6   9
ATOM      9  O   UNL     1       8.247  19.905  -3.263  0.00  0.00    +0.000 OA
ATOM     10  H   UNL     1       7.526  19.339  -2.927  0.00  0.00    +0.000 HD
ENDBRANCH   6   9
TORSDOF 2
ENDMDL
