MODEL 1
REMARK VINA RESULT:    -5.665      0.000      0.000
REMARK INTER + INTRA:          -7.649
REMARK INTER:                  -7.652
REMARK INTRA:                   0.004
REMARK UNBOUND:                 0.004
REMARK  Name = 
REMARK  10 active torsions:
REMARK  status: ('A' for Active; 'I' for Inactive)
REMARK    1  A    between atoms: C_1  and  C_2
REMARK    2  A    between atoms: C_5  and  N_8
REMARK    3  A    between atoms: N_8  and  C_9
REMARK    4  A    between atoms: N_8  and  C_13
REMARK    5  A    between atoms: C_9  and  C_10
REMARK    6  A    between atoms: C_10  and  C_11
REMARK    7  A    between atoms: C_10  and  O_12
REMARK    8  A    between atoms: C_13  and  C_14
REMARK    9  A    between atoms: C_14  and  C_15
REMARK   10  A    between atoms: C_14  and  O_16
REMARK                            x       y       z     vdW  Elec       q    Type
REMARK                         _______ _______ _______ _____ _____    ______ ____
ROOT
ATOM      1  N   UNL     1       3.395  13.169   2.149  0.00  0.00    +0.000 N 
ENDROOT
BRANCH   1   6
ATOM      2  C   UNL     1       4.337  16.027  -2.778  0.00  0.00    +0.000 C 
ATOM      3  C   UNL     1       4.105  15.265  -1.509  0.00  0.00    +0.000 A 
ATOM      4  C   UNL     1       2.963  14.490  -1.339  0.00  0.00    +0.000 A 
ATOM      5  C   UNL     1       2.737  13.803  -0.136  0.00  0.00    +0.000 A 
ATOM      6  C   UNL     1       3.618  13.873   0.959  0.00  0.00    +0.000 A 
ATOM      7  C   UNL     1       4.762  14.664   0.751  0.00  0.00    +0.000 A 
ATOM      8  C   UNL     1       5.002  15.355  -0.449  0.00  0.00    +0.000 A 
ENDBRANCH   1   6
BRANCH   1   9
ATOM      9  C   UNL     1       2.756  13.845   3.304  0.00  0.00    +0.000 C 
BRANCH   9  10
ATOM     10  C   UNL     1       2.514  12.891   4.499  0.00  0.00    +0.000 C 
ATOM     11  C   UNL     1       3.686  12.927   5.472  0.00  0.00    +0.000 C 
BRANCH  10  12
ATOM     12  O   UNL     1       1.328  13.257   5.217  0.00  0.00    +0.000 OA
ATOM     13  H   UNL     1       1.175  14.207   5.082  0.00  0.00    +0.000 HD
ENDBRANCH  10  12
ENDBRANCH   9  10
ENDBRANCH   1   9
BRANCH   1  14
ATOM     14  C   UNL     1       4.200  11.969   2.495  0.00  0.00    +0.000 C 
BRANCH  14  15
ATOM     15  C   UNL     1       3.984  10.811   1.492  0.00  0.00    +0.000 C 
ATOM     16  C   UNL     1       4.924  10.872   0.294  0.00  0.00    +0.000 C 
BRANCH  15  17
ATOM     17  O   UNL     1       4.142   9.538   2.114  0.00  0.00    +0.000 OA
ATOM     18  H   UNL     1       4.655   9.005   1.473  0.00  0.00    +0.000 HD
ENDBRANCH  15  17
ENDBRANCH  14  15
ENDBRANCH   1  14
TORSDOF 7
ENDMDL
MODEL 2
REMARK VINA RESULT:    -5.543      1.185      3.445
REMARK INTER + INTRA:          -7.483
REMARK INTER:                  -7.028
REMARK INTRA:                  -0.455
REMARK UNBOUND:                 0.004
REMARK  Name = 
REMARK  10 active torsions:
REMARK  status: ('A' for Active; 'I' for Inactive)
REMARK    1  A    between atoms: C_1  and  C_2
REMARK    2  A    between atoms: C_5  and  N_8
REMARK    3  A    between atoms: N_8  and  C_9
REMARK    4  A    between atoms: N_8  and  C_13
REMARK    5  A    between atoms: C_9  and  C_10
REMARK    6  A    between atoms: C_10  and  C_11
REMARK    7  A    between atoms: C_10  and  O_12
REMARK    8  A    between atoms: C_13  and  C_14
REMARK    9  A    between atoms: C_14  and  C_15
REMARK   10  A    between atoms: C_14  and  O_16
REMARK                            x       y       z     vdW  Elec       q    Type
REMARK                         _______ _______ _______ _____ _____    ______ ____
ROOT
ATOM      1  N   UNL     1       4.473  12.510   1.893  0.00  0.00    +0.000 N 
ENDROOT
BRANCH   1   6
ATOM      2  C   UNL     1       3.990  15.944  -2.722  0.00  0.00    +0.000 C 
ATOM      3  C   UNL     1       4.119  15.033  -1.540  0.00  0.00    +0.000 A 
ATOM      4  C   UNL     1       3.000  14.425  -0.981  0.00  0.00    +0.000 A 
ATOM      5  C   UNL     1       3.124  13.596   0.146  0.00  0.00    +0.000 A 
ATOM      6  C   UNL     1       4.355  13.353   0.781  0.00  0.00    +0.000 A 
ATOM      7  C   UNL     1       5.465  13.983   0.188  0.00  0.00    +0.000 A 
ATOM      8  C   UNL     1       5.356  14.812  -0.940  0.00  0.00    +0.000 A 
ENDBRANCH   1   6
BRANCH   1   9
ATOM      9  C   UNL     1       3.920  11.135   1.846  0.00  0.00    +0.000 C 
BRANCH   9  10
ATOM     10  C   UNL     1       4.756  10.181   0.958  0.00  0.00    +0.000 C 
ATOM     11  C   UNL     1       5.126   8.913   1.717  0.00  0.00    +0.000 C 
BRANCH  10  12
ATOM     12  O   UNL     1       4.027   9.799  -0.217  0.00  0.00    +0.000 OA
ATOM     13  H   UNL     1       4.366   8.939  -0.515  0.00  0.00    +0.000 HD
ENDBRANCH  10  12
ENDBRANCH   9  10
ENDBRANCH   1   9
BRANCH   1  14
ATOM     14  C   UNL     1       4.659  13.061   3.260  0.00  0.00    +0.000 C 
BRANCH  14  15
ATOM     15  C   UNL     1       3.537  12.614   4.228  0.00  0.00    +0.000 C 
ATOM     16  C   UNL     1       3.923  12.751   5.696  0.00  0.00    +0.000 C 
BRANCH  15  17
ATOM     17  O   UNL     1       2.334  13.352   4.017  0.00  0.00    +0.000 OA
ATOM     18  H   UNL     1       2.508  14.234   4.403  0.00  0.00    +0.000 HD
ENDBRANCH  15  17
ENDBRANCH  14  15
ENDBRANCH   1  14
TORSDOF 7
ENDMDL
MODEL 3
REMARK VINA RESULT:    -5.049      9.577     11.414
REMARK INTER + INTRA:          -6.817
REMARK INTER:                  -6.400
REMARK INTRA:                  -0.417
REMARK UNBOUND:                 0.004
REMARK  Name = 
REMARK  10 active torsions:
REMARK  status: ('A' for Active; 'I' for Inactive)
REMARK    1  A    between atoms: C_1  and  C_2
REMARK    2  A    between atoms: C_5  and  N_8
REMARK    3  A    between atoms: N_8  and  C_9
REMARK    4  A    between atoms: N_8  and  C_13
REMARK    5  A    between atoms: C_9  and  C_10
REMARK    6  A    between atoms: C_10  and  C_11
REMARK    7  A    between atoms: C_10  and  O_12
REMARK    8  A    between atoms: C_13  and  C_14
REMARK    9  A    between atoms: C_14  and  C_15
REMARK   10  A    between atoms: C_14  and  O_16
REMARK                            x       y       z     vdW  Elec       q    Type
REMARK                         _______ _______ _______ _____ _____    ______ ____
ROOT
ATOM      1  N   UNL     1      10.691  20.333  -2.237  0.00  0.00    +0.000 N 
ENDROOT
BRANCH   1   6
ATOM      2  C   UNL     1      15.984  18.045  -2.507  0.00  0.00    +0.000 C 
ATOM      3  C   UNL     1      14.610  18.634  -2.412  0.00  0.00    +0.000 A 
ATOM      4  C   UNL     1      13.481  17.852  -2.633  0.00  0.00    +0.000 A 
ATOM      5  C   UNL     1      12.196  18.416  -2.573  0.00  0.00    +0.000 A 
ATOM      6  C   UNL     1      11.975  19.781  -2.315  0.00  0.00    +0.000 A 
ATOM      7  C   UNL     1      13.139  20.540  -2.094  0.00  0.00    +0.000 A 
ATOM      8  C   UNL     1      14.430  19.988  -2.149  0.00  0.00    +0.000 A 
ENDBRANCH   1   6
BRANCH   1   9
ATOM      9  C   UNL     1      10.347  21.264  -1.136  0.00  0.00    +0.000 C 
BRANCH   9  10
ATOM     10  C   UNL     1       9.057  20.856  -0.384  0.00  0.00    +0.000 C 
ATOM     11  C   UNL     1       9.380  19.957   0.804  0.00  0.00    +0.000 C 
BRANCH  10  12
ATOM     12  O   UNL     1       8.360  22.009   0.108  0.00  0.00    +0.000 OA
ATOM     13  H   UNL     1       8.484  22.048   1.071  0.00  0.00    +0.000 HD
ENDBRANCH  10  12
ENDBRANCH   9  10
ENDBRANCH   1   9
BRANCH   1  14
ATOM     14  C   UNL     1       9.527  19.666  -2.876  0.00  0.00    +0.000 C 
BRANCH  14  15
ATOM     15  C   UNL     1       9.458  19.942  -4.397  0.00  0.00    +0.000 C 
ATOM     16  C   UNL     1      10.239  21.182  -4.817  0.00  0.00    +0.000 C 
BRANCH  15  17
ATOM     17  O   UNL     1       9.943  18.836  -5.156  0.00  0.00    +0.000 OA
ATOM     18  H   UNL     1      10.449  18.294  -4.518  0.00  0.00    +0.000 HD
ENDBRANCH  15  17
ENDBRANCH  14  15
ENDBRANCH   1  14
TORSDOF 7
ENDMDL
MODEL 4
REMARK VINA RESULT:    -5.023     11.421     13.677
REMARK INTER + INTRA:          -6.782
REMARK INTER:                  -6.322
REMARK INTRA:                  -0.459
REMARK UNBOUND:                 0.004
REMARK  Name = 
REMARK  10 active torsions:
REMARK  status: ('A' for Active; 'I' for Inactive)
REMARK    1  A    between atoms: C_1  and  C_2
REMARK    2  A    between atoms: C_5  and  N_8
REMARK    3  A    between atoms: N_8  and  C_9
REMARK    4  A    between atoms: N_8  and  C_13
REMARK    5  A    between atoms: C_9  and  C_10
REMARK    6  A    between atoms: C_10  and  C_11
REMARK    7  A    between atoms: C_10  and  O_12
REMARK    8  A    between atoms: C_13  and  C_14
REMARK    9  A    between atoms: C_14  and  C_15
REMARK   10  A    between atoms: C_14  and  O_16
REMARK                            x       y       z     vdW  Elec       q    Type
REMARK                         _______ _______ _______ _____ _____    ______ ____
ROOT
ATOM      1  N   UNL     1      14.528  19.530  -3.086  0.00  0.00    +0.000 N 
ENDROOT
BRANCH   1   6
ATOM      2  C   UNL     1       9.079  17.735  -3.728  0.00  0.00    +0.000 C 
ATOM      3  C   UNL     1      10.487  18.210  -3.539  0.00  0.00    +0.000 A 
ATOM      4  C   UNL     1      10.882  19.468  -3.981  0.00  0.00    +0.000 A 
ATOM      5  C   UNL     1      12.211  19.896  -3.828  0.00  0.00    +0.000 A 
ATOM      6  C   UNL     1      13.209  19.089  -3.253  0.00  0.00    +0.000 A 
ATOM      7  C   UNL     1      12.774  17.824  -2.816  0.00  0.00    +0.000 A 
ATOM      8  C   UNL     1      11.448  17.385  -2.961  0.00  0.00    +0.000 A 
ENDBRANCH   1   6
BRANCH   1   9
ATOM      9  C   UNL     1      15.482  18.733  -2.277  0.00  0.00    +0.000 C 
BRANCH   9  10
ATOM     10  C   UNL     1      16.692  18.228  -3.101  0.00  0.00    +0.000 C 
ATOM     11  C   UNL     1      18.004  18.570  -2.406  0.00  0.00    +0.000 C 
BRANCH  10  12
ATOM     12  O   UNL     1      16.639  16.805  -3.274  0.00  0.00    +0.000 OA
ATOM     13  H   UNL     1      16.556  16.397  -2.396  0.00  0.00    +0.000 HD
ENDBRANCH  10  12
ENDBRANCH   9  10
ENDBRANCH   1   9
BRANCH   1  14
ATOM     14  C   UNL     1      14.885  20.964  -3.238  0.00  0.00    +0.000 C 
BRANCH  14  15
ATOM     15  C   UNL     1      15.473  21.275  -4.636  0.00  0.00    +0.000 C 
ATOM     16  C   UNL     1      16.947  21.660  -4.594  0.00  0.00    +0.000 C 
BRANCH  15  17
ATOM     17  O   UNL     1      15.330  20.169  -5.526  0.00  0.00    +0.000 OA
ATOM     18  H   UNL     1      14.939  19.456  -4.982  0.00  0.00    +0.000 HD
ENDBRANCH  15  17
ENDBRANCH  14  15
ENDBRANCH   1  14
TORSDOF 7
ENDMDL
MODEL 5
REMARK VINA RESULT:    -4.953      9.795     12.131
REMARK INTER + INTRA:          -6.687
REMARK INTER:                  -6.235
REMARK INTRA:                  -0.452
REMARK UNBOUND:                 0.004
REMARK  Name = 
REMARK  10 active torsions:
REMARK  status: ('A' for Active; 'I' for Inactive)
REMARK    1  A    between atoms: C_1  and  C_2
REMARK    2  A    between atoms: C_5  and  N_8
REMARK    3  A    between atoms: N_8  and  C_9
REMARK    4  A    between atoms: N_8  and  C_13
REMARK    5  A    between atoms: C_9  and  C_10
REMARK    6  A    between atoms: C_10  and  C_11
REMARK    7  A    between atoms: C_10  and  O_12
REMARK    8  A    between atoms: C_13  and  C_14
REMARK    9  A    between atoms: C_14  and  C_15
REMARK   10  A    between atoms: C_14  and  O_16
REMARK                            x       y       z     vdW  Elec       q    Type
REMARK                         _______ _______ _______ _____ _____    ______ ____
ROOT
ATOM      1  N   UNL     1      11.178  20.757  -2.220  0.00  0.00    +0.000 N 
ENDROOT
BRANCH   1   6
ATOM      2  C   UNL     1      16.220  17.961  -2.527  0.00  0.00    +0.000 C 
ATOM      3  C   UNL     1      14.911  18.689  -2.472  0.00  0.00    +0.000 A 
ATOM      4  C   UNL     1      14.868  20.072  -2.336  0.00  0.00    +0.000 A 
ATOM      5  C   UNL     1      13.638  20.746  -2.255  0.00  0.00    +0.000 A 
ATOM      6  C   UNL     1      12.401  20.077  -2.282  0.00  0.00    +0.000 A 
ATOM      7  C   UNL     1      12.483  18.680  -2.423  0.00  0.00    +0.000 A 
ATOM      8  C   UNL     1      13.706  17.994  -2.507  0.00  0.00    +0.000 A 
ENDBRANCH   1   6
BRANCH   1   9
ATOM      9  C   UNL     1      10.546  21.265  -3.462  0.00  0.00    +0.000 C 
BRANCH   9  10
ATOM     10  C   UNL     1      10.043  20.129  -4.386  0.00  0.00    +0.000 C 
ATOM     11  C   UNL     1       9.037  19.242  -3.662  0.00  0.00    +0.000 C 
BRANCH  10  12
ATOM     12  O   UNL     1       9.405  20.662  -5.555  0.00  0.00    +0.000 OA
ATOM     13  H   UNL     1       9.584  20.060  -6.297  0.00  0.00    +0.000 HD
ENDBRANCH  10  12
ENDBRANCH   9  10
ENDBRANCH   1   9
BRANCH   1  14
ATOM     14  C   UNL     1      10.736  21.433  -0.973  0.00  0.00    +0.000 C 
BRANCH  14  15
ATOM     15  C   UNL     1       9.334  20.961  -0.518  0.00  0.00    +0.000 C 
ATOM     16  C   UNL     1       9.384  19.853   0.527  0.00  0.00    +0.000 C 
BRANCH  15  17
ATOM     17  O   UNL     1       8.563  22.037   0.015  0.00  0.00    +0.000 OA
ATOM     18  H   UNL     1       7.987  22.324  -0.722  0.00  0.00    +0.000 HD
ENDBRANCH  15  17
ENDBRANCH  14  15
ENDBRANCH   1  14
TORSDOF 7
ENDMDL
MODEL 6
REMARK VINA RESULT:    -4.762     11.209     13.251
REMARK INTER + INTRA:          -6.429
REMARK INTER:                  -5.996
REMARK INTRA:                  -0.433
REMARK UNBOUND:                 0.004
REMARK  Name = 
REMARK  10 active torsions:
REMARK  status: ('A' for Active; 'I' for Inactive)
REMARK    1  A    between atoms: C_1  and  C_2
REMARK    2  A    between atoms: C_5  and  N_8
REMARK    3  A    between atoms: N_8  and  C_9
REMARK    4  A    between atoms: N_8  and  C_13
REMARK    5  A    between atoms: C_9  and  C_10
REMARK    6  A    between atoms: C_10  and  C_11
REMARK    7  A    between atoms: C_10  and  O_12
REMARK    8  A    between atoms: C_13  and  C_14
REMARK    9  A    between atoms: C_14  and  C_15
REMARK   10  A    between atoms: C_14  and  O_16
REMARK                            x       y       z     vdW  Elec       q    Type
REMARK                         _______ _______ _______ _____ _____    ______ ____
ROOT
ATOM      1  N   UNL     1      14.300  19.375  -2.955  0.00  0.00    +0.000 N 
ENDROOT
BRANCH   1   6
ATOM      2  C   UNL     1       8.794  17.833  -3.752  0.00  0.00    +0.000 C 
ATOM      3  C   UNL     1      10.228  18.223  -3.567  0.00  0.00    +0.000 A 
ATOM      4  C   UNL     1      11.120  17.378  -2.915  0.00  0.00    +0.000 A 
ATOM      5  C   UNL     1      12.457  17.763  -2.718  0.00  0.00    +0.000 A 
ATOM      6  C   UNL     1      12.961  19.007  -3.137  0.00  0.00    +0.000 A 
ATOM      7  C   UNL     1      12.032  19.834  -3.795  0.00  0.00    +0.000 A 
ATOM      8  C   UNL     1      10.693  19.461  -4.000  0.00  0.00    +0.000 A 
ENDBRANCH   1   6
BRANCH   1   9
ATOM      9  C   UNL     1      14.960  20.282  -3.925  0.00  0.00    +0.000 C 
BRANCH   9  10
ATOM     10  C   UNL     1      15.281  21.673  -3.324  0.00  0.00    +0.000 C 
ATOM     11  C   UNL     1      14.551  21.876  -2.001  0.00  0.00    +0.000 C 
BRANCH  10  12
ATOM     12  O   UNL     1      16.687  21.817  -3.082  0.00  0.00    +0.000 OA
ATOM     13  H   UNL     1      16.802  22.403  -2.316  0.00  0.00    +0.000 HD
ENDBRANCH  10  12
ENDBRANCH   9  10
ENDBRANCH   1   9
BRANCH   1  14
ATOM     14  C   UNL     1      15.227  18.533  -2.157  0.00  0.00    +0.000 C 
BRANCH  14  15
ATOM     15  C   UNL     1      16.545  18.238  -2.912  0.00  0.00    +0.000 C 
ATOM     16  C   UNL     1      17.790  18.607  -2.114  0.00  0.00    +0.000 C 
BRANCH  15  17
ATOM     17  O   UNL     1      16.646  16.862  -3.277  0.00  0.00    +0.000 OA
ATOM     18  H   UNL     1      15.996  16.743  -3.998  0.00  0.00    +0.000 HD
ENDBRANCH  15  17
ENDBRANCH  14  15
ENDBRANCH   1  14
TORSDOF 7
ENDMDL
MODEL 7
REMARK VINA RESULT:    -4.698     10.091     12.299
REMARK INTER + INTRA:          -6.343
REMARK INTER:                  -5.888
REMARK INTRA:                  -0.455
REMARK UNBOUND:                 0.004
REMARK  Name = 
REMARK  10 active torsions:
REMARK  status: ('A' for Active; 'I' for Inactive)
REMARK    1  A    between atoms: C_1  and  C_2
REMARK    2  A    between atoms: C_5  and  N_8
REMARK    3  A    between atoms: N_8  and  C_9
REMARK    4  A    between atoms: N_8  and  C_13
REMARK    5  A    between atoms: C_9  and  C_10
REMARK    6  A    between atoms: C_10  and  C_11
REMARK    7  A    between atoms: C_10  and  O_12
REMARK    8  A    between atoms: C_13  and  C_14
REMARK    9  A    between atoms: C_14  and  C_15
REMARK   10  A    between atoms: C_14  and  O_16
REMARK                            x       y       z     vdW  Elec       q    Type
REMARK                         _______ _______ _______ _____ _____    ______ ____
ROOT
ATOM      1  N   UNL     1      11.942  20.497  -3.243  0.00  0.00    +0.000 N 
ENDROOT
BRANCH   1   6
ATOM      2  C   UNL     1       8.871  21.147   1.601  0.00  0.00    +0.000 C 
ATOM      3  C   UNL     1       9.687  20.971   0.358  0.00  0.00    +0.000 A 
ATOM      4  C   UNL     1      10.405  22.034  -0.182  0.00  0.00    +0.000 A 
ATOM      5  C   UNL     1      11.144  21.871  -1.365  0.00  0.00    +0.000 A 
ATOM      6  C   UNL     1      11.187  20.658  -2.075  0.00  0.00    +0.000 A 
ATOM      7  C   UNL     1      10.452  19.605  -1.499  0.00  0.00    +0.000 A 
ATOM      8  C   UNL     1       9.710  19.754  -0.316  0.00  0.00    +0.000 A 
ENDBRANCH   1   6
BRANCH   1   9
ATOM      9  C   UNL     1      11.590  21.257  -4.467  0.00  0.00    +0.000 C 
BRANCH   9  10
ATOM     10  C   UNL     1      10.099  21.107  -4.858  0.00  0.00    +0.000 C 
ATOM     11  C   UNL     1       9.770  21.949  -6.085  0.00  0.00    +0.000 C 
BRANCH  10  12
ATOM     12  O   UNL     1       9.781  19.741  -5.158  0.00  0.00    +0.000 OA
ATOM     13  H   UNL     1       9.755  19.643  -6.125  0.00  0.00    +0.000 HD
ENDBRANCH  10  12
ENDBRANCH   9  10
ENDBRANCH   1   9
BRANCH   1  14
ATOM     14  C   UNL     1      12.739  19.266  -3.480  0.00  0.00    +0.000 C 
BRANCH  14  15
ATOM     15  C   UNL     1      14.232  19.457  -3.118  0.00  0.00    +0.000 C 
ATOM     16  C   UNL     1      14.827  18.264  -2.380  0.00  0.00    +0.000 C 
BRANCH  15  17
ATOM     17  O   UNL     1      15.028  19.702  -4.277  0.00  0.00    +0.000 OA
ATOM     18  H   UNL     1      15.597  20.461  -4.037  0.00  0.00    +0.000 HD
ENDBRANCH  15  17
ENDBRANCH  14  15
ENDBRANCH   1  14
TORSDOF 7
ENDMDL
MODEL 8
REMARK VINA RESULT:    -4.639     11.335     13.478
REMARK INTER + INTRA:          -6.262
REMARK INTER:                  -5.714
REMARK INTRA:                  -0.548
REMARK UNBOUND:                 0.004
REMARK  Name = 
REMARK  10 active torsions:
REMARK  status: ('A' for Active; 'I' for Inactive)
REMARK    1  A    between atoms: C_1  and  C_2
REMARK    2  A    between atoms: C_5  and  N_8
REMARK    3  A    between atoms: N_8  and  C_9
REMARK    4  A    between atoms: N_8  and  C_13
REMARK    5  A    between atoms: C_9  and  C_10
REMARK    6  A    between atoms: C_10  and  C_11
REMARK    7  A    between atoms: C_10  and  O_12
REMARK    8  A    between atoms: C_13  and  C_14
REMARK    9  A    between atoms: C_14  and  C_15
REMARK   10  A    between atoms: C_14  and  O_16
REMARK                            x       y       z     vdW  Elec       q    Type
REMARK                         _______ _______ _______ _____ _____    ______ ____
ROOT
ATOM      1  N   UNL     1      14.523  19.340  -2.207  0.00  0.00    +0.000 N 
ENDROOT
BRANCH   1   6
ATOM      2  C   UNL     1       9.026  18.090  -3.451  0.00  0.00    +0.000 C 
ATOM      3  C   UNL     1      10.448  18.408  -3.104  0.00  0.00    +0.000 A 
ATOM      4  C   UNL     1      10.824  19.697  -2.741  0.00  0.00    +0.000 A 
ATOM      5  C   UNL     1      12.164  19.996  -2.446  0.00  0.00    +0.000 A 
ATOM      6  C   UNL     1      13.192  19.039  -2.522  0.00  0.00    +0.000 A 
ATOM      7  C   UNL     1      12.776  17.747  -2.890  0.00  0.00    +0.000 A 
ATOM      8  C   UNL     1      11.439  17.434  -3.185  0.00  0.00    +0.000 A 
ENDBRANCH   1   6
BRANCH   1   9
ATOM      9  C   UNL     1      15.158  20.563  -2.754  0.00  0.00    +0.000 C 
BRANCH   9  10
ATOM     10  C   UNL     1      15.170  20.593  -4.302  0.00  0.00    +0.000 C 
ATOM     11  C   UNL     1      15.301  22.021  -4.819  0.00  0.00    +0.000 C 
BRANCH  10  12
ATOM     12  O   UNL     1      16.267  19.830  -4.823  0.00  0.00    +0.000 OA
ATOM     13  H   UNL     1      16.440  20.131  -5.730  0.00  0.00    +0.000 HD
ENDBRANCH  10  12
ENDBRANCH   9  10
ENDBRANCH   1   9
BRANCH   1  14
ATOM     14  C   UNL     1      15.474  18.277  -1.789  0.00  0.00    +0.000 C 
BRANCH  14  15
ATOM     15  C   UNL     1      16.931  18.794  -1.712  0.00  0.00    +0.000 C 
ATOM     16  C   UNL     1      17.531  18.688  -0.315  0.00  0.00    +0.000 C 
BRANCH  15  17
ATOM     17  O   UNL     1      17.786  18.095  -2.615  0.00  0.00    +0.000 OA
ATOM     18  H   UNL     1      17.192  17.757  -3.315  0.00  0.00    +0.000 HD
ENDBRANCH  15  17
ENDBRANCH  14  15
ENDBRANCH   1  14
TORSDOF 7
ENDMDL
