MODEL 1
REMARK VINA RESULT:    -4.234      0.000      0.000
REMARK INTER + INTRA:          -4.645
REMARK INTER:                  -4.606
REMARK INTRA:                  -0.040
REMARK UNBOUND:                -0.040
REMARK  Name = 
REMARK  3 active torsions:
REMARK  status: ('A' for Active; 'I' for Inactive)
REMARK    1  A    between atoms: C_1  and  O_2
REMARK    2  A    between atoms: O_2  and  C_3
REMARK    3  A    between atoms: C_8  and  O_9
REMARK                            x       y       z     vdW  Elec       q    Type
REMARK                         _______ _______ _______ _____ _____    ______ ____
ROOT
ATOM      1  C   UNL     1       3.735  22.767  20.067  0.00  0.00    +0.000 A 
ATOM      2  C   UNL     1       4.486  23.157  21.175  0.00  0.00    +0.000 A 
ATOM      3  C   UNL     1       3.895  23.929  22.184  0.00  0.00    +0.000 A 
ATOM      4  C   UNL     1       2.557  24.315  22.088  0.00  0.00    +0.000 A 
ATOM      5  C   UNL     1       1.801  23.929  20.983  0.00  0.00    +0.000 A 
ATOM      6  C   UNL     1       2.394  23.164  19.988  0.00  0.00    +0.000 A 
ENDROOT
BRANCH   1   8
ATOM      7  C   UNL     1       5.576  22.064  18.740  0.00  0.00    +0.000 C 
ATOM      8  O   UNL     1       4.180  22.015  19.010  0.00  0.00    +0.000 OA
ENDBRANCH   1   8
BRANCH   6   9
ATOM      9  O   UNL     1       1.631  22.797  18.912  0.00  0.00    +0.000 OA
ATOM     10  H   UNL     1       1.549  21.827  18.985  0.00  0.00    +0.000 HD
ENDBRANCH   6   9
TORSDOF 2
ENDMDL
MODEL 2
REMARK VINA RESULT:    -3.769      1.672      3.290
REMARK INTER + INTRA:          -4.139
REMARK INTER:                  -4.091
REMARK INTRA:                  -0.049
REMARK UNBOUND:                -0.040
REMARK  Name = 
REMARK  3 active torsions:
REMARK  status: ('A' for Active; 'I' for Inactive)
REMARK    1  A    between atoms: C_1  and  O_2
REMARK    2  A    between atoms: O_2  and  C_3
REMARK    3  A    between atoms: C_8  and  O_9
REMARK                            x       y       z     vdW  Elec       q    Type
REMARK                         _______ _______ _______ _____ _____    ______ ____
ROOT
ATOM      1  C   UNL     1       3.932  23.800  20.847  0.00  0.00    +0.000 A 
ATOM      2  C   UNL     1       5.200  24.314  20.580  0.00  0.00    +0.000 A 
ATOM      3  C   UNL     1       6.027  23.683  19.642  0.00  0.00    +0.000 A 
ATOM      4  C   UNL     1       5.592  22.539  18.971  0.00  0.00    +0.000 A 
ATOM      5  C   UNL     1       4.326  22.019  19.233  0.00  0.00    +0.000 A 
ATOM      6  C   UNL     1       3.512  22.652  20.164  0.00  0.00    +0.000 A 
ENDROOT
BRANCH   1   8
ATOM      7  C   UNL     1       3.315  24.138  23.117  0.00  0.00    +0.000 C 
ATOM      8  O   UNL     1       3.020  24.311  21.736  0.00  0.00    +0.000 OA
ENDBRANCH   1   8
BRANCH   6   9
ATOM      9  O   UNL     1       2.272  22.122  20.405  0.00  0.00    +0.000 OA
ATOM     10  H   UNL     1       2.292  21.242  19.984  0.00  0.00    +0.000 HD
ENDBRANCH   6   9
TORSDOF 2
ENDMDL
MODEL 3
REMARK VINA RESULT:    -3.673      1.963      4.332
REMARK INTER + INTRA:          -4.035
REMARK INTER:                  -3.988
REMARK INTRA:                  -0.047
REMARK UNBOUND:                -0.040
REMARK  Name = 
REMARK  3 active torsions:
REMARK  status: ('A' for Active; 'I' for Inactive)
REMARK    1  A    between atoms: C_1  and  O_2
REMARK    2  A    between atoms: O_2  and  C_3
REMARK    3  A    between atoms: C_8  and  O_9
REMARK                            x       y       z     vdW  Elec       q    Type
REMARK                         _______ _______ _______ _____ _____    ______ ____
ROOT
ATOM      1  C   UNL     1       6.054  23.096  19.479  0.00  0.00    +0.000 A 
ATOM      2  C   UNL     1       7.362  23.187  19.952  0.00  0.00    +0.000 A 
ATOM      3  C   UNL     1       8.268  22.148  19.708  0.00  0.00    +0.000 A 
ATOM      4  C   UNL     1       7.872  21.016  18.993  0.00  0.00    +0.000 A 
ATOM      5  C   UNL     1       6.567  20.918  18.516  0.00  0.00    +0.000 A 
ATOM      6  C   UNL     1       5.675  21.953  18.763  0.00  0.00    +0.000 A 
ENDROOT
BRANCH   1   8
ATOM      7  C   UNL     1       4.507  24.144  20.947  0.00  0.00    +0.000 C 
ATOM      8  O   UNL     1       5.065  24.032  19.643  0.00  0.00    +0.000 OA
ENDBRANCH   1   8
BRANCH   6   9
ATOM      9  O   UNL     1       4.397  21.834  18.285  0.00  0.00    +0.000 OA
ATOM     10  H   UNL     1       4.453  22.117  17.352  0.00  0.00    +0.000 HD
ENDBRANCH   6   9
TORSDOF 2
ENDMDL
MODEL 4
REMARK VINA RESULT:    -3.418      9.482     10.297
REMARK INTER + INTRA:          -3.758
REMARK INTER:                  -3.706
REMARK INTRA:                  -0.052
REMARK UNBOUND:                -0.040
REMARK  Name = 
REMARK  3 active torsions:
REMARK  status: ('A' for Active; 'I' for Inactive)
REMARK    1  A    between atoms: C_1  and  O_2
REMARK    2  A    between atoms: O_2  and  C_3
REMARK    3  A    between atoms: C_8  and  O_9
REMARK                            x       y       z     vdW  Elec       q    Type
REMARK                         _______ _______ _______ _____ _____    ______ ____
ROOT
ATOM      1  C   UNL     1       0.204  14.889  15.580  0.00  0.00    +0.000 A 
ATOM      2  C   UNL     1       1.295  14.675  14.738  0.00  0.00    +0.000 A 
ATOM      3  C   UNL     1       1.357  15.321  13.497  0.00  0.00    +0.000 A 
ATOM      4  C   UNL     1       0.333  16.179  13.092  0.00  0.00    +0.000 A 
ATOM      5  C   UNL     1      -0.760  16.397  13.928  0.00  0.00    +0.000 A 
ATOM      6  C   UNL     1      -0.814  15.753  15.157  0.00  0.00    +0.000 A 
ENDROOT
BRANCH   1   8
ATOM      7  C   UNL     1       0.996  14.609  17.803  0.00  0.00    +0.000 C 
ATOM      8  O   UNL     1       0.011  14.326  16.816  0.00  0.00    +0.000 OA
ENDBRANCH   1   8
BRANCH   6   9
ATOM      9  O   UNL     1      -1.898  15.984  15.961  0.00  0.00    +0.000 OA
ATOM     10  H   UNL     1      -1.860  15.281  16.638  0.00  0.00    +0.000 HD
ENDBRANCH   6   9
TORSDOF 2
ENDMDL
MODEL 5
REMARK VINA RESULT:    -3.315     10.114     10.424
REMARK INTER + INTRA:          -3.646
REMARK INTER:                  -3.607
REMARK INTRA:                  -0.039
REMARK UNBOUND:                -0.040
REMARK  Name = 
REMARK  3 active torsions:
REMARK  status: ('A' for Active; 'I' for Inactive)
REMARK    1  A    between atoms: C_1  and  O_2
REMARK    2  A    between atoms: O_2  and  C_3
REMARK    3  A    between atoms: C_8  and  O_9
REMARK                            x       y       z     vdW  Elec       q    Type
REMARK                         _______ _______ _______ _____ _____    ______ ____
ROOT
ATOM      1  C   UNL     1      -0.190  15.953  14.311  0.00  0.00    +0.000 A 
ATOM      2  C   UNL     1       1.030  15.401  13.924  0.00  0.00    +0.000 A 
ATOM      3  C   UNL     1       1.616  14.389  14.695  0.00  0.00    +0.000 A 
ATOM      4  C   UNL     1       0.987  13.927  15.853  0.00  0.00    +0.000 A 
ATOM      5  C   UNL     1      -0.232  14.473  16.246  0.00  0.00    +0.000 A 
ATOM      6  C   UNL     1      -0.806  15.477  15.476  0.00  0.00    +0.000 A 
ENDROOT
BRANCH   1   8
ATOM      7  C   UNL     1      -0.517  17.175  12.300  0.00  0.00    +0.000 C 
ATOM      8  O   UNL     1      -0.876  16.945  13.657  0.00  0.00    +0.000 OA
ENDBRANCH   1   8
BRANCH   6   9
ATOM      9  O   UNL     1      -2.005  15.998  15.882  0.00  0.00    +0.000 OA
ATOM     10  H   UNL     1      -2.648  15.275  15.752  0.00  0.00    +0.000 HD
ENDBRANCH   6   9
TORSDOF 2
ENDMDL
MODEL 6
REMARK VINA RESULT:    -3.270     18.815     20.018
REMARK INTER + INTRA:          -3.597
REMARK INTER:                  -3.550
REMARK INTRA:                  -0.047
REMARK UNBOUND:                -0.040
REMARK  Name = 
REMARK  3 active torsions:
REMARK  status: ('A' for Active; 'I' for Inactive)
REMARK    1  A    between atoms: C_1  and  O_2
REMARK    2  A    between atoms: O_2  and  C_3
REMARK    3  A    between atoms: C_8  and  O_9
REMARK                            x       y       z     vdW  Elec       q    Type
REMARK                         _______ _______ _______ _____ _____    ______ ____
ROOT
ATOM      1  C   UNL     1      13.992   7.236  15.830  0.00  0.00    +0.000 A 
ATOM      2  C   UNL     1      14.405   5.988  15.366  0.00  0.00    +0.000 A 
ATOM      3  C   UNL     1      14.934   5.861  14.075  0.00  0.00    +0.000 A 
ATOM      4  C   UNL     1      15.050   6.977  13.245  0.00  0.00    +0.000 A 
ATOM      5  C   UNL     1      14.640   8.228  13.701  0.00  0.00    +0.000 A 
ATOM      6  C   UNL     1      14.117   8.344  14.983  0.00  0.00    +0.000 A 
ENDROOT
BRANCH   1   8
ATOM      7  C   UNL     1      12.426   6.638  17.513  0.00  0.00    +0.000 C 
ATOM      8  O   UNL     1      13.459   7.507  17.064  0.00  0.00    +0.000 OA
ENDBRANCH   1   8
BRANCH   6   9
ATOM      9  O   UNL     1      13.721   9.584  15.409  0.00  0.00    +0.000 OA
ATOM     10  H   UNL     1      14.287   9.774  16.181  0.00  0.00    +0.000 HD
ENDBRANCH   6   9
TORSDOF 2
ENDMDL
MODEL 7
REMARK VINA RESULT:    -3.269     10.148     10.990
REMARK INTER + INTRA:          -3.596
REMARK INTER:                  -3.553
REMARK INTRA:                  -0.043
REMARK UNBOUND:                -0.040
REMARK  Name = 
REMARK  3 active torsions:
REMARK  status: ('A' for Active; 'I' for Inactive)
REMARK    1  A    between atoms: C_1  and  O_2
REMARK    2  A    between atoms: O_2  and  C_3
REMARK    3  A    between atoms: C_8  and  O_9
REMARK                            x       y       z     vdW  Elec       q    Type
REMARK                         _______ _______ _______ _____ _____    ______ ____
ROOT
ATOM      1  C   UNL     1      -0.206  13.832  16.215  0.00  0.00    +0.000 A 
ATOM      2  C   UNL     1       0.512  14.932  16.681  0.00  0.00    +0.000 A 
ATOM      3  C   UNL     1       0.833  15.979  15.808  0.00  0.00    +0.000 A 
ATOM      4  C   UNL     1       0.440  15.930  14.470  0.00  0.00    +0.000 A 
ATOM      5  C   UNL     1      -0.279  14.834  13.996  0.00  0.00    +0.000 A 
ATOM      6  C   UNL     1      -0.592  13.800  14.869  0.00  0.00    +0.000 A 
ENDROOT
BRANCH   1   8
ATOM      7  C   UNL     1      -0.946  12.984  18.308  0.00  0.00    +0.000 C 
ATOM      8  O   UNL     1      -0.587  12.740  16.953  0.00  0.00    +0.000 OA
ENDBRANCH   1   8
BRANCH   6   9
ATOM      9  O   UNL     1      -1.299  12.734  14.381  0.00  0.00    +0.000 OA
ATOM     10  H   UNL     1      -2.041  13.132  13.889  0.00  0.00    +0.000 HD
ENDBRANCH   6   9
TORSDOF 2
ENDMDL
MODEL 8
REMARK VINA RESULT:    -3.245     19.051     20.854
REMARK INTER + INTRA:          -3.569
REMARK INTER:                  -3.519
REMARK INTRA:                  -0.051
REMARK UNBOUND:                -0.040
REMARK  Name = 
REMARK  3 active torsions:
REMARK  status: ('A' for Active; 'I' for Inactive)
REMARK    1  A    between atoms: C_1  and  O_2
REMARK    2  A    between atoms: O_2  and  C_3
REMARK    3  A    between atoms: C_8  and  O_9
REMARK                            x       y       z     vdW  Elec       q    Type
REMARK                         _______ _______ _______ _____ _____    ______ ____
ROOT
ATOM      1  C   UNL     1      14.340   6.971  16.235  0.00  0.00    +0.000 A 
ATOM      2  C   UNL     1      14.009   6.464  14.979  0.00  0.00    +0.000 A 
ATOM      3  C   UNL     1      15.010   5.947  14.147  0.00  0.00    +0.000 A 
ATOM      4  C   UNL     1      16.342   5.937  14.565  0.00  0.00    +0.000 A 
ATOM      5  C   UNL     1      16.681   6.441  15.818  0.00  0.00    +0.000 A 
ATOM      6  C   UNL     1      15.682   6.952  16.637  0.00  0.00    +0.000 A 
ENDROOT
BRANCH   1   8
ATOM      7  C   UNL     1      12.381   6.680  17.547  0.00  0.00    +0.000 C 
ATOM      8  O   UNL     1      13.469   7.506  17.149  0.00  0.00    +0.000 OA
ENDBRANCH   1   8
BRANCH   6   9
ATOM      9  O   UNL     1      16.039   7.442  17.864  0.00  0.00    +0.000 OA
ATOM     10  H   UNL     1      15.196   7.700  18.284  0.00  0.00    +0.000 HD
ENDBRANCH   6   9
TORSDOF 2
ENDMDL
MODEL 9
REMARK VINA RESULT:    -3.214     10.340     11.134
REMARK INTER + INTRA:          -3.535
REMARK INTER:                  -3.485
REMARK INTRA:                  -0.051
REMARK UNBOUND:                -0.040
REMARK  Name = 
REMARK  3 active torsions:
REMARK  status: ('A' for Active; 'I' for Inactive)
REMARK    1  A    between atoms: C_1  and  O_2
REMARK    2  A    between atoms: O_2  and  C_3
REMARK    3  A    between atoms: C_8  and  O_9
REMARK                            x       y       z     vdW  Elec       q    Type
REMARK                         _______ _______ _______ _____ _____    ______ ____
ROOT
ATOM      1  C   UNL     1      -0.240  13.970  14.664  0.00  0.00    +0.000 A 
ATOM      2  C   UNL     1       0.271  15.228  14.346  0.00  0.00    +0.000 A 
ATOM      3  C   UNL     1       0.778  16.052  15.358  0.00  0.00    +0.000 A 
ATOM      4  C   UNL     1       0.777  15.625  16.687  0.00  0.00    +0.000 A 
ATOM      5  C   UNL     1       0.269  14.369  17.012  0.00  0.00    +0.000 A 
ATOM      6  C   UNL     1      -0.233  13.558  16.002  0.00  0.00    +0.000 A 
ENDROOT
BRANCH   1   8
ATOM      7  C   UNL     1      -1.848  13.514  12.974  0.00  0.00    +0.000 C 
ATOM      8  O   UNL     1      -0.767  13.062  13.780  0.00  0.00    +0.000 OA
ENDBRANCH   1   8
BRANCH   6   9
ATOM      9  O   UNL     1      -0.727  12.328  16.346  0.00  0.00    +0.000 OA
ATOM     10  H   UNL     1      -0.077  11.967  16.978  0.00  0.00    +0.000 HD
ENDBRANCH   6   9
TORSDOF 2
ENDMDL
