MODEL 1
REMARK VINA RESULT:    -5.014      0.000      0.000
REMARK INTER + INTRA:          -5.496
REMARK INTER:                  -5.454
REMARK INTRA:                  -0.042
REMARK UNBOUND:                -0.042
REMARK  Name = 
REMARK  3 active torsions:
REMARK  status: ('A' for Active; 'I' for Inactive)
REMARK    1  A    between atoms: C_1  and  O_2
REMARK    2  A    between atoms: O_2  and  C_3
REMARK    3  A    between atoms: C_8  and  O_9
REMARK                            x       y       z     vdW  Elec       q    Type
REMARK                         _______ _______ _______ _____ _____    ______ ____
ROOT
ATOM      1  C   UNL     1       3.560  13.809  -0.005  0.00  0.00    +0.000 A 
ATOM      2  C   UNL     1       4.810  14.426  -0.015  0.00  0.00    +0.000 A 
ATOM      3  C   UNL     1       5.190  15.221  -1.104  0.00  0.00    +0.000 A 
ATOM      4  C   UNL     1       4.324  15.401  -2.185  0.00  0.00    +0.000 A 
ATOM      5  C   UNL     1       3.073  14.788  -2.182  0.00  0.00    +0.000 A 
ATOM      6  C   UNL     1       2.705  14.001  -1.098  0.00  0.00    +0.000 A 
ENDROOT
BRANCH   1   8
ATOM      7  C   UNL     1       3.439  13.335   2.320  0.00  0.00    +0.000 C 
ATOM      8  O   UNL     1       3.060  13.007   0.989  0.00  0.00    +0.000 OA
ENDBRANCH   1   8
BRANCH   6   9
ATOM      9  O   UNL     1       1.471  13.409  -1.118  0.00  0.00    +0.000 OA
ATOM     10  H   UNL     1       0.940  13.919  -0.476  0.00  0.00    +0.000 HD
ENDBRANCH   6   9
TORSDOF 2
ENDMDL
MODEL 2
REMARK VINA RESULT:    -4.977      1.330      2.343
REMARK INTER + INTRA:          -5.456
REMARK INTER:                  -5.423
REMARK INTRA:                  -0.033
REMARK UNBOUND:                -0.042
REMARK  Name = 
REMARK  3 active torsions:
REMARK  status: ('A' for Active; 'I' for Inactive)
REMARK    1  A    between atoms: C_1  and  O_2
REMARK    2  A    between atoms: O_2  and  C_3
REMARK    3  A    between atoms: C_8  and  O_9
REMARK                            x       y       z     vdW  Elec       q    Type
REMARK                         _______ _______ _______ _____ _____    ______ ____
ROOT
ATOM      1  C   UNL     1       3.695  13.258   0.291  0.00  0.00    +0.000 A 
ATOM      2  C   UNL     1       2.616  13.786  -0.418  0.00  0.00    +0.000 A 
ATOM      3  C   UNL     1       2.843  14.642  -1.502  0.00  0.00    +0.000 A 
ATOM      4  C   UNL     1       4.145  14.975  -1.881  0.00  0.00    +0.000 A 
ATOM      5  C   UNL     1       5.228  14.451  -1.178  0.00  0.00    +0.000 A 
ATOM      6  C   UNL     1       4.993  13.602  -0.104  0.00  0.00    +0.000 A 
ENDROOT
BRANCH   1   8
ATOM      7  C   UNL     1       3.289  13.003   2.618  0.00  0.00    +0.000 C 
ATOM      8  O   UNL     1       3.622  12.412   1.368  0.00  0.00    +0.000 OA
ENDBRANCH   1   8
BRANCH   6   9
ATOM      9  O   UNL     1       6.074  13.101   0.571  0.00  0.00    +0.000 OA
ATOM     10  H   UNL     1       5.818  12.188   0.806  0.00  0.00    +0.000 HD
ENDBRANCH   6   9
TORSDOF 2
ENDMDL
MODEL 3
REMARK VINA RESULT:    -4.945      1.329      3.134
REMARK INTER + INTRA:          -5.421
REMARK INTER:                  -5.368
REMARK INTRA:                  -0.052
REMARK UNBOUND:                -0.042
REMARK  Name = 
REMARK  3 active torsions:
REMARK  status: ('A' for Active; 'I' for Inactive)
REMARK    1  A    between atoms: C_1  and  O_2
REMARK    2  A    between atoms: O_2  and  C_3
REMARK    3  A    between atoms: C_8  and  O_9
REMARK                            x       y       z     vdW  Elec       q    Type
REMARK                         _______ _______ _______ _____ _____    ______ ____
ROOT
ATOM      1  C   UNL     1       4.255  13.982  -0.729  0.00  0.00    +0.000 A 
ATOM      2  C   UNL     1       5.442  14.063  -0.002  0.00  0.00    +0.000 A 
ATOM      3  C   UNL     1       5.466  13.675   1.343  0.00  0.00    +0.000 A 
ATOM      4  C   UNL     1       4.308  13.208   1.966  0.00  0.00    +0.000 A 
ATOM      5  C   UNL     1       3.118  13.123   1.247  0.00  0.00    +0.000 A 
ATOM      6  C   UNL     1       3.103  13.510  -0.088  0.00  0.00    +0.000 A 
ENDROOT
BRANCH   1   8
ATOM      7  C   UNL     1       4.171  15.712  -2.356  0.00  0.00    +0.000 C 
ATOM      8  O   UNL     1       4.085  14.326  -2.046  0.00  0.00    +0.000 OA
ENDBRANCH   1   8
BRANCH   6   9
ATOM      9  O   UNL     1       1.922  13.418  -0.774  0.00  0.00    +0.000 OA
ATOM     10  H   UNL     1       1.319  14.035  -0.316  0.00  0.00    +0.000 HD
ENDBRANCH   6   9
TORSDOF 2
ENDMDL
MODEL 4
REMARK VINA RESULT:    -4.890      1.995      2.630
REMARK INTER + INTRA:          -5.361
REMARK INTER:                  -5.313
REMARK INTRA:                  -0.047
REMARK UNBOUND:                -0.042
REMARK  Name = 
REMARK  3 active torsions:
REMARK  status: ('A' for Active; 'I' for Inactive)
REMARK    1  A    between atoms: C_1  and  O_2
REMARK    2  A    between atoms: O_2  and  C_3
REMARK    3  A    between atoms: C_8  and  O_9
REMARK                            x       y       z     vdW  Elec       q    Type
REMARK                         _______ _______ _______ _____ _____    ______ ____
ROOT
ATOM      1  C   UNL     1       4.457  13.887  -0.469  0.00  0.00    +0.000 A 
ATOM      2  C   UNL     1       3.227  13.311  -0.152  0.00  0.00    +0.000 A 
ATOM      3  C   UNL     1       2.101  13.589  -0.938  0.00  0.00    +0.000 A 
ATOM      4  C   UNL     1       2.199  14.442  -2.039  0.00  0.00    +0.000 A 
ATOM      5  C   UNL     1       3.424  15.021  -2.362  0.00  0.00    +0.000 A 
ATOM      6  C   UNL     1       4.535  14.740  -1.577  0.00  0.00    +0.000 A 
ENDROOT
BRANCH   1   8
ATOM      7  C   UNL     1       5.579  13.827   1.624  0.00  0.00    +0.000 C 
ATOM      8  O   UNL     1       5.636  13.706   0.208  0.00  0.00    +0.000 OA
ENDBRANCH   1   8
BRANCH   6   9
ATOM      9  O   UNL     1       5.729  15.322  -1.914  0.00  0.00    +0.000 OA
ATOM     10  H   UNL     1       5.887  15.046  -2.837  0.00  0.00    +0.000 HD
ENDBRANCH   6   9
TORSDOF 2
ENDMDL
MODEL 5
REMARK VINA RESULT:    -4.803      1.815      3.291
REMARK INTER + INTRA:          -5.267
REMARK INTER:                  -5.215
REMARK INTRA:                  -0.052
REMARK UNBOUND:                -0.042
REMARK  Name = 
REMARK  3 active torsions:
REMARK  status: ('A' for Active; 'I' for Inactive)
REMARK    1  A    between atoms: C_1  and  O_2
REMARK    2  A    between atoms: O_2  and  C_3
REMARK    3  A    between atoms: C_8  and  O_9
REMARK                            x       y       z     vdW  Elec       q    Type
REMARK                         _______ _______ _______ _____ _____    ______ ____
ROOT
ATOM      1  C   UNL     1       3.248  14.075  -0.534  0.00  0.00    +0.000 A 
ATOM      2  C   UNL     1       2.960  13.362   0.629  0.00  0.00    +0.000 A 
ATOM      3  C   UNL     1       3.984  12.694   1.313  0.00  0.00    +0.000 A 
ATOM      4  C   UNL     1       5.296  12.736   0.838  0.00  0.00    +0.000 A 
ATOM      5  C   UNL     1       5.592  13.447  -0.323  0.00  0.00    +0.000 A 
ATOM      6  C   UNL     1       4.570  14.105  -0.994  0.00  0.00    +0.000 A 
ENDROOT
BRANCH   1   8
ATOM      7  C   UNL     1       1.277  14.022  -1.859  0.00  0.00    +0.000 C 
ATOM      8  O   UNL     1       2.350  14.771  -1.302  0.00  0.00    +0.000 OA
ENDBRANCH   1   8
BRANCH   6   9
ATOM      9  O   UNL     1       4.886  14.797  -2.133  0.00  0.00    +0.000 OA
ATOM     10  H   UNL     1       4.766  14.153  -2.857  0.00  0.00    +0.000 HD
ENDBRANCH   6   9
TORSDOF 2
ENDMDL
MODEL 6
REMARK VINA RESULT:    -4.432      1.530      2.929
REMARK INTER + INTRA:          -4.863
REMARK INTER:                  -4.816
REMARK INTRA:                  -0.047
REMARK UNBOUND:                -0.042
REMARK  Name = 
REMARK  3 active torsions:
REMARK  status: ('A' for Active; 'I' for Inactive)
REMARK    1  A    between atoms: C_1  and  O_2
REMARK    2  A    between atoms: O_2  and  C_3
REMARK    3  A    between atoms: C_8  and  O_9
REMARK                            x       y       z     vdW  Elec       q    Type
REMARK                         _______ _______ _______ _____ _____    ______ ____
ROOT
ATOM      1  C   UNL     1       3.838  14.121  -0.826  0.00  0.00    +0.000 A 
ATOM      2  C   UNL     1       4.300  15.421  -0.629  0.00  0.00    +0.000 A 
ATOM      3  C   UNL     1       5.216  15.690   0.396  0.00  0.00    +0.000 A 
ATOM      4  C   UNL     1       5.671  14.665   1.226  0.00  0.00    +0.000 A 
ATOM      5  C   UNL     1       5.214  13.363   1.036  0.00  0.00    +0.000 A 
ATOM      6  C   UNL     1       4.305  13.105   0.017  0.00  0.00    +0.000 A 
ENDROOT
BRANCH   1   8
ATOM      7  C   UNL     1       1.586  14.085  -1.585  0.00  0.00    +0.000 C 
ATOM      8  O   UNL     1       2.945  13.714  -1.785  0.00  0.00    +0.000 OA
ENDBRANCH   1   8
BRANCH   6   9
ATOM      9  O   UNL     1       3.870  11.817  -0.150  0.00  0.00    +0.000 OA
ATOM     10  H   UNL     1       4.671  11.313  -0.390  0.00  0.00    +0.000 HD
ENDBRANCH   6   9
TORSDOF 2
ENDMDL
MODEL 7
REMARK VINA RESULT:    -4.368      2.740      3.551
REMARK INTER + INTRA:          -4.793
REMARK INTER:                  -4.750
REMARK INTRA:                  -0.043
REMARK UNBOUND:                -0.042
REMARK  Name = 
REMARK  3 active torsions:
REMARK  status: ('A' for Active; 'I' for Inactive)
REMARK    1  A    between atoms: C_1  and  O_2
REMARK    2  A    between atoms: O_2  and  C_3
REMARK    3  A    between atoms: C_8  and  O_9
REMARK                            x       y       z     vdW  Elec       q    Type
REMARK                         _______ _______ _______ _____ _____    ______ ____
ROOT
ATOM      1  C   UNL     1       3.965  12.325   1.982  0.00  0.00    +0.000 A 
ATOM      2  C   UNL     1       4.005  10.969   1.658  0.00  0.00    +0.000 A 
ATOM      3  C   UNL     1       4.619  10.551   0.471  0.00  0.00    +0.000 A 
ATOM      4  C   UNL     1       5.193  11.483  -0.395  0.00  0.00    +0.000 A 
ATOM      5  C   UNL     1       5.158  12.839  -0.079  0.00  0.00    +0.000 A 
ATOM      6  C   UNL     1       4.547  13.245   1.100  0.00  0.00    +0.000 A 
ENDROOT
BRANCH   1   8
ATOM      7  C   UNL     1       4.119  12.714   4.321  0.00  0.00    +0.000 C 
ATOM      8  O   UNL     1       3.400  12.875   3.104  0.00  0.00    +0.000 OA
ENDBRANCH   1   8
BRANCH   6   9
ATOM      9  O   UNL     1       4.524  14.583   1.389  0.00  0.00    +0.000 OA
ATOM     10  H   UNL     1       4.107  14.999   0.611  0.00  0.00    +0.000 HD
ENDBRANCH   6   9
TORSDOF 2
ENDMDL
MODEL 8
REMARK VINA RESULT:    -4.319      1.942      3.911
REMARK INTER + INTRA:          -4.740
REMARK INTER:                  -4.698
REMARK INTRA:                  -0.042
REMARK UNBOUND:                -0.042
REMARK  Name = 
REMARK  3 active torsions:
REMARK  status: ('A' for Active; 'I' for Inactive)
REMARK    1  A    between atoms: C_1  and  O_2
REMARK    2  A    between atoms: O_2  and  C_3
REMARK    3  A    between atoms: C_8  and  O_9
REMARK                            x       y       z     vdW  Elec       q    Type
REMARK                         _______ _______ _______ _____ _____    ______ ____
ROOT
ATOM      1  C   UNL     1       4.253  13.283   0.305  0.00  0.00    +0.000 A 
ATOM      2  C   UNL     1       4.735  12.163  -0.372  0.00  0.00    +0.000 A 
ATOM      3  C   UNL     1       4.713  10.907   0.248  0.00  0.00    +0.000 A 
ATOM      4  C   UNL     1       4.211  10.766   1.543  0.00  0.00    +0.000 A 
ATOM      5  C   UNL     1       3.728  11.880   2.226  0.00  0.00    +0.000 A 
ATOM      6  C   UNL     1       3.754  13.122   1.603  0.00  0.00    +0.000 A 
ENDROOT
BRANCH   1   8
ATOM      7  C   UNL     1       5.254  14.940  -1.074  0.00  0.00    +0.000 C 
ATOM      8  O   UNL     1       4.215  14.567  -0.177  0.00  0.00    +0.000 OA
ENDBRANCH   1   8
BRANCH   6   9
ATOM      9  O   UNL     1       3.274  14.202   2.294  0.00  0.00    +0.000 OA
ATOM     10  H   UNL     1       3.480  14.011   3.229  0.00  0.00    +0.000 HD
ENDBRANCH   6   9
TORSDOF 2
ENDMDL
MODEL 9
REMARK VINA RESULT:    -4.223      8.214      8.542
REMARK INTER + INTRA:          -4.635
REMARK INTER:                  -4.585
REMARK INTRA:                  -0.050
REMARK UNBOUND:                -0.042
REMARK  Name = 
REMARK  3 active torsions:
REMARK  status: ('A' for Active; 'I' for Inactive)
REMARK    1  A    between atoms: C_1  and  O_2
REMARK    2  A    between atoms: O_2  and  C_3
REMARK    3  A    between atoms: C_8  and  O_9
REMARK                            x       y       z     vdW  Elec       q    Type
REMARK                         _______ _______ _______ _____ _____    ______ ____
ROOT
ATOM      1  C   UNL     1      10.124  19.447  -1.829  0.00  0.00    +0.000 A 
ATOM      2  C   UNL     1      11.282  18.718  -1.562  0.00  0.00    +0.000 A 
ATOM      3  C   UNL     1      11.710  17.731  -2.459  0.00  0.00    +0.000 A 
ATOM      4  C   UNL     1      10.984  17.470  -3.623  0.00  0.00    +0.000 A 
ATOM      5  C   UNL     1       9.827  18.195  -3.897  0.00  0.00    +0.000 A 
ATOM      6  C   UNL     1       9.410  19.171  -3.002  0.00  0.00    +0.000 A 
ENDROOT
BRANCH   1   8
ATOM      7  C   UNL     1       9.321  20.097   0.311  0.00  0.00    +0.000 C 
ATOM      8  O   UNL     1       9.590  20.437  -1.044  0.00  0.00    +0.000 OA
ENDBRANCH   1   8
BRANCH   6   9
ATOM      9  O   UNL     1       8.269  19.871  -3.293  0.00  0.00    +0.000 OA
ATOM     10  H   UNL     1       7.565  19.418  -2.790  0.00  0.00    +0.000 HD
ENDBRANCH   6   9
TORSDOF 2
ENDMDL
