MODEL 1
REMARK VINA RESULT:    -6.855      0.000      0.000
REMARK INTER + INTRA:          -9.578
REMARK INTER:                  -9.259
REMARK INTRA:                  -0.319
REMARK UNBOUND:                -0.319
REMARK  Name = 
REMARK  10 active torsions:
REMARK  status: ('A' for Active; 'I' for Inactive)
REMARK    1  A    between atoms: C_1  and  C_2
REMARK    2  A    between atoms: C_5  and  N_8
REMARK    3  A    between atoms: N_8  and  C_9
REMARK    4  A    between atoms: N_8  and  C_13
REMARK    5  A    between atoms: C_9  and  C_10
REMARK    6  A    between atoms: C_10  and  C_11
REMARK    7  A    between atoms: C_10  and  O_12
REMARK    8  A    between atoms: C_13  and  C_14
REMARK    9  A    between atoms: C_14  and  C_15
REMARK   10  A    between atoms: C_14  and  O_16
REMARK                            x       y       z     vdW  Elec       q    Type
REMARK                         _______ _______ _______ _____ _____    ______ ____
ROOT
ATOM      1  N   UNL     1      31.871   2.615  -5.565  0.00  0.00    +0.000 N 
ENDROOT
BRANCH   1   6
ATOM      2  C   UNL     1      37.086   5.019  -6.161  0.00  0.00    +0.000 C 
ATOM      3  C   UNL     1      35.729   4.409  -5.985  0.00  0.00    +0.000 A 
ATOM      4  C   UNL     1      35.564   3.226  -5.273  0.00  0.00    +0.000 A 
ATOM      5  C   UNL     1      34.294   2.642  -5.138  0.00  0.00    +0.000 A 
ATOM      6  C   UNL     1      33.138   3.192  -5.720  0.00  0.00    +0.000 A 
ATOM      7  C   UNL     1      33.341   4.389  -6.431  0.00  0.00    +0.000 A 
ATOM      8  C   UNL     1      34.606   4.984  -6.573  0.00  0.00    +0.000 A 
ENDBRANCH   1   6
BRANCH   1   9
ATOM      9  C   UNL     1      30.878   2.694  -6.663  0.00  0.00    +0.000 C 
BRANCH   9  10
ATOM     10  C   UNL     1      30.869   1.429  -7.556  0.00  0.00    +0.000 C 
ATOM     11  C   UNL     1      30.810   1.803  -9.032  0.00  0.00    +0.000 C 
BRANCH  10  12
ATOM     12  O   UNL     1      32.050   0.642  -7.344  0.00  0.00    +0.000 OA
ATOM     13  H   UNL     1      32.640   0.774  -8.104  0.00  0.00    +0.000 HD
ENDBRANCH  10  12
ENDBRANCH   9  10
ENDBRANCH   1   9
BRANCH   1  14
ATOM     14  C   UNL     1      31.293   2.382  -4.216  0.00  0.00    +0.000 C 
BRANCH  14  15
ATOM     15  C   UNL     1      29.803   2.795  -4.140  0.00  0.00    +0.000 C 
ATOM     16  C   UNL     1      29.038   2.080  -3.033  0.00  0.00    +0.000 C 
BRANCH  15  17
ATOM     17  O   UNL     1      29.655   4.201  -3.942  0.00  0.00    +0.000 OA
ATOM     18  H   UNL     1      30.565   4.559  -3.985  0.00  0.00    +0.000 HD
ENDBRANCH  15  17
ENDBRANCH  14  15
ENDBRANCH   1  14
TORSDOF 7
ENDMDL
MODEL 2
REMARK VINA RESULT:    -6.551      1.153      3.161
REMARK INTER + INTRA:          -9.167
REMARK INTER:                  -8.506
REMARK INTRA:                  -0.661
REMARK UNBOUND:                -0.319
REMARK  Name = 
REMARK  10 active torsions:
REMARK  status: ('A' for Active; 'I' for Inactive)
REMARK    1  A    between atoms: C_1  and  C_2
REMARK    2  A    between atoms: C_5  and  N_8
REMARK    3  A    between atoms: N_8  and  C_9
REMARK    4  A    between atoms: N_8  and  C_13
REMARK    5  A    between atoms: C_9  and  C_10
REMARK    6  A    between atoms: C_10  and  C_11
REMARK    7  A    between atoms: C_10  and  O_12
REMARK    8  A    between atoms: C_13  and  C_14
REMARK    9  A    between atoms: C_14  and  C_15
REMARK   10  A    between atoms: C_14  and  O_16
REMARK                            x       y       z     vdW  Elec       q    Type
REMARK                         _______ _______ _______ _____ _____    ______ ____
ROOT
ATOM      1  N   UNL     1      32.489   2.424  -5.527  0.00  0.00    +0.000 N 
ENDROOT
BRANCH   1   6
ATOM      2  C   UNL     1      37.882   4.482  -5.587  0.00  0.00    +0.000 C 
ATOM      3  C   UNL     1      36.480   3.956  -5.548  0.00  0.00    +0.000 A 
ATOM      4  C   UNL     1      36.218   2.649  -5.152  0.00  0.00    +0.000 A 
ATOM      5  C   UNL     1      34.904   2.152  -5.146  0.00  0.00    +0.000 A 
ATOM      6  C   UNL     1      33.798   2.920  -5.554  0.00  0.00    +0.000 A 
ATOM      7  C   UNL     1      34.100   4.237  -5.946  0.00  0.00    +0.000 A 
ATOM      8  C   UNL     1      35.409   4.747  -5.954  0.00  0.00    +0.000 A 
ENDBRANCH   1   6
BRANCH   1   9
ATOM      9  C   UNL     1      31.779   2.268  -4.234  0.00  0.00    +0.000 C 
BRANCH   9  10
ATOM     10  C   UNL     1      30.275   2.621  -4.329  0.00  0.00    +0.000 C 
ATOM     11  C   UNL     1      29.562   2.325  -3.015  0.00  0.00    +0.000 C 
BRANCH  10  12
ATOM     12  O   UNL     1      30.090   4.011  -4.631  0.00  0.00    +0.000 OA
ATOM     13  H   UNL     1      29.185   4.129  -4.964  0.00  0.00    +0.000 HD
ENDBRANCH  10  12
ENDBRANCH   9  10
ENDBRANCH   1   9
BRANCH   1  14
ATOM     14  C   UNL     1      31.961   1.586  -6.634  0.00  0.00    +0.000 C 
BRANCH  14  15
ATOM     15  C   UNL     1      31.539   2.434  -7.858  0.00  0.00    +0.000 C 
ATOM     16  C   UNL     1      30.567   1.710  -8.782  0.00  0.00    +0.000 C 
BRANCH  15  17
ATOM     17  O   UNL     1      30.939   3.667  -7.464  0.00  0.00    +0.000 OA
ATOM     18  H   UNL     1      29.992   3.457  -7.334  0.00  0.00    +0.000 HD
ENDBRANCH  15  17
ENDBRANCH  14  15
ENDBRANCH   1  14
TORSDOF 7
ENDMDL
MODEL 3
REMARK VINA RESULT:    -5.784      2.905      5.987
REMARK INTER + INTRA:          -8.132
REMARK INTER:                  -7.619
REMARK INTRA:                  -0.513
REMARK UNBOUND:                -0.319
REMARK  Name = 
REMARK  10 active torsions:
REMARK  status: ('A' for Active; 'I' for Inactive)
REMARK    1  A    between atoms: C_1  and  C_2
REMARK    2  A    between atoms: C_5  and  N_8
REMARK    3  A    between atoms: N_8  and  C_9
REMARK    4  A    between atoms: N_8  and  C_13
REMARK    5  A    between atoms: C_9  and  C_10
REMARK    6  A    between atoms: C_10  and  C_11
REMARK    7  A    between atoms: C_10  and  O_12
REMARK    8  A    between atoms: C_13  and  C_14
REMARK    9  A    between atoms: C_14  and  C_15
REMARK   10  A    between atoms: C_14  and  O_16
REMARK                            x       y       z     vdW  Elec       q    Type
REMARK                         _______ _______ _______ _____ _____    ______ ____
ROOT
ATOM      1  N   UNL     1      34.336   4.537  -5.373  0.00  0.00    +0.000 N 
ENDROOT
BRANCH   1   6
ATOM      2  C   UNL     1      30.367   1.392  -8.145  0.00  0.00    +0.000 C 
ATOM      3  C   UNL     1      31.384   2.205  -7.404  0.00  0.00    +0.000 A 
ATOM      4  C   UNL     1      31.274   3.590  -7.328  0.00  0.00    +0.000 A 
ATOM      5  C   UNL     1      32.246   4.350  -6.658  0.00  0.00    +0.000 A 
ATOM      6  C   UNL     1      33.380   3.775  -6.056  0.00  0.00    +0.000 A 
ATOM      7  C   UNL     1      33.458   2.373  -6.151  0.00  0.00    +0.000 A 
ATOM      8  C   UNL     1      32.492   1.601  -6.816  0.00  0.00    +0.000 A 
ENDBRANCH   1   6
BRANCH   1   9
ATOM      9  C   UNL     1      34.887   5.767  -5.992  0.00  0.00    +0.000 C 
BRANCH   9  10
ATOM     10  C   UNL     1      35.055   6.926  -4.978  0.00  0.00    +0.000 C 
ATOM     11  C   UNL     1      36.378   7.651  -5.194  0.00  0.00    +0.000 C 
BRANCH  10  12
ATOM     12  O   UNL     1      33.996   7.884  -5.111  0.00  0.00    +0.000 OA
ATOM     13  H   UNL     1      34.149   8.594  -4.466  0.00  0.00    +0.000 HD
ENDBRANCH  10  12
ENDBRANCH   9  10
ENDBRANCH   1   9
BRANCH   1  14
ATOM     14  C   UNL     1      35.189   3.934  -4.317  0.00  0.00    +0.000 C 
BRANCH  14  15
ATOM     15  C   UNL     1      36.582   3.526  -4.853  0.00  0.00    +0.000 C 
ATOM     16  C   UNL     1      37.732   4.167  -4.085  0.00  0.00    +0.000 C 
BRANCH  15  17
ATOM     17  O   UNL     1      36.765   2.112  -4.823  0.00  0.00    +0.000 OA
ATOM     18  H   UNL     1      37.564   1.972  -4.275  0.00  0.00    +0.000 HD
ENDBRANCH  15  17
ENDBRANCH  14  15
ENDBRANCH   1  14
TORSDOF 7
ENDMDL
MODEL 4
REMARK VINA RESULT:    -5.751      3.068      5.771
REMARK INTER + INTRA:          -8.087
REMARK INTER:                  -7.569
REMARK INTRA:                  -0.518
REMARK UNBOUND:                -0.319
REMARK  Name = 
REMARK  10 active torsions:
REMARK  status: ('A' for Active; 'I' for Inactive)
REMARK    1  A    between atoms: C_1  and  C_2
REMARK    2  A    between atoms: C_5  and  N_8
REMARK    3  A    between atoms: N_8  and  C_9
REMARK    4  A    between atoms: N_8  and  C_13
REMARK    5  A    between atoms: C_9  and  C_10
REMARK    6  A    between atoms: C_10  and  C_11
REMARK    7  A    between atoms: C_10  and  O_12
REMARK    8  A    between atoms: C_13  and  C_14
REMARK    9  A    between atoms: C_14  and  C_15
REMARK   10  A    between atoms: C_14  and  O_16
REMARK                            x       y       z     vdW  Elec       q    Type
REMARK                         _______ _______ _______ _____ _____    ______ ____
ROOT
ATOM      1  N   UNL     1      34.864   4.903  -5.497  0.00  0.00    +0.000 N 
ENDROOT
BRANCH   1   6
ATOM      2  C   UNL     1      30.575   1.764  -7.751  0.00  0.00    +0.000 C 
ATOM      3  C   UNL     1      31.677   2.578  -7.144  0.00  0.00    +0.000 A 
ATOM      4  C   UNL     1      31.641   3.968  -7.182  0.00  0.00    +0.000 A 
ATOM      5  C   UNL     1      32.691   4.726  -6.638  0.00  0.00    +0.000 A 
ATOM      6  C   UNL     1      33.830   4.141  -6.055  0.00  0.00    +0.000 A 
ATOM      7  C   UNL     1      33.831   2.734  -6.032  0.00  0.00    +0.000 A 
ATOM      8  C   UNL     1      32.786   1.964  -6.571  0.00  0.00    +0.000 A 
ENDBRANCH   1   6
BRANCH   1   9
ATOM      9  C   UNL     1      35.318   4.638  -4.111  0.00  0.00    +0.000 C 
BRANCH   9  10
ATOM     10  C   UNL     1      36.679   3.901  -4.056  0.00  0.00    +0.000 C 
ATOM     11  C   UNL     1      36.543   2.557  -3.351  0.00  0.00    +0.000 C 
BRANCH  10  12
ATOM     12  O   UNL     1      37.188   3.662  -5.375  0.00  0.00    +0.000 OA
ATOM     13  H   UNL     1      36.508   3.930  -6.014  0.00  0.00    +0.000 HD
ENDBRANCH  10  12
ENDBRANCH   9  10
ENDBRANCH   1   9
BRANCH   1  14
ATOM     14  C   UNL     1      35.180   6.261  -6.009  0.00  0.00    +0.000 C 
BRANCH  14  15
ATOM     15  C   UNL     1      35.018   7.349  -4.919  0.00  0.00    +0.000 C 
ATOM     16  C   UNL     1      36.172   8.344  -4.888  0.00  0.00    +0.000 C 
BRANCH  15  17
ATOM     17  O   UNL     1      33.805   8.083  -5.084  0.00  0.00    +0.000 OA
ATOM     18  H   UNL     1      33.692   8.170  -6.051  0.00  0.00    +0.000 HD
ENDBRANCH  15  17
ENDBRANCH  14  15
ENDBRANCH   1  14
TORSDOF 7
ENDMDL
MODEL 5
REMARK VINA RESULT:    -5.577      3.257      5.964
REMARK INTER + INTRA:          -7.852
REMARK INTER:                  -7.329
REMARK INTRA:                  -0.523
REMARK UNBOUND:                -0.319
REMARK  Name = 
REMARK  10 active torsions:
REMARK  status: ('A' for Active; 'I' for Inactive)
REMARK    1  A    between atoms: C_1  and  C_2
REMARK    2  A    between atoms: C_5  and  N_8
REMARK    3  A    between atoms: N_8  and  C_9
REMARK    4  A    between atoms: N_8  and  C_13
REMARK    5  A    between atoms: C_9  and  C_10
REMARK    6  A    between atoms: C_10  and  C_11
REMARK    7  A    between atoms: C_10  and  O_12
REMARK    8  A    between atoms: C_13  and  C_14
REMARK    9  A    between atoms: C_14  and  C_15
REMARK   10  A    between atoms: C_14  and  O_16
REMARK                            x       y       z     vdW  Elec       q    Type
REMARK                         _______ _______ _______ _____ _____    ______ ____
ROOT
ATOM      1  N   UNL     1      35.133   5.118  -5.459  0.00  0.00    +0.000 N 
ENDROOT
BRANCH   1   6
ATOM      2  C   UNL     1      30.728   2.007  -7.518  0.00  0.00    +0.000 C 
ATOM      3  C   UNL     1      31.859   2.816  -6.961  0.00  0.00    +0.000 A 
ATOM      4  C   UNL     1      31.864   4.203  -7.062  0.00  0.00    +0.000 A 
ATOM      5  C   UNL     1      32.942   4.954  -6.565  0.00  0.00    +0.000 A 
ATOM      6  C   UNL     1      34.070   4.362  -5.969  0.00  0.00    +0.000 A 
ATOM      7  C   UNL     1      34.031   2.959  -5.883  0.00  0.00    +0.000 A 
ATOM      8  C   UNL     1      32.959   2.196  -6.374  0.00  0.00    +0.000 A 
ENDBRANCH   1   6
BRANCH   1   9
ATOM      9  C   UNL     1      35.397   6.480  -5.983  0.00  0.00    +0.000 C 
BRANCH   9  10
ATOM     10  C   UNL     1      35.086   7.591  -4.951  0.00  0.00    +0.000 C 
ATOM     11  C   UNL     1      36.046   8.765  -5.108  0.00  0.00    +0.000 C 
BRANCH  10  12
ATOM     12  O   UNL     1      33.749   8.086  -5.114  0.00  0.00    +0.000 OA
ATOM     13  H   UNL     1      33.728   9.005  -4.801  0.00  0.00    +0.000 HD
ENDBRANCH  10  12
ENDBRANCH   9  10
ENDBRANCH   1   9
BRANCH   1  14
ATOM     14  C   UNL     1      36.296   4.466  -4.803  0.00  0.00    +0.000 C 
BRANCH  14  15
ATOM     15  C   UNL     1      36.167   4.455  -3.261  0.00  0.00    +0.000 C 
ATOM     16  C   UNL     1      36.417   3.082  -2.648  0.00  0.00    +0.000 C 
BRANCH  15  17
ATOM     17  O   UNL     1      37.064   5.381  -2.651  0.00  0.00    +0.000 OA
ATOM     18  H   UNL     1      36.644   5.616  -1.799  0.00  0.00    +0.000 HD
ENDBRANCH  15  17
ENDBRANCH  14  15
ENDBRANCH   1  14
TORSDOF 7
ENDMDL
MODEL 6
REMARK VINA RESULT:    -5.483      2.492      4.142
REMARK INTER + INTRA:          -7.725
REMARK INTER:                  -7.331
REMARK INTRA:                  -0.393
REMARK UNBOUND:                -0.319
REMARK  Name = 
REMARK  10 active torsions:
REMARK  status: ('A' for Active; 'I' for Inactive)
REMARK    1  A    between atoms: C_1  and  C_2
REMARK    2  A    between atoms: C_5  and  N_8
REMARK    3  A    between atoms: N_8  and  C_9
REMARK    4  A    between atoms: N_8  and  C_13
REMARK    5  A    between atoms: C_9  and  C_10
REMARK    6  A    between atoms: C_10  and  C_11
REMARK    7  A    between atoms: C_10  and  O_12
REMARK    8  A    between atoms: C_13  and  C_14
REMARK    9  A    between atoms: C_14  and  C_15
REMARK   10  A    between atoms: C_14  and  O_16
REMARK                            x       y       z     vdW  Elec       q    Type
REMARK                         _______ _______ _______ _____ _____    ______ ____
ROOT
ATOM      1  N   UNL     1      33.925   4.003  -5.697  0.00  0.00    +0.000 N 
ENDROOT
BRANCH   1   6
ATOM      2  C   UNL     1      37.423   2.700  -1.293  0.00  0.00    +0.000 C 
ATOM      3  C   UNL     1      36.496   3.037  -2.420  0.00  0.00    +0.000 A 
ATOM      4  C   UNL     1      35.933   2.037  -3.206  0.00  0.00    +0.000 A 
ATOM      5  C   UNL     1      35.088   2.361  -4.280  0.00  0.00    +0.000 A 
ATOM      6  C   UNL     1      34.784   3.687  -4.637  0.00  0.00    +0.000 A 
ATOM      7  C   UNL     1      35.369   4.672  -3.820  0.00  0.00    +0.000 A 
ATOM      8  C   UNL     1      36.214   4.362  -2.741  0.00  0.00    +0.000 A 
ENDBRANCH   1   6
BRANCH   1   9
ATOM      9  C   UNL     1      32.967   2.991  -6.204  0.00  0.00    +0.000 C 
BRANCH   9  10
ATOM     10  C   UNL     1      31.746   3.624  -6.914  0.00  0.00    +0.000 C 
ATOM     11  C   UNL     1      30.892   2.555  -7.587  0.00  0.00    +0.000 C 
BRANCH  10  12
ATOM     12  O   UNL     1      30.918   4.332  -5.982  0.00  0.00    +0.000 OA
ATOM     13  H   UNL     1      31.355   5.173  -5.769  0.00  0.00    +0.000 HD
ENDBRANCH  10  12
ENDBRANCH   9  10
ENDBRANCH   1   9
BRANCH   1  14
ATOM     14  C   UNL     1      34.256   5.085  -6.659  0.00  0.00    +0.000 C 
BRANCH  14  15
ATOM     15  C   UNL     1      33.742   6.466  -6.184  0.00  0.00    +0.000 C 
ATOM     16  C   UNL     1      34.804   7.557  -6.251  0.00  0.00    +0.000 C 
BRANCH  15  17
ATOM     17  O   UNL     1      32.616   6.899  -6.945  0.00  0.00    +0.000 OA
ATOM     18  H   UNL     1      32.964   7.595  -7.538  0.00  0.00    +0.000 HD
ENDBRANCH  15  17
ENDBRANCH  14  15
ENDBRANCH   1  14
TORSDOF 7
ENDMDL
MODEL 7
REMARK VINA RESULT:    -5.246      3.171      5.870
REMARK INTER + INTRA:          -7.404
REMARK INTER:                  -6.884
REMARK INTRA:                  -0.520
REMARK UNBOUND:                -0.319
REMARK  Name = 
REMARK  10 active torsions:
REMARK  status: ('A' for Active; 'I' for Inactive)
REMARK    1  A    between atoms: C_1  and  C_2
REMARK    2  A    between atoms: C_5  and  N_8
REMARK    3  A    between atoms: N_8  and  C_9
REMARK    4  A    between atoms: N_8  and  C_13
REMARK    5  A    between atoms: C_9  and  C_10
REMARK    6  A    between atoms: C_10  and  C_11
REMARK    7  A    between atoms: C_10  and  O_12
REMARK    8  A    between atoms: C_13  and  C_14
REMARK    9  A    between atoms: C_14  and  C_15
REMARK   10  A    between atoms: C_14  and  O_16
REMARK                            x       y       z     vdW  Elec       q    Type
REMARK                         _______ _______ _______ _____ _____    ______ ____
ROOT
ATOM      1  N   UNL     1      35.051   4.576  -5.397  0.00  0.00    +0.000 N 
ENDROOT
BRANCH   1   6
ATOM      2  C   UNL     1      30.591   1.863  -7.862  0.00  0.00    +0.000 C 
ATOM      3  C   UNL     1      31.736   2.567  -7.201  0.00  0.00    +0.000 A 
ATOM      4  C   UNL     1      31.822   3.956  -7.210  0.00  0.00    +0.000 A 
ATOM      5  C   UNL     1      32.913   4.609  -6.615  0.00  0.00    +0.000 A 
ATOM      6  C   UNL     1      33.976   3.917  -6.006  0.00  0.00    +0.000 A 
ATOM      7  C   UNL     1      33.854   2.515  -6.013  0.00  0.00    +0.000 A 
ATOM      8  C   UNL     1      32.767   1.849  -6.603  0.00  0.00    +0.000 A 
ENDBRANCH   1   6
BRANCH   1   9
ATOM      9  C   UNL     1      36.285   4.857  -6.171  0.00  0.00    +0.000 C 
BRANCH   9  10
ATOM     10  C   UNL     1      36.352   6.317  -6.683  0.00  0.00    +0.000 C 
ATOM     11  C   UNL     1      37.338   7.138  -5.862  0.00  0.00    +0.000 C 
BRANCH  10  12
ATOM     12  O   UNL     1      36.770   6.362  -8.055  0.00  0.00    +0.000 OA
ATOM     13  H   UNL     1      37.335   7.143  -8.172  0.00  0.00    +0.000 HD
ENDBRANCH  10  12
ENDBRANCH   9  10
ENDBRANCH   1   9
BRANCH   1  14
ATOM     14  C   UNL     1      35.229   4.557  -3.923  0.00  0.00    +0.000 C 
BRANCH  14  15
ATOM     15  C   UNL     1      36.550   3.870  -3.503  0.00  0.00    +0.000 C 
ATOM     16  C   UNL     1      37.335   4.662  -2.463  0.00  0.00    +0.000 C 
BRANCH  15  17
ATOM     17  O   UNL     1      36.321   2.562  -2.981  0.00  0.00    +0.000 OA
ATOM     18  H   UNL     1      35.456   2.619  -2.527  0.00  0.00    +0.000 HD
ENDBRANCH  15  17
ENDBRANCH  14  15
ENDBRANCH   1  14
TORSDOF 7
ENDMDL
MODEL 8
REMARK VINA RESULT:    -5.243      2.578      3.999
REMARK INTER + INTRA:          -7.400
REMARK INTER:                  -7.096
REMARK INTRA:                  -0.305
REMARK UNBOUND:                -0.319
REMARK  Name = 
REMARK  10 active torsions:
REMARK  status: ('A' for Active; 'I' for Inactive)
REMARK    1  A    between atoms: C_1  and  C_2
REMARK    2  A    between atoms: C_5  and  N_8
REMARK    3  A    between atoms: N_8  and  C_9
REMARK    4  A    between atoms: N_8  and  C_13
REMARK    5  A    between atoms: C_9  and  C_10
REMARK    6  A    between atoms: C_10  and  C_11
REMARK    7  A    between atoms: C_10  and  O_12
REMARK    8  A    between atoms: C_13  and  C_14
REMARK    9  A    between atoms: C_14  and  C_15
REMARK   10  A    between atoms: C_14  and  O_16
REMARK                            x       y       z     vdW  Elec       q    Type
REMARK                         _______ _______ _______ _____ _____    ______ ____
ROOT
ATOM      1  N   UNL     1      34.012   4.449  -5.479  0.00  0.00    +0.000 N 
ENDROOT
BRANCH   1   6
ATOM      2  C   UNL     1      36.727   9.528  -5.069  0.00  0.00    +0.000 C 
ATOM      3  C   UNL     1      36.004   8.219  -5.161  0.00  0.00    +0.000 A 
ATOM      4  C   UNL     1      36.261   7.195  -4.256  0.00  0.00    +0.000 A 
ATOM      5  C   UNL     1      35.603   5.960  -4.365  0.00  0.00    +0.000 A 
ATOM      6  C   UNL     1      34.680   5.677  -5.388  0.00  0.00    +0.000 A 
ATOM      7  C   UNL     1      34.442   6.735  -6.284  0.00  0.00    +0.000 A 
ATOM      8  C   UNL     1      35.092   7.976  -6.185  0.00  0.00    +0.000 A 
ENDBRANCH   1   6
BRANCH   1   9
ATOM      9  C   UNL     1      34.314   3.365  -4.514  0.00  0.00    +0.000 C 
BRANCH   9  10
ATOM     10  C   UNL     1      35.033   2.161  -5.169  0.00  0.00    +0.000 C 
ATOM     11  C   UNL     1      36.539   2.389  -5.222  0.00  0.00    +0.000 C 
BRANCH  10  12
ATOM     12  O   UNL     1      34.793   0.954  -4.432  0.00  0.00    +0.000 OA
ATOM     13  H   UNL     1      35.026   1.117  -3.503  0.00  0.00    +0.000 HD
ENDBRANCH  10  12
ENDBRANCH   9  10
ENDBRANCH   1   9
BRANCH   1  14
ATOM     14  C   UNL     1      33.408   3.995  -6.758  0.00  0.00    +0.000 C 
BRANCH  14  15
ATOM     15  C   UNL     1      31.865   4.110  -6.749  0.00  0.00    +0.000 C 
ATOM     16  C   UNL     1      31.213   3.330  -5.614  0.00  0.00    +0.000 C 
BRANCH  15  17
ATOM     17  O   UNL     1      31.438   5.468  -6.655  0.00  0.00    +0.000 OA
ATOM     18  H   UNL     1      30.904   5.622  -7.460  0.00  0.00    +0.000 HD
ENDBRANCH  15  17
ENDBRANCH  14  15
ENDBRANCH   1  14
TORSDOF 7
ENDMDL
MODEL 9
REMARK VINA RESULT:    -5.124      2.495      4.007
REMARK INTER + INTRA:          -7.239
REMARK INTER:                  -6.846
REMARK INTRA:                  -0.394
REMARK UNBOUND:                -0.319
REMARK  Name = 
REMARK  10 active torsions:
REMARK  status: ('A' for Active; 'I' for Inactive)
REMARK    1  A    between atoms: C_1  and  C_2
REMARK    2  A    between atoms: C_5  and  N_8
REMARK    3  A    between atoms: N_8  and  C_9
REMARK    4  A    between atoms: N_8  and  C_13
REMARK    5  A    between atoms: C_9  and  C_10
REMARK    6  A    between atoms: C_10  and  C_11
REMARK    7  A    between atoms: C_10  and  O_12
REMARK    8  A    between atoms: C_13  and  C_14
REMARK    9  A    between atoms: C_14  and  C_15
REMARK   10  A    between atoms: C_14  and  O_16
REMARK                            x       y       z     vdW  Elec       q    Type
REMARK                         _______ _______ _______ _____ _____    ______ ____
ROOT
ATOM      1  N   UNL     1      34.356   3.578  -5.789  0.00  0.00    +0.000 N 
ENDROOT
BRANCH   1   6
ATOM      2  C   UNL     1      37.321   8.523  -5.506  0.00  0.00    +0.000 C 
ATOM      3  C   UNL     1      36.572   7.228  -5.570  0.00  0.00    +0.000 A 
ATOM      4  C   UNL     1      36.601   6.441  -6.716  0.00  0.00    +0.000 A 
ATOM      5  C   UNL     1      35.872   5.242  -6.781  0.00  0.00    +0.000 A 
ATOM      6  C   UNL     1      35.065   4.784  -5.724  0.00  0.00    +0.000 A 
ATOM      7  C   UNL     1      35.061   5.603  -4.580  0.00  0.00    +0.000 A 
ATOM      8  C   UNL     1      35.787   6.803  -4.501  0.00  0.00    +0.000 A 
ENDBRANCH   1   6
BRANCH   1   9
ATOM      9  C   UNL     1      32.889   3.566  -5.579  0.00  0.00    +0.000 C 
BRANCH   9  10
ATOM     10  C   UNL     1      32.100   4.023  -6.832  0.00  0.00    +0.000 C 
ATOM     11  C   UNL     1      31.255   2.884  -7.389  0.00  0.00    +0.000 C 
BRANCH  10  12
ATOM     12  O   UNL     1      31.225   5.115  -6.518  0.00  0.00    +0.000 OA
ATOM     13  H   UNL     1      30.828   4.943  -5.648  0.00  0.00    +0.000 HD
ENDBRANCH  10  12
ENDBRANCH   9  10
ENDBRANCH   1   9
BRANCH   1  14
ATOM     14  C   UNL     1      35.031   2.276  -5.552  0.00  0.00    +0.000 C 
BRANCH  14  15
ATOM     15  C   UNL     1      35.475   2.107  -4.078  0.00  0.00    +0.000 C 
ATOM     16  C   UNL     1      34.703   1.019  -3.341  0.00  0.00    +0.000 C 
BRANCH  15  17
ATOM     17  O   UNL     1      36.866   1.807  -3.978  0.00  0.00    +0.000 OA
ATOM     18  H   UNL     1      37.036   1.714  -3.019  0.00  0.00    +0.000 HD
ENDBRANCH  15  17
ENDBRANCH  14  15
ENDBRANCH   1  14
TORSDOF 7
ENDMDL
