MODEL 1
REMARK VINA RESULT:    -3.927      0.000      0.000
REMARK INTER + INTRA:          -5.965
REMARK INTER:                  -5.304
REMARK INTRA:                  -0.661
REMARK UNBOUND:                -0.661
REMARK  Name = 
REMARK  10 active torsions:
REMARK  status: ('A' for Active; 'I' for Inactive)
REMARK    1  A    between atoms: C_1  and  C_2
REMARK    2  A    between atoms: C_5  and  N_8
REMARK    3  A    between atoms: N_8  and  C_9
REMARK    4  A    between atoms: N_8  and  C_13
REMARK    5  A    between atoms: C_9  and  C_10
REMARK    6  A    between atoms: C_10  and  C_11
REMARK    7  A    between atoms: C_10  and  O_12
REMARK    8  A    between atoms: C_13  and  C_14
REMARK    9  A    between atoms: C_14  and  C_15
REMARK   10  A    between atoms: C_14  and  O_16
REMARK                            x       y       z     vdW  Elec       q    Type
REMARK                         _______ _______ _______ _____ _____    ______ ____
ROOT
ATOM      1  N   UNL     1      10.240  18.639  15.351  0.00  0.00    +0.000 N 
ENDROOT
BRANCH   1   6
ATOM      2  C   UNL     1       5.102  17.118  13.202  0.00  0.00    +0.000 C 
ATOM      3  C   UNL     1       6.445  17.512  13.737  0.00  0.00    +0.000 A 
ATOM      4  C   UNL     1       7.338  16.552  14.200  0.00  0.00    +0.000 A 
ATOM      5  C   UNL     1       8.584  16.929  14.728  0.00  0.00    +0.000 A 
ATOM      6  C   UNL     1       8.988  18.271  14.841  0.00  0.00    +0.000 A 
ATOM      7  C   UNL     1       8.061  19.214  14.361  0.00  0.00    +0.000 A 
ATOM      8  C   UNL     1       6.813  18.851  13.829  0.00  0.00    +0.000 A 
ENDBRANCH   1   6
BRANCH   1   9
ATOM      9  C   UNL     1      10.346  19.736  16.342  0.00  0.00    +0.000 C 
BRANCH   9  10
ATOM     10  C   UNL     1      10.052  19.269  17.789  0.00  0.00    +0.000 C 
ATOM     11  C   UNL     1       8.641  19.659  18.211  0.00  0.00    +0.000 C 
BRANCH  10  12
ATOM     12  O   UNL     1      10.172  17.844  17.903  0.00  0.00    +0.000 OA
ATOM     13  H   UNL     1      11.091  17.602  17.701  0.00  0.00    +0.000 HD
ENDBRANCH  10  12
ENDBRANCH   9  10
ENDBRANCH   1   9
BRANCH   1  14
ATOM     14  C   UNL     1      11.490  18.352  14.601  0.00  0.00    +0.000 C 
BRANCH  14  15
ATOM     15  C   UNL     1      12.006  16.915  14.852  0.00  0.00    +0.000 C 
ATOM     16  C   UNL     1      13.501  16.763  14.602  0.00  0.00    +0.000 C 
BRANCH  15  17
ATOM     17  O   UNL     1      11.734  16.483  16.185  0.00  0.00    +0.000 OA
ATOM     18  H   UNL     1      12.596  16.531  16.646  0.00  0.00    +0.000 HD
ENDBRANCH  15  17
ENDBRANCH  14  15
ENDBRANCH   1  14
TORSDOF 7
ENDMDL
MODEL 2
REMARK VINA RESULT:    -3.919      8.971     11.463
REMARK INTER + INTRA:          -5.955
REMARK INTER:                  -5.455
REMARK INTRA:                  -0.499
REMARK UNBOUND:                -0.661
REMARK  Name = 
REMARK  10 active torsions:
REMARK  status: ('A' for Active; 'I' for Inactive)
REMARK    1  A    between atoms: C_1  and  C_2
REMARK    2  A    between atoms: C_5  and  N_8
REMARK    3  A    between atoms: N_8  and  C_9
REMARK    4  A    between atoms: N_8  and  C_13
REMARK    5  A    between atoms: C_9  and  C_10
REMARK    6  A    between atoms: C_10  and  C_11
REMARK    7  A    between atoms: C_10  and  O_12
REMARK    8  A    between atoms: C_13  and  C_14
REMARK    9  A    between atoms: C_14  and  C_15
REMARK   10  A    between atoms: C_14  and  O_16
REMARK                            x       y       z     vdW  Elec       q    Type
REMARK                         _______ _______ _______ _____ _____    ______ ____
ROOT
ATOM      1  N   UNL     1       4.409   9.725  11.180  0.00  0.00    +0.000 N 
ENDROOT
BRANCH   1   6
ATOM      2  C   UNL     1      10.003   8.658  10.233  0.00  0.00    +0.000 C 
ATOM      3  C   UNL     1       8.549   8.942  10.455  0.00  0.00    +0.000 A 
ATOM      4  C   UNL     1       8.127  10.183  10.920  0.00  0.00    +0.000 A 
ATOM      5  C   UNL     1       6.765  10.434  11.154  0.00  0.00    +0.000 A 
ATOM      6  C   UNL     1       5.767   9.461  10.962  0.00  0.00    +0.000 A 
ATOM      7  C   UNL     1       6.231   8.219  10.490  0.00  0.00    +0.000 A 
ATOM      8  C   UNL     1       7.589   7.956  10.249  0.00  0.00    +0.000 A 
ENDBRANCH   1   6
BRANCH   1   9
ATOM      9  C   UNL     1       3.383   8.745  10.747  0.00  0.00    +0.000 C 
BRANCH   9  10
ATOM     10  C   UNL     1       2.594   8.139  11.933  0.00  0.00    +0.000 C 
ATOM     11  C   UNL     1       1.286   7.518  11.456  0.00  0.00    +0.000 C 
BRANCH  10  12
ATOM     12  O   UNL     1       3.357   7.119  12.591  0.00  0.00    +0.000 OA
ATOM     13  H   UNL     1       3.939   7.549  13.239  0.00  0.00    +0.000 HD
ENDBRANCH  10  12
ENDBRANCH   9  10
ENDBRANCH   1   9
BRANCH   1  14
ATOM     14  C   UNL     1       3.913  11.114  11.350  0.00  0.00    +0.000 C 
BRANCH  14  15
ATOM     15  C   UNL     1       3.749  11.498  12.840  0.00  0.00    +0.000 C 
ATOM     16  C   UNL     1       4.403  12.828  13.193  0.00  0.00    +0.000 C 
BRANCH  15  17
ATOM     17  O   UNL     1       2.375  11.567  13.218  0.00  0.00    +0.000 OA
ATOM     18  H   UNL     1       1.976  10.742  12.876  0.00  0.00    +0.000 HD
ENDBRANCH  15  17
ENDBRANCH  14  15
ENDBRANCH   1  14
TORSDOF 7
ENDMDL
MODEL 3
REMARK VINA RESULT:    -3.904      9.640     11.833
REMARK INTER + INTRA:          -5.934
REMARK INTER:                  -5.500
REMARK INTRA:                  -0.434
REMARK UNBOUND:                -0.661
REMARK  Name = 
REMARK  10 active torsions:
REMARK  status: ('A' for Active; 'I' for Inactive)
REMARK    1  A    between atoms: C_1  and  C_2
REMARK    2  A    between atoms: C_5  and  N_8
REMARK    3  A    between atoms: N_8  and  C_9
REMARK    4  A    between atoms: N_8  and  C_13
REMARK    5  A    between atoms: C_9  and  C_10
REMARK    6  A    between atoms: C_10  and  C_11
REMARK    7  A    between atoms: C_10  and  O_12
REMARK    8  A    between atoms: C_13  and  C_14
REMARK    9  A    between atoms: C_14  and  C_15
REMARK   10  A    between atoms: C_14  and  O_16
REMARK                            x       y       z     vdW  Elec       q    Type
REMARK                         _______ _______ _______ _____ _____    ______ ____
ROOT
ATOM      1  N   UNL     1       4.822   9.274  10.625  0.00  0.00    +0.000 N 
ENDROOT
BRANCH   1   6
ATOM      2  C   UNL     1       9.454   7.132   7.925  0.00  0.00    +0.000 C 
ATOM      3  C   UNL     1       8.261   7.711   8.624  0.00  0.00    +0.000 A 
ATOM      4  C   UNL     1       8.226   7.814  10.010  0.00  0.00    +0.000 A 
ATOM      5  C   UNL     1       7.094   8.330  10.662  0.00  0.00    +0.000 A 
ATOM      6  C   UNL     1       5.941   8.743   9.971  0.00  0.00    +0.000 A 
ATOM      7  C   UNL     1       6.012   8.626   8.570  0.00  0.00    +0.000 A 
ATOM      8  C   UNL     1       7.139   8.114   7.906  0.00  0.00    +0.000 A 
ENDBRANCH   1   6
BRANCH   1   9
ATOM      9  C   UNL     1       3.476   8.705  10.378  0.00  0.00    +0.000 C 
BRANCH   9  10
ATOM     10  C   UNL     1       2.729   8.340  11.684  0.00  0.00    +0.000 C 
ATOM     11  C   UNL     1       1.339   7.792  11.383  0.00  0.00    +0.000 C 
BRANCH  10  12
ATOM     12  O   UNL     1       3.448   7.345  12.427  0.00  0.00    +0.000 OA
ATOM     13  H   UNL     1       3.436   7.602  13.364  0.00  0.00    +0.000 HD
ENDBRANCH  10  12
ENDBRANCH   9  10
ENDBRANCH   1   9
BRANCH   1  14
ATOM     14  C   UNL     1       4.826  10.665  11.147  0.00  0.00    +0.000 C 
BRANCH  14  15
ATOM     15  C   UNL     1       5.128  10.719  12.664  0.00  0.00    +0.000 C 
ATOM     16  C   UNL     1       6.551  11.164  12.977  0.00  0.00    +0.000 C 
BRANCH  15  17
ATOM     17  O   UNL     1       4.232  11.593  13.349  0.00  0.00    +0.000 OA
ATOM     18  H   UNL     1       4.799  12.115  13.951  0.00  0.00    +0.000 HD
ENDBRANCH  15  17
ENDBRANCH  14  15
ENDBRANCH   1  14
TORSDOF 7
ENDMDL
MODEL 4
REMARK VINA RESULT:    -3.891      1.331      3.110
REMARK INTER + INTRA:          -5.916
REMARK INTER:                  -5.222
REMARK INTRA:                  -0.694
REMARK UNBOUND:                -0.661
REMARK  Name = 
REMARK  10 active torsions:
REMARK  status: ('A' for Active; 'I' for Inactive)
REMARK    1  A    between atoms: C_1  and  C_2
REMARK    2  A    between atoms: C_5  and  N_8
REMARK    3  A    between atoms: N_8  and  C_9
REMARK    4  A    between atoms: N_8  and  C_13
REMARK    5  A    between atoms: C_9  and  C_10
REMARK    6  A    between atoms: C_10  and  C_11
REMARK    7  A    between atoms: C_10  and  O_12
REMARK    8  A    between atoms: C_13  and  C_14
REMARK    9  A    between atoms: C_14  and  C_15
REMARK   10  A    between atoms: C_14  and  O_16
REMARK                            x       y       z     vdW  Elec       q    Type
REMARK                         _______ _______ _______ _____ _____    ______ ____
ROOT
ATOM      1  N   UNL     1       9.715  17.852  15.323  0.00  0.00    +0.000 N 
ENDROOT
BRANCH   1   6
ATOM      2  C   UNL     1       4.605  16.950  12.792  0.00  0.00    +0.000 C 
ATOM      3  C   UNL     1       5.942  17.185  13.426  0.00  0.00    +0.000 A 
ATOM      4  C   UNL     1       6.740  16.118  13.827  0.00  0.00    +0.000 A 
ATOM      5  C   UNL     1       7.979  16.344  14.449  0.00  0.00    +0.000 A 
ATOM      6  C   UNL     1       8.470  17.634  14.720  0.00  0.00    +0.000 A 
ATOM      7  C   UNL     1       7.639  18.688  14.299  0.00  0.00    +0.000 A 
ATOM      8  C   UNL     1       6.399  18.476  13.675  0.00  0.00    +0.000 A 
ENDBRANCH   1   6
BRANCH   1   9
ATOM      9  C   UNL     1      10.959  17.440  14.629  0.00  0.00    +0.000 C 
BRANCH   9  10
ATOM     10  C   UNL     1      11.846  18.643  14.222  0.00  0.00    +0.000 C 
ATOM     11  C   UNL     1      10.991  19.834  13.807  0.00  0.00    +0.000 C 
BRANCH  10  12
ATOM     12  O   UNL     1      12.684  19.055  15.311  0.00  0.00    +0.000 OA
ATOM     13  H   UNL     1      12.751  18.315  15.937  0.00  0.00    +0.000 HD
ENDBRANCH  10  12
ENDBRANCH   9  10
ENDBRANCH   1   9
BRANCH   1  14
ATOM     14  C   UNL     1       9.842  18.000  16.795  0.00  0.00    +0.000 C 
BRANCH  14  15
ATOM     15  C   UNL     1       9.700  19.472  17.249  0.00  0.00    +0.000 C 
ATOM     16  C   UNL     1       8.826  19.637  18.487  0.00  0.00    +0.000 C 
BRANCH  15  17
ATOM     17  O   UNL     1      10.969  20.065  17.522  0.00  0.00    +0.000 OA
ATOM     18  H   UNL     1      11.615  19.337  17.420  0.00  0.00    +0.000 HD
ENDBRANCH  15  17
ENDBRANCH  14  15
ENDBRANCH   1  14
TORSDOF 7
ENDMDL
MODEL 5
REMARK VINA RESULT:    -3.888      7.710     10.490
REMARK INTER + INTRA:          -5.913
REMARK INTER:                  -5.311
REMARK INTRA:                  -0.602
REMARK UNBOUND:                -0.661
REMARK  Name = 
REMARK  10 active torsions:
REMARK  status: ('A' for Active; 'I' for Inactive)
REMARK    1  A    between atoms: C_1  and  C_2
REMARK    2  A    between atoms: C_5  and  N_8
REMARK    3  A    between atoms: N_8  and  C_9
REMARK    4  A    between atoms: N_8  and  C_13
REMARK    5  A    between atoms: C_9  and  C_10
REMARK    6  A    between atoms: C_10  and  C_11
REMARK    7  A    between atoms: C_10  and  O_12
REMARK    8  A    between atoms: C_13  and  C_14
REMARK    9  A    between atoms: C_14  and  C_15
REMARK   10  A    between atoms: C_14  and  O_16
REMARK                            x       y       z     vdW  Elec       q    Type
REMARK                         _______ _______ _______ _____ _____    ______ ____
ROOT
ATOM      1  N   UNL     1       0.018  14.666  14.430  0.00  0.00    +0.000 N 
ENDROOT
BRANCH   1   6
ATOM      2  C   UNL     1       5.523  14.475  12.703  0.00  0.00    +0.000 C 
ATOM      3  C   UNL     1       4.087  14.517  13.128  0.00  0.00    +0.000 A 
ATOM      4  C   UNL     1       3.351  15.694  13.041  0.00  0.00    +0.000 A 
ATOM      5  C   UNL     1       2.014  15.736  13.469  0.00  0.00    +0.000 A 
ATOM      6  C   UNL     1       1.357  14.622  14.023  0.00  0.00    +0.000 A 
ATOM      7  C   UNL     1       2.131  13.449  14.094  0.00  0.00    +0.000 A 
ATOM      8  C   UNL     1       3.468  13.393  13.668  0.00  0.00    +0.000 A 
ENDBRANCH   1   6
BRANCH   1   9
ATOM      9  C   UNL     1      -1.066  14.709  13.418  0.00  0.00    +0.000 C 
BRANCH   9  10
ATOM     10  C   UNL     1      -1.670  13.313  13.126  0.00  0.00    +0.000 C 
ATOM     11  C   UNL     1      -0.933  12.629  11.981  0.00  0.00    +0.000 C 
BRANCH  10  12
ATOM     12  O   UNL     1      -1.584  12.464  14.279  0.00  0.00    +0.000 OA
ATOM     13  H   UNL     1      -2.031  12.912  15.017  0.00  0.00    +0.000 HD
ENDBRANCH  10  12
ENDBRANCH   9  10
ENDBRANCH   1   9
BRANCH   1  14
ATOM     14  C   UNL     1      -0.362  15.174  15.773  0.00  0.00    +0.000 C 
BRANCH  14  15
ATOM     15  C   UNL     1      -0.022  14.166  16.897  0.00  0.00    +0.000 C 
ATOM     16  C   UNL     1       1.093  14.649  17.817  0.00  0.00    +0.000 C 
BRANCH  15  17
ATOM     17  O   UNL     1      -1.162  13.870  17.702  0.00  0.00    +0.000 OA
ATOM     18  H   UNL     1      -1.536  14.742  17.940  0.00  0.00    +0.000 HD
ENDBRANCH  15  17
ENDBRANCH  14  15
ENDBRANCH   1  14
TORSDOF 7
ENDMDL
MODEL 6
REMARK VINA RESULT:    -3.850      9.380     11.954
REMARK INTER + INTRA:          -5.861
REMARK INTER:                  -5.339
REMARK INTRA:                  -0.521
REMARK UNBOUND:                -0.661
REMARK  Name = 
REMARK  10 active torsions:
REMARK  status: ('A' for Active; 'I' for Inactive)
REMARK    1  A    between atoms: C_1  and  C_2
REMARK    2  A    between atoms: C_5  and  N_8
REMARK    3  A    between atoms: N_8  and  C_9
REMARK    4  A    between atoms: N_8  and  C_13
REMARK    5  A    between atoms: C_9  and  C_10
REMARK    6  A    between atoms: C_10  and  C_11
REMARK    7  A    between atoms: C_10  and  O_12
REMARK    8  A    between atoms: C_13  and  C_14
REMARK    9  A    between atoms: C_14  and  C_15
REMARK   10  A    between atoms: C_14  and  O_16
REMARK                            x       y       z     vdW  Elec       q    Type
REMARK                         _______ _______ _______ _____ _____    ______ ____
ROOT
ATOM      1  N   UNL     1       3.353   8.997  11.192  0.00  0.00    +0.000 N 
ENDROOT
BRANCH   1   6
ATOM      2  C   UNL     1       8.356  11.563  12.499  0.00  0.00    +0.000 C 
ATOM      3  C   UNL     1       7.063  10.879  12.176  0.00  0.00    +0.000 A 
ATOM      4  C   UNL     1       6.972   9.992  11.107  0.00  0.00    +0.000 A 
ATOM      5  C   UNL     1       5.750   9.377  10.790  0.00  0.00    +0.000 A 
ATOM      6  C   UNL     1       4.563   9.629  11.502  0.00  0.00    +0.000 A 
ATOM      7  C   UNL     1       4.693  10.529  12.576  0.00  0.00    +0.000 A 
ATOM      8  C   UNL     1       5.910  11.150  12.905  0.00  0.00    +0.000 A 
ENDBRANCH   1   6
BRANCH   1   9
ATOM      9  C   UNL     1       2.361   9.675  10.323  0.00  0.00    +0.000 C 
BRANCH   9  10
ATOM     10  C   UNL     1       1.669  10.871  11.021  0.00  0.00    +0.000 C 
ATOM     11  C   UNL     1       1.800  12.139  10.186  0.00  0.00    +0.000 C 
BRANCH  10  12
ATOM     12  O   UNL     1       0.273  10.613  11.221  0.00  0.00    +0.000 OA
ATOM     13  H   UNL     1      -0.143  11.433  11.535  0.00  0.00    +0.000 HD
ENDBRANCH  10  12
ENDBRANCH   9  10
ENDBRANCH   1   9
BRANCH   1  14
ATOM     14  C   UNL     1       2.793   7.937  12.069  0.00  0.00    +0.000 C 
BRANCH  14  15
ATOM     15  C   UNL     1       1.485   7.337  11.499  0.00  0.00    +0.000 C 
ATOM     16  C   UNL     1       1.513   5.816  11.405  0.00  0.00    +0.000 C 
BRANCH  15  17
ATOM     17  O   UNL     1       0.350   7.710  12.279  0.00  0.00    +0.000 OA
ATOM     18  H   UNL     1       0.722   8.094  13.099  0.00  0.00    +0.000 HD
ENDBRANCH  15  17
ENDBRANCH  14  15
ENDBRANCH   1  14
TORSDOF 7
ENDMDL
MODEL 7
REMARK VINA RESULT:    -3.840      9.135     11.245
REMARK INTER + INTRA:          -5.848
REMARK INTER:                  -5.190
REMARK INTRA:                  -0.659
REMARK UNBOUND:                -0.661
REMARK  Name = 
REMARK  10 active torsions:
REMARK  status: ('A' for Active; 'I' for Inactive)
REMARK    1  A    between atoms: C_1  and  C_2
REMARK    2  A    between atoms: C_5  and  N_8
REMARK    3  A    between atoms: N_8  and  C_9
REMARK    4  A    between atoms: N_8  and  C_13
REMARK    5  A    between atoms: C_9  and  C_10
REMARK    6  A    between atoms: C_10  and  C_11
REMARK    7  A    between atoms: C_10  and  O_12
REMARK    8  A    between atoms: C_13  and  C_14
REMARK    9  A    between atoms: C_14  and  C_15
REMARK   10  A    between atoms: C_14  and  O_16
REMARK                            x       y       z     vdW  Elec       q    Type
REMARK                         _______ _______ _______ _____ _____    ______ ____
ROOT
ATOM      1  N   UNL     1       5.461   9.692  10.895  0.00  0.00    +0.000 N 
ENDROOT
BRANCH   1   6
ATOM      2  C   UNL     1       9.371   6.979   7.627  0.00  0.00    +0.000 C 
ATOM      3  C   UNL     1       8.362   7.705   8.464  0.00  0.00    +0.000 A 
ATOM      4  C   UNL     1       8.699   8.199   9.720  0.00  0.00    +0.000 A 
ATOM      5  C   UNL     1       7.742   8.852  10.513  0.00  0.00    +0.000 A 
ATOM      6  C   UNL     1       6.406   9.022  10.108  0.00  0.00    +0.000 A 
ATOM      7  C   UNL     1       6.101   8.512   8.832  0.00  0.00    +0.000 A 
ATOM      8  C   UNL     1       7.050   7.859   8.028  0.00  0.00    +0.000 A 
ENDBRANCH   1   6
BRANCH   1   9
ATOM      9  C   UNL     1       5.764  11.038  11.437  0.00  0.00    +0.000 C 
BRANCH   9  10
ATOM     10  C   UNL     1       6.143  11.010  12.938  0.00  0.00    +0.000 C 
ATOM     11  C   UNL     1       7.551  11.551  13.155  0.00  0.00    +0.000 C 
BRANCH  10  12
ATOM     12  O   UNL     1       5.236  11.808  13.712  0.00  0.00    +0.000 OA
ATOM     13  H   UNL     1       4.668  11.208  14.223  0.00  0.00    +0.000 HD
ENDBRANCH  10  12
ENDBRANCH   9  10
ENDBRANCH   1   9
BRANCH   1  14
ATOM     14  C   UNL     1       4.405   8.947  11.629  0.00  0.00    +0.000 C 
BRANCH  14  15
ATOM     15  C   UNL     1       3.071   9.729  11.686  0.00  0.00    +0.000 C 
ATOM     16  C   UNL     1       1.894   8.951  11.110  0.00  0.00    +0.000 C 
BRANCH  15  17
ATOM     17  O   UNL     1       2.739  10.108  13.021  0.00  0.00    +0.000 OA
ATOM     18  H   UNL     1       3.042  11.035  13.104  0.00  0.00    +0.000 HD
ENDBRANCH  15  17
ENDBRANCH  14  15
ENDBRANCH   1  14
TORSDOF 7
ENDMDL
MODEL 8
REMARK VINA RESULT:    -3.836      9.498     11.496
REMARK INTER + INTRA:          -5.843
REMARK INTER:                  -5.383
REMARK INTRA:                  -0.459
REMARK UNBOUND:                -0.661
REMARK  Name = 
REMARK  10 active torsions:
REMARK  status: ('A' for Active; 'I' for Inactive)
REMARK    1  A    between atoms: C_1  and  C_2
REMARK    2  A    between atoms: C_5  and  N_8
REMARK    3  A    between atoms: N_8  and  C_9
REMARK    4  A    between atoms: N_8  and  C_13
REMARK    5  A    between atoms: C_9  and  C_10
REMARK    6  A    between atoms: C_10  and  C_11
REMARK    7  A    between atoms: C_10  and  O_12
REMARK    8  A    between atoms: C_13  and  C_14
REMARK    9  A    between atoms: C_14  and  C_15
REMARK   10  A    between atoms: C_14  and  O_16
REMARK                            x       y       z     vdW  Elec       q    Type
REMARK                         _______ _______ _______ _____ _____    ______ ____
ROOT
ATOM      1  N   UNL     1       4.397   9.701  11.349  0.00  0.00    +0.000 N 
ENDROOT
BRANCH   1   6
ATOM      2  C   UNL     1       9.982   8.828  10.178  0.00  0.00    +0.000 C 
ATOM      3  C   UNL     1       8.529   9.064  10.459  0.00  0.00    +0.000 A 
ATOM      4  C   UNL     1       8.100  10.246  11.054  0.00  0.00    +0.000 A 
ATOM      5  C   UNL     1       6.741  10.449  11.343  0.00  0.00    +0.000 A 
ATOM      6  C   UNL     1       5.753   9.484  11.077  0.00  0.00    +0.000 A 
ATOM      7  C   UNL     1       6.223   8.303  10.473  0.00  0.00    +0.000 A 
ATOM      8  C   UNL     1       7.579   8.087  10.178  0.00  0.00    +0.000 A 
ENDBRANCH   1   6
BRANCH   1   9
ATOM      9  C   UNL     1       3.995  10.496  12.535  0.00  0.00    +0.000 C 
BRANCH   9  10
ATOM     10  C   UNL     1       3.208  11.776  12.161  0.00  0.00    +0.000 C 
ATOM     11  C   UNL     1       3.558  12.238  10.751  0.00  0.00    +0.000 C 
BRANCH  10  12
ATOM     12  O   UNL     1       1.794  11.546  12.215  0.00  0.00    +0.000 OA
ATOM     13  H   UNL     1       1.348  12.409  12.236  0.00  0.00    +0.000 HD
ENDBRANCH  10  12
ENDBRANCH   9  10
ENDBRANCH   1   9
BRANCH   1  14
ATOM     14  C   UNL     1       3.351   8.783  10.829  0.00  0.00    +0.000 C 
BRANCH  14  15
ATOM     15  C   UNL     1       2.555   8.100  11.967  0.00  0.00    +0.000 C 
ATOM     16  C   UNL     1       1.221   7.526  11.505  0.00  0.00    +0.000 C 
BRANCH  15  17
ATOM     17  O   UNL     1       3.303   7.046  12.574  0.00  0.00    +0.000 OA
ATOM     18  H   UNL     1       2.636   6.491  13.026  0.00  0.00    +0.000 HD
ENDBRANCH  15  17
ENDBRANCH  14  15
ENDBRANCH   1  14
TORSDOF 7
ENDMDL
MODEL 9
REMARK VINA RESULT:    -3.833      8.050     10.327
REMARK INTER + INTRA:          -5.838
REMARK INTER:                  -5.095
REMARK INTRA:                  -0.744
REMARK UNBOUND:                -0.661
REMARK  Name = 
REMARK  10 active torsions:
REMARK  status: ('A' for Active; 'I' for Inactive)
REMARK    1  A    between atoms: C_1  and  C_2
REMARK    2  A    between atoms: C_5  and  N_8
REMARK    3  A    between atoms: N_8  and  C_9
REMARK    4  A    between atoms: N_8  and  C_13
REMARK    5  A    between atoms: C_9  and  C_10
REMARK    6  A    between atoms: C_10  and  C_11
REMARK    7  A    between atoms: C_10  and  O_12
REMARK    8  A    between atoms: C_13  and  C_14
REMARK    9  A    between atoms: C_14  and  C_15
REMARK   10  A    between atoms: C_14  and  O_16
REMARK                            x       y       z     vdW  Elec       q    Type
REMARK                         _______ _______ _______ _____ _____    ______ ____
ROOT
ATOM      1  N   UNL     1       5.692  10.992  11.128  0.00  0.00    +0.000 N 
ENDROOT
BRANCH   1   6
ATOM      2  C   UNL     1       9.925   7.247   9.956  0.00  0.00    +0.000 C 
ATOM      3  C   UNL     1       8.830   8.214  10.284  0.00  0.00    +0.000 A 
ATOM      4  C   UNL     1       7.507   7.795  10.366  0.00  0.00    +0.000 A 
ATOM      5  C   UNL     1       6.481   8.712  10.645  0.00  0.00    +0.000 A 
ATOM      6  C   UNL     1       6.717  10.086  10.831  0.00  0.00    +0.000 A 
ATOM      7  C   UNL     1       8.067  10.474  10.743  0.00  0.00    +0.000 A 
ATOM      8  C   UNL     1       9.103   9.567  10.467  0.00  0.00    +0.000 A 
ENDBRANCH   1   6
BRANCH   1   9
ATOM      9  C   UNL     1       4.340  10.800  10.549  0.00  0.00    +0.000 C 
BRANCH   9  10
ATOM     10  C   UNL     1       3.243  10.630  11.629  0.00  0.00    +0.000 C 
ATOM     11  C   UNL     1       2.018   9.928  11.056  0.00  0.00    +0.000 C 
BRANCH  10  12
ATOM     12  O   UNL     1       3.725   9.851  12.733  0.00  0.00    +0.000 OA
ATOM     13  H   UNL     1       4.685   9.739  12.627  0.00  0.00    +0.000 HD
ENDBRANCH  10  12
ENDBRANCH   9  10
ENDBRANCH   1   9
BRANCH   1  14
ATOM     14  C   UNL     1       5.993  12.380  11.563  0.00  0.00    +0.000 C 
BRANCH  14  15
ATOM     15  C   UNL     1       6.100  12.500  13.102  0.00  0.00    +0.000 C 
ATOM     16  C   UNL     1       4.964  13.306  13.721  0.00  0.00    +0.000 C 
BRANCH  15  17
ATOM     17  O   UNL     1       6.125  11.219  13.730  0.00  0.00    +0.000 OA
ATOM     18  H   UNL     1       6.351  10.591  13.015  0.00  0.00    +0.000 HD
ENDBRANCH  15  17
ENDBRANCH  14  15
ENDBRANCH   1  14
TORSDOF 7
ENDMDL
