MODEL 1
REMARK VINA RESULT:    -5.672      0.000      0.000
REMARK INTER + INTRA:          -7.669
REMARK INTER:                  -7.661
REMARK INTRA:                  -0.008
REMARK UNBOUND:                -0.008
REMARK  Name = 
REMARK  10 active torsions:
REMARK  status: ('A' for Active; 'I' for Inactive)
REMARK    1  A    between atoms: C_1  and  C_2
REMARK    2  A    between atoms: C_5  and  N_8
REMARK    3  A    between atoms: N_8  and  C_9
REMARK    4  A    between atoms: N_8  and  C_13
REMARK    5  A    between atoms: C_9  and  C_10
REMARK    6  A    between atoms: C_10  and  C_11
REMARK    7  A    between atoms: C_10  and  O_12
REMARK    8  A    between atoms: C_13  and  C_14
REMARK    9  A    between atoms: C_14  and  C_15
REMARK   10  A    between atoms: C_14  and  O_16
REMARK                            x       y       z     vdW  Elec       q    Type
REMARK                         _______ _______ _______ _____ _____    ______ ____
ROOT
ATOM      1  N   UNL     1       3.399  13.213   2.158  0.00  0.00    +0.000 N 
ENDROOT
BRANCH   1   6
ATOM      2  C   UNL     1       4.425  16.135  -2.714  0.00  0.00    +0.000 C 
ATOM      3  C   UNL     1       4.171  15.357  -1.459  0.00  0.00    +0.000 A 
ATOM      4  C   UNL     1       3.016  14.598  -1.311  0.00  0.00    +0.000 A 
ATOM      5  C   UNL     1       2.768  13.895  -0.121  0.00  0.00    +0.000 A 
ATOM      6  C   UNL     1       3.642  13.932   0.981  0.00  0.00    +0.000 A 
ATOM      7  C   UNL     1       4.801  14.708   0.795  0.00  0.00    +0.000 A 
ATOM      8  C   UNL     1       5.062  15.414  -0.391  0.00  0.00    +0.000 A 
ENDBRANCH   1   6
BRANCH   1   9
ATOM      9  C   UNL     1       2.759  13.880   3.318  0.00  0.00    +0.000 C 
BRANCH   9  10
ATOM     10  C   UNL     1       2.483  12.908   4.491  0.00  0.00    +0.000 C 
ATOM     11  C   UNL     1       3.632  12.922   5.492  0.00  0.00    +0.000 C 
BRANCH  10  12
ATOM     12  O   UNL     1       1.283  13.271   5.188  0.00  0.00    +0.000 OA
ATOM     13  H   UNL     1       1.096  14.205   5.000  0.00  0.00    +0.000 HD
ENDBRANCH  10  12
ENDBRANCH   9  10
ENDBRANCH   1   9
BRANCH   1  14
ATOM     14  C   UNL     1       4.183  11.996   2.491  0.00  0.00    +0.000 C 
BRANCH  14  15
ATOM     15  C   UNL     1       3.949  10.854   1.474  0.00  0.00    +0.000 C 
ATOM     16  C   UNL     1       4.881  10.924   0.270  0.00  0.00    +0.000 C 
BRANCH  15  17
ATOM     17  O   UNL     1       4.104   9.570   2.078  0.00  0.00    +0.000 OA
ATOM     18  H   UNL     1       3.620   9.630   2.926  0.00  0.00    +0.000 HD
ENDBRANCH  15  17
ENDBRANCH  14  15
ENDBRANCH   1  14
TORSDOF 7
ENDMDL
MODEL 2
REMARK VINA RESULT:    -5.545      1.211      3.451
REMARK INTER + INTRA:          -7.498
REMARK INTER:                  -7.050
REMARK INTRA:                  -0.448
REMARK UNBOUND:                -0.008
REMARK  Name = 
REMARK  10 active torsions:
REMARK  status: ('A' for Active; 'I' for Inactive)
REMARK    1  A    between atoms: C_1  and  C_2
REMARK    2  A    between atoms: C_5  and  N_8
REMARK    3  A    between atoms: N_8  and  C_9
REMARK    4  A    between atoms: N_8  and  C_13
REMARK    5  A    between atoms: C_9  and  C_10
REMARK    6  A    between atoms: C_10  and  C_11
REMARK    7  A    between atoms: C_10  and  O_12
REMARK    8  A    between atoms: C_13  and  C_14
REMARK    9  A    between atoms: C_14  and  C_15
REMARK   10  A    between atoms: C_14  and  O_16
REMARK                            x       y       z     vdW  Elec       q    Type
REMARK                         _______ _______ _______ _____ _____    ______ ____
ROOT
ATOM      1  N   UNL     1       4.490  12.498   1.896  0.00  0.00    +0.000 N 
ENDROOT
BRANCH   1   6
ATOM      2  C   UNL     1       3.997  15.930  -2.721  0.00  0.00    +0.000 C 
ATOM      3  C   UNL     1       4.129  15.020  -1.538  0.00  0.00    +0.000 A 
ATOM      4  C   UNL     1       3.012  14.406  -0.981  0.00  0.00    +0.000 A 
ATOM      5  C   UNL     1       3.138  13.578   0.147  0.00  0.00    +0.000 A 
ATOM      6  C   UNL     1       4.369  13.341   0.783  0.00  0.00    +0.000 A 
ATOM      7  C   UNL     1       5.477  13.976   0.192  0.00  0.00    +0.000 A 
ATOM      8  C   UNL     1       5.365  14.805  -0.937  0.00  0.00    +0.000 A 
ENDBRANCH   1   6
BRANCH   1   9
ATOM      9  C   UNL     1       3.932  11.125   1.852  0.00  0.00    +0.000 C 
BRANCH   9  10
ATOM     10  C   UNL     1       4.756  10.171   0.953  0.00  0.00    +0.000 C 
ATOM     11  C   UNL     1       5.130   8.900   1.706  0.00  0.00    +0.000 C 
BRANCH  10  12
ATOM     12  O   UNL     1       4.012   9.794  -0.214  0.00  0.00    +0.000 OA
ATOM     13  H   UNL     1       3.493   9.001   0.003  0.00  0.00    +0.000 HD
ENDBRANCH  10  12
ENDBRANCH   9  10
ENDBRANCH   1   9
BRANCH   1  14
ATOM     14  C   UNL     1       4.684  13.050   3.261  0.00  0.00    +0.000 C 
BRANCH  14  15
ATOM     15  C   UNL     1       3.582  12.584   4.242  0.00  0.00    +0.000 C 
ATOM     16  C   UNL     1       3.982  12.728   5.706  0.00  0.00    +0.000 C 
BRANCH  15  17
ATOM     17  O   UNL     1       2.364  13.299   4.045  0.00  0.00    +0.000 OA
ATOM     18  H   UNL     1       1.656  12.644   4.208  0.00  0.00    +0.000 HD
ENDBRANCH  15  17
ENDBRANCH  14  15
ENDBRANCH   1  14
TORSDOF 7
ENDMDL
MODEL 3
REMARK VINA RESULT:    -5.010     11.371     13.675
REMARK INTER + INTRA:          -6.776
REMARK INTER:                  -6.317
REMARK INTRA:                  -0.459
REMARK UNBOUND:                -0.008
REMARK  Name = 
REMARK  10 active torsions:
REMARK  status: ('A' for Active; 'I' for Inactive)
REMARK    1  A    between atoms: C_1  and  C_2
REMARK    2  A    between atoms: C_5  and  N_8
REMARK    3  A    between atoms: N_8  and  C_9
REMARK    4  A    between atoms: N_8  and  C_13
REMARK    5  A    between atoms: C_9  and  C_10
REMARK    6  A    between atoms: C_10  and  C_11
REMARK    7  A    between atoms: C_10  and  O_12
REMARK    8  A    between atoms: C_13  and  C_14
REMARK    9  A    between atoms: C_14  and  C_15
REMARK   10  A    between atoms: C_14  and  O_16
REMARK                            x       y       z     vdW  Elec       q    Type
REMARK                         _______ _______ _______ _____ _____    ______ ____
ROOT
ATOM      1  N   UNL     1      14.555  19.539  -3.085  0.00  0.00    +0.000 N 
ENDROOT
BRANCH   1   6
ATOM      2  C   UNL     1       9.084  17.812  -3.725  0.00  0.00    +0.000 C 
ATOM      3  C   UNL     1      10.498  18.269  -3.536  0.00  0.00    +0.000 A 
ATOM      4  C   UNL     1      10.906  19.526  -3.970  0.00  0.00    +0.000 A 
ATOM      5  C   UNL     1      12.240  19.937  -3.818  0.00  0.00    +0.000 A 
ATOM      6  C   UNL     1      13.231  19.115  -3.252  0.00  0.00    +0.000 A 
ATOM      7  C   UNL     1      12.782  17.852  -2.822  0.00  0.00    +0.000 A 
ATOM      8  C   UNL     1      11.450  17.429  -2.967  0.00  0.00    +0.000 A 
ENDBRANCH   1   6
BRANCH   1   9
ATOM      9  C   UNL     1      15.496  18.735  -2.268  0.00  0.00    +0.000 C 
BRANCH   9  10
ATOM     10  C   UNL     1      16.703  18.212  -3.084  0.00  0.00    +0.000 C 
ATOM     11  C   UNL     1      18.015  18.511  -2.368  0.00  0.00    +0.000 C 
BRANCH  10  12
ATOM     12  O   UNL     1      16.617  16.794  -3.279  0.00  0.00    +0.000 OA
ATOM     13  H   UNL     1      17.102  16.571  -4.091  0.00  0.00    +0.000 HD
ENDBRANCH  10  12
ENDBRANCH   9  10
ENDBRANCH   1   9
BRANCH   1  14
ATOM     14  C   UNL     1      14.931  20.967  -3.247  0.00  0.00    +0.000 C 
BRANCH  14  15
ATOM     15  C   UNL     1      15.523  21.260  -4.646  0.00  0.00    +0.000 C 
ATOM     16  C   UNL     1      17.011  21.589  -4.611  0.00  0.00    +0.000 C 
BRANCH  15  17
ATOM     17  O   UNL     1      15.334  20.164  -5.539  0.00  0.00    +0.000 OA
ATOM     18  H   UNL     1      15.108  19.406  -4.964  0.00  0.00    +0.000 HD
ENDBRANCH  15  17
ENDBRANCH  14  15
ENDBRANCH   1  14
TORSDOF 7
ENDMDL
MODEL 4
REMARK VINA RESULT:    -5.001      9.972     11.540
REMARK INTER + INTRA:          -6.763
REMARK INTER:                  -6.128
REMARK INTRA:                  -0.634
REMARK UNBOUND:                -0.008
REMARK  Name = 
REMARK  10 active torsions:
REMARK  status: ('A' for Active; 'I' for Inactive)
REMARK    1  A    between atoms: C_1  and  C_2
REMARK    2  A    between atoms: C_5  and  N_8
REMARK    3  A    between atoms: N_8  and  C_9
REMARK    4  A    between atoms: N_8  and  C_13
REMARK    5  A    between atoms: C_9  and  C_10
REMARK    6  A    between atoms: C_10  and  C_11
REMARK    7  A    between atoms: C_10  and  O_12
REMARK    8  A    between atoms: C_13  and  C_14
REMARK    9  A    between atoms: C_14  and  C_15
REMARK   10  A    between atoms: C_14  and  O_16
REMARK                            x       y       z     vdW  Elec       q    Type
REMARK                         _______ _______ _______ _____ _____    ______ ____
ROOT
ATOM      1  N   UNL     1      11.244  20.367  -2.634  0.00  0.00    +0.000 N 
ENDROOT
BRANCH   1   6
ATOM      2  C   UNL     1       9.521  21.424   2.774  0.00  0.00    +0.000 C 
ATOM      3  C   UNL     1       9.952  21.167   1.363  0.00  0.00    +0.000 A 
ATOM      4  C   UNL     1       9.356  20.164   0.606  0.00  0.00    +0.000 A 
ATOM      5  C   UNL     1       9.784  19.907  -0.707  0.00  0.00    +0.000 A 
ATOM      6  C   UNL     1      10.835  20.615  -1.317  0.00  0.00    +0.000 A 
ATOM      7  C   UNL     1      11.412  21.623  -0.524  0.00  0.00    +0.000 A 
ATOM      8  C   UNL     1      10.992  21.892   0.789  0.00  0.00    +0.000 A 
ENDBRANCH   1   6
BRANCH   1   9
ATOM      9  C   UNL     1      12.565  19.748  -2.897  0.00  0.00    +0.000 C 
BRANCH   9  10
ATOM     10  C   UNL     1      12.764  18.413  -2.139  0.00  0.00    +0.000 C 
ATOM     11  C   UNL     1      11.987  17.285  -2.807  0.00  0.00    +0.000 C 
BRANCH  10  12
ATOM     12  O   UNL     1      14.149  18.040  -2.108  0.00  0.00    +0.000 OA
ATOM     13  H   UNL     1      14.221  17.184  -1.655  0.00  0.00    +0.000 HD
ENDBRANCH  10  12
ENDBRANCH   9  10
ENDBRANCH   1   9
BRANCH   1  14
ATOM     14  C   UNL     1      10.673  21.131  -3.773  0.00  0.00    +0.000 C 
BRANCH  14  15
ATOM     15  C   UNL     1      10.061  20.203  -4.850  0.00  0.00    +0.000 C 
ATOM     16  C   UNL     1       9.182  19.103  -4.265  0.00  0.00    +0.000 C 
BRANCH  15  17
ATOM     17  O   UNL     1       9.283  20.935  -5.796  0.00  0.00    +0.000 OA
ATOM     18  H   UNL     1       9.826  20.954  -6.609  0.00  0.00    +0.000 HD
ENDBRANCH  15  17
ENDBRANCH  14  15
ENDBRANCH   1  14
TORSDOF 7
ENDMDL
MODEL 5
REMARK VINA RESULT:    -4.977      9.707     11.359
REMARK INTER + INTRA:          -6.730
REMARK INTER:                  -6.316
REMARK INTRA:                  -0.414
REMARK UNBOUND:                -0.008
REMARK  Name = 
REMARK  10 active torsions:
REMARK  status: ('A' for Active; 'I' for Inactive)
REMARK    1  A    between atoms: C_1  and  C_2
REMARK    2  A    between atoms: C_5  and  N_8
REMARK    3  A    between atoms: N_8  and  C_9
REMARK    4  A    between atoms: N_8  and  C_13
REMARK    5  A    between atoms: C_9  and  C_10
REMARK    6  A    between atoms: C_10  and  C_11
REMARK    7  A    between atoms: C_10  and  O_12
REMARK    8  A    between atoms: C_13  and  C_14
REMARK    9  A    between atoms: C_14  and  C_15
REMARK   10  A    between atoms: C_14  and  O_16
REMARK                            x       y       z     vdW  Elec       q    Type
REMARK                         _______ _______ _______ _____ _____    ______ ____
ROOT
ATOM      1  N   UNL     1      10.568  20.512  -2.179  0.00  0.00    +0.000 N 
ENDROOT
BRANCH   1   6
ATOM      2  C   UNL     1      15.793  18.076  -2.480  0.00  0.00    +0.000 C 
ATOM      3  C   UNL     1      14.438  18.706  -2.377  0.00  0.00    +0.000 A 
ATOM      4  C   UNL     1      13.283  17.934  -2.454  0.00  0.00    +0.000 A 
ATOM      5  C   UNL     1      12.015  18.533  -2.387  0.00  0.00    +0.000 A 
ATOM      6  C   UNL     1      11.835  19.923  -2.265  0.00  0.00    +0.000 A 
ATOM      7  C   UNL     1      13.024  20.672  -2.188  0.00  0.00    +0.000 A 
ATOM      8  C   UNL     1      14.298  20.085  -2.251  0.00  0.00    +0.000 A 
ENDBRANCH   1   6
BRANCH   1   9
ATOM      9  C   UNL     1      10.234  21.395  -1.035  0.00  0.00    +0.000 C 
BRANCH   9  10
ATOM     10  C   UNL     1       9.039  20.872  -0.201  0.00  0.00    +0.000 C 
ATOM     11  C   UNL     1       9.516  20.270   1.115  0.00  0.00    +0.000 C 
BRANCH  10  12
ATOM     12  O   UNL     1       8.120  21.931   0.102  0.00  0.00    +0.000 OA
ATOM     13  H   UNL     1       7.379  21.875  -0.525  0.00  0.00    +0.000 HD
ENDBRANCH  10  12
ENDBRANCH   9  10
ENDBRANCH   1   9
BRANCH   1  14
ATOM     14  C   UNL     1       9.395  19.919  -2.872  0.00  0.00    +0.000 C 
BRANCH  14  15
ATOM     15  C   UNL     1       9.434  20.163  -4.399  0.00  0.00    +0.000 C 
ATOM     16  C   UNL     1      10.269  21.376  -4.792  0.00  0.00    +0.000 C 
BRANCH  15  17
ATOM     17  O   UNL     1       9.944  19.030  -5.101  0.00  0.00    +0.000 OA
ATOM     18  H   UNL     1      10.435  19.403  -5.861  0.00  0.00    +0.000 HD
ENDBRANCH  15  17
ENDBRANCH  14  15
ENDBRANCH   1  14
TORSDOF 7
ENDMDL
MODEL 6
REMARK VINA RESULT:    -4.945     10.038     12.053
REMARK INTER + INTRA:          -6.687
REMARK INTER:                  -5.896
REMARK INTRA:                  -0.791
REMARK UNBOUND:                -0.008
REMARK  Name = 
REMARK  10 active torsions:
REMARK  status: ('A' for Active; 'I' for Inactive)
REMARK    1  A    between atoms: C_1  and  C_2
REMARK    2  A    between atoms: C_5  and  N_8
REMARK    3  A    between atoms: N_8  and  C_9
REMARK    4  A    between atoms: N_8  and  C_13
REMARK    5  A    between atoms: C_9  and  C_10
REMARK    6  A    between atoms: C_10  and  C_11
REMARK    7  A    between atoms: C_10  and  O_12
REMARK    8  A    between atoms: C_13  and  C_14
REMARK    9  A    between atoms: C_14  and  C_15
REMARK   10  A    between atoms: C_14  and  O_16
REMARK                            x       y       z     vdW  Elec       q    Type
REMARK                         _______ _______ _______ _____ _____    ______ ____
ROOT
ATOM      1  N   UNL     1      11.590  20.824  -3.391  0.00  0.00    +0.000 N 
ENDROOT
BRANCH   1   6
ATOM      2  C   UNL     1       9.200  21.030   1.860  0.00  0.00    +0.000 C 
ATOM      3  C   UNL     1       9.835  20.958   0.505  0.00  0.00    +0.000 A 
ATOM      4  C   UNL     1      10.924  21.762   0.183  0.00  0.00    +0.000 A 
ATOM      5  C   UNL     1      11.496  21.712  -1.098  0.00  0.00    +0.000 A 
ATOM      6  C   UNL     1      11.002  20.883  -2.121  0.00  0.00    +0.000 A 
ATOM      7  C   UNL     1       9.902  20.083  -1.759  0.00  0.00    +0.000 A 
ATOM      8  C   UNL     1       9.322  20.122  -0.481  0.00  0.00    +0.000 A 
ENDBRANCH   1   6
BRANCH   1   9
ATOM      9  C   UNL     1      12.917  20.187  -3.567  0.00  0.00    +0.000 C 
BRANCH   9  10
ATOM     10  C   UNL     1      12.824  18.655  -3.776  0.00  0.00    +0.000 C 
ATOM     11  C   UNL     1      12.932  17.916  -2.448  0.00  0.00    +0.000 C 
BRANCH  10  12
ATOM     12  O   UNL     1      11.577  18.294  -4.386  0.00  0.00    +0.000 OA
ATOM     13  H   UNL     1      10.987  17.961  -3.690  0.00  0.00    +0.000 HD
ENDBRANCH  10  12
ENDBRANCH   9  10
ENDBRANCH   1   9
BRANCH   1  14
ATOM     14  C   UNL     1      11.212  21.786  -4.458  0.00  0.00    +0.000 C 
BRANCH  14  15
ATOM     15  C   UNL     1       9.856  21.430  -5.112  0.00  0.00    +0.000 C 
ATOM     16  C   UNL     1       9.681  22.038  -6.499  0.00  0.00    +0.000 C 
BRANCH  15  17
ATOM     17  O   UNL     1       9.677  20.019  -5.223  0.00  0.00    +0.000 OA
ATOM     18  H   UNL     1       8.727  19.899  -5.422  0.00  0.00    +0.000 HD
ENDBRANCH  15  17
ENDBRANCH  14  15
ENDBRANCH   1  14
TORSDOF 7
ENDMDL
MODEL 7
REMARK VINA RESULT:    -4.912      9.676     11.973
REMARK INTER + INTRA:          -6.643
REMARK INTER:                  -6.199
REMARK INTRA:                  -0.444
REMARK UNBOUND:                -0.008
REMARK  Name = 
REMARK  10 active torsions:
REMARK  status: ('A' for Active; 'I' for Inactive)
REMARK    1  A    between atoms: C_1  and  C_2
REMARK    2  A    between atoms: C_5  and  N_8
REMARK    3  A    between atoms: N_8  and  C_9
REMARK    4  A    between atoms: N_8  and  C_13
REMARK    5  A    between atoms: C_9  and  C_10
REMARK    6  A    between atoms: C_10  and  C_11
REMARK    7  A    between atoms: C_10  and  O_12
REMARK    8  A    between atoms: C_13  and  C_14
REMARK    9  A    between atoms: C_14  and  C_15
REMARK   10  A    between atoms: C_14  and  O_16
REMARK                            x       y       z     vdW  Elec       q    Type
REMARK                         _______ _______ _______ _____ _____    ______ ____
ROOT
ATOM      1  N   UNL     1      11.143  20.652  -2.181  0.00  0.00    +0.000 N 
ENDROOT
BRANCH   1   6
ATOM      2  C   UNL     1      16.232  17.958  -2.603  0.00  0.00    +0.000 C 
ATOM      3  C   UNL     1      14.912  18.654  -2.469  0.00  0.00    +0.000 A 
ATOM      4  C   UNL     1      13.719  17.947  -2.569  0.00  0.00    +0.000 A 
ATOM      5  C   UNL     1      12.484  18.609  -2.472  0.00  0.00    +0.000 A 
ATOM      6  C   UNL     1      12.378  20.001  -2.296  0.00  0.00    +0.000 A 
ATOM      7  C   UNL     1      13.605  20.683  -2.197  0.00  0.00    +0.000 A 
ATOM      8  C   UNL     1      14.846  20.033  -2.290  0.00  0.00    +0.000 A 
ENDBRANCH   1   6
BRANCH   1   9
ATOM      9  C   UNL     1      10.501  21.244  -3.379  0.00  0.00    +0.000 C 
BRANCH   9  10
ATOM     10  C   UNL     1      10.007  20.177  -4.386  0.00  0.00    +0.000 C 
ATOM     11  C   UNL     1       9.030  19.213  -3.723  0.00  0.00    +0.000 C 
BRANCH  10  12
ATOM     12  O   UNL     1       9.342  20.788  -5.500  0.00  0.00    +0.000 OA
ATOM     13  H   UNL     1       8.783  20.116  -5.923  0.00  0.00    +0.000 HD
ENDBRANCH  10  12
ENDBRANCH   9  10
ENDBRANCH   1   9
BRANCH   1  14
ATOM     14  C   UNL     1      10.691  21.219  -0.885  0.00  0.00    +0.000 C 
BRANCH  14  15
ATOM     15  C   UNL     1       9.330  20.635  -0.435  0.00  0.00    +0.000 C 
ATOM     16  C   UNL     1       9.422  19.825   0.854  0.00  0.00    +0.000 C 
BRANCH  15  17
ATOM     17  O   UNL     1       8.355  21.658  -0.245  0.00  0.00    +0.000 OA
ATOM     18  H   UNL     1       8.132  21.622   0.707  0.00  0.00    +0.000 HD
ENDBRANCH  15  17
ENDBRANCH  14  15
ENDBRANCH   1  14
TORSDOF 7
ENDMDL
MODEL 8
REMARK VINA RESULT:    -4.792     10.133     11.945
REMARK INTER + INTRA:          -6.481
REMARK INTER:                  -5.989
REMARK INTRA:                  -0.492
REMARK UNBOUND:                -0.008
REMARK  Name = 
REMARK  10 active torsions:
REMARK  status: ('A' for Active; 'I' for Inactive)
REMARK    1  A    between atoms: C_1  and  C_2
REMARK    2  A    between atoms: C_5  and  N_8
REMARK    3  A    between atoms: N_8  and  C_9
REMARK    4  A    between atoms: N_8  and  C_13
REMARK    5  A    between atoms: C_9  and  C_10
REMARK    6  A    between atoms: C_10  and  C_11
REMARK    7  A    between atoms: C_10  and  O_12
REMARK    8  A    between atoms: C_13  and  C_14
REMARK    9  A    between atoms: C_14  and  C_15
REMARK   10  A    between atoms: C_14  and  O_16
REMARK                            x       y       z     vdW  Elec       q    Type
REMARK                         _______ _______ _______ _____ _____    ______ ____
ROOT
ATOM      1  N   UNL     1      11.530  19.464  -2.880  0.00  0.00    +0.000 N 
ENDROOT
BRANCH   1   6
ATOM      2  C   UNL     1       9.517  21.850   1.977  0.00  0.00    +0.000 C 
ATOM      3  C   UNL     1      10.025  21.247   0.703  0.00  0.00    +0.000 A 
ATOM      4  C   UNL     1       9.384  20.158   0.122  0.00  0.00    +0.000 A 
ATOM      5  C   UNL     1       9.882  19.578  -1.056  0.00  0.00    +0.000 A 
ATOM      6  C   UNL     1      11.049  20.035  -1.695  0.00  0.00    +0.000 A 
ATOM      7  C   UNL     1      11.670  21.138  -1.081  0.00  0.00    +0.000 A 
ATOM      8  C   UNL     1      11.181  21.729   0.096  0.00  0.00    +0.000 A 
ENDBRANCH   1   6
BRANCH   1   9
ATOM      9  C   UNL     1      10.677  19.441  -4.093  0.00  0.00    +0.000 C 
BRANCH   9  10
ATOM     10  C   UNL     1      10.150  20.844  -4.483  0.00  0.00    +0.000 C 
ATOM     11  C   UNL     1      11.302  21.803  -4.757  0.00  0.00    +0.000 C 
BRANCH  10  12
ATOM     12  O   UNL     1       9.336  20.779  -5.662  0.00  0.00    +0.000 OA
ATOM     13  H   UNL     1       8.596  21.399  -5.552  0.00  0.00    +0.000 HD
ENDBRANCH  10  12
ENDBRANCH   9  10
ENDBRANCH   1   9
BRANCH   1  14
ATOM     14  C   UNL     1      12.615  18.450  -2.860  0.00  0.00    +0.000 C 
BRANCH  14  15
ATOM     15  C   UNL     1      14.014  19.088  -3.030  0.00  0.00    +0.000 C 
ATOM     16  C   UNL     1      15.147  18.182  -2.562  0.00  0.00    +0.000 C 
BRANCH  15  17
ATOM     17  O   UNL     1      14.268  19.447  -4.387  0.00  0.00    +0.000 OA
ATOM     18  H   UNL     1      14.549  18.616  -4.821  0.00  0.00    +0.000 HD
ENDBRANCH  15  17
ENDBRANCH  14  15
ENDBRANCH   1  14
TORSDOF 7
ENDMDL
MODEL 9
REMARK VINA RESULT:    -4.715     11.063     13.152
REMARK INTER + INTRA:          -6.376
REMARK INTER:                  -5.986
REMARK INTRA:                  -0.390
REMARK UNBOUND:                -0.008
REMARK  Name = 
REMARK  10 active torsions:
REMARK  status: ('A' for Active; 'I' for Inactive)
REMARK    1  A    between atoms: C_1  and  C_2
REMARK    2  A    between atoms: C_5  and  N_8
REMARK    3  A    between atoms: N_8  and  C_9
REMARK    4  A    between atoms: N_8  and  C_13
REMARK    5  A    between atoms: C_9  and  C_10
REMARK    6  A    between atoms: C_10  and  C_11
REMARK    7  A    between atoms: C_10  and  O_12
REMARK    8  A    between atoms: C_13  and  C_14
REMARK    9  A    between atoms: C_14  and  C_15
REMARK   10  A    between atoms: C_14  and  O_16
REMARK                            x       y       z     vdW  Elec       q    Type
REMARK                         _______ _______ _______ _____ _____    ______ ____
ROOT
ATOM      1  N   UNL     1      14.202  19.281  -2.956  0.00  0.00    +0.000 N 
ENDROOT
BRANCH   1   6
ATOM      2  C   UNL     1       8.667  17.865  -3.780  0.00  0.00    +0.000 C 
ATOM      3  C   UNL     1      10.108  18.224  -3.589  0.00  0.00    +0.000 A 
ATOM      4  C   UNL     1      10.993  17.332  -2.993  0.00  0.00    +0.000 A 
ATOM      5  C   UNL     1      12.337  17.685  -2.789  0.00  0.00    +0.000 A 
ATOM      6  C   UNL     1      12.856  18.943  -3.145  0.00  0.00    +0.000 A 
ATOM      7  C   UNL     1      11.934  19.818  -3.747  0.00  0.00    +0.000 A 
ATOM      8  C   UNL     1      10.588  19.477  -3.959  0.00  0.00    +0.000 A 
ENDBRANCH   1   6
BRANCH   1   9
ATOM      9  C   UNL     1      14.876  20.205  -3.900  0.00  0.00    +0.000 C 
BRANCH   9  10
ATOM     10  C   UNL     1      15.158  21.596  -3.280  0.00  0.00    +0.000 C 
ATOM     11  C   UNL     1      14.593  21.688  -1.867  0.00  0.00    +0.000 C 
BRANCH  10  12
ATOM     12  O   UNL     1      16.567  21.853  -3.213  0.00  0.00    +0.000 OA
ATOM     13  H   UNL     1      16.976  21.153  -2.678  0.00  0.00    +0.000 HD
ENDBRANCH  10  12
ENDBRANCH   9  10
ENDBRANCH   1   9
BRANCH   1  14
ATOM     14  C   UNL     1      15.117  18.398  -2.187  0.00  0.00    +0.000 C 
BRANCH  14  15
ATOM     15  C   UNL     1      16.485  18.223  -2.888  0.00  0.00    +0.000 C 
ATOM     16  C   UNL     1      17.662  18.655  -2.021  0.00  0.00    +0.000 C 
BRANCH  15  17
ATOM     17  O   UNL     1      16.704  16.871  -3.287  0.00  0.00    +0.000 OA
ATOM     18  H   UNL     1      16.649  16.883  -4.263  0.00  0.00    +0.000 HD
ENDBRANCH  15  17
ENDBRANCH  14  15
ENDBRANCH   1  14
TORSDOF 7
ENDMDL
