MODEL 1
REMARK VINA RESULT:    -5.022      0.000      0.000
REMARK INTER + INTRA:          -5.503
REMARK INTER:                  -5.462
REMARK INTRA:                  -0.041
REMARK UNBOUND:                -0.041
REMARK  Name = 
REMARK  3 active torsions:
REMARK  status: ('A' for Active; 'I' for Inactive)
REMARK    1  A    between atoms: C_1  and  O_2
REMARK    2  A    between atoms: O_2  and  C_3
REMARK    3  A    between atoms: C_8  and  O_9
REMARK                            x       y       z     vdW  Elec       q    Type
REMARK                         _______ _______ _______ _____ _____    ______ ____
ROOT
ATOM      1  C   UNL     1       3.546  13.812   0.045  0.00  0.00    +0.000 A 
ATOM      2  C   UNL     1       4.800  14.422   0.049  0.00  0.00    +0.000 A 
ATOM      3  C   UNL     1       5.203  15.198  -1.045  0.00  0.00    +0.000 A 
ATOM      4  C   UNL     1       4.359  15.366  -2.144  0.00  0.00    +0.000 A 
ATOM      5  C   UNL     1       3.105  14.760  -2.155  0.00  0.00    +0.000 A 
ATOM      6  C   UNL     1       2.713  13.992  -1.066  0.00  0.00    +0.000 A 
ENDROOT
BRANCH   1   8
ATOM      7  C   UNL     1       3.460  13.309   2.366  0.00  0.00    +0.000 C 
ATOM      8  O   UNL     1       3.023  13.028   1.042  0.00  0.00    +0.000 OA
ENDBRANCH   1   8
BRANCH   6   9
ATOM      9  O   UNL     1       1.475  13.406  -1.100  0.00  0.00    +0.000 OA
ATOM     10  H   UNL     1       0.855  14.145  -1.249  0.00  0.00    +0.000 HD
ENDBRANCH   6   9
TORSDOF 2
ENDMDL
MODEL 2
REMARK VINA RESULT:    -4.973      1.342      2.345
REMARK INTER + INTRA:          -5.451
REMARK INTER:                  -5.417
REMARK INTRA:                  -0.034
REMARK UNBOUND:                -0.041
REMARK  Name = 
REMARK  3 active torsions:
REMARK  status: ('A' for Active; 'I' for Inactive)
REMARK    1  A    between atoms: C_1  and  O_2
REMARK    2  A    between atoms: O_2  and  C_3
REMARK    3  A    between atoms: C_8  and  O_9
REMARK                            x       y       z     vdW  Elec       q    Type
REMARK                         _______ _______ _______ _____ _____    ______ ____
ROOT
ATOM      1  C   UNL     1       3.723  13.237   0.296  0.00  0.00    +0.000 A 
ATOM      2  C   UNL     1       2.631  13.751  -0.402  0.00  0.00    +0.000 A 
ATOM      3  C   UNL     1       2.836  14.604  -1.494  0.00  0.00    +0.000 A 
ATOM      4  C   UNL     1       4.131  14.946  -1.890  0.00  0.00    +0.000 A 
ATOM      5  C   UNL     1       5.227  14.437  -1.198  0.00  0.00    +0.000 A 
ATOM      6  C   UNL     1       5.013  13.592  -0.117  0.00  0.00    +0.000 A 
ENDROOT
BRANCH   1   8
ATOM      7  C   UNL     1       3.342  12.990   2.628  0.00  0.00    +0.000 C 
ATOM      8  O   UNL     1       3.671  12.396   1.378  0.00  0.00    +0.000 OA
ENDBRANCH   1   8
BRANCH   6   9
ATOM      9  O   UNL     1       6.106  13.104   0.548  0.00  0.00    +0.000 OA
ATOM     10  H   UNL     1       5.992  12.134   0.535  0.00  0.00    +0.000 HD
ENDBRANCH   6   9
TORSDOF 2
ENDMDL
MODEL 3
REMARK VINA RESULT:    -4.936      1.374      3.173
REMARK INTER + INTRA:          -5.410
REMARK INTER:                  -5.361
REMARK INTRA:                  -0.049
REMARK UNBOUND:                -0.041
REMARK  Name = 
REMARK  3 active torsions:
REMARK  status: ('A' for Active; 'I' for Inactive)
REMARK    1  A    between atoms: C_1  and  O_2
REMARK    2  A    between atoms: O_2  and  C_3
REMARK    3  A    between atoms: C_8  and  O_9
REMARK                            x       y       z     vdW  Elec       q    Type
REMARK                         _______ _______ _______ _____ _____    ______ ____
ROOT
ATOM      1  C   UNL     1       4.411  13.931  -0.563  0.00  0.00    +0.000 A 
ATOM      2  C   UNL     1       5.560  14.038   0.219  0.00  0.00    +0.000 A 
ATOM      3  C   UNL     1       5.520  13.682   1.574  0.00  0.00    +0.000 A 
ATOM      4  C   UNL     1       4.335  13.221   2.150  0.00  0.00    +0.000 A 
ATOM      5  C   UNL     1       3.183  13.111   1.375  0.00  0.00    +0.000 A 
ATOM      6  C   UNL     1       3.232  13.466   0.032  0.00  0.00    +0.000 A 
ENDROOT
BRANCH   1   8
ATOM      7  C   UNL     1       4.339  15.625  -2.228  0.00  0.00    +0.000 C 
ATOM      8  O   UNL     1       4.304  14.242  -1.895  0.00  0.00    +0.000 OA
ENDBRANCH   1   8
BRANCH   6   9
ATOM      9  O   UNL     1       2.086  13.349  -0.709  0.00  0.00    +0.000 OA
ATOM     10  H   UNL     1       1.859  12.400  -0.668  0.00  0.00    +0.000 HD
ENDBRANCH   6   9
TORSDOF 2
ENDMDL
MODEL 4
REMARK VINA RESULT:    -4.914      1.342      2.013
REMARK INTER + INTRA:          -5.386
REMARK INTER:                  -5.366
REMARK INTRA:                  -0.020
REMARK UNBOUND:                -0.041
REMARK  Name = 
REMARK  3 active torsions:
REMARK  status: ('A' for Active; 'I' for Inactive)
REMARK    1  A    between atoms: C_1  and  O_2
REMARK    2  A    between atoms: O_2  and  C_3
REMARK    3  A    between atoms: C_8  and  O_9
REMARK                            x       y       z     vdW  Elec       q    Type
REMARK                         _______ _______ _______ _____ _____    ______ ____
ROOT
ATOM      1  C   UNL     1       4.657  13.844  -0.392  0.00  0.00    +0.000 A 
ATOM      2  C   UNL     1       4.904  14.746  -1.426  0.00  0.00    +0.000 A 
ATOM      3  C   UNL     1       3.859  15.153  -2.264  0.00  0.00    +0.000 A 
ATOM      4  C   UNL     1       2.566  14.660  -2.074  0.00  0.00    +0.000 A 
ATOM      5  C   UNL     1       2.311  13.759  -1.044  0.00  0.00    +0.000 A 
ATOM      6  C   UNL     1       3.354  13.360  -0.217  0.00  0.00    +0.000 A 
ENDROOT
BRANCH   1   8
ATOM      7  C   UNL     1       5.908  14.207   1.595  0.00  0.00    +0.000 C 
ATOM      8  O   UNL     1       5.580  13.360   0.501  0.00  0.00    +0.000 OA
ENDBRANCH   1   8
BRANCH   6   9
ATOM      9  O   UNL     1       3.079  12.473   0.789  0.00  0.00    +0.000 OA
ATOM     10  H   UNL     1       2.559  11.766   0.362  0.00  0.00    +0.000 HD
ENDBRANCH   6   9
TORSDOF 2
ENDMDL
MODEL 5
REMARK VINA RESULT:    -4.824      1.812      3.250
REMARK INTER + INTRA:          -5.288
REMARK INTER:                  -5.238
REMARK INTRA:                  -0.051
REMARK UNBOUND:                -0.041
REMARK  Name = 
REMARK  3 active torsions:
REMARK  status: ('A' for Active; 'I' for Inactive)
REMARK    1  A    between atoms: C_1  and  O_2
REMARK    2  A    between atoms: O_2  and  C_3
REMARK    3  A    between atoms: C_8  and  O_9
REMARK                            x       y       z     vdW  Elec       q    Type
REMARK                         _______ _______ _______ _____ _____    ______ ____
ROOT
ATOM      1  C   UNL     1       3.237  14.097  -0.613  0.00  0.00    +0.000 A 
ATOM      2  C   UNL     1       2.984  13.373   0.551  0.00  0.00    +0.000 A 
ATOM      3  C   UNL     1       4.039  12.758   1.236  0.00  0.00    +0.000 A 
ATOM      4  C   UNL     1       5.348  12.863   0.762  0.00  0.00    +0.000 A 
ATOM      5  C   UNL     1       5.609  13.585  -0.401  0.00  0.00    +0.000 A 
ATOM      6  C   UNL     1       4.556  14.192  -1.074  0.00  0.00    +0.000 A 
ENDROOT
BRANCH   1   8
ATOM      7  C   UNL     1       1.221  13.963  -1.864  0.00  0.00    +0.000 C 
ATOM      8  O   UNL     1       2.306  14.747  -1.383  0.00  0.00    +0.000 OA
ENDBRANCH   1   8
BRANCH   6   9
ATOM      9  O   UNL     1       4.838  14.896  -2.214  0.00  0.00    +0.000 OA
ATOM     10  H   UNL     1       5.678  15.355  -2.021  0.00  0.00    +0.000 HD
ENDBRANCH   6   9
TORSDOF 2
ENDMDL
MODEL 6
REMARK VINA RESULT:    -4.798      2.795      3.196
REMARK INTER + INTRA:          -5.260
REMARK INTER:                  -5.210
REMARK INTRA:                  -0.049
REMARK UNBOUND:                -0.041
REMARK  Name = 
REMARK  3 active torsions:
REMARK  status: ('A' for Active; 'I' for Inactive)
REMARK    1  A    between atoms: C_1  and  O_2
REMARK    2  A    between atoms: O_2  and  C_3
REMARK    3  A    between atoms: C_8  and  O_9
REMARK                            x       y       z     vdW  Elec       q    Type
REMARK                         _______ _______ _______ _____ _____    ______ ____
ROOT
ATOM      1  C   UNL     1       4.160  12.744   2.157  0.00  0.00    +0.000 A 
ATOM      2  C   UNL     1       4.836  13.841   1.626  0.00  0.00    +0.000 A 
ATOM      3  C   UNL     1       5.463  13.739   0.377  0.00  0.00    +0.000 A 
ATOM      4  C   UNL     1       5.418  12.544  -0.342  0.00  0.00    +0.000 A 
ATOM      5  C   UNL     1       4.744  11.443   0.183  0.00  0.00    +0.000 A 
ATOM      6  C   UNL     1       4.125  11.553   1.421  0.00  0.00    +0.000 A 
ENDROOT
BRANCH   1   8
ATOM      7  C   UNL     1       4.320  12.694   4.528  0.00  0.00    +0.000 C 
ATOM      8  O   UNL     1       3.505  12.700   3.362  0.00  0.00    +0.000 OA
ENDBRANCH   1   8
BRANCH   6   9
ATOM      9  O   UNL     1       3.469  10.457   1.916  0.00  0.00    +0.000 OA
ATOM     10  H   UNL     1       3.989  10.189   2.698  0.00  0.00    +0.000 HD
ENDBRANCH   6   9
TORSDOF 2
ENDMDL
MODEL 7
REMARK VINA RESULT:    -4.732      1.896      2.551
REMARK INTER + INTRA:          -5.188
REMARK INTER:                  -5.144
REMARK INTRA:                  -0.044
REMARK UNBOUND:                -0.041
REMARK  Name = 
REMARK  3 active torsions:
REMARK  status: ('A' for Active; 'I' for Inactive)
REMARK    1  A    between atoms: C_1  and  O_2
REMARK    2  A    between atoms: O_2  and  C_3
REMARK    3  A    between atoms: C_8  and  O_9
REMARK                            x       y       z     vdW  Elec       q    Type
REMARK                         _______ _______ _______ _____ _____    ______ ____
ROOT
ATOM      1  C   UNL     1       4.104  14.011   0.703  0.00  0.00    +0.000 A 
ATOM      2  C   UNL     1       3.118  13.262   0.062  0.00  0.00    +0.000 A 
ATOM      3  C   UNL     1       2.407  13.813  -1.011  0.00  0.00    +0.000 A 
ATOM      4  C   UNL     1       2.678  15.111  -1.447  0.00  0.00    +0.000 A 
ATOM      5  C   UNL     1       3.662  15.866  -0.813  0.00  0.00    +0.000 A 
ATOM      6  C   UNL     1       4.362  15.311   0.252  0.00  0.00    +0.000 A 
ENDROOT
BRANCH   1   8
ATOM      7  C   UNL     1       4.214  12.849   2.773  0.00  0.00    +0.000 C 
ATOM      8  O   UNL     1       4.874  13.601   1.762  0.00  0.00    +0.000 OA
ENDBRANCH   1   8
BRANCH   6   9
ATOM      9  O   UNL     1       5.324  16.073   0.860  0.00  0.00    +0.000 OA
ATOM     10  H   UNL     1       4.830  16.788   1.305  0.00  0.00    +0.000 HD
ENDBRANCH   6   9
TORSDOF 2
ENDMDL
MODEL 8
REMARK VINA RESULT:    -4.645      1.825      3.861
REMARK INTER + INTRA:          -5.093
REMARK INTER:                  -5.051
REMARK INTRA:                  -0.042
REMARK UNBOUND:                -0.041
REMARK  Name = 
REMARK  3 active torsions:
REMARK  status: ('A' for Active; 'I' for Inactive)
REMARK    1  A    between atoms: C_1  and  O_2
REMARK    2  A    between atoms: O_2  and  C_3
REMARK    3  A    between atoms: C_8  and  O_9
REMARK                            x       y       z     vdW  Elec       q    Type
REMARK                         _______ _______ _______ _____ _____    ______ ____
ROOT
ATOM      1  C   UNL     1       4.284  13.423  -0.020  0.00  0.00    +0.000 A 
ATOM      2  C   UNL     1       3.558  14.269   0.818  0.00  0.00    +0.000 A 
ATOM      3  C   UNL     1       3.183  13.836   2.095  0.00  0.00    +0.000 A 
ATOM      4  C   UNL     1       3.529  12.558   2.540  0.00  0.00    +0.000 A 
ATOM      5  C   UNL     1       4.254  11.707   1.709  0.00  0.00    +0.000 A 
ATOM      6  C   UNL     1       4.622  12.145   0.443  0.00  0.00    +0.000 A 
ENDROOT
BRANCH   1   8
ATOM      7  C   UNL     1       3.870  14.547  -2.072  0.00  0.00    +0.000 C 
ATOM      8  O   UNL     1       4.716  13.712  -1.289  0.00  0.00    +0.000 OA
ENDBRANCH   1   8
BRANCH   6   9
ATOM      9  O   UNL     1       5.334  11.290  -0.355  0.00  0.00    +0.000 OA
ATOM     10  H   UNL     1       5.383  11.741  -1.220  0.00  0.00    +0.000 HD
ENDBRANCH   6   9
TORSDOF 2
ENDMDL
MODEL 9
REMARK VINA RESULT:    -4.628      2.071      2.858
REMARK INTER + INTRA:          -5.074
REMARK INTER:                  -5.022
REMARK INTRA:                  -0.053
REMARK UNBOUND:                -0.041
REMARK  Name = 
REMARK  3 active torsions:
REMARK  status: ('A' for Active; 'I' for Inactive)
REMARK    1  A    between atoms: C_1  and  O_2
REMARK    2  A    between atoms: O_2  and  C_3
REMARK    3  A    between atoms: C_8  and  O_9
REMARK                            x       y       z     vdW  Elec       q    Type
REMARK                         _______ _______ _______ _____ _____    ______ ____
ROOT
ATOM      1  C   UNL     1       4.745  12.355   0.711  0.00  0.00    +0.000 A 
ATOM      2  C   UNL     1       5.435  13.031  -0.294  0.00  0.00    +0.000 A 
ATOM      3  C   UNL     1       5.160  14.382  -0.545  0.00  0.00    +0.000 A 
ATOM      4  C   UNL     1       4.197  15.059   0.204  0.00  0.00    +0.000 A 
ATOM      5  C   UNL     1       3.503  14.390   1.211  0.00  0.00    +0.000 A 
ATOM      6  C   UNL     1       3.782  13.051   1.452  0.00  0.00    +0.000 A 
ENDROOT
BRANCH   1   8
ATOM      7  C   UNL     1       4.545  10.070   0.089  0.00  0.00    +0.000 C 
ATOM      8  O   UNL     1       4.910  11.040   1.064  0.00  0.00    +0.000 OA
ENDBRANCH   1   8
BRANCH   6   9
ATOM      9  O   UNL     1       3.088  12.415   2.446  0.00  0.00    +0.000 OA
ATOM     10  H   UNL     1       3.578  12.623   3.264  0.00  0.00    +0.000 HD
ENDBRANCH   6   9
TORSDOF 2
ENDMDL
