MODEL 1
REMARK VINA RESULT:    -5.673      0.000      0.000
REMARK INTER + INTRA:          -7.679
REMARK INTER:                  -7.663
REMARK INTRA:                  -0.015
REMARK UNBOUND:                -0.015
REMARK  Name = 
REMARK  10 active torsions:
REMARK  status: ('A' for Active; 'I' for Inactive)
REMARK    1  A    between atoms: C_1  and  C_2
REMARK    2  A    between atoms: C_5  and  N_8
REMARK    3  A    between atoms: N_8  and  C_9
REMARK    4  A    between atoms: N_8  and  C_13
REMARK    5  A    between atoms: C_9  and  C_10
REMARK    6  A    between atoms: C_10  and  C_11
REMARK    7  A    between atoms: C_10  and  O_12
REMARK    8  A    between atoms: C_13  and  C_14
REMARK    9  A    between atoms: C_14  and  C_15
REMARK   10  A    between atoms: C_14  and  O_16
REMARK                            x       y       z     vdW  Elec       q    Type
REMARK                         _______ _______ _______ _____ _____    ______ ____
ROOT
ATOM      1  N   UNL     1       3.403  13.212   2.132  0.00  0.00    +0.000 N 
ENDROOT
BRANCH   1   6
ATOM      2  C   UNL     1       4.469  16.123  -2.738  0.00  0.00    +0.000 C 
ATOM      3  C   UNL     1       4.205  15.348  -1.484  0.00  0.00    +0.000 A 
ATOM      4  C   UNL     1       3.037  14.607  -1.335  0.00  0.00    +0.000 A 
ATOM      5  C   UNL     1       2.781  13.907  -0.145  0.00  0.00    +0.000 A 
ATOM      6  C   UNL     1       3.656  13.929   0.955  0.00  0.00    +0.000 A 
ATOM      7  C   UNL     1       4.827  14.686   0.769  0.00  0.00    +0.000 A 
ATOM      8  C   UNL     1       5.097  15.390  -0.417  0.00  0.00    +0.000 A 
ENDBRANCH   1   6
BRANCH   1   9
ATOM      9  C   UNL     1       2.760  13.883   3.287  0.00  0.00    +0.000 C 
BRANCH   9  10
ATOM     10  C   UNL     1       2.477  12.915   4.462  0.00  0.00    +0.000 C 
ATOM     11  C   UNL     1       3.631  12.916   5.458  0.00  0.00    +0.000 C 
BRANCH  10  12
ATOM     12  O   UNL     1       1.284  13.292   5.164  0.00  0.00    +0.000 OA
ATOM     13  H   UNL     1       1.379  13.014   6.090  0.00  0.00    +0.000 HD
ENDBRANCH  10  12
ENDBRANCH   9  10
ENDBRANCH   1   9
BRANCH   1  14
ATOM     14  C   UNL     1       4.180  11.993   2.472  0.00  0.00    +0.000 C 
BRANCH  14  15
ATOM     15  C   UNL     1       3.931  10.842   1.467  0.00  0.00    +0.000 C 
ATOM     16  C   UNL     1       4.862  10.887   0.261  0.00  0.00    +0.000 C 
BRANCH  15  17
ATOM     17  O   UNL     1       4.068   9.564   2.085  0.00  0.00    +0.000 OA
ATOM     18  H   UNL     1       3.974   8.919   1.355  0.00  0.00    +0.000 HD
ENDBRANCH  15  17
ENDBRANCH  14  15
ENDBRANCH   1  14
TORSDOF 7
ENDMDL
MODEL 2
REMARK VINA RESULT:    -5.539      1.219      3.452
REMARK INTER + INTRA:          -7.498
REMARK INTER:                  -7.045
REMARK INTRA:                  -0.453
REMARK UNBOUND:                -0.015
REMARK  Name = 
REMARK  10 active torsions:
REMARK  status: ('A' for Active; 'I' for Inactive)
REMARK    1  A    between atoms: C_1  and  C_2
REMARK    2  A    between atoms: C_5  and  N_8
REMARK    3  A    between atoms: N_8  and  C_9
REMARK    4  A    between atoms: N_8  and  C_13
REMARK    5  A    between atoms: C_9  and  C_10
REMARK    6  A    between atoms: C_10  and  C_11
REMARK    7  A    between atoms: C_10  and  O_12
REMARK    8  A    between atoms: C_13  and  C_14
REMARK    9  A    between atoms: C_14  and  C_15
REMARK   10  A    between atoms: C_14  and  O_16
REMARK                            x       y       z     vdW  Elec       q    Type
REMARK                         _______ _______ _______ _____ _____    ______ ____
ROOT
ATOM      1  N   UNL     1       4.499  12.483   1.878  0.00  0.00    +0.000 N 
ENDROOT
BRANCH   1   6
ATOM      2  C   UNL     1       3.970  15.947  -2.710  0.00  0.00    +0.000 C 
ATOM      3  C   UNL     1       4.110  15.028  -1.535  0.00  0.00    +0.000 A 
ATOM      4  C   UNL     1       2.991  14.455  -0.938  0.00  0.00    +0.000 A 
ATOM      5  C   UNL     1       3.126  13.619   0.182  0.00  0.00    +0.000 A 
ATOM      6  C   UNL     1       4.370  13.333   0.773  0.00  0.00    +0.000 A 
ATOM      7  C   UNL     1       5.479  13.927   0.143  0.00  0.00    +0.000 A 
ATOM      8  C   UNL     1       5.358  14.764  -0.979  0.00  0.00    +0.000 A 
ENDBRANCH   1   6
BRANCH   1   9
ATOM      9  C   UNL     1       3.938  11.111   1.830  0.00  0.00    +0.000 C 
BRANCH   9  10
ATOM     10  C   UNL     1       4.772  10.152   0.945  0.00  0.00    +0.000 C 
ATOM     11  C   UNL     1       5.151   8.892   1.714  0.00  0.00    +0.000 C 
BRANCH  10  12
ATOM     12  O   UNL     1       4.035   9.757  -0.221  0.00  0.00    +0.000 OA
ATOM     13  H   UNL     1       3.537   8.951  -0.003  0.00  0.00    +0.000 HD
ENDBRANCH  10  12
ENDBRANCH   9  10
ENDBRANCH   1   9
BRANCH   1  14
ATOM     14  C   UNL     1       4.707  13.025   3.245  0.00  0.00    +0.000 C 
BRANCH  14  15
ATOM     15  C   UNL     1       3.599  12.575   4.227  0.00  0.00    +0.000 C 
ATOM     16  C   UNL     1       4.005  12.706   5.690  0.00  0.00    +0.000 C 
BRANCH  15  17
ATOM     17  O   UNL     1       2.393  13.313   4.035  0.00  0.00    +0.000 OA
ATOM     18  H   UNL     1       1.764  12.672   3.647  0.00  0.00    +0.000 HD
ENDBRANCH  15  17
ENDBRANCH  14  15
ENDBRANCH   1  14
TORSDOF 7
ENDMDL
MODEL 3
REMARK VINA RESULT:    -5.038     10.031     11.906
REMARK INTER + INTRA:          -6.821
REMARK INTER:                  -6.208
REMARK INTRA:                  -0.614
REMARK UNBOUND:                -0.015
REMARK  Name = 
REMARK  10 active torsions:
REMARK  status: ('A' for Active; 'I' for Inactive)
REMARK    1  A    between atoms: C_1  and  C_2
REMARK    2  A    between atoms: C_5  and  N_8
REMARK    3  A    between atoms: N_8  and  C_9
REMARK    4  A    between atoms: N_8  and  C_13
REMARK    5  A    between atoms: C_9  and  C_10
REMARK    6  A    between atoms: C_10  and  C_11
REMARK    7  A    between atoms: C_10  and  O_12
REMARK    8  A    between atoms: C_13  and  C_14
REMARK    9  A    between atoms: C_14  and  C_15
REMARK   10  A    between atoms: C_14  and  O_16
REMARK                            x       y       z     vdW  Elec       q    Type
REMARK                         _______ _______ _______ _____ _____    ______ ____
ROOT
ATOM      1  N   UNL     1      11.397  20.582  -3.518  0.00  0.00    +0.000 N 
ENDROOT
BRANCH   1   6
ATOM      2  C   UNL     1       9.119  21.486   1.709  0.00  0.00    +0.000 C 
ATOM      3  C   UNL     1       9.725  21.233   0.362  0.00  0.00    +0.000 A 
ATOM      4  C   UNL     1      10.844  21.942  -0.063  0.00  0.00    +0.000 A 
ATOM      5  C   UNL     1      11.389  21.722  -1.338  0.00  0.00    +0.000 A 
ATOM      6  C   UNL     1      10.837  20.810  -2.255  0.00  0.00    +0.000 A 
ATOM      7  C   UNL     1       9.707  20.110  -1.792  0.00  0.00    +0.000 A 
ATOM      8  C   UNL     1       9.153  20.319  -0.518  0.00  0.00    +0.000 A 
ENDBRANCH   1   6
BRANCH   1   9
ATOM      9  C   UNL     1      12.540  19.649  -3.667  0.00  0.00    +0.000 C 
BRANCH   9  10
ATOM     10  C   UNL     1      12.094  18.197  -3.967  0.00  0.00    +0.000 C 
ATOM     11  C   UNL     1      11.769  17.449  -2.679  0.00  0.00    +0.000 C 
BRANCH  10  12
ATOM     12  O   UNL     1      10.925  18.179  -4.798  0.00  0.00    +0.000 OA
ATOM     13  H   UNL     1      10.266  17.601  -4.379  0.00  0.00    +0.000 HD
ENDBRANCH  10  12
ENDBRANCH   9  10
ENDBRANCH   1   9
BRANCH   1  14
ATOM     14  C   UNL     1      11.257  21.576  -4.613  0.00  0.00    +0.000 C 
BRANCH  14  15
ATOM     15  C   UNL     1       9.847  21.549  -5.250  0.00  0.00    +0.000 C 
ATOM     16  C   UNL     1       9.831  22.038  -6.693  0.00  0.00    +0.000 C 
BRANCH  15  17
ATOM     17  O   UNL     1       9.280  20.240  -5.221  0.00  0.00    +0.000 OA
ATOM     18  H   UNL     1       8.719  20.225  -4.419  0.00  0.00    +0.000 HD
ENDBRANCH  15  17
ENDBRANCH  14  15
ENDBRANCH   1  14
TORSDOF 7
ENDMDL
MODEL 4
REMARK VINA RESULT:    -5.018      9.614     11.400
REMARK INTER + INTRA:          -6.794
REMARK INTER:                  -6.350
REMARK INTRA:                  -0.444
REMARK UNBOUND:                -0.015
REMARK  Name = 
REMARK  10 active torsions:
REMARK  status: ('A' for Active; 'I' for Inactive)
REMARK    1  A    between atoms: C_1  and  C_2
REMARK    2  A    between atoms: C_5  and  N_8
REMARK    3  A    between atoms: N_8  and  C_9
REMARK    4  A    between atoms: N_8  and  C_13
REMARK    5  A    between atoms: C_9  and  C_10
REMARK    6  A    between atoms: C_10  and  C_11
REMARK    7  A    between atoms: C_10  and  O_12
REMARK    8  A    between atoms: C_13  and  C_14
REMARK    9  A    between atoms: C_14  and  C_15
REMARK   10  A    between atoms: C_14  and  O_16
REMARK                            x       y       z     vdW  Elec       q    Type
REMARK                         _______ _______ _______ _____ _____    ______ ____
ROOT
ATOM      1  N   UNL     1      10.671  20.426  -2.241  0.00  0.00    +0.000 N 
ENDROOT
BRANCH   1   6
ATOM      2  C   UNL     1      15.945  18.095  -2.508  0.00  0.00    +0.000 C 
ATOM      3  C   UNL     1      14.577  18.696  -2.414  0.00  0.00    +0.000 A 
ATOM      4  C   UNL     1      13.439  17.908  -2.548  0.00  0.00    +0.000 A 
ATOM      5  C   UNL     1      12.159  18.482  -2.489  0.00  0.00    +0.000 A 
ATOM      6  C   UNL     1      11.951  19.863  -2.318  0.00  0.00    +0.000 A 
ATOM      7  C   UNL     1      13.123  20.629  -2.184  0.00  0.00    +0.000 A 
ATOM      8  C   UNL     1      14.410  20.067  -2.239  0.00  0.00    +0.000 A 
ENDBRANCH   1   6
BRANCH   1   9
ATOM      9  C   UNL     1      10.331  21.349  -1.131  0.00  0.00    +0.000 C 
BRANCH   9  10
ATOM     10  C   UNL     1       9.073  20.903  -0.345  0.00  0.00    +0.000 C 
ATOM     11  C   UNL     1       9.456  20.040   0.852  0.00  0.00    +0.000 C 
BRANCH  10  12
ATOM     12  O   UNL     1       8.342  22.037   0.142  0.00  0.00    +0.000 OA
ATOM     13  H   UNL     1       7.405  21.786   0.208  0.00  0.00    +0.000 HD
ENDBRANCH  10  12
ENDBRANCH   9  10
ENDBRANCH   1   9
BRANCH   1  14
ATOM     14  C   UNL     1       9.505  19.778  -2.894  0.00  0.00    +0.000 C 
BRANCH  14  15
ATOM     15  C   UNL     1       9.460  20.052  -4.416  0.00  0.00    +0.000 C 
ATOM     16  C   UNL     1      10.287  21.263  -4.832  0.00  0.00    +0.000 C 
BRANCH  15  17
ATOM     17  O   UNL     1       9.916  18.928  -5.168  0.00  0.00    +0.000 OA
ATOM     18  H   UNL     1      10.224  18.285  -4.498  0.00  0.00    +0.000 HD
ENDBRANCH  15  17
ENDBRANCH  14  15
ENDBRANCH   1  14
TORSDOF 7
ENDMDL
MODEL 5
REMARK VINA RESULT:    -5.016     11.324     13.644
REMARK INTER + INTRA:          -6.790
REMARK INTER:                  -6.337
REMARK INTRA:                  -0.453
REMARK UNBOUND:                -0.015
REMARK  Name = 
REMARK  10 active torsions:
REMARK  status: ('A' for Active; 'I' for Inactive)
REMARK    1  A    between atoms: C_1  and  C_2
REMARK    2  A    between atoms: C_5  and  N_8
REMARK    3  A    between atoms: N_8  and  C_9
REMARK    4  A    between atoms: N_8  and  C_13
REMARK    5  A    between atoms: C_9  and  C_10
REMARK    6  A    between atoms: C_10  and  C_11
REMARK    7  A    between atoms: C_10  and  O_12
REMARK    8  A    between atoms: C_13  and  C_14
REMARK    9  A    between atoms: C_14  and  C_15
REMARK   10  A    between atoms: C_14  and  O_16
REMARK                            x       y       z     vdW  Elec       q    Type
REMARK                         _______ _______ _______ _____ _____    ______ ____
ROOT
ATOM      1  N   UNL     1      14.522  19.523  -3.069  0.00  0.00    +0.000 N 
ENDROOT
BRANCH   1   6
ATOM      2  C   UNL     1       9.069  17.757  -3.754  0.00  0.00    +0.000 C 
ATOM      3  C   UNL     1      10.478  18.224  -3.554  0.00  0.00    +0.000 A 
ATOM      4  C   UNL     1      10.881  19.484  -3.983  0.00  0.00    +0.000 A 
ATOM      5  C   UNL     1      12.210  19.906  -3.820  0.00  0.00    +0.000 A 
ATOM      6  C   UNL     1      13.202  19.090  -3.246  0.00  0.00    +0.000 A 
ATOM      7  C   UNL     1      12.759  17.824  -2.822  0.00  0.00    +0.000 A 
ATOM      8  C   UNL     1      11.432  17.391  -2.977  0.00  0.00    +0.000 A 
ENDBRANCH   1   6
BRANCH   1   9
ATOM      9  C   UNL     1      15.469  18.713  -2.265  0.00  0.00    +0.000 C 
BRANCH   9  10
ATOM     10  C   UNL     1      16.685  18.221  -3.087  0.00  0.00    +0.000 C 
ATOM     11  C   UNL     1      17.991  18.518  -2.360  0.00  0.00    +0.000 C 
BRANCH  10  12
ATOM     12  O   UNL     1      16.615  16.806  -3.314  0.00  0.00    +0.000 OA
ATOM     13  H   UNL     1      16.330  16.662  -4.231  0.00  0.00    +0.000 HD
ENDBRANCH  10  12
ENDBRANCH   9  10
ENDBRANCH   1   9
BRANCH   1  14
ATOM     14  C   UNL     1      14.884  20.958  -3.202  0.00  0.00    +0.000 C 
BRANCH  14  15
ATOM     15  C   UNL     1      15.467  21.286  -4.598  0.00  0.00    +0.000 C 
ATOM     16  C   UNL     1      16.946  21.651  -4.560  0.00  0.00    +0.000 C 
BRANCH  15  17
ATOM     17  O   UNL     1      15.303  20.198  -5.506  0.00  0.00    +0.000 OA
ATOM     18  H   UNL     1      14.435  19.808  -5.279  0.00  0.00    +0.000 HD
ENDBRANCH  15  17
ENDBRANCH  14  15
ENDBRANCH   1  14
TORSDOF 7
ENDMDL
MODEL 6
REMARK VINA RESULT:    -5.000      9.928     11.519
REMARK INTER + INTRA:          -6.769
REMARK INTER:                  -6.140
REMARK INTRA:                  -0.630
REMARK UNBOUND:                -0.015
REMARK  Name = 
REMARK  10 active torsions:
REMARK  status: ('A' for Active; 'I' for Inactive)
REMARK    1  A    between atoms: C_1  and  C_2
REMARK    2  A    between atoms: C_5  and  N_8
REMARK    3  A    between atoms: N_8  and  C_9
REMARK    4  A    between atoms: N_8  and  C_13
REMARK    5  A    between atoms: C_9  and  C_10
REMARK    6  A    between atoms: C_10  and  C_11
REMARK    7  A    between atoms: C_10  and  O_12
REMARK    8  A    between atoms: C_13  and  C_14
REMARK    9  A    between atoms: C_14  and  C_15
REMARK   10  A    between atoms: C_14  and  O_16
REMARK                            x       y       z     vdW  Elec       q    Type
REMARK                         _______ _______ _______ _____ _____    ______ ____
ROOT
ATOM      1  N   UNL     1      11.254  20.368  -2.535  0.00  0.00    +0.000 N 
ENDROOT
BRANCH   1   6
ATOM      2  C   UNL     1       9.492  21.304   2.883  0.00  0.00    +0.000 C 
ATOM      3  C   UNL     1       9.932  21.077   1.469  0.00  0.00    +0.000 A 
ATOM      4  C   UNL     1       9.378  20.057   0.703  0.00  0.00    +0.000 A 
ATOM      5  C   UNL     1       9.816  19.830  -0.612  0.00  0.00    +0.000 A 
ATOM      6  C   UNL     1      10.836  20.587  -1.216  0.00  0.00    +0.000 A 
ATOM      7  C   UNL     1      11.371  21.611  -0.413  0.00  0.00    +0.000 A 
ATOM      8  C   UNL     1      10.941  21.850   0.902  0.00  0.00    +0.000 A 
ENDBRANCH   1   6
BRANCH   1   9
ATOM      9  C   UNL     1      12.601  19.811  -2.804  0.00  0.00    +0.000 C 
BRANCH   9  10
ATOM     10  C   UNL     1      12.817  18.421  -2.158  0.00  0.00    +0.000 C 
ATOM     11  C   UNL     1      11.984  17.357  -2.864  0.00  0.00    +0.000 C 
BRANCH  10  12
ATOM     12  O   UNL     1      14.194  18.027  -2.230  0.00  0.00    +0.000 OA
ATOM     13  H   UNL     1      14.231  17.057  -2.220  0.00  0.00    +0.000 HD
ENDBRANCH  10  12
ENDBRANCH   9  10
ENDBRANCH   1   9
BRANCH   1  14
ATOM     14  C   UNL     1      10.648  21.114  -3.667  0.00  0.00    +0.000 C 
BRANCH  14  15
ATOM     15  C   UNL     1      10.073  20.168  -4.749  0.00  0.00    +0.000 C 
ATOM     16  C   UNL     1       9.175  19.078  -4.177  0.00  0.00    +0.000 C 
BRANCH  15  17
ATOM     17  O   UNL     1       9.327  20.884  -5.733  0.00  0.00    +0.000 OA
ATOM     18  H   UNL     1       8.741  20.216  -6.141  0.00  0.00    +0.000 HD
ENDBRANCH  15  17
ENDBRANCH  14  15
ENDBRANCH   1  14
TORSDOF 7
ENDMDL
MODEL 7
REMARK VINA RESULT:    -4.937      9.623     11.938
REMARK INTER + INTRA:          -6.684
REMARK INTER:                  -6.268
REMARK INTRA:                  -0.417
REMARK UNBOUND:                -0.015
REMARK  Name = 
REMARK  10 active torsions:
REMARK  status: ('A' for Active; 'I' for Inactive)
REMARK    1  A    between atoms: C_1  and  C_2
REMARK    2  A    between atoms: C_5  and  N_8
REMARK    3  A    between atoms: N_8  and  C_9
REMARK    4  A    between atoms: N_8  and  C_13
REMARK    5  A    between atoms: C_9  and  C_10
REMARK    6  A    between atoms: C_10  and  C_11
REMARK    7  A    between atoms: C_10  and  O_12
REMARK    8  A    between atoms: C_13  and  C_14
REMARK    9  A    between atoms: C_14  and  C_15
REMARK   10  A    between atoms: C_14  and  O_16
REMARK                            x       y       z     vdW  Elec       q    Type
REMARK                         _______ _______ _______ _____ _____    ______ ____
ROOT
ATOM      1  N   UNL     1      11.160  20.475  -2.021  0.00  0.00    +0.000 N 
ENDROOT
BRANCH   1   6
ATOM      2  C   UNL     1      16.369  18.086  -2.714  0.00  0.00    +0.000 C 
ATOM      3  C   UNL     1      15.016  18.709  -2.559  0.00  0.00    +0.000 A 
ATOM      4  C   UNL     1      14.880  20.074  -2.332  0.00  0.00    +0.000 A 
ATOM      5  C   UNL     1      13.610  20.649  -2.158  0.00  0.00    +0.000 A 
ATOM      6  C   UNL     1      12.424  19.893  -2.177  0.00  0.00    +0.000 A 
ATOM      7  C   UNL     1      12.599  18.516  -2.410  0.00  0.00    +0.000 A 
ATOM      8  C   UNL     1      13.863  17.930  -2.589  0.00  0.00    +0.000 A 
ENDBRANCH   1   6
BRANCH   1   9
ATOM      9  C   UNL     1      10.452  21.040  -3.195  0.00  0.00    +0.000 C 
BRANCH   9  10
ATOM     10  C   UNL     1      10.049  19.961  -4.230  0.00  0.00    +0.000 C 
ATOM     11  C   UNL     1       9.085  18.952  -3.617  0.00  0.00    +0.000 C 
BRANCH  10  12
ATOM     12  O   UNL     1       9.407  20.554  -5.368  0.00  0.00    +0.000 OA
ATOM     13  H   UNL     1       9.785  21.439  -5.500  0.00  0.00    +0.000 HD
ENDBRANCH  10  12
ENDBRANCH   9  10
ENDBRANCH   1   9
BRANCH   1  14
ATOM     14  C   UNL     1      10.714  21.007  -0.708  0.00  0.00    +0.000 C 
BRANCH  14  15
ATOM     15  C   UNL     1       9.277  20.557  -0.352  0.00  0.00    +0.000 C 
ATOM     16  C   UNL     1       9.203  19.761   0.946  0.00  0.00    +0.000 C 
BRANCH  15  17
ATOM     17  O   UNL     1       8.389  21.668  -0.240  0.00  0.00    +0.000 OA
ATOM     18  H   UNL     1       7.662  21.354   0.335  0.00  0.00    +0.000 HD
ENDBRANCH  15  17
ENDBRANCH  14  15
ENDBRANCH   1  14
TORSDOF 7
ENDMDL
MODEL 8
REMARK VINA RESULT:    -4.703      9.869     11.244
REMARK INTER + INTRA:          -6.368
REMARK INTER:                  -5.846
REMARK INTRA:                  -0.522
REMARK UNBOUND:                -0.015
REMARK  Name = 
REMARK  10 active torsions:
REMARK  status: ('A' for Active; 'I' for Inactive)
REMARK    1  A    between atoms: C_1  and  C_2
REMARK    2  A    between atoms: C_5  and  N_8
REMARK    3  A    between atoms: N_8  and  C_9
REMARK    4  A    between atoms: N_8  and  C_13
REMARK    5  A    between atoms: C_9  and  C_10
REMARK    6  A    between atoms: C_10  and  C_11
REMARK    7  A    between atoms: C_10  and  O_12
REMARK    8  A    between atoms: C_13  and  C_14
REMARK    9  A    between atoms: C_14  and  C_15
REMARK   10  A    between atoms: C_14  and  O_16
REMARK                            x       y       z     vdW  Elec       q    Type
REMARK                         _______ _______ _______ _____ _____    ______ ____
ROOT
ATOM      1  N   UNL     1      10.687  20.416  -2.252  0.00  0.00    +0.000 N 
ENDROOT
BRANCH   1   6
ATOM      2  C   UNL     1      10.009  21.522   3.373  0.00  0.00    +0.000 C 
ATOM      3  C   UNL     1      10.167  21.253   1.908  0.00  0.00    +0.000 A 
ATOM      4  C   UNL     1       9.416  20.266   1.278  0.00  0.00    +0.000 A 
ATOM      5  C   UNL     1       9.591  19.997  -0.090  0.00  0.00    +0.000 A 
ATOM      6  C   UNL     1      10.532  20.676  -0.885  0.00  0.00    +0.000 A 
ATOM      7  C   UNL     1      11.272  21.668  -0.215  0.00  0.00    +0.000 A 
ATOM      8  C   UNL     1      11.106  21.948   1.151  0.00  0.00    +0.000 A 
ENDBRANCH   1   6
BRANCH   1   9
ATOM      9  C   UNL     1       9.494  20.241  -3.116  0.00  0.00    +0.000 C 
BRANCH   9  10
ATOM     10  C   UNL     1       9.854  19.782  -4.550  0.00  0.00    +0.000 C 
ATOM     11  C   UNL     1       9.281  18.399  -4.840  0.00  0.00    +0.000 C 
BRANCH  10  12
ATOM     12  O   UNL     1       9.333  20.692  -5.528  0.00  0.00    +0.000 OA
ATOM     13  H   UNL     1       9.833  20.568  -6.352  0.00  0.00    +0.000 HD
ENDBRANCH  10  12
ENDBRANCH   9  10
ENDBRANCH   1   9
BRANCH   1  14
ATOM     14  C   UNL     1      11.936  19.813  -2.784  0.00  0.00    +0.000 C 
BRANCH  14  15
ATOM     15  C   UNL     1      12.355  18.548  -1.997  0.00  0.00    +0.000 C 
ATOM     16  C   UNL     1      11.760  17.265  -2.565  0.00  0.00    +0.000 C 
BRANCH  15  17
ATOM     17  O   UNL     1      13.773  18.398  -1.957  0.00  0.00    +0.000 OA
ATOM     18  H   UNL     1      13.940  17.485  -2.268  0.00  0.00    +0.000 HD
ENDBRANCH  15  17
ENDBRANCH  14  15
ENDBRANCH   1  14
TORSDOF 7
ENDMDL
MODEL 9
REMARK VINA RESULT:    -4.631     11.232     13.428
REMARK INTER + INTRA:          -6.271
REMARK INTER:                  -5.730
REMARK INTRA:                  -0.540
REMARK UNBOUND:                -0.015
REMARK  Name = 
REMARK  10 active torsions:
REMARK  status: ('A' for Active; 'I' for Inactive)
REMARK    1  A    between atoms: C_1  and  C_2
REMARK    2  A    between atoms: C_5  and  N_8
REMARK    3  A    between atoms: N_8  and  C_9
REMARK    4  A    between atoms: N_8  and  C_13
REMARK    5  A    between atoms: C_9  and  C_10
REMARK    6  A    between atoms: C_10  and  C_11
REMARK    7  A    between atoms: C_10  and  O_12
REMARK    8  A    between atoms: C_13  and  C_14
REMARK    9  A    between atoms: C_14  and  C_15
REMARK   10  A    between atoms: C_14  and  O_16
REMARK                            x       y       z     vdW  Elec       q    Type
REMARK                         _______ _______ _______ _____ _____    ______ ____
ROOT
ATOM      1  N   UNL     1      14.500  19.311  -2.201  0.00  0.00    +0.000 N 
ENDROOT
BRANCH   1   6
ATOM      2  C   UNL     1       9.012  18.077  -3.500  0.00  0.00    +0.000 C 
ATOM      3  C   UNL     1      10.440  18.404  -3.186  0.00  0.00    +0.000 A 
ATOM      4  C   UNL     1      11.432  17.434  -3.278  0.00  0.00    +0.000 A 
ATOM      5  C   UNL     1      12.764  17.738  -2.954  0.00  0.00    +0.000 A 
ATOM      6  C   UNL     1      13.167  19.009  -2.503  0.00  0.00    +0.000 A 
ATOM      7  C   UNL     1      12.138  19.965  -2.424  0.00  0.00    +0.000 A 
ATOM      8  C   UNL     1      10.802  19.675  -2.747  0.00  0.00    +0.000 A 
ENDBRANCH   1   6
BRANCH   1   9
ATOM      9  C   UNL     1      15.127  20.538  -2.748  0.00  0.00    +0.000 C 
BRANCH   9  10
ATOM     10  C   UNL     1      15.170  20.551  -4.296  0.00  0.00    +0.000 C 
ATOM     11  C   UNL     1      15.262  21.977  -4.827  0.00  0.00    +0.000 C 
BRANCH  10  12
ATOM     12  O   UNL     1      16.302  19.820  -4.786  0.00  0.00    +0.000 OA
ATOM     13  H   UNL     1      16.291  19.862  -5.757  0.00  0.00    +0.000 HD
ENDBRANCH  10  12
ENDBRANCH   9  10
ENDBRANCH   1   9
BRANCH   1  14
ATOM     14  C   UNL     1      15.457  18.249  -1.796  0.00  0.00    +0.000 C 
BRANCH  14  15
ATOM     15  C   UNL     1      16.911  18.772  -1.712  0.00  0.00    +0.000 C 
ATOM     16  C   UNL     1      17.503  18.677  -0.311  0.00  0.00    +0.000 C 
BRANCH  15  17
ATOM     17  O   UNL     1      17.775  18.072  -2.606  0.00  0.00    +0.000 OA
ATOM     18  H   UNL     1      17.768  17.146  -2.290  0.00  0.00    +0.000 HD
ENDBRANCH  15  17
ENDBRANCH  14  15
ENDBRANCH   1  14
TORSDOF 7
ENDMDL
