MODEL 1
REMARK VINA RESULT:    -4.060      0.000      0.000
REMARK INTER + INTRA:          -4.457
REMARK INTER:                  -4.416
REMARK INTRA:                  -0.041
REMARK UNBOUND:                -0.041
REMARK  Name = 
REMARK  3 active torsions:
REMARK  status: ('A' for Active; 'I' for Inactive)
REMARK    1  A    between atoms: C_1  and  O_2
REMARK    2  A    between atoms: O_2  and  C_3
REMARK    3  A    between atoms: C_8  and  O_9
REMARK                            x       y       z     vdW  Elec       q    Type
REMARK                         _______ _______ _______ _____ _____    ______ ____
ROOT
ATOM      1  C   UNL     1      25.978  -8.208  12.119  0.00  0.00    +0.000 A 
ATOM      2  C   UNL     1      25.554  -7.272  13.060  0.00  0.00    +0.000 A 
ATOM      3  C   UNL     1      24.473  -6.429  12.771  0.00  0.00    +0.000 A 
ATOM      4  C   UNL     1      23.816  -6.518  11.542  0.00  0.00    +0.000 A 
ATOM      5  C   UNL     1      24.234  -7.452  10.597  0.00  0.00    +0.000 A 
ATOM      6  C   UNL     1      25.306  -8.283  10.893  0.00  0.00    +0.000 A 
ENDROOT
BRANCH   1   8
ATOM      7  C   UNL     1      27.294  -9.531  13.591  0.00  0.00    +0.000 C 
ATOM      8  O   UNL     1      27.017  -9.093  12.266  0.00  0.00    +0.000 OA
ENDBRANCH   1   8
BRANCH   6   9
ATOM      9  O   UNL     1      25.699  -9.193   9.947  0.00  0.00    +0.000 OA
ATOM     10  H   UNL     1      26.542  -8.842   9.600  0.00  0.00    +0.000 HD
ENDBRANCH   6   9
TORSDOF 2
ENDMDL
MODEL 2
REMARK VINA RESULT:    -3.885      6.987      8.212
REMARK INTER + INTRA:          -4.267
REMARK INTER:                  -4.228
REMARK INTRA:                  -0.039
REMARK UNBOUND:                -0.041
REMARK  Name = 
REMARK  3 active torsions:
REMARK  status: ('A' for Active; 'I' for Inactive)
REMARK    1  A    between atoms: C_1  and  O_2
REMARK    2  A    between atoms: O_2  and  C_3
REMARK    3  A    between atoms: C_8  and  O_9
REMARK                            x       y       z     vdW  Elec       q    Type
REMARK                         _______ _______ _______ _____ _____    ______ ____
ROOT
ATOM      1  C   UNL     1      23.954  -0.780  12.629  0.00  0.00    +0.000 A 
ATOM      2  C   UNL     1      24.362  -1.823  13.458  0.00  0.00    +0.000 A 
ATOM      3  C   UNL     1      25.548  -1.708  14.196  0.00  0.00    +0.000 A 
ATOM      4  C   UNL     1      26.327  -0.553  14.107  0.00  0.00    +0.000 A 
ATOM      5  C   UNL     1      25.925   0.494  13.281  0.00  0.00    +0.000 A 
ATOM      6  C   UNL     1      24.748   0.371  12.553  0.00  0.00    +0.000 A 
ENDROOT
BRANCH   1   8
ATOM      7  C   UNL     1      22.241  -2.016  11.540  0.00  0.00    +0.000 C 
ATOM      8  O   UNL     1      22.822  -0.756  11.853  0.00  0.00    +0.000 OA
ENDBRANCH   1   8
BRANCH   6   9
ATOM      9  O   UNL     1      24.374   1.413  11.748  0.00  0.00    +0.000 OA
ATOM     10  H   UNL     1      24.650   1.146  10.850  0.00  0.00    +0.000 HD
ENDBRANCH   6   9
TORSDOF 2
ENDMDL
MODEL 3
REMARK VINA RESULT:    -3.854      5.923      6.871
REMARK INTER + INTRA:          -4.233
REMARK INTER:                  -4.190
REMARK INTRA:                  -0.043
REMARK UNBOUND:                -0.041
REMARK  Name = 
REMARK  3 active torsions:
REMARK  status: ('A' for Active; 'I' for Inactive)
REMARK    1  A    between atoms: C_1  and  O_2
REMARK    2  A    between atoms: O_2  and  C_3
REMARK    3  A    between atoms: C_8  and  O_9
REMARK                            x       y       z     vdW  Elec       q    Type
REMARK                         _______ _______ _______ _____ _____    ______ ____
ROOT
ATOM      1  C   UNL     1      24.000  -2.162  13.113  0.00  0.00    +0.000 A 
ATOM      2  C   UNL     1      24.898  -1.816  14.122  0.00  0.00    +0.000 A 
ATOM      3  C   UNL     1      25.496  -0.550  14.122  0.00  0.00    +0.000 A 
ATOM      4  C   UNL     1      25.200   0.373  13.117  0.00  0.00    +0.000 A 
ATOM      5  C   UNL     1      24.304   0.035  12.105  0.00  0.00    +0.000 A 
ATOM      6  C   UNL     1      23.716  -1.224  12.113  0.00  0.00    +0.000 A 
ENDROOT
BRANCH   1   8
ATOM      7  C   UNL     1      24.068  -4.524  13.368  0.00  0.00    +0.000 C 
ATOM      8  O   UNL     1      23.344  -3.360  12.987  0.00  0.00    +0.000 OA
ENDBRANCH   1   8
BRANCH   6   9
ATOM      9  O   UNL     1      22.838  -1.533  11.108  0.00  0.00    +0.000 OA
ATOM     10  H   UNL     1      23.108  -0.968  10.359  0.00  0.00    +0.000 HD
ENDBRANCH   6   9
TORSDOF 2
ENDMDL
MODEL 4
REMARK VINA RESULT:    -3.693      1.393      3.138
REMARK INTER + INTRA:          -4.057
REMARK INTER:                  -4.005
REMARK INTRA:                  -0.052
REMARK UNBOUND:                -0.041
REMARK  Name = 
REMARK  3 active torsions:
REMARK  status: ('A' for Active; 'I' for Inactive)
REMARK    1  A    between atoms: C_1  and  O_2
REMARK    2  A    between atoms: O_2  and  C_3
REMARK    3  A    between atoms: C_8  and  O_9
REMARK                            x       y       z     vdW  Elec       q    Type
REMARK                         _______ _______ _______ _____ _____    ______ ____
ROOT
ATOM      1  C   UNL     1      25.011  -7.434  12.162  0.00  0.00    +0.000 A 
ATOM      2  C   UNL     1      25.351  -6.796  13.354  0.00  0.00    +0.000 A 
ATOM      3  C   UNL     1      26.156  -7.451  14.294  0.00  0.00    +0.000 A 
ATOM      4  C   UNL     1      26.624  -8.743  14.047  0.00  0.00    +0.000 A 
ATOM      5  C   UNL     1      26.289  -9.387  12.858  0.00  0.00    +0.000 A 
ATOM      6  C   UNL     1      25.490  -8.730  11.932  0.00  0.00    +0.000 A 
ENDROOT
BRANCH   1   8
ATOM      7  C   UNL     1      22.881  -6.624  11.488  0.00  0.00    +0.000 C 
ATOM      8  O   UNL     1      24.234  -6.915  11.158  0.00  0.00    +0.000 OA
ENDBRANCH   1   8
BRANCH   6   9
ATOM      9  O   UNL     1      25.174  -9.383  10.770  0.00  0.00    +0.000 OA
ATOM     10  H   UNL     1      25.029  -8.672  10.117  0.00  0.00    +0.000 HD
ENDBRANCH   6   9
TORSDOF 2
ENDMDL
MODEL 5
REMARK VINA RESULT:    -3.657      5.856      7.226
REMARK INTER + INTRA:          -4.019
REMARK INTER:                  -3.978
REMARK INTRA:                  -0.040
REMARK UNBOUND:                -0.041
REMARK  Name = 
REMARK  3 active torsions:
REMARK  status: ('A' for Active; 'I' for Inactive)
REMARK    1  A    between atoms: C_1  and  O_2
REMARK    2  A    between atoms: O_2  and  C_3
REMARK    3  A    between atoms: C_8  and  O_9
REMARK                            x       y       z     vdW  Elec       q    Type
REMARK                         _______ _______ _______ _____ _____    ______ ____
ROOT
ATOM      1  C   UNL     1      23.819  -1.972  12.866  0.00  0.00    +0.000 A 
ATOM      2  C   UNL     1      23.659  -0.841  12.067  0.00  0.00    +0.000 A 
ATOM      3  C   UNL     1      24.456   0.289  12.287  0.00  0.00    +0.000 A 
ATOM      4  C   UNL     1      25.412   0.294  13.304  0.00  0.00    +0.000 A 
ATOM      5  C   UNL     1      25.578  -0.832  14.107  0.00  0.00    +0.000 A 
ATOM      6  C   UNL     1      24.783  -1.948  13.882  0.00  0.00    +0.000 A 
ENDROOT
BRANCH   1   8
ATOM      7  C   UNL     1      22.585  -3.458  11.482  0.00  0.00    +0.000 C 
ATOM      8  O   UNL     1      23.111  -3.143  12.765  0.00  0.00    +0.000 OA
ENDBRANCH   1   8
BRANCH   6   9
ATOM      9  O   UNL     1      24.963  -3.043  14.684  0.00  0.00    +0.000 OA
ATOM     10  H   UNL     1      24.349  -2.909  15.430  0.00  0.00    +0.000 HD
ENDBRANCH   6   9
TORSDOF 2
ENDMDL
MODEL 6
REMARK VINA RESULT:    -3.644      1.373      1.828
REMARK INTER + INTRA:          -4.004
REMARK INTER:                  -3.952
REMARK INTRA:                  -0.053
REMARK UNBOUND:                -0.041
REMARK  Name = 
REMARK  3 active torsions:
REMARK  status: ('A' for Active; 'I' for Inactive)
REMARK    1  A    between atoms: C_1  and  O_2
REMARK    2  A    between atoms: O_2  and  C_3
REMARK    3  A    between atoms: C_8  and  O_9
REMARK                            x       y       z     vdW  Elec       q    Type
REMARK                         _______ _______ _______ _____ _____    ______ ____
ROOT
ATOM      1  C   UNL     1      25.742  -8.277  12.969  0.00  0.00    +0.000 A 
ATOM      2  C   UNL     1      24.575  -7.527  12.828  0.00  0.00    +0.000 A 
ATOM      3  C   UNL     1      24.155  -7.118  11.556  0.00  0.00    +0.000 A 
ATOM      4  C   UNL     1      24.898  -7.456  10.423  0.00  0.00    +0.000 A 
ATOM      5  C   UNL     1      26.064  -8.206  10.556  0.00  0.00    +0.000 A 
ATOM      6  C   UNL     1      26.473  -8.607  11.821  0.00  0.00    +0.000 A 
ENDROOT
BRANCH   1   8
ATOM      7  C   UNL     1      25.513  -9.730  14.835  0.00  0.00    +0.000 C 
ATOM      8  O   UNL     1      26.270  -8.742  14.147  0.00  0.00    +0.000 OA
ENDBRANCH   1   8
BRANCH   6   9
ATOM      9  O   UNL     1      27.623  -9.343  11.926  0.00  0.00    +0.000 OA
ATOM     10  H   UNL     1      27.819  -9.363  12.883  0.00  0.00    +0.000 HD
ENDBRANCH   6   9
TORSDOF 2
ENDMDL
MODEL 7
REMARK VINA RESULT:    -3.592     11.922     13.258
REMARK INTER + INTRA:          -3.948
REMARK INTER:                  -3.907
REMARK INTRA:                  -0.041
REMARK UNBOUND:                -0.041
REMARK  Name = 
REMARK  3 active torsions:
REMARK  status: ('A' for Active; 'I' for Inactive)
REMARK    1  A    between atoms: C_1  and  O_2
REMARK    2  A    between atoms: O_2  and  C_3
REMARK    3  A    between atoms: C_8  and  O_9
REMARK                            x       y       z     vdW  Elec       q    Type
REMARK                         _______ _______ _______ _____ _____    ______ ____
ROOT
ATOM      1  C   UNL     1      24.391   0.560  20.795  0.00  0.00    +0.000 A 
ATOM      2  C   UNL     1      23.382   1.246  20.120  0.00  0.00    +0.000 A 
ATOM      3  C   UNL     1      23.176   2.609  20.367  0.00  0.00    +0.000 A 
ATOM      4  C   UNL     1      23.976   3.290  21.287  0.00  0.00    +0.000 A 
ATOM      5  C   UNL     1      24.986   2.612  21.965  0.00  0.00    +0.000 A 
ATOM      6  C   UNL     1      25.183   1.260  21.714  0.00  0.00    +0.000 A 
ENDROOT
BRANCH   1   8
ATOM      7  C   UNL     1      23.817  -1.697  21.267  0.00  0.00    +0.000 C 
ATOM      8  O   UNL     1      24.703  -0.768  20.654  0.00  0.00    +0.000 OA
ENDBRANCH   1   8
BRANCH   6   9
ATOM      9  O   UNL     1      26.182   0.615  22.393  0.00  0.00    +0.000 OA
ATOM     10  H   UNL     1      25.891  -0.316  22.437  0.00  0.00    +0.000 HD
ENDBRANCH   6   9
TORSDOF 2
ENDMDL
MODEL 8
REMARK VINA RESULT:    -3.577     13.176     13.895
REMARK INTER + INTRA:          -3.932
REMARK INTER:                  -3.880
REMARK INTRA:                  -0.053
REMARK UNBOUND:                -0.041
REMARK  Name = 
REMARK  3 active torsions:
REMARK  status: ('A' for Active; 'I' for Inactive)
REMARK    1  A    between atoms: C_1  and  O_2
REMARK    2  A    between atoms: O_2  and  C_3
REMARK    3  A    between atoms: C_8  and  O_9
REMARK                            x       y       z     vdW  Elec       q    Type
REMARK                         _______ _______ _______ _____ _____    ______ ____
ROOT
ATOM      1  C   UNL     1      23.808  -0.075  22.786  0.00  0.00    +0.000 A 
ATOM      2  C   UNL     1      22.818   0.630  23.470  0.00  0.00    +0.000 A 
ATOM      3  C   UNL     1      22.711   2.017  23.310  0.00  0.00    +0.000 A 
ATOM      4  C   UNL     1      23.590   2.703  22.471  0.00  0.00    +0.000 A 
ATOM      5  C   UNL     1      24.582   2.006  21.785  0.00  0.00    +0.000 A 
ATOM      6  C   UNL     1      24.681   0.630  21.949  0.00  0.00    +0.000 A 
ENDROOT
BRANCH   1   8
ATOM      7  C   UNL     1      24.442  -1.947  24.106  0.00  0.00    +0.000 C 
ATOM      8  O   UNL     1      24.029  -1.428  22.847  0.00  0.00    +0.000 OA
ENDBRANCH   1   8
BRANCH   6   9
ATOM      9  O   UNL     1      25.664  -0.033  21.264  0.00  0.00    +0.000 OA
ATOM     10  H   UNL     1      25.720   0.425  20.404  0.00  0.00    +0.000 HD
ENDBRANCH   6   9
TORSDOF 2
ENDMDL
MODEL 9
REMARK VINA RESULT:    -3.551     12.847     14.062
REMARK INTER + INTRA:          -3.904
REMARK INTER:                  -3.862
REMARK INTRA:                  -0.042
REMARK UNBOUND:                -0.041
REMARK  Name = 
REMARK  3 active torsions:
REMARK  status: ('A' for Active; 'I' for Inactive)
REMARK    1  A    between atoms: C_1  and  O_2
REMARK    2  A    between atoms: O_2  and  C_3
REMARK    3  A    between atoms: C_8  and  O_9
REMARK                            x       y       z     vdW  Elec       q    Type
REMARK                         _______ _______ _______ _____ _____    ______ ____
ROOT
ATOM      1  C   UNL     1      23.691   1.453  21.374  0.00  0.00    +0.000 A 
ATOM      2  C   UNL     1      23.430   1.189  22.718  0.00  0.00    +0.000 A 
ATOM      3  C   UNL     1      22.599   2.045  23.452  0.00  0.00    +0.000 A 
ATOM      4  C   UNL     1      22.027   3.165  22.846  0.00  0.00    +0.000 A 
ATOM      5  C   UNL     1      22.281   3.436  21.504  0.00  0.00    +0.000 A 
ATOM      6  C   UNL     1      23.107   2.581  20.784  0.00  0.00    +0.000 A 
ENDROOT
BRANCH   1   8
ATOM      7  C   UNL     1      24.495  -0.699  20.767  0.00  0.00    +0.000 C 
ATOM      8  O   UNL     1      24.482   0.705  20.539  0.00  0.00    +0.000 OA
ENDBRANCH   1   8
BRANCH   6   9
ATOM      9  O   UNL     1      23.343   2.868  19.466  0.00  0.00    +0.000 OA
ATOM     10  H   UNL     1      22.457   2.913  19.059  0.00  0.00    +0.000 HD
ENDBRANCH   6   9
TORSDOF 2
ENDMDL
