MODEL 1
REMARK VINA RESULT:    -6.856      0.000      0.000
REMARK INTER + INTRA:          -9.572
REMARK INTER:                  -9.261
REMARK INTRA:                  -0.311
REMARK UNBOUND:                -0.311
REMARK  Name = 
REMARK  10 active torsions:
REMARK  status: ('A' for Active; 'I' for Inactive)
REMARK    1  A    between atoms: C_1  and  C_2
REMARK    2  A    between atoms: C_5  and  N_8
REMARK    3  A    between atoms: N_8  and  C_9
REMARK    4  A    between atoms: N_8  and  C_13
REMARK    5  A    between atoms: C_9  and  C_10
REMARK    6  A    between atoms: C_10  and  C_11
REMARK    7  A    between atoms: C_10  and  O_12
REMARK    8  A    between atoms: C_13  and  C_14
REMARK    9  A    between atoms: C_14  and  C_15
REMARK   10  A    between atoms: C_14  and  O_16
REMARK                            x       y       z     vdW  Elec       q    Type
REMARK                         _______ _______ _______ _____ _____    ______ ____
ROOT
ATOM      1  N   UNL     1      31.884   2.644  -5.556  0.00  0.00    +0.000 N 
ENDROOT
BRANCH   1   6
ATOM      2  C   UNL     1      37.100   5.041  -6.165  0.00  0.00    +0.000 C 
ATOM      3  C   UNL     1      35.742   4.434  -5.987  0.00  0.00    +0.000 A 
ATOM      4  C   UNL     1      35.571   3.276  -5.236  0.00  0.00    +0.000 A 
ATOM      5  C   UNL     1      34.300   2.694  -5.097  0.00  0.00    +0.000 A 
ATOM      6  C   UNL     1      33.151   3.219  -5.714  0.00  0.00    +0.000 A 
ATOM      7  C   UNL     1      33.361   4.391  -6.464  0.00  0.00    +0.000 A 
ATOM      8  C   UNL     1      34.626   4.984  -6.609  0.00  0.00    +0.000 A 
ENDBRANCH   1   6
BRANCH   1   9
ATOM      9  C   UNL     1      30.888   2.726  -6.651  0.00  0.00    +0.000 C 
BRANCH   9  10
ATOM     10  C   UNL     1      30.873   1.461  -7.544  0.00  0.00    +0.000 C 
ATOM     11  C   UNL     1      30.790   1.835  -9.019  0.00  0.00    +0.000 C 
BRANCH  10  12
ATOM     12  O   UNL     1      32.060   0.680  -7.350  0.00  0.00    +0.000 OA
ATOM     13  H   UNL     1      32.215   0.161  -8.157  0.00  0.00    +0.000 HD
ENDBRANCH  10  12
ENDBRANCH   9  10
ENDBRANCH   1   9
BRANCH   1  14
ATOM     14  C   UNL     1      31.309   2.410  -4.206  0.00  0.00    +0.000 C 
BRANCH  14  15
ATOM     15  C   UNL     1      29.812   2.798  -4.133  0.00  0.00    +0.000 C 
ATOM     16  C   UNL     1      29.057   2.068  -3.029  0.00  0.00    +0.000 C 
BRANCH  15  17
ATOM     17  O   UNL     1      29.640   4.200  -3.934  0.00  0.00    +0.000 OA
ATOM     18  H   UNL     1      29.595   4.580  -4.834  0.00  0.00    +0.000 HD
ENDBRANCH  15  17
ENDBRANCH  14  15
ENDBRANCH   1  14
TORSDOF 7
ENDMDL
MODEL 2
REMARK VINA RESULT:    -6.563      1.162      3.164
REMARK INTER + INTRA:          -9.176
REMARK INTER:                  -8.506
REMARK INTRA:                  -0.670
REMARK UNBOUND:                -0.311
REMARK  Name = 
REMARK  10 active torsions:
REMARK  status: ('A' for Active; 'I' for Inactive)
REMARK    1  A    between atoms: C_1  and  C_2
REMARK    2  A    between atoms: C_5  and  N_8
REMARK    3  A    between atoms: N_8  and  C_9
REMARK    4  A    between atoms: N_8  and  C_13
REMARK    5  A    between atoms: C_9  and  C_10
REMARK    6  A    between atoms: C_10  and  C_11
REMARK    7  A    between atoms: C_10  and  O_12
REMARK    8  A    between atoms: C_13  and  C_14
REMARK    9  A    between atoms: C_14  and  C_15
REMARK   10  A    between atoms: C_14  and  O_16
REMARK                            x       y       z     vdW  Elec       q    Type
REMARK                         _______ _______ _______ _____ _____    ______ ____
ROOT
ATOM      1  N   UNL     1      32.509   2.435  -5.526  0.00  0.00    +0.000 N 
ENDROOT
BRANCH   1   6
ATOM      2  C   UNL     1      37.920   4.444  -5.638  0.00  0.00    +0.000 C 
ATOM      3  C   UNL     1      36.514   3.931  -5.585  0.00  0.00    +0.000 A 
ATOM      4  C   UNL     1      36.245   2.622  -5.200  0.00  0.00    +0.000 A 
ATOM      5  C   UNL     1      34.927   2.137  -5.182  0.00  0.00    +0.000 A 
ATOM      6  C   UNL     1      33.823   2.919  -5.566  0.00  0.00    +0.000 A 
ATOM      7  C   UNL     1      34.131   4.238  -5.947  0.00  0.00    +0.000 A 
ATOM      8  C   UNL     1      35.445   4.736  -5.968  0.00  0.00    +0.000 A 
ENDBRANCH   1   6
BRANCH   1   9
ATOM      9  C   UNL     1      31.811   2.286  -4.227  0.00  0.00    +0.000 C 
BRANCH   9  10
ATOM     10  C   UNL     1      30.304   2.635  -4.311  0.00  0.00    +0.000 C 
ATOM     11  C   UNL     1      29.605   2.355  -2.987  0.00  0.00    +0.000 C 
BRANCH  10  12
ATOM     12  O   UNL     1      30.114   4.020  -4.631  0.00  0.00    +0.000 OA
ATOM     13  H   UNL     1      30.781   4.271  -5.291  0.00  0.00    +0.000 HD
ENDBRANCH  10  12
ENDBRANCH   9  10
ENDBRANCH   1   9
BRANCH   1  14
ATOM     14  C   UNL     1      31.963   1.602  -6.628  0.00  0.00    +0.000 C 
BRANCH  14  15
ATOM     15  C   UNL     1      31.547   2.452  -7.852  0.00  0.00    +0.000 C 
ATOM     16  C   UNL     1      30.570   1.734  -8.776  0.00  0.00    +0.000 C 
BRANCH  15  17
ATOM     17  O   UNL     1      30.955   3.689  -7.459  0.00  0.00    +0.000 OA
ATOM     18  H   UNL     1      31.486   4.377  -7.907  0.00  0.00    +0.000 HD
ENDBRANCH  15  17
ENDBRANCH  14  15
ENDBRANCH   1  14
TORSDOF 7
ENDMDL
MODEL 3
REMARK VINA RESULT:    -5.801      2.906      5.998
REMARK INTER + INTRA:          -8.147
REMARK INTER:                  -7.645
REMARK INTRA:                  -0.501
REMARK UNBOUND:                -0.311
REMARK  Name = 
REMARK  10 active torsions:
REMARK  status: ('A' for Active; 'I' for Inactive)
REMARK    1  A    between atoms: C_1  and  C_2
REMARK    2  A    between atoms: C_5  and  N_8
REMARK    3  A    between atoms: N_8  and  C_9
REMARK    4  A    between atoms: N_8  and  C_13
REMARK    5  A    between atoms: C_9  and  C_10
REMARK    6  A    between atoms: C_10  and  C_11
REMARK    7  A    between atoms: C_10  and  O_12
REMARK    8  A    between atoms: C_13  and  C_14
REMARK    9  A    between atoms: C_14  and  C_15
REMARK   10  A    between atoms: C_14  and  O_16
REMARK                            x       y       z     vdW  Elec       q    Type
REMARK                         _______ _______ _______ _____ _____    ______ ____
ROOT
ATOM      1  N   UNL     1      34.348   4.533  -5.407  0.00  0.00    +0.000 N 
ENDROOT
BRANCH   1   6
ATOM      2  C   UNL     1      30.368   1.369  -8.142  0.00  0.00    +0.000 C 
ATOM      3  C   UNL     1      31.388   2.187  -7.411  0.00  0.00    +0.000 A 
ATOM      4  C   UNL     1      31.266   3.570  -7.325  0.00  0.00    +0.000 A 
ATOM      5  C   UNL     1      32.242   4.334  -6.664  0.00  0.00    +0.000 A 
ATOM      6  C   UNL     1      33.389   3.766  -6.082  0.00  0.00    +0.000 A 
ATOM      7  C   UNL     1      33.478   2.366  -6.186  0.00  0.00    +0.000 A 
ATOM      8  C   UNL     1      32.509   1.589  -6.842  0.00  0.00    +0.000 A 
ENDBRANCH   1   6
BRANCH   1   9
ATOM      9  C   UNL     1      34.864   5.782  -6.017  0.00  0.00    +0.000 C 
BRANCH   9  10
ATOM     10  C   UNL     1      35.103   6.903  -4.977  0.00  0.00    +0.000 C 
ATOM     11  C   UNL     1      36.431   7.607  -5.229  0.00  0.00    +0.000 C 
BRANCH  10  12
ATOM     12  O   UNL     1      34.060   7.887  -5.033  0.00  0.00    +0.000 OA
ATOM     13  H   UNL     1      33.324   7.517  -5.547  0.00  0.00    +0.000 HD
ENDBRANCH  10  12
ENDBRANCH   9  10
ENDBRANCH   1   9
BRANCH   1  14
ATOM     14  C   UNL     1      35.234   3.926  -4.381  0.00  0.00    +0.000 C 
BRANCH  14  15
ATOM     15  C   UNL     1      36.607   3.514  -4.965  0.00  0.00    +0.000 C 
ATOM     16  C   UNL     1      37.784   4.150  -4.236  0.00  0.00    +0.000 C 
BRANCH  15  17
ATOM     17  O   UNL     1      36.786   2.098  -4.942  0.00  0.00    +0.000 OA
ATOM     18  H   UNL     1      37.398   1.909  -5.682  0.00  0.00    +0.000 HD
ENDBRANCH  15  17
ENDBRANCH  14  15
ENDBRANCH   1  14
TORSDOF 7
ENDMDL
MODEL 4
REMARK VINA RESULT:    -5.757      3.054      5.775
REMARK INTER + INTRA:          -8.087
REMARK INTER:                  -7.567
REMARK INTRA:                  -0.520
REMARK UNBOUND:                -0.311
REMARK  Name = 
REMARK  10 active torsions:
REMARK  status: ('A' for Active; 'I' for Inactive)
REMARK    1  A    between atoms: C_1  and  C_2
REMARK    2  A    between atoms: C_5  and  N_8
REMARK    3  A    between atoms: N_8  and  C_9
REMARK    4  A    between atoms: N_8  and  C_13
REMARK    5  A    between atoms: C_9  and  C_10
REMARK    6  A    between atoms: C_10  and  C_11
REMARK    7  A    between atoms: C_10  and  O_12
REMARK    8  A    between atoms: C_13  and  C_14
REMARK    9  A    between atoms: C_14  and  C_15
REMARK   10  A    between atoms: C_14  and  O_16
REMARK                            x       y       z     vdW  Elec       q    Type
REMARK                         _______ _______ _______ _____ _____    ______ ____
ROOT
ATOM      1  N   UNL     1      34.854   4.887  -5.444  0.00  0.00    +0.000 N 
ENDROOT
BRANCH   1   6
ATOM      2  C   UNL     1      30.560   1.780  -7.731  0.00  0.00    +0.000 C 
ATOM      3  C   UNL     1      31.662   2.587  -7.116  0.00  0.00    +0.000 A 
ATOM      4  C   UNL     1      31.649   3.976  -7.174  0.00  0.00    +0.000 A 
ATOM      5  C   UNL     1      32.700   4.726  -6.622  0.00  0.00    +0.000 A 
ATOM      6  C   UNL     1      33.819   4.133  -6.010  0.00  0.00    +0.000 A 
ATOM      7  C   UNL     1      33.798   2.726  -5.967  0.00  0.00    +0.000 A 
ATOM      8  C   UNL     1      32.752   1.964  -6.513  0.00  0.00    +0.000 A 
ENDBRANCH   1   6
BRANCH   1   9
ATOM      9  C   UNL     1      35.264   4.651  -4.038  0.00  0.00    +0.000 C 
BRANCH   9  10
ATOM     10  C   UNL     1      36.605   3.885  -3.925  0.00  0.00    +0.000 C 
ATOM     11  C   UNL     1      36.410   2.545  -3.225  0.00  0.00    +0.000 C 
BRANCH  10  12
ATOM     12  O   UNL     1      37.164   3.631  -5.221  0.00  0.00    +0.000 OA
ATOM     13  H   UNL     1      37.955   3.079  -5.106  0.00  0.00    +0.000 HD
ENDBRANCH  10  12
ENDBRANCH   9  10
ENDBRANCH   1   9
BRANCH   1  14
ATOM     14  C   UNL     1      35.216   6.223  -5.983  0.00  0.00    +0.000 C 
BRANCH  14  15
ATOM     15  C   UNL     1      35.070   7.340  -4.922  0.00  0.00    +0.000 C 
ATOM     16  C   UNL     1      36.221   8.339  -4.940  0.00  0.00    +0.000 C 
BRANCH  15  17
ATOM     17  O   UNL     1      33.853   8.067  -5.084  0.00  0.00    +0.000 OA
ATOM     18  H   UNL     1      33.223   7.423  -5.467  0.00  0.00    +0.000 HD
ENDBRANCH  15  17
ENDBRANCH  14  15
ENDBRANCH   1  14
TORSDOF 7
ENDMDL
MODEL 5
REMARK VINA RESULT:    -5.726      2.913      5.889
REMARK INTER + INTRA:          -8.045
REMARK INTER:                  -7.532
REMARK INTRA:                  -0.514
REMARK UNBOUND:                -0.311
REMARK  Name = 
REMARK  10 active torsions:
REMARK  status: ('A' for Active; 'I' for Inactive)
REMARK    1  A    between atoms: C_1  and  C_2
REMARK    2  A    between atoms: C_5  and  N_8
REMARK    3  A    between atoms: N_8  and  C_9
REMARK    4  A    between atoms: N_8  and  C_13
REMARK    5  A    between atoms: C_9  and  C_10
REMARK    6  A    between atoms: C_10  and  C_11
REMARK    7  A    between atoms: C_10  and  O_12
REMARK    8  A    between atoms: C_13  and  C_14
REMARK    9  A    between atoms: C_14  and  C_15
REMARK   10  A    between atoms: C_14  and  O_16
REMARK                            x       y       z     vdW  Elec       q    Type
REMARK                         _______ _______ _______ _____ _____    ______ ____
ROOT
ATOM      1  N   UNL     1      34.418   4.412  -5.272  0.00  0.00    +0.000 N 
ENDROOT
BRANCH   1   6
ATOM      2  C   UNL     1      30.339   1.499  -8.137  0.00  0.00    +0.000 C 
ATOM      3  C   UNL     1      31.411   2.258  -7.415  0.00  0.00    +0.000 A 
ATOM      4  C   UNL     1      32.467   1.592  -6.801  0.00  0.00    +0.000 A 
ATOM      5  C   UNL     1      33.453   2.306  -6.100  0.00  0.00    +0.000 A 
ATOM      6  C   UNL     1      33.422   3.705  -5.956  0.00  0.00    +0.000 A 
ATOM      7  C   UNL     1      32.341   4.345  -6.591  0.00  0.00    +0.000 A 
ATOM      8  C   UNL     1      31.350   3.643  -7.297  0.00  0.00    +0.000 A 
ENDBRANCH   1   6
BRANCH   1   9
ATOM      9  C   UNL     1      34.999   5.641  -5.866  0.00  0.00    +0.000 C 
BRANCH   9  10
ATOM     10  C   UNL     1      35.295   6.735  -4.811  0.00  0.00    +0.000 C 
ATOM     11  C   UNL     1      36.664   7.362  -5.045  0.00  0.00    +0.000 C 
BRANCH  10  12
ATOM     12  O   UNL     1      34.313   7.779  -4.863  0.00  0.00    +0.000 OA
ATOM     13  H   UNL     1      33.696   7.577  -5.586  0.00  0.00    +0.000 HD
ENDBRANCH  10  12
ENDBRANCH   9  10
ENDBRANCH   1   9
BRANCH   1  14
ATOM     14  C   UNL     1      35.272   3.747  -4.254  0.00  0.00    +0.000 C 
BRANCH  14  15
ATOM     15  C   UNL     1      36.658   3.356  -4.819  0.00  0.00    +0.000 C 
ATOM     16  C   UNL     1      37.816   3.832  -3.950  0.00  0.00    +0.000 C 
BRANCH  15  17
ATOM     17  O   UNL     1      36.781   1.945  -4.985  0.00  0.00    +0.000 OA
ATOM     18  H   UNL     1      37.229   1.829  -5.847  0.00  0.00    +0.000 HD
ENDBRANCH  15  17
ENDBRANCH  14  15
ENDBRANCH   1  14
TORSDOF 7
ENDMDL
MODEL 6
REMARK VINA RESULT:    -5.660      3.237      5.872
REMARK INTER + INTRA:          -7.956
REMARK INTER:                  -7.450
REMARK INTRA:                  -0.506
REMARK UNBOUND:                -0.311
REMARK  Name = 
REMARK  10 active torsions:
REMARK  status: ('A' for Active; 'I' for Inactive)
REMARK    1  A    between atoms: C_1  and  C_2
REMARK    2  A    between atoms: C_5  and  N_8
REMARK    3  A    between atoms: N_8  and  C_9
REMARK    4  A    between atoms: N_8  and  C_13
REMARK    5  A    between atoms: C_9  and  C_10
REMARK    6  A    between atoms: C_10  and  C_11
REMARK    7  A    between atoms: C_10  and  O_12
REMARK    8  A    between atoms: C_13  and  C_14
REMARK    9  A    between atoms: C_14  and  C_15
REMARK   10  A    between atoms: C_14  and  O_16
REMARK                            x       y       z     vdW  Elec       q    Type
REMARK                         _______ _______ _______ _____ _____    ______ ____
ROOT
ATOM      1  N   UNL     1      34.921   4.971  -5.559  0.00  0.00    +0.000 N 
ENDROOT
BRANCH   1   6
ATOM      2  C   UNL     1      30.574   1.786  -7.628  0.00  0.00    +0.000 C 
ATOM      3  C   UNL     1      31.691   2.613  -7.069  0.00  0.00    +0.000 A 
ATOM      4  C   UNL     1      31.658   4.001  -7.143  0.00  0.00    +0.000 A 
ATOM      5  C   UNL     1      32.722   4.770  -6.644  0.00  0.00    +0.000 A 
ATOM      6  C   UNL     1      33.873   4.198  -6.072  0.00  0.00    +0.000 A 
ATOM      7  C   UNL     1      33.871   2.792  -6.012  0.00  0.00    +0.000 A 
ATOM      8  C   UNL     1      32.813   2.011  -6.505  0.00  0.00    +0.000 A 
ENDBRANCH   1   6
BRANCH   1   9
ATOM      9  C   UNL     1      35.151   6.344  -6.070  0.00  0.00    +0.000 C 
BRANCH   9  10
ATOM     10  C   UNL     1      35.009   7.425  -4.971  0.00  0.00    +0.000 C 
ATOM     11  C   UNL     1      36.129   8.454  -5.069  0.00  0.00    +0.000 C 
BRANCH  10  12
ATOM     12  O   UNL     1      33.758   8.118  -5.089  0.00  0.00    +0.000 OA
ATOM     13  H   UNL     1      33.377   8.206  -4.200  0.00  0.00    +0.000 HD
ENDBRANCH  10  12
ENDBRANCH   9  10
ENDBRANCH   1   9
BRANCH   1  14
ATOM     14  C   UNL     1      36.102   4.338  -4.918  0.00  0.00    +0.000 C 
BRANCH  14  15
ATOM     15  C   UNL     1      35.936   4.209  -3.385  0.00  0.00    +0.000 C 
ATOM     16  C   UNL     1      36.357   2.846  -2.848  0.00  0.00    +0.000 C 
BRANCH  15  17
ATOM     17  O   UNL     1      36.680   5.208  -2.688  0.00  0.00    +0.000 OA
ATOM     18  H   UNL     1      36.398   5.127  -1.755  0.00  0.00    +0.000 HD
ENDBRANCH  15  17
ENDBRANCH  14  15
ENDBRANCH   1  14
TORSDOF 7
ENDMDL
MODEL 7
REMARK VINA RESULT:    -5.619      2.627      4.502
REMARK INTER + INTRA:          -7.901
REMARK INTER:                  -7.340
REMARK INTRA:                  -0.561
REMARK UNBOUND:                -0.311
REMARK  Name = 
REMARK  10 active torsions:
REMARK  status: ('A' for Active; 'I' for Inactive)
REMARK    1  A    between atoms: C_1  and  C_2
REMARK    2  A    between atoms: C_5  and  N_8
REMARK    3  A    between atoms: N_8  and  C_9
REMARK    4  A    between atoms: N_8  and  C_13
REMARK    5  A    between atoms: C_9  and  C_10
REMARK    6  A    between atoms: C_10  and  C_11
REMARK    7  A    between atoms: C_10  and  O_12
REMARK    8  A    between atoms: C_13  and  C_14
REMARK    9  A    between atoms: C_14  and  C_15
REMARK   10  A    between atoms: C_14  and  O_16
REMARK                            x       y       z     vdW  Elec       q    Type
REMARK                         _______ _______ _______ _____ _____    ______ ____
ROOT
ATOM      1  N   UNL     1      33.809   3.643  -5.224  0.00  0.00    +0.000 N 
ENDROOT
BRANCH   1   6
ATOM      2  C   UNL     1      36.841   0.529  -1.424  0.00  0.00    +0.000 C 
ATOM      3  C   UNL     1      36.040   1.345  -2.391  0.00  0.00    +0.000 A 
ATOM      4  C   UNL     1      34.939   0.802  -3.044  0.00  0.00    +0.000 A 
ATOM      5  C   UNL     1      34.209   1.562  -3.972  0.00  0.00    +0.000 A 
ATOM      6  C   UNL     1      34.552   2.884  -4.311  0.00  0.00    +0.000 A 
ATOM      7  C   UNL     1      35.670   3.401  -3.631  0.00  0.00    +0.000 A 
ATOM      8  C   UNL     1      36.407   2.653  -2.698  0.00  0.00    +0.000 A 
ENDBRANCH   1   6
BRANCH   1   9
ATOM      9  C   UNL     1      32.386   3.314  -5.478  0.00  0.00    +0.000 C 
BRANCH   9  10
ATOM     10  C   UNL     1      31.882   3.845  -6.843  0.00  0.00    +0.000 C 
ATOM     11  C   UNL     1      30.990   2.819  -7.531  0.00  0.00    +0.000 C 
BRANCH  10  12
ATOM     12  O   UNL     1      31.125   5.053  -6.678  0.00  0.00    +0.000 OA
ATOM     13  H   UNL     1      30.623   5.208  -7.495  0.00  0.00    +0.000 HD
ENDBRANCH  10  12
ENDBRANCH   9  10
ENDBRANCH   1   9
BRANCH   1  14
ATOM     14  C   UNL     1      34.475   4.414  -6.305  0.00  0.00    +0.000 C 
BRANCH  14  15
ATOM     15  C   UNL     1      34.676   5.900  -5.923  0.00  0.00    +0.000 C 
ATOM     16  C   UNL     1      36.035   6.448  -6.342  0.00  0.00    +0.000 C 
BRANCH  15  17
ATOM     17  O   UNL     1      33.669   6.733  -6.495  0.00  0.00    +0.000 OA
ATOM     18  H   UNL     1      33.100   6.995  -5.743  0.00  0.00    +0.000 HD
ENDBRANCH  15  17
ENDBRANCH  14  15
ENDBRANCH   1  14
TORSDOF 7
ENDMDL
MODEL 8
REMARK VINA RESULT:    -5.537      2.169      5.307
REMARK INTER + INTRA:          -7.789
REMARK INTER:                  -7.473
REMARK INTRA:                  -0.316
REMARK UNBOUND:                -0.311
REMARK  Name = 
REMARK  10 active torsions:
REMARK  status: ('A' for Active; 'I' for Inactive)
REMARK    1  A    between atoms: C_1  and  C_2
REMARK    2  A    between atoms: C_5  and  N_8
REMARK    3  A    between atoms: N_8  and  C_9
REMARK    4  A    between atoms: N_8  and  C_13
REMARK    5  A    between atoms: C_9  and  C_10
REMARK    6  A    between atoms: C_10  and  C_11
REMARK    7  A    between atoms: C_10  and  O_12
REMARK    8  A    between atoms: C_13  and  C_14
REMARK    9  A    between atoms: C_14  and  C_15
REMARK   10  A    between atoms: C_14  and  O_16
REMARK                            x       y       z     vdW  Elec       q    Type
REMARK                         _______ _______ _______ _____ _____    ______ ____
ROOT
ATOM      1  N   UNL     1      33.082   2.128  -6.052  0.00  0.00    +0.000 N 
ENDROOT
BRANCH   1   6
ATOM      2  C   UNL     1      28.459   3.336  -2.812  0.00  0.00    +0.000 C 
ATOM      3  C   UNL     1      29.673   3.037  -3.638  0.00  0.00    +0.000 A 
ATOM      4  C   UNL     1      29.967   3.787  -4.772  0.00  0.00    +0.000 A 
ATOM      5  C   UNL     1      31.089   3.484  -5.560  0.00  0.00    +0.000 A 
ATOM      6  C   UNL     1      31.954   2.412  -5.273  0.00  0.00    +0.000 A 
ATOM      7  C   UNL     1      31.628   1.678  -4.118  0.00  0.00    +0.000 A 
ATOM      8  C   UNL     1      30.509   1.972  -3.320  0.00  0.00    +0.000 A 
ENDBRANCH   1   6
BRANCH   1   9
ATOM      9  C   UNL     1      34.306   2.954  -5.917  0.00  0.00    +0.000 C 
BRANCH   9  10
ATOM     10  C   UNL     1      35.343   2.337  -4.947  0.00  0.00    +0.000 C 
ATOM     11  C   UNL     1      35.482   3.184  -3.687  0.00  0.00    +0.000 C 
BRANCH  10  12
ATOM     12  O   UNL     1      34.955   1.014  -4.552  0.00  0.00    +0.000 OA
ATOM     13  H   UNL     1      35.639   0.395  -4.858  0.00  0.00    +0.000 HD
ENDBRANCH  10  12
ENDBRANCH   9  10
ENDBRANCH   1   9
BRANCH   1  14
ATOM     14  C   UNL     1      32.964   1.392  -7.337  0.00  0.00    +0.000 C 
BRANCH  14  15
ATOM     15  C   UNL     1      31.511   0.940  -7.620  0.00  0.00    +0.000 C 
ATOM     16  C   UNL     1      30.865   1.691  -8.778  0.00  0.00    +0.000 C 
BRANCH  15  17
ATOM     17  O   UNL     1      31.439  -0.456  -7.903  0.00  0.00    +0.000 OA
ATOM     18  H   UNL     1      30.761  -0.804  -7.289  0.00  0.00    +0.000 HD
ENDBRANCH  15  17
ENDBRANCH  14  15
ENDBRANCH   1  14
TORSDOF 7
ENDMDL
MODEL 9
REMARK VINA RESULT:    -5.463      3.482      6.246
REMARK INTER + INTRA:          -7.691
REMARK INTER:                  -7.128
REMARK INTRA:                  -0.563
REMARK UNBOUND:                -0.311
REMARK  Name = 
REMARK  10 active torsions:
REMARK  status: ('A' for Active; 'I' for Inactive)
REMARK    1  A    between atoms: C_1  and  C_2
REMARK    2  A    between atoms: C_5  and  N_8
REMARK    3  A    between atoms: N_8  and  C_9
REMARK    4  A    between atoms: N_8  and  C_13
REMARK    5  A    between atoms: C_9  and  C_10
REMARK    6  A    between atoms: C_10  and  C_11
REMARK    7  A    between atoms: C_10  and  O_12
REMARK    8  A    between atoms: C_13  and  C_14
REMARK    9  A    between atoms: C_14  and  C_15
REMARK   10  A    between atoms: C_14  and  O_16
REMARK                            x       y       z     vdW  Elec       q    Type
REMARK                         _______ _______ _______ _____ _____    ______ ____
ROOT
ATOM      1  N   UNL     1      35.877   5.939  -5.607  0.00  0.00    +0.000 N 
ENDROOT
BRANCH   1   6
ATOM      2  C   UNL     1      32.175   1.599  -6.491  0.00  0.00    +0.000 C 
ATOM      3  C   UNL     1      33.146   2.720  -6.284  0.00  0.00    +0.000 A 
ATOM      4  C   UNL     1      34.360   2.505  -5.641  0.00  0.00    +0.000 A 
ATOM      5  C   UNL     1      35.254   3.566  -5.422  0.00  0.00    +0.000 A 
ATOM      6  C   UNL     1      34.974   4.889  -5.810  0.00  0.00    +0.000 A 
ATOM      7  C   UNL     1      33.738   5.070  -6.459  0.00  0.00    +0.000 A 
ATOM      8  C   UNL     1      32.837   4.017  -6.686  0.00  0.00    +0.000 A 
ENDBRANCH   1   6
BRANCH   1   9
ATOM      9  C   UNL     1      37.324   5.734  -5.859  0.00  0.00    +0.000 C 
BRANCH   9  10
ATOM     10  C   UNL     1      37.824   6.478  -7.122  0.00  0.00    +0.000 C 
ATOM     11  C   UNL     1      39.177   5.940  -7.572  0.00  0.00    +0.000 C 
BRANCH  10  12
ATOM     12  O   UNL     1      36.901   6.324  -8.209  0.00  0.00    +0.000 OA
ATOM     13  H   UNL     1      36.162   6.938  -8.066  0.00  0.00    +0.000 HD
ENDBRANCH  10  12
ENDBRANCH   9  10
ENDBRANCH   1   9
BRANCH   1  14
ATOM     14  C   UNL     1      35.557   7.063  -4.690  0.00  0.00    +0.000 C 
BRANCH  14  15
ATOM     15  C   UNL     1      35.228   8.367  -5.456  0.00  0.00    +0.000 C 
ATOM     16  C   UNL     1      36.337   9.408  -5.371  0.00  0.00    +0.000 C 
BRANCH  15  17
ATOM     17  O   UNL     1      34.963   8.115  -6.835  0.00  0.00    +0.000 OA
ATOM     18  H   UNL     1      34.113   8.565  -7.016  0.00  0.00    +0.000 HD
ENDBRANCH  15  17
ENDBRANCH  14  15
ENDBRANCH   1  14
TORSDOF 7
ENDMDL
