MODEL 1
REMARK VINA RESULT:    -4.226      0.000      0.000
REMARK INTER + INTRA:          -4.645
REMARK INTER:                  -4.597
REMARK INTRA:                  -0.048
REMARK UNBOUND:                -0.048
REMARK  Name = 
REMARK  3 active torsions:
REMARK  status: ('A' for Active; 'I' for Inactive)
REMARK    1  A    between atoms: C_1  and  O_2
REMARK    2  A    between atoms: O_2  and  C_3
REMARK    3  A    between atoms: C_8  and  O_9
REMARK                            x       y       z     vdW  Elec       q    Type
REMARK                         _______ _______ _______ _____ _____    ______ ____
ROOT
ATOM      1  C   UNL     1       3.646  22.790  20.313  0.00  0.00    +0.000 A 
ATOM      2  C   UNL     1       4.153  23.176  21.553  0.00  0.00    +0.000 A 
ATOM      3  C   UNL     1       3.364  23.937  22.424  0.00  0.00    +0.000 A 
ATOM      4  C   UNL     1       2.070  24.315  22.060  0.00  0.00    +0.000 A 
ATOM      5  C   UNL     1       1.556  23.932  20.823  0.00  0.00    +0.000 A 
ATOM      6  C   UNL     1       2.346  23.178  19.965  0.00  0.00    +0.000 A 
ENDROOT
BRANCH   1   8
ATOM      7  C   UNL     1       5.615  22.476  19.020  0.00  0.00    +0.000 C 
ATOM      8  O   UNL     1       4.303  22.048  19.364  0.00  0.00    +0.000 OA
ENDBRANCH   1   8
BRANCH   6   9
ATOM      9  O   UNL     1       1.820  22.813  18.755  0.00  0.00    +0.000 OA
ATOM     10  H   UNL     1       2.545  22.345  18.299  0.00  0.00    +0.000 HD
ENDBRANCH   6   9
TORSDOF 2
ENDMDL
MODEL 2
REMARK VINA RESULT:    -3.767      1.642      3.345
REMARK INTER + INTRA:          -4.146
REMARK INTER:                  -4.103
REMARK INTRA:                  -0.042
REMARK UNBOUND:                -0.048
REMARK  Name = 
REMARK  3 active torsions:
REMARK  status: ('A' for Active; 'I' for Inactive)
REMARK    1  A    between atoms: C_1  and  O_2
REMARK    2  A    between atoms: O_2  and  C_3
REMARK    3  A    between atoms: C_8  and  O_9
REMARK                            x       y       z     vdW  Elec       q    Type
REMARK                         _______ _______ _______ _____ _____    ______ ____
ROOT
ATOM      1  C   UNL     1       3.920  23.781  20.844  0.00  0.00    +0.000 A 
ATOM      2  C   UNL     1       5.185  24.315  20.598  0.00  0.00    +0.000 A 
ATOM      3  C   UNL     1       6.031  23.706  19.663  0.00  0.00    +0.000 A 
ATOM      4  C   UNL     1       5.619  22.565  18.972  0.00  0.00    +0.000 A 
ATOM      5  C   UNL     1       4.357  22.026  19.212  0.00  0.00    +0.000 A 
ATOM      6  C   UNL     1       3.524  22.636  20.142  0.00  0.00    +0.000 A 
ENDROOT
BRANCH   1   8
ATOM      7  C   UNL     1       3.243  24.033  23.108  0.00  0.00    +0.000 C 
ATOM      8  O   UNL     1       2.992  24.270  21.728  0.00  0.00    +0.000 OA
ENDBRANCH   1   8
BRANCH   6   9
ATOM      9  O   UNL     1       2.288  22.088  20.360  0.00  0.00    +0.000 OA
ATOM     10  H   UNL     1       1.677  22.635  19.830  0.00  0.00    +0.000 HD
ENDBRANCH   6   9
TORSDOF 2
ENDMDL
MODEL 3
REMARK VINA RESULT:    -3.635      2.089      4.511
REMARK INTER + INTRA:          -4.002
REMARK INTER:                  -3.952
REMARK INTRA:                  -0.050
REMARK UNBOUND:                -0.048
REMARK  Name = 
REMARK  3 active torsions:
REMARK  status: ('A' for Active; 'I' for Inactive)
REMARK    1  A    between atoms: C_1  and  O_2
REMARK    2  A    between atoms: O_2  and  C_3
REMARK    3  A    between atoms: C_8  and  O_9
REMARK                            x       y       z     vdW  Elec       q    Type
REMARK                         _______ _______ _______ _____ _____    ______ ____
ROOT
ATOM      1  C   UNL     1       6.043  23.045  19.509  0.00  0.00    +0.000 A 
ATOM      2  C   UNL     1       7.354  23.177  19.964  0.00  0.00    +0.000 A 
ATOM      3  C   UNL     1       8.294  22.175  19.690  0.00  0.00    +0.000 A 
ATOM      4  C   UNL     1       7.928  21.041  18.964  0.00  0.00    +0.000 A 
ATOM      5  C   UNL     1       6.620  20.902  18.505  0.00  0.00    +0.000 A 
ATOM      6  C   UNL     1       5.694  21.900  18.781  0.00  0.00    +0.000 A 
ENDROOT
BRANCH   1   8
ATOM      7  C   UNL     1       4.507  24.041  21.024  0.00  0.00    +0.000 C 
ATOM      8  O   UNL     1       5.023  23.942  19.702  0.00  0.00    +0.000 OA
ENDBRANCH   1   8
BRANCH   6   9
ATOM      9  O   UNL     1       4.415  21.741  18.320  0.00  0.00    +0.000 OA
ATOM     10  H   UNL     1       3.925  21.359  19.073  0.00  0.00    +0.000 HD
ENDBRANCH   6   9
TORSDOF 2
ENDMDL
MODEL 4
REMARK VINA RESULT:    -3.436      2.042      3.712
REMARK INTER + INTRA:          -3.786
REMARK INTER:                  -3.740
REMARK INTRA:                  -0.046
REMARK UNBOUND:                -0.048
REMARK  Name = 
REMARK  3 active torsions:
REMARK  status: ('A' for Active; 'I' for Inactive)
REMARK    1  A    between atoms: C_1  and  O_2
REMARK    2  A    between atoms: O_2  and  C_3
REMARK    3  A    between atoms: C_8  and  O_9
REMARK                            x       y       z     vdW  Elec       q    Type
REMARK                         _______ _______ _______ _____ _____    ______ ____
ROOT
ATOM      1  C   UNL     1       2.972  23.718  22.379  0.00  0.00    +0.000 A 
ATOM      2  C   UNL     1       1.844  24.315  21.817  0.00  0.00    +0.000 A 
ATOM      3  C   UNL     1       1.452  23.981  20.515  0.00  0.00    +0.000 A 
ATOM      4  C   UNL     1       2.182  23.052  19.772  0.00  0.00    +0.000 A 
ATOM      5  C   UNL     1       3.310  22.451  20.327  0.00  0.00    +0.000 A 
ATOM      6  C   UNL     1       3.692  22.788  21.619  0.00  0.00    +0.000 A 
ENDROOT
BRANCH   1   8
ATOM      7  C   UNL     1       2.525  23.974  24.699  0.00  0.00    +0.000 C 
ATOM      8  O   UNL     1       3.470  23.949  23.636  0.00  0.00    +0.000 OA
ENDBRANCH   1   8
BRANCH   6   9
ATOM      9  O   UNL     1       4.804  22.184  22.143  0.00  0.00    +0.000 OA
ATOM     10  H   UNL     1       4.524  21.268  22.328  0.00  0.00    +0.000 HD
ENDBRANCH   6   9
TORSDOF 2
ENDMDL
MODEL 5
REMARK VINA RESULT:    -3.395      9.542     10.384
REMARK INTER + INTRA:          -3.741
REMARK INTER:                  -3.689
REMARK INTRA:                  -0.052
REMARK UNBOUND:                -0.048
REMARK  Name = 
REMARK  3 active torsions:
REMARK  status: ('A' for Active; 'I' for Inactive)
REMARK    1  A    between atoms: C_1  and  O_2
REMARK    2  A    between atoms: O_2  and  C_3
REMARK    3  A    between atoms: C_8  and  O_9
REMARK                            x       y       z     vdW  Elec       q    Type
REMARK                         _______ _______ _______ _____ _____    ______ ____
ROOT
ATOM      1  C   UNL     1       0.203  14.877  15.532  0.00  0.00    +0.000 A 
ATOM      2  C   UNL     1       1.283  14.664  14.676  0.00  0.00    +0.000 A 
ATOM      3  C   UNL     1       1.339  15.325  13.442  0.00  0.00    +0.000 A 
ATOM      4  C   UNL     1       0.319  16.198  13.060  0.00  0.00    +0.000 A 
ATOM      5  C   UNL     1      -0.763  16.417  13.909  0.00  0.00    +0.000 A 
ATOM      6  C   UNL     1      -0.811  15.757  15.131  0.00  0.00    +0.000 A 
ENDROOT
BRANCH   1   8
ATOM      7  C   UNL     1       0.969  14.629  17.767  0.00  0.00    +0.000 C 
ATOM      8  O   UNL     1       0.017  14.301  16.762  0.00  0.00    +0.000 OA
ENDBRANCH   1   8
BRANCH   6   9
ATOM      9  O   UNL     1      -1.884  15.988  15.949  0.00  0.00    +0.000 OA
ATOM     10  H   UNL     1      -1.937  15.197  16.518  0.00  0.00    +0.000 HD
ENDBRANCH   6   9
TORSDOF 2
ENDMDL
MODEL 6
REMARK VINA RESULT:    -3.324     10.124     10.494
REMARK INTER + INTRA:          -3.664
REMARK INTER:                  -3.626
REMARK INTRA:                  -0.038
REMARK UNBOUND:                -0.048
REMARK  Name = 
REMARK  3 active torsions:
REMARK  status: ('A' for Active; 'I' for Inactive)
REMARK    1  A    between atoms: C_1  and  O_2
REMARK    2  A    between atoms: O_2  and  C_3
REMARK    3  A    between atoms: C_8  and  O_9
REMARK                            x       y       z     vdW  Elec       q    Type
REMARK                         _______ _______ _______ _____ _____    ______ ____
ROOT
ATOM      1  C   UNL     1      -0.192  15.982  14.311  0.00  0.00    +0.000 A 
ATOM      2  C   UNL     1       1.014  15.410  13.908  0.00  0.00    +0.000 A 
ATOM      3  C   UNL     1       1.603  14.402  14.681  0.00  0.00    +0.000 A 
ATOM      4  C   UNL     1       0.991  13.963  15.857  0.00  0.00    +0.000 A 
ATOM      5  C   UNL     1      -0.214  14.529  16.266  0.00  0.00    +0.000 A 
ATOM      6  C   UNL     1      -0.791  15.529  15.493  0.00  0.00    +0.000 A 
ENDROOT
BRANCH   1   8
ATOM      7  C   UNL     1      -0.525  17.198  12.297  0.00  0.00    +0.000 C 
ATOM      8  O   UNL     1      -0.879  16.973  13.656  0.00  0.00    +0.000 OA
ENDBRANCH   1   8
BRANCH   6   9
ATOM      9  O   UNL     1      -1.976  16.070  15.915  0.00  0.00    +0.000 OA
ATOM     10  H   UNL     1      -1.718  16.790  16.522  0.00  0.00    +0.000 HD
ENDBRANCH   6   9
TORSDOF 2
ENDMDL
MODEL 7
REMARK VINA RESULT:    -3.246     18.950     20.196
REMARK INTER + INTRA:          -3.579
REMARK INTER:                  -3.528
REMARK INTRA:                  -0.051
REMARK UNBOUND:                -0.048
REMARK  Name = 
REMARK  3 active torsions:
REMARK  status: ('A' for Active; 'I' for Inactive)
REMARK    1  A    between atoms: C_1  and  O_2
REMARK    2  A    between atoms: O_2  and  C_3
REMARK    3  A    between atoms: C_8  and  O_9
REMARK                            x       y       z     vdW  Elec       q    Type
REMARK                         _______ _______ _______ _____ _____    ______ ____
ROOT
ATOM      1  C   UNL     1      14.051   7.213  15.809  0.00  0.00    +0.000 A 
ATOM      2  C   UNL     1      14.493   5.984  15.321  0.00  0.00    +0.000 A 
ATOM      3  C   UNL     1      14.975   5.884  14.009  0.00  0.00    +0.000 A 
ATOM      4  C   UNL     1      15.016   7.008  13.183  0.00  0.00    +0.000 A 
ATOM      5  C   UNL     1      14.577   8.240  13.664  0.00  0.00    +0.000 A 
ATOM      6  C   UNL     1      14.100   8.329  14.965  0.00  0.00    +0.000 A 
ENDROOT
BRANCH   1   8
ATOM      7  C   UNL     1      12.440   6.672  17.470  0.00  0.00    +0.000 C 
ATOM      8  O   UNL     1      13.556   7.456  17.065  0.00  0.00    +0.000 OA
ENDBRANCH   1   8
BRANCH   6   9
ATOM      9  O   UNL     1      13.674   9.551  15.415  0.00  0.00    +0.000 OA
ATOM     10  H   UNL     1      12.909   9.351  15.988  0.00  0.00    +0.000 HD
ENDBRANCH   6   9
TORSDOF 2
ENDMDL
MODEL 8
REMARK VINA RESULT:    -3.244     19.183     21.008
REMARK INTER + INTRA:          -3.577
REMARK INTER:                  -3.527
REMARK INTRA:                  -0.051
REMARK UNBOUND:                -0.048
REMARK  Name = 
REMARK  3 active torsions:
REMARK  status: ('A' for Active; 'I' for Inactive)
REMARK    1  A    between atoms: C_1  and  O_2
REMARK    2  A    between atoms: O_2  and  C_3
REMARK    3  A    between atoms: C_8  and  O_9
REMARK                            x       y       z     vdW  Elec       q    Type
REMARK                         _______ _______ _______ _____ _____    ______ ____
ROOT
ATOM      1  C   UNL     1      14.333   6.976  16.234  0.00  0.00    +0.000 A 
ATOM      2  C   UNL     1      14.001   6.458  14.983  0.00  0.00    +0.000 A 
ATOM      3  C   UNL     1      15.002   5.941  14.151  0.00  0.00    +0.000 A 
ATOM      4  C   UNL     1      16.336   5.941  14.565  0.00  0.00    +0.000 A 
ATOM      5  C   UNL     1      16.676   6.457  15.813  0.00  0.00    +0.000 A 
ATOM      6  C   UNL     1      15.676   6.968  16.631  0.00  0.00    +0.000 A 
ENDROOT
BRANCH   1   8
ATOM      7  C   UNL     1      12.376   6.686  17.550  0.00  0.00    +0.000 C 
ATOM      8  O   UNL     1      13.461   7.513  17.147  0.00  0.00    +0.000 OA
ENDBRANCH   1   8
BRANCH   6   9
ATOM      9  O   UNL     1      16.034   7.469  17.854  0.00  0.00    +0.000 OA
ATOM     10  H   UNL     1      15.925   6.721  18.471  0.00  0.00    +0.000 HD
ENDBRANCH   6   9
TORSDOF 2
ENDMDL
MODEL 9
REMARK VINA RESULT:    -3.235      1.083      2.240
REMARK INTER + INTRA:          -3.567
REMARK INTER:                  -3.710
REMARK INTRA:                   0.144
REMARK UNBOUND:                -0.048
REMARK  Name = 
REMARK  3 active torsions:
REMARK  status: ('A' for Active; 'I' for Inactive)
REMARK    1  A    between atoms: C_1  and  O_2
REMARK    2  A    between atoms: O_2  and  C_3
REMARK    3  A    between atoms: C_8  and  O_9
REMARK                            x       y       z     vdW  Elec       q    Type
REMARK                         _______ _______ _______ _____ _____    ______ ____
ROOT
ATOM      1  C   UNL     1       3.516  22.861  20.459  0.00  0.00    +0.000 A 
ATOM      2  C   UNL     1       2.439  23.624  20.010  0.00  0.00    +0.000 A 
ATOM      3  C   UNL     1       1.639  24.315  20.930  0.00  0.00    +0.000 A 
ATOM      4  C   UNL     1       1.911  24.245  22.297  0.00  0.00    +0.000 A 
ATOM      5  C   UNL     1       2.986  23.484  22.753  0.00  0.00    +0.000 A 
ATOM      6  C   UNL     1       3.773  22.803  21.834  0.00  0.00    +0.000 A 
ENDROOT
BRANCH   1   8
ATOM      7  C   UNL     1       5.613  22.760  19.347  0.00  0.00    +0.000 C 
ATOM      8  O   UNL     1       4.378  22.136  19.676  0.00  0.00    +0.000 OA
ENDBRANCH   1   8
BRANCH   6   9
ATOM      9  O   UNL     1       4.823  22.062  22.307  0.00  0.00    +0.000 OA
ATOM     10  H   UNL     1       5.249  22.632  22.975  0.00  0.00    +0.000 HD
ENDBRANCH   6   9
TORSDOF 2
ENDMDL
