MODEL 1
REMARK VINA RESULT:    -6.852      0.000      0.000
REMARK INTER + INTRA:          -9.584
REMARK INTER:                  -9.255
REMARK INTRA:                  -0.329
REMARK UNBOUND:                -0.329
REMARK  Name = 
REMARK  10 active torsions:
REMARK  status: ('A' for Active; 'I' for Inactive)
REMARK    1  A    between atoms: C_1  and  C_2
REMARK    2  A    between atoms: C_5  and  N_8
REMARK    3  A    between atoms: N_8  and  C_9
REMARK    4  A    between atoms: N_8  and  C_13
REMARK    5  A    between atoms: C_9  and  C_10
REMARK    6  A    between atoms: C_10  and  C_11
REMARK    7  A    between atoms: C_10  and  O_12
REMARK    8  A    between atoms: C_13  and  C_14
REMARK    9  A    between atoms: C_14  and  C_15
REMARK   10  A    between atoms: C_14  and  O_16
REMARK                            x       y       z     vdW  Elec       q    Type
REMARK                         _______ _______ _______ _____ _____    ______ ____
ROOT
ATOM      1  N   UNL     1      31.878   2.642  -5.568  0.00  0.00    +0.000 N 
ENDROOT
BRANCH   1   6
ATOM      2  C   UNL     1      37.071   5.080  -6.211  0.00  0.00    +0.000 C 
ATOM      3  C   UNL     1      35.720   4.461  -6.024  0.00  0.00    +0.000 A 
ATOM      4  C   UNL     1      35.568   3.283  -5.301  0.00  0.00    +0.000 A 
ATOM      5  C   UNL     1      34.303   2.691  -5.154  0.00  0.00    +0.000 A 
ATOM      6  C   UNL     1      33.140   3.227  -5.735  0.00  0.00    +0.000 A 
ATOM      7  C   UNL     1      33.330   4.419  -6.457  0.00  0.00    +0.000 A 
ATOM      8  C   UNL     1      34.590   5.023  -6.610  0.00  0.00    +0.000 A 
ENDBRANCH   1   6
BRANCH   1   9
ATOM      9  C   UNL     1      30.877   2.710  -6.659  0.00  0.00    +0.000 C 
BRANCH   9  10
ATOM     10  C   UNL     1      30.853   1.433  -7.533  0.00  0.00    +0.000 C 
ATOM     11  C   UNL     1      30.773   1.786  -9.013  0.00  0.00    +0.000 C 
BRANCH  10  12
ATOM     12  O   UNL     1      32.034   0.646  -7.327  0.00  0.00    +0.000 OA
ATOM     13  H   UNL     1      31.759  -0.267  -7.140  0.00  0.00    +0.000 HD
ENDBRANCH  10  12
ENDBRANCH   9  10
ENDBRANCH   1   9
BRANCH   1  14
ATOM     14  C   UNL     1      31.312   2.408  -4.215  0.00  0.00    +0.000 C 
BRANCH  14  15
ATOM     15  C   UNL     1      29.819   2.803  -4.130  0.00  0.00    +0.000 C 
ATOM     16  C   UNL     1      29.065   2.067  -3.028  0.00  0.00    +0.000 C 
BRANCH  15  17
ATOM     17  O   UNL     1      29.656   4.204  -3.916  0.00  0.00    +0.000 OA
ATOM     18  H   UNL     1      30.563   4.571  -3.941  0.00  0.00    +0.000 HD
ENDBRANCH  15  17
ENDBRANCH  14  15
ENDBRANCH   1  14
TORSDOF 7
ENDMDL
MODEL 2
REMARK VINA RESULT:    -6.631      0.498      3.543
REMARK INTER + INTRA:          -9.286
REMARK INTER:                  -9.059
REMARK INTRA:                  -0.227
REMARK UNBOUND:                -0.329
REMARK  Name = 
REMARK  10 active torsions:
REMARK  status: ('A' for Active; 'I' for Inactive)
REMARK    1  A    between atoms: C_1  and  C_2
REMARK    2  A    between atoms: C_5  and  N_8
REMARK    3  A    between atoms: N_8  and  C_9
REMARK    4  A    between atoms: N_8  and  C_13
REMARK    5  A    between atoms: C_9  and  C_10
REMARK    6  A    between atoms: C_10  and  C_11
REMARK    7  A    between atoms: C_10  and  O_12
REMARK    8  A    between atoms: C_13  and  C_14
REMARK    9  A    between atoms: C_14  and  C_15
REMARK   10  A    between atoms: C_14  and  O_16
REMARK                            x       y       z     vdW  Elec       q    Type
REMARK                         _______ _______ _______ _____ _____    ______ ____
ROOT
ATOM      1  N   UNL     1      31.969   3.221  -5.656  0.00  0.00    +0.000 N 
ENDROOT
BRANCH   1   6
ATOM      2  C   UNL     1      37.556   4.673  -5.619  0.00  0.00    +0.000 C 
ATOM      3  C   UNL     1      36.111   4.280  -5.647  0.00  0.00    +0.000 A 
ATOM      4  C   UNL     1      35.194   4.984  -6.421  0.00  0.00    +0.000 A 
ATOM      5  C   UNL     1      33.835   4.630  -6.420  0.00  0.00    +0.000 A 
ATOM      6  C   UNL     1      33.322   3.581  -5.637  0.00  0.00    +0.000 A 
ATOM      7  C   UNL     1      34.277   2.889  -4.869  0.00  0.00    +0.000 A 
ATOM      8  C   UNL     1      35.640   3.231  -4.862  0.00  0.00    +0.000 A 
ENDBRANCH   1   6
BRANCH   1   9
ATOM      9  C   UNL     1      31.388   2.451  -4.530  0.00  0.00    +0.000 C 
BRANCH   9  10
ATOM     10  C   UNL     1      29.905   2.806  -4.261  0.00  0.00    +0.000 C 
ATOM     11  C   UNL     1      29.386   2.082  -3.025  0.00  0.00    +0.000 C 
BRANCH  10  12
ATOM     12  O   UNL     1      29.743   4.216  -4.051  0.00  0.00    +0.000 OA
ATOM     13  H   UNL     1      29.084   4.542  -4.686  0.00  0.00    +0.000 HD
ENDBRANCH  10  12
ENDBRANCH   9  10
ENDBRANCH   1   9
BRANCH   1  14
ATOM     14  C   UNL     1      31.218   3.120  -6.934  0.00  0.00    +0.000 C 
BRANCH  14  15
ATOM     15  C   UNL     1      31.240   1.684  -7.512  0.00  0.00    +0.000 C 
ATOM     16  C   UNL     1      30.784   1.616  -8.965  0.00  0.00    +0.000 C 
BRANCH  15  17
ATOM     17  O   UNL     1      32.540   1.102  -7.429  0.00  0.00    +0.000 OA
ATOM     18  H   UNL     1      32.949   1.273  -8.301  0.00  0.00    +0.000 HD
ENDBRANCH  15  17
ENDBRANCH  14  15
ENDBRANCH   1  14
TORSDOF 7
ENDMDL
MODEL 3
REMARK VINA RESULT:    -6.087      1.594      2.062
REMARK INTER + INTRA:          -8.551
REMARK INTER:                  -8.130
REMARK INTRA:                  -0.420
REMARK UNBOUND:                -0.329
REMARK  Name = 
REMARK  10 active torsions:
REMARK  status: ('A' for Active; 'I' for Inactive)
REMARK    1  A    between atoms: C_1  and  C_2
REMARK    2  A    between atoms: C_5  and  N_8
REMARK    3  A    between atoms: N_8  and  C_9
REMARK    4  A    between atoms: N_8  and  C_13
REMARK    5  A    between atoms: C_9  and  C_10
REMARK    6  A    between atoms: C_10  and  C_11
REMARK    7  A    between atoms: C_10  and  O_12
REMARK    8  A    between atoms: C_13  and  C_14
REMARK    9  A    between atoms: C_14  and  C_15
REMARK   10  A    between atoms: C_14  and  O_16
REMARK                            x       y       z     vdW  Elec       q    Type
REMARK                         _______ _______ _______ _____ _____    ______ ____
ROOT
ATOM      1  N   UNL     1      31.921   2.940  -5.594  0.00  0.00    +0.000 N 
ENDROOT
BRANCH   1   6
ATOM      2  C   UNL     1      36.945   2.144  -2.864  0.00  0.00    +0.000 C 
ATOM      3  C   UNL     1      35.631   2.357  -3.551  0.00  0.00    +0.000 A 
ATOM      4  C   UNL     1      34.720   1.316  -3.690  0.00  0.00    +0.000 A 
ATOM      5  C   UNL     1      33.502   1.514  -4.362  0.00  0.00    +0.000 A 
ATOM      6  C   UNL     1      33.145   2.744  -4.943  0.00  0.00    +0.000 A 
ATOM      7  C   UNL     1      34.089   3.775  -4.781  0.00  0.00    +0.000 A 
ATOM      8  C   UNL     1      35.309   3.591  -4.110  0.00  0.00    +0.000 A 
ENDBRANCH   1   6
BRANCH   1   9
ATOM      9  C   UNL     1      31.857   2.933  -7.076  0.00  0.00    +0.000 C 
BRANCH   9  10
ATOM     10  C   UNL     1      31.376   1.578  -7.649  0.00  0.00    +0.000 C 
ATOM     11  C   UNL     1      30.704   1.767  -9.004  0.00  0.00    +0.000 C 
BRANCH  10  12
ATOM     12  O   UNL     1      32.475   0.672  -7.820  0.00  0.00    +0.000 OA
ATOM     13  H   UNL     1      33.222   1.002  -7.293  0.00  0.00    +0.000 HD
ENDBRANCH  10  12
ENDBRANCH   9  10
ENDBRANCH   1   9
BRANCH   1  14
ATOM     14  C   UNL     1      30.798   3.646  -4.924  0.00  0.00    +0.000 C 
BRANCH  14  15
ATOM     15  C   UNL     1      30.347   2.929  -3.629  0.00  0.00    +0.000 C 
ATOM     16  C   UNL     1      29.151   3.595  -2.960  0.00  0.00    +0.000 C 
BRANCH  15  17
ATOM     17  O   UNL     1      30.013   1.563  -3.872  0.00  0.00    +0.000 OA
ATOM     18  H   UNL     1      29.420   1.582  -4.649  0.00  0.00    +0.000 HD
ENDBRANCH  15  17
ENDBRANCH  14  15
ENDBRANCH   1  14
TORSDOF 7
ENDMDL
MODEL 4
REMARK VINA RESULT:    -5.751      3.045      5.772
REMARK INTER + INTRA:          -8.098
REMARK INTER:                  -7.595
REMARK INTRA:                  -0.502
REMARK UNBOUND:                -0.329
REMARK  Name = 
REMARK  10 active torsions:
REMARK  status: ('A' for Active; 'I' for Inactive)
REMARK    1  A    between atoms: C_1  and  C_2
REMARK    2  A    between atoms: C_5  and  N_8
REMARK    3  A    between atoms: N_8  and  C_9
REMARK    4  A    between atoms: N_8  and  C_13
REMARK    5  A    between atoms: C_9  and  C_10
REMARK    6  A    between atoms: C_10  and  C_11
REMARK    7  A    between atoms: C_10  and  O_12
REMARK    8  A    between atoms: C_13  and  C_14
REMARK    9  A    between atoms: C_14  and  C_15
REMARK   10  A    between atoms: C_14  and  O_16
REMARK                            x       y       z     vdW  Elec       q    Type
REMARK                         _______ _______ _______ _____ _____    ______ ____
ROOT
ATOM      1  N   UNL     1      34.309   4.300  -5.414  0.00  0.00    +0.000 N 
ENDROOT
BRANCH   1   6
ATOM      2  C   UNL     1      30.265   1.307  -8.245  0.00  0.00    +0.000 C 
ATOM      3  C   UNL     1      31.302   2.079  -7.489  0.00  0.00    +0.000 A 
ATOM      4  C   UNL     1      31.185   3.455  -7.318  0.00  0.00    +0.000 A 
ATOM      5  C   UNL     1      32.176   4.178  -6.634  0.00  0.00    +0.000 A 
ATOM      6  C   UNL     1      33.334   3.576  -6.112  0.00  0.00    +0.000 A 
ATOM      7  C   UNL     1      33.419   2.184  -6.301  0.00  0.00    +0.000 A 
ATOM      8  C   UNL     1      32.434   1.448  -6.981  0.00  0.00    +0.000 A 
ENDBRANCH   1   6
BRANCH   1   9
ATOM      9  C   UNL     1      35.194   5.244  -6.138  0.00  0.00    +0.000 C 
BRANCH   9  10
ATOM     10  C   UNL     1      34.816   6.726  -5.898  0.00  0.00    +0.000 C 
ATOM     11  C   UNL     1      35.592   7.303  -4.720  0.00  0.00    +0.000 C 
BRANCH  10  12
ATOM     12  O   UNL     1      35.105   7.524  -7.054  0.00  0.00    +0.000 OA
ATOM     13  H   UNL     1      36.071   7.580  -7.148  0.00  0.00    +0.000 HD
ENDBRANCH  10  12
ENDBRANCH   9  10
ENDBRANCH   1   9
BRANCH   1  14
ATOM     14  C   UNL     1      34.840   3.819  -4.113  0.00  0.00    +0.000 C 
BRANCH  14  15
ATOM     15  C   UNL     1      36.304   3.332  -4.224  0.00  0.00    +0.000 C 
ATOM     16  C   UNL     1      37.188   3.824  -3.084  0.00  0.00    +0.000 C 
BRANCH  15  17
ATOM     17  O   UNL     1      36.384   1.908  -4.261  0.00  0.00    +0.000 OA
ATOM     18  H   UNL     1      36.618   1.692  -5.186  0.00  0.00    +0.000 HD
ENDBRANCH  15  17
ENDBRANCH  14  15
ENDBRANCH   1  14
TORSDOF 7
ENDMDL
MODEL 5
REMARK VINA RESULT:    -5.737      3.049      5.763
REMARK INTER + INTRA:          -8.079
REMARK INTER:                  -7.564
REMARK INTRA:                  -0.514
REMARK UNBOUND:                -0.329
REMARK  Name = 
REMARK  10 active torsions:
REMARK  status: ('A' for Active; 'I' for Inactive)
REMARK    1  A    between atoms: C_1  and  C_2
REMARK    2  A    between atoms: C_5  and  N_8
REMARK    3  A    between atoms: N_8  and  C_9
REMARK    4  A    between atoms: N_8  and  C_13
REMARK    5  A    between atoms: C_9  and  C_10
REMARK    6  A    between atoms: C_10  and  C_11
REMARK    7  A    between atoms: C_10  and  O_12
REMARK    8  A    between atoms: C_13  and  C_14
REMARK    9  A    between atoms: C_14  and  C_15
REMARK   10  A    between atoms: C_14  and  O_16
REMARK                            x       y       z     vdW  Elec       q    Type
REMARK                         _______ _______ _______ _____ _____    ______ ____
ROOT
ATOM      1  N   UNL     1      34.843   4.888  -5.482  0.00  0.00    +0.000 N 
ENDROOT
BRANCH   1   6
ATOM      2  C   UNL     1      30.502   1.822  -7.735  0.00  0.00    +0.000 C 
ATOM      3  C   UNL     1      31.617   2.617  -7.128  0.00  0.00    +0.000 A 
ATOM      4  C   UNL     1      31.603   4.008  -7.162  0.00  0.00    +0.000 A 
ATOM      5  C   UNL     1      32.666   4.748  -6.619  0.00  0.00    +0.000 A 
ATOM      6  C   UNL     1      33.796   4.144  -6.039  0.00  0.00    +0.000 A 
ATOM      7  C   UNL     1      33.775   2.737  -6.020  0.00  0.00    +0.000 A 
ATOM      8  C   UNL     1      32.718   1.985  -6.558  0.00  0.00    +0.000 A 
ENDBRANCH   1   6
BRANCH   1   9
ATOM      9  C   UNL     1      35.287   4.622  -4.092  0.00  0.00    +0.000 C 
BRANCH   9  10
ATOM     10  C   UNL     1      36.629   3.852  -4.028  0.00  0.00    +0.000 C 
ATOM     11  C   UNL     1      36.453   2.506  -3.334  0.00  0.00    +0.000 C 
BRANCH  10  12
ATOM     12  O   UNL     1      37.146   3.608  -5.344  0.00  0.00    +0.000 OA
ATOM     13  H   UNL     1      37.012   4.411  -5.874  0.00  0.00    +0.000 HD
ENDBRANCH  10  12
ENDBRANCH   9  10
ENDBRANCH   1   9
BRANCH   1  14
ATOM     14  C   UNL     1      35.189   6.237  -5.999  0.00  0.00    +0.000 C 
BRANCH  14  15
ATOM     15  C   UNL     1      35.034   7.335  -4.920  0.00  0.00    +0.000 C 
ATOM     16  C   UNL     1      36.221   8.289  -4.859  0.00  0.00    +0.000 C 
BRANCH  15  17
ATOM     17  O   UNL     1      33.854   8.110  -5.122  0.00  0.00    +0.000 OA
ATOM     18  H   UNL     1      33.116   7.470  -5.057  0.00  0.00    +0.000 HD
ENDBRANCH  15  17
ENDBRANCH  14  15
ENDBRANCH   1  14
TORSDOF 7
ENDMDL
MODEL 6
REMARK VINA RESULT:    -5.606      2.657      4.520
REMARK INTER + INTRA:          -7.901
REMARK INTER:                  -7.348
REMARK INTRA:                  -0.553
REMARK UNBOUND:                -0.329
REMARK  Name = 
REMARK  10 active torsions:
REMARK  status: ('A' for Active; 'I' for Inactive)
REMARK    1  A    between atoms: C_1  and  C_2
REMARK    2  A    between atoms: C_5  and  N_8
REMARK    3  A    between atoms: N_8  and  C_9
REMARK    4  A    between atoms: N_8  and  C_13
REMARK    5  A    between atoms: C_9  and  C_10
REMARK    6  A    between atoms: C_10  and  C_11
REMARK    7  A    between atoms: C_10  and  O_12
REMARK    8  A    between atoms: C_13  and  C_14
REMARK    9  A    between atoms: C_14  and  C_15
REMARK   10  A    between atoms: C_14  and  O_16
REMARK                            x       y       z     vdW  Elec       q    Type
REMARK                         _______ _______ _______ _____ _____    ______ ____
ROOT
ATOM      1  N   UNL     1      33.820   3.589  -5.201  0.00  0.00    +0.000 N 
ENDROOT
BRANCH   1   6
ATOM      2  C   UNL     1      36.852   0.495  -1.385  0.00  0.00    +0.000 C 
ATOM      3  C   UNL     1      36.051   1.307  -2.357  0.00  0.00    +0.000 A 
ATOM      4  C   UNL     1      34.938   0.766  -2.992  0.00  0.00    +0.000 A 
ATOM      5  C   UNL     1      34.209   1.522  -3.924  0.00  0.00    +0.000 A 
ATOM      6  C   UNL     1      34.563   2.834  -4.285  0.00  0.00    +0.000 A 
ATOM      7  C   UNL     1      35.692   3.349  -3.621  0.00  0.00    +0.000 A 
ATOM      8  C   UNL     1      36.429   2.605  -2.685  0.00  0.00    +0.000 A 
ENDBRANCH   1   6
BRANCH   1   9
ATOM      9  C   UNL     1      32.400   3.252  -5.463  0.00  0.00    +0.000 C 
BRANCH   9  10
ATOM     10  C   UNL     1      31.897   3.788  -6.825  0.00  0.00    +0.000 C 
ATOM     11  C   UNL     1      30.998   2.769  -7.515  0.00  0.00    +0.000 C 
BRANCH  10  12
ATOM     12  O   UNL     1      31.147   4.999  -6.656  0.00  0.00    +0.000 OA
ATOM     13  H   UNL     1      30.314   4.777  -6.207  0.00  0.00    +0.000 HD
ENDBRANCH  10  12
ENDBRANCH   9  10
ENDBRANCH   1   9
BRANCH   1  14
ATOM     14  C   UNL     1      34.486   4.364  -6.278  0.00  0.00    +0.000 C 
BRANCH  14  15
ATOM     15  C   UNL     1      34.671   5.853  -5.898  0.00  0.00    +0.000 C 
ATOM     16  C   UNL     1      36.022   6.417  -6.323  0.00  0.00    +0.000 C 
BRANCH  15  17
ATOM     17  O   UNL     1      33.651   6.673  -6.467  0.00  0.00    +0.000 OA
ATOM     18  H   UNL     1      34.057   7.062  -7.267  0.00  0.00    +0.000 HD
ENDBRANCH  15  17
ENDBRANCH  14  15
ENDBRANCH   1  14
TORSDOF 7
ENDMDL
MODEL 7
REMARK VINA RESULT:    -5.519      3.144      6.318
REMARK INTER + INTRA:          -7.784
REMARK INTER:                  -7.257
REMARK INTRA:                  -0.527
REMARK UNBOUND:                -0.329
REMARK  Name = 
REMARK  10 active torsions:
REMARK  status: ('A' for Active; 'I' for Inactive)
REMARK    1  A    between atoms: C_1  and  C_2
REMARK    2  A    between atoms: C_5  and  N_8
REMARK    3  A    between atoms: N_8  and  C_9
REMARK    4  A    between atoms: N_8  and  C_13
REMARK    5  A    between atoms: C_9  and  C_10
REMARK    6  A    between atoms: C_10  and  C_11
REMARK    7  A    between atoms: C_10  and  O_12
REMARK    8  A    between atoms: C_13  and  C_14
REMARK    9  A    between atoms: C_14  and  C_15
REMARK   10  A    between atoms: C_14  and  O_16
REMARK                            x       y       z     vdW  Elec       q    Type
REMARK                         _______ _______ _______ _____ _____    ______ ____
ROOT
ATOM      1  N   UNL     1      35.258   4.861  -5.296  0.00  0.00    +0.000 N 
ENDROOT
BRANCH   1   6
ATOM      2  C   UNL     1      30.824   2.013  -7.654  0.00  0.00    +0.000 C 
ATOM      3  C   UNL     1      31.987   2.750  -7.064  0.00  0.00    +0.000 A 
ATOM      4  C   UNL     1      32.974   2.075  -6.353  0.00  0.00    +0.000 A 
ATOM      5  C   UNL     1      34.046   2.774  -5.776  0.00  0.00    +0.000 A 
ATOM      6  C   UNL     1      34.175   4.172  -5.857  0.00  0.00    +0.000 A 
ATOM      7  C   UNL     1      33.161   4.822  -6.585  0.00  0.00    +0.000 A 
ATOM      8  C   UNL     1      32.084   4.134  -7.169  0.00  0.00    +0.000 A 
ENDBRANCH   1   6
BRANCH   1   9
ATOM      9  C   UNL     1      35.563   6.246  -5.730  0.00  0.00    +0.000 C 
BRANCH   9  10
ATOM     10  C   UNL     1      35.207   7.303  -4.657  0.00  0.00    +0.000 C 
ATOM     11  C   UNL     1      36.342   8.305  -4.481  0.00  0.00    +0.000 C 
BRANCH  10  12
ATOM     12  O   UNL     1      34.025   8.030  -5.022  0.00  0.00    +0.000 OA
ATOM     13  H   UNL     1      34.056   8.896  -4.582  0.00  0.00    +0.000 HD
ENDBRANCH  10  12
ENDBRANCH   9  10
ENDBRANCH   1   9
BRANCH   1  14
ATOM     14  C   UNL     1      36.398   4.133  -4.683  0.00  0.00    +0.000 C 
BRANCH  14  15
ATOM     15  C   UNL     1      37.762   4.608  -5.240  0.00  0.00    +0.000 C 
ATOM     16  C   UNL     1      38.866   4.624  -4.189  0.00  0.00    +0.000 C 
BRANCH  15  17
ATOM     17  O   UNL     1      38.199   3.796  -6.328  0.00  0.00    +0.000 OA
ATOM     18  H   UNL     1      39.159   3.971  -6.404  0.00  0.00    +0.000 HD
ENDBRANCH  15  17
ENDBRANCH  14  15
ENDBRANCH   1  14
TORSDOF 7
ENDMDL
MODEL 8
REMARK VINA RESULT:    -5.338      3.166      5.831
REMARK INTER + INTRA:          -7.539
REMARK INTER:                  -7.194
REMARK INTRA:                  -0.345
REMARK UNBOUND:                -0.329
REMARK  Name = 
REMARK  10 active torsions:
REMARK  status: ('A' for Active; 'I' for Inactive)
REMARK    1  A    between atoms: C_1  and  C_2
REMARK    2  A    between atoms: C_5  and  N_8
REMARK    3  A    between atoms: N_8  and  C_9
REMARK    4  A    between atoms: N_8  and  C_13
REMARK    5  A    between atoms: C_9  and  C_10
REMARK    6  A    between atoms: C_10  and  C_11
REMARK    7  A    between atoms: C_10  and  O_12
REMARK    8  A    between atoms: C_13  and  C_14
REMARK    9  A    between atoms: C_14  and  C_15
REMARK   10  A    between atoms: C_14  and  O_16
REMARK                            x       y       z     vdW  Elec       q    Type
REMARK                         _______ _______ _______ _____ _____    ______ ____
ROOT
ATOM      1  N   UNL     1      35.768   5.055  -5.664  0.00  0.00    +0.000 N 
ENDROOT
BRANCH   1   6
ATOM      2  C   UNL     1      30.890   2.269  -6.997  0.00  0.00    +0.000 C 
ATOM      3  C   UNL     1      32.165   2.986  -6.674  0.00  0.00    +0.000 A 
ATOM      4  C   UNL     1      33.221   2.324  -6.057  0.00  0.00    +0.000 A 
ATOM      5  C   UNL     1      34.402   3.009  -5.729  0.00  0.00    +0.000 A 
ATOM      6  C   UNL     1      34.580   4.382  -5.976  0.00  0.00    +0.000 A 
ATOM      7  C   UNL     1      33.492   5.019  -6.603  0.00  0.00    +0.000 A 
ATOM      8  C   UNL     1      32.306   4.346  -6.938  0.00  0.00    +0.000 A 
ENDBRANCH   1   6
BRANCH   1   9
ATOM      9  C   UNL     1      36.718   4.471  -4.687  0.00  0.00    +0.000 C 
BRANCH   9  10
ATOM     10  C   UNL     1      37.999   3.914  -5.356  0.00  0.00    +0.000 C 
ATOM     11  C   UNL     1      37.924   2.398  -5.498  0.00  0.00    +0.000 C 
BRANCH  10  12
ATOM     12  O   UNL     1      38.183   4.474  -6.663  0.00  0.00    +0.000 OA
ATOM     13  H   UNL     1      37.531   4.070  -7.259  0.00  0.00    +0.000 HD
ENDBRANCH  10  12
ENDBRANCH   9  10
ENDBRANCH   1   9
BRANCH   1  14
ATOM     14  C   UNL     1      35.894   6.522  -5.858  0.00  0.00    +0.000 C 
BRANCH  14  15
ATOM     15  C   UNL     1      35.422   7.318  -4.618  0.00  0.00    +0.000 C 
ATOM     16  C   UNL     1      36.472   8.292  -4.095  0.00  0.00    +0.000 C 
BRANCH  15  17
ATOM     17  O   UNL     1      34.231   8.055  -4.886  0.00  0.00    +0.000 OA
ATOM     18  H   UNL     1      33.691   7.967  -4.075  0.00  0.00    +0.000 HD
ENDBRANCH  15  17
ENDBRANCH  14  15
ENDBRANCH   1  14
TORSDOF 7
ENDMDL
MODEL 9
REMARK VINA RESULT:    -5.211      2.483      4.032
REMARK INTER + INTRA:          -7.368
REMARK INTER:                  -6.949
REMARK INTRA:                  -0.419
REMARK UNBOUND:                -0.329
REMARK  Name = 
REMARK  10 active torsions:
REMARK  status: ('A' for Active; 'I' for Inactive)
REMARK    1  A    between atoms: C_1  and  C_2
REMARK    2  A    between atoms: C_5  and  N_8
REMARK    3  A    between atoms: N_8  and  C_9
REMARK    4  A    between atoms: N_8  and  C_13
REMARK    5  A    between atoms: C_9  and  C_10
REMARK    6  A    between atoms: C_10  and  C_11
REMARK    7  A    between atoms: C_10  and  O_12
REMARK    8  A    between atoms: C_13  and  C_14
REMARK    9  A    between atoms: C_14  and  C_15
REMARK   10  A    between atoms: C_14  and  O_16
REMARK                            x       y       z     vdW  Elec       q    Type
REMARK                         _______ _______ _______ _____ _____    ______ ____
ROOT
ATOM      1  N   UNL     1      34.006   4.449  -5.469  0.00  0.00    +0.000 N 
ENDROOT
BRANCH   1   6
ATOM      2  C   UNL     1      36.497   9.654  -5.296  0.00  0.00    +0.000 C 
ATOM      3  C   UNL     1      35.833   8.311  -5.324  0.00  0.00    +0.000 A 
ATOM      4  C   UNL     1      36.241   7.294  -4.468  0.00  0.00    +0.000 A 
ATOM      5  C   UNL     1      35.636   6.028  -4.519  0.00  0.00    +0.000 A 
ATOM      6  C   UNL     1      34.618   5.708  -5.436  0.00  0.00    +0.000 A 
ATOM      7  C   UNL     1      34.229   6.760  -6.285  0.00  0.00    +0.000 A 
ATOM      8  C   UNL     1      34.825   8.032  -6.242  0.00  0.00    +0.000 A 
ENDBRANCH   1   6
BRANCH   1   9
ATOM      9  C   UNL     1      34.400   3.404  -4.493  0.00  0.00    +0.000 C 
BRANCH   9  10
ATOM     10  C   UNL     1      35.089   2.189  -5.161  0.00  0.00    +0.000 C 
ATOM     11  C   UNL     1      36.599   2.387  -5.226  0.00  0.00    +0.000 C 
BRANCH  10  12
ATOM     12  O   UNL     1      34.830   0.984  -4.428  0.00  0.00    +0.000 OA
ATOM     13  H   UNL     1      33.929   0.689  -4.641  0.00  0.00    +0.000 HD
ENDBRANCH  10  12
ENDBRANCH   9  10
ENDBRANCH   1   9
BRANCH   1  14
ATOM     14  C   UNL     1      33.368   3.936  -6.709  0.00  0.00    +0.000 C 
BRANCH  14  15
ATOM     15  C   UNL     1      31.824   3.999  -6.641  0.00  0.00    +0.000 C 
ATOM     16  C   UNL     1      31.143   2.874  -7.412  0.00  0.00    +0.000 C 
BRANCH  15  17
ATOM     17  O   UNL     1      31.353   3.961  -5.295  0.00  0.00    +0.000 OA
ATOM     18  H   UNL     1      31.686   4.786  -4.887  0.00  0.00    +0.000 HD
ENDBRANCH  15  17
ENDBRANCH  14  15
ENDBRANCH   1  14
TORSDOF 7
ENDMDL
