MODEL 1
REMARK VINA RESULT:    -5.019      0.000      0.000
REMARK INTER + INTRA:          -5.500
REMARK INTER:                  -5.459
REMARK INTRA:                  -0.042
REMARK UNBOUND:                -0.042
REMARK  Name = 
REMARK  3 active torsions:
REMARK  status: ('A' for Active; 'I' for Inactive)
REMARK    1  A    between atoms: C_1  and  O_2
REMARK    2  A    between atoms: O_2  and  C_3
REMARK    3  A    between atoms: C_8  and  O_9
REMARK                            x       y       z     vdW  Elec       q    Type
REMARK                         _______ _______ _______ _____ _____    ______ ____
ROOT
ATOM      1  C   UNL     1       3.567  13.834   0.008  0.00  0.00    +0.000 A 
ATOM      2  C   UNL     1       4.807  14.471   0.009  0.00  0.00    +0.000 A 
ATOM      3  C   UNL     1       5.182  15.275  -1.075  0.00  0.00    +0.000 A 
ATOM      4  C   UNL     1       4.322  15.444  -2.161  0.00  0.00    +0.000 A 
ATOM      5  C   UNL     1       3.081  14.812  -2.169  0.00  0.00    +0.000 A 
ATOM      6  C   UNL     1       2.717  14.016  -1.090  0.00  0.00    +0.000 A 
ENDROOT
BRANCH   1   8
ATOM      7  C   UNL     1       3.473  13.324   2.327  0.00  0.00    +0.000 C 
ATOM      8  O   UNL     1       3.072  13.022   0.996  0.00  0.00    +0.000 OA
ENDBRANCH   1   8
BRANCH   6   9
ATOM      9  O   UNL     1       1.492  13.405  -1.121  0.00  0.00    +0.000 OA
ATOM     10  H   UNL     1       0.882  14.089  -1.457  0.00  0.00    +0.000 HD
ENDBRANCH   6   9
TORSDOF 2
ENDMDL
MODEL 2
REMARK VINA RESULT:    -4.950      1.339      2.356
REMARK INTER + INTRA:          -5.426
REMARK INTER:                  -5.391
REMARK INTRA:                  -0.035
REMARK UNBOUND:                -0.042
REMARK  Name = 
REMARK  3 active torsions:
REMARK  status: ('A' for Active; 'I' for Inactive)
REMARK    1  A    between atoms: C_1  and  O_2
REMARK    2  A    between atoms: O_2  and  C_3
REMARK    3  A    between atoms: C_8  and  O_9
REMARK                            x       y       z     vdW  Elec       q    Type
REMARK                         _______ _______ _______ _____ _____    ______ ____
ROOT
ATOM      1  C   UNL     1       3.786  13.218   0.202  0.00  0.00    +0.000 A 
ATOM      2  C   UNL     1       2.693  13.748  -0.481  0.00  0.00    +0.000 A 
ATOM      3  C   UNL     1       2.895  14.658  -1.527  0.00  0.00    +0.000 A 
ATOM      4  C   UNL     1       4.187  15.041  -1.891  0.00  0.00    +0.000 A 
ATOM      5  C   UNL     1       5.285  14.515  -1.213  0.00  0.00    +0.000 A 
ATOM      6  C   UNL     1       5.074  13.613  -0.178  0.00  0.00    +0.000 A 
ENDROOT
BRANCH   1   8
ATOM      7  C   UNL     1       3.379  12.847   2.514  0.00  0.00    +0.000 C 
ATOM      8  O   UNL     1       3.737  12.323   1.241  0.00  0.00    +0.000 OA
ENDBRANCH   1   8
BRANCH   6   9
ATOM      9  O   UNL     1       6.169  13.110   0.474  0.00  0.00    +0.000 OA
ATOM     10  H   UNL     1       6.784  12.850  -0.238  0.00  0.00    +0.000 HD
ENDBRANCH   6   9
TORSDOF 2
ENDMDL
MODEL 3
REMARK VINA RESULT:    -4.933      1.368      3.173
REMARK INTER + INTRA:          -5.407
REMARK INTER:                  -5.360
REMARK INTRA:                  -0.047
REMARK UNBOUND:                -0.042
REMARK  Name = 
REMARK  3 active torsions:
REMARK  status: ('A' for Active; 'I' for Inactive)
REMARK    1  A    between atoms: C_1  and  O_2
REMARK    2  A    between atoms: O_2  and  C_3
REMARK    3  A    between atoms: C_8  and  O_9
REMARK                            x       y       z     vdW  Elec       q    Type
REMARK                         _______ _______ _______ _____ _____    ______ ____
ROOT
ATOM      1  C   UNL     1       4.392  13.947  -0.575  0.00  0.00    +0.000 A 
ATOM      2  C   UNL     1       5.546  14.069   0.198  0.00  0.00    +0.000 A 
ATOM      3  C   UNL     1       5.528  13.692   1.546  0.00  0.00    +0.000 A 
ATOM      4  C   UNL     1       4.360  13.193   2.126  0.00  0.00    +0.000 A 
ATOM      5  C   UNL     1       3.203  13.067   1.361  0.00  0.00    +0.000 A 
ATOM      6  C   UNL     1       3.230  13.444   0.024  0.00  0.00    +0.000 A 
ENDROOT
BRANCH   1   8
ATOM      7  C   UNL     1       4.230  15.665  -2.209  0.00  0.00    +0.000 C 
ATOM      8  O   UNL     1       4.265  14.276  -1.901  0.00  0.00    +0.000 OA
ENDBRANCH   1   8
BRANCH   6   9
ATOM      9  O   UNL     1       2.081  13.312  -0.709  0.00  0.00    +0.000 OA
ATOM     10  H   UNL     1       1.898  12.353  -0.713  0.00  0.00    +0.000 HD
ENDBRANCH   6   9
TORSDOF 2
ENDMDL
MODEL 4
REMARK VINA RESULT:    -4.929      2.031      2.652
REMARK INTER + INTRA:          -5.403
REMARK INTER:                  -5.356
REMARK INTRA:                  -0.047
REMARK UNBOUND:                -0.042
REMARK  Name = 
REMARK  3 active torsions:
REMARK  status: ('A' for Active; 'I' for Inactive)
REMARK    1  A    between atoms: C_1  and  O_2
REMARK    2  A    between atoms: O_2  and  C_3
REMARK    3  A    between atoms: C_8  and  O_9
REMARK                            x       y       z     vdW  Elec       q    Type
REMARK                         _______ _______ _______ _____ _____    ______ ____
ROOT
ATOM      1  C   UNL     1       4.496  13.986  -0.461  0.00  0.00    +0.000 A 
ATOM      2  C   UNL     1       3.304  13.373  -0.077  0.00  0.00    +0.000 A 
ATOM      3  C   UNL     1       2.139  13.579  -0.826  0.00  0.00    +0.000 A 
ATOM      4  C   UNL     1       2.160  14.396  -1.958  0.00  0.00    +0.000 A 
ATOM      5  C   UNL     1       3.347  15.011  -2.348  0.00  0.00    +0.000 A 
ATOM      6  C   UNL     1       4.498  14.802  -1.599  0.00  0.00    +0.000 A 
ENDROOT
BRANCH   1   8
ATOM      7  C   UNL     1       5.700  14.048   1.587  0.00  0.00    +0.000 C 
ATOM      8  O   UNL     1       5.707  13.876   0.175  0.00  0.00    +0.000 OA
ENDBRANCH   1   8
BRANCH   6   9
ATOM      9  O   UNL     1       5.652  15.419  -2.002  0.00  0.00    +0.000 OA
ATOM     10  H   UNL     1       5.862  16.047  -1.285  0.00  0.00    +0.000 HD
ENDBRANCH   6   9
TORSDOF 2
ENDMDL
MODEL 5
REMARK VINA RESULT:    -4.796      1.826      3.293
REMARK INTER + INTRA:          -5.258
REMARK INTER:                  -5.208
REMARK INTRA:                  -0.051
REMARK UNBOUND:                -0.042
REMARK  Name = 
REMARK  3 active torsions:
REMARK  status: ('A' for Active; 'I' for Inactive)
REMARK    1  A    between atoms: C_1  and  O_2
REMARK    2  A    between atoms: O_2  and  C_3
REMARK    3  A    between atoms: C_8  and  O_9
REMARK                            x       y       z     vdW  Elec       q    Type
REMARK                         _______ _______ _______ _____ _____    ______ ____
ROOT
ATOM      1  C   UNL     1       3.286  14.116  -0.565  0.00  0.00    +0.000 A 
ATOM      2  C   UNL     1       2.997  13.381   0.584  0.00  0.00    +0.000 A 
ATOM      3  C   UNL     1       4.029  12.740   1.282  0.00  0.00    +0.000 A 
ATOM      4  C   UNL     1       5.348  12.829   0.835  0.00  0.00    +0.000 A 
ATOM      5  C   UNL     1       5.644  13.561  -0.313  0.00  0.00    +0.000 A 
ATOM      6  C   UNL     1       4.615  14.194  -0.998  0.00  0.00    +0.000 A 
ENDROOT
BRANCH   1   8
ATOM      7  C   UNL     1       1.288  14.034  -1.849  0.00  0.00    +0.000 C 
ATOM      8  O   UNL     1       2.382  14.792  -1.344  0.00  0.00    +0.000 OA
ENDBRANCH   1   8
BRANCH   6   9
ATOM      9  O   UNL     1       4.931  14.908  -2.123  0.00  0.00    +0.000 OA
ATOM     10  H   UNL     1       5.692  14.436  -2.512  0.00  0.00    +0.000 HD
ENDBRANCH   6   9
TORSDOF 2
ENDMDL
MODEL 6
REMARK VINA RESULT:    -4.723      1.803      2.878
REMARK INTER + INTRA:          -5.179
REMARK INTER:                  -5.127
REMARK INTRA:                  -0.051
REMARK UNBOUND:                -0.042
REMARK  Name = 
REMARK  3 active torsions:
REMARK  status: ('A' for Active; 'I' for Inactive)
REMARK    1  A    between atoms: C_1  and  O_2
REMARK    2  A    between atoms: O_2  and  C_3
REMARK    3  A    between atoms: C_8  and  O_9
REMARK                            x       y       z     vdW  Elec       q    Type
REMARK                         _______ _______ _______ _____ _____    ______ ____
ROOT
ATOM      1  C   UNL     1       4.061  13.272   0.549  0.00  0.00    +0.000 A 
ATOM      2  C   UNL     1       2.995  13.600  -0.288  0.00  0.00    +0.000 A 
ATOM      3  C   UNL     1       2.912  14.883  -0.844  0.00  0.00    +0.000 A 
ATOM      4  C   UNL     1       3.890  15.840  -0.567  0.00  0.00    +0.000 A 
ATOM      5  C   UNL     1       4.958  15.519   0.267  0.00  0.00    +0.000 A 
ATOM      6  C   UNL     1       5.032  14.245   0.815  0.00  0.00    +0.000 A 
ENDROOT
BRANCH   1   8
ATOM      7  C   UNL     1       4.637  10.979   0.317  0.00  0.00    +0.000 C 
ATOM      8  O   UNL     1       4.268  12.062   1.161  0.00  0.00    +0.000 OA
ENDBRANCH   1   8
BRANCH   6   9
ATOM      9  O   UNL     1       6.092  13.953   1.633  0.00  0.00    +0.000 OA
ATOM     10  H   UNL     1       6.350  13.044   1.390  0.00  0.00    +0.000 HD
ENDBRANCH   6   9
TORSDOF 2
ENDMDL
MODEL 7
REMARK VINA RESULT:    -4.678      1.889      3.666
REMARK INTER + INTRA:          -5.130
REMARK INTER:                  -5.109
REMARK INTRA:                  -0.021
REMARK UNBOUND:                -0.042
REMARK  Name = 
REMARK  3 active torsions:
REMARK  status: ('A' for Active; 'I' for Inactive)
REMARK    1  A    between atoms: C_1  and  O_2
REMARK    2  A    between atoms: O_2  and  C_3
REMARK    3  A    between atoms: C_8  and  O_9
REMARK                            x       y       z     vdW  Elec       q    Type
REMARK                         _______ _______ _______ _____ _____    ______ ____
ROOT
ATOM      1  C   UNL     1       4.580  13.890  -0.234  0.00  0.00    +0.000 A 
ATOM      2  C   UNL     1       4.966  12.552  -0.313  0.00  0.00    +0.000 A 
ATOM      3  C   UNL     1       4.607  11.659   0.704  0.00  0.00    +0.000 A 
ATOM      4  C   UNL     1       3.863  12.097   1.801  0.00  0.00    +0.000 A 
ATOM      5  C   UNL     1       3.473  13.432   1.887  0.00  0.00    +0.000 A 
ATOM      6  C   UNL     1       3.834  14.311   0.874  0.00  0.00    +0.000 A 
ENDROOT
BRANCH   1   8
ATOM      7  C   UNL     1       4.038  14.908  -2.311  0.00  0.00    +0.000 C 
ATOM      8  O   UNL     1       4.860  14.871  -1.151  0.00  0.00    +0.000 OA
ENDBRANCH   1   8
BRANCH   6   9
ATOM      9  O   UNL     1       3.440  15.618   0.981  0.00  0.00    +0.000 OA
ATOM     10  H   UNL     1       3.133  15.859   0.086  0.00  0.00    +0.000 HD
ENDBRANCH   6   9
TORSDOF 2
ENDMDL
MODEL 8
REMARK VINA RESULT:    -4.640      1.872      3.936
REMARK INTER + INTRA:          -5.089
REMARK INTER:                  -5.043
REMARK INTRA:                  -0.045
REMARK UNBOUND:                -0.042
REMARK  Name = 
REMARK  3 active torsions:
REMARK  status: ('A' for Active; 'I' for Inactive)
REMARK    1  A    between atoms: C_1  and  O_2
REMARK    2  A    between atoms: O_2  and  C_3
REMARK    3  A    between atoms: C_8  and  O_9
REMARK                            x       y       z     vdW  Elec       q    Type
REMARK                         _______ _______ _______ _____ _____    ______ ____
ROOT
ATOM      1  C   UNL     1       4.356  13.360   0.097  0.00  0.00    +0.000 A 
ATOM      2  C   UNL     1       3.636  14.143   0.999  0.00  0.00    +0.000 A 
ATOM      3  C   UNL     1       3.280  13.621   2.249  0.00  0.00    +0.000 A 
ATOM      4  C   UNL     1       3.639  12.319   2.601  0.00  0.00    +0.000 A 
ATOM      5  C   UNL     1       4.358  11.531   1.705  0.00  0.00    +0.000 A 
ATOM      6  C   UNL     1       4.707  12.056   0.468  0.00  0.00    +0.000 A 
ENDROOT
BRANCH   1   8
ATOM      7  C   UNL     1       3.831  14.461  -1.942  0.00  0.00    +0.000 C 
ATOM      8  O   UNL     1       4.770  13.738  -1.155  0.00  0.00    +0.000 OA
ENDBRANCH   1   8
BRANCH   6   9
ATOM      9  O   UNL     1       5.414  11.262  -0.396  0.00  0.00    +0.000 OA
ATOM     10  H   UNL     1       4.929  10.415  -0.408  0.00  0.00    +0.000 HD
ENDBRANCH   6   9
TORSDOF 2
ENDMDL
MODEL 9
REMARK VINA RESULT:    -4.519      1.553      2.890
REMARK INTER + INTRA:          -4.957
REMARK INTER:                  -4.914
REMARK INTRA:                  -0.043
REMARK UNBOUND:                -0.042
REMARK  Name = 
REMARK  3 active torsions:
REMARK  status: ('A' for Active; 'I' for Inactive)
REMARK    1  A    between atoms: C_1  and  O_2
REMARK    2  A    between atoms: O_2  and  C_3
REMARK    3  A    between atoms: C_8  and  O_9
REMARK                            x       y       z     vdW  Elec       q    Type
REMARK                         _______ _______ _______ _____ _____    ______ ____
ROOT
ATOM      1  C   UNL     1       3.218  13.895  -0.197  0.00  0.00    +0.000 A 
ATOM      2  C   UNL     1       3.604  15.229  -0.066  0.00  0.00    +0.000 A 
ATOM      3  C   UNL     1       4.838  15.547   0.516  0.00  0.00    +0.000 A 
ATOM      4  C   UNL     1       5.687  14.536   0.969  0.00  0.00    +0.000 A 
ATOM      5  C   UNL     1       5.309  13.201   0.842  0.00  0.00    +0.000 A 
ATOM      6  C   UNL     1       4.084  12.896   0.263  0.00  0.00    +0.000 A 
ENDROOT
BRANCH   1   8
ATOM      7  C   UNL     1       1.541  14.165  -1.858  0.00  0.00    +0.000 C 
ATOM      8  O   UNL     1       2.045  13.440  -0.743  0.00  0.00    +0.000 OA
ENDBRANCH   1   8
BRANCH   6   9
ATOM      9  O   UNL     1       3.734  11.576   0.149  0.00  0.00    +0.000 OA
ATOM     10  H   UNL     1       2.957  11.474   0.731  0.00  0.00    +0.000 HD
ENDBRANCH   6   9
TORSDOF 2
ENDMDL
