MODEL 1
REMARK VINA RESULT:    -4.683      0.000      0.000
REMARK INTER + INTRA:          -5.143
REMARK INTER:                  -5.094
REMARK INTRA:                  -0.050
REMARK UNBOUND:                -0.050
REMARK  Name = 
REMARK  3 active torsions:
REMARK  status: ('A' for Active; 'I' for Inactive)
REMARK    1  A    between atoms: C_1  and  O_2
REMARK    2  A    between atoms: O_2  and  C_3
REMARK    3  A    between atoms: C_8  and  O_9
REMARK                            x       y       z     vdW  Elec       q    Type
REMARK                         _______ _______ _______ _____ _____    ______ ____
ROOT
ATOM      1  C   UNL     1      32.740   3.055  -6.324  0.00  0.00    +0.000 A 
ATOM      2  C   UNL     1      33.077   1.744  -6.657  0.00  0.00    +0.000 A 
ATOM      3  C   UNL     1      32.273   1.018  -7.545  0.00  0.00    +0.000 A 
ATOM      4  C   UNL     1      31.131   1.598  -8.101  0.00  0.00    +0.000 A 
ATOM      5  C   UNL     1      30.788   2.907  -7.774  0.00  0.00    +0.000 A 
ATOM      6  C   UNL     1      31.591   3.620  -6.892  0.00  0.00    +0.000 A 
ENDROOT
BRANCH   1   8
ATOM      7  C   UNL     1      34.681   4.371  -5.941  0.00  0.00    +0.000 C 
ATOM      8  O   UNL     1      33.431   3.879  -5.473  0.00  0.00    +0.000 OA
ENDBRANCH   1   8
BRANCH   6   9
ATOM      9  O   UNL     1      31.233   4.905  -6.586  0.00  0.00    +0.000 OA
ATOM     10  H   UNL     1      31.767   5.461  -7.184  0.00  0.00    +0.000 HD
ENDBRANCH   6   9
TORSDOF 2
ENDMDL
MODEL 2
REMARK VINA RESULT:    -4.639      2.193      3.150
REMARK INTER + INTRA:          -5.095
REMARK INTER:                  -5.056
REMARK INTRA:                  -0.039
REMARK UNBOUND:                -0.050
REMARK  Name = 
REMARK  3 active torsions:
REMARK  status: ('A' for Active; 'I' for Inactive)
REMARK    1  A    between atoms: C_1  and  O_2
REMARK    2  A    between atoms: O_2  and  C_3
REMARK    3  A    between atoms: C_8  and  O_9
REMARK                            x       y       z     vdW  Elec       q    Type
REMARK                         _______ _______ _______ _____ _____    ______ ____
ROOT
ATOM      1  C   UNL     1      31.108   3.131  -4.851  0.00  0.00    +0.000 A 
ATOM      2  C   UNL     1      31.806   2.073  -4.271  0.00  0.00    +0.000 A 
ATOM      3  C   UNL     1      33.044   1.681  -4.795  0.00  0.00    +0.000 A 
ATOM      4  C   UNL     1      33.588   2.342  -5.899  0.00  0.00    +0.000 A 
ATOM      5  C   UNL     1      32.896   3.401  -6.483  0.00  0.00    +0.000 A 
ATOM      6  C   UNL     1      31.669   3.783  -5.957  0.00  0.00    +0.000 A 
ENDROOT
BRANCH   1   8
ATOM      7  C   UNL     1      29.492   3.303  -3.118  0.00  0.00    +0.000 C 
ATOM      8  O   UNL     1      29.892   3.620  -4.446  0.00  0.00    +0.000 OA
ENDBRANCH   1   8
BRANCH   6   9
ATOM      9  O   UNL     1      31.008   4.826  -6.549  0.00  0.00    +0.000 OA
ATOM     10  H   UNL     1      31.695   5.300  -7.055  0.00  0.00    +0.000 HD
ENDBRANCH   6   9
TORSDOF 2
ENDMDL
MODEL 3
REMARK VINA RESULT:    -4.637      1.266      3.168
REMARK INTER + INTRA:          -5.093
REMARK INTER:                  -5.051
REMARK INTRA:                  -0.043
REMARK UNBOUND:                -0.050
REMARK  Name = 
REMARK  3 active torsions:
REMARK  status: ('A' for Active; 'I' for Inactive)
REMARK    1  A    between atoms: C_1  and  O_2
REMARK    2  A    between atoms: O_2  and  C_3
REMARK    3  A    between atoms: C_8  and  O_9
REMARK                            x       y       z     vdW  Elec       q    Type
REMARK                         _______ _______ _______ _____ _____    ______ ____
ROOT
ATOM      1  C   UNL     1      32.375   3.231  -6.727  0.00  0.00    +0.000 A 
ATOM      2  C   UNL     1      33.034   2.083  -6.289  0.00  0.00    +0.000 A 
ATOM      3  C   UNL     1      34.301   2.186  -5.699  0.00  0.00    +0.000 A 
ATOM      4  C   UNL     1      34.912   3.432  -5.547  0.00  0.00    +0.000 A 
ATOM      5  C   UNL     1      34.259   4.583  -5.981  0.00  0.00    +0.000 A 
ATOM      6  C   UNL     1      33.004   4.472  -6.565  0.00  0.00    +0.000 A 
ENDROOT
BRANCH   1   8
ATOM      7  C   UNL     1      30.806   2.200  -8.183  0.00  0.00    +0.000 C 
ATOM      8  O   UNL     1      31.139   3.280  -7.320  0.00  0.00    +0.000 OA
ENDBRANCH   1   8
BRANCH   6   9
ATOM      9  O   UNL     1      32.382   5.618  -6.985  0.00  0.00    +0.000 OA
ATOM     10  H   UNL     1      31.492   5.577  -6.587  0.00  0.00    +0.000 HD
ENDBRANCH   6   9
TORSDOF 2
ENDMDL
MODEL 4
REMARK VINA RESULT:    -4.388      1.924      2.068
REMARK INTER + INTRA:          -4.822
REMARK INTER:                  -4.773
REMARK INTRA:                  -0.049
REMARK UNBOUND:                -0.050
REMARK  Name = 
REMARK  3 active torsions:
REMARK  status: ('A' for Active; 'I' for Inactive)
REMARK    1  A    between atoms: C_1  and  O_2
REMARK    2  A    between atoms: O_2  and  C_3
REMARK    3  A    between atoms: C_8  and  O_9
REMARK                            x       y       z     vdW  Elec       q    Type
REMARK                         _______ _______ _______ _____ _____    ______ ____
ROOT
ATOM      1  C   UNL     1      33.088   3.712  -6.002  0.00  0.00    +0.000 A 
ATOM      2  C   UNL     1      33.687   2.663  -5.306  0.00  0.00    +0.000 A 
ATOM      3  C   UNL     1      32.901   1.793  -4.540  0.00  0.00    +0.000 A 
ATOM      4  C   UNL     1      31.518   1.968  -4.466  0.00  0.00    +0.000 A 
ATOM      5  C   UNL     1      30.912   3.014  -5.159  0.00  0.00    +0.000 A 
ATOM      6  C   UNL     1      31.700   3.872  -5.916  0.00  0.00    +0.000 A 
ENDROOT
BRANCH   1   8
ATOM      7  C   UNL     1      34.842   5.304  -6.199  0.00  0.00    +0.000 C 
ATOM      8  O   UNL     1      33.731   4.637  -6.786  0.00  0.00    +0.000 OA
ENDBRANCH   1   8
BRANCH   6   9
ATOM      9  O   UNL     1      31.082   4.893  -6.589  0.00  0.00    +0.000 OA
ATOM     10  H   UNL     1      30.439   5.257  -5.951  0.00  0.00    +0.000 HD
ENDBRANCH   6   9
TORSDOF 2
ENDMDL
MODEL 5
REMARK VINA RESULT:    -4.386      1.695      2.783
REMARK INTER + INTRA:          -4.820
REMARK INTER:                  -4.768
REMARK INTRA:                  -0.053
REMARK UNBOUND:                -0.050
REMARK  Name = 
REMARK  3 active torsions:
REMARK  status: ('A' for Active; 'I' for Inactive)
REMARK    1  A    between atoms: C_1  and  O_2
REMARK    2  A    between atoms: O_2  and  C_3
REMARK    3  A    between atoms: C_8  and  O_9
REMARK                            x       y       z     vdW  Elec       q    Type
REMARK                         _______ _______ _______ _____ _____    ______ ____
ROOT
ATOM      1  C   UNL     1      31.650   2.457  -6.325  0.00  0.00    +0.000 A 
ATOM      2  C   UNL     1      30.550   2.561  -7.175  0.00  0.00    +0.000 A 
ATOM      3  C   UNL     1      30.543   1.880  -8.398  0.00  0.00    +0.000 A 
ATOM      4  C   UNL     1      31.633   1.094  -8.776  0.00  0.00    +0.000 A 
ATOM      5  C   UNL     1      32.736   0.984  -7.933  0.00  0.00    +0.000 A 
ATOM      6  C   UNL     1      32.734   1.664  -6.721  0.00  0.00    +0.000 A 
ENDROOT
BRANCH   1   8
ATOM      7  C   UNL     1      30.906   2.641  -4.075  0.00  0.00    +0.000 C 
ATOM      8  O   UNL     1      31.793   3.066  -5.104  0.00  0.00    +0.000 OA
ENDBRANCH   1   8
BRANCH   6   9
ATOM      9  O   UNL     1      33.829   1.540  -5.909  0.00  0.00    +0.000 OA
ATOM     10  H   UNL     1      34.588   1.486  -6.521  0.00  0.00    +0.000 HD
ENDBRANCH   6   9
TORSDOF 2
ENDMDL
MODEL 6
REMARK VINA RESULT:    -4.315      1.570      3.699
REMARK INTER + INTRA:          -4.743
REMARK INTER:                  -4.693
REMARK INTRA:                  -0.050
REMARK UNBOUND:                -0.050
REMARK  Name = 
REMARK  3 active torsions:
REMARK  status: ('A' for Active; 'I' for Inactive)
REMARK    1  A    between atoms: C_1  and  O_2
REMARK    2  A    between atoms: O_2  and  C_3
REMARK    3  A    between atoms: C_8  and  O_9
REMARK                            x       y       z     vdW  Elec       q    Type
REMARK                         _______ _______ _______ _____ _____    ______ ____
ROOT
ATOM      1  C   UNL     1      32.037   3.290  -6.419  0.00  0.00    +0.000 A 
ATOM      2  C   UNL     1      32.734   4.394  -6.908  0.00  0.00    +0.000 A 
ATOM      3  C   UNL     1      33.963   4.754  -6.340  0.00  0.00    +0.000 A 
ATOM      4  C   UNL     1      34.498   4.014  -5.283  0.00  0.00    +0.000 A 
ATOM      5  C   UNL     1      33.808   2.910  -4.789  0.00  0.00    +0.000 A 
ATOM      6  C   UNL     1      32.590   2.560  -5.358  0.00  0.00    +0.000 A 
ENDROOT
BRANCH   1   8
ATOM      7  C   UNL     1      30.834   2.193  -8.150  0.00  0.00    +0.000 C 
ATOM      8  O   UNL     1      30.830   2.825  -6.875  0.00  0.00    +0.000 OA
ENDBRANCH   1   8
BRANCH   6   9
ATOM      9  O   UNL     1      31.930   1.471  -4.856  0.00  0.00    +0.000 OA
ATOM     10  H   UNL     1      31.011   1.774  -4.728  0.00  0.00    +0.000 HD
ENDBRANCH   6   9
TORSDOF 2
ENDMDL
MODEL 7
REMARK VINA RESULT:    -4.297      1.245      2.337
REMARK INTER + INTRA:          -4.724
REMARK INTER:                  -4.671
REMARK INTRA:                  -0.053
REMARK UNBOUND:                -0.050
REMARK  Name = 
REMARK  3 active torsions:
REMARK  status: ('A' for Active; 'I' for Inactive)
REMARK    1  A    between atoms: C_1  and  O_2
REMARK    2  A    between atoms: O_2  and  C_3
REMARK    3  A    between atoms: C_8  and  O_9
REMARK                            x       y       z     vdW  Elec       q    Type
REMARK                         _______ _______ _______ _____ _____    ______ ____
ROOT
ATOM      1  C   UNL     1      33.126   3.524  -6.102  0.00  0.00    +0.000 A 
ATOM      2  C   UNL     1      31.982   4.107  -6.645  0.00  0.00    +0.000 A 
ATOM      3  C   UNL     1      31.068   3.322  -7.360  0.00  0.00    +0.000 A 
ATOM      4  C   UNL     1      31.295   1.956  -7.535  0.00  0.00    +0.000 A 
ATOM      5  C   UNL     1      32.436   1.366  -6.996  0.00  0.00    +0.000 A 
ATOM      6  C   UNL     1      33.336   2.152  -6.289  0.00  0.00    +0.000 A 
ENDROOT
BRANCH   1   8
ATOM      7  C   UNL     1      34.903   5.102  -6.097  0.00  0.00    +0.000 C 
ATOM      8  O   UNL     1      34.102   4.168  -5.384  0.00  0.00    +0.000 OA
ENDBRANCH   1   8
BRANCH   6   9
ATOM      9  O   UNL     1      34.450   1.550  -5.768  0.00  0.00    +0.000 OA
ATOM     10  H   UNL     1      35.139   1.669  -6.450  0.00  0.00    +0.000 HD
ENDBRANCH   6   9
TORSDOF 2
ENDMDL
MODEL 8
REMARK VINA RESULT:    -4.188      2.141      3.733
REMARK INTER + INTRA:          -4.605
REMARK INTER:                  -4.561
REMARK INTRA:                  -0.044
REMARK UNBOUND:                -0.050
REMARK  Name = 
REMARK  3 active torsions:
REMARK  status: ('A' for Active; 'I' for Inactive)
REMARK    1  A    between atoms: C_1  and  O_2
REMARK    2  A    between atoms: O_2  and  C_3
REMARK    3  A    between atoms: C_8  and  O_9
REMARK                            x       y       z     vdW  Elec       q    Type
REMARK                         _______ _______ _______ _____ _____    ______ ____
ROOT
ATOM      1  C   UNL     1      31.507   2.616  -6.558  0.00  0.00    +0.000 A 
ATOM      2  C   UNL     1      30.498   3.186  -5.782  0.00  0.00    +0.000 A 
ATOM      3  C   UNL     1      30.502   3.014  -4.392  0.00  0.00    +0.000 A 
ATOM      4  C   UNL     1      31.512   2.274  -3.774  0.00  0.00    +0.000 A 
ATOM      5  C   UNL     1      32.523   1.702  -4.542  0.00  0.00    +0.000 A 
ATOM      6  C   UNL     1      32.511   1.877  -5.920  0.00  0.00    +0.000 A 
ENDROOT
BRANCH   1   8
ATOM      7  C   UNL     1      30.727   1.911  -8.689  0.00  0.00    +0.000 C 
ATOM      8  O   UNL     1      31.627   2.701  -7.922  0.00  0.00    +0.000 OA
ENDBRANCH   1   8
BRANCH   6   9
ATOM      9  O   UNL     1      33.516   1.306  -6.653  0.00  0.00    +0.000 OA
ATOM     10  H   UNL     1      34.272   1.915  -6.555  0.00  0.00    +0.000 HD
ENDBRANCH   6   9
TORSDOF 2
ENDMDL
