MODEL 1
REMARK VINA RESULT:    -4.715      0.000      0.000
REMARK INTER + INTRA:          -6.799
REMARK INTER:                  -6.368
REMARK INTRA:                  -0.430
REMARK UNBOUND:                -0.430
REMARK  Name = 
REMARK  10 active torsions:
REMARK  status: ('A' for Active; 'I' for Inactive)
REMARK    1  A    between atoms: C_1  and  C_2
REMARK    2  A    between atoms: C_5  and  N_8
REMARK    3  A    between atoms: N_8  and  C_9
REMARK    4  A    between atoms: N_8  and  C_13
REMARK    5  A    between atoms: C_9  and  C_10
REMARK    6  A    between atoms: C_10  and  C_11
REMARK    7  A    between atoms: C_10  and  O_12
REMARK    8  A    between atoms: C_13  and  C_14
REMARK    9  A    between atoms: C_14  and  C_15
REMARK   10  A    between atoms: C_14  and  O_16
REMARK                            x       y       z     vdW  Elec       q    Type
REMARK                         _______ _______ _______ _____ _____    ______ ____
ROOT
ATOM      1  N   UNL     1      18.566  -0.745  12.479  0.00  0.00    +0.000 N 
ENDROOT
BRANCH   1   6
ATOM      2  C   UNL     1      24.268  -0.932  11.594  0.00  0.00    +0.000 C 
ATOM      3  C   UNL     1      22.792  -0.898  11.844  0.00  0.00    +0.000 A 
ATOM      4  C   UNL     1      21.945  -1.830  11.253  0.00  0.00    +0.000 A 
ATOM      5  C   UNL     1      20.558  -1.775  11.467  0.00  0.00    +0.000 A 
ATOM      6  C   UNL     1      19.948  -0.783  12.255  0.00  0.00    +0.000 A 
ATOM      7  C   UNL     1      20.834   0.142  12.838  0.00  0.00    +0.000 A 
ATOM      8  C   UNL     1      22.223   0.097  12.635  0.00  0.00    +0.000 A 
ENDBRANCH   1   6
BRANCH   1   9
ATOM      9  C   UNL     1      17.742  -1.955  12.243  0.00  0.00    +0.000 C 
BRANCH   9  10
ATOM     10  C   UNL     1      17.534  -2.799  13.524  0.00  0.00    +0.000 C 
ATOM     11  C   UNL     1      16.199  -3.534  13.482  0.00  0.00    +0.000 C 
BRANCH  10  12
ATOM     12  O   UNL     1      18.574  -3.775  13.672  0.00  0.00    +0.000 OA
ATOM     13  H   UNL     1      18.425  -4.250  14.507  0.00  0.00    +0.000 HD
ENDBRANCH  10  12
ENDBRANCH   9  10
ENDBRANCH   1   9
BRANCH   1  14
ATOM     14  C   UNL     1      17.817   0.537  12.449  0.00  0.00    +0.000 C 
BRANCH  14  15
ATOM     15  C   UNL     1      16.294   0.319  12.284  0.00  0.00    +0.000 C 
ATOM     16  C   UNL     1      15.523   0.450  13.592  0.00  0.00    +0.000 C 
BRANCH  15  17
ATOM     17  O   UNL     1      15.729   1.234  11.346  0.00  0.00    +0.000 OA
ATOM     18  H   UNL     1      15.099   1.773  11.865  0.00  0.00    +0.000 HD
ENDBRANCH  15  17
ENDBRANCH  14  15
ENDBRANCH   1  14
TORSDOF 7
ENDMDL
MODEL 2
REMARK VINA RESULT:    -4.663      0.889      3.107
REMARK INTER + INTRA:          -6.728
REMARK INTER:                  -6.268
REMARK INTRA:                  -0.461
REMARK UNBOUND:                -0.430
REMARK  Name = 
REMARK  10 active torsions:
REMARK  status: ('A' for Active; 'I' for Inactive)
REMARK    1  A    between atoms: C_1  and  C_2
REMARK    2  A    between atoms: C_5  and  N_8
REMARK    3  A    between atoms: N_8  and  C_9
REMARK    4  A    between atoms: N_8  and  C_13
REMARK    5  A    between atoms: C_9  and  C_10
REMARK    6  A    between atoms: C_10  and  C_11
REMARK    7  A    between atoms: C_10  and  O_12
REMARK    8  A    between atoms: C_13  and  C_14
REMARK    9  A    between atoms: C_14  and  C_15
REMARK   10  A    between atoms: C_14  and  O_16
REMARK                            x       y       z     vdW  Elec       q    Type
REMARK                         _______ _______ _______ _____ _____    ______ ____
ROOT
ATOM      1  N   UNL     1      17.802  -0.787  12.080  0.00  0.00    +0.000 N 
ENDROOT
BRANCH   1   6
ATOM      2  C   UNL     1      23.570  -0.960  11.907  0.00  0.00    +0.000 C 
ATOM      3  C   UNL     1      22.074  -0.932  11.970  0.00  0.00    +0.000 A 
ATOM      4  C   UNL     1      21.309  -1.772  11.168  0.00  0.00    +0.000 A 
ATOM      5  C   UNL     1      19.906  -1.720  11.210  0.00  0.00    +0.000 A 
ATOM      6  C   UNL     1      19.202  -0.820  12.029  0.00  0.00    +0.000 A 
ATOM      7  C   UNL     1      20.007   0.013  12.828  0.00  0.00    +0.000 A 
ATOM      8  C   UNL     1      21.411  -0.030  12.798  0.00  0.00    +0.000 A 
ENDBRANCH   1   6
BRANCH   1   9
ATOM      9  C   UNL     1      17.098   0.488  12.357  0.00  0.00    +0.000 C 
BRANCH   9  10
ATOM     10  C   UNL     1      15.597   0.287  12.681  0.00  0.00    +0.000 C 
ATOM     11  C   UNL     1      15.305   0.617  14.140  0.00  0.00    +0.000 C 
BRANCH  10  12
ATOM     12  O   UNL     1      14.777   1.131  11.861  0.00  0.00    +0.000 OA
ATOM     13  H   UNL     1      14.169   1.618  12.443  0.00  0.00    +0.000 HD
ENDBRANCH  10  12
ENDBRANCH   9  10
ENDBRANCH   1   9
BRANCH   1  14
ATOM     14  C   UNL     1      17.015  -2.011  12.374  0.00  0.00    +0.000 C 
BRANCH  14  15
ATOM     15  C   UNL     1      17.642  -2.850  13.513  0.00  0.00    +0.000 C 
ATOM     16  C   UNL     1      17.463  -2.222  14.890  0.00  0.00    +0.000 C 
BRANCH  15  17
ATOM     17  O   UNL     1      17.101  -4.170  13.556  0.00  0.00    +0.000 OA
ATOM     18  H   UNL     1      16.244  -4.107  13.088  0.00  0.00    +0.000 HD
ENDBRANCH  15  17
ENDBRANCH  14  15
ENDBRANCH   1  14
TORSDOF 7
ENDMDL
MODEL 3
REMARK VINA RESULT:    -4.650      2.417      3.765
REMARK INTER + INTRA:          -6.712
REMARK INTER:                  -6.472
REMARK INTRA:                  -0.240
REMARK UNBOUND:                -0.430
REMARK  Name = 
REMARK  10 active torsions:
REMARK  status: ('A' for Active; 'I' for Inactive)
REMARK    1  A    between atoms: C_1  and  C_2
REMARK    2  A    between atoms: C_5  and  N_8
REMARK    3  A    between atoms: N_8  and  C_9
REMARK    4  A    between atoms: N_8  and  C_13
REMARK    5  A    between atoms: C_9  and  C_10
REMARK    6  A    between atoms: C_10  and  C_11
REMARK    7  A    between atoms: C_10  and  O_12
REMARK    8  A    between atoms: C_13  and  C_14
REMARK    9  A    between atoms: C_14  and  C_15
REMARK   10  A    between atoms: C_14  and  O_16
REMARK                            x       y       z     vdW  Elec       q    Type
REMARK                         _______ _______ _______ _____ _____    ______ ____
ROOT
ATOM      1  N   UNL     1      16.908   0.512  14.118  0.00  0.00    +0.000 N 
ENDROOT
BRANCH   1   6
ATOM      2  C   UNL     1      22.464  -0.336  12.798  0.00  0.00    +0.000 C 
ATOM      3  C   UNL     1      21.026  -0.091  13.142  0.00  0.00    +0.000 A 
ATOM      4  C   UNL     1      20.597  -0.098  14.465  0.00  0.00    +0.000 A 
ATOM      5  C   UNL     1      19.243   0.102  14.779  0.00  0.00    +0.000 A 
ATOM      6  C   UNL     1      18.254   0.294  13.797  0.00  0.00    +0.000 A 
ATOM      7  C   UNL     1      18.724   0.296  12.471  0.00  0.00    +0.000 A 
ATOM      8  C   UNL     1      20.076   0.099  12.143  0.00  0.00    +0.000 A 
ENDBRANCH   1   6
BRANCH   1   9
ATOM      9  C   UNL     1      16.550   1.278  15.336  0.00  0.00    +0.000 C 
BRANCH   9  10
ATOM     10  C   UNL     1      15.021   1.451  15.508  0.00  0.00    +0.000 C 
ATOM     11  C   UNL     1      14.566   0.959  16.877  0.00  0.00    +0.000 C 
BRANCH  10  12
ATOM     12  O   UNL     1      14.641   2.829  15.383  0.00  0.00    +0.000 OA
ATOM     13  H   UNL     1      13.953   3.013  16.044  0.00  0.00    +0.000 HD
ENDBRANCH  10  12
ENDBRANCH   9  10
ENDBRANCH   1   9
BRANCH   1  14
ATOM     14  C   UNL     1      15.840  -0.386  13.609  0.00  0.00    +0.000 C 
BRANCH  14  15
ATOM     15  C   UNL     1      15.491  -0.098  12.129  0.00  0.00    +0.000 C 
ATOM     16  C   UNL     1      14.585  -1.155  11.510  0.00  0.00    +0.000 C 
BRANCH  15  17
ATOM     17  O   UNL     1      14.859   1.172  11.974  0.00  0.00    +0.000 OA
ATOM     18  H   UNL     1      15.537   1.744  11.562  0.00  0.00    +0.000 HD
ENDBRANCH  15  17
ENDBRANCH  14  15
ENDBRANCH   1  14
TORSDOF 7
ENDMDL
MODEL 4
REMARK VINA RESULT:    -4.588      1.896      2.617
REMARK INTER + INTRA:          -6.627
REMARK INTER:                  -6.281
REMARK INTRA:                  -0.347
REMARK UNBOUND:                -0.430
REMARK  Name = 
REMARK  10 active torsions:
REMARK  status: ('A' for Active; 'I' for Inactive)
REMARK    1  A    between atoms: C_1  and  C_2
REMARK    2  A    between atoms: C_5  and  N_8
REMARK    3  A    between atoms: N_8  and  C_9
REMARK    4  A    between atoms: N_8  and  C_13
REMARK    5  A    between atoms: C_9  and  C_10
REMARK    6  A    between atoms: C_10  and  C_11
REMARK    7  A    between atoms: C_10  and  O_12
REMARK    8  A    between atoms: C_13  and  C_14
REMARK    9  A    between atoms: C_14  and  C_15
REMARK   10  A    between atoms: C_14  and  O_16
REMARK                            x       y       z     vdW  Elec       q    Type
REMARK                         _______ _______ _______ _____ _____    ______ ____
ROOT
ATOM      1  N   UNL     1      18.174  -0.064  12.621  0.00  0.00    +0.000 N 
ENDROOT
BRANCH   1   6
ATOM      2  C   UNL     1      23.627  -1.562  11.460  0.00  0.00    +0.000 C 
ATOM      3  C   UNL     1      22.213  -1.188  11.782  0.00  0.00    +0.000 A 
ATOM      4  C   UNL     1      21.146  -1.915  11.264  0.00  0.00    +0.000 A 
ATOM      5  C   UNL     1      19.822  -1.541  11.545  0.00  0.00    +0.000 A 
ATOM      6  C   UNL     1      19.497  -0.419  12.330  0.00  0.00    +0.000 A 
ATOM      7  C   UNL     1      20.600   0.291  12.838  0.00  0.00    +0.000 A 
ATOM      8  C   UNL     1      21.930  -0.074  12.567  0.00  0.00    +0.000 A 
ENDBRANCH   1   6
BRANCH   1   9
ATOM      9  C   UNL     1      17.891   1.140  13.439  0.00  0.00    +0.000 C 
BRANCH   9  10
ATOM     10  C   UNL     1      17.294   0.796  14.826  0.00  0.00    +0.000 C 
ATOM     11  C   UNL     1      18.387   0.378  15.802  0.00  0.00    +0.000 C 
BRANCH  10  12
ATOM     12  O   UNL     1      16.607   1.925  15.385  0.00  0.00    +0.000 OA
ATOM     13  H   UNL     1      15.686   1.900  15.077  0.00  0.00    +0.000 HD
ENDBRANCH  10  12
ENDBRANCH   9  10
ENDBRANCH   1   9
BRANCH   1  14
ATOM     14  C   UNL     1      17.084  -1.072  12.596  0.00  0.00    +0.000 C 
BRANCH  14  15
ATOM     15  C   UNL     1      16.114  -0.855  11.409  0.00  0.00    +0.000 C 
ATOM     16  C   UNL     1      14.867  -1.727  11.487  0.00  0.00    +0.000 C 
BRANCH  15  17
ATOM     17  O   UNL     1      15.697   0.506  11.311  0.00  0.00    +0.000 OA
ATOM     18  H   UNL     1      14.763   0.464  11.024  0.00  0.00    +0.000 HD
ENDBRANCH  15  17
ENDBRANCH  14  15
ENDBRANCH   1  14
TORSDOF 7
ENDMDL
MODEL 5
REMARK VINA RESULT:    -4.440      2.366      3.387
REMARK INTER + INTRA:          -6.427
REMARK INTER:                  -5.993
REMARK INTRA:                  -0.434
REMARK UNBOUND:                -0.430
REMARK  Name = 
REMARK  10 active torsions:
REMARK  status: ('A' for Active; 'I' for Inactive)
REMARK    1  A    between atoms: C_1  and  C_2
REMARK    2  A    between atoms: C_5  and  N_8
REMARK    3  A    between atoms: N_8  and  C_9
REMARK    4  A    between atoms: N_8  and  C_13
REMARK    5  A    between atoms: C_9  and  C_10
REMARK    6  A    between atoms: C_10  and  C_11
REMARK    7  A    between atoms: C_10  and  O_12
REMARK    8  A    between atoms: C_13  and  C_14
REMARK    9  A    between atoms: C_14  and  C_15
REMARK   10  A    between atoms: C_14  and  O_16
REMARK                            x       y       z     vdW  Elec       q    Type
REMARK                         _______ _______ _______ _____ _____    ______ ____
ROOT
ATOM      1  N   UNL     1      16.602  -0.020  14.163  0.00  0.00    +0.000 N 
ENDROOT
BRANCH   1   6
ATOM      2  C   UNL     1      22.197   0.130  12.746  0.00  0.00    +0.000 C 
ATOM      3  C   UNL     1      20.746   0.066  13.114  0.00  0.00    +0.000 A 
ATOM      4  C   UNL     1      19.760   0.059  12.133  0.00  0.00    +0.000 A 
ATOM      5  C   UNL     1      18.400   0.029  12.484  0.00  0.00    +0.000 A 
ATOM      6  C   UNL     1      17.959   0.029  13.820  0.00  0.00    +0.000 A 
ATOM      7  C   UNL     1      18.983   0.035  14.785  0.00  0.00    +0.000 A 
ATOM      8  C   UNL     1      20.346   0.062  14.447  0.00  0.00    +0.000 A 
ENDBRANCH   1   6
BRANCH   1   9
ATOM      9  C   UNL     1      15.565   0.228  13.132  0.00  0.00    +0.000 C 
BRANCH   9  10
ATOM     10  C   UNL     1      14.911  -1.076  12.613  0.00  0.00    +0.000 C 
ATOM     11  C   UNL     1      13.834  -1.566  13.573  0.00  0.00    +0.000 C 
BRANCH  10  12
ATOM     12  O   UNL     1      14.303  -0.870  11.330  0.00  0.00    +0.000 OA
ATOM     13  H   UNL     1      14.782  -0.154  10.880  0.00  0.00    +0.000 HD
ENDBRANCH  10  12
ENDBRANCH   9  10
ENDBRANCH   1   9
BRANCH   1  14
ATOM     14  C   UNL     1      16.155   0.194  15.563  0.00  0.00    +0.000 C 
BRANCH  14  15
ATOM     15  C   UNL     1      15.135   1.352  15.680  0.00  0.00    +0.000 C 
ATOM     16  C   UNL     1      14.210   1.218  16.883  0.00  0.00    +0.000 C 
BRANCH  15  17
ATOM     17  O   UNL     1      15.785   2.620  15.762  0.00  0.00    +0.000 OA
ATOM     18  H   UNL     1      15.739   2.867  16.707  0.00  0.00    +0.000 HD
ENDBRANCH  15  17
ENDBRANCH  14  15
ENDBRANCH   1  14
TORSDOF 7
ENDMDL
MODEL 6
REMARK VINA RESULT:    -4.418      1.181      2.013
REMARK INTER + INTRA:          -6.398
REMARK INTER:                  -5.898
REMARK INTRA:                  -0.500
REMARK UNBOUND:                -0.430
REMARK  Name = 
REMARK  10 active torsions:
REMARK  status: ('A' for Active; 'I' for Inactive)
REMARK    1  A    between atoms: C_1  and  C_2
REMARK    2  A    between atoms: C_5  and  N_8
REMARK    3  A    between atoms: N_8  and  C_9
REMARK    4  A    between atoms: N_8  and  C_13
REMARK    5  A    between atoms: C_9  and  C_10
REMARK    6  A    between atoms: C_10  and  C_11
REMARK    7  A    between atoms: C_10  and  O_12
REMARK    8  A    between atoms: C_13  and  C_14
REMARK    9  A    between atoms: C_14  and  C_15
REMARK   10  A    between atoms: C_14  and  O_16
REMARK                            x       y       z     vdW  Elec       q    Type
REMARK                         _______ _______ _______ _____ _____    ______ ____
ROOT
ATOM      1  N   UNL     1      17.191  -1.774  12.435  0.00  0.00    +0.000 N 
ENDROOT
BRANCH   1   6
ATOM      2  C   UNL     1      22.606   0.227  12.473  0.00  0.00    +0.000 C 
ATOM      3  C   UNL     1      21.195  -0.276  12.445  0.00  0.00    +0.000 A 
ATOM      4  C   UNL     1      20.234   0.247  13.304  0.00  0.00    +0.000 A 
ATOM      5  C   UNL     1      18.920  -0.249  13.295  0.00  0.00    +0.000 A 
ATOM      6  C   UNL     1      18.508  -1.298  12.453  0.00  0.00    +0.000 A 
ATOM      7  C   UNL     1      19.505  -1.800  11.597  0.00  0.00    +0.000 A 
ATOM      8  C   UNL     1      20.822  -1.312  11.594  0.00  0.00    +0.000 A 
ENDBRANCH   1   6
BRANCH   1   9
ATOM      9  C   UNL     1      16.869  -3.092  13.034  0.00  0.00    +0.000 C 
BRANCH   9  10
ATOM     10  C   UNL     1      17.705  -3.396  14.301  0.00  0.00    +0.000 C 
ATOM     11  C   UNL     1      16.981  -2.927  15.558  0.00  0.00    +0.000 C 
BRANCH  10  12
ATOM     12  O   UNL     1      17.953  -4.803  14.430  0.00  0.00    +0.000 OA
ATOM     13  H   UNL     1      18.573  -5.064  13.730  0.00  0.00    +0.000 HD
ENDBRANCH  10  12
ENDBRANCH   9  10
ENDBRANCH   1   9
BRANCH   1  14
ATOM     14  C   UNL     1      16.211  -1.289  11.430  0.00  0.00    +0.000 C 
BRANCH  14  15
ATOM     15  C   UNL     1      15.405  -0.070  11.939  0.00  0.00    +0.000 C 
ATOM     16  C   UNL     1      15.275  -0.030  13.457  0.00  0.00    +0.000 C 
BRANCH  15  17
ATOM     17  O   UNL     1      15.985   1.161  11.513  0.00  0.00    +0.000 OA
ATOM     18  H   UNL     1      16.884   0.925  11.205  0.00  0.00    +0.000 HD
ENDBRANCH  15  17
ENDBRANCH  14  15
ENDBRANCH   1  14
TORSDOF 7
ENDMDL
MODEL 7
REMARK VINA RESULT:    -4.323      1.921      2.486
REMARK INTER + INTRA:          -6.270
REMARK INTER:                  -5.722
REMARK INTRA:                  -0.548
REMARK UNBOUND:                -0.430
REMARK  Name = 
REMARK  10 active torsions:
REMARK  status: ('A' for Active; 'I' for Inactive)
REMARK    1  A    between atoms: C_1  and  C_2
REMARK    2  A    between atoms: C_5  and  N_8
REMARK    3  A    between atoms: N_8  and  C_9
REMARK    4  A    between atoms: N_8  and  C_13
REMARK    5  A    between atoms: C_9  and  C_10
REMARK    6  A    between atoms: C_10  and  C_11
REMARK    7  A    between atoms: C_10  and  O_12
REMARK    8  A    between atoms: C_13  and  C_14
REMARK    9  A    between atoms: C_14  and  C_15
REMARK   10  A    between atoms: C_14  and  O_16
REMARK                            x       y       z     vdW  Elec       q    Type
REMARK                         _______ _______ _______ _____ _____    ______ ____
ROOT
ATOM      1  N   UNL     1      18.184  -0.598  13.092  0.00  0.00    +0.000 N 
ENDROOT
BRANCH   1   6
ATOM      2  C   UNL     1      23.765  -0.980  11.666  0.00  0.00    +0.000 C 
ATOM      3  C   UNL     1      22.320  -0.898  12.054  0.00  0.00    +0.000 A 
ATOM      4  C   UNL     1      21.366  -1.694  11.428  0.00  0.00    +0.000 A 
ATOM      5  C   UNL     1      20.009  -1.591  11.775  0.00  0.00    +0.000 A 
ATOM      6  C   UNL     1      19.536  -0.681  12.737  0.00  0.00    +0.000 A 
ATOM      7  C   UNL     1      20.528   0.106  13.351  0.00  0.00    +0.000 A 
ATOM      8  C   UNL     1      21.889   0.011  13.015  0.00  0.00    +0.000 A 
ENDBRANCH   1   6
BRANCH   1   9
ATOM      9  C   UNL     1      17.202  -0.013  12.147  0.00  0.00    +0.000 C 
BRANCH   9  10
ATOM     10  C   UNL     1      15.964  -0.919  11.931  0.00  0.00    +0.000 C 
ATOM     11  C   UNL     1      14.673  -0.131  12.117  0.00  0.00    +0.000 C 
BRANCH  10  12
ATOM     12  O   UNL     1      15.958  -1.476  10.609  0.00  0.00    +0.000 OA
ATOM     13  H   UNL     1      15.111  -1.933  10.479  0.00  0.00    +0.000 HD
ENDBRANCH  10  12
ENDBRANCH   9  10
ENDBRANCH   1   9
BRANCH   1  14
ATOM     14  C   UNL     1      17.761  -0.588  14.516  0.00  0.00    +0.000 C 
BRANCH  14  15
ATOM     15  C   UNL     1      17.333   0.823  14.988  0.00  0.00    +0.000 C 
ATOM     16  C   UNL     1      15.933   0.853  15.591  0.00  0.00    +0.000 C 
BRANCH  15  17
ATOM     17  O   UNL     1      18.240   1.354  15.952  0.00  0.00    +0.000 OA
ATOM     18  H   UNL     1      19.129   1.207  15.571  0.00  0.00    +0.000 HD
ENDBRANCH  15  17
ENDBRANCH  14  15
ENDBRANCH   1  14
TORSDOF 7
ENDMDL
MODEL 8
REMARK VINA RESULT:    -4.317      2.714      3.212
REMARK INTER + INTRA:          -6.262
REMARK INTER:                  -5.795
REMARK INTRA:                  -0.468
REMARK UNBOUND:                -0.430
REMARK  Name = 
REMARK  10 active torsions:
REMARK  status: ('A' for Active; 'I' for Inactive)
REMARK    1  A    between atoms: C_1  and  C_2
REMARK    2  A    between atoms: C_5  and  N_8
REMARK    3  A    between atoms: N_8  and  C_9
REMARK    4  A    between atoms: N_8  and  C_13
REMARK    5  A    between atoms: C_9  and  C_10
REMARK    6  A    between atoms: C_10  and  C_11
REMARK    7  A    between atoms: C_10  and  O_12
REMARK    8  A    between atoms: C_13  and  C_14
REMARK    9  A    between atoms: C_14  and  C_15
REMARK   10  A    between atoms: C_14  and  O_16
REMARK                            x       y       z     vdW  Elec       q    Type
REMARK                         _______ _______ _______ _____ _____    ______ ____
ROOT
ATOM      1  N   UNL     1      19.202  -0.009  14.836  0.00  0.00    +0.000 N 
ENDROOT
BRANCH   1   6
ATOM      2  C   UNL     1      23.617  -1.321  11.356  0.00  0.00    +0.000 C 
ATOM      3  C   UNL     1      22.486  -0.986  12.279  0.00  0.00    +0.000 A 
ATOM      4  C   UNL     1      21.538  -1.944  12.623  0.00  0.00    +0.000 A 
ATOM      5  C   UNL     1      20.462  -1.617  13.465  0.00  0.00    +0.000 A 
ATOM      6  C   UNL     1      20.266  -0.324  13.982  0.00  0.00    +0.000 A 
ATOM      7  C   UNL     1      21.244   0.619  13.614  0.00  0.00    +0.000 A 
ATOM      8  C   UNL     1      22.326   0.304  12.775  0.00  0.00    +0.000 A 
ENDBRANCH   1   6
BRANCH   1   9
ATOM      9  C   UNL     1      19.049  -0.723  16.127  0.00  0.00    +0.000 C 
BRANCH   9  10
ATOM     10  C   UNL     1      19.848  -0.061  17.277  0.00  0.00    +0.000 C 
ATOM     11  C   UNL     1      21.303  -0.513  17.260  0.00  0.00    +0.000 C 
BRANCH  10  12
ATOM     12  O   UNL     1      19.825   1.369  17.162  0.00  0.00    +0.000 OA
ATOM     13  H   UNL     1      20.275   1.612  16.336  0.00  0.00    +0.000 HD
ENDBRANCH  10  12
ENDBRANCH   9  10
ENDBRANCH   1   9
BRANCH   1  14
ATOM     14  C   UNL     1      17.958   0.616  14.318  0.00  0.00    +0.000 C 
BRANCH  14  15
ATOM     15  C   UNL     1      17.677   0.225  12.847  0.00  0.00    +0.000 C 
ATOM     16  C   UNL     1      16.468  -0.690  12.690  0.00  0.00    +0.000 C 
BRANCH  15  17
ATOM     17  O   UNL     1      17.471   1.374  12.026  0.00  0.00    +0.000 OA
ATOM     18  H   UNL     1      18.055   2.062  12.403  0.00  0.00    +0.000 HD
ENDBRANCH  15  17
ENDBRANCH  14  15
ENDBRANCH   1  14
TORSDOF 7
ENDMDL
MODEL 9
REMARK VINA RESULT:    -4.295      1.492      3.586
REMARK INTER + INTRA:          -6.232
REMARK INTER:                  -5.928
REMARK INTRA:                  -0.304
REMARK UNBOUND:                -0.430
REMARK  Name = 
REMARK  10 active torsions:
REMARK  status: ('A' for Active; 'I' for Inactive)
REMARK    1  A    between atoms: C_1  and  C_2
REMARK    2  A    between atoms: C_5  and  N_8
REMARK    3  A    between atoms: N_8  and  C_9
REMARK    4  A    between atoms: N_8  and  C_13
REMARK    5  A    between atoms: C_9  and  C_10
REMARK    6  A    between atoms: C_10  and  C_11
REMARK    7  A    between atoms: C_10  and  O_12
REMARK    8  A    between atoms: C_13  and  C_14
REMARK    9  A    between atoms: C_14  and  C_15
REMARK   10  A    between atoms: C_14  and  O_16
REMARK                            x       y       z     vdW  Elec       q    Type
REMARK                         _______ _______ _______ _____ _____    ______ ____
ROOT
ATOM      1  N   UNL     1      17.190  -0.953  13.824  0.00  0.00    +0.000 N 
ENDROOT
BRANCH   1   6
ATOM      2  C   UNL     1      22.615   0.630  12.644  0.00  0.00    +0.000 C 
ATOM      3  C   UNL     1      21.200   0.243  12.948  0.00  0.00    +0.000 A 
ATOM      4  C   UNL     1      20.729   0.226  14.256  0.00  0.00    +0.000 A 
ATOM      5  C   UNL     1      19.410  -0.167  14.537  0.00  0.00    +0.000 A 
ATOM      6  C   UNL     1      18.510  -0.581  13.539  0.00  0.00    +0.000 A 
ATOM      7  C   UNL     1      19.020  -0.550  12.228  0.00  0.00    +0.000 A 
ATOM      8  C   UNL     1      20.336  -0.157  11.933  0.00  0.00    +0.000 A 
ENDBRANCH   1   6
BRANCH   1   9
ATOM      9  C   UNL     1      16.075  -0.023  13.526  0.00  0.00    +0.000 C 
BRANCH   9  10
ATOM     10  C   UNL     1      15.862   0.192  12.007  0.00  0.00    +0.000 C 
ATOM     11  C   UNL     1      15.394  -1.094  11.336  0.00  0.00    +0.000 C 
BRANCH  10  12
ATOM     12  O   UNL     1      14.877   1.205  11.764  0.00  0.00    +0.000 OA
ATOM     13  H   UNL     1      14.001   0.784  11.784  0.00  0.00    +0.000 HD
ENDBRANCH  10  12
ENDBRANCH   9  10
ENDBRANCH   1   9
BRANCH   1  14
ATOM     14  C   UNL     1      16.886  -1.984  14.850  0.00  0.00    +0.000 C 
BRANCH  14  15
ATOM     15  C   UNL     1      16.594  -3.367  14.220  0.00  0.00    +0.000 C 
ATOM     16  C   UNL     1      15.110  -3.610  13.970  0.00  0.00    +0.000 C 
BRANCH  15  17
ATOM     17  O   UNL     1      17.285  -3.540  12.984  0.00  0.00    +0.000 OA
ATOM     18  H   UNL     1      16.958  -2.819  12.409  0.00  0.00    +0.000 HD
ENDBRANCH  15  17
ENDBRANCH  14  15
ENDBRANCH   1  14
TORSDOF 7
ENDMDL
