MODEL 1
REMARK VINA RESULT:    -4.716      0.000      0.000
REMARK INTER + INTRA:          -6.789
REMARK INTER:                  -6.370
REMARK INTRA:                  -0.419
REMARK UNBOUND:                -0.419
REMARK  Name = 
REMARK  10 active torsions:
REMARK  status: ('A' for Active; 'I' for Inactive)
REMARK    1  A    between atoms: C_1  and  C_2
REMARK    2  A    between atoms: C_5  and  N_8
REMARK    3  A    between atoms: N_8  and  C_9
REMARK    4  A    between atoms: N_8  and  C_13
REMARK    5  A    between atoms: C_9  and  C_10
REMARK    6  A    between atoms: C_10  and  C_11
REMARK    7  A    between atoms: C_10  and  O_12
REMARK    8  A    between atoms: C_13  and  C_14
REMARK    9  A    between atoms: C_14  and  C_15
REMARK   10  A    between atoms: C_14  and  O_16
REMARK                            x       y       z     vdW  Elec       q    Type
REMARK                         _______ _______ _______ _____ _____    ______ ____
ROOT
ATOM      1  N   UNL     1      18.487  -0.751  12.464  0.00  0.00    +0.000 N 
ENDROOT
BRANCH   1   6
ATOM      2  C   UNL     1      24.199  -0.954  11.652  0.00  0.00    +0.000 C 
ATOM      3  C   UNL     1      22.720  -0.915  11.884  0.00  0.00    +0.000 A 
ATOM      4  C   UNL     1      21.882  -1.868  11.314  0.00  0.00    +0.000 A 
ATOM      5  C   UNL     1      20.493  -1.810  11.510  0.00  0.00    +0.000 A 
ATOM      6  C   UNL     1      19.871  -0.793  12.257  0.00  0.00    +0.000 A 
ATOM      7  C   UNL     1      20.749   0.153  12.820  0.00  0.00    +0.000 A 
ATOM      8  C   UNL     1      22.140   0.104  12.634  0.00  0.00    +0.000 A 
ENDBRANCH   1   6
BRANCH   1   9
ATOM      9  C   UNL     1      17.657  -1.947  12.182  0.00  0.00    +0.000 C 
BRANCH   9  10
ATOM     10  C   UNL     1      17.359  -2.783  13.451  0.00  0.00    +0.000 C 
ATOM     11  C   UNL     1      16.002  -3.469  13.346  0.00  0.00    +0.000 C 
BRANCH  10  12
ATOM     12  O   UNL     1      18.355  -3.796  13.646  0.00  0.00    +0.000 OA
ATOM     13  H   UNL     1      18.743  -3.672  14.528  0.00  0.00    +0.000 HD
ENDBRANCH  10  12
ENDBRANCH   9  10
ENDBRANCH   1   9
BRANCH   1  14
ATOM     14  C   UNL     1      17.747   0.537  12.461  0.00  0.00    +0.000 C 
BRANCH  14  15
ATOM     15  C   UNL     1      16.229   0.338  12.237  0.00  0.00    +0.000 C 
ATOM     16  C   UNL     1      15.414   0.443  13.521  0.00  0.00    +0.000 C 
BRANCH  15  17
ATOM     17  O   UNL     1      15.706   1.282  11.303  0.00  0.00    +0.000 OA
ATOM     18  H   UNL     1      16.440   1.907  11.138  0.00  0.00    +0.000 HD
ENDBRANCH  15  17
ENDBRANCH  14  15
ENDBRANCH   1  14
TORSDOF 7
ENDMDL
MODEL 2
REMARK VINA RESULT:    -4.666      2.361      3.600
REMARK INTER + INTRA:          -6.722
REMARK INTER:                  -6.502
REMARK INTRA:                  -0.219
REMARK UNBOUND:                -0.419
REMARK  Name = 
REMARK  10 active torsions:
REMARK  status: ('A' for Active; 'I' for Inactive)
REMARK    1  A    between atoms: C_1  and  C_2
REMARK    2  A    between atoms: C_5  and  N_8
REMARK    3  A    between atoms: N_8  and  C_9
REMARK    4  A    between atoms: N_8  and  C_13
REMARK    5  A    between atoms: C_9  and  C_10
REMARK    6  A    between atoms: C_10  and  C_11
REMARK    7  A    between atoms: C_10  and  O_12
REMARK    8  A    between atoms: C_13  and  C_14
REMARK    9  A    between atoms: C_14  and  C_15
REMARK   10  A    between atoms: C_14  and  O_16
REMARK                            x       y       z     vdW  Elec       q    Type
REMARK                         _______ _______ _______ _____ _____    ______ ____
ROOT
ATOM      1  N   UNL     1      16.920   0.499  14.104  0.00  0.00    +0.000 N 
ENDROOT
BRANCH   1   6
ATOM      2  C   UNL     1      22.479  -0.350  12.800  0.00  0.00    +0.000 C 
ATOM      3  C   UNL     1      21.033  -0.154  13.138  0.00  0.00    +0.000 A 
ATOM      4  C   UNL     1      20.082   0.020  12.138  0.00  0.00    +0.000 A 
ATOM      5  C   UNL     1      18.733   0.233  12.462  0.00  0.00    +0.000 A 
ATOM      6  C   UNL     1      18.270   0.306  13.788  0.00  0.00    +0.000 A 
ATOM      7  C   UNL     1      19.258   0.123  14.773  0.00  0.00    +0.000 A 
ATOM      8  C   UNL     1      20.611  -0.093  14.463  0.00  0.00    +0.000 A 
ENDBRANCH   1   6
BRANCH   1   9
ATOM      9  C   UNL     1      16.541   1.250  15.325  0.00  0.00    +0.000 C 
BRANCH   9  10
ATOM     10  C   UNL     1      15.009   1.409  15.482  0.00  0.00    +0.000 C 
ATOM     11  C   UNL     1      14.550   0.941  16.858  0.00  0.00    +0.000 C 
BRANCH  10  12
ATOM     12  O   UNL     1      14.615   2.779  15.324  0.00  0.00    +0.000 OA
ATOM     13  H   UNL     1      13.717   2.794  14.954  0.00  0.00    +0.000 HD
ENDBRANCH  10  12
ENDBRANCH   9  10
ENDBRANCH   1   9
BRANCH   1  14
ATOM     14  C   UNL     1      15.870  -0.413  13.582  0.00  0.00    +0.000 C 
BRANCH  14  15
ATOM     15  C   UNL     1      15.523  -0.118  12.102  0.00  0.00    +0.000 C 
ATOM     16  C   UNL     1      14.633  -1.183  11.472  0.00  0.00    +0.000 C 
BRANCH  15  17
ATOM     17  O   UNL     1      14.874   1.144  11.955  0.00  0.00    +0.000 OA
ATOM     18  H   UNL     1      13.997   0.934  11.574  0.00  0.00    +0.000 HD
ENDBRANCH  15  17
ENDBRANCH  14  15
ENDBRANCH   1  14
TORSDOF 7
ENDMDL
MODEL 3
REMARK VINA RESULT:    -4.628      1.878      2.609
REMARK INTER + INTRA:          -6.671
REMARK INTER:                  -6.328
REMARK INTRA:                  -0.343
REMARK UNBOUND:                -0.419
REMARK  Name = 
REMARK  10 active torsions:
REMARK  status: ('A' for Active; 'I' for Inactive)
REMARK    1  A    between atoms: C_1  and  C_2
REMARK    2  A    between atoms: C_5  and  N_8
REMARK    3  A    between atoms: N_8  and  C_9
REMARK    4  A    between atoms: N_8  and  C_13
REMARK    5  A    between atoms: C_9  and  C_10
REMARK    6  A    between atoms: C_10  and  C_11
REMARK    7  A    between atoms: C_10  and  O_12
REMARK    8  A    between atoms: C_13  and  C_14
REMARK    9  A    between atoms: C_14  and  C_15
REMARK   10  A    between atoms: C_14  and  O_16
REMARK                            x       y       z     vdW  Elec       q    Type
REMARK                         _______ _______ _______ _____ _____    ______ ____
ROOT
ATOM      1  N   UNL     1      18.137  -0.053  12.650  0.00  0.00    +0.000 N 
ENDROOT
BRANCH   1   6
ATOM      2  C   UNL     1      23.600  -1.544  11.528  0.00  0.00    +0.000 C 
ATOM      3  C   UNL     1      22.183  -1.173  11.839  0.00  0.00    +0.000 A 
ATOM      4  C   UNL     1      21.121  -1.851  11.249  0.00  0.00    +0.000 A 
ATOM      5  C   UNL     1      19.794  -1.479  11.521  0.00  0.00    +0.000 A 
ATOM      6  C   UNL     1      19.463  -0.406  12.368  0.00  0.00    +0.000 A 
ATOM      7  C   UNL     1      20.561   0.255  12.948  0.00  0.00    +0.000 A 
ATOM      8  C   UNL     1      21.893  -0.108  12.686  0.00  0.00    +0.000 A 
ENDBRANCH   1   6
BRANCH   1   9
ATOM      9  C   UNL     1      17.847   1.140  13.482  0.00  0.00    +0.000 C 
BRANCH   9  10
ATOM     10  C   UNL     1      17.216   0.779  14.849  0.00  0.00    +0.000 C 
ATOM     11  C   UNL     1      18.285   0.339  15.843  0.00  0.00    +0.000 C 
BRANCH  10  12
ATOM     12  O   UNL     1      16.523   1.903  15.409  0.00  0.00    +0.000 OA
ATOM     13  H   UNL     1      16.664   2.666  14.824  0.00  0.00    +0.000 HD
ENDBRANCH  10  12
ENDBRANCH   9  10
ENDBRANCH   1   9
BRANCH   1  14
ATOM     14  C   UNL     1      17.046  -1.059  12.598  0.00  0.00    +0.000 C 
BRANCH  14  15
ATOM     15  C   UNL     1      16.095  -0.828  11.399  0.00  0.00    +0.000 C 
ATOM     16  C   UNL     1      14.826  -1.669  11.470  0.00  0.00    +0.000 C 
BRANCH  15  17
ATOM     17  O   UNL     1      15.711   0.542  11.287  0.00  0.00    +0.000 OA
ATOM     18  H   UNL     1      16.512   1.003  10.967  0.00  0.00    +0.000 HD
ENDBRANCH  15  17
ENDBRANCH  14  15
ENDBRANCH   1  14
TORSDOF 7
ENDMDL
MODEL 4
REMARK VINA RESULT:    -4.626      0.524      3.030
REMARK INTER + INTRA:          -6.667
REMARK INTER:                  -6.204
REMARK INTRA:                  -0.463
REMARK UNBOUND:                -0.419
REMARK  Name = 
REMARK  10 active torsions:
REMARK  status: ('A' for Active; 'I' for Inactive)
REMARK    1  A    between atoms: C_1  and  C_2
REMARK    2  A    between atoms: C_5  and  N_8
REMARK    3  A    between atoms: N_8  and  C_9
REMARK    4  A    between atoms: N_8  and  C_13
REMARK    5  A    between atoms: C_9  and  C_10
REMARK    6  A    between atoms: C_10  and  C_11
REMARK    7  A    between atoms: C_10  and  O_12
REMARK    8  A    between atoms: C_13  and  C_14
REMARK    9  A    between atoms: C_14  and  C_15
REMARK   10  A    between atoms: C_14  and  O_16
REMARK                            x       y       z     vdW  Elec       q    Type
REMARK                         _______ _______ _______ _____ _____    ______ ____
ROOT
ATOM      1  N   UNL     1      17.969  -0.792  12.040  0.00  0.00    +0.000 N 
ENDROOT
BRANCH   1   6
ATOM      2  C   UNL     1      23.739  -0.899  11.884  0.00  0.00    +0.000 C 
ATOM      3  C   UNL     1      22.243  -0.887  11.944  0.00  0.00    +0.000 A 
ATOM      4  C   UNL     1      21.491  -1.804  11.218  0.00  0.00    +0.000 A 
ATOM      5  C   UNL     1      20.087  -1.769  11.255  0.00  0.00    +0.000 A 
ATOM      6  C   UNL     1      19.369  -0.810  11.992  0.00  0.00    +0.000 A 
ATOM      7  C   UNL     1      20.161   0.100  12.715  0.00  0.00    +0.000 A 
ATOM      8  C   UNL     1      21.566   0.075  12.689  0.00  0.00    +0.000 A 
ENDBRANCH   1   6
BRANCH   1   9
ATOM      9  C   UNL     1      17.258   0.405  12.547  0.00  0.00    +0.000 C 
BRANCH   9  10
ATOM     10  C   UNL     1      15.718   0.243  12.524  0.00  0.00    +0.000 C 
ATOM     11  C   UNL     1      15.134   0.391  13.924  0.00  0.00    +0.000 C 
BRANCH  10  12
ATOM     12  O   UNL     1      15.109   1.231  11.682  0.00  0.00    +0.000 OA
ATOM     13  H   UNL     1      15.804   1.838  11.378  0.00  0.00    +0.000 HD
ENDBRANCH  10  12
ENDBRANCH   9  10
ENDBRANCH   1   9
BRANCH   1  14
ATOM     14  C   UNL     1      17.186  -2.053  12.093  0.00  0.00    +0.000 C 
BRANCH  14  15
ATOM     15  C   UNL     1      17.243  -2.718  13.490  0.00  0.00    +0.000 C 
ATOM     16  C   UNL     1      15.908  -3.309  13.927  0.00  0.00    +0.000 C 
BRANCH  15  17
ATOM     17  O   UNL     1      18.223  -3.753  13.541  0.00  0.00    +0.000 OA
ATOM     18  H   UNL     1      18.459  -3.925  12.607  0.00  0.00    +0.000 HD
ENDBRANCH  15  17
ENDBRANCH  14  15
ENDBRANCH   1  14
TORSDOF 7
ENDMDL
MODEL 5
REMARK VINA RESULT:    -4.487      1.559      3.758
REMARK INTER + INTRA:          -6.480
REMARK INTER:                  -5.973
REMARK INTRA:                  -0.507
REMARK UNBOUND:                -0.419
REMARK  Name = 
REMARK  10 active torsions:
REMARK  status: ('A' for Active; 'I' for Inactive)
REMARK    1  A    between atoms: C_1  and  C_2
REMARK    2  A    between atoms: C_5  and  N_8
REMARK    3  A    between atoms: N_8  and  C_9
REMARK    4  A    between atoms: N_8  and  C_13
REMARK    5  A    between atoms: C_9  and  C_10
REMARK    6  A    between atoms: C_10  and  C_11
REMARK    7  A    between atoms: C_10  and  O_12
REMARK    8  A    between atoms: C_13  and  C_14
REMARK    9  A    between atoms: C_14  and  C_15
REMARK   10  A    between atoms: C_14  and  O_16
REMARK                            x       y       z     vdW  Elec       q    Type
REMARK                         _______ _______ _______ _____ _____    ______ ____
ROOT
ATOM      1  N   UNL     1      17.220  -1.051  13.611  0.00  0.00    +0.000 N 
ENDROOT
BRANCH   1   6
ATOM      2  C   UNL     1      22.655   0.681  12.722  0.00  0.00    +0.000 C 
ATOM      3  C   UNL     1      21.237   0.255  12.950  0.00  0.00    +0.000 A 
ATOM      4  C   UNL     1      20.705   0.200  14.234  0.00  0.00    +0.000 A 
ATOM      5  C   UNL     1      19.384  -0.228  14.444  0.00  0.00    +0.000 A 
ATOM      6  C   UNL     1      18.543  -0.643  13.396  0.00  0.00    +0.000 A 
ATOM      7  C   UNL     1      19.113  -0.573  12.112  0.00  0.00    +0.000 A 
ATOM      8  C   UNL     1      20.432  -0.144  11.887  0.00  0.00    +0.000 A 
ENDBRANCH   1   6
BRANCH   1   9
ATOM      9  C   UNL     1      16.110  -0.078  13.472  0.00  0.00    +0.000 C 
BRANCH   9  10
ATOM     10  C   UNL     1      15.553  -0.004  12.030  0.00  0.00    +0.000 C 
ATOM     11  C   UNL     1      14.639  -1.188  11.737  0.00  0.00    +0.000 C 
BRANCH  10  12
ATOM     12  O   UNL     1      14.799   1.200  11.830  0.00  0.00    +0.000 OA
ATOM     13  H   UNL     1      15.394   1.870  11.457  0.00  0.00    +0.000 HD
ENDBRANCH  10  12
ENDBRANCH   9  10
ENDBRANCH   1   9
BRANCH   1  14
ATOM     14  C   UNL     1      16.908  -2.240  14.445  0.00  0.00    +0.000 C 
BRANCH  14  15
ATOM     15  C   UNL     1      17.515  -3.539  13.863  0.00  0.00    +0.000 C 
ATOM     16  C   UNL     1      18.571  -4.165  14.766  0.00  0.00    +0.000 C 
BRANCH  15  17
ATOM     17  O   UNL     1      16.513  -4.522  13.608  0.00  0.00    +0.000 OA
ATOM     18  H   UNL     1      15.676  -4.112  13.907  0.00  0.00    +0.000 HD
ENDBRANCH  15  17
ENDBRANCH  14  15
ENDBRANCH   1  14
TORSDOF 7
ENDMDL
MODEL 6
REMARK VINA RESULT:    -4.484      2.089      3.014
REMARK INTER + INTRA:          -6.476
REMARK INTER:                  -5.818
REMARK INTRA:                  -0.658
REMARK UNBOUND:                -0.419
REMARK  Name = 
REMARK  10 active torsions:
REMARK  status: ('A' for Active; 'I' for Inactive)
REMARK    1  A    between atoms: C_1  and  C_2
REMARK    2  A    between atoms: C_5  and  N_8
REMARK    3  A    between atoms: N_8  and  C_9
REMARK    4  A    between atoms: N_8  and  C_13
REMARK    5  A    between atoms: C_9  and  C_10
REMARK    6  A    between atoms: C_10  and  C_11
REMARK    7  A    between atoms: C_10  and  O_12
REMARK    8  A    between atoms: C_13  and  C_14
REMARK    9  A    between atoms: C_14  and  C_15
REMARK   10  A    between atoms: C_14  and  O_16
REMARK                            x       y       z     vdW  Elec       q    Type
REMARK                         _______ _______ _______ _____ _____    ______ ____
ROOT
ATOM      1  N   UNL     1      17.039  -1.211  13.254  0.00  0.00    +0.000 N 
ENDROOT
BRANCH   1   6
ATOM      2  C   UNL     1      22.473   0.737  13.191  0.00  0.00    +0.000 C 
ATOM      3  C   UNL     1      21.071   0.208  13.211  0.00  0.00    +0.000 A 
ATOM      4  C   UNL     1      20.428  -0.154  12.032  0.00  0.00    +0.000 A 
ATOM      5  C   UNL     1      19.104  -0.621  12.053  0.00  0.00    +0.000 A 
ATOM      6  C   UNL     1      18.353  -0.726  13.238  0.00  0.00    +0.000 A 
ATOM      7  C   UNL     1      19.035  -0.353  14.410  0.00  0.00    +0.000 A 
ATOM      8  C   UNL     1      20.360   0.113  14.403  0.00  0.00    +0.000 A 
ENDBRANCH   1   6
BRANCH   1   9
ATOM      9  C   UNL     1      16.254  -1.191  14.512  0.00  0.00    +0.000 C 
BRANCH   9  10
ATOM     10  C   UNL     1      15.252  -0.012  14.576  0.00  0.00    +0.000 C 
ATOM     11  C   UNL     1      15.234   0.613  15.966  0.00  0.00    +0.000 C 
BRANCH  10  12
ATOM     12  O   UNL     1      15.601   1.011  13.633  0.00  0.00    +0.000 OA
ATOM     13  H   UNL     1      16.559   1.161  13.692  0.00  0.00    +0.000 HD
ENDBRANCH  10  12
ENDBRANCH   9  10
ENDBRANCH   1   9
BRANCH   1  14
ATOM     14  C   UNL     1      16.567  -2.189  12.240  0.00  0.00    +0.000 C 
BRANCH  14  15
ATOM     15  C   UNL     1      15.716  -1.519  11.134  0.00  0.00    +0.000 C 
ATOM     16  C   UNL     1      14.238  -1.880  11.214  0.00  0.00    +0.000 C 
BRANCH  15  17
ATOM     17  O   UNL     1      15.827  -0.097  11.172  0.00  0.00    +0.000 OA
ATOM     18  H   UNL     1      15.140   0.193  11.806  0.00  0.00    +0.000 HD
ENDBRANCH  15  17
ENDBRANCH  14  15
ENDBRANCH   1  14
TORSDOF 7
ENDMDL
MODEL 7
REMARK VINA RESULT:    -4.445      2.753      3.319
REMARK INTER + INTRA:          -6.423
REMARK INTER:                  -5.968
REMARK INTRA:                  -0.455
REMARK UNBOUND:                -0.419
REMARK  Name = 
REMARK  10 active torsions:
REMARK  status: ('A' for Active; 'I' for Inactive)
REMARK    1  A    between atoms: C_1  and  C_2
REMARK    2  A    between atoms: C_5  and  N_8
REMARK    3  A    between atoms: N_8  and  C_9
REMARK    4  A    between atoms: N_8  and  C_13
REMARK    5  A    between atoms: C_9  and  C_10
REMARK    6  A    between atoms: C_10  and  C_11
REMARK    7  A    between atoms: C_10  and  O_12
REMARK    8  A    between atoms: C_13  and  C_14
REMARK    9  A    between atoms: C_14  and  C_15
REMARK   10  A    between atoms: C_14  and  O_16
REMARK                            x       y       z     vdW  Elec       q    Type
REMARK                         _______ _______ _______ _____ _____    ______ ____
ROOT
ATOM      1  N   UNL     1      19.256  -0.046  14.823  0.00  0.00    +0.000 N 
ENDROOT
BRANCH   1   6
ATOM      2  C   UNL     1      23.754  -1.332  11.440  0.00  0.00    +0.000 C 
ATOM      3  C   UNL     1      22.602  -1.001  12.338  0.00  0.00    +0.000 A 
ATOM      4  C   UNL     1      21.726  -1.992  12.771  0.00  0.00    +0.000 A 
ATOM      5  C   UNL     1      20.629  -1.671  13.588  0.00  0.00    +0.000 A 
ATOM      6  C   UNL     1      20.340  -0.355  13.992  0.00  0.00    +0.000 A 
ATOM      7  C   UNL     1      21.248   0.620  13.538  0.00  0.00    +0.000 A 
ATOM      8  C   UNL     1      22.349   0.312  12.722  0.00  0.00    +0.000 A 
ENDBRANCH   1   6
BRANCH   1   9
ATOM      9  C   UNL     1      19.105  -0.726  16.132  0.00  0.00    +0.000 C 
BRANCH   9  10
ATOM     10  C   UNL     1      19.853   0.002  17.276  0.00  0.00    +0.000 C 
ATOM     11  C   UNL     1      21.333  -0.360  17.277  0.00  0.00    +0.000 C 
BRANCH  10  12
ATOM     12  O   UNL     1      19.743   1.426  17.139  0.00  0.00    +0.000 OA
ATOM     13  H   UNL     1      19.255   1.766  17.907  0.00  0.00    +0.000 HD
ENDBRANCH  10  12
ENDBRANCH   9  10
ENDBRANCH   1   9
BRANCH   1  14
ATOM     14  C   UNL     1      18.003   0.530  14.270  0.00  0.00    +0.000 C 
BRANCH  14  15
ATOM     15  C   UNL     1      17.886   0.316  12.742  0.00  0.00    +0.000 C 
ATOM     16  C   UNL     1      16.953  -0.829  12.367  0.00  0.00    +0.000 C 
BRANCH  15  17
ATOM     17  O   UNL     1      17.431   1.493  12.078  0.00  0.00    +0.000 OA
ATOM     18  H   UNL     1      17.117   2.082  12.794  0.00  0.00    +0.000 HD
ENDBRANCH  15  17
ENDBRANCH  14  15
ENDBRANCH   1  14
TORSDOF 7
ENDMDL
MODEL 8
REMARK VINA RESULT:    -4.416      2.396      3.464
REMARK INTER + INTRA:          -6.384
REMARK INTER:                  -5.906
REMARK INTRA:                  -0.478
REMARK UNBOUND:                -0.419
REMARK  Name = 
REMARK  10 active torsions:
REMARK  status: ('A' for Active; 'I' for Inactive)
REMARK    1  A    between atoms: C_1  and  C_2
REMARK    2  A    between atoms: C_5  and  N_8
REMARK    3  A    between atoms: N_8  and  C_9
REMARK    4  A    between atoms: N_8  and  C_13
REMARK    5  A    between atoms: C_9  and  C_10
REMARK    6  A    between atoms: C_10  and  C_11
REMARK    7  A    between atoms: C_10  and  O_12
REMARK    8  A    between atoms: C_13  and  C_14
REMARK    9  A    between atoms: C_14  and  C_15
REMARK   10  A    between atoms: C_14  and  O_16
REMARK                            x       y       z     vdW  Elec       q    Type
REMARK                         _______ _______ _______ _____ _____    ______ ____
ROOT
ATOM      1  N   UNL     1      16.489   0.090  14.401  0.00  0.00    +0.000 N 
ENDROOT
BRANCH   1   6
ATOM      2  C   UNL     1      22.008   0.070  12.706  0.00  0.00    +0.000 C 
ATOM      3  C   UNL     1      20.575   0.050  13.144  0.00  0.00    +0.000 A 
ATOM      4  C   UNL     1      19.545   0.187  12.220  0.00  0.00    +0.000 A 
ATOM      5  C   UNL     1      18.204   0.198  12.640  0.00  0.00    +0.000 A 
ATOM      6  C   UNL     1      17.829   0.098  13.992  0.00  0.00    +0.000 A 
ATOM      7  C   UNL     1      18.897  -0.041  14.897  0.00  0.00    +0.000 A 
ATOM      8  C   UNL     1      20.241  -0.056  14.491  0.00  0.00    +0.000 A 
ENDBRANCH   1   6
BRANCH   1   9
ATOM      9  C   UNL     1      15.405   0.215  13.398  0.00  0.00    +0.000 C 
BRANCH   9  10
ATOM     10  C   UNL     1      14.798  -1.152  12.996  0.00  0.00    +0.000 C 
ATOM     11  C   UNL     1      13.699  -1.567  13.966  0.00  0.00    +0.000 C 
BRANCH  10  12
ATOM     12  O   UNL     1      14.231  -1.096  11.680  0.00  0.00    +0.000 OA
ATOM     13  H   UNL     1      14.947  -0.905  11.051  0.00  0.00    +0.000 HD
ENDBRANCH  10  12
ENDBRANCH   9  10
ENDBRANCH   1   9
BRANCH   1  14
ATOM     14  C   UNL     1      16.106   0.469  15.785  0.00  0.00    +0.000 C 
BRANCH  14  15
ATOM     15  C   UNL     1      14.991   1.542  15.810  0.00  0.00    +0.000 C 
ATOM     16  C   UNL     1      14.047   1.398  16.998  0.00  0.00    +0.000 C 
BRANCH  15  17
ATOM     17  O   UNL     1      15.530   2.862  15.831  0.00  0.00    +0.000 OA
ATOM     18  H   UNL     1      16.440   2.758  16.177  0.00  0.00    +0.000 HD
ENDBRANCH  15  17
ENDBRANCH  14  15
ENDBRANCH   1  14
TORSDOF 7
ENDMDL
MODEL 9
REMARK VINA RESULT:    -4.390      1.170      2.043
REMARK INTER + INTRA:          -6.349
REMARK INTER:                  -5.856
REMARK INTRA:                  -0.493
REMARK UNBOUND:                -0.419
REMARK  Name = 
REMARK  10 active torsions:
REMARK  status: ('A' for Active; 'I' for Inactive)
REMARK    1  A    between atoms: C_1  and  C_2
REMARK    2  A    between atoms: C_5  and  N_8
REMARK    3  A    between atoms: N_8  and  C_9
REMARK    4  A    between atoms: N_8  and  C_13
REMARK    5  A    between atoms: C_9  and  C_10
REMARK    6  A    between atoms: C_10  and  C_11
REMARK    7  A    between atoms: C_10  and  O_12
REMARK    8  A    between atoms: C_13  and  C_14
REMARK    9  A    between atoms: C_14  and  C_15
REMARK   10  A    between atoms: C_14  and  O_16
REMARK                            x       y       z     vdW  Elec       q    Type
REMARK                         _______ _______ _______ _____ _____    ______ ____
ROOT
ATOM      1  N   UNL     1      16.992  -1.797  12.384  0.00  0.00    +0.000 N 
ENDROOT
BRANCH   1   6
ATOM      2  C   UNL     1      22.435   0.123  12.465  0.00  0.00    +0.000 C 
ATOM      3  C   UNL     1      21.018  -0.359  12.425  0.00  0.00    +0.000 A 
ATOM      4  C   UNL     1      20.042   0.223  13.228  0.00  0.00    +0.000 A 
ATOM      5  C   UNL     1      18.721  -0.253  13.208  0.00  0.00    +0.000 A 
ATOM      6  C   UNL     1      18.315  -1.340  12.413  0.00  0.00    +0.000 A 
ATOM      7  C   UNL     1      19.327  -1.902  11.613  0.00  0.00    +0.000 A 
ATOM      8  C   UNL     1      20.651  -1.434  11.621  0.00  0.00    +0.000 A 
ENDBRANCH   1   6
BRANCH   1   9
ATOM      9  C   UNL     1      16.646  -3.111  12.978  0.00  0.00    +0.000 C 
BRANCH   9  10
ATOM     10  C   UNL     1      17.346  -3.358  14.336  0.00  0.00    +0.000 C 
ATOM     11  C   UNL     1      16.327  -3.457  15.465  0.00  0.00    +0.000 C 
BRANCH  10  12
ATOM     12  O   UNL     1      18.101  -4.578  14.311  0.00  0.00    +0.000 OA
ATOM     13  H   UNL     1      18.551  -4.671  15.167  0.00  0.00    +0.000 HD
ENDBRANCH  10  12
ENDBRANCH   9  10
ENDBRANCH   1   9
BRANCH   1  14
ATOM     14  C   UNL     1      16.027  -1.296  11.372  0.00  0.00    +0.000 C 
BRANCH  14  15
ATOM     15  C   UNL     1      15.221  -0.078  11.885  0.00  0.00    +0.000 C 
ATOM     16  C   UNL     1      15.053  -0.066  13.400  0.00  0.00    +0.000 C 
BRANCH  15  17
ATOM     17  O   UNL     1      15.826   1.155  11.498  0.00  0.00    +0.000 OA
ATOM     18  H   UNL     1      15.921   1.662  12.329  0.00  0.00    +0.000 HD
ENDBRANCH  15  17
ENDBRANCH  14  15
ENDBRANCH   1  14
TORSDOF 7
ENDMDL
