MODEL 1
REMARK VINA RESULT:    -3.824      0.000      0.000
REMARK INTER + INTRA:          -4.209
REMARK INTER:                  -4.160
REMARK INTRA:                  -0.049
REMARK UNBOUND:                -0.049
REMARK  Name = 
REMARK  3 active torsions:
REMARK  status: ('A' for Active; 'I' for Inactive)
REMARK    1  A    between atoms: C_1  and  O_2
REMARK    2  A    between atoms: O_2  and  C_3
REMARK    3  A    between atoms: C_8  and  O_9
REMARK                            x       y       z     vdW  Elec       q    Type
REMARK                         _______ _______ _______ _____ _____    ______ ____
ROOT
ATOM      1  C   UNL     1      18.969   8.358  16.214  0.00  0.00    +0.000 A 
ATOM      2  C   UNL     1      17.648   8.291  16.656  0.00  0.00    +0.000 A 
ATOM      3  C   UNL     1      16.677   7.665  15.866  0.00  0.00    +0.000 A 
ATOM      4  C   UNL     1      17.020   7.105  14.633  0.00  0.00    +0.000 A 
ATOM      5  C   UNL     1      18.337   7.168  14.185  0.00  0.00    +0.000 A 
ATOM      6  C   UNL     1      19.294   7.791  14.976  0.00  0.00    +0.000 A 
ENDROOT
BRANCH   1   8
ATOM      7  C   UNL     1      20.025  10.360  16.938  0.00  0.00    +0.000 C 
ATOM      8  O   UNL     1      20.018   8.939  16.880  0.00  0.00    +0.000 OA
ENDBRANCH   1   8
BRANCH   6   9
ATOM      9  O   UNL     1      20.582   7.840  14.513  0.00  0.00    +0.000 OA
ATOM     10  H   UNL     1      20.656   7.083  13.902  0.00  0.00    +0.000 HD
ENDBRANCH   6   9
TORSDOF 2
ENDMDL
MODEL 2
REMARK VINA RESULT:    -3.751      8.934     10.260
REMARK INTER + INTRA:          -4.129
REMARK INTER:                  -4.091
REMARK INTRA:                  -0.037
REMARK UNBOUND:                -0.049
REMARK  Name = 
REMARK  3 active torsions:
REMARK  status: ('A' for Active; 'I' for Inactive)
REMARK    1  A    between atoms: C_1  and  O_2
REMARK    2  A    between atoms: O_2  and  C_3
REMARK    3  A    between atoms: C_8  and  O_9
REMARK                            x       y       z     vdW  Elec       q    Type
REMARK                         _______ _______ _______ _____ _____    ______ ____
ROOT
ATOM      1  C   UNL     1      19.883  -0.534  12.020  0.00  0.00    +0.000 A 
ATOM      2  C   UNL     1      20.763   0.201  12.813  0.00  0.00    +0.000 A 
ATOM      3  C   UNL     1      22.128  -0.112  12.819  0.00  0.00    +0.000 A 
ATOM      4  C   UNL     1      22.617  -1.159  12.034  0.00  0.00    +0.000 A 
ATOM      5  C   UNL     1      21.744  -1.897  11.239  0.00  0.00    +0.000 A 
ATOM      6  C   UNL     1      20.392  -1.580  11.240  0.00  0.00    +0.000 A 
ENDROOT
BRANCH   1   8
ATOM      7  C   UNL     1      17.986   0.751  12.652  0.00  0.00    +0.000 C 
ATOM      8  O   UNL     1      18.528  -0.340  11.918  0.00  0.00    +0.000 OA
ENDBRANCH   1   8
BRANCH   6   9
ATOM      9  O   UNL     1      19.553  -2.320  10.450  0.00  0.00    +0.000 OA
ATOM     10  H   UNL     1      18.675  -1.909  10.567  0.00  0.00    +0.000 HD
ENDBRANCH   6   9
TORSDOF 2
ENDMDL
MODEL 3
REMARK VINA RESULT:    -3.748      9.057     10.674
REMARK INTER + INTRA:          -4.126
REMARK INTER:                  -4.088
REMARK INTRA:                  -0.039
REMARK UNBOUND:                -0.049
REMARK  Name = 
REMARK  3 active torsions:
REMARK  status: ('A' for Active; 'I' for Inactive)
REMARK    1  A    between atoms: C_1  and  O_2
REMARK    2  A    between atoms: O_2  and  C_3
REMARK    3  A    between atoms: C_8  and  O_9
REMARK                            x       y       z     vdW  Elec       q    Type
REMARK                         _______ _______ _______ _____ _____    ______ ____
ROOT
ATOM      1  C   UNL     1      15.644  -1.015  11.610  0.00  0.00    +0.000 A 
ATOM      2  C   UNL     1      16.689  -1.937  11.667  0.00  0.00    +0.000 A 
ATOM      3  C   UNL     1      17.975  -1.515  12.027  0.00  0.00    +0.000 A 
ATOM      4  C   UNL     1      18.221  -0.174  12.329  0.00  0.00    +0.000 A 
ATOM      5  C   UNL     1      17.182   0.752  12.275  0.00  0.00    +0.000 A 
ATOM      6  C   UNL     1      15.910   0.325  11.917  0.00  0.00    +0.000 A 
ENDROOT
BRANCH   1   8
ATOM      7  C   UNL     1      14.109  -2.490  10.554  0.00  0.00    +0.000 C 
ATOM      8  O   UNL     1      14.341  -1.286  11.274  0.00  0.00    +0.000 OA
ENDBRANCH   1   8
BRANCH   6   9
ATOM      9  O   UNL     1      14.905   1.254  11.870  0.00  0.00    +0.000 OA
ATOM     10  H   UNL     1      15.277   1.996  11.356  0.00  0.00    +0.000 HD
ENDBRANCH   6   9
TORSDOF 2
ENDMDL
MODEL 4
REMARK VINA RESULT:    -3.625      9.584     10.913
REMARK INTER + INTRA:          -3.992
REMARK INTER:                  -3.948
REMARK INTRA:                  -0.043
REMARK UNBOUND:                -0.049
REMARK  Name = 
REMARK  3 active torsions:
REMARK  status: ('A' for Active; 'I' for Inactive)
REMARK    1  A    between atoms: C_1  and  O_2
REMARK    2  A    between atoms: O_2  and  C_3
REMARK    3  A    between atoms: C_8  and  O_9
REMARK                            x       y       z     vdW  Elec       q    Type
REMARK                         _______ _______ _______ _____ _____    ______ ____
ROOT
ATOM      1  C   UNL     1      22.000  -1.545  11.580  0.00  0.00    +0.000 A 
ATOM      2  C   UNL     1      22.478  -0.785  12.647  0.00  0.00    +0.000 A 
ATOM      3  C   UNL     1      21.616   0.082  13.331  0.00  0.00    +0.000 A 
ATOM      4  C   UNL     1      20.277   0.194  12.951  0.00  0.00    +0.000 A 
ATOM      5  C   UNL     1      19.792  -0.562  11.887  0.00  0.00    +0.000 A 
ATOM      6  C   UNL     1      20.654  -1.419  11.214  0.00  0.00    +0.000 A 
ENDROOT
BRANCH   1   8
ATOM      7  C   UNL     1      24.073  -2.067  10.543  0.00  0.00    +0.000 C 
ATOM      8  O   UNL     1      22.726  -2.429  10.824  0.00  0.00    +0.000 OA
ENDBRANCH   1   8
BRANCH   6   9
ATOM      9  O   UNL     1      20.153  -2.152  10.171  0.00  0.00    +0.000 OA
ATOM     10  H   UNL     1      19.196  -2.220  10.352  0.00  0.00    +0.000 HD
ENDBRANCH   6   9
TORSDOF 2
ENDMDL
MODEL 5
REMARK VINA RESULT:    -3.473      9.111      9.945
REMARK INTER + INTRA:          -3.826
REMARK INTER:                  -3.784
REMARK INTRA:                  -0.042
REMARK UNBOUND:                -0.049
REMARK  Name = 
REMARK  3 active torsions:
REMARK  status: ('A' for Active; 'I' for Inactive)
REMARK    1  A    between atoms: C_1  and  O_2
REMARK    2  A    between atoms: O_2  and  C_3
REMARK    3  A    between atoms: C_8  and  O_9
REMARK                            x       y       z     vdW  Elec       q    Type
REMARK                         _______ _______ _______ _____ _____    ______ ____
ROOT
ATOM      1  C   UNL     1      17.075  -0.447  12.322  0.00  0.00    +0.000 A 
ATOM      2  C   UNL     1      17.122  -1.744  12.832  0.00  0.00    +0.000 A 
ATOM      3  C   UNL     1      15.965  -2.533  12.845  0.00  0.00    +0.000 A 
ATOM      4  C   UNL     1      14.760  -2.031  12.349  0.00  0.00    +0.000 A 
ATOM      5  C   UNL     1      14.706  -0.737  11.837  0.00  0.00    +0.000 A 
ATOM      6  C   UNL     1      15.858   0.039  11.829  0.00  0.00    +0.000 A 
ENDROOT
BRANCH   1   8
ATOM      7  C   UNL     1      19.412  -0.130  12.028  0.00  0.00    +0.000 C 
ATOM      8  O   UNL     1      18.124   0.434  12.248  0.00  0.00    +0.000 OA
ENDBRANCH   1   8
BRANCH   6   9
ATOM      9  O   UNL     1      15.779   1.308  11.320  0.00  0.00    +0.000 OA
ATOM     10  H   UNL     1      15.722   1.185  10.353  0.00  0.00    +0.000 HD
ENDBRANCH   6   9
TORSDOF 2
ENDMDL
MODEL 6
REMARK VINA RESULT:    -3.329      1.726      3.013
REMARK INTER + INTRA:          -3.670
REMARK INTER:                  -3.618
REMARK INTRA:                  -0.053
REMARK UNBOUND:                -0.049
REMARK  Name = 
REMARK  3 active torsions:
REMARK  status: ('A' for Active; 'I' for Inactive)
REMARK    1  A    between atoms: C_1  and  O_2
REMARK    2  A    between atoms: O_2  and  C_3
REMARK    3  A    between atoms: C_8  and  O_9
REMARK                            x       y       z     vdW  Elec       q    Type
REMARK                         _______ _______ _______ _____ _____    ______ ____
ROOT
ATOM      1  C   UNL     1      18.704   8.223  16.028  0.00  0.00    +0.000 A 
ATOM      2  C   UNL     1      19.417   8.316  17.223  0.00  0.00    +0.000 A 
ATOM      3  C   UNL     1      20.751   7.895  17.276  0.00  0.00    +0.000 A 
ATOM      4  C   UNL     1      21.377   7.378  16.139  0.00  0.00    +0.000 A 
ATOM      5  C   UNL     1      20.671   7.282  14.942  0.00  0.00    +0.000 A 
ATOM      6  C   UNL     1      19.348   7.703  14.898  0.00  0.00    +0.000 A 
ENDROOT
BRANCH   1   8
ATOM      7  C   UNL     1      16.410   7.822  16.502  0.00  0.00    +0.000 C 
ATOM      8  O   UNL     1      17.399   8.595  15.831  0.00  0.00    +0.000 OA
ENDBRANCH   1   8
BRANCH   6   9
ATOM      9  O   UNL     1      18.675   7.598  13.710  0.00  0.00    +0.000 OA
ATOM     10  H   UNL     1      18.773   8.475  13.291  0.00  0.00    +0.000 HD
ENDBRANCH   6   9
TORSDOF 2
ENDMDL
MODEL 7
REMARK VINA RESULT:    -3.290     15.641     17.013
REMARK INTER + INTRA:          -3.627
REMARK INTER:                  -3.586
REMARK INTRA:                  -0.042
REMARK UNBOUND:                -0.049
REMARK  Name = 
REMARK  3 active torsions:
REMARK  status: ('A' for Active; 'I' for Inactive)
REMARK    1  A    between atoms: C_1  and  O_2
REMARK    2  A    between atoms: O_2  and  C_3
REMARK    3  A    between atoms: C_8  and  O_9
REMARK                            x       y       z     vdW  Elec       q    Type
REMARK                         _______ _______ _______ _____ _____    ______ ____
ROOT
ATOM      1  C   UNL     1      11.672  -5.996  11.413  0.00  0.00    +0.000 A 
ATOM      2  C   UNL     1      12.520  -6.936  11.996  0.00  0.00    +0.000 A 
ATOM      3  C   UNL     1      12.000  -8.143  12.480  0.00  0.00    +0.000 A 
ATOM      4  C   UNL     1      10.634  -8.414  12.385  0.00  0.00    +0.000 A 
ATOM      5  C   UNL     1       9.780  -7.480  11.804  0.00  0.00    +0.000 A 
ATOM      6  C   UNL     1      10.304  -6.286  11.326  0.00  0.00    +0.000 A 
ENDROOT
BRANCH   1   8
ATOM      7  C   UNL     1      13.135  -4.128  11.533  0.00  0.00    +0.000 C 
ATOM      8  O   UNL     1      12.040  -4.779  10.899  0.00  0.00    +0.000 OA
ENDBRANCH   1   8
BRANCH   6   9
ATOM      9  O   UNL     1       9.444  -5.383  10.759  0.00  0.00    +0.000 OA
ATOM     10  H   UNL     1      10.023  -4.703  10.365  0.00  0.00    +0.000 HD
ENDBRANCH   6   9
TORSDOF 2
ENDMDL
MODEL 8
REMARK VINA RESULT:    -3.283     15.967     16.845
REMARK INTER + INTRA:          -3.620
REMARK INTER:                  -3.580
REMARK INTRA:                  -0.039
REMARK UNBOUND:                -0.049
REMARK  Name = 
REMARK  3 active torsions:
REMARK  status: ('A' for Active; 'I' for Inactive)
REMARK    1  A    between atoms: C_1  and  O_2
REMARK    2  A    between atoms: O_2  and  C_3
REMARK    3  A    between atoms: C_8  and  O_9
REMARK                            x       y       z     vdW  Elec       q    Type
REMARK                         _______ _______ _______ _____ _____    ______ ____
ROOT
ATOM      1  C   UNL     1      12.552  -6.755  11.983  0.00  0.00    +0.000 A 
ATOM      2  C   UNL     1      11.813  -7.850  12.428  0.00  0.00    +0.000 A 
ATOM      3  C   UNL     1      10.439  -7.922  12.163  0.00  0.00    +0.000 A 
ATOM      4  C   UNL     1       9.802  -6.902  11.454  0.00  0.00    +0.000 A 
ATOM      5  C   UNL     1      10.534  -5.805  11.005  0.00  0.00    +0.000 A 
ATOM      6  C   UNL     1      11.895  -5.742  11.273  0.00  0.00    +0.000 A 
ENDROOT
BRANCH   1   8
ATOM      7  C   UNL     1      14.684  -7.713  12.413  0.00  0.00    +0.000 C 
ATOM      8  O   UNL     1      13.896  -6.554  12.171  0.00  0.00    +0.000 OA
ENDBRANCH   1   8
BRANCH   6   9
ATOM      9  O   UNL     1      12.593  -4.654  10.822  0.00  0.00    +0.000 OA
ATOM     10  H   UNL     1      13.187  -4.417  11.560  0.00  0.00    +0.000 HD
ENDBRANCH   6   9
TORSDOF 2
ENDMDL
MODEL 9
REMARK VINA RESULT:    -3.209      8.737      9.780
REMARK INTER + INTRA:          -3.540
REMARK INTER:                  -3.490
REMARK INTRA:                  -0.049
REMARK UNBOUND:                -0.049
REMARK  Name = 
REMARK  3 active torsions:
REMARK  status: ('A' for Active; 'I' for Inactive)
REMARK    1  A    between atoms: C_1  and  O_2
REMARK    2  A    between atoms: O_2  and  C_3
REMARK    3  A    between atoms: C_8  and  O_9
REMARK                            x       y       z     vdW  Elec       q    Type
REMARK                         _______ _______ _______ _____ _____    ______ ____
ROOT
ATOM      1  C   UNL     1      20.191  -0.337  12.107  0.00  0.00    +0.000 A 
ATOM      2  C   UNL     1      19.101   0.202  12.790  0.00  0.00    +0.000 A 
ATOM      3  C   UNL     1      17.830  -0.369  12.640  0.00  0.00    +0.000 A 
ATOM      4  C   UNL     1      17.644  -1.476  11.810  0.00  0.00    +0.000 A 
ATOM      5  C   UNL     1      18.728  -2.020  11.125  0.00  0.00    +0.000 A 
ATOM      6  C   UNL     1      19.985  -1.448  11.279  0.00  0.00    +0.000 A 
ENDROOT
BRANCH   1   8
ATOM      7  C   UNL     1      22.053   0.268  13.453  0.00  0.00    +0.000 C 
ATOM      8  O   UNL     1      21.484   0.116  12.158  0.00  0.00    +0.000 OA
ENDBRANCH   1   8
BRANCH   6   9
ATOM      9  O   UNL     1      21.035  -2.000  10.596  0.00  0.00    +0.000 OA
ATOM     10  H   UNL     1      21.114  -2.906  10.952  0.00  0.00    +0.000 HD
ENDBRANCH   6   9
TORSDOF 2
ENDMDL
