MODEL 1
REMARK VINA RESULT:    -3.764      0.000      0.000
REMARK INTER + INTRA:          -4.132
REMARK INTER:                  -4.094
REMARK INTRA:                  -0.037
REMARK UNBOUND:                -0.037
REMARK  Name = 
REMARK  3 active torsions:
REMARK  status: ('A' for Active; 'I' for Inactive)
REMARK    1  A    between atoms: C_1  and  O_2
REMARK    2  A    between atoms: O_2  and  C_3
REMARK    3  A    between atoms: C_8  and  O_9
REMARK                            x       y       z     vdW  Elec       q    Type
REMARK                         _______ _______ _______ _____ _____    ______ ____
ROOT
ATOM      1  C   UNL     1      19.880  -0.515  12.021  0.00  0.00    +0.000 A 
ATOM      2  C   UNL     1      20.776   0.224  12.793  0.00  0.00    +0.000 A 
ATOM      3  C   UNL     1      22.139  -0.096  12.780  0.00  0.00    +0.000 A 
ATOM      4  C   UNL     1      22.611  -1.153  12.000  0.00  0.00    +0.000 A 
ATOM      5  C   UNL     1      21.723  -1.896  11.226  0.00  0.00    +0.000 A 
ATOM      6  C   UNL     1      20.372  -1.571  11.245  0.00  0.00    +0.000 A 
ENDROOT
BRANCH   1   8
ATOM      7  C   UNL     1      17.999   0.783  12.672  0.00  0.00    +0.000 C 
ATOM      8  O   UNL     1      18.525  -0.315  11.937  0.00  0.00    +0.000 OA
ENDBRANCH   1   8
BRANCH   6   9
ATOM      9  O   UNL     1      19.518  -2.316  10.476  0.00  0.00    +0.000 OA
ATOM     10  H   UNL     1      18.711  -1.771  10.402  0.00  0.00    +0.000 HD
ENDBRANCH   6   9
TORSDOF 2
ENDMDL
MODEL 2
REMARK VINA RESULT:    -3.756      3.482      4.894
REMARK INTER + INTRA:          -4.123
REMARK INTER:                  -4.085
REMARK INTRA:                  -0.038
REMARK UNBOUND:                -0.037
REMARK  Name = 
REMARK  3 active torsions:
REMARK  status: ('A' for Active; 'I' for Inactive)
REMARK    1  A    between atoms: C_1  and  O_2
REMARK    2  A    between atoms: O_2  and  C_3
REMARK    3  A    between atoms: C_8  and  O_9
REMARK                            x       y       z     vdW  Elec       q    Type
REMARK                         _______ _______ _______ _____ _____    ______ ____
ROOT
ATOM      1  C   UNL     1      15.697  -0.983  11.619  0.00  0.00    +0.000 A 
ATOM      2  C   UNL     1      16.747  -1.901  11.648  0.00  0.00    +0.000 A 
ATOM      3  C   UNL     1      18.031  -1.483  12.020  0.00  0.00    +0.000 A 
ATOM      4  C   UNL     1      18.270  -0.151  12.363  0.00  0.00    +0.000 A 
ATOM      5  C   UNL     1      17.227   0.771  12.337  0.00  0.00    +0.000 A 
ATOM      6  C   UNL     1      15.957   0.348  11.966  0.00  0.00    +0.000 A 
ENDROOT
BRANCH   1   8
ATOM      7  C   UNL     1      14.159  -2.476  10.592  0.00  0.00    +0.000 C 
ATOM      8  O   UNL     1      14.396  -1.250  11.275  0.00  0.00    +0.000 OA
ENDBRANCH   1   8
BRANCH   6   9
ATOM      9  O   UNL     1      14.947   1.273  11.947  0.00  0.00    +0.000 OA
ATOM     10  H   UNL     1      15.029   1.713  11.080  0.00  0.00    +0.000 HD
ENDBRANCH   6   9
TORSDOF 2
ENDMDL
MODEL 3
REMARK VINA RESULT:    -3.536      9.396     10.510
REMARK INTER + INTRA:          -3.883
REMARK INTER:                  -3.841
REMARK INTRA:                  -0.043
REMARK UNBOUND:                -0.037
REMARK  Name = 
REMARK  3 active torsions:
REMARK  status: ('A' for Active; 'I' for Inactive)
REMARK    1  A    between atoms: C_1  and  O_2
REMARK    2  A    between atoms: O_2  and  C_3
REMARK    3  A    between atoms: C_8  and  O_9
REMARK                            x       y       z     vdW  Elec       q    Type
REMARK                         _______ _______ _______ _____ _____    ______ ____
ROOT
ATOM      1  C   UNL     1      16.817   7.960  16.002  0.00  0.00    +0.000 A 
ATOM      2  C   UNL     1      17.001   7.094  14.925  0.00  0.00    +0.000 A 
ATOM      3  C   UNL     1      18.093   7.268  14.066  0.00  0.00    +0.000 A 
ATOM      4  C   UNL     1      19.002   8.306  14.279  0.00  0.00    +0.000 A 
ATOM      5  C   UNL     1      18.825   9.175  15.353  0.00  0.00    +0.000 A 
ATOM      6  C   UNL     1      17.739   8.995  16.199  0.00  0.00    +0.000 A 
ENDROOT
BRANCH   1   8
ATOM      7  C   UNL     1      15.330   6.613  17.276  0.00  0.00    +0.000 C 
ATOM      8  O   UNL     1      15.797   7.908  16.918  0.00  0.00    +0.000 OA
ENDBRANCH   1   8
BRANCH   6   9
ATOM      9  O   UNL     1      17.585   9.862  17.248  0.00  0.00    +0.000 OA
ATOM     10  H   UNL     1      18.184   9.523  17.941  0.00  0.00    +0.000 HD
ENDBRANCH   6   9
TORSDOF 2
ENDMDL
MODEL 4
REMARK VINA RESULT:    -3.531      9.611     10.850
REMARK INTER + INTRA:          -3.878
REMARK INTER:                  -3.826
REMARK INTRA:                  -0.052
REMARK UNBOUND:                -0.037
REMARK  Name = 
REMARK  3 active torsions:
REMARK  status: ('A' for Active; 'I' for Inactive)
REMARK    1  A    between atoms: C_1  and  O_2
REMARK    2  A    between atoms: O_2  and  C_3
REMARK    3  A    between atoms: C_8  and  O_9
REMARK                            x       y       z     vdW  Elec       q    Type
REMARK                         _______ _______ _______ _____ _____    ______ ____
ROOT
ATOM      1  C   UNL     1      18.531   9.206  15.617  0.00  0.00    +0.000 A 
ATOM      2  C   UNL     1      19.232   8.448  14.680  0.00  0.00    +0.000 A 
ATOM      3  C   UNL     1      18.659   7.284  14.153  0.00  0.00    +0.000 A 
ATOM      4  C   UNL     1      17.389   6.873  14.559  0.00  0.00    +0.000 A 
ATOM      5  C   UNL     1      16.682   7.626  15.495  0.00  0.00    +0.000 A 
ATOM      6  C   UNL     1      17.258   8.779  16.013  0.00  0.00    +0.000 A 
ENDROOT
BRANCH   1   8
ATOM      7  C   UNL     1      20.032  10.231  17.149  0.00  0.00    +0.000 C 
ATOM      8  O   UNL     1      18.967  10.362  16.215  0.00  0.00    +0.000 OA
ENDBRANCH   1   8
BRANCH   6   9
ATOM      9  O   UNL     1      16.544   9.501  16.931  0.00  0.00    +0.000 OA
ATOM     10  H   UNL     1      17.062  10.318  17.062  0.00  0.00    +0.000 HD
ENDBRANCH   6   9
TORSDOF 2
ENDMDL
MODEL 5
REMARK VINA RESULT:    -3.494      0.961      0.981
REMARK INTER + INTRA:          -3.838
REMARK INTER:                  -3.788
REMARK INTRA:                  -0.050
REMARK UNBOUND:                -0.037
REMARK  Name = 
REMARK  3 active torsions:
REMARK  status: ('A' for Active; 'I' for Inactive)
REMARK    1  A    between atoms: C_1  and  O_2
REMARK    2  A    between atoms: O_2  and  C_3
REMARK    3  A    between atoms: C_8  and  O_9
REMARK                            x       y       z     vdW  Elec       q    Type
REMARK                         _______ _______ _______ _____ _____    ______ ____
ROOT
ATOM      1  C   UNL     1      19.238  -0.655  12.162  0.00  0.00    +0.000 A 
ATOM      2  C   UNL     1      19.940   0.146  13.062  0.00  0.00    +0.000 A 
ATOM      3  C   UNL     1      21.336   0.060  13.134  0.00  0.00    +0.000 A 
ATOM      4  C   UNL     1      22.034  -0.824  12.309  0.00  0.00    +0.000 A 
ATOM      5  C   UNL     1      21.340  -1.627  11.407  0.00  0.00    +0.000 A 
ATOM      6  C   UNL     1      19.956  -1.536  11.343  0.00  0.00    +0.000 A 
ENDROOT
BRANCH   1   8
ATOM      7  C   UNL     1      17.111  -1.251  13.038  0.00  0.00    +0.000 C 
ATOM      8  O   UNL     1      17.878  -0.677  11.986  0.00  0.00    +0.000 OA
ENDBRANCH   1   8
BRANCH   6   9
ATOM      9  O   UNL     1      19.296  -2.335  10.449  0.00  0.00    +0.000 OA
ATOM     10  H   UNL     1      18.449  -1.878  10.285  0.00  0.00    +0.000 HD
ENDBRANCH   6   9
TORSDOF 2
ENDMDL
MODEL 6
REMARK VINA RESULT:    -3.439      2.908      5.207
REMARK INTER + INTRA:          -3.778
REMARK INTER:                  -3.735
REMARK INTRA:                  -0.043
REMARK UNBOUND:                -0.037
REMARK  Name = 
REMARK  3 active torsions:
REMARK  status: ('A' for Active; 'I' for Inactive)
REMARK    1  A    between atoms: C_1  and  O_2
REMARK    2  A    between atoms: O_2  and  C_3
REMARK    3  A    between atoms: C_8  and  O_9
REMARK                            x       y       z     vdW  Elec       q    Type
REMARK                         _______ _______ _______ _____ _____    ______ ____
ROOT
ATOM      1  C   UNL     1      16.984  -0.407  12.484  0.00  0.00    +0.000 A 
ATOM      2  C   UNL     1      17.003  -1.667  13.080  0.00  0.00    +0.000 A 
ATOM      3  C   UNL     1      15.842  -2.450  13.098  0.00  0.00    +0.000 A 
ATOM      4  C   UNL     1      14.660  -1.978  12.523  0.00  0.00    +0.000 A 
ATOM      5  C   UNL     1      14.634  -0.720  11.925  0.00  0.00    +0.000 A 
ATOM      6  C   UNL     1      15.790   0.050  11.912  0.00  0.00    +0.000 A 
ENDROOT
BRANCH   1   8
ATOM      7  C   UNL     1      19.319  -0.113  12.159  0.00  0.00    +0.000 C 
ATOM      8  O   UNL     1      18.040   0.464  12.394  0.00  0.00    +0.000 OA
ENDBRANCH   1   8
BRANCH   6   9
ATOM      9  O   UNL     1      15.739   1.283  11.319  0.00  0.00    +0.000 OA
ATOM     10  H   UNL     1      16.673   1.543  11.205  0.00  0.00    +0.000 HD
ENDBRANCH   6   9
TORSDOF 2
ENDMDL
MODEL 7
REMARK VINA RESULT:    -3.284      9.528     10.838
REMARK INTER + INTRA:          -3.609
REMARK INTER:                  -3.568
REMARK INTRA:                  -0.042
REMARK UNBOUND:                -0.037
REMARK  Name = 
REMARK  3 active torsions:
REMARK  status: ('A' for Active; 'I' for Inactive)
REMARK    1  A    between atoms: C_1  and  O_2
REMARK    2  A    between atoms: O_2  and  C_3
REMARK    3  A    between atoms: C_8  and  O_9
REMARK                            x       y       z     vdW  Elec       q    Type
REMARK                         _______ _______ _______ _____ _____    ______ ____
ROOT
ATOM      1  C   UNL     1      12.546  -6.735  12.009  0.00  0.00    +0.000 A 
ATOM      2  C   UNL     1      11.768  -7.813  12.430  0.00  0.00    +0.000 A 
ATOM      3  C   UNL     1      10.404  -7.856  12.115  0.00  0.00    +0.000 A 
ATOM      4  C   UNL     1       9.814  -6.826  11.380  0.00  0.00    +0.000 A 
ATOM      5  C   UNL     1      10.584  -5.747  10.955  0.00  0.00    +0.000 A 
ATOM      6  C   UNL     1      11.936  -5.711  11.273  0.00  0.00    +0.000 A 
ENDROOT
BRANCH   1   8
ATOM      7  C   UNL     1      14.675  -7.742  12.323  0.00  0.00    +0.000 C 
ATOM      8  O   UNL     1      13.886  -6.561  12.245  0.00  0.00    +0.000 OA
ENDBRANCH   1   8
BRANCH   6   9
ATOM      9  O   UNL     1      12.673  -4.640  10.844  0.00  0.00    +0.000 OA
ATOM     10  H   UNL     1      12.471  -4.564   9.892  0.00  0.00    +0.000 HD
ENDBRANCH   6   9
TORSDOF 2
ENDMDL
MODEL 8
REMARK VINA RESULT:    -3.225      1.642      3.050
REMARK INTER + INTRA:          -3.545
REMARK INTER:                  -3.499
REMARK INTRA:                  -0.046
REMARK UNBOUND:                -0.037
REMARK  Name = 
REMARK  3 active torsions:
REMARK  status: ('A' for Active; 'I' for Inactive)
REMARK    1  A    between atoms: C_1  and  O_2
REMARK    2  A    between atoms: O_2  and  C_3
REMARK    3  A    between atoms: C_8  and  O_9
REMARK                            x       y       z     vdW  Elec       q    Type
REMARK                         _______ _______ _______ _____ _____    ______ ____
ROOT
ATOM      1  C   UNL     1      20.196  -0.341  12.120  0.00  0.00    +0.000 A 
ATOM      2  C   UNL     1      19.108   0.200  12.804  0.00  0.00    +0.000 A 
ATOM      3  C   UNL     1      17.835  -0.363  12.650  0.00  0.00    +0.000 A 
ATOM      4  C   UNL     1      17.644  -1.463  11.812  0.00  0.00    +0.000 A 
ATOM      5  C   UNL     1      18.726  -2.009  11.126  0.00  0.00    +0.000 A 
ATOM      6  C   UNL     1      19.985  -1.445  11.285  0.00  0.00    +0.000 A 
ENDROOT
BRANCH   1   8
ATOM      7  C   UNL     1      22.000   0.420  13.467  0.00  0.00    +0.000 C 
ATOM      8  O   UNL     1      21.492   0.105  12.176  0.00  0.00    +0.000 OA
ENDBRANCH   1   8
BRANCH   6   9
ATOM      9  O   UNL     1      21.034  -1.999  10.600  0.00  0.00    +0.000 OA
ATOM     10  H   UNL     1      21.637  -1.252  10.423  0.00  0.00    +0.000 HD
ENDBRANCH   6   9
TORSDOF 2
ENDMDL
MODEL 9
REMARK VINA RESULT:    -3.186      3.349      4.460
REMARK INTER + INTRA:          -3.502
REMARK INTER:                  -3.450
REMARK INTRA:                  -0.053
REMARK UNBOUND:                -0.037
REMARK  Name = 
REMARK  3 active torsions:
REMARK  status: ('A' for Active; 'I' for Inactive)
REMARK    1  A    between atoms: C_1  and  O_2
REMARK    2  A    between atoms: O_2  and  C_3
REMARK    3  A    between atoms: C_8  and  O_9
REMARK                            x       y       z     vdW  Elec       q    Type
REMARK                         _______ _______ _______ _____ _____    ______ ____
ROOT
ATOM      1  C   UNL     1      16.047  -0.179  13.559  0.00  0.00    +0.000 A 
ATOM      2  C   UNL     1      16.869  -0.707  14.553  0.00  0.00    +0.000 A 
ATOM      3  C   UNL     1      18.255  -0.514  14.490  0.00  0.00    +0.000 A 
ATOM      4  C   UNL     1      18.822   0.203  13.436  0.00  0.00    +0.000 A 
ATOM      5  C   UNL     1      18.007   0.734  12.439  0.00  0.00    +0.000 A 
ATOM      6  C   UNL     1      16.634   0.538  12.509  0.00  0.00    +0.000 A 
ENDROOT
BRANCH   1   8
ATOM      7  C   UNL     1      14.160  -1.595  13.274  0.00  0.00    +0.000 C 
ATOM      8  O   UNL     1      14.681  -0.290  13.493  0.00  0.00    +0.000 OA
ENDBRANCH   1   8
BRANCH   6   9
ATOM      9  O   UNL     1      15.853   1.069  11.518  0.00  0.00    +0.000 OA
ATOM     10  H   UNL     1      15.857   0.395  10.811  0.00  0.00    +0.000 HD
ENDBRANCH   6   9
TORSDOF 2
ENDMDL
