MODEL 1
REMARK VINA RESULT:    -4.708      0.000      0.000
REMARK INTER + INTRA:          -6.783
REMARK INTER:                  -6.360
REMARK INTRA:                  -0.423
REMARK UNBOUND:                -0.423
REMARK  Name = 
REMARK  10 active torsions:
REMARK  status: ('A' for Active; 'I' for Inactive)
REMARK    1  A    between atoms: C_1  and  C_2
REMARK    2  A    between atoms: C_5  and  N_8
REMARK    3  A    between atoms: N_8  and  C_9
REMARK    4  A    between atoms: N_8  and  C_13
REMARK    5  A    between atoms: C_9  and  C_10
REMARK    6  A    between atoms: C_10  and  C_11
REMARK    7  A    between atoms: C_10  and  O_12
REMARK    8  A    between atoms: C_13  and  C_14
REMARK    9  A    between atoms: C_14  and  C_15
REMARK   10  A    between atoms: C_14  and  O_16
REMARK                            x       y       z     vdW  Elec       q    Type
REMARK                         _______ _______ _______ _____ _____    ______ ____
ROOT
ATOM      1  N   UNL     1      18.497  -0.754  12.469  0.00  0.00    +0.000 N 
ENDROOT
BRANCH   1   6
ATOM      2  C   UNL     1      24.209  -0.895  11.637  0.00  0.00    +0.000 C 
ATOM      3  C   UNL     1      22.729  -0.873  11.873  0.00  0.00    +0.000 A 
ATOM      4  C   UNL     1      21.899  -1.827  11.295  0.00  0.00    +0.000 A 
ATOM      5  C   UNL     1      20.510  -1.783  11.496  0.00  0.00    +0.000 A 
ATOM      6  C   UNL     1      19.882  -0.781  12.257  0.00  0.00    +0.000 A 
ATOM      7  C   UNL     1      20.752   0.166  12.828  0.00  0.00    +0.000 A 
ATOM      8  C   UNL     1      22.143   0.133  12.637  0.00  0.00    +0.000 A 
ENDBRANCH   1   6
BRANCH   1   9
ATOM      9  C   UNL     1      17.682  -1.964  12.204  0.00  0.00    +0.000 C 
BRANCH   9  10
ATOM     10  C   UNL     1      17.444  -2.817  13.474  0.00  0.00    +0.000 C 
ATOM     11  C   UNL     1      16.068  -3.473  13.440  0.00  0.00    +0.000 C 
BRANCH  10  12
ATOM     12  O   UNL     1      18.428  -3.854  13.589  0.00  0.00    +0.000 OA
ATOM     13  H   UNL     1      18.071  -4.656  13.171  0.00  0.00    +0.000 HD
ENDBRANCH  10  12
ENDBRANCH   9  10
ENDBRANCH   1   9
BRANCH   1  14
ATOM     14  C   UNL     1      17.741   0.524  12.453  0.00  0.00    +0.000 C 
BRANCH  14  15
ATOM     15  C   UNL     1      16.225   0.304  12.237  0.00  0.00    +0.000 C 
ATOM     16  C   UNL     1      15.419   0.370  13.529  0.00  0.00    +0.000 C 
BRANCH  15  17
ATOM     17  O   UNL     1      15.678   1.256  11.327  0.00  0.00    +0.000 OA
ATOM     18  H   UNL     1      15.223   0.722  10.645  0.00  0.00    +0.000 HD
ENDBRANCH  15  17
ENDBRANCH  14  15
ENDBRANCH   1  14
TORSDOF 7
ENDMDL
MODEL 2
REMARK VINA RESULT:    -4.665      2.427      3.793
REMARK INTER + INTRA:          -6.724
REMARK INTER:                  -6.505
REMARK INTRA:                  -0.219
REMARK UNBOUND:                -0.423
REMARK  Name = 
REMARK  10 active torsions:
REMARK  status: ('A' for Active; 'I' for Inactive)
REMARK    1  A    between atoms: C_1  and  C_2
REMARK    2  A    between atoms: C_5  and  N_8
REMARK    3  A    between atoms: N_8  and  C_9
REMARK    4  A    between atoms: N_8  and  C_13
REMARK    5  A    between atoms: C_9  and  C_10
REMARK    6  A    between atoms: C_10  and  C_11
REMARK    7  A    between atoms: C_10  and  O_12
REMARK    8  A    between atoms: C_13  and  C_14
REMARK    9  A    between atoms: C_14  and  C_15
REMARK   10  A    between atoms: C_14  and  O_16
REMARK                            x       y       z     vdW  Elec       q    Type
REMARK                         _______ _______ _______ _____ _____    ______ ____
ROOT
ATOM      1  N   UNL     1      16.848   0.547  14.155  0.00  0.00    +0.000 N 
ENDROOT
BRANCH   1   6
ATOM      2  C   UNL     1      22.417  -0.283  12.877  0.00  0.00    +0.000 C 
ATOM      3  C   UNL     1      20.976  -0.043  13.209  0.00  0.00    +0.000 A 
ATOM      4  C   UNL     1      20.538  -0.036  14.529  0.00  0.00    +0.000 A 
ATOM      5  C   UNL     1      19.181   0.159  14.833  0.00  0.00    +0.000 A 
ATOM      6  C   UNL     1      18.197   0.333  13.844  0.00  0.00    +0.000 A 
ATOM      7  C   UNL     1      18.675   0.323  12.520  0.00  0.00    +0.000 A 
ATOM      8  C   UNL     1      20.030   0.130  12.203  0.00  0.00    +0.000 A 
ENDBRANCH   1   6
BRANCH   1   9
ATOM      9  C   UNL     1      16.478   1.313  15.369  0.00  0.00    +0.000 C 
BRANCH   9  10
ATOM     10  C   UNL     1      14.948   1.500  15.517  0.00  0.00    +0.000 C 
ATOM     11  C   UNL     1      14.472   1.036  16.888  0.00  0.00    +0.000 C 
BRANCH  10  12
ATOM     12  O   UNL     1      14.580   2.878  15.362  0.00  0.00    +0.000 OA
ATOM     13  H   UNL     1      14.053   3.138  16.135  0.00  0.00    +0.000 HD
ENDBRANCH  10  12
ENDBRANCH   9  10
ENDBRANCH   1   9
BRANCH   1  14
ATOM     14  C   UNL     1      15.787  -0.355  13.638  0.00  0.00    +0.000 C 
BRANCH  14  15
ATOM     15  C   UNL     1      15.475  -0.095  12.145  0.00  0.00    +0.000 C 
ATOM     16  C   UNL     1      14.661  -1.210  11.499  0.00  0.00    +0.000 C 
BRANCH  15  17
ATOM     17  O   UNL     1      14.769   1.131  11.959  0.00  0.00    +0.000 OA
ATOM     18  H   UNL     1      15.448   1.830  12.050  0.00  0.00    +0.000 HD
ENDBRANCH  15  17
ENDBRANCH  14  15
ENDBRANCH   1  14
TORSDOF 7
ENDMDL
MODEL 3
REMARK VINA RESULT:    -4.616      1.908      2.624
REMARK INTER + INTRA:          -6.659
REMARK INTER:                  -6.289
REMARK INTRA:                  -0.370
REMARK UNBOUND:                -0.423
REMARK  Name = 
REMARK  10 active torsions:
REMARK  status: ('A' for Active; 'I' for Inactive)
REMARK    1  A    between atoms: C_1  and  C_2
REMARK    2  A    between atoms: C_5  and  N_8
REMARK    3  A    between atoms: N_8  and  C_9
REMARK    4  A    between atoms: N_8  and  C_13
REMARK    5  A    between atoms: C_9  and  C_10
REMARK    6  A    between atoms: C_10  and  C_11
REMARK    7  A    between atoms: C_10  and  O_12
REMARK    8  A    between atoms: C_13  and  C_14
REMARK    9  A    between atoms: C_14  and  C_15
REMARK   10  A    between atoms: C_14  and  O_16
REMARK                            x       y       z     vdW  Elec       q    Type
REMARK                         _______ _______ _______ _____ _____    ______ ____
ROOT
ATOM      1  N   UNL     1      18.146  -0.034  12.632  0.00  0.00    +0.000 N 
ENDROOT
BRANCH   1   6
ATOM      2  C   UNL     1      23.598  -1.591  11.547  0.00  0.00    +0.000 C 
ATOM      3  C   UNL     1      22.183  -1.203  11.848  0.00  0.00    +0.000 A 
ATOM      4  C   UNL     1      21.117  -1.873  11.257  0.00  0.00    +0.000 A 
ATOM      5  C   UNL     1      19.793  -1.485  11.520  0.00  0.00    +0.000 A 
ATOM      6  C   UNL     1      19.469  -0.403  12.359  0.00  0.00    +0.000 A 
ATOM      7  C   UNL     1      20.571   0.250  12.941  0.00  0.00    +0.000 A 
ATOM      8  C   UNL     1      21.900  -0.130  12.688  0.00  0.00    +0.000 A 
ENDBRANCH   1   6
BRANCH   1   9
ATOM      9  C   UNL     1      17.864   1.158  13.468  0.00  0.00    +0.000 C 
BRANCH   9  10
ATOM     10  C   UNL     1      17.206   0.799  14.823  0.00  0.00    +0.000 C 
ATOM     11  C   UNL     1      18.256   0.382  15.845  0.00  0.00    +0.000 C 
BRANCH  10  12
ATOM     12  O   UNL     1      16.485   1.918  15.357  0.00  0.00    +0.000 OA
ATOM     13  H   UNL     1      15.569   1.868  15.035  0.00  0.00    +0.000 HD
ENDBRANCH  10  12
ENDBRANCH   9  10
ENDBRANCH   1   9
BRANCH   1  14
ATOM     14  C   UNL     1      17.042  -1.026  12.566  0.00  0.00    +0.000 C 
BRANCH  14  15
ATOM     15  C   UNL     1      16.103  -0.775  11.362  0.00  0.00    +0.000 C 
ATOM     16  C   UNL     1      14.880  -1.685  11.356  0.00  0.00    +0.000 C 
BRANCH  15  17
ATOM     17  O   UNL     1      15.649   0.576  11.319  0.00  0.00    +0.000 OA
ATOM     18  H   UNL     1      15.318   0.760  12.222  0.00  0.00    +0.000 HD
ENDBRANCH  15  17
ENDBRANCH  14  15
ENDBRANCH   1  14
TORSDOF 7
ENDMDL
MODEL 4
REMARK VINA RESULT:    -4.608      0.513      3.029
REMARK INTER + INTRA:          -6.648
REMARK INTER:                  -6.192
REMARK INTRA:                  -0.456
REMARK UNBOUND:                -0.423
REMARK  Name = 
REMARK  10 active torsions:
REMARK  status: ('A' for Active; 'I' for Inactive)
REMARK    1  A    between atoms: C_1  and  C_2
REMARK    2  A    between atoms: C_5  and  N_8
REMARK    3  A    between atoms: N_8  and  C_9
REMARK    4  A    between atoms: N_8  and  C_13
REMARK    5  A    between atoms: C_9  and  C_10
REMARK    6  A    between atoms: C_10  and  C_11
REMARK    7  A    between atoms: C_10  and  O_12
REMARK    8  A    between atoms: C_13  and  C_14
REMARK    9  A    between atoms: C_14  and  C_15
REMARK   10  A    between atoms: C_14  and  O_16
REMARK                            x       y       z     vdW  Elec       q    Type
REMARK                         _______ _______ _______ _____ _____    ______ ____
ROOT
ATOM      1  N   UNL     1      17.982  -0.796  12.049  0.00  0.00    +0.000 N 
ENDROOT
BRANCH   1   6
ATOM      2  C   UNL     1      23.752  -0.800  11.859  0.00  0.00    +0.000 C 
ATOM      3  C   UNL     1      22.256  -0.814  11.929  0.00  0.00    +0.000 A 
ATOM      4  C   UNL     1      21.516  -1.752  11.216  0.00  0.00    +0.000 A 
ATOM      5  C   UNL     1      20.113  -1.741  11.261  0.00  0.00    +0.000 A 
ATOM      6  C   UNL     1      19.382  -0.788  11.993  0.00  0.00    +0.000 A 
ATOM      7  C   UNL     1      20.162   0.143  12.703  0.00  0.00    +0.000 A 
ATOM      8  C   UNL     1      21.566   0.143  12.668  0.00  0.00    +0.000 A 
ENDBRANCH   1   6
BRANCH   1   9
ATOM      9  C   UNL     1      17.253   0.380  12.583  0.00  0.00    +0.000 C 
BRANCH   9  10
ATOM     10  C   UNL     1      15.715   0.211  12.522  0.00  0.00    +0.000 C 
ATOM     11  C   UNL     1      15.099   0.327  13.911  0.00  0.00    +0.000 C 
BRANCH  10  12
ATOM     12  O   UNL     1      15.120   1.214  11.687  0.00  0.00    +0.000 OA
ATOM     13  H   UNL     1      15.327   0.997  10.762  0.00  0.00    +0.000 HD
ENDBRANCH  10  12
ENDBRANCH   9  10
ENDBRANCH   1   9
BRANCH   1  14
ATOM     14  C   UNL     1      17.221  -2.071  12.083  0.00  0.00    +0.000 C 
BRANCH  14  15
ATOM     15  C   UNL     1      17.248  -2.730  13.483  0.00  0.00    +0.000 C 
ATOM     16  C   UNL     1      15.913  -3.349  13.881  0.00  0.00    +0.000 C 
BRANCH  15  17
ATOM     17  O   UNL     1      18.248  -3.744  13.569  0.00  0.00    +0.000 OA
ATOM     18  H   UNL     1      18.742  -3.544  14.390  0.00  0.00    +0.000 HD
ENDBRANCH  15  17
ENDBRANCH  14  15
ENDBRANCH   1  14
TORSDOF 7
ENDMDL
MODEL 5
REMARK VINA RESULT:    -4.517      1.582      3.708
REMARK INTER + INTRA:          -6.525
REMARK INTER:                  -6.011
REMARK INTRA:                  -0.514
REMARK UNBOUND:                -0.423
REMARK  Name = 
REMARK  10 active torsions:
REMARK  status: ('A' for Active; 'I' for Inactive)
REMARK    1  A    between atoms: C_1  and  C_2
REMARK    2  A    between atoms: C_5  and  N_8
REMARK    3  A    between atoms: N_8  and  C_9
REMARK    4  A    between atoms: N_8  and  C_13
REMARK    5  A    between atoms: C_9  and  C_10
REMARK    6  A    between atoms: C_10  and  C_11
REMARK    7  A    between atoms: C_10  and  O_12
REMARK    8  A    between atoms: C_13  and  C_14
REMARK    9  A    between atoms: C_14  and  C_15
REMARK   10  A    between atoms: C_14  and  O_16
REMARK                            x       y       z     vdW  Elec       q    Type
REMARK                         _______ _______ _______ _____ _____    ______ ____
ROOT
ATOM      1  N   UNL     1      17.059  -1.115  13.618  0.00  0.00    +0.000 N 
ENDROOT
BRANCH   1   6
ATOM      2  C   UNL     1      22.516   0.635  12.921  0.00  0.00    +0.000 C 
ATOM      3  C   UNL     1      21.108   0.157  13.104  0.00  0.00    +0.000 A 
ATOM      4  C   UNL     1      20.313  -0.160  12.007  0.00  0.00    +0.000 A 
ATOM      5  C   UNL     1      18.984  -0.579  12.183  0.00  0.00    +0.000 A 
ATOM      6  C   UNL     1      18.378  -0.678  13.449  0.00  0.00    +0.000 A 
ATOM      7  C   UNL     1      19.212  -0.351  14.535  0.00  0.00    +0.000 A 
ATOM      8  C   UNL     1      20.543   0.067  14.373  0.00  0.00    +0.000 A 
ENDBRANCH   1   6
BRANCH   1   9
ATOM      9  C   UNL     1      15.934  -0.161  13.463  0.00  0.00    +0.000 C 
BRANCH   9  10
ATOM     10  C   UNL     1      15.474  -0.010  11.992  0.00  0.00    +0.000 C 
ATOM     11  C   UNL     1      14.643  -1.211  11.555  0.00  0.00    +0.000 C 
BRANCH  10  12
ATOM     12  O   UNL     1      14.676   1.169  11.821  0.00  0.00    +0.000 OA
ATOM     13  H   UNL     1      15.069   1.879  12.355  0.00  0.00    +0.000 HD
ENDBRANCH  10  12
ENDBRANCH   9  10
ENDBRANCH   1   9
BRANCH   1  14
ATOM     14  C   UNL     1      16.746  -2.323  14.424  0.00  0.00    +0.000 C 
BRANCH  14  15
ATOM     15  C   UNL     1      17.403  -3.598  13.845  0.00  0.00    +0.000 C 
ATOM     16  C   UNL     1      18.549  -4.124  14.700  0.00  0.00    +0.000 C 
BRANCH  15  17
ATOM     17  O   UNL     1      16.455  -4.652  13.681  0.00  0.00    +0.000 OA
ATOM     18  H   UNL     1      15.890  -4.370  12.933  0.00  0.00    +0.000 HD
ENDBRANCH  15  17
ENDBRANCH  14  15
ENDBRANCH   1  14
TORSDOF 7
ENDMDL
MODEL 6
REMARK VINA RESULT:    -4.461      2.248      3.317
REMARK INTER + INTRA:          -6.449
REMARK INTER:                  -5.984
REMARK INTRA:                  -0.465
REMARK UNBOUND:                -0.423
REMARK  Name = 
REMARK  10 active torsions:
REMARK  status: ('A' for Active; 'I' for Inactive)
REMARK    1  A    between atoms: C_1  and  C_2
REMARK    2  A    between atoms: C_5  and  N_8
REMARK    3  A    between atoms: N_8  and  C_9
REMARK    4  A    between atoms: N_8  and  C_13
REMARK    5  A    between atoms: C_9  and  C_10
REMARK    6  A    between atoms: C_10  and  C_11
REMARK    7  A    between atoms: C_10  and  O_12
REMARK    8  A    between atoms: C_13  and  C_14
REMARK    9  A    between atoms: C_14  and  C_15
REMARK   10  A    between atoms: C_14  and  O_16
REMARK                            x       y       z     vdW  Elec       q    Type
REMARK                         _______ _______ _______ _____ _____    ______ ____
ROOT
ATOM      1  N   UNL     1      16.825   0.006  14.127  0.00  0.00    +0.000 N 
ENDROOT
BRANCH   1   6
ATOM      2  C   UNL     1      22.411  -0.007  12.670  0.00  0.00    +0.000 C 
ATOM      3  C   UNL     1      20.962   0.022  13.048  0.00  0.00    +0.000 A 
ATOM      4  C   UNL     1      20.571  -0.010  14.382  0.00  0.00    +0.000 A 
ATOM      5  C   UNL     1      19.210  -0.014  14.730  0.00  0.00    +0.000 A 
ATOM      6  C   UNL     1      18.180  -0.010  13.773  0.00  0.00    +0.000 A 
ATOM      7  C   UNL     1      18.611   0.025  12.434  0.00  0.00    +0.000 A 
ATOM      8  C   UNL     1      19.969   0.031  12.073  0.00  0.00    +0.000 A 
ENDBRANCH   1   6
BRANCH   1   9
ATOM      9  C   UNL     1      15.790   0.269  13.098  0.00  0.00    +0.000 C 
BRANCH   9  10
ATOM     10  C   UNL     1      15.155  -1.029  12.541  0.00  0.00    +0.000 C 
ATOM     11  C   UNL     1      14.012  -1.502  13.431  0.00  0.00    +0.000 C 
BRANCH  10  12
ATOM     12  O   UNL     1      14.633  -0.820  11.221  0.00  0.00    +0.000 OA
ATOM     13  H   UNL     1      13.789  -0.345  11.303  0.00  0.00    +0.000 HD
ENDBRANCH  10  12
ENDBRANCH   9  10
ENDBRANCH   1   9
BRANCH   1  14
ATOM     14  C   UNL     1      16.398   0.277  15.524  0.00  0.00    +0.000 C 
BRANCH  14  15
ATOM     15  C   UNL     1      15.224   1.283  15.592  0.00  0.00    +0.000 C 
ATOM     16  C   UNL     1      14.226   0.966  16.699  0.00  0.00    +0.000 C 
BRANCH  15  17
ATOM     17  O   UNL     1      15.686   2.620  15.782  0.00  0.00    +0.000 OA
ATOM     18  H   UNL     1      16.652   2.537  15.915  0.00  0.00    +0.000 HD
ENDBRANCH  15  17
ENDBRANCH  14  15
ENDBRANCH   1  14
TORSDOF 7
ENDMDL
MODEL 7
REMARK VINA RESULT:    -4.413      1.246      2.120
REMARK INTER + INTRA:          -6.384
REMARK INTER:                  -5.886
REMARK INTRA:                  -0.499
REMARK UNBOUND:                -0.423
REMARK  Name = 
REMARK  10 active torsions:
REMARK  status: ('A' for Active; 'I' for Inactive)
REMARK    1  A    between atoms: C_1  and  C_2
REMARK    2  A    between atoms: C_5  and  N_8
REMARK    3  A    between atoms: N_8  and  C_9
REMARK    4  A    between atoms: N_8  and  C_13
REMARK    5  A    between atoms: C_9  and  C_10
REMARK    6  A    between atoms: C_10  and  C_11
REMARK    7  A    between atoms: C_10  and  O_12
REMARK    8  A    between atoms: C_13  and  C_14
REMARK    9  A    between atoms: C_14  and  C_15
REMARK   10  A    between atoms: C_14  and  O_16
REMARK                            x       y       z     vdW  Elec       q    Type
REMARK                         _______ _______ _______ _____ _____    ______ ____
ROOT
ATOM      1  N   UNL     1      17.011  -1.821  12.443  0.00  0.00    +0.000 N 
ENDROOT
BRANCH   1   6
ATOM      2  C   UNL     1      22.312   0.460  12.596  0.00  0.00    +0.000 C 
ATOM      3  C   UNL     1      20.930  -0.115  12.539  0.00  0.00    +0.000 A 
ATOM      4  C   UNL     1      19.938   0.323  13.410  0.00  0.00    +0.000 A 
ATOM      5  C   UNL     1      18.652  -0.241  13.373  0.00  0.00    +0.000 A 
ATOM      6  C   UNL     1      18.301  -1.277  12.488  0.00  0.00    +0.000 A 
ATOM      7  C   UNL     1      19.328  -1.692  11.621  0.00  0.00    +0.000 A 
ATOM      8  C   UNL     1      20.617  -1.136  11.646  0.00  0.00    +0.000 A 
ENDBRANCH   1   6
BRANCH   1   9
ATOM      9  C   UNL     1      16.745  -3.153  13.037  0.00  0.00    +0.000 C 
BRANCH   9  10
ATOM     10  C   UNL     1      17.625  -3.443  14.278  0.00  0.00    +0.000 C 
ATOM     11  C   UNL     1      16.923  -3.008  15.559  0.00  0.00    +0.000 C 
BRANCH  10  12
ATOM     12  O   UNL     1      17.918  -4.843  14.385  0.00  0.00    +0.000 OA
ATOM     13  H   UNL     1      17.076  -5.321  14.469  0.00  0.00    +0.000 HD
ENDBRANCH  10  12
ENDBRANCH   9  10
ENDBRANCH   1   9
BRANCH   1  14
ATOM     14  C   UNL     1      16.030  -1.389  11.415  0.00  0.00    +0.000 C 
BRANCH  14  15
ATOM     15  C   UNL     1      15.183  -0.182  11.886  0.00  0.00    +0.000 C 
ATOM     16  C   UNL     1      14.977  -0.147  13.395  0.00  0.00    +0.000 C 
BRANCH  15  17
ATOM     17  O   UNL     1      15.768   1.058  11.490  0.00  0.00    +0.000 OA
ATOM     18  H   UNL     1      15.010   1.659  11.342  0.00  0.00    +0.000 HD
ENDBRANCH  15  17
ENDBRANCH  14  15
ENDBRANCH   1  14
TORSDOF 7
ENDMDL
MODEL 8
REMARK VINA RESULT:    -4.413      1.941      2.985
REMARK INTER + INTRA:          -6.384
REMARK INTER:                  -5.961
REMARK INTRA:                  -0.424
REMARK UNBOUND:                -0.423
REMARK  Name = 
REMARK  10 active torsions:
REMARK  status: ('A' for Active; 'I' for Inactive)
REMARK    1  A    between atoms: C_1  and  C_2
REMARK    2  A    between atoms: C_5  and  N_8
REMARK    3  A    between atoms: N_8  and  C_9
REMARK    4  A    between atoms: N_8  and  C_13
REMARK    5  A    between atoms: C_9  and  C_10
REMARK    6  A    between atoms: C_10  and  C_11
REMARK    7  A    between atoms: C_10  and  O_12
REMARK    8  A    between atoms: C_13  and  C_14
REMARK    9  A    between atoms: C_14  and  C_15
REMARK   10  A    between atoms: C_14  and  O_16
REMARK                            x       y       z     vdW  Elec       q    Type
REMARK                         _______ _______ _______ _____ _____    ______ ____
ROOT
ATOM      1  N   UNL     1      18.298  -0.416  13.541  0.00  0.00    +0.000 N 
ENDROOT
BRANCH   1   6
ATOM      2  C   UNL     1      23.739  -0.861  11.663  0.00  0.00    +0.000 C 
ATOM      3  C   UNL     1      22.331  -0.764  12.167  0.00  0.00    +0.000 A 
ATOM      4  C   UNL     1      21.307  -1.492  11.571  0.00  0.00    +0.000 A 
ATOM      5  C   UNL     1      19.985  -1.375  12.028  0.00  0.00    +0.000 A 
ATOM      6  C   UNL     1      19.616  -0.514  13.078  0.00  0.00    +0.000 A 
ATOM      7  C   UNL     1      20.677   0.205  13.658  0.00  0.00    +0.000 A 
ATOM      8  C   UNL     1      22.004   0.095  13.212  0.00  0.00    +0.000 A 
ENDBRANCH   1   6
BRANCH   1   9
ATOM      9  C   UNL     1      17.415   0.668  13.048  0.00  0.00    +0.000 C 
BRANCH   9  10
ATOM     10  C   UNL     1      16.354   0.164  12.038  0.00  0.00    +0.000 C 
ATOM     11  C   UNL     1      15.212  -0.546  12.756  0.00  0.00    +0.000 C 
BRANCH  10  12
ATOM     12  O   UNL     1      15.798   1.254  11.289  0.00  0.00    +0.000 OA
ATOM     13  H   UNL     1      15.601   0.935  10.393  0.00  0.00    +0.000 HD
ENDBRANCH  10  12
ENDBRANCH   9  10
ENDBRANCH   1   9
BRANCH   1  14
ATOM     14  C   UNL     1      17.896  -1.004  14.845  0.00  0.00    +0.000 C 
BRANCH  14  15
ATOM     15  C   UNL     1      17.331   0.060  15.816  0.00  0.00    +0.000 C 
ATOM     16  C   UNL     1      16.101  -0.418  16.580  0.00  0.00    +0.000 C 
BRANCH  15  17
ATOM     17  O   UNL     1      18.309   0.475  16.769  0.00  0.00    +0.000 OA
ATOM     18  H   UNL     1      19.040  -0.169  16.678  0.00  0.00    +0.000 HD
ENDBRANCH  15  17
ENDBRANCH  14  15
ENDBRANCH   1  14
TORSDOF 7
ENDMDL
MODEL 9
REMARK VINA RESULT:    -4.317      2.406      3.099
REMARK INTER + INTRA:          -6.255
REMARK INTER:                  -5.448
REMARK INTRA:                  -0.807
REMARK UNBOUND:                -0.423
REMARK  Name = 
REMARK  10 active torsions:
REMARK  status: ('A' for Active; 'I' for Inactive)
REMARK    1  A    between atoms: C_1  and  C_2
REMARK    2  A    between atoms: C_5  and  N_8
REMARK    3  A    between atoms: N_8  and  C_9
REMARK    4  A    between atoms: N_8  and  C_13
REMARK    5  A    between atoms: C_9  and  C_10
REMARK    6  A    between atoms: C_10  and  C_11
REMARK    7  A    between atoms: C_10  and  O_12
REMARK    8  A    between atoms: C_13  and  C_14
REMARK    9  A    between atoms: C_14  and  C_15
REMARK   10  A    between atoms: C_14  and  O_16
REMARK                            x       y       z     vdW  Elec       q    Type
REMARK                         _______ _______ _______ _____ _____    ______ ____
ROOT
ATOM      1  N   UNL     1      18.828  -0.882  14.256  0.00  0.00    +0.000 N 
ENDROOT
BRANCH   1   6
ATOM      2  C   UNL     1      23.949  -0.886  11.590  0.00  0.00    +0.000 C 
ATOM      3  C   UNL     1      22.609  -0.876  12.261  0.00  0.00    +0.000 A 
ATOM      4  C   UNL     1      22.184   0.229  12.990  0.00  0.00    +0.000 A 
ATOM      5  C   UNL     1      20.940   0.221  13.642  0.00  0.00    +0.000 A 
ATOM      6  C   UNL     1      20.076  -0.888  13.619  0.00  0.00    +0.000 A 
ATOM      7  C   UNL     1      20.537  -1.987  12.872  0.00  0.00    +0.000 A 
ATOM      8  C   UNL     1      21.778  -1.992  12.213  0.00  0.00    +0.000 A 
ENDBRANCH   1   6
BRANCH   1   9
ATOM      9  C   UNL     1      18.728  -1.207  15.699  0.00  0.00    +0.000 C 
BRANCH   9  10
ATOM     10  C   UNL     1      18.623   0.054  16.592  0.00  0.00    +0.000 C 
ATOM     11  C   UNL     1      19.970   0.389  17.222  0.00  0.00    +0.000 C 
BRANCH  10  12
ATOM     12  O   UNL     1      18.195   1.191  15.829  0.00  0.00    +0.000 OA
ATOM     13  H   UNL     1      17.321   0.990  15.454  0.00  0.00    +0.000 HD
ENDBRANCH  10  12
ENDBRANCH   9  10
ENDBRANCH   1   9
BRANCH   1  14
ATOM     14  C   UNL     1      17.571  -1.067  13.486  0.00  0.00    +0.000 C 
BRANCH  14  15
ATOM     15  C   UNL     1      17.314   0.097  12.499  0.00  0.00    +0.000 C 
ATOM     16  C   UNL     1      15.922   0.061  11.879  0.00  0.00    +0.000 C 
BRANCH  15  17
ATOM     17  O   UNL     1      17.487   1.367  13.125  0.00  0.00    +0.000 OA
ATOM     18  H   UNL     1      18.030   1.886  12.498  0.00  0.00    +0.000 HD
ENDBRANCH  15  17
ENDBRANCH  14  15
ENDBRANCH   1  14
TORSDOF 7
ENDMDL
