MODEL 1
REMARK VINA RESULT:    -3.803      0.000      0.000
REMARK INTER + INTRA:          -4.186
REMARK INTER:                  -4.136
REMARK INTRA:                  -0.049
REMARK UNBOUND:                -0.049
REMARK  Name = 
REMARK  3 active torsions:
REMARK  status: ('A' for Active; 'I' for Inactive)
REMARK    1  A    between atoms: C_1  and  O_2
REMARK    2  A    between atoms: O_2  and  C_3
REMARK    3  A    between atoms: C_8  and  O_9
REMARK                            x       y       z     vdW  Elec       q    Type
REMARK                         _______ _______ _______ _____ _____    ______ ____
ROOT
ATOM      1  C   UNL     1      19.015   8.249  16.316  0.00  0.00    +0.000 A 
ATOM      2  C   UNL     1      17.692   8.240  16.756  0.00  0.00    +0.000 A 
ATOM      3  C   UNL     1      16.681   7.745  15.923  0.00  0.00    +0.000 A 
ATOM      4  C   UNL     1      16.988   7.258  14.651  0.00  0.00    +0.000 A 
ATOM      5  C   UNL     1      18.307   7.263  14.205  0.00  0.00    +0.000 A 
ATOM      6  C   UNL     1      19.303   7.756  15.037  0.00  0.00    +0.000 A 
ENDROOT
BRANCH   1   8
ATOM      7  C   UNL     1      20.207  10.111  17.187  0.00  0.00    +0.000 C 
ATOM      8  O   UNL     1      20.101   8.702  17.021  0.00  0.00    +0.000 OA
ENDBRANCH   1   8
BRANCH   6   9
ATOM      9  O   UNL     1      20.593   7.750  14.577  0.00  0.00    +0.000 OA
ATOM     10  H   UNL     1      21.100   8.241  15.252  0.00  0.00    +0.000 HD
ENDBRANCH   6   9
TORSDOF 2
ENDMDL
MODEL 2
REMARK VINA RESULT:    -3.750      8.959     10.219
REMARK INTER + INTRA:          -4.128
REMARK INTER:                  -4.090
REMARK INTRA:                  -0.037
REMARK UNBOUND:                -0.049
REMARK  Name = 
REMARK  3 active torsions:
REMARK  status: ('A' for Active; 'I' for Inactive)
REMARK    1  A    between atoms: C_1  and  O_2
REMARK    2  A    between atoms: O_2  and  C_3
REMARK    3  A    between atoms: C_8  and  O_9
REMARK                            x       y       z     vdW  Elec       q    Type
REMARK                         _______ _______ _______ _____ _____    ______ ____
ROOT
ATOM      1  C   UNL     1      19.862  -0.491  12.031  0.00  0.00    +0.000 A 
ATOM      2  C   UNL     1      20.761   0.244  12.803  0.00  0.00    +0.000 A 
ATOM      3  C   UNL     1      22.121  -0.089  12.800  0.00  0.00    +0.000 A 
ATOM      4  C   UNL     1      22.587  -1.154  12.028  0.00  0.00    +0.000 A 
ATOM      5  C   UNL     1      21.696  -1.893  11.253  0.00  0.00    +0.000 A 
ATOM      6  C   UNL     1      20.348  -1.556  11.263  0.00  0.00    +0.000 A 
ENDROOT
BRANCH   1   8
ATOM      7  C   UNL     1      17.981   0.793  12.711  0.00  0.00    +0.000 C 
ATOM      8  O   UNL     1      18.510  -0.279  11.939  0.00  0.00    +0.000 OA
ENDBRANCH   1   8
BRANCH   6   9
ATOM      9  O   UNL     1      19.491  -2.297  10.494  0.00  0.00    +0.000 OA
ATOM     10  H   UNL     1      18.620  -2.194  10.923  0.00  0.00    +0.000 HD
ENDBRANCH   6   9
TORSDOF 2
ENDMDL
MODEL 3
REMARK VINA RESULT:    -3.725      8.945     10.477
REMARK INTER + INTRA:          -4.101
REMARK INTER:                  -4.049
REMARK INTRA:                  -0.052
REMARK UNBOUND:                -0.049
REMARK  Name = 
REMARK  3 active torsions:
REMARK  status: ('A' for Active; 'I' for Inactive)
REMARK    1  A    between atoms: C_1  and  O_2
REMARK    2  A    between atoms: O_2  and  C_3
REMARK    3  A    between atoms: C_8  and  O_9
REMARK                            x       y       z     vdW  Elec       q    Type
REMARK                         _______ _______ _______ _____ _____    ______ ____
ROOT
ATOM      1  C   UNL     1      16.036  -1.003  11.557  0.00  0.00    +0.000 A 
ATOM      2  C   UNL     1      17.206  -1.757  11.629  0.00  0.00    +0.000 A 
ATOM      3  C   UNL     1      18.391  -1.170  12.092  0.00  0.00    +0.000 A 
ATOM      4  C   UNL     1      18.410   0.171  12.482  0.00  0.00    +0.000 A 
ATOM      5  C   UNL     1      17.245   0.931  12.412  0.00  0.00    +0.000 A 
ATOM      6  C   UNL     1      16.075   0.340  11.952  0.00  0.00    +0.000 A 
ENDROOT
BRANCH   1   8
ATOM      7  C   UNL     1      14.191  -2.458  11.907  0.00  0.00    +0.000 C 
ATOM      8  O   UNL     1      14.812  -1.445  11.125  0.00  0.00    +0.000 OA
ENDBRANCH   1   8
BRANCH   6   9
ATOM      9  O   UNL     1      14.943   1.108  11.893  0.00  0.00    +0.000 OA
ATOM     10  H   UNL     1      14.719   1.147  10.943  0.00  0.00    +0.000 HD
ENDBRANCH   6   9
TORSDOF 2
ENDMDL
MODEL 4
REMARK VINA RESULT:    -3.612      9.692     10.964
REMARK INTER + INTRA:          -3.978
REMARK INTER:                  -3.933
REMARK INTRA:                  -0.045
REMARK UNBOUND:                -0.049
REMARK  Name = 
REMARK  3 active torsions:
REMARK  status: ('A' for Active; 'I' for Inactive)
REMARK    1  A    between atoms: C_1  and  O_2
REMARK    2  A    between atoms: O_2  and  C_3
REMARK    3  A    between atoms: C_8  and  O_9
REMARK                            x       y       z     vdW  Elec       q    Type
REMARK                         _______ _______ _______ _____ _____    ______ ____
ROOT
ATOM      1  C   UNL     1      21.952  -1.537  11.537  0.00  0.00    +0.000 A 
ATOM      2  C   UNL     1      22.465  -0.794  12.600  0.00  0.00    +0.000 A 
ATOM      3  C   UNL     1      21.625   0.058  13.328  0.00  0.00    +0.000 A 
ATOM      4  C   UNL     1      20.274   0.172  12.996  0.00  0.00    +0.000 A 
ATOM      5  C   UNL     1      19.754  -0.566  11.936  0.00  0.00    +0.000 A 
ATOM      6  C   UNL     1      20.594  -1.409  11.220  0.00  0.00    +0.000 A 
ENDROOT
BRANCH   1   8
ATOM      7  C   UNL     1      23.573  -3.269  11.400  0.00  0.00    +0.000 C 
ATOM      8  O   UNL     1      22.654  -2.405  10.741  0.00  0.00    +0.000 OA
ENDBRANCH   1   8
BRANCH   6   9
ATOM      9  O   UNL     1      20.060  -2.125  10.181  0.00  0.00    +0.000 OA
ATOM     10  H   UNL     1      20.814  -2.299   9.586  0.00  0.00    +0.000 HD
ENDBRANCH   6   9
TORSDOF 2
ENDMDL
MODEL 5
REMARK VINA RESULT:    -3.460      9.044      9.929
REMARK INTER + INTRA:          -3.813
REMARK INTER:                  -3.771
REMARK INTRA:                  -0.042
REMARK UNBOUND:                -0.049
REMARK  Name = 
REMARK  3 active torsions:
REMARK  status: ('A' for Active; 'I' for Inactive)
REMARK    1  A    between atoms: C_1  and  O_2
REMARK    2  A    between atoms: O_2  and  C_3
REMARK    3  A    between atoms: C_8  and  O_9
REMARK                            x       y       z     vdW  Elec       q    Type
REMARK                         _______ _______ _______ _____ _____    ______ ____
ROOT
ATOM      1  C   UNL     1      17.037  -0.434  12.366  0.00  0.00    +0.000 A 
ATOM      2  C   UNL     1      17.098  -1.745  12.835  0.00  0.00    +0.000 A 
ATOM      3  C   UNL     1      15.953  -2.551  12.812  0.00  0.00    +0.000 A 
ATOM      4  C   UNL     1      14.745  -2.051  12.322  0.00  0.00    +0.000 A 
ATOM      5  C   UNL     1      14.676  -0.742  11.850  0.00  0.00    +0.000 A 
ATOM      6  C   UNL     1      15.817   0.050  11.878  0.00  0.00    +0.000 A 
ENDROOT
BRANCH   1   8
ATOM      7  C   UNL     1      19.371  -0.074  12.105  0.00  0.00    +0.000 C 
ATOM      8  O   UNL     1      18.074   0.464  12.329  0.00  0.00    +0.000 OA
ENDBRANCH   1   8
BRANCH   6   9
ATOM      9  O   UNL     1      15.724   1.334  11.409  0.00  0.00    +0.000 OA
ATOM     10  H   UNL     1      14.900   1.348  10.887  0.00  0.00    +0.000 HD
ENDBRANCH   6   9
TORSDOF 2
ENDMDL
MODEL 6
REMARK VINA RESULT:    -3.420      2.259      2.950
REMARK INTER + INTRA:          -3.769
REMARK INTER:                  -3.719
REMARK INTRA:                  -0.049
REMARK UNBOUND:                -0.049
REMARK  Name = 
REMARK  3 active torsions:
REMARK  status: ('A' for Active; 'I' for Inactive)
REMARK    1  A    between atoms: C_1  and  O_2
REMARK    2  A    between atoms: O_2  and  C_3
REMARK    3  A    between atoms: C_8  and  O_9
REMARK                            x       y       z     vdW  Elec       q    Type
REMARK                         _______ _______ _______ _____ _____    ______ ____
ROOT
ATOM      1  C   UNL     1      17.364   8.507  16.128  0.00  0.00    +0.000 A 
ATOM      2  C   UNL     1      18.455   9.070  15.466  0.00  0.00    +0.000 A 
ATOM      3  C   UNL     1      18.946   8.476  14.296  0.00  0.00    +0.000 A 
ATOM      4  C   UNL     1      18.352   7.321  13.785  0.00  0.00    +0.000 A 
ATOM      5  C   UNL     1      17.261   6.753  14.441  0.00  0.00    +0.000 A 
ATOM      6  C   UNL     1      16.781   7.348  15.600  0.00  0.00    +0.000 A 
ENDROOT
BRANCH   1   8
ATOM      7  C   UNL     1      16.386  10.345  17.274  0.00  0.00    +0.000 C 
ATOM      8  O   UNL     1      16.781   8.978  17.277  0.00  0.00    +0.000 OA
ENDBRANCH   1   8
BRANCH   6   9
ATOM      9  O   UNL     1      15.709   6.772  16.227  0.00  0.00    +0.000 OA
ATOM     10  H   UNL     1      14.931   7.080  15.722  0.00  0.00    +0.000 HD
ENDBRANCH   6   9
TORSDOF 2
ENDMDL
MODEL 7
REMARK VINA RESULT:    -3.340      9.305     10.452
REMARK INTER + INTRA:          -3.682
REMARK INTER:                  -3.631
REMARK INTRA:                  -0.052
REMARK UNBOUND:                -0.049
REMARK  Name = 
REMARK  3 active torsions:
REMARK  status: ('A' for Active; 'I' for Inactive)
REMARK    1  A    between atoms: C_1  and  O_2
REMARK    2  A    between atoms: O_2  and  C_3
REMARK    3  A    between atoms: C_8  and  O_9
REMARK                            x       y       z     vdW  Elec       q    Type
REMARK                         _______ _______ _______ _____ _____    ______ ____
ROOT
ATOM      1  C   UNL     1      18.089  -1.383  12.118  0.00  0.00    +0.000 A 
ATOM      2  C   UNL     1      18.122  -0.524  13.215  0.00  0.00    +0.000 A 
ATOM      3  C   UNL     1      19.313   0.130  13.556  0.00  0.00    +0.000 A 
ATOM      4  C   UNL     1      20.472  -0.073  12.804  0.00  0.00    +0.000 A 
ATOM      5  C   UNL     1      20.447  -0.930  11.706  0.00  0.00    +0.000 A 
ATOM      6  C   UNL     1      19.261  -1.574  11.376  0.00  0.00    +0.000 A 
ENDROOT
BRANCH   1   8
ATOM      7  C   UNL     1      15.950  -1.326  11.085  0.00  0.00    +0.000 C 
ATOM      8  O   UNL     1      16.999  -2.087  11.671  0.00  0.00    +0.000 OA
ENDBRANCH   1   8
BRANCH   6   9
ATOM      9  O   UNL     1      19.261  -2.412  10.292  0.00  0.00    +0.000 OA
ATOM     10  H   UNL     1      19.584  -1.862   9.553  0.00  0.00    +0.000 HD
ENDBRANCH   6   9
TORSDOF 2
ENDMDL
MODEL 8
REMARK VINA RESULT:    -3.331      8.804     10.015
REMARK INTER + INTRA:          -3.672
REMARK INTER:                  -3.629
REMARK INTRA:                  -0.043
REMARK UNBOUND:                -0.049
REMARK  Name = 
REMARK  3 active torsions:
REMARK  status: ('A' for Active; 'I' for Inactive)
REMARK    1  A    between atoms: C_1  and  O_2
REMARK    2  A    between atoms: O_2  and  C_3
REMARK    3  A    between atoms: C_8  and  O_9
REMARK                            x       y       z     vdW  Elec       q    Type
REMARK                         _______ _______ _______ _____ _____    ______ ____
ROOT
ATOM      1  C   UNL     1      17.255  -0.932  12.202  0.00  0.00    +0.000 A 
ATOM      2  C   UNL     1      16.487  -2.087  12.345  0.00  0.00    +0.000 A 
ATOM      3  C   UNL     1      15.093  -1.992  12.447  0.00  0.00    +0.000 A 
ATOM      4  C   UNL     1      14.464  -0.747  12.408  0.00  0.00    +0.000 A 
ATOM      5  C   UNL     1      15.224   0.412  12.266  0.00  0.00    +0.000 A 
ATOM      6  C   UNL     1      16.606   0.308  12.165  0.00  0.00    +0.000 A 
ENDROOT
BRANCH   1   8
ATOM      7  C   UNL     1      19.242  -1.918  11.349  0.00  0.00    +0.000 C 
ATOM      8  O   UNL     1      18.621  -0.876  12.092  0.00  0.00    +0.000 OA
ENDBRANCH   1   8
BRANCH   6   9
ATOM      9  O   UNL     1      17.332   1.461  12.026  0.00  0.00    +0.000 OA
ATOM     10  H   UNL     1      17.544   1.507  11.074  0.00  0.00    +0.000 HD
ENDBRANCH   6   9
TORSDOF 2
ENDMDL
MODEL 9
REMARK VINA RESULT:    -3.278     15.969     16.841
REMARK INTER + INTRA:          -3.615
REMARK INTER:                  -3.574
REMARK INTRA:                  -0.040
REMARK UNBOUND:                -0.049
REMARK  Name = 
REMARK  3 active torsions:
REMARK  status: ('A' for Active; 'I' for Inactive)
REMARK    1  A    between atoms: C_1  and  O_2
REMARK    2  A    between atoms: O_2  and  C_3
REMARK    3  A    between atoms: C_8  and  O_9
REMARK                            x       y       z     vdW  Elec       q    Type
REMARK                         _______ _______ _______ _____ _____    ______ ____
ROOT
ATOM      1  C   UNL     1      12.519  -6.757  11.982  0.00  0.00    +0.000 A 
ATOM      2  C   UNL     1      11.753  -7.836  12.421  0.00  0.00    +0.000 A 
ATOM      3  C   UNL     1      10.383  -7.886  12.131  0.00  0.00    +0.000 A 
ATOM      4  C   UNL     1       9.776  -6.860  11.404  0.00  0.00    +0.000 A 
ATOM      5  C   UNL     1      10.535  -5.779  10.962  0.00  0.00    +0.000 A 
ATOM      6  C   UNL     1      11.893  -5.738  11.254  0.00  0.00    +0.000 A 
ENDROOT
BRANCH   1   8
ATOM      7  C   UNL     1      14.645  -7.757  12.337  0.00  0.00    +0.000 C 
ATOM      8  O   UNL     1      13.863  -6.578  12.192  0.00  0.00    +0.000 OA
ENDBRANCH   1   8
BRANCH   6   9
ATOM      9  O   UNL     1      12.618  -4.665  10.809  0.00  0.00    +0.000 OA
ATOM     10  H   UNL     1      13.470  -4.728  11.280  0.00  0.00    +0.000 HD
ENDBRANCH   6   9
TORSDOF 2
ENDMDL
