MODEL 1
REMARK VINA RESULT:    -4.697      0.000      0.000
REMARK INTER + INTRA:          -6.774
REMARK INTER:                  -6.345
REMARK INTRA:                  -0.429
REMARK UNBOUND:                -0.429
REMARK  Name = 
REMARK  10 active torsions:
REMARK  status: ('A' for Active; 'I' for Inactive)
REMARK    1  A    between atoms: C_1  and  C_2
REMARK    2  A    between atoms: C_5  and  N_8
REMARK    3  A    between atoms: N_8  and  C_9
REMARK    4  A    between atoms: N_8  and  C_13
REMARK    5  A    between atoms: C_9  and  C_10
REMARK    6  A    between atoms: C_10  and  C_11
REMARK    7  A    between atoms: C_10  and  O_12
REMARK    8  A    between atoms: C_13  and  C_14
REMARK    9  A    between atoms: C_14  and  C_15
REMARK   10  A    between atoms: C_14  and  O_16
REMARK                            x       y       z     vdW  Elec       q    Type
REMARK                         _______ _______ _______ _____ _____    ______ ____
ROOT
ATOM      1  N   UNL     1      18.506  -0.736  12.484  0.00  0.00    +0.000 N 
ENDROOT
BRANCH   1   6
ATOM      2  C   UNL     1      24.216  -0.914  11.650  0.00  0.00    +0.000 C 
ATOM      3  C   UNL     1      22.737  -0.883  11.887  0.00  0.00    +0.000 A 
ATOM      4  C   UNL     1      21.896  -1.809  11.279  0.00  0.00    +0.000 A 
ATOM      5  C   UNL     1      20.507  -1.756  11.480  0.00  0.00    +0.000 A 
ATOM      6  C   UNL     1      19.890  -0.771  12.272  0.00  0.00    +0.000 A 
ATOM      7  C   UNL     1      20.770   0.147  12.873  0.00  0.00    +0.000 A 
ATOM      8  C   UNL     1      22.161   0.105  12.681  0.00  0.00    +0.000 A 
ENDBRANCH   1   6
BRANCH   1   9
ATOM      9  C   UNL     1      17.684  -1.944  12.231  0.00  0.00    +0.000 C 
BRANCH   9  10
ATOM     10  C   UNL     1      17.466  -2.799  13.503  0.00  0.00    +0.000 C 
ATOM     11  C   UNL     1      16.087  -3.448  13.494  0.00  0.00    +0.000 C 
BRANCH  10  12
ATOM     12  O   UNL     1      18.447  -3.842  13.598  0.00  0.00    +0.000 OA
ATOM     13  H   UNL     1      18.948  -3.711  14.420  0.00  0.00    +0.000 HD
ENDBRANCH  10  12
ENDBRANCH   9  10
ENDBRANCH   1   9
BRANCH   1  14
ATOM     14  C   UNL     1      17.756   0.546  12.458  0.00  0.00    +0.000 C 
BRANCH  14  15
ATOM     15  C   UNL     1      16.240   0.331  12.235  0.00  0.00    +0.000 C 
ATOM     16  C   UNL     1      15.427   0.412  13.522  0.00  0.00    +0.000 C 
BRANCH  15  17
ATOM     17  O   UNL     1      15.703   1.279  11.314  0.00  0.00    +0.000 OA
ATOM     18  H   UNL     1      15.620   0.791  10.470  0.00  0.00    +0.000 HD
ENDBRANCH  15  17
ENDBRANCH  14  15
ENDBRANCH   1  14
TORSDOF 7
ENDMDL
MODEL 2
REMARK VINA RESULT:    -4.665      2.420      3.779
REMARK INTER + INTRA:          -6.731
REMARK INTER:                  -6.515
REMARK INTRA:                  -0.216
REMARK UNBOUND:                -0.429
REMARK  Name = 
REMARK  10 active torsions:
REMARK  status: ('A' for Active; 'I' for Inactive)
REMARK    1  A    between atoms: C_1  and  C_2
REMARK    2  A    between atoms: C_5  and  N_8
REMARK    3  A    between atoms: N_8  and  C_9
REMARK    4  A    between atoms: N_8  and  C_13
REMARK    5  A    between atoms: C_9  and  C_10
REMARK    6  A    between atoms: C_10  and  C_11
REMARK    7  A    between atoms: C_10  and  O_12
REMARK    8  A    between atoms: C_13  and  C_14
REMARK    9  A    between atoms: C_14  and  C_15
REMARK   10  A    between atoms: C_14  and  O_16
REMARK                            x       y       z     vdW  Elec       q    Type
REMARK                         _______ _______ _______ _____ _____    ______ ____
ROOT
ATOM      1  N   UNL     1      16.849   0.550  14.136  0.00  0.00    +0.000 N 
ENDROOT
BRANCH   1   6
ATOM      2  C   UNL     1      22.404  -0.346  12.843  0.00  0.00    +0.000 C 
ATOM      3  C   UNL     1      20.967  -0.089  13.179  0.00  0.00    +0.000 A 
ATOM      4  C   UNL     1      20.530  -0.095  14.500  0.00  0.00    +0.000 A 
ATOM      5  C   UNL     1      19.176   0.117  14.807  0.00  0.00    +0.000 A 
ATOM      6  C   UNL     1      18.195   0.320  13.821  0.00  0.00    +0.000 A 
ATOM      7  C   UNL     1      18.672   0.322  12.497  0.00  0.00    +0.000 A 
ATOM      8  C   UNL     1      20.024   0.114  12.176  0.00  0.00    +0.000 A 
ENDBRANCH   1   6
BRANCH   1   9
ATOM      9  C   UNL     1      16.491   1.311  15.357  0.00  0.00    +0.000 C 
BRANCH   9  10
ATOM     10  C   UNL     1      14.964   1.508  15.514  0.00  0.00    +0.000 C 
ATOM     11  C   UNL     1      14.494   1.049  16.890  0.00  0.00    +0.000 C 
BRANCH  10  12
ATOM     12  O   UNL     1      14.604   2.888  15.360  0.00  0.00    +0.000 OA
ATOM     13  H   UNL     1      15.199   3.282  14.700  0.00  0.00    +0.000 HD
ENDBRANCH  10  12
ENDBRANCH   9  10
ENDBRANCH   1   9
BRANCH   1  14
ATOM     14  C   UNL     1      15.776  -0.334  13.613  0.00  0.00    +0.000 C 
BRANCH  14  15
ATOM     15  C   UNL     1      15.473  -0.066  12.120  0.00  0.00    +0.000 C 
ATOM     16  C   UNL     1      14.679  -1.186  11.458  0.00  0.00    +0.000 C 
BRANCH  15  17
ATOM     17  O   UNL     1      14.752   1.152  11.938  0.00  0.00    +0.000 OA
ATOM     18  H   UNL     1      14.882   1.385  10.997  0.00  0.00    +0.000 HD
ENDBRANCH  15  17
ENDBRANCH  14  15
ENDBRANCH   1  14
TORSDOF 7
ENDMDL
MODEL 3
REMARK VINA RESULT:    -4.612      1.888      2.604
REMARK INTER + INTRA:          -6.659
REMARK INTER:                  -6.287
REMARK INTRA:                  -0.372
REMARK UNBOUND:                -0.429
REMARK  Name = 
REMARK  10 active torsions:
REMARK  status: ('A' for Active; 'I' for Inactive)
REMARK    1  A    between atoms: C_1  and  C_2
REMARK    2  A    between atoms: C_5  and  N_8
REMARK    3  A    between atoms: N_8  and  C_9
REMARK    4  A    between atoms: N_8  and  C_13
REMARK    5  A    between atoms: C_9  and  C_10
REMARK    6  A    between atoms: C_10  and  C_11
REMARK    7  A    between atoms: C_10  and  O_12
REMARK    8  A    between atoms: C_13  and  C_14
REMARK    9  A    between atoms: C_14  and  C_15
REMARK   10  A    between atoms: C_14  and  O_16
REMARK                            x       y       z     vdW  Elec       q    Type
REMARK                         _______ _______ _______ _____ _____    ______ ____
ROOT
ATOM      1  N   UNL     1      18.177  -0.060  12.652  0.00  0.00    +0.000 N 
ENDROOT
BRANCH   1   6
ATOM      2  C   UNL     1      23.639  -1.551  11.524  0.00  0.00    +0.000 C 
ATOM      3  C   UNL     1      22.222  -1.179  11.837  0.00  0.00    +0.000 A 
ATOM      4  C   UNL     1      21.159  -1.890  11.290  0.00  0.00    +0.000 A 
ATOM      5  C   UNL     1      19.833  -1.518  11.563  0.00  0.00    +0.000 A 
ATOM      6  C   UNL     1      19.502  -0.414  12.369  0.00  0.00    +0.000 A 
ATOM      7  C   UNL     1      20.602   0.281  12.907  0.00  0.00    +0.000 A 
ATOM      8  C   UNL     1      21.933  -0.082  12.644  0.00  0.00    +0.000 A 
ENDBRANCH   1   6
BRANCH   1   9
ATOM      9  C   UNL     1      17.888   1.127  13.492  0.00  0.00    +0.000 C 
BRANCH   9  10
ATOM     10  C   UNL     1      17.264   0.757  14.860  0.00  0.00    +0.000 C 
ATOM     11  C   UNL     1      18.342   0.354  15.859  0.00  0.00    +0.000 C 
BRANCH  10  12
ATOM     12  O   UNL     1      16.539   1.865  15.412  0.00  0.00    +0.000 OA
ATOM     13  H   UNL     1      15.608   1.601  15.500  0.00  0.00    +0.000 HD
ENDBRANCH  10  12
ENDBRANCH   9  10
ENDBRANCH   1   9
BRANCH   1  14
ATOM     14  C   UNL     1      17.084  -1.064  12.593  0.00  0.00    +0.000 C 
BRANCH  14  15
ATOM     15  C   UNL     1      16.143  -0.833  11.386  0.00  0.00    +0.000 C 
ATOM     16  C   UNL     1      14.915  -1.735  11.401  0.00  0.00    +0.000 C 
BRANCH  15  17
ATOM     17  O   UNL     1      15.696   0.520  11.318  0.00  0.00    +0.000 OA
ATOM     18  H   UNL     1      14.805   0.513  11.721  0.00  0.00    +0.000 HD
ENDBRANCH  15  17
ENDBRANCH  14  15
ENDBRANCH   1  14
TORSDOF 7
ENDMDL
MODEL 4
REMARK VINA RESULT:    -4.605      0.792      1.476
REMARK INTER + INTRA:          -6.649
REMARK INTER:                  -6.159
REMARK INTRA:                  -0.489
REMARK UNBOUND:                -0.429
REMARK  Name = 
REMARK  10 active torsions:
REMARK  status: ('A' for Active; 'I' for Inactive)
REMARK    1  A    between atoms: C_1  and  C_2
REMARK    2  A    between atoms: C_5  and  N_8
REMARK    3  A    between atoms: N_8  and  C_9
REMARK    4  A    between atoms: N_8  and  C_13
REMARK    5  A    between atoms: C_9  and  C_10
REMARK    6  A    between atoms: C_10  and  C_11
REMARK    7  A    between atoms: C_10  and  O_12
REMARK    8  A    between atoms: C_13  and  C_14
REMARK    9  A    between atoms: C_14  and  C_15
REMARK   10  A    between atoms: C_14  and  O_16
REMARK                            x       y       z     vdW  Elec       q    Type
REMARK                         _______ _______ _______ _____ _____    ______ ____
ROOT
ATOM      1  N   UNL     1      18.046  -0.825  12.544  0.00  0.00    +0.000 N 
ENDROOT
BRANCH   1   6
ATOM      2  C   UNL     1      23.765  -0.920  11.762  0.00  0.00    +0.000 C 
ATOM      3  C   UNL     1      22.279  -0.878  11.947  0.00  0.00    +0.000 A 
ATOM      4  C   UNL     1      21.701  -0.043  12.897  0.00  0.00    +0.000 A 
ATOM      5  C   UNL     1      20.310  -0.029  13.088  0.00  0.00    +0.000 A 
ATOM      6  C   UNL     1      19.435  -0.857  12.363  0.00  0.00    +0.000 A 
ATOM      7  C   UNL     1      20.053  -1.687  11.409  0.00  0.00    +0.000 A 
ATOM      8  C   UNL     1      21.443  -1.709  11.208  0.00  0.00    +0.000 A 
ENDBRANCH   1   6
BRANCH   1   9
ATOM      9  C   UNL     1      17.243  -2.057  12.357  0.00  0.00    +0.000 C 
BRANCH   9  10
ATOM     10  C   UNL     1      17.509  -3.118  13.453  0.00  0.00    +0.000 C 
ATOM     11  C   UNL     1      17.454  -2.494  14.842  0.00  0.00    +0.000 C 
BRANCH  10  12
ATOM     12  O   UNL     1      16.534  -4.169  13.398  0.00  0.00    +0.000 OA
ATOM     13  H   UNL     1      16.531  -4.531  12.497  0.00  0.00    +0.000 HD
ENDBRANCH  10  12
ENDBRANCH   9  10
ENDBRANCH   1   9
BRANCH   1  14
ATOM     14  C   UNL     1      17.284   0.444  12.415  0.00  0.00    +0.000 C 
BRANCH  14  15
ATOM     15  C   UNL     1      15.771   0.245  12.674  0.00  0.00    +0.000 C 
ATOM     16  C   UNL     1      15.376   0.482  14.127  0.00  0.00    +0.000 C 
BRANCH  15  17
ATOM     17  O   UNL     1      14.978   1.103  11.856  0.00  0.00    +0.000 OA
ATOM     18  H   UNL     1      15.498   1.928  11.777  0.00  0.00    +0.000 HD
ENDBRANCH  15  17
ENDBRANCH  14  15
ENDBRANCH   1  14
TORSDOF 7
ENDMDL
MODEL 5
REMARK VINA RESULT:    -4.518      1.560      3.660
REMARK INTER + INTRA:          -6.532
REMARK INTER:                  -6.013
REMARK INTRA:                  -0.519
REMARK UNBOUND:                -0.429
REMARK  Name = 
REMARK  10 active torsions:
REMARK  status: ('A' for Active; 'I' for Inactive)
REMARK    1  A    between atoms: C_1  and  C_2
REMARK    2  A    between atoms: C_5  and  N_8
REMARK    3  A    between atoms: N_8  and  C_9
REMARK    4  A    between atoms: N_8  and  C_13
REMARK    5  A    between atoms: C_9  and  C_10
REMARK    6  A    between atoms: C_10  and  C_11
REMARK    7  A    between atoms: C_10  and  O_12
REMARK    8  A    between atoms: C_13  and  C_14
REMARK    9  A    between atoms: C_14  and  C_15
REMARK   10  A    between atoms: C_14  and  O_16
REMARK                            x       y       z     vdW  Elec       q    Type
REMARK                         _______ _______ _______ _____ _____    ______ ____
ROOT
ATOM      1  N   UNL     1      17.212  -1.053  13.600  0.00  0.00    +0.000 N 
ENDROOT
BRANCH   1   6
ATOM      2  C   UNL     1      22.643   0.727  12.783  0.00  0.00    +0.000 C 
ATOM      3  C   UNL     1      21.242   0.242  12.997  0.00  0.00    +0.000 A 
ATOM      4  C   UNL     1      20.428  -0.089  11.919  0.00  0.00    +0.000 A 
ATOM      5  C   UNL     1      19.106  -0.515  12.124  0.00  0.00    +0.000 A 
ATOM      6  C   UNL     1      18.525  -0.609  13.402  0.00  0.00    +0.000 A 
ATOM      7  C   UNL     1      19.378  -0.268  14.468  0.00  0.00    +0.000 A 
ATOM      8  C   UNL     1      20.703   0.157  14.277  0.00  0.00    +0.000 A 
ENDBRANCH   1   6
BRANCH   1   9
ATOM      9  C   UNL     1      16.079  -0.107  13.462  0.00  0.00    +0.000 C 
BRANCH   9  10
ATOM     10  C   UNL     1      15.552  -0.009  12.009  0.00  0.00    +0.000 C 
ATOM     11  C   UNL     1      14.645  -1.189  11.678  0.00  0.00    +0.000 C 
BRANCH  10  12
ATOM     12  O   UNL     1      14.800   1.197  11.814  0.00  0.00    +0.000 OA
ATOM     13  H   UNL     1      15.215   1.899  12.343  0.00  0.00    +0.000 HD
ENDBRANCH  10  12
ENDBRANCH   9  10
ENDBRANCH   1   9
BRANCH   1  14
ATOM     14  C   UNL     1      16.923  -2.258  14.419  0.00  0.00    +0.000 C 
BRANCH  14  15
ATOM     15  C   UNL     1      17.542  -3.539  13.812  0.00  0.00    +0.000 C 
ATOM     16  C   UNL     1      18.735  -4.063  14.603  0.00  0.00    +0.000 C 
BRANCH  15  17
ATOM     17  O   UNL     1      16.583  -4.591  13.711  0.00  0.00    +0.000 OA
ATOM     18  H   UNL     1      16.891  -5.276  14.338  0.00  0.00    +0.000 HD
ENDBRANCH  15  17
ENDBRANCH  14  15
ENDBRANCH   1  14
TORSDOF 7
ENDMDL
MODEL 6
REMARK VINA RESULT:    -4.464      2.014      2.797
REMARK INTER + INTRA:          -6.459
REMARK INTER:                  -6.038
REMARK INTRA:                  -0.421
REMARK UNBOUND:                -0.429
REMARK  Name = 
REMARK  10 active torsions:
REMARK  status: ('A' for Active; 'I' for Inactive)
REMARK    1  A    between atoms: C_1  and  C_2
REMARK    2  A    between atoms: C_5  and  N_8
REMARK    3  A    between atoms: N_8  and  C_9
REMARK    4  A    between atoms: N_8  and  C_13
REMARK    5  A    between atoms: C_9  and  C_10
REMARK    6  A    between atoms: C_10  and  C_11
REMARK    7  A    between atoms: C_10  and  O_12
REMARK    8  A    between atoms: C_13  and  C_14
REMARK    9  A    between atoms: C_14  and  C_15
REMARK   10  A    between atoms: C_14  and  O_16
REMARK                            x       y       z     vdW  Elec       q    Type
REMARK                         _______ _______ _______ _____ _____    ______ ____
ROOT
ATOM      1  N   UNL     1      17.976  -0.029  13.166  0.00  0.00    +0.000 N 
ENDROOT
BRANCH   1   6
ATOM      2  C   UNL     1      23.369  -1.369  11.603  0.00  0.00    +0.000 C 
ATOM      3  C   UNL     1      21.969  -1.003  11.991  0.00  0.00    +0.000 A 
ATOM      4  C   UNL     1      21.727  -0.091  13.013  0.00  0.00    +0.000 A 
ATOM      5  C   UNL     1      20.412   0.225  13.393  0.00  0.00    +0.000 A 
ATOM      6  C   UNL     1      19.284  -0.364  12.795  0.00  0.00    +0.000 A 
ATOM      7  C   UNL     1      19.567  -1.280  11.765  0.00  0.00    +0.000 A 
ATOM      8  C   UNL     1      20.876  -1.604  11.373  0.00  0.00    +0.000 A 
ENDBRANCH   1   6
BRANCH   1   9
ATOM      9  C   UNL     1      17.739   0.909  14.289  0.00  0.00    +0.000 C 
BRANCH   9  10
ATOM     10  C   UNL     1      17.162   0.209  15.544  0.00  0.00    +0.000 C 
ATOM     11  C   UNL     1      18.272  -0.161  16.521  0.00  0.00    +0.000 C 
BRANCH  10  12
ATOM     12  O   UNL     1      16.234   1.062  16.229  0.00  0.00    +0.000 OA
ATOM     13  H   UNL     1      15.339   0.710  16.086  0.00  0.00    +0.000 HD
ENDBRANCH  10  12
ENDBRANCH   9  10
ENDBRANCH   1   9
BRANCH   1  14
ATOM     14  C   UNL     1      16.833  -0.923  12.848  0.00  0.00    +0.000 C 
BRANCH  14  15
ATOM     15  C   UNL     1      16.026  -0.428  11.624  0.00  0.00    +0.000 C 
ATOM     16  C   UNL     1      14.605  -0.975  11.581  0.00  0.00    +0.000 C 
BRANCH  15  17
ATOM     17  O   UNL     1      15.953   0.996  11.582  0.00  0.00    +0.000 OA
ATOM     18  H   UNL     1      15.396   1.243  12.348  0.00  0.00    +0.000 HD
ENDBRANCH  15  17
ENDBRANCH  14  15
ENDBRANCH   1  14
TORSDOF 7
ENDMDL
MODEL 7
REMARK VINA RESULT:    -4.451      2.077      3.181
REMARK INTER + INTRA:          -6.441
REMARK INTER:                  -5.790
REMARK INTRA:                  -0.651
REMARK UNBOUND:                -0.429
REMARK  Name = 
REMARK  10 active torsions:
REMARK  status: ('A' for Active; 'I' for Inactive)
REMARK    1  A    between atoms: C_1  and  C_2
REMARK    2  A    between atoms: C_5  and  N_8
REMARK    3  A    between atoms: N_8  and  C_9
REMARK    4  A    between atoms: N_8  and  C_13
REMARK    5  A    between atoms: C_9  and  C_10
REMARK    6  A    between atoms: C_10  and  C_11
REMARK    7  A    between atoms: C_10  and  O_12
REMARK    8  A    between atoms: C_13  and  C_14
REMARK    9  A    between atoms: C_14  and  C_15
REMARK   10  A    between atoms: C_14  and  O_16
REMARK                            x       y       z     vdW  Elec       q    Type
REMARK                         _______ _______ _______ _____ _____    ______ ____
ROOT
ATOM      1  N   UNL     1      17.025  -1.229  13.264  0.00  0.00    +0.000 N 
ENDROOT
BRANCH   1   6
ATOM      2  C   UNL     1      22.473   0.676  13.120  0.00  0.00    +0.000 C 
ATOM      3  C   UNL     1      21.051   0.205  13.154  0.00  0.00    +0.000 A 
ATOM      4  C   UNL     1      20.358   0.114  14.356  0.00  0.00    +0.000 A 
ATOM      5  C   UNL     1      19.035  -0.357  14.385  0.00  0.00    +0.000 A 
ATOM      6  C   UNL     1      18.351  -0.779  13.230  0.00  0.00    +0.000 A 
ATOM      7  C   UNL     1      19.082  -0.671  12.033  0.00  0.00    +0.000 A 
ATOM      8  C   UNL     1      20.405  -0.200  11.990  0.00  0.00    +0.000 A 
ENDBRANCH   1   6
BRANCH   1   9
ATOM      9  C   UNL     1      16.243  -1.143  14.521  0.00  0.00    +0.000 C 
BRANCH   9  10
ATOM     10  C   UNL     1      15.275   0.065  14.544  0.00  0.00    +0.000 C 
ATOM     11  C   UNL     1      15.275   0.737  15.912  0.00  0.00    +0.000 C 
BRANCH  10  12
ATOM     12  O   UNL     1      15.652   1.045  13.567  0.00  0.00    +0.000 OA
ATOM     13  H   UNL     1      15.282   0.775  12.711  0.00  0.00    +0.000 HD
ENDBRANCH  10  12
ENDBRANCH   9  10
ENDBRANCH   1   9
BRANCH   1  14
ATOM     14  C   UNL     1      16.528  -2.231  12.287  0.00  0.00    +0.000 C 
BRANCH  14  15
ATOM     15  C   UNL     1      15.688  -1.581  11.161  0.00  0.00    +0.000 C 
ATOM     16  C   UNL     1      14.202  -1.908  11.256  0.00  0.00    +0.000 C 
BRANCH  15  17
ATOM     17  O   UNL     1      15.827  -0.161  11.151  0.00  0.00    +0.000 OA
ATOM     18  H   UNL     1      14.958   0.176  10.856  0.00  0.00    +0.000 HD
ENDBRANCH  15  17
ENDBRANCH  14  15
ENDBRANCH   1  14
TORSDOF 7
ENDMDL
MODEL 8
REMARK VINA RESULT:    -4.432      2.316      3.322
REMARK INTER + INTRA:          -6.415
REMARK INTER:                  -5.989
REMARK INTRA:                  -0.427
REMARK UNBOUND:                -0.429
REMARK  Name = 
REMARK  10 active torsions:
REMARK  status: ('A' for Active; 'I' for Inactive)
REMARK    1  A    between atoms: C_1  and  C_2
REMARK    2  A    between atoms: C_5  and  N_8
REMARK    3  A    between atoms: N_8  and  C_9
REMARK    4  A    between atoms: N_8  and  C_13
REMARK    5  A    between atoms: C_9  and  C_10
REMARK    6  A    between atoms: C_10  and  C_11
REMARK    7  A    between atoms: C_10  and  O_12
REMARK    8  A    between atoms: C_13  and  C_14
REMARK    9  A    between atoms: C_14  and  C_15
REMARK   10  A    between atoms: C_14  and  O_16
REMARK                            x       y       z     vdW  Elec       q    Type
REMARK                         _______ _______ _______ _____ _____    ______ ____
ROOT
ATOM      1  N   UNL     1      16.636  -0.049  14.174  0.00  0.00    +0.000 N 
ENDROOT
BRANCH   1   6
ATOM      2  C   UNL     1      22.229   0.146  12.757  0.00  0.00    +0.000 C 
ATOM      3  C   UNL     1      20.779   0.071  13.125  0.00  0.00    +0.000 A 
ATOM      4  C   UNL     1      19.794   0.022  12.144  0.00  0.00    +0.000 A 
ATOM      5  C   UNL     1      18.435  -0.018  12.496  0.00  0.00    +0.000 A 
ATOM      6  C   UNL     1      17.993   0.012  13.831  0.00  0.00    +0.000 A 
ATOM      7  C   UNL     1      19.016   0.059  14.796  0.00  0.00    +0.000 A 
ATOM      8  C   UNL     1      20.379   0.097  14.458  0.00  0.00    +0.000 A 
ENDBRANCH   1   6
BRANCH   1   9
ATOM      9  C   UNL     1      15.597   0.211  13.149  0.00  0.00    +0.000 C 
BRANCH   9  10
ATOM     10  C   UNL     1      14.952  -1.088  12.606  0.00  0.00    +0.000 C 
ATOM     11  C   UNL     1      13.865  -1.591  13.549  0.00  0.00    +0.000 C 
BRANCH  10  12
ATOM     12  O   UNL     1      14.358  -0.869  11.319  0.00  0.00    +0.000 OA
ATOM     13  H   UNL     1      14.730  -0.051  10.951  0.00  0.00    +0.000 HD
ENDBRANCH  10  12
ENDBRANCH   9  10
ENDBRANCH   1   9
BRANCH   1  14
ATOM     14  C   UNL     1      16.189   0.143  15.578  0.00  0.00    +0.000 C 
BRANCH  14  15
ATOM     15  C   UNL     1      15.164   1.295  15.713  0.00  0.00    +0.000 C 
ATOM     16  C   UNL     1      14.283   1.171  16.950  0.00  0.00    +0.000 C 
BRANCH  15  17
ATOM     17  O   UNL     1      15.805   2.569  15.753  0.00  0.00    +0.000 OA
ATOM     18  H   UNL     1      15.620   2.972  14.880  0.00  0.00    +0.000 HD
ENDBRANCH  15  17
ENDBRANCH  14  15
ENDBRANCH   1  14
TORSDOF 7
ENDMDL
MODEL 9
REMARK VINA RESULT:    -4.386      1.970      3.217
REMARK INTER + INTRA:          -6.353
REMARK INTER:                  -5.916
REMARK INTRA:                  -0.437
REMARK UNBOUND:                -0.429
REMARK  Name = 
REMARK  10 active torsions:
REMARK  status: ('A' for Active; 'I' for Inactive)
REMARK    1  A    between atoms: C_1  and  C_2
REMARK    2  A    between atoms: C_5  and  N_8
REMARK    3  A    between atoms: N_8  and  C_9
REMARK    4  A    between atoms: N_8  and  C_13
REMARK    5  A    between atoms: C_9  and  C_10
REMARK    6  A    between atoms: C_10  and  C_11
REMARK    7  A    between atoms: C_10  and  O_12
REMARK    8  A    between atoms: C_13  and  C_14
REMARK    9  A    between atoms: C_14  and  C_15
REMARK   10  A    between atoms: C_14  and  O_16
REMARK                            x       y       z     vdW  Elec       q    Type
REMARK                         _______ _______ _______ _____ _____    ______ ____
ROOT
ATOM      1  N   UNL     1      18.227  -0.473  13.552  0.00  0.00    +0.000 N 
ENDROOT
BRANCH   1   6
ATOM      2  C   UNL     1      23.652  -1.000  11.650  0.00  0.00    +0.000 C 
ATOM      3  C   UNL     1      22.240  -0.846  12.127  0.00  0.00    +0.000 A 
ATOM      4  C   UNL     1      21.923   0.046  13.145  0.00  0.00    +0.000 A 
ATOM      5  C   UNL     1      20.602   0.165  13.608  0.00  0.00    +0.000 A 
ATOM      6  C   UNL     1      19.545  -0.610  13.099  0.00  0.00    +0.000 A 
ATOM      7  C   UNL     1      19.902  -1.500  12.070  0.00  0.00    +0.000 A 
ATOM      8  C   UNL     1      21.218  -1.627  11.596  0.00  0.00    +0.000 A 
ENDBRANCH   1   6
BRANCH   1   9
ATOM      9  C   UNL     1      17.385   0.645  13.062  0.00  0.00    +0.000 C 
BRANCH   9  10
ATOM     10  C   UNL     1      16.319   0.188  12.036  0.00  0.00    +0.000 C 
ATOM     11  C   UNL     1      15.114  -0.427  12.739  0.00  0.00    +0.000 C 
BRANCH  10  12
ATOM     12  O   UNL     1      15.857   1.293  11.248  0.00  0.00    +0.000 OA
ATOM     13  H   UNL     1      15.721   2.051  11.841  0.00  0.00    +0.000 HD
ENDBRANCH  10  12
ENDBRANCH   9  10
ENDBRANCH   1   9
BRANCH   1  14
ATOM     14  C   UNL     1      17.793  -1.060  14.846  0.00  0.00    +0.000 C 
BRANCH  14  15
ATOM     15  C   UNL     1      17.256   0.012  15.824  0.00  0.00    +0.000 C 
ATOM     16  C   UNL     1      16.285  -0.549  16.856  0.00  0.00    +0.000 C 
BRANCH  15  17
ATOM     17  O   UNL     1      18.315   0.665  16.523  0.00  0.00    +0.000 OA
ATOM     18  H   UNL     1      18.276   1.597  16.227  0.00  0.00    +0.000 HD
ENDBRANCH  15  17
ENDBRANCH  14  15
ENDBRANCH   1  14
TORSDOF 7
ENDMDL
