MODEL 1
REMARK VINA RESULT:    -3.150      0.000      0.000
REMARK INTER + INTRA:          -4.726
REMARK INTER:                  -4.255
REMARK INTRA:                  -0.471
REMARK UNBOUND:                -0.471
REMARK  Name = 
REMARK  10 active torsions:
REMARK  status: ('A' for Active; 'I' for Inactive)
REMARK    1  A    between atoms: C_1  and  C_2
REMARK    2  A    between atoms: C_5  and  N_8
REMARK    3  A    between atoms: N_8  and  C_9
REMARK    4  A    between atoms: N_8  and  C_13
REMARK    5  A    between atoms: C_9  and  C_10
REMARK    6  A    between atoms: C_10  and  C_11
REMARK    7  A    between atoms: C_10  and  O_12
REMARK    8  A    between atoms: C_13  and  C_14
REMARK    9  A    between atoms: C_14  and  C_15
REMARK   10  A    between atoms: C_14  and  O_16
REMARK                            x       y       z     vdW  Elec       q    Type
REMARK                         _______ _______ _______ _____ _____    ______ ____
ROOT
ATOM      1  N   UNL     1     -20.473   0.069   7.445  0.00  0.00    +0.000 N 
ENDROOT
BRANCH   1   6
ATOM      2  C   UNL     1     -20.130   1.887   1.976  0.00  0.00    +0.000 C 
ATOM      3  C   UNL     1     -20.194   1.418   3.398  0.00  0.00    +0.000 A 
ATOM      4  C   UNL     1     -20.113   0.065   3.707  0.00  0.00    +0.000 A 
ATOM      5  C   UNL     1     -20.204  -0.372   5.039  0.00  0.00    +0.000 A 
ATOM      6  C   UNL     1     -20.403   0.509   6.117  0.00  0.00    +0.000 A 
ATOM      7  C   UNL     1     -20.478   1.870   5.767  0.00  0.00    +0.000 A 
ATOM      8  C   UNL     1     -20.387   2.320   4.440  0.00  0.00    +0.000 A 
ENDBRANCH   1   6
BRANCH   1   9
ATOM      9  C   UNL     1     -20.292  -1.368   7.762  0.00  0.00    +0.000 C 
BRANCH   9  10
ATOM     10  C   UNL     1     -18.893  -1.683   8.346  0.00  0.00    +0.000 C 
ATOM     11  C   UNL     1     -17.793  -1.089   7.474  0.00  0.00    +0.000 C 
BRANCH  10  12
ATOM     12  O   UNL     1     -18.753  -1.143   9.667  0.00  0.00    +0.000 OA
ATOM     13  H   UNL     1     -18.044  -1.630  10.118  0.00  0.00    +0.000 HD
ENDBRANCH  10  12
ENDBRANCH   9  10
ENDBRANCH   1   9
BRANCH   1  14
ATOM     14  C   UNL     1     -21.205   0.848   8.476  0.00  0.00    +0.000 C 
BRANCH  14  15
ATOM     15  C   UNL     1     -20.265   1.774   9.286  0.00  0.00    +0.000 C 
ATOM     16  C   UNL     1     -20.831   3.175   9.487  0.00  0.00    +0.000 C 
BRANCH  15  17
ATOM     17  O   UNL     1     -19.968   1.229  10.570  0.00  0.00    +0.000 OA
ATOM     18  H   UNL     1     -20.495   1.762  11.199  0.00  0.00    +0.000 HD
ENDBRANCH  15  17
ENDBRANCH  14  15
ENDBRANCH   1  14
TORSDOF 7
ENDMDL
MODEL 2
REMARK VINA RESULT:    -3.144      2.140      5.691
REMARK INTER + INTRA:          -4.718
REMARK INTER:                  -4.343
REMARK INTRA:                  -0.375
REMARK UNBOUND:                -0.471
REMARK  Name = 
REMARK  10 active torsions:
REMARK  status: ('A' for Active; 'I' for Inactive)
REMARK    1  A    between atoms: C_1  and  C_2
REMARK    2  A    between atoms: C_5  and  N_8
REMARK    3  A    between atoms: N_8  and  C_9
REMARK    4  A    between atoms: N_8  and  C_13
REMARK    5  A    between atoms: C_9  and  C_10
REMARK    6  A    between atoms: C_10  and  C_11
REMARK    7  A    between atoms: C_10  and  O_12
REMARK    8  A    between atoms: C_13  and  C_14
REMARK    9  A    between atoms: C_14  and  C_15
REMARK   10  A    between atoms: C_14  and  O_16
REMARK                            x       y       z     vdW  Elec       q    Type
REMARK                         _______ _______ _______ _____ _____    ______ ____
ROOT
ATOM      1  N   UNL     1     -20.609   0.015   7.086  0.00  0.00    +0.000 N 
ENDROOT
BRANCH   1   6
ATOM      2  C   UNL     1     -21.205   1.231  12.698  0.00  0.00    +0.000 C 
ATOM      3  C   UNL     1     -21.025   0.919  11.244  0.00  0.00    +0.000 A 
ATOM      4  C   UNL     1     -21.106   1.921  10.282  0.00  0.00    +0.000 A 
ATOM      5  C   UNL     1     -20.967   1.617   8.918  0.00  0.00    +0.000 A 
ATOM      6  C   UNL     1     -20.766   0.308   8.446  0.00  0.00    +0.000 A 
ATOM      7  C   UNL     1     -20.688  -0.680   9.446  0.00  0.00    +0.000 A 
ATOM      8  C   UNL     1     -20.823  -0.390  10.814  0.00  0.00    +0.000 A 
ENDBRANCH   1   6
BRANCH   1   9
ATOM      9  C   UNL     1     -21.170   0.926   6.060  0.00  0.00    +0.000 C 
BRANCH   9  10
ATOM     10  C   UNL     1     -20.098   1.841   5.418  0.00  0.00    +0.000 C 
ATOM     11  C   UNL     1     -20.529   2.294   4.028  0.00  0.00    +0.000 C 
BRANCH  10  12
ATOM     12  O   UNL     1     -19.875   3.011   6.218  0.00  0.00    +0.000 OA
ATOM     13  H   UNL     1     -20.729   3.456   6.345  0.00  0.00    +0.000 HD
ENDBRANCH  10  12
ENDBRANCH   9  10
ENDBRANCH   1   9
BRANCH   1  14
ATOM     14  C   UNL     1     -20.367  -1.375   6.621  0.00  0.00    +0.000 C 
BRANCH  14  15
ATOM     15  C   UNL     1     -18.926  -1.572   6.092  0.00  0.00    +0.000 C 
ATOM     16  C   UNL     1     -18.837  -1.539   4.571  0.00  0.00    +0.000 C 
BRANCH  15  17
ATOM     17  O   UNL     1     -18.035  -0.585   6.608  0.00  0.00    +0.000 OA
ATOM     18  H   UNL     1     -18.231  -0.544   7.566  0.00  0.00    +0.000 HD
ENDBRANCH  15  17
ENDBRANCH  14  15
ENDBRANCH   1  14
TORSDOF 7
ENDMDL
MODEL 3
REMARK VINA RESULT:    -2.908      2.696      5.718
REMARK INTER + INTRA:          -4.399
REMARK INTER:                  -4.157
REMARK INTRA:                  -0.242
REMARK UNBOUND:                -0.471
REMARK  Name = 
REMARK  10 active torsions:
REMARK  status: ('A' for Active; 'I' for Inactive)
REMARK    1  A    between atoms: C_1  and  C_2
REMARK    2  A    between atoms: C_5  and  N_8
REMARK    3  A    between atoms: N_8  and  C_9
REMARK    4  A    between atoms: N_8  and  C_13
REMARK    5  A    between atoms: C_9  and  C_10
REMARK    6  A    between atoms: C_10  and  C_11
REMARK    7  A    between atoms: C_10  and  O_12
REMARK    8  A    between atoms: C_13  and  C_14
REMARK    9  A    between atoms: C_14  and  C_15
REMARK   10  A    between atoms: C_14  and  O_16
REMARK                            x       y       z     vdW  Elec       q    Type
REMARK                         _______ _______ _______ _____ _____    ______ ____
ROOT
ATOM      1  N   UNL     1     -20.799   0.443   4.995  0.00  0.00    +0.000 N 
ENDROOT
BRANCH   1   6
ATOM      2  C   UNL     1     -20.789   1.108  10.730  0.00  0.00    +0.000 C 
ATOM      3  C   UNL     1     -20.817   0.940   9.242  0.00  0.00    +0.000 A 
ATOM      4  C   UNL     1     -20.978  -0.317   8.668  0.00  0.00    +0.000 A 
ATOM      5  C   UNL     1     -20.973  -0.473   7.272  0.00  0.00    +0.000 A 
ATOM      6  C   UNL     1     -20.784   0.603   6.387  0.00  0.00    +0.000 A 
ATOM      7  C   UNL     1     -20.625   1.859   7.001  0.00  0.00    +0.000 A 
ATOM      8  C   UNL     1     -20.631   2.029   8.396  0.00  0.00    +0.000 A 
ENDBRANCH   1   6
BRANCH   1   9
ATOM      9  C   UNL     1     -21.165   1.582   4.120  0.00  0.00    +0.000 C 
BRANCH   9  10
ATOM     10  C   UNL     1     -20.274   1.679   2.857  0.00  0.00    +0.000 C 
ATOM     11  C   UNL     1     -21.081   1.388   1.597  0.00  0.00    +0.000 C 
BRANCH  10  12
ATOM     12  O   UNL     1     -19.705   2.989   2.727  0.00  0.00    +0.000 OA
ATOM     13  H   UNL     1     -20.380   3.638   2.987  0.00  0.00    +0.000 HD
ENDBRANCH  10  12
ENDBRANCH   9  10
ENDBRANCH   1   9
BRANCH   1  14
ATOM     14  C   UNL     1     -20.965  -0.897   4.377  0.00  0.00    +0.000 C 
BRANCH  14  15
ATOM     15  C   UNL     1     -19.606  -1.587   4.103  0.00  0.00    +0.000 C 
ATOM     16  C   UNL     1     -19.271  -1.682   2.619  0.00  0.00    +0.000 C 
BRANCH  15  17
ATOM     17  O   UNL     1     -18.532  -0.912   4.756  0.00  0.00    +0.000 OA
ATOM     18  H   UNL     1     -18.327  -1.462   5.539  0.00  0.00    +0.000 HD
ENDBRANCH  15  17
ENDBRANCH  14  15
ENDBRANCH   1  14
TORSDOF 7
ENDMDL
MODEL 4
REMARK VINA RESULT:    -2.676     17.992     19.322
REMARK INTER + INTRA:          -4.086
REMARK INTER:                  -3.449
REMARK INTRA:                  -0.637
REMARK UNBOUND:                -0.471
REMARK  Name = 
REMARK  10 active torsions:
REMARK  status: ('A' for Active; 'I' for Inactive)
REMARK    1  A    between atoms: C_1  and  C_2
REMARK    2  A    between atoms: C_5  and  N_8
REMARK    3  A    between atoms: N_8  and  C_9
REMARK    4  A    between atoms: N_8  and  C_13
REMARK    5  A    between atoms: C_9  and  C_10
REMARK    6  A    between atoms: C_10  and  C_11
REMARK    7  A    between atoms: C_10  and  O_12
REMARK    8  A    between atoms: C_13  and  C_14
REMARK    9  A    between atoms: C_14  and  C_15
REMARK   10  A    between atoms: C_14  and  O_16
REMARK                            x       y       z     vdW  Elec       q    Type
REMARK                         _______ _______ _______ _____ _____    ______ ____
ROOT
ATOM      1  N   UNL     1     -15.746  19.249  11.898  0.00  0.00    +0.000 N 
ENDROOT
BRANCH   1   6
ATOM      2  C   UNL     1     -20.131  18.290   8.268  0.00  0.00    +0.000 C 
ATOM      3  C   UNL     1     -19.004  18.560   9.216  0.00  0.00    +0.000 A 
ATOM      4  C   UNL     1     -17.843  19.194   8.784  0.00  0.00    +0.000 A 
ATOM      5  C   UNL     1     -16.777  19.418   9.671  0.00  0.00    +0.000 A 
ATOM      6  C   UNL     1     -16.805  19.004  11.015  0.00  0.00    +0.000 A 
ATOM      7  C   UNL     1     -17.994  18.369  11.417  0.00  0.00    +0.000 A 
ATOM      8  C   UNL     1     -19.068  18.140  10.542  0.00  0.00    +0.000 A 
ENDBRANCH   1   6
BRANCH   1   9
ATOM      9  C   UNL     1     -15.929  19.037  13.354  0.00  0.00    +0.000 C 
BRANCH   9  10
ATOM     10  C   UNL     1     -15.335  17.694  13.845  0.00  0.00    +0.000 C 
ATOM     11  C   UNL     1     -16.433  16.759  14.337  0.00  0.00    +0.000 C 
BRANCH  10  12
ATOM     12  O   UNL     1     -14.625  17.029  12.790  0.00  0.00    +0.000 OA
ATOM     13  H   UNL     1     -13.987  17.657  12.413  0.00  0.00    +0.000 HD
ENDBRANCH  10  12
ENDBRANCH   9  10
ENDBRANCH   1   9
BRANCH   1  14
ATOM     14  C   UNL     1     -14.639  20.170  11.535  0.00  0.00    +0.000 C 
BRANCH  14  15
ATOM     15  C   UNL     1     -13.438  19.423  10.907  0.00  0.00    +0.000 C 
ATOM     16  C   UNL     1     -12.604  20.300   9.981  0.00  0.00    +0.000 C 
BRANCH  15  17
ATOM     17  O   UNL     1     -12.572  18.885  11.905  0.00  0.00    +0.000 OA
ATOM     18  H   UNL     1     -12.548  17.923  11.727  0.00  0.00    +0.000 HD
ENDBRANCH  15  17
ENDBRANCH  14  15
ENDBRANCH   1  14
TORSDOF 7
ENDMDL
MODEL 5
REMARK VINA RESULT:    -2.606     16.864     19.067
REMARK INTER + INTRA:          -3.992
REMARK INTER:                  -3.503
REMARK INTRA:                  -0.488
REMARK UNBOUND:                -0.471
REMARK  Name = 
REMARK  10 active torsions:
REMARK  status: ('A' for Active; 'I' for Inactive)
REMARK    1  A    between atoms: C_1  and  C_2
REMARK    2  A    between atoms: C_5  and  N_8
REMARK    3  A    between atoms: N_8  and  C_9
REMARK    4  A    between atoms: N_8  and  C_13
REMARK    5  A    between atoms: C_9  and  C_10
REMARK    6  A    between atoms: C_10  and  C_11
REMARK    7  A    between atoms: C_10  and  O_12
REMARK    8  A    between atoms: C_13  and  C_14
REMARK    9  A    between atoms: C_14  and  C_15
REMARK   10  A    between atoms: C_14  and  O_16
REMARK                            x       y       z     vdW  Elec       q    Type
REMARK                         _______ _______ _______ _____ _____    ______ ____
ROOT
ATOM      1  N   UNL     1     -17.484  18.459  11.774  0.00  0.00    +0.000 N 
ENDROOT
BRANCH   1   6
ATOM      2  C   UNL     1     -12.354  20.377   9.950  0.00  0.00    +0.000 C 
ATOM      3  C   UNL     1     -13.687  19.900  10.439  0.00  0.00    +0.000 A 
ATOM      4  C   UNL     1     -13.782  19.035  11.524  0.00  0.00    +0.000 A 
ATOM      5  C   UNL     1     -15.033  18.566  11.958  0.00  0.00    +0.000 A 
ATOM      6  C   UNL     1     -16.239  18.914  11.323  0.00  0.00    +0.000 A 
ATOM      7  C   UNL     1     -16.105  19.791  10.231  0.00  0.00    +0.000 A 
ATOM      8  C   UNL     1     -14.860  20.269   9.788  0.00  0.00    +0.000 A 
ENDBRANCH   1   6
BRANCH   1   9
ATOM      9  C   UNL     1     -18.714  18.784  11.013  0.00  0.00    +0.000 C 
BRANCH   9  10
ATOM     10  C   UNL     1     -18.969  17.807   9.839  0.00  0.00    +0.000 C 
ATOM     11  C   UNL     1     -19.874  16.659  10.271  0.00  0.00    +0.000 C 
BRANCH  10  12
ATOM     12  O   UNL     1     -19.599  18.478   8.738  0.00  0.00    +0.000 OA
ATOM     13  H   UNL     1     -19.393  19.426   8.806  0.00  0.00    +0.000 HD
ENDBRANCH  10  12
ENDBRANCH   9  10
ENDBRANCH   1   9
BRANCH   1  14
ATOM     14  C   UNL     1     -17.706  18.114  13.202  0.00  0.00    +0.000 C 
BRANCH  14  15
ATOM     15  C   UNL     1     -17.864  16.589  13.417  0.00  0.00    +0.000 C 
ATOM     16  C   UNL     1     -16.694  15.965  14.168  0.00  0.00    +0.000 C 
BRANCH  15  17
ATOM     17  O   UNL     1     -19.062  16.279  14.127  0.00  0.00    +0.000 OA
ATOM     18  H   UNL     1     -19.025  15.312  14.275  0.00  0.00    +0.000 HD
ENDBRANCH  15  17
ENDBRANCH  14  15
ENDBRANCH   1  14
TORSDOF 7
ENDMDL
MODEL 6
REMARK VINA RESULT:    -2.580     17.343     19.290
REMARK INTER + INTRA:          -3.956
REMARK INTER:                  -3.415
REMARK INTRA:                  -0.541
REMARK UNBOUND:                -0.471
REMARK  Name = 
REMARK  10 active torsions:
REMARK  status: ('A' for Active; 'I' for Inactive)
REMARK    1  A    between atoms: C_1  and  C_2
REMARK    2  A    between atoms: C_5  and  N_8
REMARK    3  A    between atoms: N_8  and  C_9
REMARK    4  A    between atoms: N_8  and  C_13
REMARK    5  A    between atoms: C_9  and  C_10
REMARK    6  A    between atoms: C_10  and  C_11
REMARK    7  A    between atoms: C_10  and  O_12
REMARK    8  A    between atoms: C_13  and  C_14
REMARK    9  A    between atoms: C_14  and  C_15
REMARK   10  A    between atoms: C_14  and  O_16
REMARK                            x       y       z     vdW  Elec       q    Type
REMARK                         _______ _______ _______ _____ _____    ______ ____
ROOT
ATOM      1  N   UNL     1     -18.234  18.928  10.106  0.00  0.00    +0.000 N 
ENDROOT
BRANCH   1   6
ATOM      2  C   UNL     1     -12.666  20.440   9.911  0.00  0.00    +0.000 C 
ATOM      3  C   UNL     1     -14.117  20.070   9.971  0.00  0.00    +0.000 A 
ATOM      4  C   UNL     1     -14.643  19.421  11.083  0.00  0.00    +0.000 A 
ATOM      5  C   UNL     1     -15.996  19.049  11.122  0.00  0.00    +0.000 A 
ATOM      6  C   UNL     1     -16.881  19.283  10.053  0.00  0.00    +0.000 A 
ATOM      7  C   UNL     1     -16.315  19.943   8.947  0.00  0.00    +0.000 A 
ATOM      8  C   UNL     1     -14.964  20.322   8.896  0.00  0.00    +0.000 A 
ENDBRANCH   1   6
BRANCH   1   9
ATOM      9  C   UNL     1     -18.735  18.070  11.208  0.00  0.00    +0.000 C 
BRANCH   9  10
ATOM     10  C   UNL     1     -19.545  18.862  12.264  0.00  0.00    +0.000 C 
ATOM     11  C   UNL     1     -21.024  18.502  12.198  0.00  0.00    +0.000 C 
BRANCH  10  12
ATOM     12  O   UNL     1     -19.077  18.578  13.590  0.00  0.00    +0.000 OA
ATOM     13  H   UNL     1     -19.797  18.145  14.077  0.00  0.00    +0.000 HD
ENDBRANCH  10  12
ENDBRANCH   9  10
ENDBRANCH   1   9
BRANCH   1  14
ATOM     14  C   UNL     1     -19.079  18.930   8.884  0.00  0.00    +0.000 C 
BRANCH  14  15
ATOM     15  C   UNL     1     -19.738  17.554   8.626  0.00  0.00    +0.000 C 
ATOM     16  C   UNL     1     -21.199  17.658   8.206  0.00  0.00    +0.000 C 
BRANCH  15  17
ATOM     17  O   UNL     1     -19.041  16.816   7.623  0.00  0.00    +0.000 OA
ATOM     18  H   UNL     1     -18.420  16.243   8.116  0.00  0.00    +0.000 HD
ENDBRANCH  15  17
ENDBRANCH  14  15
ENDBRANCH   1  14
TORSDOF 7
ENDMDL
MODEL 7
REMARK VINA RESULT:    -2.574     17.140     18.807
REMARK INTER + INTRA:          -3.948
REMARK INTER:                  -3.384
REMARK INTRA:                  -0.564
REMARK UNBOUND:                -0.471
REMARK  Name = 
REMARK  10 active torsions:
REMARK  status: ('A' for Active; 'I' for Inactive)
REMARK    1  A    between atoms: C_1  and  C_2
REMARK    2  A    between atoms: C_5  and  N_8
REMARK    3  A    between atoms: N_8  and  C_9
REMARK    4  A    between atoms: N_8  and  C_13
REMARK    5  A    between atoms: C_9  and  C_10
REMARK    6  A    between atoms: C_10  and  C_11
REMARK    7  A    between atoms: C_10  and  O_12
REMARK    8  A    between atoms: C_13  and  C_14
REMARK    9  A    between atoms: C_14  and  C_15
REMARK   10  A    between atoms: C_14  and  O_16
REMARK                            x       y       z     vdW  Elec       q    Type
REMARK                         _______ _______ _______ _____ _____    ______ ____
ROOT
ATOM      1  N   UNL     1     -18.636  18.659  10.269  0.00  0.00    +0.000 N 
ENDROOT
BRANCH   1   6
ATOM      2  C   UNL     1     -13.150  20.442  10.036  0.00  0.00    +0.000 C 
ATOM      3  C   UNL     1     -14.567  19.957  10.088  0.00  0.00    +0.000 A 
ATOM      4  C   UNL     1     -15.419  20.123   9.002  0.00  0.00    +0.000 A 
ATOM      5  C   UNL     1     -16.755  19.693   9.067  0.00  0.00    +0.000 A 
ATOM      6  C   UNL     1     -17.309  19.103  10.217  0.00  0.00    +0.000 A 
ATOM      7  C   UNL     1     -16.418  18.949  11.295  0.00  0.00    +0.000 A 
ATOM      8  C   UNL     1     -15.080  19.372  11.242  0.00  0.00    +0.000 A 
ENDBRANCH   1   6
BRANCH   1   9
ATOM      9  C   UNL     1     -19.585  19.025   9.190  0.00  0.00    +0.000 C 
BRANCH   9  10
ATOM     10  C   UNL     1     -20.324  17.800   8.599  0.00  0.00    +0.000 C 
ATOM     11  C   UNL     1     -20.881  18.114   7.215  0.00  0.00    +0.000 C 
BRANCH  10  12
ATOM     12  O   UNL     1     -19.442  16.676   8.478  0.00  0.00    +0.000 OA
ATOM     13  H   UNL     1     -19.694  16.179   7.682  0.00  0.00    +0.000 HD
ENDBRANCH  10  12
ENDBRANCH   9  10
ENDBRANCH   1   9
BRANCH   1  14
ATOM     14  C   UNL     1     -19.272  18.283  11.558  0.00  0.00    +0.000 C 
BRANCH  14  15
ATOM     15  C   UNL     1     -19.075  16.784  11.890  0.00  0.00    +0.000 C 
ATOM     16  C   UNL     1     -18.823  16.526  13.371  0.00  0.00    +0.000 C 
BRANCH  15  17
ATOM     17  O   UNL     1     -20.201  16.004  11.492  0.00  0.00    +0.000 OA
ATOM     18  H   UNL     1     -20.856  16.120  12.210  0.00  0.00    +0.000 HD
ENDBRANCH  15  17
ENDBRANCH  14  15
ENDBRANCH   1  14
TORSDOF 7
ENDMDL
MODEL 8
REMARK VINA RESULT:    -2.521      2.788      5.353
REMARK INTER + INTRA:          -3.876
REMARK INTER:                  -3.987
REMARK INTRA:                   0.111
REMARK UNBOUND:                -0.471
REMARK  Name = 
REMARK  10 active torsions:
REMARK  status: ('A' for Active; 'I' for Inactive)
REMARK    1  A    between atoms: C_1  and  C_2
REMARK    2  A    between atoms: C_5  and  N_8
REMARK    3  A    between atoms: N_8  and  C_9
REMARK    4  A    between atoms: N_8  and  C_13
REMARK    5  A    between atoms: C_9  and  C_10
REMARK    6  A    between atoms: C_10  and  C_11
REMARK    7  A    between atoms: C_10  and  O_12
REMARK    8  A    between atoms: C_13  and  C_14
REMARK    9  A    between atoms: C_14  and  C_15
REMARK   10  A    between atoms: C_14  and  O_16
REMARK                            x       y       z     vdW  Elec       q    Type
REMARK                         _______ _______ _______ _____ _____    ______ ____
ROOT
ATOM      1  N   UNL     1     -20.771   0.451   5.031  0.00  0.00    +0.000 N 
ENDROOT
BRANCH   1   6
ATOM      2  C   UNL     1     -21.027   0.173  10.792  0.00  0.00    +0.000 C 
ATOM      3  C   UNL     1     -20.936   0.239   9.298  0.00  0.00    +0.000 A 
ATOM      4  C   UNL     1     -20.663   1.440   8.651  0.00  0.00    +0.000 A 
ATOM      5  C   UNL     1     -20.609   1.503   7.249  0.00  0.00    +0.000 A 
ATOM      6  C   UNL     1     -20.846   0.385   6.428  0.00  0.00    +0.000 A 
ATOM      7  C   UNL     1     -21.117  -0.812   7.115  0.00  0.00    +0.000 A 
ATOM      8  C   UNL     1     -21.172  -0.888   8.517  0.00  0.00    +0.000 A 
ENDBRANCH   1   6
BRANCH   1   9
ATOM      9  C   UNL     1     -20.918  -0.782   4.220  0.00  0.00    +0.000 C 
BRANCH   9  10
ATOM     10  C   UNL     1     -19.594  -1.573   4.085  0.00  0.00    +0.000 C 
ATOM     11  C   UNL     1     -19.171  -1.683   2.625  0.00  0.00    +0.000 C 
BRANCH  10  12
ATOM     12  O   UNL     1     -18.534  -0.930   4.807  0.00  0.00    +0.000 OA
ATOM     13  H   UNL     1     -17.825  -1.580   4.945  0.00  0.00    +0.000 HD
ENDBRANCH  10  12
ENDBRANCH   9  10
ENDBRANCH   1   9
BRANCH   1  14
ATOM     14  C   UNL     1     -20.063   1.565   4.350  0.00  0.00    +0.000 C 
BRANCH  14  15
ATOM     15  C   UNL     1     -20.590   1.800   2.914  0.00  0.00    +0.000 C 
ATOM     16  C   UNL     1     -21.205   3.181   2.719  0.00  0.00    +0.000 C 
BRANCH  15  17
ATOM     17  O   UNL     1     -19.560   1.635   1.941  0.00  0.00    +0.000 OA
ATOM     18  H   UNL     1     -18.762   1.396   2.455  0.00  0.00    +0.000 HD
ENDBRANCH  15  17
ENDBRANCH  14  15
ENDBRANCH   1  14
TORSDOF 7
ENDMDL
MODEL 9
REMARK VINA RESULT:    -2.501     16.470     18.370
REMARK INTER + INTRA:          -3.849
REMARK INTER:                  -3.089
REMARK INTRA:                  -0.760
REMARK UNBOUND:                -0.471
REMARK  Name = 
REMARK  10 active torsions:
REMARK  status: ('A' for Active; 'I' for Inactive)
REMARK    1  A    between atoms: C_1  and  C_2
REMARK    2  A    between atoms: C_5  and  N_8
REMARK    3  A    between atoms: N_8  and  C_9
REMARK    4  A    between atoms: N_8  and  C_13
REMARK    5  A    between atoms: C_9  and  C_10
REMARK    6  A    between atoms: C_10  and  C_11
REMARK    7  A    between atoms: C_10  and  O_12
REMARK    8  A    between atoms: C_13  and  C_14
REMARK    9  A    between atoms: C_14  and  C_15
REMARK   10  A    between atoms: C_14  and  O_16
REMARK                            x       y       z     vdW  Elec       q    Type
REMARK                         _______ _______ _______ _____ _____    ______ ____
ROOT
ATOM      1  N   UNL     1     -18.528  17.497  13.113  0.00  0.00    +0.000 N 
ENDROOT
BRANCH   1   6
ATOM      2  C   UNL     1     -12.990  18.649  11.959  0.00  0.00    +0.000 C 
ATOM      3  C   UNL     1     -14.426  18.331  12.242  0.00  0.00    +0.000 A 
ATOM      4  C   UNL     1     -15.449  18.946  11.527  0.00  0.00    +0.000 A 
ATOM      5  C   UNL     1     -16.794  18.666  11.817  0.00  0.00    +0.000 A 
ATOM      6  C   UNL     1     -17.185  17.786  12.842  0.00  0.00    +0.000 A 
ATOM      7  C   UNL     1     -16.125  17.181  13.543  0.00  0.00    +0.000 A 
ATOM      8  C   UNL     1     -14.775  17.450  13.261  0.00  0.00    +0.000 A 
ENDBRANCH   1   6
BRANCH   1   9
ATOM      9  C   UNL     1     -19.602  18.324  12.513  0.00  0.00    +0.000 C 
BRANCH   9  10
ATOM     10  C   UNL     1     -20.272  17.645  11.293  0.00  0.00    +0.000 C 
ATOM     11  C   UNL     1     -20.490  18.645  10.164  0.00  0.00    +0.000 C 
BRANCH  10  12
ATOM     12  O   UNL     1     -19.460  16.576  10.789  0.00  0.00    +0.000 OA
ATOM     13  H   UNL     1     -18.647  16.962  10.424  0.00  0.00    +0.000 HD
ENDBRANCH  10  12
ENDBRANCH   9  10
ENDBRANCH   1   9
BRANCH   1  14
ATOM     14  C   UNL     1     -18.923  16.753  14.337  0.00  0.00    +0.000 C 
BRANCH  14  15
ATOM     15  C   UNL     1     -19.289  15.280  14.033  0.00  0.00    +0.000 C 
ATOM     16  C   UNL     1     -20.790  15.052  13.898  0.00  0.00    +0.000 C 
BRANCH  15  17
ATOM     17  O   UNL     1     -18.662  14.817  12.838  0.00  0.00    +0.000 OA
ATOM     18  H   UNL     1     -19.199  15.190  12.110  0.00  0.00    +0.000 HD
ENDBRANCH  15  17
ENDBRANCH  14  15
ENDBRANCH   1  14
TORSDOF 7
ENDMDL
