MODEL 1
REMARK VINA RESULT:    -4.662      0.000      0.000
REMARK INTER + INTRA:          -5.109
REMARK INTER:                  -5.071
REMARK INTRA:                  -0.038
REMARK UNBOUND:                -0.038
REMARK  Name = 
REMARK  3 active torsions:
REMARK  status: ('A' for Active; 'I' for Inactive)
REMARK    1  A    between atoms: C_1  and  O_2
REMARK    2  A    between atoms: O_2  and  C_3
REMARK    3  A    between atoms: C_8  and  O_9
REMARK                            x       y       z     vdW  Elec       q    Type
REMARK                         _______ _______ _______ _____ _____    ______ ____
ROOT
ATOM      1  C   UNL     1      -2.607  17.898  13.042  0.00  0.00    +0.000 A 
ATOM      2  C   UNL     1      -2.090  18.568  14.150  0.00  0.00    +0.000 A 
ATOM      3  C   UNL     1      -1.092  19.535  13.979  0.00  0.00    +0.000 A 
ATOM      4  C   UNL     1      -0.608  19.836  12.705  0.00  0.00    +0.000 A 
ATOM      5  C   UNL     1      -1.120  19.172  11.593  0.00  0.00    +0.000 A 
ATOM      6  C   UNL     1      -2.110  18.213  11.771  0.00  0.00    +0.000 A 
ENDROOT
BRANCH   1   8
ATOM      7  C   UNL     1      -3.943  16.419  14.337  0.00  0.00    +0.000 C 
ATOM      8  O   UNL     1      -3.582  16.933  13.060  0.00  0.00    +0.000 OA
ENDBRANCH   1   8
BRANCH   6   9
ATOM      9  O   UNL     1      -2.598  17.574  10.663  0.00  0.00    +0.000 OA
ATOM     10  H   UNL     1      -1.830  17.492  10.065  0.00  0.00    +0.000 HD
ENDBRANCH   6   9
TORSDOF 2
ENDMDL
MODEL 2
REMARK VINA RESULT:    -4.211      1.514      3.098
REMARK INTER + INTRA:          -4.618
REMARK INTER:                  -4.579
REMARK INTRA:                  -0.038
REMARK UNBOUND:                -0.038
REMARK  Name = 
REMARK  3 active torsions:
REMARK  status: ('A' for Active; 'I' for Inactive)
REMARK    1  A    between atoms: C_1  and  O_2
REMARK    2  A    between atoms: O_2  and  C_3
REMARK    3  A    between atoms: C_8  and  O_9
REMARK                            x       y       z     vdW  Elec       q    Type
REMARK                         _______ _______ _______ _____ _____    ______ ____
ROOT
ATOM      1  C   UNL     1      -1.631  18.598  12.877  0.00  0.00    +0.000 A 
ATOM      2  C   UNL     1      -2.261  18.541  14.120  0.00  0.00    +0.000 A 
ATOM      3  C   UNL     1      -3.361  17.695  14.309  0.00  0.00    +0.000 A 
ATOM      4  C   UNL     1      -3.835  16.906  13.260  0.00  0.00    +0.000 A 
ATOM      5  C   UNL     1      -3.211  16.957  12.015  0.00  0.00    +0.000 A 
ATOM      6  C   UNL     1      -2.121  17.799  11.837  0.00  0.00    +0.000 A 
ENDROOT
BRANCH   1   8
ATOM      7  C   UNL     1      -0.243  20.442  13.442  0.00  0.00    +0.000 C 
ATOM      8  O   UNL     1      -0.550  19.377  12.551  0.00  0.00    +0.000 OA
ENDBRANCH   1   8
BRANCH   6   9
ATOM      9  O   UNL     1      -1.525  17.832  10.605  0.00  0.00    +0.000 OA
ATOM     10  H   UNL     1      -1.699  16.951  10.221  0.00  0.00    +0.000 HD
ENDBRANCH   6   9
TORSDOF 2
ENDMDL
MODEL 3
REMARK VINA RESULT:    -3.299      1.909      2.606
REMARK INTER + INTRA:          -3.626
REMARK INTER:                  -3.589
REMARK INTRA:                  -0.037
REMARK UNBOUND:                -0.038
REMARK  Name = 
REMARK  3 active torsions:
REMARK  status: ('A' for Active; 'I' for Inactive)
REMARK    1  A    between atoms: C_1  and  O_2
REMARK    2  A    between atoms: O_2  and  C_3
REMARK    3  A    between atoms: C_8  and  O_9
REMARK                            x       y       z     vdW  Elec       q    Type
REMARK                         _______ _______ _______ _____ _____    ______ ____
ROOT
ATOM      1  C   UNL     1      -2.219  18.307  13.172  0.00  0.00    +0.000 A 
ATOM      2  C   UNL     1      -2.657  17.640  12.029  0.00  0.00    +0.000 A 
ATOM      3  C   UNL     1      -1.780  17.439  10.956  0.00  0.00    +0.000 A 
ATOM      4  C   UNL     1      -0.465  17.904  11.020  0.00  0.00    +0.000 A 
ATOM      5  C   UNL     1      -0.019  18.571  12.159  0.00  0.00    +0.000 A 
ATOM      6  C   UNL     1      -0.896  18.765  13.219  0.00  0.00    +0.000 A 
ENDROOT
BRANCH   1   8
ATOM      7  C   UNL     1      -4.268  18.006  14.337  0.00  0.00    +0.000 C 
ATOM      8  O   UNL     1      -2.964  18.573  14.293  0.00  0.00    +0.000 OA
ENDBRANCH   1   8
BRANCH   6   9
ATOM      9  O   UNL     1      -0.435  19.424  14.327  0.00  0.00    +0.000 OA
ATOM     10  H   UNL     1      -0.902  19.007  15.076  0.00  0.00    +0.000 HD
ENDBRANCH   6   9
TORSDOF 2
ENDMDL
MODEL 4
REMARK VINA RESULT:    -2.816      1.179      2.438
REMARK INTER + INTRA:          -3.101
REMARK INTER:                  -3.054
REMARK INTRA:                  -0.046
REMARK UNBOUND:                -0.038
REMARK  Name = 
REMARK  3 active torsions:
REMARK  status: ('A' for Active; 'I' for Inactive)
REMARK    1  A    between atoms: C_1  and  O_2
REMARK    2  A    between atoms: O_2  and  C_3
REMARK    3  A    between atoms: C_8  and  O_9
REMARK                            x       y       z     vdW  Elec       q    Type
REMARK                         _______ _______ _______ _____ _____    ______ ____
ROOT
ATOM      1  C   UNL     1      -2.412  17.641  12.457  0.00  0.00    +0.000 A 
ATOM      2  C   UNL     1      -1.280  18.151  11.823  0.00  0.00    +0.000 A 
ATOM      3  C   UNL     1      -0.551  19.188  12.419  0.00  0.00    +0.000 A 
ATOM      4  C   UNL     1      -0.950  19.719  13.647  0.00  0.00    +0.000 A 
ATOM      5  C   UNL     1      -2.080  19.214  14.287  0.00  0.00    +0.000 A 
ATOM      6  C   UNL     1      -2.797  18.186  13.688  0.00  0.00    +0.000 A 
ENDROOT
BRANCH   1   8
ATOM      7  C   UNL     1      -3.582  16.694  10.618  0.00  0.00    +0.000 C 
ATOM      8  O   UNL     1      -3.217  16.633  11.992  0.00  0.00    +0.000 OA
ENDBRANCH   1   8
BRANCH   6   9
ATOM      9  O   UNL     1      -3.903  17.707  14.337  0.00  0.00    +0.000 OA
ATOM     10  H   UNL     1      -3.645  16.817  14.645  0.00  0.00    +0.000 HD
ENDBRANCH   6   9
TORSDOF 2
ENDMDL
MODEL 5
REMARK VINA RESULT:    -2.686     11.068     12.368
REMARK INTER + INTRA:          -2.960
REMARK INTER:                  -2.922
REMARK INTRA:                  -0.038
REMARK UNBOUND:                -0.038
REMARK  Name = 
REMARK  3 active torsions:
REMARK  status: ('A' for Active; 'I' for Inactive)
REMARK    1  A    between atoms: C_1  and  O_2
REMARK    2  A    between atoms: O_2  and  C_3
REMARK    3  A    between atoms: C_8  and  O_9
REMARK                            x       y       z     vdW  Elec       q    Type
REMARK                         _______ _______ _______ _____ _____    ______ ____
ROOT
ATOM      1  C   UNL     1     -13.691  18.960  11.329  0.00  0.00    +0.000 A 
ATOM      2  C   UNL     1     -14.997  19.430  11.195  0.00  0.00    +0.000 A 
ATOM      3  C   UNL     1     -16.004  18.948  12.041  0.00  0.00    +0.000 A 
ATOM      4  C   UNL     1     -15.711  17.997  13.020  0.00  0.00    +0.000 A 
ATOM      5  C   UNL     1     -14.408  17.524  13.161  0.00  0.00    +0.000 A 
ATOM      6  C   UNL     1     -13.416  18.007  12.318  0.00  0.00    +0.000 A 
ENDROOT
BRANCH   1   8
ATOM      7  C   UNL     1     -12.891  20.081   9.392  0.00  0.00    +0.000 C 
ATOM      8  O   UNL     1     -12.610  19.341  10.574  0.00  0.00    +0.000 OA
ENDBRANCH   1   8
BRANCH   6   9
ATOM      9  O   UNL     1     -12.143  17.526  12.475  0.00  0.00    +0.000 OA
ATOM     10  H   UNL     1     -11.599  18.317  12.652  0.00  0.00    +0.000 HD
ENDBRANCH   6   9
TORSDOF 2
ENDMDL
MODEL 6
REMARK VINA RESULT:    -2.681     11.042     12.283
REMARK INTER + INTRA:          -2.954
REMARK INTER:                  -2.916
REMARK INTRA:                  -0.037
REMARK UNBOUND:                -0.038
REMARK  Name = 
REMARK  3 active torsions:
REMARK  status: ('A' for Active; 'I' for Inactive)
REMARK    1  A    between atoms: C_1  and  O_2
REMARK    2  A    between atoms: O_2  and  C_3
REMARK    3  A    between atoms: C_8  and  O_9
REMARK                            x       y       z     vdW  Elec       q    Type
REMARK                         _______ _______ _______ _____ _____    ______ ____
ROOT
ATOM      1  C   UNL     1     -14.575  18.220  12.244  0.00  0.00    +0.000 A 
ATOM      2  C   UNL     1     -15.554  18.958  11.579  0.00  0.00    +0.000 A 
ATOM      3  C   UNL     1     -15.186  19.863  10.576  0.00  0.00    +0.000 A 
ATOM      4  C   UNL     1     -13.843  20.035  10.235  0.00  0.00    +0.000 A 
ATOM      5  C   UNL     1     -12.860  19.301  10.895  0.00  0.00    +0.000 A 
ATOM      6  C   UNL     1     -13.234  18.406  11.889  0.00  0.00    +0.000 A 
ENDROOT
BRANCH   1   8
ATOM      7  C   UNL     1     -16.139  17.114  13.651  0.00  0.00    +0.000 C 
ATOM      8  O   UNL     1     -14.789  17.304  13.243  0.00  0.00    +0.000 OA
ENDBRANCH   1   8
BRANCH   6   9
ATOM      9  O   UNL     1     -12.249  17.696  12.523  0.00  0.00    +0.000 OA
ATOM     10  H   UNL     1     -12.707  16.923  12.905  0.00  0.00    +0.000 HD
ENDBRANCH   6   9
TORSDOF 2
ENDMDL
MODEL 7
REMARK VINA RESULT:    -2.679     25.758     27.128
REMARK INTER + INTRA:          -2.952
REMARK INTER:                  -2.910
REMARK INTRA:                  -0.042
REMARK UNBOUND:                -0.038
REMARK  Name = 
REMARK  3 active torsions:
REMARK  status: ('A' for Active; 'I' for Inactive)
REMARK    1  A    between atoms: C_1  and  O_2
REMARK    2  A    between atoms: O_2  and  C_3
REMARK    3  A    between atoms: C_8  and  O_9
REMARK                            x       y       z     vdW  Elec       q    Type
REMARK                         _______ _______ _______ _____ _____    ______ ____
ROOT
ATOM      1  C   UNL     1     -20.116   0.807   3.112  0.00  0.00    +0.000 A 
ATOM      2  C   UNL     1     -21.146   0.571   4.022  0.00  0.00    +0.000 A 
ATOM      3  C   UNL     1     -21.205  -0.646   4.713  0.00  0.00    +0.000 A 
ATOM      4  C   UNL     1     -20.237  -1.630   4.497  0.00  0.00    +0.000 A 
ATOM      5  C   UNL     1     -19.205  -1.401   3.590  0.00  0.00    +0.000 A 
ATOM      6  C   UNL     1     -19.155  -0.191   2.909  0.00  0.00    +0.000 A 
ENDROOT
BRANCH   1   8
ATOM      7  C   UNL     1     -20.318   3.171   2.983  0.00  0.00    +0.000 C 
ATOM      8  O   UNL     1     -19.936   1.946   2.369  0.00  0.00    +0.000 OA
ENDBRANCH   1   8
BRANCH   6   9
ATOM      9  O   UNL     1     -18.131   0.010   2.023  0.00  0.00    +0.000 OA
ATOM     10  H   UNL     1     -18.160   0.966   1.823  0.00  0.00    +0.000 HD
ENDBRANCH   6   9
TORSDOF 2
ENDMDL
MODEL 8
REMARK VINA RESULT:    -2.664     24.865     25.860
REMARK INTER + INTRA:          -2.935
REMARK INTER:                  -2.883
REMARK INTRA:                  -0.053
REMARK UNBOUND:                -0.038
REMARK  Name = 
REMARK  3 active torsions:
REMARK  status: ('A' for Active; 'I' for Inactive)
REMARK    1  A    between atoms: C_1  and  O_2
REMARK    2  A    between atoms: O_2  and  C_3
REMARK    3  A    between atoms: C_8  and  O_9
REMARK                            x       y       z     vdW  Elec       q    Type
REMARK                         _______ _______ _______ _____ _____    ______ ____
ROOT
ATOM      1  C   UNL     1     -19.874   0.258   6.057  0.00  0.00    +0.000 A 
ATOM      2  C   UNL     1     -20.108   0.070   4.695  0.00  0.00    +0.000 A 
ATOM      3  C   UNL     1     -20.393   1.170   3.876  0.00  0.00    +0.000 A 
ATOM      4  C   UNL     1     -20.447   2.458   4.413  0.00  0.00    +0.000 A 
ATOM      5  C   UNL     1     -20.215   2.653   5.773  0.00  0.00    +0.000 A 
ATOM      6  C   UNL     1     -19.933   1.557   6.578  0.00  0.00    +0.000 A 
ENDROOT
BRANCH   1   8
ATOM      7  C   UNL     1     -18.328  -1.372   6.832  0.00  0.00    +0.000 C 
ATOM      8  O   UNL     1     -19.586  -0.722   6.973  0.00  0.00    +0.000 OA
ENDBRANCH   1   8
BRANCH   6   9
ATOM      9  O   UNL     1     -19.708   1.774   7.911  0.00  0.00    +0.000 OA
ATOM     10  H   UNL     1     -19.352   2.682   7.958  0.00  0.00    +0.000 HD
ENDBRANCH   6   9
TORSDOF 2
ENDMDL
MODEL 9
REMARK VINA RESULT:    -2.585     11.361     12.347
REMARK INTER + INTRA:          -2.850
REMARK INTER:                  -2.797
REMARK INTRA:                  -0.052
REMARK UNBOUND:                -0.038
REMARK  Name = 
REMARK  3 active torsions:
REMARK  status: ('A' for Active; 'I' for Inactive)
REMARK    1  A    between atoms: C_1  and  O_2
REMARK    2  A    between atoms: O_2  and  C_3
REMARK    3  A    between atoms: C_8  and  O_9
REMARK                            x       y       z     vdW  Elec       q    Type
REMARK                         _______ _______ _______ _____ _____    ______ ____
ROOT
ATOM      1  C   UNL     1     -13.569  19.509  10.987  0.00  0.00    +0.000 A 
ATOM      2  C   UNL     1     -12.600  19.684  10.000  0.00  0.00    +0.000 A 
ATOM      3  C   UNL     1     -12.969  20.151   8.732  0.00  0.00    +0.000 A 
ATOM      4  C   UNL     1     -14.304  20.441   8.447  0.00  0.00    +0.000 A 
ATOM      5  C   UNL     1     -15.278  20.269   9.428  0.00  0.00    +0.000 A 
ATOM      6  C   UNL     1     -14.903  19.806  10.682  0.00  0.00    +0.000 A 
ENDROOT
BRANCH   1   8
ATOM      7  C   UNL     1     -12.869  17.730  12.399  0.00  0.00    +0.000 C 
ATOM      8  O   UNL     1     -13.352  19.061  12.266  0.00  0.00    +0.000 OA
ENDBRANCH   1   8
BRANCH   6   9
ATOM      9  O   UNL     1     -15.878  19.644  11.630  0.00  0.00    +0.000 OA
ATOM     10  H   UNL     1     -15.395  19.594  12.477  0.00  0.00    +0.000 HD
ENDBRANCH   6   9
TORSDOF 2
ENDMDL
