MODEL 1
REMARK VINA RESULT:    -3.639      0.000      0.000
REMARK INTER + INTRA:          -4.000
REMARK INTER:                  -3.958
REMARK INTRA:                  -0.042
REMARK UNBOUND:                -0.042
REMARK  Name = 
REMARK  3 active torsions:
REMARK  status: ('A' for Active; 'I' for Inactive)
REMARK    1  A    between atoms: C_1  and  O_2
REMARK    2  A    between atoms: O_2  and  C_3
REMARK    3  A    between atoms: C_8  and  O_9
REMARK                            x       y       z     vdW  Elec       q    Type
REMARK                         _______ _______ _______ _____ _____    ______ ____
ROOT
ATOM      1  C   UNL     1     -17.221 -18.964  -2.625  0.00  0.00    +0.000 A 
ATOM      2  C   UNL     1     -18.126 -19.711  -1.872  0.00  0.00    +0.000 A 
ATOM      3  C   UNL     1     -18.376 -19.369  -0.537  0.00  0.00    +0.000 A 
ATOM      4  C   UNL     1     -17.723 -18.284   0.050  0.00  0.00    +0.000 A 
ATOM      5  C   UNL     1     -16.817 -17.532  -0.695  0.00  0.00    +0.000 A 
ATOM      6  C   UNL     1     -16.575 -17.879  -2.019  0.00  0.00    +0.000 A 
ENDROOT
BRANCH   1   8
ATOM      7  C   UNL     1     -16.854 -20.538  -4.366  0.00  0.00    +0.000 C 
ATOM      8  O   UNL     1     -16.880 -19.183  -3.935  0.00  0.00    +0.000 OA
ENDBRANCH   1   8
BRANCH   6   9
ATOM      9  O   UNL     1     -15.681 -17.125  -2.731  0.00  0.00    +0.000 OA
ATOM     10  H   UNL     1     -16.105 -16.250  -2.815  0.00  0.00    +0.000 HD
ENDBRANCH   6   9
TORSDOF 2
ENDMDL
MODEL 2
REMARK VINA RESULT:    -3.442      2.207      3.198
REMARK INTER + INTRA:          -3.786
REMARK INTER:                  -3.740
REMARK INTRA:                  -0.046
REMARK UNBOUND:                -0.042
REMARK  Name = 
REMARK  3 active torsions:
REMARK  status: ('A' for Active; 'I' for Inactive)
REMARK    1  A    between atoms: C_1  and  O_2
REMARK    2  A    between atoms: O_2  and  C_3
REMARK    3  A    between atoms: C_8  and  O_9
REMARK                            x       y       z     vdW  Elec       q    Type
REMARK                         _______ _______ _______ _____ _____    ______ ____
ROOT
ATOM      1  C   UNL     1     -18.022 -19.091  -0.714  0.00  0.00    +0.000 A 
ATOM      2  C   UNL     1     -18.019 -19.557  -2.028  0.00  0.00    +0.000 A 
ATOM      3  C   UNL     1     -17.174 -18.967  -2.978  0.00  0.00    +0.000 A 
ATOM      4  C   UNL     1     -16.334 -17.912  -2.618  0.00  0.00    +0.000 A 
ATOM      5  C   UNL     1     -16.331 -17.441  -1.307  0.00  0.00    +0.000 A 
ATOM      6  C   UNL     1     -17.172 -18.032  -0.373  0.00  0.00    +0.000 A 
ENDROOT
BRANCH   1   8
ATOM      7  C   UNL     1     -18.421 -20.836   0.849  0.00  0.00    +0.000 C 
ATOM      8  O   UNL     1     -18.793 -19.571   0.314  0.00  0.00    +0.000 OA
ENDBRANCH   1   8
BRANCH   6   9
ATOM      9  O   UNL     1     -17.152 -17.553   0.910  0.00  0.00    +0.000 OA
ATOM     10  H   UNL     1     -18.034 -17.766   1.269  0.00  0.00    +0.000 HD
ENDBRANCH   6   9
TORSDOF 2
ENDMDL
MODEL 3
REMARK VINA RESULT:    -3.408      1.863      3.608
REMARK INTER + INTRA:          -3.749
REMARK INTER:                  -3.697
REMARK INTRA:                  -0.053
REMARK UNBOUND:                -0.042
REMARK  Name = 
REMARK  3 active torsions:
REMARK  status: ('A' for Active; 'I' for Inactive)
REMARK    1  A    between atoms: C_1  and  O_2
REMARK    2  A    between atoms: O_2  and  C_3
REMARK    3  A    between atoms: C_8  and  O_9
REMARK                            x       y       z     vdW  Elec       q    Type
REMARK                         _______ _______ _______ _____ _____    ______ ____
ROOT
ATOM      1  C   UNL     1     -16.850 -19.188  -3.394  0.00  0.00    +0.000 A 
ATOM      2  C   UNL     1     -17.024 -20.310  -4.202  0.00  0.00    +0.000 A 
ATOM      3  C   UNL     1     -16.217 -20.490  -5.332  0.00  0.00    +0.000 A 
ATOM      4  C   UNL     1     -15.237 -19.552  -5.659  0.00  0.00    +0.000 A 
ATOM      5  C   UNL     1     -15.057 -18.428  -4.856  0.00  0.00    +0.000 A 
ATOM      6  C   UNL     1     -15.862 -18.257  -3.737  0.00  0.00    +0.000 A 
ENDROOT
BRANCH   1   8
ATOM      7  C   UNL     1     -18.944 -18.585  -2.444  0.00  0.00    +0.000 C 
ATOM      8  O   UNL     1     -17.565 -18.884  -2.263  0.00  0.00    +0.000 OA
ENDBRANCH   1   8
BRANCH   6   9
ATOM      9  O   UNL     1     -15.666 -17.144  -2.964  0.00  0.00    +0.000 OA
ATOM     10  H   UNL     1     -14.743 -16.878  -3.140  0.00  0.00    +0.000 HD
ENDBRANCH   6   9
TORSDOF 2
ENDMDL
MODEL 4
REMARK VINA RESULT:    -3.328      2.621      3.820
REMARK INTER + INTRA:          -3.662
REMARK INTER:                  -3.618
REMARK INTRA:                  -0.044
REMARK UNBOUND:                -0.042
REMARK  Name = 
REMARK  3 active torsions:
REMARK  status: ('A' for Active; 'I' for Inactive)
REMARK    1  A    between atoms: C_1  and  O_2
REMARK    2  A    between atoms: O_2  and  C_3
REMARK    3  A    between atoms: C_8  and  O_9
REMARK                            x       y       z     vdW  Elec       q    Type
REMARK                         _______ _______ _______ _____ _____    ______ ____
ROOT
ATOM      1  C   UNL     1     -18.614 -19.037   0.284  0.00  0.00    +0.000 A 
ATOM      2  C   UNL     1     -19.389 -19.664  -0.690  0.00  0.00    +0.000 A 
ATOM      3  C   UNL     1     -19.133 -19.430  -2.046  0.00  0.00    +0.000 A 
ATOM      4  C   UNL     1     -18.105 -18.569  -2.434  0.00  0.00    +0.000 A 
ATOM      5  C   UNL     1     -17.325 -17.938  -1.467  0.00  0.00    +0.000 A 
ATOM      6  C   UNL     1     -17.587 -18.177  -0.123  0.00  0.00    +0.000 A 
ENDROOT
BRANCH   1   8
ATOM      7  C   UNL     1     -20.082 -19.269   2.139  0.00  0.00    +0.000 C 
ATOM      8  O   UNL     1     -18.752 -19.172   1.643  0.00  0.00    +0.000 OA
ENDBRANCH   1   8
BRANCH   6   9
ATOM      9  O   UNL     1     -16.807 -17.545   0.809  0.00  0.00    +0.000 OA
ATOM     10  H   UNL     1     -17.107 -17.903   1.666  0.00  0.00    +0.000 HD
ENDBRANCH   6   9
TORSDOF 2
ENDMDL
MODEL 5
REMARK VINA RESULT:    -3.269      1.648      2.470
REMARK INTER + INTRA:          -3.597
REMARK INTER:                  -3.558
REMARK INTRA:                  -0.040
REMARK UNBOUND:                -0.042
REMARK  Name = 
REMARK  3 active torsions:
REMARK  status: ('A' for Active; 'I' for Inactive)
REMARK    1  A    between atoms: C_1  and  O_2
REMARK    2  A    between atoms: O_2  and  C_3
REMARK    3  A    between atoms: C_8  and  O_9
REMARK                            x       y       z     vdW  Elec       q    Type
REMARK                         _______ _______ _______ _____ _____    ______ ____
ROOT
ATOM      1  C   UNL     1     -17.444 -18.254  -1.388  0.00  0.00    +0.000 A 
ATOM      2  C   UNL     1     -18.304 -18.994  -2.199  0.00  0.00    +0.000 A 
ATOM      3  C   UNL     1     -19.339 -19.740  -1.622  0.00  0.00    +0.000 A 
ATOM      4  C   UNL     1     -19.519 -19.750  -0.238  0.00  0.00    +0.000 A 
ATOM      5  C   UNL     1     -18.664 -19.014   0.579  0.00  0.00    +0.000 A 
ATOM      6  C   UNL     1     -17.639 -18.277  -0.001  0.00  0.00    +0.000 A 
ENDROOT
BRANCH   1   8
ATOM      7  C   UNL     1     -15.839 -17.807  -3.082  0.00  0.00    +0.000 C 
ATOM      8  O   UNL     1     -16.392 -17.482  -1.813  0.00  0.00    +0.000 OA
ENDBRANCH   1   8
BRANCH   6   9
ATOM      9  O   UNL     1     -16.811 -17.561   0.822  0.00  0.00    +0.000 OA
ATOM     10  H   UNL     1     -16.041 -17.337   0.266  0.00  0.00    +0.000 HD
ENDBRANCH   6   9
TORSDOF 2
ENDMDL
MODEL 6
REMARK VINA RESULT:    -3.001      1.228      2.324
REMARK INTER + INTRA:          -3.307
REMARK INTER:                  -3.269
REMARK INTRA:                  -0.038
REMARK UNBOUND:                -0.042
REMARK  Name = 
REMARK  3 active torsions:
REMARK  status: ('A' for Active; 'I' for Inactive)
REMARK    1  A    between atoms: C_1  and  O_2
REMARK    2  A    between atoms: O_2  and  C_3
REMARK    3  A    between atoms: C_8  and  O_9
REMARK                            x       y       z     vdW  Elec       q    Type
REMARK                         _______ _______ _______ _____ _____    ______ ____
ROOT
ATOM      1  C   UNL     1     -17.168 -18.941  -2.728  0.00  0.00    +0.000 A 
ATOM      2  C   UNL     1     -16.342 -17.878  -2.363  0.00  0.00    +0.000 A 
ATOM      3  C   UNL     1     -16.396 -17.367  -1.060  0.00  0.00    +0.000 A 
ATOM      4  C   UNL     1     -17.272 -17.913  -0.121  0.00  0.00    +0.000 A 
ATOM      5  C   UNL     1     -18.099 -18.976  -0.478  0.00  0.00    +0.000 A 
ATOM      6  C   UNL     1     -18.040 -19.476  -1.772  0.00  0.00    +0.000 A 
ENDROOT
BRANCH   1   8
ATOM      7  C   UNL     1     -16.156 -19.244  -4.857  0.00  0.00    +0.000 C 
ATOM      8  O   UNL     1     -17.222 -19.538  -3.962  0.00  0.00    +0.000 OA
ENDBRANCH   1   8
BRANCH   6   9
ATOM      9  O   UNL     1     -18.862 -20.520  -2.100  0.00  0.00    +0.000 OA
ATOM     10  H   UNL     1     -18.378 -21.318  -1.813  0.00  0.00    +0.000 HD
ENDBRANCH   6   9
TORSDOF 2
ENDMDL
MODEL 7
REMARK VINA RESULT:    -2.950     14.547     15.379
REMARK INTER + INTRA:          -3.250
REMARK INTER:                  -3.210
REMARK INTRA:                  -0.040
REMARK UNBOUND:                -0.042
REMARK  Name = 
REMARK  3 active torsions:
REMARK  status: ('A' for Active; 'I' for Inactive)
REMARK    1  A    between atoms: C_1  and  O_2
REMARK    2  A    between atoms: O_2  and  C_3
REMARK    3  A    between atoms: C_8  and  O_9
REMARK                            x       y       z     vdW  Elec       q    Type
REMARK                         _______ _______ _______ _____ _____    ______ ____
ROOT
ATOM      1  C   UNL     1      -2.707 -19.525   0.950  0.00  0.00    +0.000 A 
ATOM      2  C   UNL     1      -1.579 -20.144   1.487  0.00  0.00    +0.000 A 
ATOM      3  C   UNL     1      -0.403 -20.233   0.731  0.00  0.00    +0.000 A 
ATOM      4  C   UNL     1      -0.351 -19.706  -0.561  0.00  0.00    +0.000 A 
ATOM      5  C   UNL     1      -1.474 -19.087  -1.105  0.00  0.00    +0.000 A 
ATOM      6  C   UNL     1      -2.636 -19.003  -0.348  0.00  0.00    +0.000 A 
ENDROOT
BRANCH   1   8
ATOM      7  C   UNL     1      -4.240 -20.314   2.585  0.00  0.00    +0.000 C 
ATOM      8  O   UNL     1      -3.919 -19.368   1.572  0.00  0.00    +0.000 OA
ENDBRANCH   1   8
BRANCH   6   9
ATOM      9  O   UNL     1      -3.727 -18.390  -0.903  0.00  0.00    +0.000 OA
ATOM     10  H   UNL     1      -3.744 -18.703  -1.828  0.00  0.00    +0.000 HD
ENDBRANCH   6   9
TORSDOF 2
ENDMDL
MODEL 8
REMARK VINA RESULT:    -2.893     18.283     19.026
REMARK INTER + INTRA:          -3.189
REMARK INTER:                  -3.152
REMARK INTRA:                  -0.037
REMARK UNBOUND:                -0.042
REMARK  Name = 
REMARK  3 active torsions:
REMARK  status: ('A' for Active; 'I' for Inactive)
REMARK    1  A    between atoms: C_1  and  O_2
REMARK    2  A    between atoms: O_2  and  C_3
REMARK    3  A    between atoms: C_8  and  O_9
REMARK                            x       y       z     vdW  Elec       q    Type
REMARK                         _______ _______ _______ _____ _____    ______ ____
ROOT
ATOM      1  C   UNL     1      -0.796 -16.791   6.723  0.00  0.00    +0.000 A 
ATOM      2  C   UNL     1      -0.010 -15.639   6.733  0.00  0.00    +0.000 A 
ATOM      3  C   UNL     1       0.055 -14.847   7.886  0.00  0.00    +0.000 A 
ATOM      4  C   UNL     1      -0.664 -15.200   9.029  0.00  0.00    +0.000 A 
ATOM      5  C   UNL     1      -1.451 -16.349   9.027  0.00  0.00    +0.000 A 
ATOM      6  C   UNL     1      -1.509 -17.130   7.879  0.00  0.00    +0.000 A 
ENDROOT
BRANCH   1   8
ATOM      7  C   UNL     1      -0.213 -17.363   4.491  0.00  0.00    +0.000 C 
ATOM      8  O   UNL     1      -0.953 -17.657   5.670  0.00  0.00    +0.000 OA
ENDBRANCH   1   8
BRANCH   6   9
ATOM      9  O   UNL     1      -2.290 -18.255   7.901  0.00  0.00    +0.000 OA
ATOM     10  H   UNL     1      -3.178 -17.936   8.153  0.00  0.00    +0.000 HD
ENDBRANCH   6   9
TORSDOF 2
ENDMDL
MODEL 9
REMARK VINA RESULT:    -2.869     17.422     18.290
REMARK INTER + INTRA:          -3.163
REMARK INTER:                  -3.123
REMARK INTRA:                  -0.040
REMARK UNBOUND:                -0.042
REMARK  Name = 
REMARK  3 active torsions:
REMARK  status: ('A' for Active; 'I' for Inactive)
REMARK    1  A    between atoms: C_1  and  O_2
REMARK    2  A    between atoms: O_2  and  C_3
REMARK    3  A    between atoms: C_8  and  O_9
REMARK                            x       y       z     vdW  Elec       q    Type
REMARK                         _______ _______ _______ _____ _____    ______ ____
ROOT
ATOM      1  C   UNL     1      -1.142 -17.029   6.811  0.00  0.00    +0.000 A 
ATOM      2  C   UNL     1      -1.533 -18.052   7.673  0.00  0.00    +0.000 A 
ATOM      3  C   UNL     1      -1.863 -19.312   7.158  0.00  0.00    +0.000 A 
ATOM      4  C   UNL     1      -1.803 -19.554   5.784  0.00  0.00    +0.000 A 
ATOM      5  C   UNL     1      -1.413 -18.536   4.917  0.00  0.00    +0.000 A 
ATOM      6  C   UNL     1      -1.088 -17.289   5.436  0.00  0.00    +0.000 A 
ENDROOT
BRANCH   1   8
ATOM      7  C   UNL     1      -1.301 -15.285   8.417  0.00  0.00    +0.000 C 
ATOM      8  O   UNL     1      -0.794 -15.752   7.173  0.00  0.00    +0.000 OA
ENDBRANCH   1   8
BRANCH   6   9
ATOM      9  O   UNL     1      -0.707 -16.305   4.564  0.00  0.00    +0.000 OA
ATOM     10  H   UNL     1      -0.626 -16.755   3.701  0.00  0.00    +0.000 HD
ENDBRANCH   6   9
TORSDOF 2
ENDMDL
