MODEL 1
REMARK VINA RESULT:    -3.916      0.000      0.000
REMARK INTER + INTRA:          -4.313
REMARK INTER:                  -4.260
REMARK INTRA:                  -0.053
REMARK UNBOUND:                -0.053
REMARK  Name = 
REMARK  3 active torsions:
REMARK  status: ('A' for Active; 'I' for Inactive)
REMARK    1  A    between atoms: C_1  and  O_2
REMARK    2  A    between atoms: O_2  and  C_3
REMARK    3  A    between atoms: C_8  and  O_9
REMARK                            x       y       z     vdW  Elec       q    Type
REMARK                         _______ _______ _______ _____ _____    ______ ____
ROOT
ATOM      1  C   UNL     1      -0.571  14.420  -8.217  0.00  0.00    +0.000 A 
ATOM      2  C   UNL     1      -0.949  14.820  -9.498  0.00  0.00    +0.000 A 
ATOM      3  C   UNL     1      -0.944  13.896 -10.550  0.00  0.00    +0.000 A 
ATOM      4  C   UNL     1      -0.560  12.572 -10.327  0.00  0.00    +0.000 A 
ATOM      5  C   UNL     1      -0.181  12.165  -9.050  0.00  0.00    +0.000 A 
ATOM      6  C   UNL     1      -0.190  13.088  -8.013  0.00  0.00    +0.000 A 
ENDROOT
BRANCH   1   8
ATOM      7  C   UNL     1       0.445  16.251  -7.094  0.00  0.00    +0.000 C 
ATOM      8  O   UNL     1      -0.529  15.214  -7.099  0.00  0.00    +0.000 OA
ENDBRANCH   1   8
BRANCH   6   9
ATOM      9  O   UNL     1       0.187  12.664  -6.766  0.00  0.00    +0.000 OA
ATOM     10  H   UNL     1       0.337  13.485  -6.259  0.00  0.00    +0.000 HD
ENDBRANCH   6   9
TORSDOF 2
ENDMDL
MODEL 2
REMARK VINA RESULT:    -3.800      1.098      2.290
REMARK INTER + INTRA:          -4.186
REMARK INTER:                  -4.142
REMARK INTRA:                  -0.044
REMARK UNBOUND:                -0.053
REMARK  Name = 
REMARK  3 active torsions:
REMARK  status: ('A' for Active; 'I' for Inactive)
REMARK    1  A    between atoms: C_1  and  O_2
REMARK    2  A    between atoms: O_2  and  C_3
REMARK    3  A    between atoms: C_8  and  O_9
REMARK                            x       y       z     vdW  Elec       q    Type
REMARK                         _______ _______ _______ _____ _____    ______ ____
ROOT
ATOM      1  C   UNL     1      -0.473  14.575  -8.183  0.00  0.00    +0.000 A 
ATOM      2  C   UNL     1      -0.108  13.290  -7.784  0.00  0.00    +0.000 A 
ATOM      3  C   UNL     1      -0.105  12.243  -8.715  0.00  0.00    +0.000 A 
ATOM      4  C   UNL     1      -0.466  12.475 -10.043  0.00  0.00    +0.000 A 
ATOM      5  C   UNL     1      -0.832  13.756 -10.449  0.00  0.00    +0.000 A 
ATOM      6  C   UNL     1      -0.832  14.789  -9.520  0.00  0.00    +0.000 A 
ENDROOT
BRANCH   1   8
ATOM      7  C   UNL     1       0.727  16.263  -7.018  0.00  0.00    +0.000 C 
ATOM      8  O   UNL     1      -0.522  15.689  -7.384  0.00  0.00    +0.000 OA
ENDBRANCH   1   8
BRANCH   6   9
ATOM      9  O   UNL     1      -1.196  16.039  -9.943  0.00  0.00    +0.000 OA
ATOM     10  H   UNL     1      -1.993  15.896 -10.487  0.00  0.00    +0.000 HD
ENDBRANCH   6   9
TORSDOF 2
ENDMDL
MODEL 3
REMARK VINA RESULT:    -3.773      1.294      3.218
REMARK INTER + INTRA:          -4.157
REMARK INTER:                  -4.113
REMARK INTRA:                  -0.044
REMARK UNBOUND:                -0.053
REMARK  Name = 
REMARK  3 active torsions:
REMARK  status: ('A' for Active; 'I' for Inactive)
REMARK    1  A    between atoms: C_1  and  O_2
REMARK    2  A    between atoms: O_2  and  C_3
REMARK    3  A    between atoms: C_8  and  O_9
REMARK                            x       y       z     vdW  Elec       q    Type
REMARK                         _______ _______ _______ _____ _____    ______ ____
ROOT
ATOM      1  C   UNL     1      -0.217  12.353  -9.215  0.00  0.00    +0.000 A 
ATOM      2  C   UNL     1      -0.662  13.046 -10.340  0.00  0.00    +0.000 A 
ATOM      3  C   UNL     1      -1.034  14.392 -10.231  0.00  0.00    +0.000 A 
ATOM      4  C   UNL     1      -0.963  15.048  -9.000  0.00  0.00    +0.000 A 
ATOM      5  C   UNL     1      -0.520  14.362  -7.872  0.00  0.00    +0.000 A 
ATOM      6  C   UNL     1      -0.153  13.027  -7.990  0.00  0.00    +0.000 A 
ENDROOT
BRANCH   1   8
ATOM      7  C   UNL     1      -0.573  10.127  -9.969  0.00  0.00    +0.000 C 
ATOM      8  O   UNL     1       0.176  11.039  -9.175  0.00  0.00    +0.000 OA
ENDBRANCH   1   8
BRANCH   6   9
ATOM      9  O   UNL     1       0.280  12.374  -6.866  0.00  0.00    +0.000 OA
ATOM     10  H   UNL     1       0.845  11.652  -7.201  0.00  0.00    +0.000 HD
ENDBRANCH   6   9
TORSDOF 2
ENDMDL
MODEL 4
REMARK VINA RESULT:    -3.617      6.463      7.842
REMARK INTER + INTRA:          -3.987
REMARK INTER:                  -3.935
REMARK INTRA:                  -0.052
REMARK UNBOUND:                -0.053
REMARK  Name = 
REMARK  3 active torsions:
REMARK  status: ('A' for Active; 'I' for Inactive)
REMARK    1  A    between atoms: C_1  and  O_2
REMARK    2  A    between atoms: O_2  and  C_3
REMARK    3  A    between atoms: C_8  and  O_9
REMARK                            x       y       z     vdW  Elec       q    Type
REMARK                         _______ _______ _______ _____ _____    ______ ____
ROOT
ATOM      1  C   UNL     1      -1.407  13.670  -1.319  0.00  0.00    +0.000 A 
ATOM      2  C   UNL     1      -2.102  14.533  -0.473  0.00  0.00    +0.000 A 
ATOM      3  C   UNL     1      -1.834  15.908  -0.502  0.00  0.00    +0.000 A 
ATOM      4  C   UNL     1      -0.873  16.423  -1.373  0.00  0.00    +0.000 A 
ATOM      5  C   UNL     1      -0.175  15.567  -2.222  0.00  0.00    +0.000 A 
ATOM      6  C   UNL     1      -0.447  14.206  -2.187  0.00  0.00    +0.000 A 
ENDROOT
BRANCH   1   8
ATOM      7  C   UNL     1      -1.111  11.553  -0.281  0.00  0.00    +0.000 C 
ATOM      8  O   UNL     1      -1.565  12.310  -1.397  0.00  0.00    +0.000 OA
ENDBRANCH   1   8
BRANCH   6   9
ATOM      9  O   UNL     1       0.252  13.384  -3.031  0.00  0.00    +0.000 OA
ATOM     10  H   UNL     1       0.405  12.570  -2.514  0.00  0.00    +0.000 HD
ENDBRANCH   6   9
TORSDOF 2
ENDMDL
MODEL 5
REMARK VINA RESULT:    -3.365      5.963      7.572
REMARK INTER + INTRA:          -3.713
REMARK INTER:                  -3.675
REMARK INTRA:                  -0.038
REMARK UNBOUND:                -0.053
REMARK  Name = 
REMARK  3 active torsions:
REMARK  status: ('A' for Active; 'I' for Inactive)
REMARK    1  A    between atoms: C_1  and  O_2
REMARK    2  A    between atoms: O_2  and  C_3
REMARK    3  A    between atoms: C_8  and  O_9
REMARK                            x       y       z     vdW  Elec       q    Type
REMARK                         _______ _______ _______ _____ _____    ______ ____
ROOT
ATOM      1  C   UNL     1      -0.717  12.947  -2.239  0.00  0.00    +0.000 A 
ATOM      2  C   UNL     1      -1.507  12.345  -1.261  0.00  0.00    +0.000 A 
ATOM      3  C   UNL     1      -2.133  13.131  -0.285  0.00  0.00    +0.000 A 
ATOM      4  C   UNL     1      -1.972  14.517  -0.283  0.00  0.00    +0.000 A 
ATOM      5  C   UNL     1      -1.184  15.127  -1.257  0.00  0.00    +0.000 A 
ATOM      6  C   UNL     1      -0.567  14.340  -2.220  0.00  0.00    +0.000 A 
ENDROOT
BRANCH   1   8
ATOM      7  C   UNL     1      -0.363  10.933  -3.449  0.00  0.00    +0.000 C 
ATOM      8  O   UNL     1      -0.047  12.305  -3.250  0.00  0.00    +0.000 OA
ENDBRANCH   1   8
BRANCH   6   9
ATOM      9  O   UNL     1       0.203  14.961  -3.167  0.00  0.00    +0.000 OA
ATOM     10  H   UNL     1       0.906  15.411  -2.660  0.00  0.00    +0.000 HD
ENDBRANCH   6   9
TORSDOF 2
ENDMDL
MODEL 6
REMARK VINA RESULT:    -3.334     13.402     13.946
REMARK INTER + INTRA:          -3.679
REMARK INTER:                  -3.638
REMARK INTRA:                  -0.041
REMARK UNBOUND:                -0.053
REMARK  Name = 
REMARK  3 active torsions:
REMARK  status: ('A' for Active; 'I' for Inactive)
REMARK    1  A    between atoms: C_1  and  O_2
REMARK    2  A    between atoms: O_2  and  C_3
REMARK    3  A    between atoms: C_8  and  O_9
REMARK                            x       y       z     vdW  Elec       q    Type
REMARK                         _______ _______ _______ _____ _____    ______ ____
ROOT
ATOM      1  C   UNL     1       9.227  15.016 -18.217  0.00  0.00    +0.000 A 
ATOM      2  C   UNL     1      10.184  15.964 -18.578  0.00  0.00    +0.000 A 
ATOM      3  C   UNL     1      11.407  16.017 -17.897  0.00  0.00    +0.000 A 
ATOM      4  C   UNL     1      11.677  15.127 -16.856  0.00  0.00    +0.000 A 
ATOM      5  C   UNL     1      10.727  14.177 -16.490  0.00  0.00    +0.000 A 
ATOM      6  C   UNL     1       9.516  14.132 -17.171  0.00  0.00    +0.000 A 
ENDROOT
BRANCH   1   8
ATOM      7  C   UNL     1       7.381  16.017 -19.329  0.00  0.00    +0.000 C 
ATOM      8  O   UNL     1       7.993  14.850 -18.792  0.00  0.00    +0.000 OA
ENDBRANCH   1   8
BRANCH   6   9
ATOM      9  O   UNL     1       8.598  13.189 -16.793  0.00  0.00    +0.000 OA
ATOM     10  H   UNL     1       9.128  12.464 -16.411  0.00  0.00    +0.000 HD
ENDBRANCH   6   9
TORSDOF 2
ENDMDL
MODEL 7
REMARK VINA RESULT:    -3.271     13.949     14.303
REMARK INTER + INTRA:          -3.610
REMARK INTER:                  -3.558
REMARK INTRA:                  -0.052
REMARK UNBOUND:                -0.053
REMARK  Name = 
REMARK  3 active torsions:
REMARK  status: ('A' for Active; 'I' for Inactive)
REMARK    1  A    between atoms: C_1  and  O_2
REMARK    2  A    between atoms: O_2  and  C_3
REMARK    3  A    between atoms: C_8  and  O_9
REMARK                            x       y       z     vdW  Elec       q    Type
REMARK                         _______ _______ _______ _____ _____    ______ ____
ROOT
ATOM      1  C   UNL     1      11.492  15.227 -17.267  0.00  0.00    +0.000 A 
ATOM      2  C   UNL     1      10.753  15.490 -18.420  0.00  0.00    +0.000 A 
ATOM      3  C   UNL     1       9.462  14.964 -18.559  0.00  0.00    +0.000 A 
ATOM      4  C   UNL     1       8.907  14.174 -17.551  0.00  0.00    +0.000 A 
ATOM      5  C   UNL     1       9.639  13.907 -16.396  0.00  0.00    +0.000 A 
ATOM      6  C   UNL     1      10.918  14.433 -16.266  0.00  0.00    +0.000 A 
ENDROOT
BRANCH   1   8
ATOM      7  C   UNL     1      12.938  17.084 -16.942  0.00  0.00    +0.000 C 
ATOM      8  O   UNL     1      12.760  15.674 -16.997  0.00  0.00    +0.000 OA
ENDBRANCH   1   8
BRANCH   6   9
ATOM      9  O   UNL     1      11.618  14.156 -15.122  0.00  0.00    +0.000 OA
ATOM     10  H   UNL     1      11.156  13.392 -14.727  0.00  0.00    +0.000 HD
ENDBRANCH   6   9
TORSDOF 2
ENDMDL
MODEL 8
REMARK VINA RESULT:    -3.115     12.842     13.419
REMARK INTER + INTRA:          -3.440
REMARK INTER:                  -3.400
REMARK INTRA:                  -0.040
REMARK UNBOUND:                -0.053
REMARK  Name = 
REMARK  3 active torsions:
REMARK  status: ('A' for Active; 'I' for Inactive)
REMARK    1  A    between atoms: C_1  and  O_2
REMARK    2  A    between atoms: O_2  and  C_3
REMARK    3  A    between atoms: C_8  and  O_9
REMARK                            x       y       z     vdW  Elec       q    Type
REMARK                         _______ _______ _______ _____ _____    ______ ____
ROOT
ATOM      1  C   UNL     1       8.920  15.291 -18.523  0.00  0.00    +0.000 A 
ATOM      2  C   UNL     1       8.419  16.297 -19.348  0.00  0.00    +0.000 A 
ATOM      3  C   UNL     1       7.041  16.388 -19.581  0.00  0.00    +0.000 A 
ATOM      4  C   UNL     1       6.162  15.477 -18.994  0.00  0.00    +0.000 A 
ATOM      5  C   UNL     1       6.655  14.469 -18.169  0.00  0.00    +0.000 A 
ATOM      6  C   UNL     1       8.023  14.386 -17.943  0.00  0.00    +0.000 A 
ENDROOT
BRANCH   1   8
ATOM      7  C   UNL     1      11.086  16.225 -18.232  0.00  0.00    +0.000 C 
ATOM      8  O   UNL     1      10.239  15.082 -18.208  0.00  0.00    +0.000 OA
ENDBRANCH   1   8
BRANCH   6   9
ATOM      9  O   UNL     1       8.484  13.386 -17.128  0.00  0.00    +0.000 OA
ATOM     10  H   UNL     1       9.291  13.059 -17.568  0.00  0.00    +0.000 HD
ENDBRANCH   6   9
TORSDOF 2
ENDMDL
