MODEL 1
REMARK VINA RESULT:    -4.502      0.000      0.000
REMARK INTER + INTRA:          -6.240
REMARK INTER:                  -6.081
REMARK INTRA:                  -0.158
REMARK UNBOUND:                -0.158
REMARK  Name = 
REMARK  10 active torsions:
REMARK  status: ('A' for Active; 'I' for Inactive)
REMARK    1  A    between atoms: C_1  and  C_2
REMARK    2  A    between atoms: C_5  and  N_8
REMARK    3  A    between atoms: N_8  and  C_9
REMARK    4  A    between atoms: N_8  and  C_13
REMARK    5  A    between atoms: C_9  and  C_10
REMARK    6  A    between atoms: C_10  and  C_11
REMARK    7  A    between atoms: C_10  and  O_12
REMARK    8  A    between atoms: C_13  and  C_14
REMARK    9  A    between atoms: C_14  and  C_15
REMARK   10  A    between atoms: C_14  and  O_16
REMARK                            x       y       z     vdW  Elec       q    Type
REMARK                         _______ _______ _______ _____ _____    ______ ____
ROOT
ATOM      1  N   UNL     1       9.617  15.562 -19.344  0.00  0.00    +0.000 N 
ENDROOT
BRANCH   1   6
ATOM      2  C   UNL     1       4.170  17.283 -20.175  0.00  0.00    +0.000 C 
ATOM      3  C   UNL     1       5.582  16.843 -19.935  0.00  0.00    +0.000 A 
ATOM      4  C   UNL     1       6.646  17.716 -20.136  0.00  0.00    +0.000 A 
ATOM      5  C   UNL     1       7.969  17.289 -19.939  0.00  0.00    +0.000 A 
ATOM      6  C   UNL     1       8.297  15.976 -19.558  0.00  0.00    +0.000 A 
ATOM      7  C   UNL     1       7.196  15.121 -19.362  0.00  0.00    +0.000 A 
ATOM      8  C   UNL     1       5.868  15.536 -19.553  0.00  0.00    +0.000 A 
ENDBRANCH   1   6
BRANCH   1   9
ATOM      9  C   UNL     1      10.181  15.555 -17.973  0.00  0.00    +0.000 C 
BRANCH   9  10
ATOM     10  C   UNL     1      10.368  14.125 -17.409  0.00  0.00    +0.000 C 
ATOM     11  C   UNL     1      10.838  14.167 -15.959  0.00  0.00    +0.000 C 
BRANCH  10  12
ATOM     12  O   UNL     1       9.138  13.388 -17.455  0.00  0.00    +0.000 OA
ATOM     13  H   UNL     1       8.438  13.946 -17.076  0.00  0.00    +0.000 HD
ENDBRANCH  10  12
ENDBRANCH   9  10
ENDBRANCH   1   9
BRANCH   1  14
ATOM     14  C   UNL     1      10.626  15.616 -20.433  0.00  0.00    +0.000 C 
BRANCH  14  15
ATOM     15  C   UNL     1      10.748  14.268 -21.184  0.00  0.00    +0.000 C 
ATOM     16  C   UNL     1      11.698  13.288 -20.505  0.00  0.00    +0.000 C 
BRANCH  15  17
ATOM     17  O   UNL     1       9.481  13.628 -21.327  0.00  0.00    +0.000 OA
ATOM     18  H   UNL     1       8.859  14.182 -20.815  0.00  0.00    +0.000 HD
ENDBRANCH  15  17
ENDBRANCH  14  15
ENDBRANCH   1  14
TORSDOF 7
ENDMDL
MODEL 2
REMARK VINA RESULT:    -4.350      3.279      5.911
REMARK INTER + INTRA:          -6.035
REMARK INTER:                  -5.433
REMARK INTRA:                  -0.602
REMARK UNBOUND:                -0.158
REMARK  Name = 
REMARK  10 active torsions:
REMARK  status: ('A' for Active; 'I' for Inactive)
REMARK    1  A    between atoms: C_1  and  C_2
REMARK    2  A    between atoms: C_5  and  N_8
REMARK    3  A    between atoms: N_8  and  C_9
REMARK    4  A    between atoms: N_8  and  C_13
REMARK    5  A    between atoms: C_9  and  C_10
REMARK    6  A    between atoms: C_10  and  C_11
REMARK    7  A    between atoms: C_10  and  O_12
REMARK    8  A    between atoms: C_13  and  C_14
REMARK    9  A    between atoms: C_14  and  C_15
REMARK   10  A    between atoms: C_14  and  O_16
REMARK                            x       y       z     vdW  Elec       q    Type
REMARK                         _______ _______ _______ _____ _____    ______ ____
ROOT
ATOM      1  N   UNL     1      11.604  14.989 -18.711  0.00  0.00    +0.000 N 
ENDROOT
BRANCH   1   6
ATOM      2  C   UNL     1      16.857  16.572 -16.913  0.00  0.00    +0.000 C 
ATOM      3  C   UNL     1      15.501  16.137 -17.377  0.00  0.00    +0.000 A 
ATOM      4  C   UNL     1      15.235  15.944 -18.729  0.00  0.00    +0.000 A 
ATOM      5  C   UNL     1      13.954  15.566 -19.160  0.00  0.00    +0.000 A 
ATOM      6  C   UNL     1      12.875  15.385 -18.276  0.00  0.00    +0.000 A 
ATOM      7  C   UNL     1      13.180  15.586 -16.917  0.00  0.00    +0.000 A 
ATOM      8  C   UNL     1      14.458  15.963 -16.472  0.00  0.00    +0.000 A 
ENDBRANCH   1   6
BRANCH   1   9
ATOM      9  C   UNL     1      10.415  15.242 -17.863  0.00  0.00    +0.000 C 
BRANCH   9  10
ATOM     10  C   UNL     1       9.799  13.942 -17.290  0.00  0.00    +0.000 C 
ATOM     11  C   UNL     1      10.110  13.800 -15.804  0.00  0.00    +0.000 C 
BRANCH  10  12
ATOM     12  O   UNL     1       8.374  13.935 -17.447  0.00  0.00    +0.000 OA
ATOM     13  H   UNL     1       7.973  13.901 -16.563  0.00  0.00    +0.000 HD
ENDBRANCH  10  12
ENDBRANCH   9  10
ENDBRANCH   1   9
BRANCH   1  14
ATOM     14  C   UNL     1      11.438  13.902 -19.711  0.00  0.00    +0.000 C 
BRANCH  14  15
ATOM     15  C   UNL     1      10.800  14.410 -21.026  0.00  0.00    +0.000 C 
ATOM     16  C   UNL     1      11.674  14.164 -22.250  0.00  0.00    +0.000 C 
BRANCH  15  17
ATOM     17  O   UNL     1       9.529  13.808 -21.262  0.00  0.00    +0.000 OA
ATOM     18  H   UNL     1       9.022  14.476 -21.766  0.00  0.00    +0.000 HD
ENDBRANCH  15  17
ENDBRANCH  14  15
ENDBRANCH   1  14
TORSDOF 7
ENDMDL
MODEL 3
REMARK VINA RESULT:    -4.319      3.119      6.420
REMARK INTER + INTRA:          -5.993
REMARK INTER:                  -5.394
REMARK INTRA:                  -0.598
REMARK UNBOUND:                -0.158
REMARK  Name = 
REMARK  10 active torsions:
REMARK  status: ('A' for Active; 'I' for Inactive)
REMARK    1  A    between atoms: C_1  and  C_2
REMARK    2  A    between atoms: C_5  and  N_8
REMARK    3  A    between atoms: N_8  and  C_9
REMARK    4  A    between atoms: N_8  and  C_13
REMARK    5  A    between atoms: C_9  and  C_10
REMARK    6  A    between atoms: C_10  and  C_11
REMARK    7  A    between atoms: C_10  and  O_12
REMARK    8  A    between atoms: C_13  and  C_14
REMARK    9  A    between atoms: C_14  and  C_15
REMARK   10  A    between atoms: C_14  and  O_16
REMARK                            x       y       z     vdW  Elec       q    Type
REMARK                         _______ _______ _______ _____ _____    ______ ____
ROOT
ATOM      1  N   UNL     1      11.426  15.379 -18.823  0.00  0.00    +0.000 N 
ENDROOT
BRANCH   1   6
ATOM      2  C   UNL     1      16.804  16.049 -16.834  0.00  0.00    +0.000 C 
ATOM      3  C   UNL     1      15.406  15.900 -17.351  0.00  0.00    +0.000 A 
ATOM      4  C   UNL     1      14.329  15.796 -16.478  0.00  0.00    +0.000 A 
ATOM      5  C   UNL     1      13.024  15.626 -16.968  0.00  0.00    +0.000 A 
ATOM      6  C   UNL     1      12.733  15.528 -18.341  0.00  0.00    +0.000 A 
ATOM      7  C   UNL     1      13.846  15.640 -19.194  0.00  0.00    +0.000 A 
ATOM      8  C   UNL     1      15.156  15.813 -18.717  0.00  0.00    +0.000 A 
ENDBRANCH   1   6
BRANCH   1   9
ATOM      9  C   UNL     1      11.125  15.650 -20.249  0.00  0.00    +0.000 C 
BRANCH   9  10
ATOM     10  C   UNL     1      10.729  14.375 -21.033  0.00  0.00    +0.000 C 
ATOM     11  C   UNL     1      11.527  13.169 -20.551  0.00  0.00    +0.000 C 
BRANCH  10  12
ATOM     12  O   UNL     1       9.335  14.080 -20.866  0.00  0.00    +0.000 OA
ATOM     13  H   UNL     1       8.852  14.922 -20.824  0.00  0.00    +0.000 HD
ENDBRANCH  10  12
ENDBRANCH   9  10
ENDBRANCH   1   9
BRANCH   1  14
ATOM     14  C   UNL     1      10.256  15.457 -17.912  0.00  0.00    +0.000 C 
BRANCH  14  15
ATOM     15  C   UNL     1       9.772  14.059 -17.460  0.00  0.00    +0.000 C 
ATOM     16  C   UNL     1       9.990  13.800 -15.974  0.00  0.00    +0.000 C 
BRANCH  15  17
ATOM     17  O   UNL     1       8.388  13.862 -17.744  0.00  0.00    +0.000 OA
ATOM     18  H   UNL     1       8.043  13.354 -16.982  0.00  0.00    +0.000 HD
ENDBRANCH  15  17
ENDBRANCH  14  15
ENDBRANCH   1  14
TORSDOF 7
ENDMDL
MODEL 4
REMARK VINA RESULT:    -4.098      1.695      3.573
REMARK INTER + INTRA:          -5.694
REMARK INTER:                  -5.307
REMARK INTRA:                  -0.387
REMARK UNBOUND:                -0.158
REMARK  Name = 
REMARK  10 active torsions:
REMARK  status: ('A' for Active; 'I' for Inactive)
REMARK    1  A    between atoms: C_1  and  C_2
REMARK    2  A    between atoms: C_5  and  N_8
REMARK    3  A    between atoms: N_8  and  C_9
REMARK    4  A    between atoms: N_8  and  C_13
REMARK    5  A    between atoms: C_9  and  C_10
REMARK    6  A    between atoms: C_10  and  C_11
REMARK    7  A    between atoms: C_10  and  O_12
REMARK    8  A    between atoms: C_13  and  C_14
REMARK    9  A    between atoms: C_14  and  C_15
REMARK   10  A    between atoms: C_14  and  O_16
REMARK                            x       y       z     vdW  Elec       q    Type
REMARK                         _______ _______ _______ _____ _____    ______ ____
ROOT
ATOM      1  N   UNL     1      10.343  14.982 -18.594  0.00  0.00    +0.000 N 
ENDROOT
BRANCH   1   6
ATOM      2  C   UNL     1       5.055  17.075 -19.587  0.00  0.00    +0.000 C 
ATOM      3  C   UNL     1       6.428  16.523 -19.353  0.00  0.00    +0.000 A 
ATOM      4  C   UNL     1       6.605  15.246 -18.831  0.00  0.00    +0.000 A 
ATOM      5  C   UNL     1       7.894  14.745 -18.585  0.00  0.00    +0.000 A 
ATOM      6  C   UNL     1       9.060  15.495 -18.823  0.00  0.00    +0.000 A 
ATOM      7  C   UNL     1       8.844  16.780 -19.352  0.00  0.00    +0.000 A 
ATOM      8  C   UNL     1       7.560  17.293 -19.605  0.00  0.00    +0.000 A 
ENDBRANCH   1   6
BRANCH   1   9
ATOM      9  C   UNL     1      10.949  14.035 -19.561  0.00  0.00    +0.000 C 
BRANCH   9  10
ATOM     10  C   UNL     1      10.692  14.436 -21.035  0.00  0.00    +0.000 C 
ATOM     11  C   UNL     1      11.966  14.316 -21.862  0.00  0.00    +0.000 C 
BRANCH  10  12
ATOM     12  O   UNL     1       9.695  13.595 -21.630  0.00  0.00    +0.000 OA
ATOM     13  H   UNL     1       9.672  12.758 -21.137  0.00  0.00    +0.000 HD
ENDBRANCH  10  12
ENDBRANCH   9  10
ENDBRANCH   1   9
BRANCH   1  14
ATOM     14  C   UNL     1      10.917  14.927 -17.225  0.00  0.00    +0.000 C 
BRANCH  14  15
ATOM     15  C   UNL     1      12.356  15.492 -17.171  0.00  0.00    +0.000 C 
ATOM     16  C   UNL     1      12.421  16.994 -17.422  0.00  0.00    +0.000 C 
BRANCH  15  17
ATOM     17  O   UNL     1      12.981  15.227 -15.916  0.00  0.00    +0.000 OA
ATOM     18  H   UNL     1      12.242  15.140 -15.280  0.00  0.00    +0.000 HD
ENDBRANCH  15  17
ENDBRANCH  14  15
ENDBRANCH   1  14
TORSDOF 7
ENDMDL
MODEL 5
REMARK VINA RESULT:    -3.933      2.220      5.962
REMARK INTER + INTRA:          -5.470
REMARK INTER:                  -4.695
REMARK INTRA:                  -0.775
REMARK UNBOUND:                -0.158
REMARK  Name = 
REMARK  10 active torsions:
REMARK  status: ('A' for Active; 'I' for Inactive)
REMARK    1  A    between atoms: C_1  and  C_2
REMARK    2  A    between atoms: C_5  and  N_8
REMARK    3  A    between atoms: N_8  and  C_9
REMARK    4  A    between atoms: N_8  and  C_13
REMARK    5  A    between atoms: C_9  and  C_10
REMARK    6  A    between atoms: C_10  and  C_11
REMARK    7  A    between atoms: C_10  and  O_12
REMARK    8  A    between atoms: C_13  and  C_14
REMARK    9  A    between atoms: C_14  and  C_15
REMARK   10  A    between atoms: C_14  and  O_16
REMARK                            x       y       z     vdW  Elec       q    Type
REMARK                         _______ _______ _______ _____ _____    ______ ____
ROOT
ATOM      1  N   UNL     1      11.399  14.869 -19.463  0.00  0.00    +0.000 N 
ENDROOT
BRANCH   1   6
ATOM      2  C   UNL     1      13.953  10.609 -22.405  0.00  0.00    +0.000 C 
ATOM      3  C   UNL     1      13.276  11.720 -21.662  0.00  0.00    +0.000 A 
ATOM      4  C   UNL     1      13.818  13.001 -21.644  0.00  0.00    +0.000 A 
ATOM      5  C   UNL     1      13.195  14.031 -20.921  0.00  0.00    +0.000 A 
ATOM      6  C   UNL     1      12.025  13.832 -20.166  0.00  0.00    +0.000 A 
ATOM      7  C   UNL     1      11.504  12.526 -20.209  0.00  0.00    +0.000 A 
ATOM      8  C   UNL     1      12.116  11.487 -20.930  0.00  0.00    +0.000 A 
ENDBRANCH   1   6
BRANCH   1   9
ATOM      9  C   UNL     1      10.039  15.316 -19.852  0.00  0.00    +0.000 C 
BRANCH   9  10
ATOM     10  C   UNL     1       9.026  15.240 -18.684  0.00  0.00    +0.000 C 
ATOM     11  C   UNL     1       7.594  15.214 -19.205  0.00  0.00    +0.000 C 
BRANCH  10  12
ATOM     12  O   UNL     1       9.234  14.058 -17.899  0.00  0.00    +0.000 OA
ATOM     13  H   UNL     1       8.805  13.314 -18.354  0.00  0.00    +0.000 HD
ENDBRANCH  10  12
ENDBRANCH   9  10
ENDBRANCH   1   9
BRANCH   1  14
ATOM     14  C   UNL     1      12.190  15.869 -18.701  0.00  0.00    +0.000 C 
BRANCH  14  15
ATOM     15  C   UNL     1      12.750  15.286 -17.380  0.00  0.00    +0.000 C 
ATOM     16  C   UNL     1      13.840  16.151 -16.758  0.00  0.00    +0.000 C 
BRANCH  15  17
ATOM     17  O   UNL     1      11.722  15.103 -16.408  0.00  0.00    +0.000 OA
ATOM     18  H   UNL     1      11.859  15.821 -15.757  0.00  0.00    +0.000 HD
ENDBRANCH  15  17
ENDBRANCH  14  15
ENDBRANCH   1  14
TORSDOF 7
ENDMDL
MODEL 6
REMARK VINA RESULT:    -3.916      0.933      2.919
REMARK INTER + INTRA:          -5.448
REMARK INTER:                  -5.199
REMARK INTRA:                  -0.250
REMARK UNBOUND:                -0.158
REMARK  Name = 
REMARK  10 active torsions:
REMARK  status: ('A' for Active; 'I' for Inactive)
REMARK    1  A    between atoms: C_1  and  C_2
REMARK    2  A    between atoms: C_5  and  N_8
REMARK    3  A    between atoms: N_8  and  C_9
REMARK    4  A    between atoms: N_8  and  C_13
REMARK    5  A    between atoms: C_9  and  C_10
REMARK    6  A    between atoms: C_10  and  C_11
REMARK    7  A    between atoms: C_10  and  O_12
REMARK    8  A    between atoms: C_13  and  C_14
REMARK    9  A    between atoms: C_14  and  C_15
REMARK   10  A    between atoms: C_14  and  O_16
REMARK                            x       y       z     vdW  Elec       q    Type
REMARK                         _______ _______ _______ _____ _____    ______ ____
ROOT
ATOM      1  N   UNL     1       9.518  15.455 -19.244  0.00  0.00    +0.000 N 
ENDROOT
BRANCH   1   6
ATOM      2  C   UNL     1       4.096  17.224 -20.139  0.00  0.00    +0.000 C 
ATOM      3  C   UNL     1       5.500  16.769 -19.882  0.00  0.00    +0.000 A 
ATOM      4  C   UNL     1       6.562  17.666 -19.931  0.00  0.00    +0.000 A 
ATOM      5  C   UNL     1       7.879  17.228 -19.719  0.00  0.00    +0.000 A 
ATOM      6  C   UNL     1       8.204  15.882 -19.474  0.00  0.00    +0.000 A 
ATOM      7  C   UNL     1       7.105  15.003 -19.430  0.00  0.00    +0.000 A 
ATOM      8  C   UNL     1       5.783  15.428 -19.637  0.00  0.00    +0.000 A 
ENDBRANCH   1   6
BRANCH   1   9
ATOM      9  C   UNL     1      10.177  14.532 -20.199  0.00  0.00    +0.000 C 
BRANCH   9  10
ATOM     10  C   UNL     1      11.655  14.904 -20.470  0.00  0.00    +0.000 C 
ATOM     11  C   UNL     1      12.514  13.653 -20.616  0.00  0.00    +0.000 C 
BRANCH  10  12
ATOM     12  O   UNL     1      11.780  15.671 -21.675  0.00  0.00    +0.000 OA
ATOM     13  H   UNL     1      12.652  16.100 -21.671  0.00  0.00    +0.000 HD
ENDBRANCH  10  12
ENDBRANCH   9  10
ENDBRANCH   1   9
BRANCH   1  14
ATOM     14  C   UNL     1      10.101  15.461 -17.878  0.00  0.00    +0.000 C 
BRANCH  14  15
ATOM     15  C   UNL     1      10.122  14.049 -17.246  0.00  0.00    +0.000 C 
ATOM     16  C   UNL     1      10.732  14.027 -15.849  0.00  0.00    +0.000 C 
BRANCH  15  17
ATOM     17  O   UNL     1       8.813  13.487 -17.165  0.00  0.00    +0.000 OA
ATOM     18  H   UNL     1       8.207  14.232 -17.353  0.00  0.00    +0.000 HD
ENDBRANCH  15  17
ENDBRANCH  14  15
ENDBRANCH   1  14
TORSDOF 7
ENDMDL
MODEL 7
REMARK VINA RESULT:    -3.862      2.487      5.744
REMARK INTER + INTRA:          -5.375
REMARK INTER:                  -4.718
REMARK INTRA:                  -0.657
REMARK UNBOUND:                -0.158
REMARK  Name = 
REMARK  10 active torsions:
REMARK  status: ('A' for Active; 'I' for Inactive)
REMARK    1  A    between atoms: C_1  and  C_2
REMARK    2  A    between atoms: C_5  and  N_8
REMARK    3  A    between atoms: N_8  and  C_9
REMARK    4  A    between atoms: N_8  and  C_13
REMARK    5  A    between atoms: C_9  and  C_10
REMARK    6  A    between atoms: C_10  and  C_11
REMARK    7  A    between atoms: C_10  and  O_12
REMARK    8  A    between atoms: C_13  and  C_14
REMARK    9  A    between atoms: C_14  and  C_15
REMARK   10  A    between atoms: C_14  and  O_16
REMARK                            x       y       z     vdW  Elec       q    Type
REMARK                         _______ _______ _______ _____ _____    ______ ____
ROOT
ATOM      1  N   UNL     1      10.858  15.280 -19.060  0.00  0.00    +0.000 N 
ENDROOT
BRANCH   1   6
ATOM      2  C   UNL     1      14.568  18.033 -15.597  0.00  0.00    +0.000 C 
ATOM      3  C   UNL     1      13.590  17.314 -16.476  0.00  0.00    +0.000 A 
ATOM      4  C   UNL     1      13.720  15.952 -16.724  0.00  0.00    +0.000 A 
ATOM      5  C   UNL     1      12.818  15.289 -17.573  0.00  0.00    +0.000 A 
ATOM      6  C   UNL     1      11.765  15.951 -18.230  0.00  0.00    +0.000 A 
ATOM      7  C   UNL     1      11.663  17.327 -17.955  0.00  0.00    +0.000 A 
ATOM      8  C   UNL     1      12.557  18.001 -17.106  0.00  0.00    +0.000 A 
ENDBRANCH   1   6
BRANCH   1   9
ATOM      9  C   UNL     1      11.202  13.948 -19.613  0.00  0.00    +0.000 C 
BRANCH   9  10
ATOM     10  C   UNL     1      11.192  13.921 -21.162  0.00  0.00    +0.000 C 
ATOM     11  C   UNL     1      12.485  13.323 -21.704  0.00  0.00    +0.000 C 
BRANCH  10  12
ATOM     12  O   UNL     1      10.098  13.136 -21.656  0.00  0.00    +0.000 OA
ATOM     13  H   UNL     1       9.771  12.582 -20.928  0.00  0.00    +0.000 HD
ENDBRANCH  10  12
ENDBRANCH   9  10
ENDBRANCH   1   9
BRANCH   1  14
ATOM     14  C   UNL     1       9.815  16.020 -19.816  0.00  0.00    +0.000 C 
BRANCH  14  15
ATOM     15  C   UNL     1       8.385  15.641 -19.361  0.00  0.00    +0.000 C 
ATOM     16  C   UNL     1       7.391  16.789 -19.490  0.00  0.00    +0.000 C 
BRANCH  15  17
ATOM     17  O   UNL     1       7.875  14.531 -20.098  0.00  0.00    +0.000 OA
ATOM     18  H   UNL     1       7.073  14.252 -19.612  0.00  0.00    +0.000 HD
ENDBRANCH  15  17
ENDBRANCH  14  15
ENDBRANCH   1  14
TORSDOF 7
ENDMDL
MODEL 8
REMARK VINA RESULT:    -3.799      2.993      6.063
REMARK INTER + INTRA:          -5.289
REMARK INTER:                  -4.596
REMARK INTRA:                  -0.693
REMARK UNBOUND:                -0.158
REMARK  Name = 
REMARK  10 active torsions:
REMARK  status: ('A' for Active; 'I' for Inactive)
REMARK    1  A    between atoms: C_1  and  C_2
REMARK    2  A    between atoms: C_5  and  N_8
REMARK    3  A    between atoms: N_8  and  C_9
REMARK    4  A    between atoms: N_8  and  C_13
REMARK    5  A    between atoms: C_9  and  C_10
REMARK    6  A    between atoms: C_10  and  C_11
REMARK    7  A    between atoms: C_10  and  O_12
REMARK    8  A    between atoms: C_13  and  C_14
REMARK    9  A    between atoms: C_14  and  C_15
REMARK   10  A    between atoms: C_14  and  O_16
REMARK                            x       y       z     vdW  Elec       q    Type
REMARK                         _______ _______ _______ _____ _____    ______ ____
ROOT
ATOM      1  N   UNL     1      11.349  14.991 -18.788  0.00  0.00    +0.000 N 
ENDROOT
BRANCH   1   6
ATOM      2  C   UNL     1      16.593  16.365 -16.803  0.00  0.00    +0.000 C 
ATOM      3  C   UNL     1      15.227  16.033 -17.321  0.00  0.00    +0.000 A 
ATOM      4  C   UNL     1      14.155  15.866 -16.451  0.00  0.00    +0.000 A 
ATOM      5  C   UNL     1      12.883  15.525 -16.940  0.00  0.00    +0.000 A 
ATOM      6  C   UNL     1      12.624  15.312 -18.306  0.00  0.00    +0.000 A 
ATOM      7  C   UNL     1      13.731  15.491 -19.156  0.00  0.00    +0.000 A 
ATOM      8  C   UNL     1      15.007  15.834 -18.681  0.00  0.00    +0.000 A 
ENDBRANCH   1   6
BRANCH   1   9
ATOM      9  C   UNL     1      10.154  15.685 -18.250  0.00  0.00    +0.000 C 
BRANCH   9  10
ATOM     10  C   UNL     1       9.560  16.714 -19.243  0.00  0.00    +0.000 C 
ATOM     11  C   UNL     1      10.645  17.290 -20.145  0.00  0.00    +0.000 C 
BRANCH  10  12
ATOM     12  O   UNL     1       8.564  16.107 -20.077  0.00  0.00    +0.000 OA
ATOM     13  H   UNL     1       8.482  16.641 -20.886  0.00  0.00    +0.000 HD
ENDBRANCH  10  12
ENDBRANCH   9  10
ENDBRANCH   1   9
BRANCH   1  14
ATOM     14  C   UNL     1      11.075  13.675 -19.421  0.00  0.00    +0.000 C 
BRANCH  14  15
ATOM     15  C   UNL     1      10.965  13.778 -20.961  0.00  0.00    +0.000 C 
ATOM     16  C   UNL     1      11.712  12.669 -21.691  0.00  0.00    +0.000 C 
BRANCH  15  17
ATOM     17  O   UNL     1       9.606  13.755 -21.395  0.00  0.00    +0.000 OA
ATOM     18  H   UNL     1       9.130  13.248 -20.708  0.00  0.00    +0.000 HD
ENDBRANCH  15  17
ENDBRANCH  14  15
ENDBRANCH   1  14
TORSDOF 7
ENDMDL
MODEL 9
REMARK VINA RESULT:    -3.760     18.100     19.930
REMARK INTER + INTRA:          -5.237
REMARK INTER:                  -4.701
REMARK INTRA:                  -0.536
REMARK UNBOUND:                -0.158
REMARK  Name = 
REMARK  10 active torsions:
REMARK  status: ('A' for Active; 'I' for Inactive)
REMARK    1  A    between atoms: C_1  and  C_2
REMARK    2  A    between atoms: C_5  and  N_8
REMARK    3  A    between atoms: N_8  and  C_9
REMARK    4  A    between atoms: N_8  and  C_13
REMARK    5  A    between atoms: C_9  and  C_10
REMARK    6  A    between atoms: C_10  and  C_11
REMARK    7  A    between atoms: C_10  and  O_12
REMARK    8  A    between atoms: C_13  and  C_14
REMARK    9  A    between atoms: C_14  and  C_15
REMARK   10  A    between atoms: C_14  and  O_16
REMARK                            x       y       z     vdW  Elec       q    Type
REMARK                         _______ _______ _______ _____ _____    ______ ____
ROOT
ATOM      1  N   UNL     1       1.044  17.376  -1.140  0.00  0.00    +0.000 N 
ENDROOT
BRANCH   1   6
ATOM      2  C   UNL     1      -2.034  12.567  -0.280  0.00  0.00    +0.000 C 
ATOM      3  C   UNL     1      -1.238  13.812  -0.528  0.00  0.00    +0.000 A 
ATOM      4  C   UNL     1       0.146  13.763  -0.653  0.00  0.00    +0.000 A 
ATOM      5  C   UNL     1       0.890  14.937  -0.855  0.00  0.00    +0.000 A 
ATOM      6  C   UNL     1       0.298  16.211  -0.918  0.00  0.00    +0.000 A 
ATOM      7  C   UNL     1      -1.103  16.223  -0.791  0.00  0.00    +0.000 A 
ATOM      8  C   UNL     1      -1.859  15.057  -0.590  0.00  0.00    +0.000 A 
ENDBRANCH   1   6
BRANCH   1   9
ATOM      9  C   UNL     1       0.951  18.082  -2.440  0.00  0.00    +0.000 C 
BRANCH   9  10
ATOM     10  C   UNL     1       0.732  17.119  -3.632  0.00  0.00    +0.000 C 
ATOM     11  C   UNL     1      -0.502  17.515  -4.434  0.00  0.00    +0.000 C 
BRANCH  10  12
ATOM     12  O   UNL     1       1.860  17.132  -4.518  0.00  0.00    +0.000 OA
ATOM     13  H   UNL     1       1.620  16.636  -5.318  0.00  0.00    +0.000 HD
ENDBRANCH  10  12
ENDBRANCH   9  10
ENDBRANCH   1   9
BRANCH   1  14
ATOM     14  C   UNL     1       2.278  17.657  -0.363  0.00  0.00    +0.000 C 
BRANCH  14  15
ATOM     15  C   UNL     1       3.530  17.749  -1.268  0.00  0.00    +0.000 C 
ATOM     16  C   UNL     1       4.802  18.086  -0.500  0.00  0.00    +0.000 C 
BRANCH  15  17
ATOM     17  O   UNL     1       3.754  16.535  -1.983  0.00  0.00    +0.000 OA
ATOM     18  H   UNL     1       4.272  16.797  -2.771  0.00  0.00    +0.000 HD
ENDBRANCH  15  17
ENDBRANCH  14  15
ENDBRANCH   1  14
TORSDOF 7
ENDMDL
