MODEL 1
REMARK VINA RESULT:    -3.638      0.000      0.000
REMARK INTER + INTRA:          -4.000
REMARK INTER:                  -3.957
REMARK INTRA:                  -0.042
REMARK UNBOUND:                -0.042
REMARK  Name = 
REMARK  3 active torsions:
REMARK  status: ('A' for Active; 'I' for Inactive)
REMARK    1  A    between atoms: C_1  and  O_2
REMARK    2  A    between atoms: O_2  and  C_3
REMARK    3  A    between atoms: C_8  and  O_9
REMARK                            x       y       z     vdW  Elec       q    Type
REMARK                         _______ _______ _______ _____ _____    ______ ____
ROOT
ATOM      1  C   UNL     1     -17.228 -18.968  -2.639  0.00  0.00    +0.000 A 
ATOM      2  C   UNL     1     -18.134 -19.705  -1.877  0.00  0.00    +0.000 A 
ATOM      3  C   UNL     1     -18.380 -19.349  -0.545  0.00  0.00    +0.000 A 
ATOM      4  C   UNL     1     -17.723 -18.259   0.029  0.00  0.00    +0.000 A 
ATOM      5  C   UNL     1     -16.817 -17.518  -0.726  0.00  0.00    +0.000 A 
ATOM      6  C   UNL     1     -16.579 -17.879  -2.046  0.00  0.00    +0.000 A 
ENDROOT
BRANCH   1   8
ATOM      7  C   UNL     1     -16.866 -20.563  -4.364  0.00  0.00    +0.000 C 
ATOM      8  O   UNL     1     -16.891 -19.202  -3.948  0.00  0.00    +0.000 OA
ENDBRANCH   1   8
BRANCH   6   9
ATOM      9  O   UNL     1     -15.683 -17.135  -2.768  0.00  0.00    +0.000 OA
ATOM     10  H   UNL     1     -15.937 -17.277  -3.700  0.00  0.00    +0.000 HD
ENDBRANCH   6   9
TORSDOF 2
ENDMDL
MODEL 2
REMARK VINA RESULT:    -3.418      1.807      3.573
REMARK INTER + INTRA:          -3.760
REMARK INTER:                  -3.708
REMARK INTRA:                  -0.052
REMARK UNBOUND:                -0.042
REMARK  Name = 
REMARK  3 active torsions:
REMARK  status: ('A' for Active; 'I' for Inactive)
REMARK    1  A    between atoms: C_1  and  O_2
REMARK    2  A    between atoms: O_2  and  C_3
REMARK    3  A    between atoms: C_8  and  O_9
REMARK                            x       y       z     vdW  Elec       q    Type
REMARK                         _______ _______ _______ _____ _____    ______ ____
ROOT
ATOM      1  C   UNL     1     -16.836 -19.145  -3.346  0.00  0.00    +0.000 A 
ATOM      2  C   UNL     1     -17.007 -20.247  -4.183  0.00  0.00    +0.000 A 
ATOM      3  C   UNL     1     -16.213 -20.386  -5.328  0.00  0.00    +0.000 A 
ATOM      4  C   UNL     1     -15.247 -19.427  -5.641  0.00  0.00    +0.000 A 
ATOM      5  C   UNL     1     -15.070 -18.324  -4.809  0.00  0.00    +0.000 A 
ATOM      6  C   UNL     1     -15.863 -18.193  -3.676  0.00  0.00    +0.000 A 
ENDROOT
BRANCH   1   8
ATOM      7  C   UNL     1     -18.948 -18.734  -2.338  0.00  0.00    +0.000 C 
ATOM      8  O   UNL     1     -17.540 -18.880  -2.199  0.00  0.00    +0.000 OA
ENDBRANCH   1   8
BRANCH   6   9
ATOM      9  O   UNL     1     -15.670 -17.100  -2.874  0.00  0.00    +0.000 OA
ATOM     10  H   UNL     1     -14.908 -17.336  -2.311  0.00  0.00    +0.000 HD
ENDBRANCH   6   9
TORSDOF 2
ENDMDL
MODEL 3
REMARK VINA RESULT:    -3.337      2.217      3.200
REMARK INTER + INTRA:          -3.671
REMARK INTER:                  -3.619
REMARK INTRA:                  -0.052
REMARK UNBOUND:                -0.042
REMARK  Name = 
REMARK  3 active torsions:
REMARK  status: ('A' for Active; 'I' for Inactive)
REMARK    1  A    between atoms: C_1  and  O_2
REMARK    2  A    between atoms: O_2  and  C_3
REMARK    3  A    between atoms: C_8  and  O_9
REMARK                            x       y       z     vdW  Elec       q    Type
REMARK                         _______ _______ _______ _____ _____    ______ ____
ROOT
ATOM      1  C   UNL     1     -18.029 -19.232  -0.687  0.00  0.00    +0.000 A 
ATOM      2  C   UNL     1     -18.033 -19.798  -1.961  0.00  0.00    +0.000 A 
ATOM      3  C   UNL     1     -17.272 -19.220  -2.986  0.00  0.00    +0.000 A 
ATOM      4  C   UNL     1     -16.507 -18.078  -2.741  0.00  0.00    +0.000 A 
ATOM      5  C   UNL     1     -16.498 -17.507  -1.470  0.00  0.00    +0.000 A 
ATOM      6  C   UNL     1     -17.256 -18.087  -0.461  0.00  0.00    +0.000 A 
ENDROOT
BRANCH   1   8
ATOM      7  C   UNL     1     -18.389 -20.991   0.870  0.00  0.00    +0.000 C 
ATOM      8  O   UNL     1     -18.723 -19.689   0.405  0.00  0.00    +0.000 OA
ENDBRANCH   1   8
BRANCH   6   9
ATOM      9  O   UNL     1     -17.230 -17.508   0.780  0.00  0.00    +0.000 OA
ATOM     10  H   UNL     1     -16.305 -17.221   0.902  0.00  0.00    +0.000 HD
ENDBRANCH   6   9
TORSDOF 2
ENDMDL
MODEL 4
REMARK VINA RESULT:    -3.264      1.679      2.453
REMARK INTER + INTRA:          -3.593
REMARK INTER:                  -3.552
REMARK INTRA:                  -0.040
REMARK UNBOUND:                -0.042
REMARK  Name = 
REMARK  3 active torsions:
REMARK  status: ('A' for Active; 'I' for Inactive)
REMARK    1  A    between atoms: C_1  and  O_2
REMARK    2  A    between atoms: O_2  and  C_3
REMARK    3  A    between atoms: C_8  and  O_9
REMARK                            x       y       z     vdW  Elec       q    Type
REMARK                         _______ _______ _______ _____ _____    ______ ____
ROOT
ATOM      1  C   UNL     1     -17.474 -18.239  -1.382  0.00  0.00    +0.000 A 
ATOM      2  C   UNL     1     -18.382 -18.968  -2.149  0.00  0.00    +0.000 A 
ATOM      3  C   UNL     1     -19.401 -19.696  -1.522  0.00  0.00    +0.000 A 
ATOM      4  C   UNL     1     -19.515 -19.700  -0.131  0.00  0.00    +0.000 A 
ATOM      5  C   UNL     1     -18.612 -18.974   0.642  0.00  0.00    +0.000 A 
ATOM      6  C   UNL     1     -17.605 -18.255   0.012  0.00  0.00    +0.000 A 
ENDROOT
BRANCH   1   8
ATOM      7  C   UNL     1     -15.896 -17.867  -3.120  0.00  0.00    +0.000 C 
ATOM      8  O   UNL     1     -16.432 -17.485  -1.858  0.00  0.00    +0.000 OA
ENDBRANCH   1   8
BRANCH   6   9
ATOM      9  O   UNL     1     -16.729 -17.549   0.793  0.00  0.00    +0.000 OA
ATOM     10  H   UNL     1     -16.517 -16.751   0.271  0.00  0.00    +0.000 HD
ENDBRANCH   6   9
TORSDOF 2
ENDMDL
MODEL 5
REMARK VINA RESULT:    -2.968      1.192      2.332
REMARK INTER + INTRA:          -3.270
REMARK INTER:                  -3.231
REMARK INTRA:                  -0.039
REMARK UNBOUND:                -0.042
REMARK  Name = 
REMARK  3 active torsions:
REMARK  status: ('A' for Active; 'I' for Inactive)
REMARK    1  A    between atoms: C_1  and  O_2
REMARK    2  A    between atoms: O_2  and  C_3
REMARK    3  A    between atoms: C_8  and  O_9
REMARK                            x       y       z     vdW  Elec       q    Type
REMARK                         _______ _______ _______ _____ _____    ______ ____
ROOT
ATOM      1  C   UNL     1     -17.251 -18.931  -2.754  0.00  0.00    +0.000 A 
ATOM      2  C   UNL     1     -16.450 -17.880  -2.307  0.00  0.00    +0.000 A 
ATOM      3  C   UNL     1     -16.533 -17.456  -0.975  0.00  0.00    +0.000 A 
ATOM      4  C   UNL     1     -17.413 -18.077  -0.087  0.00  0.00    +0.000 A 
ATOM      5  C   UNL     1     -18.216 -19.127  -0.526  0.00  0.00    +0.000 A 
ATOM      6  C   UNL     1     -18.128 -19.542  -1.849  0.00  0.00    +0.000 A 
ENDROOT
BRANCH   1   8
ATOM      7  C   UNL     1     -16.133 -19.197  -4.834  0.00  0.00    +0.000 C 
ATOM      8  O   UNL     1     -17.275 -19.448  -4.025  0.00  0.00    +0.000 OA
ENDBRANCH   1   8
BRANCH   6   9
ATOM      9  O   UNL     1     -18.927 -20.576  -2.257  0.00  0.00    +0.000 OA
ATOM     10  H   UNL     1     -19.796 -20.392  -1.854  0.00  0.00    +0.000 HD
ENDBRANCH   6   9
TORSDOF 2
ENDMDL
MODEL 6
REMARK VINA RESULT:    -2.946     14.564     15.395
REMARK INTER + INTRA:          -3.247
REMARK INTER:                  -3.207
REMARK INTRA:                  -0.040
REMARK UNBOUND:                -0.042
REMARK  Name = 
REMARK  3 active torsions:
REMARK  status: ('A' for Active; 'I' for Inactive)
REMARK    1  A    between atoms: C_1  and  O_2
REMARK    2  A    between atoms: O_2  and  C_3
REMARK    3  A    between atoms: C_8  and  O_9
REMARK                            x       y       z     vdW  Elec       q    Type
REMARK                         _______ _______ _______ _____ _____    ______ ____
ROOT
ATOM      1  C   UNL     1      -2.693 -19.514   0.943  0.00  0.00    +0.000 A 
ATOM      2  C   UNL     1      -1.565 -20.131   1.482  0.00  0.00    +0.000 A 
ATOM      3  C   UNL     1      -0.391 -20.229   0.724  0.00  0.00    +0.000 A 
ATOM      4  C   UNL     1      -0.341 -19.714  -0.572  0.00  0.00    +0.000 A 
ATOM      5  C   UNL     1      -1.464 -19.096  -1.118  0.00  0.00    +0.000 A 
ATOM      6  C   UNL     1      -2.623 -19.003  -0.359  0.00  0.00    +0.000 A 
ENDROOT
BRANCH   1   8
ATOM      7  C   UNL     1      -4.242 -20.310   2.559  0.00  0.00    +0.000 C 
ATOM      8  O   UNL     1      -3.903 -19.349   1.567  0.00  0.00    +0.000 OA
ENDBRANCH   1   8
BRANCH   6   9
ATOM      9  O   UNL     1      -3.714 -18.391  -0.917  0.00  0.00    +0.000 OA
ATOM     10  H   UNL     1      -3.373 -17.545  -1.264  0.00  0.00    +0.000 HD
ENDBRANCH   6   9
TORSDOF 2
ENDMDL
MODEL 7
REMARK VINA RESULT:    -2.909     18.249     18.993
REMARK INTER + INTRA:          -3.206
REMARK INTER:                  -3.169
REMARK INTRA:                  -0.037
REMARK UNBOUND:                -0.042
REMARK  Name = 
REMARK  3 active torsions:
REMARK  status: ('A' for Active; 'I' for Inactive)
REMARK    1  A    between atoms: C_1  and  O_2
REMARK    2  A    between atoms: O_2  and  C_3
REMARK    3  A    between atoms: C_8  and  O_9
REMARK                            x       y       z     vdW  Elec       q    Type
REMARK                         _______ _______ _______ _____ _____    ______ ____
ROOT
ATOM      1  C   UNL     1      -0.805 -16.794   6.699  0.00  0.00    +0.000 A 
ATOM      2  C   UNL     1       0.038 -15.684   6.727  0.00  0.00    +0.000 A 
ATOM      3  C   UNL     1       0.089 -14.873   7.868  0.00  0.00    +0.000 A 
ATOM      4  C   UNL     1      -0.699 -15.168   8.982  0.00  0.00    +0.000 A 
ATOM      5  C   UNL     1      -1.543 -16.276   8.962  0.00  0.00    +0.000 A 
ATOM      6  C   UNL     1      -1.588 -17.074   7.826  0.00  0.00    +0.000 A 
ENDROOT
BRANCH   1   8
ATOM      7  C   UNL     1      -0.252 -17.361   4.459  0.00  0.00    +0.000 C 
ATOM      8  O   UNL     1      -0.957 -17.671   5.655  0.00  0.00    +0.000 OA
ENDBRANCH   1   8
BRANCH   6   9
ATOM      9  O   UNL     1      -2.426 -18.157   7.830  0.00  0.00    +0.000 OA
ATOM     10  H   UNL     1      -1.832 -18.930   7.769  0.00  0.00    +0.000 HD
ENDBRANCH   6   9
TORSDOF 2
ENDMDL
MODEL 8
REMARK VINA RESULT:    -2.893     16.632     17.476
REMARK INTER + INTRA:          -3.189
REMARK INTER:                  -3.139
REMARK INTRA:                  -0.050
REMARK UNBOUND:                -0.042
REMARK  Name = 
REMARK  3 active torsions:
REMARK  status: ('A' for Active; 'I' for Inactive)
REMARK    1  A    between atoms: C_1  and  O_2
REMARK    2  A    between atoms: O_2  and  C_3
REMARK    3  A    between atoms: C_8  and  O_9
REMARK                            x       y       z     vdW  Elec       q    Type
REMARK                         _______ _______ _______ _____ _____    ______ ____
ROOT
ATOM      1  C   UNL     1      -1.400 -18.523   5.106  0.00  0.00    +0.000 A 
ATOM      2  C   UNL     1      -1.743 -19.313   6.201  0.00  0.00    +0.000 A 
ATOM      3  C   UNL     1      -1.740 -18.763   7.489  0.00  0.00    +0.000 A 
ATOM      4  C   UNL     1      -1.394 -17.425   7.687  0.00  0.00    +0.000 A 
ATOM      5  C   UNL     1      -1.050 -16.629   6.597  0.00  0.00    +0.000 A 
ATOM      6  C   UNL     1      -1.056 -17.183   5.323  0.00  0.00    +0.000 A 
ENDROOT
BRANCH   1   8
ATOM      7  C   UNL     1      -2.612 -19.174   3.168  0.00  0.00    +0.000 C 
ATOM      8  O   UNL     1      -1.359 -18.926   3.795  0.00  0.00    +0.000 OA
ENDBRANCH   1   8
BRANCH   6   9
ATOM      9  O   UNL     1      -0.714 -16.380   4.268  0.00  0.00    +0.000 OA
ATOM     10  H   UNL     1       0.170 -16.034   4.495  0.00  0.00    +0.000 HD
ENDBRANCH   6   9
TORSDOF 2
ENDMDL
