MODEL 1
REMARK VINA RESULT:    -4.304      0.000      0.000
REMARK INTER + INTRA:          -4.718
REMARK INTER:                  -4.681
REMARK INTRA:                  -0.037
REMARK UNBOUND:                -0.037
REMARK  Name = 
REMARK  3 active torsions:
REMARK  status: ('A' for Active; 'I' for Inactive)
REMARK    1  A    between atoms: C_1  and  O_2
REMARK    2  A    between atoms: O_2  and  C_3
REMARK    3  A    between atoms: C_8  and  O_9
REMARK                            x       y       z     vdW  Elec       q    Type
REMARK                         _______ _______ _______ _____ _____    ______ ____
ROOT
ATOM      1  C   UNL     1      -1.852  18.782  13.205  0.00  0.00    +0.000 A 
ATOM      2  C   UNL     1      -2.593  18.441  14.336  0.00  0.00    +0.000 A 
ATOM      3  C   UNL     1      -3.538  17.409  14.268  0.00  0.00    +0.000 A 
ATOM      4  C   UNL     1      -3.745  16.716  13.074  0.00  0.00    +0.000 A 
ATOM      5  C   UNL     1      -3.008  17.050  11.940  0.00  0.00    +0.000 A 
ATOM      6  C   UNL     1      -2.074  18.075  12.016  0.00  0.00    +0.000 A 
ENDROOT
BRANCH   1   8
ATOM      7  C   UNL     1      -0.584  20.442  14.337  0.00  0.00    +0.000 C 
ATOM      8  O   UNL     1      -0.899  19.765  13.126  0.00  0.00    +0.000 OA
ENDBRANCH   1   8
BRANCH   6   9
ATOM      9  O   UNL     1      -1.361  18.386  10.889  0.00  0.00    +0.000 OA
ATOM     10  H   UNL     1      -0.939  17.547  10.623  0.00  0.00    +0.000 HD
ENDBRANCH   6   9
TORSDOF 2
ENDMDL
MODEL 2
REMARK VINA RESULT:    -3.158      1.322      2.601
REMARK INTER + INTRA:          -3.472
REMARK INTER:                  -3.426
REMARK INTRA:                  -0.047
REMARK UNBOUND:                -0.037
REMARK  Name = 
REMARK  3 active torsions:
REMARK  status: ('A' for Active; 'I' for Inactive)
REMARK    1  A    between atoms: C_1  and  O_2
REMARK    2  A    between atoms: O_2  and  C_3
REMARK    3  A    between atoms: C_8  and  O_9
REMARK                            x       y       z     vdW  Elec       q    Type
REMARK                         _______ _______ _______ _____ _____    ______ ____
ROOT
ATOM      1  C   UNL     1      -1.235  18.238  12.317  0.00  0.00    +0.000 A 
ATOM      2  C   UNL     1      -2.253  17.452  11.780  0.00  0.00    +0.000 A 
ATOM      3  C   UNL     1      -3.420  17.218  12.518  0.00  0.00    +0.000 A 
ATOM      4  C   UNL     1      -3.573  17.766  13.793  0.00  0.00    +0.000 A 
ATOM      5  C   UNL     1      -2.560  18.552  14.337  0.00  0.00    +0.000 A 
ATOM      6  C   UNL     1      -1.406  18.779  13.598  0.00  0.00    +0.000 A 
ENDROOT
BRANCH   1   8
ATOM      7  C   UNL     1       0.913  17.500  11.619  0.00  0.00    +0.000 C 
ATOM      8  O   UNL     1      -0.044  18.548  11.711  0.00  0.00    +0.000 OA
ENDBRANCH   1   8
BRANCH   6   9
ATOM      9  O   UNL     1      -0.424  19.555  14.153  0.00  0.00    +0.000 OA
ATOM     10  H   UNL     1       0.201  18.919  14.549  0.00  0.00    +0.000 HD
ENDBRANCH   6   9
TORSDOF 2
ENDMDL
MODEL 3
REMARK VINA RESULT:    -2.679     11.166     12.120
REMARK INTER + INTRA:          -2.951
REMARK INTER:                  -2.913
REMARK INTRA:                  -0.038
REMARK UNBOUND:                -0.037
REMARK  Name = 
REMARK  3 active torsions:
REMARK  status: ('A' for Active; 'I' for Inactive)
REMARK    1  A    between atoms: C_1  and  O_2
REMARK    2  A    between atoms: O_2  and  C_3
REMARK    3  A    between atoms: C_8  and  O_9
REMARK                            x       y       z     vdW  Elec       q    Type
REMARK                         _______ _______ _______ _____ _____    ______ ____
ROOT
ATOM      1  C   UNL     1     -13.711  18.963  11.316  0.00  0.00    +0.000 A 
ATOM      2  C   UNL     1     -15.022  19.398  11.126  0.00  0.00    +0.000 A 
ATOM      3  C   UNL     1     -16.047  18.909  11.945  0.00  0.00    +0.000 A 
ATOM      4  C   UNL     1     -15.768  17.986  12.954  0.00  0.00    +0.000 A 
ATOM      5  C   UNL     1     -14.460  17.547  13.151  0.00  0.00    +0.000 A 
ATOM      6  C   UNL     1     -13.450  18.037  12.334  0.00  0.00    +0.000 A 
ENDROOT
BRANCH   1   8
ATOM      7  C   UNL     1     -12.868  20.079   9.395  0.00  0.00    +0.000 C 
ATOM      8  O   UNL     1     -12.613  19.354  10.593  0.00  0.00    +0.000 OA
ENDBRANCH   1   8
BRANCH   6   9
ATOM      9  O   UNL     1     -12.173  17.590  12.547  0.00  0.00    +0.000 OA
ATOM     10  H   UNL     1     -12.071  16.831  11.941  0.00  0.00    +0.000 HD
ENDBRANCH   6   9
TORSDOF 2
ENDMDL
MODEL 4
REMARK VINA RESULT:    -2.670     25.007     26.067
REMARK INTER + INTRA:          -2.942
REMARK INTER:                  -2.889
REMARK INTRA:                  -0.053
REMARK UNBOUND:                -0.037
REMARK  Name = 
REMARK  3 active torsions:
REMARK  status: ('A' for Active; 'I' for Inactive)
REMARK    1  A    between atoms: C_1  and  O_2
REMARK    2  A    between atoms: O_2  and  C_3
REMARK    3  A    between atoms: C_8  and  O_9
REMARK                            x       y       z     vdW  Elec       q    Type
REMARK                         _______ _______ _______ _____ _____    ______ ____
ROOT
ATOM      1  C   UNL     1     -19.886   0.247   6.063  0.00  0.00    +0.000 A 
ATOM      2  C   UNL     1     -20.137   0.055   4.705  0.00  0.00    +0.000 A 
ATOM      3  C   UNL     1     -20.429   1.152   3.885  0.00  0.00    +0.000 A 
ATOM      4  C   UNL     1     -20.472   2.442   4.418  0.00  0.00    +0.000 A 
ATOM      5  C   UNL     1     -20.222   2.642   5.774  0.00  0.00    +0.000 A 
ATOM      6  C   UNL     1     -19.934   1.547   6.579  0.00  0.00    +0.000 A 
ENDROOT
BRANCH   1   8
ATOM      7  C   UNL     1     -18.346  -1.400   6.812  0.00  0.00    +0.000 C 
ATOM      8  O   UNL     1     -19.590  -0.731   6.979  0.00  0.00    +0.000 OA
ENDBRANCH   1   8
BRANCH   6   9
ATOM      9  O   UNL     1     -19.692   1.769   7.909  0.00  0.00    +0.000 OA
ATOM     10  H   UNL     1     -19.109   1.035   8.181  0.00  0.00    +0.000 HD
ENDBRANCH   6   9
TORSDOF 2
ENDMDL
MODEL 5
REMARK VINA RESULT:    -2.665     11.457     12.521
REMARK INTER + INTRA:          -2.936
REMARK INTER:                  -2.899
REMARK INTRA:                  -0.037
REMARK UNBOUND:                -0.037
REMARK  Name = 
REMARK  3 active torsions:
REMARK  status: ('A' for Active; 'I' for Inactive)
REMARK    1  A    between atoms: C_1  and  O_2
REMARK    2  A    between atoms: O_2  and  C_3
REMARK    3  A    between atoms: C_8  and  O_9
REMARK                            x       y       z     vdW  Elec       q    Type
REMARK                         _______ _______ _______ _____ _____    ______ ____
ROOT
ATOM      1  C   UNL     1     -14.547  18.228  12.319  0.00  0.00    +0.000 A 
ATOM      2  C   UNL     1     -15.537  18.951  11.657  0.00  0.00    +0.000 A 
ATOM      3  C   UNL     1     -15.188  19.842  10.635  0.00  0.00    +0.000 A 
ATOM      4  C   UNL     1     -13.851  20.014  10.272  0.00  0.00    +0.000 A 
ATOM      5  C   UNL     1     -12.855  19.295  10.929  0.00  0.00    +0.000 A 
ATOM      6  C   UNL     1     -13.211  18.413  11.942  0.00  0.00    +0.000 A 
ENDROOT
BRANCH   1   8
ATOM      7  C   UNL     1     -16.092  17.072  13.706  0.00  0.00    +0.000 C 
ATOM      8  O   UNL     1     -14.742  17.326  13.334  0.00  0.00    +0.000 OA
ENDBRANCH   1   8
BRANCH   6   9
ATOM      9  O   UNL     1     -12.215  17.717  12.573  0.00  0.00    +0.000 OA
ATOM     10  H   UNL     1     -12.662  17.252  13.305  0.00  0.00    +0.000 HD
ENDBRANCH   6   9
TORSDOF 2
ENDMDL
MODEL 6
REMARK VINA RESULT:    -2.595     11.648     12.535
REMARK INTER + INTRA:          -2.859
REMARK INTER:                  -2.818
REMARK INTRA:                  -0.041
REMARK UNBOUND:                -0.037
REMARK  Name = 
REMARK  3 active torsions:
REMARK  status: ('A' for Active; 'I' for Inactive)
REMARK    1  A    between atoms: C_1  and  O_2
REMARK    2  A    between atoms: O_2  and  C_3
REMARK    3  A    between atoms: C_8  and  O_9
REMARK                            x       y       z     vdW  Elec       q    Type
REMARK                         _______ _______ _______ _____ _____    ______ ____
ROOT
ATOM      1  C   UNL     1     -13.532  19.670  10.811  0.00  0.00    +0.000 A 
ATOM      2  C   UNL     1     -12.583  19.794   9.797  0.00  0.00    +0.000 A 
ATOM      3  C   UNL     1     -12.980  20.179   8.510  0.00  0.00    +0.000 A 
ATOM      4  C   UNL     1     -14.323  20.442   8.233  0.00  0.00    +0.000 A 
ATOM      5  C   UNL     1     -15.276  20.321   9.241  0.00  0.00    +0.000 A 
ATOM      6  C   UNL     1     -14.874  19.938  10.514  0.00  0.00    +0.000 A 
ENDROOT
BRANCH   1   8
ATOM      7  C   UNL     1     -13.029  17.923  12.341  0.00  0.00    +0.000 C 
ATOM      8  O   UNL     1     -13.287  19.302  12.110  0.00  0.00    +0.000 OA
ENDBRANCH   1   8
BRANCH   6   9
ATOM      9  O   UNL     1     -15.829  19.826  11.488  0.00  0.00    +0.000 OA
ATOM     10  H   UNL     1     -15.928  18.865  11.631  0.00  0.00    +0.000 HD
ENDBRANCH   6   9
TORSDOF 2
ENDMDL
MODEL 7
REMARK VINA RESULT:    -2.583     25.814     27.169
REMARK INTER + INTRA:          -2.846
REMARK INTER:                  -2.796
REMARK INTRA:                  -0.051
REMARK UNBOUND:                -0.037
REMARK  Name = 
REMARK  3 active torsions:
REMARK  status: ('A' for Active; 'I' for Inactive)
REMARK    1  A    between atoms: C_1  and  O_2
REMARK    2  A    between atoms: O_2  and  C_3
REMARK    3  A    between atoms: C_8  and  O_9
REMARK                            x       y       z     vdW  Elec       q    Type
REMARK                         _______ _______ _______ _____ _____    ______ ____
ROOT
ATOM      1  C   UNL     1     -20.222   0.762   3.120  0.00  0.00    +0.000 A 
ATOM      2  C   UNL     1     -21.205   0.469   4.064  0.00  0.00    +0.000 A 
ATOM      3  C   UNL     1     -21.172  -0.749   4.755  0.00  0.00    +0.000 A 
ATOM      4  C   UNL     1     -20.159  -1.676   4.505  0.00  0.00    +0.000 A 
ATOM      5  C   UNL     1     -19.172  -1.391   3.564  0.00  0.00    +0.000 A 
ATOM      6  C   UNL     1     -19.214  -0.181   2.883  0.00  0.00    +0.000 A 
ENDROOT
BRANCH   1   8
ATOM      7  C   UNL     1     -20.083   3.134   3.093  0.00  0.00    +0.000 C 
ATOM      8  O   UNL     1     -20.131   1.908   2.372  0.00  0.00    +0.000 OA
ENDBRANCH   1   8
BRANCH   6   9
ATOM      9  O   UNL     1     -18.233   0.077   1.963  0.00  0.00    +0.000 OA
ATOM     10  H   UNL     1     -17.971  -0.802   1.626  0.00  0.00    +0.000 HD
ENDBRANCH   6   9
TORSDOF 2
ENDMDL
MODEL 8
REMARK VINA RESULT:    -2.487     11.661     12.672
REMARK INTER + INTRA:          -2.742
REMARK INTER:                  -2.695
REMARK INTRA:                  -0.047
REMARK UNBOUND:                -0.037
REMARK  Name = 
REMARK  3 active torsions:
REMARK  status: ('A' for Active; 'I' for Inactive)
REMARK    1  A    between atoms: C_1  and  O_2
REMARK    2  A    between atoms: O_2  and  C_3
REMARK    3  A    between atoms: C_8  and  O_9
REMARK                            x       y       z     vdW  Elec       q    Type
REMARK                         _______ _______ _______ _____ _____    ______ ____
ROOT
ATOM      1  C   UNL     1     -14.824  19.547  10.865  0.00  0.00    +0.000 A 
ATOM      2  C   UNL     1     -15.715  18.915  11.731  0.00  0.00    +0.000 A 
ATOM      3  C   UNL     1     -15.233  18.048  12.719  0.00  0.00    +0.000 A 
ATOM      4  C   UNL     1     -13.863  17.808  12.844  0.00  0.00    +0.000 A 
ATOM      5  C   UNL     1     -12.967  18.437  11.983  0.00  0.00    +0.000 A 
ATOM      6  C   UNL     1     -13.454  19.295  11.005  0.00  0.00    +0.000 A 
ENDROOT
BRANCH   1   8
ATOM      7  C   UNL     1     -16.209  20.015   8.991  0.00  0.00    +0.000 C 
ATOM      8  O   UNL     1     -15.153  20.417   9.855  0.00  0.00    +0.000 OA
ENDBRANCH   1   8
BRANCH   6   9
ATOM      9  O   UNL     1     -12.553  19.901  10.170  0.00  0.00    +0.000 OA
ATOM     10  H   UNL     1     -12.458  20.806  10.522  0.00  0.00    +0.000 HD
ENDBRANCH   6   9
TORSDOF 2
ENDMDL
