MODEL 1
REMARK VINA RESULT:    -4.513      0.000      0.000
REMARK INTER + INTRA:          -6.235
REMARK INTER:                  -6.096
REMARK INTRA:                  -0.140
REMARK UNBOUND:                -0.140
REMARK  Name = 
REMARK  10 active torsions:
REMARK  status: ('A' for Active; 'I' for Inactive)
REMARK    1  A    between atoms: C_1  and  C_2
REMARK    2  A    between atoms: C_5  and  N_8
REMARK    3  A    between atoms: N_8  and  C_9
REMARK    4  A    between atoms: N_8  and  C_13
REMARK    5  A    between atoms: C_9  and  C_10
REMARK    6  A    between atoms: C_10  and  C_11
REMARK    7  A    between atoms: C_10  and  O_12
REMARK    8  A    between atoms: C_13  and  C_14
REMARK    9  A    between atoms: C_14  and  C_15
REMARK   10  A    between atoms: C_14  and  O_16
REMARK                            x       y       z     vdW  Elec       q    Type
REMARK                         _______ _______ _______ _____ _____    ______ ____
ROOT
ATOM      1  N   UNL     1       9.619  15.576 -19.327  0.00  0.00    +0.000 N 
ENDROOT
BRANCH   1   6
ATOM      2  C   UNL     1       4.183  17.328 -20.167  0.00  0.00    +0.000 C 
ATOM      3  C   UNL     1       5.592  16.880 -19.925  0.00  0.00    +0.000 A 
ATOM      4  C   UNL     1       6.662  17.744 -20.133  0.00  0.00    +0.000 A 
ATOM      5  C   UNL     1       7.983  17.310 -19.934  0.00  0.00    +0.000 A 
ATOM      6  C   UNL     1       8.301  15.997 -19.543  0.00  0.00    +0.000 A 
ATOM      7  C   UNL     1       7.195  15.151 -19.340  0.00  0.00    +0.000 A 
ATOM      8  C   UNL     1       5.869  15.574 -19.534  0.00  0.00    +0.000 A 
ENDBRANCH   1   6
BRANCH   1   9
ATOM      9  C   UNL     1      10.179  15.560 -17.954  0.00  0.00    +0.000 C 
BRANCH   9  10
ATOM     10  C   UNL     1      10.355  14.127 -17.394  0.00  0.00    +0.000 C 
ATOM     11  C   UNL     1      10.820  14.163 -15.943  0.00  0.00    +0.000 C 
BRANCH  10  12
ATOM     12  O   UNL     1       9.120  13.399 -17.447  0.00  0.00    +0.000 OA
ATOM     13  H   UNL     1       9.089  12.919 -18.291  0.00  0.00    +0.000 HD
ENDBRANCH  10  12
ENDBRANCH   9  10
ENDBRANCH   1   9
BRANCH   1  14
ATOM     14  C   UNL     1      10.631  15.628 -20.414  0.00  0.00    +0.000 C 
BRANCH  14  15
ATOM     15  C   UNL     1      10.753  14.280 -21.164  0.00  0.00    +0.000 C 
ATOM     16  C   UNL     1      11.661  13.281 -20.457  0.00  0.00    +0.000 C 
BRANCH  15  17
ATOM     17  O   UNL     1       9.480  13.665 -21.353  0.00  0.00    +0.000 OA
ATOM     18  H   UNL     1       8.839  14.403 -21.346  0.00  0.00    +0.000 HD
ENDBRANCH  15  17
ENDBRANCH  14  15
ENDBRANCH   1  14
TORSDOF 7
ENDMDL
MODEL 2
REMARK VINA RESULT:    -4.422      3.143      6.428
REMARK INTER + INTRA:          -6.113
REMARK INTER:                  -5.535
REMARK INTRA:                  -0.578
REMARK UNBOUND:                -0.140
REMARK  Name = 
REMARK  10 active torsions:
REMARK  status: ('A' for Active; 'I' for Inactive)
REMARK    1  A    between atoms: C_1  and  C_2
REMARK    2  A    between atoms: C_5  and  N_8
REMARK    3  A    between atoms: N_8  and  C_9
REMARK    4  A    between atoms: N_8  and  C_13
REMARK    5  A    between atoms: C_9  and  C_10
REMARK    6  A    between atoms: C_10  and  C_11
REMARK    7  A    between atoms: C_10  and  O_12
REMARK    8  A    between atoms: C_13  and  C_14
REMARK    9  A    between atoms: C_14  and  C_15
REMARK   10  A    between atoms: C_14  and  O_16
REMARK                            x       y       z     vdW  Elec       q    Type
REMARK                         _______ _______ _______ _____ _____    ______ ____
ROOT
ATOM      1  N   UNL     1      11.439  15.347 -18.793  0.00  0.00    +0.000 N 
ENDROOT
BRANCH   1   6
ATOM      2  C   UNL     1      16.824  16.106 -16.855  0.00  0.00    +0.000 C 
ATOM      3  C   UNL     1      15.423  15.934 -17.359  0.00  0.00    +0.000 A 
ATOM      4  C   UNL     1      14.355  15.824 -16.476  0.00  0.00    +0.000 A 
ATOM      5  C   UNL     1      13.048  15.633 -16.953  0.00  0.00    +0.000 A 
ATOM      6  C   UNL     1      12.747  15.519 -18.322  0.00  0.00    +0.000 A 
ATOM      7  C   UNL     1      13.851  15.637 -19.186  0.00  0.00    +0.000 A 
ATOM      8  C   UNL     1      15.163  15.830 -18.722  0.00  0.00    +0.000 A 
ENDBRANCH   1   6
BRANCH   1   9
ATOM      9  C   UNL     1      11.114  15.637 -20.210  0.00  0.00    +0.000 C 
BRANCH   9  10
ATOM     10  C   UNL     1      10.684  14.374 -20.997  0.00  0.00    +0.000 C 
ATOM     11  C   UNL     1      11.484  13.156 -20.552  0.00  0.00    +0.000 C 
BRANCH  10  12
ATOM     12  O   UNL     1       9.293  14.091 -20.794  0.00  0.00    +0.000 OA
ATOM     13  H   UNL     1       8.912  13.823 -21.647  0.00  0.00    +0.000 HD
ENDBRANCH  10  12
ENDBRANCH   9  10
ENDBRANCH   1   9
BRANCH   1  14
ATOM     14  C   UNL     1      10.278  15.384 -17.867  0.00  0.00    +0.000 C 
BRANCH  14  15
ATOM     15  C   UNL     1       9.907  13.977 -17.338  0.00  0.00    +0.000 C 
ATOM     16  C   UNL     1      10.130  13.822 -15.839  0.00  0.00    +0.000 C 
BRANCH  15  17
ATOM     17  O   UNL     1       8.547  13.651 -17.619  0.00  0.00    +0.000 OA
ATOM     18  H   UNL     1       8.046  13.965 -16.839  0.00  0.00    +0.000 HD
ENDBRANCH  15  17
ENDBRANCH  14  15
ENDBRANCH   1  14
TORSDOF 7
ENDMDL
MODEL 3
REMARK VINA RESULT:    -4.299      3.217      5.989
REMARK INTER + INTRA:          -5.947
REMARK INTER:                  -5.296
REMARK INTRA:                  -0.651
REMARK UNBOUND:                -0.140
REMARK  Name = 
REMARK  10 active torsions:
REMARK  status: ('A' for Active; 'I' for Inactive)
REMARK    1  A    between atoms: C_1  and  C_2
REMARK    2  A    between atoms: C_5  and  N_8
REMARK    3  A    between atoms: N_8  and  C_9
REMARK    4  A    between atoms: N_8  and  C_13
REMARK    5  A    between atoms: C_9  and  C_10
REMARK    6  A    between atoms: C_10  and  C_11
REMARK    7  A    between atoms: C_10  and  O_12
REMARK    8  A    between atoms: C_13  and  C_14
REMARK    9  A    between atoms: C_14  and  C_15
REMARK   10  A    between atoms: C_14  and  O_16
REMARK                            x       y       z     vdW  Elec       q    Type
REMARK                         _______ _______ _______ _____ _____    ______ ____
ROOT
ATOM      1  N   UNL     1      11.679  15.212 -18.754  0.00  0.00    +0.000 N 
ENDROOT
BRANCH   1   6
ATOM      2  C   UNL     1      16.971  16.375 -16.760  0.00  0.00    +0.000 C 
ATOM      3  C   UNL     1      15.602  16.049 -17.275  0.00  0.00    +0.000 A 
ATOM      4  C   UNL     1      15.365  15.917 -18.639  0.00  0.00    +0.000 A 
ATOM      5  C   UNL     1      14.074  15.641 -19.118  0.00  0.00    +0.000 A 
ATOM      6  C   UNL     1      12.960  15.507 -18.270  0.00  0.00    +0.000 A 
ATOM      7  C   UNL     1      13.237  15.645 -16.898  0.00  0.00    +0.000 A 
ATOM      8  C   UNL     1      14.524  15.919 -16.405  0.00  0.00    +0.000 A 
ENDBRANCH   1   6
BRANCH   1   9
ATOM      9  C   UNL     1      10.494  15.405 -17.884  0.00  0.00    +0.000 C 
BRANCH   9  10
ATOM     10  C   UNL     1       9.807  14.071 -17.501  0.00  0.00    +0.000 C 
ATOM     11  C   UNL     1       9.993  13.768 -16.019  0.00  0.00    +0.000 C 
BRANCH  10  12
ATOM     12  O   UNL     1       8.399  14.121 -17.771  0.00  0.00    +0.000 OA
ATOM     13  H   UNL     1       8.276  14.086 -18.734  0.00  0.00    +0.000 HD
ENDBRANCH  10  12
ENDBRANCH   9  10
ENDBRANCH   1   9
BRANCH   1  14
ATOM     14  C   UNL     1      11.481  14.260 -19.877  0.00  0.00    +0.000 C 
BRANCH  14  15
ATOM     15  C   UNL     1      10.507  14.812 -20.945  0.00  0.00    +0.000 C 
ATOM     16  C   UNL     1      11.051  14.707 -22.365  0.00  0.00    +0.000 C 
BRANCH  15  17
ATOM     17  O   UNL     1       9.247  14.143 -20.905  0.00  0.00    +0.000 OA
ATOM     18  H   UNL     1       9.330  13.408 -21.545  0.00  0.00    +0.000 HD
ENDBRANCH  15  17
ENDBRANCH  14  15
ENDBRANCH   1  14
TORSDOF 7
ENDMDL
MODEL 4
REMARK VINA RESULT:    -4.184     17.744     19.406
REMARK INTER + INTRA:          -5.792
REMARK INTER:                  -5.100
REMARK INTRA:                  -0.692
REMARK UNBOUND:                -0.140
REMARK  Name = 
REMARK  10 active torsions:
REMARK  status: ('A' for Active; 'I' for Inactive)
REMARK    1  A    between atoms: C_1  and  C_2
REMARK    2  A    between atoms: C_5  and  N_8
REMARK    3  A    between atoms: N_8  and  C_9
REMARK    4  A    between atoms: N_8  and  C_13
REMARK    5  A    between atoms: C_9  and  C_10
REMARK    6  A    between atoms: C_10  and  C_11
REMARK    7  A    between atoms: C_10  and  O_12
REMARK    8  A    between atoms: C_13  and  C_14
REMARK    9  A    between atoms: C_14  and  C_15
REMARK   10  A    between atoms: C_14  and  O_16
REMARK                            x       y       z     vdW  Elec       q    Type
REMARK                         _______ _______ _______ _____ _____    ______ ____
ROOT
ATOM      1  N   UNL     1       0.311  16.968  -2.387  0.00  0.00    +0.000 N 
ENDROOT
BRANCH   1   6
ATOM      2  C   UNL     1      -1.996  12.098  -0.318  0.00  0.00    +0.000 C 
ATOM      3  C   UNL     1      -1.413  13.361  -0.874  0.00  0.00    +0.000 A 
ATOM      4  C   UNL     1      -0.328  13.325  -1.742  0.00  0.00    +0.000 A 
ATOM      5  C   UNL     1       0.233  14.513  -2.237  0.00  0.00    +0.000 A 
ATOM      6  C   UNL     1      -0.241  15.787  -1.875  0.00  0.00    +0.000 A 
ATOM      7  C   UNL     1      -1.340  15.786  -0.997  0.00  0.00    +0.000 A 
ATOM      8  C   UNL     1      -1.912  14.604  -0.497  0.00  0.00    +0.000 A 
ENDBRANCH   1   6
BRANCH   1   9
ATOM      9  C   UNL     1       1.150  17.833  -1.523  0.00  0.00    +0.000 C 
BRANCH   9  10
ATOM     10  C   UNL     1       2.664  17.552  -1.681  0.00  0.00    +0.000 C 
ATOM     11  C   UNL     1       3.119  16.458  -0.723  0.00  0.00    +0.000 C 
BRANCH  10  12
ATOM     12  O   UNL     1       2.972  17.129  -3.017  0.00  0.00    +0.000 OA
ATOM     13  H   UNL     1       2.260  16.540  -3.318  0.00  0.00    +0.000 HD
ENDBRANCH  10  12
ENDBRANCH   9  10
ENDBRANCH   1   9
BRANCH   1  14
ATOM     14  C   UNL     1      -0.292  17.654  -3.559  0.00  0.00    +0.000 C 
BRANCH  14  15
ATOM     15  C   UNL     1      -0.215  16.794  -4.843  0.00  0.00    +0.000 C 
ATOM     16  C   UNL     1      -1.258  17.178  -5.886  0.00  0.00    +0.000 C 
BRANCH  15  17
ATOM     17  O   UNL     1       1.072  16.874  -5.454  0.00  0.00    +0.000 OA
ATOM     18  H   UNL     1       1.428  15.963  -5.415  0.00  0.00    +0.000 HD
ENDBRANCH  15  17
ENDBRANCH  14  15
ENDBRANCH   1  14
TORSDOF 7
ENDMDL
MODEL 5
REMARK VINA RESULT:    -4.126      1.387      5.118
REMARK INTER + INTRA:          -5.713
REMARK INTER:                  -5.133
REMARK INTRA:                  -0.580
REMARK UNBOUND:                -0.140
REMARK  Name = 
REMARK  10 active torsions:
REMARK  status: ('A' for Active; 'I' for Inactive)
REMARK    1  A    between atoms: C_1  and  C_2
REMARK    2  A    between atoms: C_5  and  N_8
REMARK    3  A    between atoms: N_8  and  C_9
REMARK    4  A    between atoms: N_8  and  C_13
REMARK    5  A    between atoms: C_9  and  C_10
REMARK    6  A    between atoms: C_10  and  C_11
REMARK    7  A    between atoms: C_10  and  O_12
REMARK    8  A    between atoms: C_13  and  C_14
REMARK    9  A    between atoms: C_14  and  C_15
REMARK   10  A    between atoms: C_14  and  O_16
REMARK                            x       y       z     vdW  Elec       q    Type
REMARK                         _______ _______ _______ _____ _____    ______ ____
ROOT
ATOM      1  N   UNL     1      10.261  15.560 -19.496  0.00  0.00    +0.000 N 
ENDROOT
BRANCH   1   6
ATOM      2  C   UNL     1      13.346  11.642 -22.405  0.00  0.00    +0.000 C 
ATOM      3  C   UNL     1      12.544  12.643 -21.631  0.00  0.00    +0.000 A 
ATOM      4  C   UNL     1      11.162  12.714 -21.774  0.00  0.00    +0.000 A 
ATOM      5  C   UNL     1      10.418  13.674 -21.068  0.00  0.00    +0.000 A 
ATOM      6  C   UNL     1      11.012  14.618 -20.211  0.00  0.00    +0.000 A 
ATOM      7  C   UNL     1      12.409  14.515 -20.089  0.00  0.00    +0.000 A 
ATOM      8  C   UNL     1      13.165  13.559 -20.787  0.00  0.00    +0.000 A 
ENDBRANCH   1   6
BRANCH   1   9
ATOM      9  C   UNL     1      10.259  15.538 -18.013  0.00  0.00    +0.000 C 
BRANCH   9  10
ATOM     10  C   UNL     1      10.337  14.104 -17.434  0.00  0.00    +0.000 C 
ATOM     11  C   UNL     1      10.750  14.130 -15.967  0.00  0.00    +0.000 C 
BRANCH  10  12
ATOM     12  O   UNL     1       9.068  13.442 -17.526  0.00  0.00    +0.000 OA
ATOM     13  H   UNL     1       8.556  13.659 -16.729  0.00  0.00    +0.000 HD
ENDBRANCH  10  12
ENDBRANCH   9  10
ENDBRANCH   1   9
BRANCH   1  14
ATOM     14  C   UNL     1       9.094  16.241 -20.112  0.00  0.00    +0.000 C 
BRANCH  14  15
ATOM     15  C   UNL     1       7.758  15.825 -19.449  0.00  0.00    +0.000 C 
ATOM     16  C   UNL     1       6.606  16.767 -19.779  0.00  0.00    +0.000 C 
BRANCH  15  17
ATOM     17  O   UNL     1       7.371  14.505 -19.825  0.00  0.00    +0.000 OA
ATOM     18  H   UNL     1       8.137  14.149 -20.320  0.00  0.00    +0.000 HD
ENDBRANCH  15  17
ENDBRANCH  14  15
ENDBRANCH   1  14
TORSDOF 7
ENDMDL
MODEL 6
REMARK VINA RESULT:    -4.101      2.227      5.881
REMARK INTER + INTRA:          -5.679
REMARK INTER:                  -5.178
REMARK INTRA:                  -0.500
REMARK UNBOUND:                -0.140
REMARK  Name = 
REMARK  10 active torsions:
REMARK  status: ('A' for Active; 'I' for Inactive)
REMARK    1  A    between atoms: C_1  and  C_2
REMARK    2  A    between atoms: C_5  and  N_8
REMARK    3  A    between atoms: N_8  and  C_9
REMARK    4  A    between atoms: N_8  and  C_13
REMARK    5  A    between atoms: C_9  and  C_10
REMARK    6  A    between atoms: C_10  and  C_11
REMARK    7  A    between atoms: C_10  and  O_12
REMARK    8  A    between atoms: C_13  and  C_14
REMARK    9  A    between atoms: C_14  and  C_15
REMARK   10  A    between atoms: C_14  and  O_16
REMARK                            x       y       z     vdW  Elec       q    Type
REMARK                         _______ _______ _______ _____ _____    ______ ____
ROOT
ATOM      1  N   UNL     1      11.394  15.004 -19.423  0.00  0.00    +0.000 N 
ENDROOT
BRANCH   1   6
ATOM      2  C   UNL     1      14.239  10.928 -22.359  0.00  0.00    +0.000 C 
ATOM      3  C   UNL     1      13.513  11.979 -21.576  0.00  0.00    +0.000 A 
ATOM      4  C   UNL     1      12.293  11.703 -20.969  0.00  0.00    +0.000 A 
ATOM      5  C   UNL     1      11.602  12.701 -20.262  0.00  0.00    +0.000 A 
ATOM      6  C   UNL     1      12.078  14.019 -20.146  0.00  0.00    +0.000 A 
ATOM      7  C   UNL     1      13.316  14.262 -20.770  0.00  0.00    +0.000 A 
ATOM      8  C   UNL     1      14.018  13.272 -21.478  0.00  0.00    +0.000 A 
ENDBRANCH   1   6
BRANCH   1   9
ATOM      9  C   UNL     1      11.343  14.939 -17.942  0.00  0.00    +0.000 C 
BRANCH   9  10
ATOM     10  C   UNL     1      12.617  15.510 -17.272  0.00  0.00    +0.000 C 
ATOM     11  C   UNL     1      12.600  17.034 -17.279  0.00  0.00    +0.000 C 
BRANCH  10  12
ATOM     12  O   UNL     1      12.722  15.073 -15.910  0.00  0.00    +0.000 OA
ATOM     13  H   UNL     1      12.750  15.861 -15.342  0.00  0.00    +0.000 HD
ENDBRANCH  10  12
ENDBRANCH   9  10
ENDBRANCH   1   9
BRANCH   1  14
ATOM     14  C   UNL     1      10.313  15.806 -20.050  0.00  0.00    +0.000 C 
BRANCH  14  15
ATOM     15  C   UNL     1       8.909  15.380 -19.558  0.00  0.00    +0.000 C 
ATOM     16  C   UNL     1       7.924  16.540 -19.475  0.00  0.00    +0.000 C 
BRANCH  15  17
ATOM     17  O   UNL     1       8.339  14.376 -20.396  0.00  0.00    +0.000 OA
ATOM     18  H   UNL     1       7.844  13.790 -19.789  0.00  0.00    +0.000 HD
ENDBRANCH  15  17
ENDBRANCH  14  15
ENDBRANCH   1  14
TORSDOF 7
ENDMDL
MODEL 7
REMARK VINA RESULT:    -4.100      1.703      3.581
REMARK INTER + INTRA:          -5.678
REMARK INTER:                  -5.277
REMARK INTRA:                  -0.400
REMARK UNBOUND:                -0.140
REMARK  Name = 
REMARK  10 active torsions:
REMARK  status: ('A' for Active; 'I' for Inactive)
REMARK    1  A    between atoms: C_1  and  C_2
REMARK    2  A    between atoms: C_5  and  N_8
REMARK    3  A    between atoms: N_8  and  C_9
REMARK    4  A    between atoms: N_8  and  C_13
REMARK    5  A    between atoms: C_9  and  C_10
REMARK    6  A    between atoms: C_10  and  C_11
REMARK    7  A    between atoms: C_10  and  O_12
REMARK    8  A    between atoms: C_13  and  C_14
REMARK    9  A    between atoms: C_14  and  C_15
REMARK   10  A    between atoms: C_14  and  O_16
REMARK                            x       y       z     vdW  Elec       q    Type
REMARK                         _______ _______ _______ _____ _____    ______ ____
ROOT
ATOM      1  N   UNL     1      10.381  14.967 -18.599  0.00  0.00    +0.000 N 
ENDROOT
BRANCH   1   6
ATOM      2  C   UNL     1       5.141  17.164 -19.620  0.00  0.00    +0.000 C 
ATOM      3  C   UNL     1       6.501  16.585 -19.379  0.00  0.00    +0.000 A 
ATOM      4  C   UNL     1       6.651  15.298 -18.875  0.00  0.00    +0.000 A 
ATOM      5  C   UNL     1       7.928  14.771 -18.622  0.00  0.00    +0.000 A 
ATOM      6  C   UNL     1       9.110  15.505 -18.835  0.00  0.00    +0.000 A 
ATOM      7  C   UNL     1       8.920  16.802 -19.347  0.00  0.00    +0.000 A 
ATOM      8  C   UNL     1       7.649  17.339 -19.606  0.00  0.00    +0.000 A 
ENDBRANCH   1   6
BRANCH   1   9
ATOM      9  C   UNL     1      10.961  13.986 -19.548  0.00  0.00    +0.000 C 
BRANCH   9  10
ATOM     10  C   UNL     1      10.730  14.374 -21.029  0.00  0.00    +0.000 C 
ATOM     11  C   UNL     1      11.992  14.153 -21.853  0.00  0.00    +0.000 C 
BRANCH  10  12
ATOM     12  O   UNL     1       9.677  13.591 -21.608  0.00  0.00    +0.000 OA
ATOM     13  H   UNL     1       9.144  14.175 -22.173  0.00  0.00    +0.000 HD
ENDBRANCH  10  12
ENDBRANCH   9  10
ENDBRANCH   1   9
BRANCH   1  14
ATOM     14  C   UNL     1      10.958  14.928 -17.231  0.00  0.00    +0.000 C 
BRANCH  14  15
ATOM     15  C   UNL     1      12.386  15.521 -17.182  0.00  0.00    +0.000 C 
ATOM     16  C   UNL     1      12.419  17.027 -17.415  0.00  0.00    +0.000 C 
BRANCH  15  17
ATOM     17  O   UNL     1      13.026  15.253 -15.935  0.00  0.00    +0.000 OA
ATOM     18  H   UNL     1      13.683  14.556 -16.133  0.00  0.00    +0.000 HD
ENDBRANCH  15  17
ENDBRANCH  14  15
ENDBRANCH   1  14
TORSDOF 7
ENDMDL
MODEL 8
REMARK VINA RESULT:    -4.012      1.651      2.157
REMARK INTER + INTRA:          -5.560
REMARK INTER:                  -5.039
REMARK INTRA:                  -0.521
REMARK UNBOUND:                -0.140
REMARK  Name = 
REMARK  10 active torsions:
REMARK  status: ('A' for Active; 'I' for Inactive)
REMARK    1  A    between atoms: C_1  and  C_2
REMARK    2  A    between atoms: C_5  and  N_8
REMARK    3  A    between atoms: N_8  and  C_9
REMARK    4  A    between atoms: N_8  and  C_13
REMARK    5  A    between atoms: C_9  and  C_10
REMARK    6  A    between atoms: C_10  and  C_11
REMARK    7  A    between atoms: C_10  and  O_12
REMARK    8  A    between atoms: C_13  and  C_14
REMARK    9  A    between atoms: C_14  and  C_15
REMARK   10  A    between atoms: C_14  and  O_16
REMARK                            x       y       z     vdW  Elec       q    Type
REMARK                         _______ _______ _______ _____ _____    ______ ____
ROOT
ATOM      1  N   UNL     1      10.030  15.344 -18.729  0.00  0.00    +0.000 N 
ENDROOT
BRANCH   1   6
ATOM      2  C   UNL     1       4.651  17.027 -19.980  0.00  0.00    +0.000 C 
ATOM      3  C   UNL     1       6.049  16.582 -19.679  0.00  0.00    +0.000 A 
ATOM      4  C   UNL     1       6.299  15.317 -19.158  0.00  0.00    +0.000 A 
ATOM      5  C   UNL     1       7.610  14.916 -18.849  0.00  0.00    +0.000 A 
ATOM      6  C   UNL     1       8.724  15.758 -19.021  0.00  0.00    +0.000 A 
ATOM      7  C   UNL     1       8.433  17.028 -19.552  0.00  0.00    +0.000 A 
ATOM      8  C   UNL     1       7.128  17.441 -19.867  0.00  0.00    +0.000 A 
ENDBRANCH   1   6
BRANCH   1   9
ATOM      9  C   UNL     1      10.981  16.284 -18.089  0.00  0.00    +0.000 C 
BRANCH   9  10
ATOM     10  C   UNL     1      12.331  15.617 -17.727  0.00  0.00    +0.000 C 
ATOM     11  C   UNL     1      13.498  16.383 -18.339  0.00  0.00    +0.000 C 
BRANCH  10  12
ATOM     12  O   UNL     1      12.522  15.579 -16.306  0.00  0.00    +0.000 OA
ATOM     13  H   UNL     1      11.697  15.870 -15.883  0.00  0.00    +0.000 HD
ENDBRANCH  10  12
ENDBRANCH   9  10
ENDBRANCH   1   9
BRANCH   1  14
ATOM     14  C   UNL     1      10.663  14.220 -19.465  0.00  0.00    +0.000 C 
BRANCH  14  15
ATOM     15  C   UNL     1      10.643  14.439 -20.997  0.00  0.00    +0.000 C 
ATOM     16  C   UNL     1      11.993  14.183 -21.656  0.00  0.00    +0.000 C 
BRANCH  15  17
ATOM     17  O   UNL     1       9.675  13.609 -21.636  0.00  0.00    +0.000 OA
ATOM     18  H   UNL     1       9.419  14.096 -22.445  0.00  0.00    +0.000 HD
ENDBRANCH  15  17
ENDBRANCH  14  15
ENDBRANCH   1  14
TORSDOF 7
ENDMDL
MODEL 9
REMARK VINA RESULT:    -3.980      2.170      6.182
REMARK INTER + INTRA:          -5.516
REMARK INTER:                  -5.315
REMARK INTRA:                  -0.201
REMARK UNBOUND:                -0.140
REMARK  Name = 
REMARK  10 active torsions:
REMARK  status: ('A' for Active; 'I' for Inactive)
REMARK    1  A    between atoms: C_1  and  C_2
REMARK    2  A    between atoms: C_5  and  N_8
REMARK    3  A    between atoms: N_8  and  C_9
REMARK    4  A    between atoms: N_8  and  C_13
REMARK    5  A    between atoms: C_9  and  C_10
REMARK    6  A    between atoms: C_10  and  C_11
REMARK    7  A    between atoms: C_10  and  O_12
REMARK    8  A    between atoms: C_13  and  C_14
REMARK    9  A    between atoms: C_14  and  C_15
REMARK   10  A    between atoms: C_14  and  O_16
REMARK                            x       y       z     vdW  Elec       q    Type
REMARK                         _______ _______ _______ _____ _____    ______ ____
ROOT
ATOM      1  N   UNL     1      11.667  14.992 -19.510  0.00  0.00    +0.000 N 
ENDROOT
BRANCH   1   6
ATOM      2  C   UNL     1      13.816  10.483 -22.404  0.00  0.00    +0.000 C 
ATOM      3  C   UNL     1      13.272  11.646 -21.633  0.00  0.00    +0.000 A 
ATOM      4  C   UNL     1      12.083  11.537 -20.920  0.00  0.00    +0.000 A 
ATOM      5  C   UNL     1      11.562  12.640 -20.224  0.00  0.00    +0.000 A 
ATOM      6  C   UNL     1      12.182  13.902 -20.223  0.00  0.00    +0.000 A 
ATOM      7  C   UNL     1      13.383  13.975 -20.952  0.00  0.00    +0.000 A 
ATOM      8  C   UNL     1      13.917  12.880 -21.651  0.00  0.00    +0.000 A 
ENDBRANCH   1   6
BRANCH   1   9
ATOM      9  C   UNL     1      10.583  15.817 -20.095  0.00  0.00    +0.000 C 
BRANCH   9  10
ATOM     10  C   UNL     1       9.177  15.403 -19.595  0.00  0.00    +0.000 C 
ATOM     11  C   UNL     1       8.251  16.610 -19.511  0.00  0.00    +0.000 C 
BRANCH  10  12
ATOM     12  O   UNL     1       8.579  14.444 -20.477  0.00  0.00    +0.000 OA
ATOM     13  H   UNL     1       7.682  14.257 -20.155  0.00  0.00    +0.000 HD
ENDBRANCH  10  12
ENDBRANCH   9  10
ENDBRANCH   1   9
BRANCH   1  14
ATOM     14  C   UNL     1      12.466  15.667 -18.455  0.00  0.00    +0.000 C 
BRANCH  14  15
ATOM     15  C   UNL     1      11.861  15.464 -17.045  0.00  0.00    +0.000 C 
ATOM     16  C   UNL     1      10.882  14.298 -16.975  0.00  0.00    +0.000 C 
BRANCH  15  17
ATOM     17  O   UNL     1      12.874  15.249 -16.063  0.00  0.00    +0.000 OA
ATOM     18  H   UNL     1      13.314  16.117 -15.960  0.00  0.00    +0.000 HD
ENDBRANCH  15  17
ENDBRANCH  14  15
ENDBRANCH   1  14
TORSDOF 7
ENDMDL
