MODEL 1
REMARK VINA RESULT:    -3.639      0.000      0.000
REMARK INTER + INTRA:          -4.000
REMARK INTER:                  -3.958
REMARK INTRA:                  -0.042
REMARK UNBOUND:                -0.042
REMARK  Name = 
REMARK  3 active torsions:
REMARK  status: ('A' for Active; 'I' for Inactive)
REMARK    1  A    between atoms: C_1  and  O_2
REMARK    2  A    between atoms: O_2  and  C_3
REMARK    3  A    between atoms: C_8  and  O_9
REMARK                            x       y       z     vdW  Elec       q    Type
REMARK                         _______ _______ _______ _____ _____    ______ ____
ROOT
ATOM      1  C   UNL     1     -17.218 -18.964  -2.630  0.00  0.00    +0.000 A 
ATOM      2  C   UNL     1     -18.120 -19.705  -1.869  0.00  0.00    +0.000 A 
ATOM      3  C   UNL     1     -18.367 -19.351  -0.536  0.00  0.00    +0.000 A 
ATOM      4  C   UNL     1     -17.714 -18.260   0.039  0.00  0.00    +0.000 A 
ATOM      5  C   UNL     1     -16.811 -17.514  -0.715  0.00  0.00    +0.000 A 
ATOM      6  C   UNL     1     -16.572 -17.872  -2.036  0.00  0.00    +0.000 A 
ENDROOT
BRANCH   1   8
ATOM      7  C   UNL     1     -16.872 -20.553  -4.363  0.00  0.00    +0.000 C 
ATOM      8  O   UNL     1     -16.880 -19.195  -3.940  0.00  0.00    +0.000 OA
ENDBRANCH   1   8
BRANCH   6   9
ATOM      9  O   UNL     1     -15.680 -17.124  -2.758  0.00  0.00    +0.000 OA
ATOM     10  H   UNL     1     -15.814 -17.403  -3.684  0.00  0.00    +0.000 HD
ENDBRANCH   6   9
TORSDOF 2
ENDMDL
MODEL 2
REMARK VINA RESULT:    -3.433      1.789      3.586
REMARK INTER + INTRA:          -3.776
REMARK INTER:                  -3.728
REMARK INTRA:                  -0.048
REMARK UNBOUND:                -0.042
REMARK  Name = 
REMARK  3 active torsions:
REMARK  status: ('A' for Active; 'I' for Inactive)
REMARK    1  A    between atoms: C_1  and  O_2
REMARK    2  A    between atoms: O_2  and  C_3
REMARK    3  A    between atoms: C_8  and  O_9
REMARK                            x       y       z     vdW  Elec       q    Type
REMARK                         _______ _______ _______ _____ _____    ______ ____
ROOT
ATOM      1  C   UNL     1     -16.821 -19.180  -3.334  0.00  0.00    +0.000 A 
ATOM      2  C   UNL     1     -16.983 -20.286  -4.168  0.00  0.00    +0.000 A 
ATOM      3  C   UNL     1     -16.203 -20.408  -5.325  0.00  0.00    +0.000 A 
ATOM      4  C   UNL     1     -15.263 -19.429  -5.652  0.00  0.00    +0.000 A 
ATOM      5  C   UNL     1     -15.095 -18.323  -4.823  0.00  0.00    +0.000 A 
ATOM      6  C   UNL     1     -15.873 -18.209  -3.678  0.00  0.00    +0.000 A 
ENDROOT
BRANCH   1   8
ATOM      7  C   UNL     1     -18.873 -18.542  -2.320  0.00  0.00    +0.000 C 
ATOM      8  O   UNL     1     -17.513 -18.931  -2.175  0.00  0.00    +0.000 OA
ENDBRANCH   1   8
BRANCH   6   9
ATOM      9  O   UNL     1     -15.691 -17.112  -2.879  0.00  0.00    +0.000 OA
ATOM     10  H   UNL     1     -14.808 -17.239  -2.481  0.00  0.00    +0.000 HD
ENDBRANCH   6   9
TORSDOF 2
ENDMDL
MODEL 3
REMARK VINA RESULT:    -3.421      2.248      3.217
REMARK INTER + INTRA:          -3.763
REMARK INTER:                  -3.711
REMARK INTRA:                  -0.053
REMARK UNBOUND:                -0.042
REMARK  Name = 
REMARK  3 active torsions:
REMARK  status: ('A' for Active; 'I' for Inactive)
REMARK    1  A    between atoms: C_1  and  O_2
REMARK    2  A    between atoms: O_2  and  C_3
REMARK    3  A    between atoms: C_8  and  O_9
REMARK                            x       y       z     vdW  Elec       q    Type
REMARK                         _______ _______ _______ _____ _____    ______ ____
ROOT
ATOM      1  C   UNL     1     -18.030 -19.180  -0.626  0.00  0.00    +0.000 A 
ATOM      2  C   UNL     1     -17.994 -19.642  -1.941  0.00  0.00    +0.000 A 
ATOM      3  C   UNL     1     -17.180 -19.003  -2.885  0.00  0.00    +0.000 A 
ATOM      4  C   UNL     1     -16.402 -17.903  -2.520  0.00  0.00    +0.000 A 
ATOM      5  C   UNL     1     -16.432 -17.436  -1.208  0.00  0.00    +0.000 A 
ATOM      6  C   UNL     1     -17.242 -18.076  -0.278  0.00  0.00    +0.000 A 
ENDROOT
BRANCH   1   8
ATOM      7  C   UNL     1     -18.454 -21.029   0.804  0.00  0.00    +0.000 C 
ATOM      8  O   UNL     1     -18.777 -19.705   0.398  0.00  0.00    +0.000 OA
ENDBRANCH   1   8
BRANCH   6   9
ATOM      9  O   UNL     1     -17.254 -17.598   1.005  0.00  0.00    +0.000 OA
ATOM     10  H   UNL     1     -18.154 -17.788   1.332  0.00  0.00    +0.000 HD
ENDBRANCH   6   9
TORSDOF 2
ENDMDL
MODEL 4
REMARK VINA RESULT:    -3.390      1.770      3.183
REMARK INTER + INTRA:          -3.730
REMARK INTER:                  -3.692
REMARK INTRA:                  -0.038
REMARK UNBOUND:                -0.042
REMARK  Name = 
REMARK  3 active torsions:
REMARK  status: ('A' for Active; 'I' for Inactive)
REMARK    1  A    between atoms: C_1  and  O_2
REMARK    2  A    between atoms: O_2  and  C_3
REMARK    3  A    between atoms: C_8  and  O_9
REMARK                            x       y       z     vdW  Elec       q    Type
REMARK                         _______ _______ _______ _____ _____    ______ ____
ROOT
ATOM      1  C   UNL     1     -17.543 -18.299  -0.928  0.00  0.00    +0.000 A 
ATOM      2  C   UNL     1     -18.270 -19.254  -1.637  0.00  0.00    +0.000 A 
ATOM      3  C   UNL     1     -17.913 -19.570  -2.954  0.00  0.00    +0.000 A 
ATOM      4  C   UNL     1     -16.831 -18.934  -3.565  0.00  0.00    +0.000 A 
ATOM      5  C   UNL     1     -16.099 -17.979  -2.863  0.00  0.00    +0.000 A 
ATOM      6  C   UNL     1     -16.461 -17.671  -1.558  0.00  0.00    +0.000 A 
ENDROOT
BRANCH   1   8
ATOM      7  C   UNL     1     -18.687 -18.681   1.120  0.00  0.00    +0.000 C 
ATOM      8  O   UNL     1     -17.779 -17.892   0.361  0.00  0.00    +0.000 OA
ENDBRANCH   1   8
BRANCH   6   9
ATOM      9  O   UNL     1     -15.727 -16.729  -0.888  0.00  0.00    +0.000 OA
ATOM     10  H   UNL     1     -16.025 -16.795   0.039  0.00  0.00    +0.000 HD
ENDBRANCH   6   9
TORSDOF 2
ENDMDL
MODEL 5
REMARK VINA RESULT:    -3.270      1.627      2.465
REMARK INTER + INTRA:          -3.599
REMARK INTER:                  -3.560
REMARK INTRA:                  -0.039
REMARK UNBOUND:                -0.042
REMARK  Name = 
REMARK  3 active torsions:
REMARK  status: ('A' for Active; 'I' for Inactive)
REMARK    1  A    between atoms: C_1  and  O_2
REMARK    2  A    between atoms: O_2  and  C_3
REMARK    3  A    between atoms: C_8  and  O_9
REMARK                            x       y       z     vdW  Elec       q    Type
REMARK                         _______ _______ _______ _____ _____    ______ ____
ROOT
ATOM      1  C   UNL     1     -17.410 -18.256  -1.417  0.00  0.00    +0.000 A 
ATOM      2  C   UNL     1     -18.262 -19.004  -2.228  0.00  0.00    +0.000 A 
ATOM      3  C   UNL     1     -19.299 -19.749  -1.653  0.00  0.00    +0.000 A 
ATOM      4  C   UNL     1     -19.487 -19.750  -0.270  0.00  0.00    +0.000 A 
ATOM      5  C   UNL     1     -18.640 -19.005   0.547  0.00  0.00    +0.000 A 
ATOM      6  C   UNL     1     -17.614 -18.269  -0.032  0.00  0.00    +0.000 A 
ENDROOT
BRANCH   1   8
ATOM      7  C   UNL     1     -15.812 -17.800  -3.116  0.00  0.00    +0.000 C 
ATOM      8  O   UNL     1     -16.358 -17.484  -1.841  0.00  0.00    +0.000 OA
ENDBRANCH   1   8
BRANCH   6   9
ATOM      9  O   UNL     1     -16.794 -17.544   0.792  0.00  0.00    +0.000 OA
ATOM     10  H   UNL     1     -16.366 -18.209   1.364  0.00  0.00    +0.000 HD
ENDBRANCH   6   9
TORSDOF 2
ENDMDL
MODEL 6
REMARK VINA RESULT:    -2.926      1.380      2.442
REMARK INTER + INTRA:          -3.224
REMARK INTER:                  -3.187
REMARK INTRA:                  -0.037
REMARK UNBOUND:                -0.042
REMARK  Name = 
REMARK  3 active torsions:
REMARK  status: ('A' for Active; 'I' for Inactive)
REMARK    1  A    between atoms: C_1  and  O_2
REMARK    2  A    between atoms: O_2  and  C_3
REMARK    3  A    between atoms: C_8  and  O_9
REMARK                            x       y       z     vdW  Elec       q    Type
REMARK                         _______ _______ _______ _____ _____    ______ ____
ROOT
ATOM      1  C   UNL     1     -16.827 -18.846  -3.329  0.00  0.00    +0.000 A 
ATOM      2  C   UNL     1     -16.130 -17.849  -2.648  0.00  0.00    +0.000 A 
ATOM      3  C   UNL     1     -16.512 -17.493  -1.348  0.00  0.00    +0.000 A 
ATOM      4  C   UNL     1     -17.588 -18.129  -0.727  0.00  0.00    +0.000 A 
ATOM      5  C   UNL     1     -18.289 -19.126  -1.401  0.00  0.00    +0.000 A 
ATOM      6  C   UNL     1     -17.903 -19.473  -2.690  0.00  0.00    +0.000 A 
ENDROOT
BRANCH   1   8
ATOM      7  C   UNL     1     -15.462 -18.697  -5.269  0.00  0.00    +0.000 C 
ATOM      8  O   UNL     1     -16.566 -19.294  -4.599  0.00  0.00    +0.000 OA
ENDBRANCH   1   8
BRANCH   6   9
ATOM      9  O   UNL     1     -18.608 -20.456  -3.332  0.00  0.00    +0.000 OA
ATOM     10  H   UNL     1     -18.121 -21.279  -3.136  0.00  0.00    +0.000 HD
ENDBRANCH   6   9
TORSDOF 2
ENDMDL
MODEL 7
REMARK VINA RESULT:    -2.921     18.250     19.008
REMARK INTER + INTRA:          -3.219
REMARK INTER:                  -3.181
REMARK INTRA:                  -0.038
REMARK UNBOUND:                -0.042
REMARK  Name = 
REMARK  3 active torsions:
REMARK  status: ('A' for Active; 'I' for Inactive)
REMARK    1  A    between atoms: C_1  and  O_2
REMARK    2  A    between atoms: O_2  and  C_3
REMARK    3  A    between atoms: C_8  and  O_9
REMARK                            x       y       z     vdW  Elec       q    Type
REMARK                         _______ _______ _______ _____ _____    ______ ____
ROOT
ATOM      1  C   UNL     1      -0.778 -16.795   6.737  0.00  0.00    +0.000 A 
ATOM      2  C   UNL     1       0.028 -15.659   6.774  0.00  0.00    +0.000 A 
ATOM      3  C   UNL     1       0.051 -14.853   7.920  0.00  0.00    +0.000 A 
ATOM      4  C   UNL     1      -0.731 -15.180   9.029  0.00  0.00    +0.000 A 
ATOM      5  C   UNL     1      -1.539 -16.314   9.001  0.00  0.00    +0.000 A 
ATOM      6  C   UNL     1      -1.555 -17.107   7.860  0.00  0.00    +0.000 A 
ENDROOT
BRANCH   1   8
ATOM      7  C   UNL     1      -0.278 -17.287   4.467  0.00  0.00    +0.000 C 
ATOM      8  O   UNL     1      -0.899 -17.671   5.688  0.00  0.00    +0.000 OA
ENDBRANCH   1   8
BRANCH   6   9
ATOM      9  O   UNL     1      -2.357 -18.217   7.855  0.00  0.00    +0.000 OA
ATOM     10  H   UNL     1      -2.612 -18.343   8.789  0.00  0.00    +0.000 HD
ENDBRANCH   6   9
TORSDOF 2
ENDMDL
MODEL 8
REMARK VINA RESULT:    -2.893     16.605     17.446
REMARK INTER + INTRA:          -3.189
REMARK INTER:                  -3.138
REMARK INTRA:                  -0.051
REMARK UNBOUND:                -0.042
REMARK  Name = 
REMARK  3 active torsions:
REMARK  status: ('A' for Active; 'I' for Inactive)
REMARK    1  A    between atoms: C_1  and  O_2
REMARK    2  A    between atoms: O_2  and  C_3
REMARK    3  A    between atoms: C_8  and  O_9
REMARK                            x       y       z     vdW  Elec       q    Type
REMARK                         _______ _______ _______ _____ _____    ______ ____
ROOT
ATOM      1  C   UNL     1      -1.421 -18.521   5.073  0.00  0.00    +0.000 A 
ATOM      2  C   UNL     1      -1.768 -19.304   6.172  0.00  0.00    +0.000 A 
ATOM      3  C   UNL     1      -1.738 -18.755   7.460  0.00  0.00    +0.000 A 
ATOM      4  C   UNL     1      -1.362 -17.424   7.654  0.00  0.00    +0.000 A 
ATOM      5  C   UNL     1      -1.014 -16.635   6.560  0.00  0.00    +0.000 A 
ATOM      6  C   UNL     1      -1.046 -17.188   5.286  0.00  0.00    +0.000 A 
ENDROOT
BRANCH   1   8
ATOM      7  C   UNL     1      -2.669 -19.164   3.156  0.00  0.00    +0.000 C 
ATOM      8  O   UNL     1      -1.404 -18.925   3.762  0.00  0.00    +0.000 OA
ENDBRANCH   1   8
BRANCH   6   9
ATOM      9  O   UNL     1      -0.700 -16.393   4.227  0.00  0.00    +0.000 OA
ATOM     10  H   UNL     1      -1.463 -16.442   3.620  0.00  0.00    +0.000 HD
ENDBRANCH   6   9
TORSDOF 2
ENDMDL
