MODEL 1
REMARK VINA RESULT:    -4.497      0.000      0.000
REMARK INTER + INTRA:          -6.227
REMARK INTER:                  -6.075
REMARK INTRA:                  -0.152
REMARK UNBOUND:                -0.152
REMARK  Name = 
REMARK  10 active torsions:
REMARK  status: ('A' for Active; 'I' for Inactive)
REMARK    1  A    between atoms: C_1  and  C_2
REMARK    2  A    between atoms: C_5  and  N_8
REMARK    3  A    between atoms: N_8  and  C_9
REMARK    4  A    between atoms: N_8  and  C_13
REMARK    5  A    between atoms: C_9  and  C_10
REMARK    6  A    between atoms: C_10  and  C_11
REMARK    7  A    between atoms: C_10  and  O_12
REMARK    8  A    between atoms: C_13  and  C_14
REMARK    9  A    between atoms: C_14  and  C_15
REMARK   10  A    between atoms: C_14  and  O_16
REMARK                            x       y       z     vdW  Elec       q    Type
REMARK                         _______ _______ _______ _____ _____    ______ ____
ROOT
ATOM      1  N   UNL     1       9.620  15.579 -19.331  0.00  0.00    +0.000 N 
ENDROOT
BRANCH   1   6
ATOM      2  C   UNL     1       4.174  17.297 -20.176  0.00  0.00    +0.000 C 
ATOM      3  C   UNL     1       5.585  16.857 -19.933  0.00  0.00    +0.000 A 
ATOM      4  C   UNL     1       6.648  17.735 -20.117  0.00  0.00    +0.000 A 
ATOM      5  C   UNL     1       7.971  17.309 -19.917  0.00  0.00    +0.000 A 
ATOM      6  C   UNL     1       8.299  15.991 -19.549  0.00  0.00    +0.000 A 
ATOM      7  C   UNL     1       7.200  15.133 -19.369  0.00  0.00    +0.000 A 
ATOM      8  C   UNL     1       5.871  15.546 -19.564  0.00  0.00    +0.000 A 
ENDBRANCH   1   6
BRANCH   1   9
ATOM      9  C   UNL     1      10.178  15.564 -17.958  0.00  0.00    +0.000 C 
BRANCH   9  10
ATOM     10  C   UNL     1      10.354  14.132 -17.396  0.00  0.00    +0.000 C 
ATOM     11  C   UNL     1      10.837  14.168 -15.952  0.00  0.00    +0.000 C 
BRANCH  10  12
ATOM     12  O   UNL     1       9.115  13.410 -17.432  0.00  0.00    +0.000 OA
ATOM     13  H   UNL     1       8.604  13.726 -18.196  0.00  0.00    +0.000 HD
ENDBRANCH  10  12
ENDBRANCH   9  10
ENDBRANCH   1   9
BRANCH   1  14
ATOM     14  C   UNL     1      10.633  15.640 -20.416  0.00  0.00    +0.000 C 
BRANCH  14  15
ATOM     15  C   UNL     1      10.761  14.296 -21.173  0.00  0.00    +0.000 C 
ATOM     16  C   UNL     1      11.713  13.316 -20.498  0.00  0.00    +0.000 C 
BRANCH  15  17
ATOM     17  O   UNL     1       9.496  13.652 -21.321  0.00  0.00    +0.000 OA
ATOM     18  H   UNL     1       9.680  12.700 -21.185  0.00  0.00    +0.000 HD
ENDBRANCH  15  17
ENDBRANCH  14  15
ENDBRANCH   1  14
TORSDOF 7
ENDMDL
MODEL 2
REMARK VINA RESULT:    -4.333      3.227      5.983
REMARK INTER + INTRA:          -6.004
REMARK INTER:                  -5.397
REMARK INTRA:                  -0.608
REMARK UNBOUND:                -0.152
REMARK  Name = 
REMARK  10 active torsions:
REMARK  status: ('A' for Active; 'I' for Inactive)
REMARK    1  A    between atoms: C_1  and  C_2
REMARK    2  A    between atoms: C_5  and  N_8
REMARK    3  A    between atoms: N_8  and  C_9
REMARK    4  A    between atoms: N_8  and  C_13
REMARK    5  A    between atoms: C_9  and  C_10
REMARK    6  A    between atoms: C_10  and  C_11
REMARK    7  A    between atoms: C_10  and  O_12
REMARK    8  A    between atoms: C_13  and  C_14
REMARK    9  A    between atoms: C_14  and  C_15
REMARK   10  A    between atoms: C_14  and  O_16
REMARK                            x       y       z     vdW  Elec       q    Type
REMARK                         _______ _______ _______ _____ _____    ______ ____
ROOT
ATOM      1  N   UNL     1      11.635  15.071 -18.722  0.00  0.00    +0.000 N 
ENDROOT
BRANCH   1   6
ATOM      2  C   UNL     1      16.884  16.470 -16.768  0.00  0.00    +0.000 C 
ATOM      3  C   UNL     1      15.516  16.131 -17.277  0.00  0.00    +0.000 A 
ATOM      4  C   UNL     1      14.457  15.930 -16.399  0.00  0.00    +0.000 A 
ATOM      5  C   UNL     1      13.184  15.584 -16.880  0.00  0.00    +0.000 A 
ATOM      6  C   UNL     1      12.911  15.398 -18.248  0.00  0.00    +0.000 A 
ATOM      7  C   UNL     1      14.005  15.611 -19.106  0.00  0.00    +0.000 A 
ATOM      8  C   UNL     1      15.283  15.960 -18.638  0.00  0.00    +0.000 A 
ENDBRANCH   1   6
BRANCH   1   9
ATOM      9  C   UNL     1      10.436  15.387 -17.909  0.00  0.00    +0.000 C 
BRANCH   9  10
ATOM     10  C   UNL     1       9.694  14.120 -17.417  0.00  0.00    +0.000 C 
ATOM     11  C   UNL     1      10.033  13.821 -15.961  0.00  0.00    +0.000 C 
BRANCH  10  12
ATOM     12  O   UNL     1       8.273  14.284 -17.517  0.00  0.00    +0.000 OA
ATOM     13  H   UNL     1       7.994  13.966 -18.392  0.00  0.00    +0.000 HD
ENDBRANCH  10  12
ENDBRANCH   9  10
ENDBRANCH   1   9
BRANCH   1  14
ATOM     14  C   UNL     1      11.441  13.997 -19.729  0.00  0.00    +0.000 C 
BRANCH  14  15
ATOM     15  C   UNL     1      10.751  14.518 -21.014  0.00  0.00    +0.000 C 
ATOM     16  C   UNL     1      11.647  14.450 -22.245  0.00  0.00    +0.000 C 
BRANCH  15  17
ATOM     17  O   UNL     1       9.554  13.796 -21.299  0.00  0.00    +0.000 OA
ATOM     18  H   UNL     1       9.623  12.974 -20.773  0.00  0.00    +0.000 HD
ENDBRANCH  15  17
ENDBRANCH  14  15
ENDBRANCH   1  14
TORSDOF 7
ENDMDL
MODEL 3
REMARK VINA RESULT:    -4.327      3.128      6.430
REMARK INTER + INTRA:          -5.997
REMARK INTER:                  -5.406
REMARK INTRA:                  -0.591
REMARK UNBOUND:                -0.152
REMARK  Name = 
REMARK  10 active torsions:
REMARK  status: ('A' for Active; 'I' for Inactive)
REMARK    1  A    between atoms: C_1  and  C_2
REMARK    2  A    between atoms: C_5  and  N_8
REMARK    3  A    between atoms: N_8  and  C_9
REMARK    4  A    between atoms: N_8  and  C_13
REMARK    5  A    between atoms: C_9  and  C_10
REMARK    6  A    between atoms: C_10  and  C_11
REMARK    7  A    between atoms: C_10  and  O_12
REMARK    8  A    between atoms: C_13  and  C_14
REMARK    9  A    between atoms: C_14  and  C_15
REMARK   10  A    between atoms: C_14  and  O_16
REMARK                            x       y       z     vdW  Elec       q    Type
REMARK                         _______ _______ _______ _____ _____    ______ ____
ROOT
ATOM      1  N   UNL     1      11.455  15.366 -18.827  0.00  0.00    +0.000 N 
ENDROOT
BRANCH   1   6
ATOM      2  C   UNL     1      16.819  16.070 -16.811  0.00  0.00    +0.000 C 
ATOM      3  C   UNL     1      15.424  15.912 -17.336  0.00  0.00    +0.000 A 
ATOM      4  C   UNL     1      14.342  15.810 -16.468  0.00  0.00    +0.000 A 
ATOM      5  C   UNL     1      13.040  15.632 -16.965  0.00  0.00    +0.000 A 
ATOM      6  C   UNL     1      12.758  15.524 -18.338  0.00  0.00    +0.000 A 
ATOM      7  C   UNL     1      13.875  15.634 -19.186  0.00  0.00    +0.000 A 
ATOM      8  C   UNL     1      15.182  15.814 -18.703  0.00  0.00    +0.000 A 
ENDBRANCH   1   6
BRANCH   1   9
ATOM      9  C   UNL     1      11.162  15.621 -20.259  0.00  0.00    +0.000 C 
BRANCH   9  10
ATOM     10  C   UNL     1      10.752  14.339 -21.024  0.00  0.00    +0.000 C 
ATOM     11  C   UNL     1      11.538  13.131 -20.526  0.00  0.00    +0.000 C 
BRANCH  10  12
ATOM     12  O   UNL     1       9.356  14.061 -20.853  0.00  0.00    +0.000 OA
ATOM     13  H   UNL     1       8.852  14.777 -21.276  0.00  0.00    +0.000 HD
ENDBRANCH  10  12
ENDBRANCH   9  10
ENDBRANCH   1   9
BRANCH   1  14
ATOM     14  C   UNL     1      10.279  15.454 -17.924  0.00  0.00    +0.000 C 
BRANCH  14  15
ATOM     15  C   UNL     1       9.800  14.061 -17.452  0.00  0.00    +0.000 C 
ATOM     16  C   UNL     1      10.023  13.822 -15.963  0.00  0.00    +0.000 C 
BRANCH  15  17
ATOM     17  O   UNL     1       8.415  13.858 -17.728  0.00  0.00    +0.000 OA
ATOM     18  H   UNL     1       8.222  12.955 -17.405  0.00  0.00    +0.000 HD
ENDBRANCH  15  17
ENDBRANCH  14  15
ENDBRANCH   1  14
TORSDOF 7
ENDMDL
MODEL 4
REMARK VINA RESULT:    -4.198     17.697     19.336
REMARK INTER + INTRA:          -5.823
REMARK INTER:                  -5.212
REMARK INTRA:                  -0.611
REMARK UNBOUND:                -0.152
REMARK  Name = 
REMARK  10 active torsions:
REMARK  status: ('A' for Active; 'I' for Inactive)
REMARK    1  A    between atoms: C_1  and  C_2
REMARK    2  A    between atoms: C_5  and  N_8
REMARK    3  A    between atoms: N_8  and  C_9
REMARK    4  A    between atoms: N_8  and  C_13
REMARK    5  A    between atoms: C_9  and  C_10
REMARK    6  A    between atoms: C_10  and  C_11
REMARK    7  A    between atoms: C_10  and  O_12
REMARK    8  A    between atoms: C_13  and  C_14
REMARK    9  A    between atoms: C_14  and  C_15
REMARK   10  A    between atoms: C_14  and  O_16
REMARK                            x       y       z     vdW  Elec       q    Type
REMARK                         _______ _______ _______ _____ _____    ______ ____
ROOT
ATOM      1  N   UNL     1       0.081  16.925  -2.641  0.00  0.00    +0.000 N 
ENDROOT
BRANCH   1   6
ATOM      2  C   UNL     1      -1.773  11.992  -0.283  0.00  0.00    +0.000 C 
ATOM      3  C   UNL     1      -1.312  13.273  -0.910  0.00  0.00    +0.000 A 
ATOM      4  C   UNL     1      -0.458  13.263  -2.008  0.00  0.00    +0.000 A 
ATOM      5  C   UNL     1      -0.005  14.467  -2.572  0.00  0.00    +0.000 A 
ATOM      6  C   UNL     1      -0.359  15.728  -2.061  0.00  0.00    +0.000 A 
ATOM      7  C   UNL     1      -1.224  15.700  -0.952  0.00  0.00    +0.000 A 
ATOM      8  C   UNL     1      -1.686  14.503  -0.379  0.00  0.00    +0.000 A 
ENDBRANCH   1   6
BRANCH   1   9
ATOM      9  C   UNL     1       0.764  17.947  -1.811  0.00  0.00    +0.000 C 
BRANCH   9  10
ATOM     10  C   UNL     1       2.295  17.730  -1.732  0.00  0.00    +0.000 C 
ATOM     11  C   UNL     1       2.655  16.803  -0.578  0.00  0.00    +0.000 C 
BRANCH  10  12
ATOM     12  O   UNL     1       2.796  17.147  -2.943  0.00  0.00    +0.000 OA
ATOM     13  H   UNL     1       3.365  17.803  -3.380  0.00  0.00    +0.000 HD
ENDBRANCH  10  12
ENDBRANCH   9  10
ENDBRANCH   1   9
BRANCH   1  14
ATOM     14  C   UNL     1      -0.530  17.443  -3.892  0.00  0.00    +0.000 C 
BRANCH  14  15
ATOM     15  C   UNL     1      -0.158  16.583  -5.124  0.00  0.00    +0.000 C 
ATOM     16  C   UNL     1      -1.091  16.799  -6.310  0.00  0.00    +0.000 C 
BRANCH  15  17
ATOM     17  O   UNL     1       1.177  16.836  -5.560  0.00  0.00    +0.000 OA
ATOM     18  H   UNL     1       1.160  16.685  -6.526  0.00  0.00    +0.000 HD
ENDBRANCH  15  17
ENDBRANCH  14  15
ENDBRANCH   1  14
TORSDOF 7
ENDMDL
MODEL 5
REMARK VINA RESULT:    -4.141      2.350      6.077
REMARK INTER + INTRA:          -5.746
REMARK INTER:                  -5.199
REMARK INTRA:                  -0.547
REMARK UNBOUND:                -0.152
REMARK  Name = 
REMARK  10 active torsions:
REMARK  status: ('A' for Active; 'I' for Inactive)
REMARK    1  A    between atoms: C_1  and  C_2
REMARK    2  A    between atoms: C_5  and  N_8
REMARK    3  A    between atoms: N_8  and  C_9
REMARK    4  A    between atoms: N_8  and  C_13
REMARK    5  A    between atoms: C_9  and  C_10
REMARK    6  A    between atoms: C_10  and  C_11
REMARK    7  A    between atoms: C_10  and  O_12
REMARK    8  A    between atoms: C_13  and  C_14
REMARK    9  A    between atoms: C_14  and  C_15
REMARK   10  A    between atoms: C_14  and  O_16
REMARK                            x       y       z     vdW  Elec       q    Type
REMARK                         _______ _______ _______ _____ _____    ______ ____
ROOT
ATOM      1  N   UNL     1      11.279  14.322 -19.854  0.00  0.00    +0.000 N 
ENDROOT
BRANCH   1   6
ATOM      2  C   UNL     1      14.821  10.457 -22.271  0.00  0.00    +0.000 C 
ATOM      3  C   UNL     1      13.890  11.463 -21.666  0.00  0.00    +0.000 A 
ATOM      4  C   UNL     1      14.220  12.814 -21.635  0.00  0.00    +0.000 A 
ATOM      5  C   UNL     1      13.357  13.748 -21.039  0.00  0.00    +0.000 A 
ATOM      6  C   UNL     1      12.144  13.383 -20.429  0.00  0.00    +0.000 A 
ATOM      7  C   UNL     1      11.841  12.010 -20.481  0.00  0.00    +0.000 A 
ATOM      8  C   UNL     1      12.694  11.065 -21.076  0.00  0.00    +0.000 A 
ENDBRANCH   1   6
BRANCH   1   9
ATOM      9  C   UNL     1      11.161  14.420 -18.379  0.00  0.00    +0.000 C 
BRANCH   9  10
ATOM     10  C   UNL     1      12.287  15.270 -17.742  0.00  0.00    +0.000 C 
ATOM     11  C   UNL     1      12.222  16.713 -18.230  0.00  0.00    +0.000 C 
BRANCH  10  12
ATOM     12  O   UNL     1      12.178  15.280 -16.312  0.00  0.00    +0.000 OA
ATOM     13  H   UNL     1      12.822  15.919 -15.965  0.00  0.00    +0.000 HD
ENDBRANCH  10  12
ENDBRANCH   9  10
ENDBRANCH   1   9
BRANCH   1  14
ATOM     14  C   UNL     1      10.121  14.866 -20.610  0.00  0.00    +0.000 C 
BRANCH  14  15
ATOM     15  C   UNL     1       8.940  15.238 -19.681  0.00  0.00    +0.000 C 
ATOM     16  C   UNL     1       8.596  16.722 -19.715  0.00  0.00    +0.000 C 
BRANCH  15  17
ATOM     17  O   UNL     1       7.761  14.504 -20.008  0.00  0.00    +0.000 OA
ATOM     18  H   UNL     1       8.083  13.633 -20.317  0.00  0.00    +0.000 HD
ENDBRANCH  15  17
ENDBRANCH  14  15
ENDBRANCH   1  14
TORSDOF 7
ENDMDL
MODEL 6
REMARK VINA RESULT:    -4.134      1.427      5.199
REMARK INTER + INTRA:          -5.735
REMARK INTER:                  -5.095
REMARK INTRA:                  -0.640
REMARK UNBOUND:                -0.152
REMARK  Name = 
REMARK  10 active torsions:
REMARK  status: ('A' for Active; 'I' for Inactive)
REMARK    1  A    between atoms: C_1  and  C_2
REMARK    2  A    between atoms: C_5  and  N_8
REMARK    3  A    between atoms: N_8  and  C_9
REMARK    4  A    between atoms: N_8  and  C_13
REMARK    5  A    between atoms: C_9  and  C_10
REMARK    6  A    between atoms: C_10  and  C_11
REMARK    7  A    between atoms: C_10  and  O_12
REMARK    8  A    between atoms: C_13  and  C_14
REMARK    9  A    between atoms: C_14  and  C_15
REMARK   10  A    between atoms: C_14  and  O_16
REMARK                            x       y       z     vdW  Elec       q    Type
REMARK                         _______ _______ _______ _____ _____    ______ ____
ROOT
ATOM      1  N   UNL     1      10.285  15.689 -19.390  0.00  0.00    +0.000 N 
ENDROOT
BRANCH   1   6
ATOM      2  C   UNL     1      14.057  12.340 -22.197  0.00  0.00    +0.000 C 
ATOM      3  C   UNL     1      13.079  13.193 -21.450  0.00  0.00    +0.000 A 
ATOM      4  C   UNL     1      11.709  13.004 -21.595  0.00  0.00    +0.000 A 
ATOM      5  C   UNL     1      10.796  13.827 -20.914  0.00  0.00    +0.000 A 
ATOM      6  C   UNL     1      11.200  14.885 -20.081  0.00  0.00    +0.000 A 
ATOM      7  C   UNL     1      12.592  15.046 -19.956  0.00  0.00    +0.000 A 
ATOM      8  C   UNL     1      13.516  14.229 -20.629  0.00  0.00    +0.000 A 
ENDBRANCH   1   6
BRANCH   1   9
ATOM      9  C   UNL     1      10.170  15.587 -17.916  0.00  0.00    +0.000 C 
BRANCH   9  10
ATOM     10  C   UNL     1      10.308  14.132 -17.403  0.00  0.00    +0.000 C 
ATOM     11  C   UNL     1      10.760  14.108 -15.948  0.00  0.00    +0.000 C 
BRANCH  10  12
ATOM     12  O   UNL     1       9.058  13.435 -17.491  0.00  0.00    +0.000 OA
ATOM     13  H   UNL     1       8.533  13.845 -18.198  0.00  0.00    +0.000 HD
ENDBRANCH  10  12
ENDBRANCH   9  10
ENDBRANCH   1   9
BRANCH   1  14
ATOM     14  C   UNL     1       9.093  16.257 -20.071  0.00  0.00    +0.000 C 
BRANCH  14  15
ATOM     15  C   UNL     1       7.769  15.752 -19.448  0.00  0.00    +0.000 C 
ATOM     16  C   UNL     1       6.582  16.660 -19.748  0.00  0.00    +0.000 C 
BRANCH  15  17
ATOM     17  O   UNL     1       7.443  14.437 -19.895  0.00  0.00    +0.000 OA
ATOM     18  H   UNL     1       6.887  14.059 -19.184  0.00  0.00    +0.000 HD
ENDBRANCH  15  17
ENDBRANCH  14  15
ENDBRANCH   1  14
TORSDOF 7
ENDMDL
MODEL 7
REMARK VINA RESULT:    -4.130      1.360      3.291
REMARK INTER + INTRA:          -5.730
REMARK INTER:                  -5.302
REMARK INTRA:                  -0.428
REMARK UNBOUND:                -0.152
REMARK  Name = 
REMARK  10 active torsions:
REMARK  status: ('A' for Active; 'I' for Inactive)
REMARK    1  A    between atoms: C_1  and  C_2
REMARK    2  A    between atoms: C_5  and  N_8
REMARK    3  A    between atoms: N_8  and  C_9
REMARK    4  A    between atoms: N_8  and  C_13
REMARK    5  A    between atoms: C_9  and  C_10
REMARK    6  A    between atoms: C_10  and  C_11
REMARK    7  A    between atoms: C_10  and  O_12
REMARK    8  A    between atoms: C_13  and  C_14
REMARK    9  A    between atoms: C_14  and  C_15
REMARK   10  A    between atoms: C_14  and  O_16
REMARK                            x       y       z     vdW  Elec       q    Type
REMARK                         _______ _______ _______ _____ _____    ______ ____
ROOT
ATOM      1  N   UNL     1      10.206  15.589 -19.022  0.00  0.00    +0.000 N 
ENDROOT
BRANCH   1   6
ATOM      2  C   UNL     1       4.676  16.969 -19.936  0.00  0.00    +0.000 C 
ATOM      3  C   UNL     1       6.112  16.601 -19.722  0.00  0.00    +0.000 A 
ATOM      4  C   UNL     1       6.458  15.397 -19.118  0.00  0.00    +0.000 A 
ATOM      5  C   UNL     1       7.805  15.070 -18.892  0.00  0.00    +0.000 A 
ATOM      6  C   UNL     1       8.864  15.930 -19.232  0.00  0.00    +0.000 A 
ATOM      7  C   UNL     1       8.478  17.137 -19.843  0.00  0.00    +0.000 A 
ATOM      8  C   UNL     1       7.135  17.476 -20.076  0.00  0.00    +0.000 A 
ENDBRANCH   1   6
BRANCH   1   9
ATOM      9  C   UNL     1      10.739  14.308 -19.545  0.00  0.00    +0.000 C 
BRANCH   9  10
ATOM     10  C   UNL     1      10.787  14.266 -21.092  0.00  0.00    +0.000 C 
ATOM     11  C   UNL     1      12.034  13.537 -21.578  0.00  0.00    +0.000 C 
BRANCH  10  12
ATOM     12  O   UNL     1       9.641  13.589 -21.625  0.00  0.00    +0.000 OA
ATOM     13  H   UNL     1       8.963  13.552 -20.929  0.00  0.00    +0.000 HD
ENDBRANCH  10  12
ENDBRANCH   9  10
ENDBRANCH   1   9
BRANCH   1  14
ATOM     14  C   UNL     1      10.981  16.175 -17.898  0.00  0.00    +0.000 C 
BRANCH  14  15
ATOM     15  C   UNL     1      11.911  15.136 -17.225  0.00  0.00    +0.000 C 
ATOM     16  C   UNL     1      13.293  15.690 -16.900  0.00  0.00    +0.000 C 
BRANCH  15  17
ATOM     17  O   UNL     1      11.345  14.625 -16.019  0.00  0.00    +0.000 OA
ATOM     18  H   UNL     1      10.599  14.062 -16.309  0.00  0.00    +0.000 HD
ENDBRANCH  15  17
ENDBRANCH  14  15
ENDBRANCH   1  14
TORSDOF 7
ENDMDL
MODEL 8
REMARK VINA RESULT:    -4.019      1.234      1.464
REMARK INTER + INTRA:          -5.581
REMARK INTER:                  -5.352
REMARK INTRA:                  -0.229
REMARK UNBOUND:                -0.152
REMARK  Name = 
REMARK  10 active torsions:
REMARK  status: ('A' for Active; 'I' for Inactive)
REMARK    1  A    between atoms: C_1  and  C_2
REMARK    2  A    between atoms: C_5  and  N_8
REMARK    3  A    between atoms: N_8  and  C_9
REMARK    4  A    between atoms: N_8  and  C_13
REMARK    5  A    between atoms: C_9  and  C_10
REMARK    6  A    between atoms: C_10  and  C_11
REMARK    7  A    between atoms: C_10  and  O_12
REMARK    8  A    between atoms: C_13  and  C_14
REMARK    9  A    between atoms: C_14  and  C_15
REMARK   10  A    between atoms: C_14  and  O_16
REMARK                            x       y       z     vdW  Elec       q    Type
REMARK                         _______ _______ _______ _____ _____    ______ ____
ROOT
ATOM      1  N   UNL     1       9.834  15.179 -19.260  0.00  0.00    +0.000 N 
ENDROOT
BRANCH   1   6
ATOM      2  C   UNL     1       4.524  17.305 -20.045  0.00  0.00    +0.000 C 
ATOM      3  C   UNL     1       5.901  16.760 -19.817  0.00  0.00    +0.000 A 
ATOM      4  C   UNL     1       7.026  17.553 -20.017  0.00  0.00    +0.000 A 
ATOM      5  C   UNL     1       8.315  17.028 -19.831  0.00  0.00    +0.000 A 
ATOM      6  C   UNL     1       8.546  15.691 -19.462  0.00  0.00    +0.000 A 
ATOM      7  C   UNL     1       7.386  14.918 -19.267  0.00  0.00    +0.000 A 
ATOM      8  C   UNL     1       6.091  15.432 -19.447  0.00  0.00    +0.000 A 
ENDBRANCH   1   6
BRANCH   1   9
ATOM      9  C   UNL     1      10.357  15.006 -17.883  0.00  0.00    +0.000 C 
BRANCH   9  10
ATOM     10  C   UNL     1      11.737  15.676 -17.677  0.00  0.00    +0.000 C 
ATOM     11  C   UNL     1      11.618  17.195 -17.718  0.00  0.00    +0.000 C 
BRANCH  10  12
ATOM     12  O   UNL     1      12.304  15.309 -16.411  0.00  0.00    +0.000 OA
ATOM     13  H   UNL     1      13.224  15.620 -16.391  0.00  0.00    +0.000 HD
ENDBRANCH  10  12
ENDBRANCH   9  10
ENDBRANCH   1   9
BRANCH   1  14
ATOM     14  C   UNL     1      10.875  15.276 -20.315  0.00  0.00    +0.000 C 
BRANCH  14  15
ATOM     15  C   UNL     1      10.964  13.987 -21.167  0.00  0.00    +0.000 C 
ATOM     16  C   UNL     1      11.658  12.838 -20.445  0.00  0.00    +0.000 C 
BRANCH  15  17
ATOM     17  O   UNL     1       9.674  13.536 -21.578  0.00  0.00    +0.000 OA
ATOM     18  H   UNL     1       9.413  12.873 -20.907  0.00  0.00    +0.000 HD
ENDBRANCH  15  17
ENDBRANCH  14  15
ENDBRANCH   1  14
TORSDOF 7
ENDMDL
MODEL 9
REMARK VINA RESULT:    -3.967      2.208      5.945
REMARK INTER + INTRA:          -5.511
REMARK INTER:                  -4.729
REMARK INTRA:                  -0.782
REMARK UNBOUND:                -0.152
REMARK  Name = 
REMARK  10 active torsions:
REMARK  status: ('A' for Active; 'I' for Inactive)
REMARK    1  A    between atoms: C_1  and  C_2
REMARK    2  A    between atoms: C_5  and  N_8
REMARK    3  A    between atoms: N_8  and  C_9
REMARK    4  A    between atoms: N_8  and  C_13
REMARK    5  A    between atoms: C_9  and  C_10
REMARK    6  A    between atoms: C_10  and  C_11
REMARK    7  A    between atoms: C_10  and  O_12
REMARK    8  A    between atoms: C_13  and  C_14
REMARK    9  A    between atoms: C_14  and  C_15
REMARK   10  A    between atoms: C_14  and  O_16
REMARK                            x       y       z     vdW  Elec       q    Type
REMARK                         _______ _______ _______ _____ _____    ______ ____
ROOT
ATOM      1  N   UNL     1      11.376  14.899 -19.437  0.00  0.00    +0.000 N 
ENDROOT
BRANCH   1   6
ATOM      2  C   UNL     1      13.958  10.664 -22.391  0.00  0.00    +0.000 C 
ATOM      3  C   UNL     1      13.275  11.769 -21.645  0.00  0.00    +0.000 A 
ATOM      4  C   UNL     1      13.845  13.036 -21.565  0.00  0.00    +0.000 A 
ATOM      5  C   UNL     1      13.215  14.060 -20.839  0.00  0.00    +0.000 A 
ATOM      6  C   UNL     1      12.008  13.868 -20.143  0.00  0.00    +0.000 A 
ATOM      7  C   UNL     1      11.460  12.576 -20.247  0.00  0.00    +0.000 A 
ATOM      8  C   UNL     1      12.078  11.544 -20.971  0.00  0.00    +0.000 A 
ENDBRANCH   1   6
BRANCH   1   9
ATOM      9  C   UNL     1      10.011  15.334 -19.820  0.00  0.00    +0.000 C 
BRANCH   9  10
ATOM     10  C   UNL     1       9.004  15.253 -18.647  0.00  0.00    +0.000 C 
ATOM     11  C   UNL     1       7.571  15.195 -19.162  0.00  0.00    +0.000 C 
BRANCH  10  12
ATOM     12  O   UNL     1       9.236  14.085 -17.848  0.00  0.00    +0.000 OA
ATOM     13  H   UNL     1       8.384  13.794 -17.484  0.00  0.00    +0.000 HD
ENDBRANCH  10  12
ENDBRANCH   9  10
ENDBRANCH   1   9
BRANCH   1  14
ATOM     14  C   UNL     1      12.161  15.905 -18.676  0.00  0.00    +0.000 C 
BRANCH  14  15
ATOM     15  C   UNL     1      12.751  15.320 -17.371  0.00  0.00    +0.000 C 
ATOM     16  C   UNL     1      13.789  16.228 -16.722  0.00  0.00    +0.000 C 
BRANCH  15  17
ATOM     17  O   UNL     1      11.734  15.052 -16.407  0.00  0.00    +0.000 OA
ATOM     18  H   UNL     1      11.695  14.076 -16.346  0.00  0.00    +0.000 HD
ENDBRANCH  15  17
ENDBRANCH  14  15
ENDBRANCH   1  14
TORSDOF 7
ENDMDL
