MODEL 1
REMARK VINA RESULT:    -3.166      0.000      0.000
REMARK INTER + INTRA:          -4.722
REMARK INTER:                  -4.276
REMARK INTRA:                  -0.446
REMARK UNBOUND:                -0.446
REMARK  Name = 
REMARK  10 active torsions:
REMARK  status: ('A' for Active; 'I' for Inactive)
REMARK    1  A    between atoms: C_1  and  C_2
REMARK    2  A    between atoms: C_5  and  N_8
REMARK    3  A    between atoms: N_8  and  C_9
REMARK    4  A    between atoms: N_8  and  C_13
REMARK    5  A    between atoms: C_9  and  C_10
REMARK    6  A    between atoms: C_10  and  C_11
REMARK    7  A    between atoms: C_10  and  O_12
REMARK    8  A    between atoms: C_13  and  C_14
REMARK    9  A    between atoms: C_14  and  C_15
REMARK   10  A    between atoms: C_14  and  O_16
REMARK                            x       y       z     vdW  Elec       q    Type
REMARK                         _______ _______ _______ _____ _____    ______ ____
ROOT
ATOM      1  N   UNL     1     -20.674   0.138   6.987  0.00  0.00    +0.000 N 
ENDROOT
BRANCH   1   6
ATOM      2  C   UNL     1     -21.205   1.182  12.640  0.00  0.00    +0.000 C 
ATOM      3  C   UNL     1     -21.043   0.915  11.175  0.00  0.00    +0.000 A 
ATOM      4  C   UNL     1     -21.165   1.941  10.243  0.00  0.00    +0.000 A 
ATOM      5  C   UNL     1     -21.042   1.679   8.869  0.00  0.00    +0.000 A 
ATOM      6  C   UNL     1     -20.815   0.388   8.357  0.00  0.00    +0.000 A 
ATOM      7  C   UNL     1     -20.695  -0.624   9.327  0.00  0.00    +0.000 A 
ATOM      8  C   UNL     1     -20.814  -0.375  10.705  0.00  0.00    +0.000 A 
ENDBRANCH   1   6
BRANCH   1   9
ATOM      9  C   UNL     1     -21.205   1.104   5.996  0.00  0.00    +0.000 C 
BRANCH   9  10
ATOM     10  C   UNL     1     -20.104   2.009   5.390  0.00  0.00    +0.000 C 
ATOM     11  C   UNL     1     -20.450   2.406   3.960  0.00  0.00    +0.000 C 
BRANCH  10  12
ATOM     12  O   UNL     1     -19.945   3.210   6.158  0.00  0.00    +0.000 OA
ATOM     13  H   UNL     1     -20.010   3.966   5.551  0.00  0.00    +0.000 HD
ENDBRANCH  10  12
ENDBRANCH   9  10
ENDBRANCH   1   9
BRANCH   1  14
ATOM     14  C   UNL     1     -20.485  -1.243   6.473  0.00  0.00    +0.000 C 
BRANCH  14  15
ATOM     15  C   UNL     1     -19.049  -1.480   5.947  0.00  0.00    +0.000 C 
ATOM     16  C   UNL     1     -18.937  -1.349   4.432  0.00  0.00    +0.000 C 
BRANCH  15  17
ATOM     17  O   UNL     1     -18.116  -0.577   6.538  0.00  0.00    +0.000 OA
ATOM     18  H   UNL     1     -17.902   0.065   5.831  0.00  0.00    +0.000 HD
ENDBRANCH  15  17
ENDBRANCH  14  15
ENDBRANCH   1  14
TORSDOF 7
ENDMDL
MODEL 2
REMARK VINA RESULT:    -3.161      2.149      5.697
REMARK INTER + INTRA:          -4.715
REMARK INTER:                  -4.309
REMARK INTRA:                  -0.406
REMARK UNBOUND:                -0.446
REMARK  Name = 
REMARK  10 active torsions:
REMARK  status: ('A' for Active; 'I' for Inactive)
REMARK    1  A    between atoms: C_1  and  C_2
REMARK    2  A    between atoms: C_5  and  N_8
REMARK    3  A    between atoms: N_8  and  C_9
REMARK    4  A    between atoms: N_8  and  C_13
REMARK    5  A    between atoms: C_9  and  C_10
REMARK    6  A    between atoms: C_10  and  C_11
REMARK    7  A    between atoms: C_10  and  O_12
REMARK    8  A    between atoms: C_13  and  C_14
REMARK    9  A    between atoms: C_14  and  C_15
REMARK   10  A    between atoms: C_14  and  O_16
REMARK                            x       y       z     vdW  Elec       q    Type
REMARK                         _______ _______ _______ _____ _____    ______ ____
ROOT
ATOM      1  N   UNL     1     -20.506   0.105   7.497  0.00  0.00    +0.000 N 
ENDROOT
BRANCH   1   6
ATOM      2  C   UNL     1     -20.079   1.648   1.950  0.00  0.00    +0.000 C 
ATOM      3  C   UNL     1     -20.165   1.249   3.392  0.00  0.00    +0.000 A 
ATOM      4  C   UNL     1     -20.144  -0.091   3.765  0.00  0.00    +0.000 A 
ATOM      5  C   UNL     1     -20.255  -0.460   5.115  0.00  0.00    +0.000 A 
ATOM      6  C   UNL     1     -20.416   0.479   6.150  0.00  0.00    +0.000 A 
ATOM      7  C   UNL     1     -20.431   1.824   5.737  0.00  0.00    +0.000 A 
ATOM      8  C   UNL     1     -20.319   2.207   4.390  0.00  0.00    +0.000 A 
ENDBRANCH   1   6
BRANCH   1   9
ATOM      9  C   UNL     1     -20.388  -1.323   7.881  0.00  0.00    +0.000 C 
BRANCH   9  10
ATOM     10  C   UNL     1     -18.985  -1.683   8.427  0.00  0.00    +0.000 C 
ATOM     11  C   UNL     1     -17.891  -1.192   7.485  0.00  0.00    +0.000 C 
BRANCH  10  12
ATOM     12  O   UNL     1     -18.764  -1.087   9.713  0.00  0.00    +0.000 OA
ATOM     13  H   UNL     1     -18.177  -1.673  10.219  0.00  0.00    +0.000 HD
ENDBRANCH  10  12
ENDBRANCH   9  10
ENDBRANCH   1   9
BRANCH   1  14
ATOM     14  C   UNL     1     -21.205   0.962   8.488  0.00  0.00    +0.000 C 
BRANCH  14  15
ATOM     15  C   UNL     1     -20.235   1.925   9.215  0.00  0.00    +0.000 C 
ATOM     16  C   UNL     1     -20.857   3.281   9.526  0.00  0.00    +0.000 C 
BRANCH  15  17
ATOM     17  O   UNL     1     -19.757   1.367  10.438  0.00  0.00    +0.000 OA
ATOM     18  H   UNL     1     -20.552   1.005  10.878  0.00  0.00    +0.000 HD
ENDBRANCH  15  17
ENDBRANCH  14  15
ENDBRANCH   1  14
TORSDOF 7
ENDMDL
MODEL 3
REMARK VINA RESULT:    -2.857      1.594      2.109
REMARK INTER + INTRA:          -4.305
REMARK INTER:                  -4.053
REMARK INTRA:                  -0.253
REMARK UNBOUND:                -0.446
REMARK  Name = 
REMARK  10 active torsions:
REMARK  status: ('A' for Active; 'I' for Inactive)
REMARK    1  A    between atoms: C_1  and  C_2
REMARK    2  A    between atoms: C_5  and  N_8
REMARK    3  A    between atoms: N_8  and  C_9
REMARK    4  A    between atoms: N_8  and  C_13
REMARK    5  A    between atoms: C_9  and  C_10
REMARK    6  A    between atoms: C_10  and  C_11
REMARK    7  A    between atoms: C_10  and  O_12
REMARK    8  A    between atoms: C_13  and  C_14
REMARK    9  A    between atoms: C_14  and  C_15
REMARK   10  A    between atoms: C_14  and  O_16
REMARK                            x       y       z     vdW  Elec       q    Type
REMARK                         _______ _______ _______ _____ _____    ______ ____
ROOT
ATOM      1  N   UNL     1     -20.767   0.251   5.035  0.00  0.00    +0.000 N 
ENDROOT
BRANCH   1   6
ATOM      2  C   UNL     1     -20.818   1.146  10.738  0.00  0.00    +0.000 C 
ATOM      3  C   UNL     1     -20.780   0.912   9.259  0.00  0.00    +0.000 A 
ATOM      4  C   UNL     1     -20.735   1.979   8.368  0.00  0.00    +0.000 A 
ATOM      5  C   UNL     1     -20.730   1.755   6.982  0.00  0.00    +0.000 A 
ATOM      6  C   UNL     1     -20.792   0.468   6.419  0.00  0.00    +0.000 A 
ATOM      7  C   UNL     1     -20.835  -0.587   7.349  0.00  0.00    +0.000 A 
ATOM      8  C   UNL     1     -20.838  -0.377   8.737  0.00  0.00    +0.000 A 
ENDBRANCH   1   6
BRANCH   1   9
ATOM      9  C   UNL     1     -21.205   1.321   4.107  0.00  0.00    +0.000 C 
BRANCH   9  10
ATOM     10  C   UNL     1     -20.222   1.533   2.929  0.00  0.00    +0.000 C 
ATOM     11  C   UNL     1     -20.926   1.340   1.591  0.00  0.00    +0.000 C 
BRANCH  10  12
ATOM     12  O   UNL     1     -19.668   2.856   2.953  0.00  0.00    +0.000 OA
ATOM     13  H   UNL     1     -19.920   3.273   3.794  0.00  0.00    +0.000 HD
ENDBRANCH  10  12
ENDBRANCH   9  10
ENDBRANCH   1   9
BRANCH   1  14
ATOM     14  C   UNL     1     -20.813  -1.123   4.471  0.00  0.00    +0.000 C 
BRANCH  14  15
ATOM     15  C   UNL     1     -19.400  -1.683   4.181  0.00  0.00    +0.000 C 
ATOM     16  C   UNL     1     -19.047  -1.682   2.698  0.00  0.00    +0.000 C 
BRANCH  15  17
ATOM     17  O   UNL     1     -18.390  -0.953   4.876  0.00  0.00    +0.000 OA
ATOM     18  H   UNL     1     -17.833  -0.561   4.173  0.00  0.00    +0.000 HD
ENDBRANCH  15  17
ENDBRANCH  14  15
ENDBRANCH   1  14
TORSDOF 7
ENDMDL
MODEL 4
REMARK VINA RESULT:    -2.778     18.049     19.620
REMARK INTER + INTRA:          -4.199
REMARK INTER:                  -3.708
REMARK INTRA:                  -0.491
REMARK UNBOUND:                -0.446
REMARK  Name = 
REMARK  10 active torsions:
REMARK  status: ('A' for Active; 'I' for Inactive)
REMARK    1  A    between atoms: C_1  and  C_2
REMARK    2  A    between atoms: C_5  and  N_8
REMARK    3  A    between atoms: N_8  and  C_9
REMARK    4  A    between atoms: N_8  and  C_13
REMARK    5  A    between atoms: C_9  and  C_10
REMARK    6  A    between atoms: C_10  and  C_11
REMARK    7  A    between atoms: C_10  and  O_12
REMARK    8  A    between atoms: C_13  and  C_14
REMARK    9  A    between atoms: C_14  and  C_15
REMARK   10  A    between atoms: C_14  and  O_16
REMARK                            x       y       z     vdW  Elec       q    Type
REMARK                         _______ _______ _______ _____ _____    ______ ____
ROOT
ATOM      1  N   UNL     1     -15.347  19.475  10.909  0.00  0.00    +0.000 N 
ENDROOT
BRANCH   1   6
ATOM      2  C   UNL     1     -20.701  18.040   9.295  0.00  0.00    +0.000 C 
ATOM      3  C   UNL     1     -19.320  18.435   9.720  0.00  0.00    +0.000 A 
ATOM      4  C   UNL     1     -18.418  18.972   8.807  0.00  0.00    +0.000 A 
ATOM      5  C   UNL     1     -17.115  19.313   9.205  0.00  0.00    +0.000 A 
ATOM      6  C   UNL     1     -16.642  19.115  10.515  0.00  0.00    +0.000 A 
ATOM      7  C   UNL     1     -17.581  18.572  11.410  0.00  0.00    +0.000 A 
ATOM      8  C   UNL     1     -18.888  18.229  11.027  0.00  0.00    +0.000 A 
ENDBRANCH   1   6
BRANCH   1   9
ATOM      9  C   UNL     1     -14.936  19.336  12.326  0.00  0.00    +0.000 C 
BRANCH   9  10
ATOM     10  C   UNL     1     -14.201  18.003  12.610  0.00  0.00    +0.000 C 
ATOM     11  C   UNL     1     -12.952  18.238  13.452  0.00  0.00    +0.000 C 
BRANCH  10  12
ATOM     12  O   UNL     1     -15.049  17.088  13.318  0.00  0.00    +0.000 OA
ATOM     13  H   UNL     1     -15.127  16.277  12.788  0.00  0.00    +0.000 HD
ENDBRANCH  10  12
ENDBRANCH   9  10
ENDBRANCH   1   9
BRANCH   1  14
ATOM     14  C   UNL     1     -14.544  20.441  10.117  0.00  0.00    +0.000 C 
BRANCH  14  15
ATOM     15  C   UNL     1     -13.497  19.736   9.222  0.00  0.00    +0.000 C 
ATOM     16  C   UNL     1     -13.347  20.385   7.851  0.00  0.00    +0.000 C 
BRANCH  15  17
ATOM     17  O   UNL     1     -12.211  19.704   9.839  0.00  0.00    +0.000 OA
ATOM     18  H   UNL     1     -11.577  19.851   9.109  0.00  0.00    +0.000 HD
ENDBRANCH  15  17
ENDBRANCH  14  15
ENDBRANCH   1  14
TORSDOF 7
ENDMDL
MODEL 5
REMARK VINA RESULT:    -2.658      1.807      5.479
REMARK INTER + INTRA:          -4.036
REMARK INTER:                  -3.568
REMARK INTRA:                  -0.469
REMARK UNBOUND:                -0.446
REMARK  Name = 
REMARK  10 active torsions:
REMARK  status: ('A' for Active; 'I' for Inactive)
REMARK    1  A    between atoms: C_1  and  C_2
REMARK    2  A    between atoms: C_5  and  N_8
REMARK    3  A    between atoms: N_8  and  C_9
REMARK    4  A    between atoms: N_8  and  C_13
REMARK    5  A    between atoms: C_9  and  C_10
REMARK    6  A    between atoms: C_10  and  C_11
REMARK    7  A    between atoms: C_10  and  O_12
REMARK    8  A    between atoms: C_13  and  C_14
REMARK    9  A    between atoms: C_14  and  C_15
REMARK   10  A    between atoms: C_14  and  O_16
REMARK                            x       y       z     vdW  Elec       q    Type
REMARK                         _______ _______ _______ _____ _____    ______ ____
ROOT
ATOM      1  N   UNL     1     -21.007   0.939   7.034  0.00  0.00    +0.000 N 
ENDROOT
BRANCH   1   6
ATOM      2  C   UNL     1     -21.205   1.329   1.278  0.00  0.00    +0.000 C 
ATOM      3  C   UNL     1     -21.129   1.227   2.770  0.00  0.00    +0.000 A 
ATOM      4  C   UNL     1     -21.183  -0.010   3.405  0.00  0.00    +0.000 A 
ATOM      5  C   UNL     1     -21.142  -0.097   4.806  0.00  0.00    +0.000 A 
ATOM      6  C   UNL     1     -21.068   1.035   5.638  0.00  0.00    +0.000 A 
ATOM      7  C   UNL     1     -21.012   2.267   4.962  0.00  0.00    +0.000 A 
ATOM      8  C   UNL     1     -21.051   2.369   3.561  0.00  0.00    +0.000 A 
ENDBRANCH   1   6
BRANCH   1   9
ATOM      9  C   UNL     1     -20.272   1.961   7.818  0.00  0.00    +0.000 C 
BRANCH   9  10
ATOM     10  C   UNL     1     -21.202   3.047   8.410  0.00  0.00    +0.000 C 
ATOM     11  C   UNL     1     -21.169   3.023   9.933  0.00  0.00    +0.000 C 
BRANCH  10  12
ATOM     12  O   UNL     1     -20.805   4.356   7.978  0.00  0.00    +0.000 OA
ATOM     13  H   UNL     1     -20.267   4.755   8.681  0.00  0.00    +0.000 HD
ENDBRANCH  10  12
ENDBRANCH   9  10
ENDBRANCH   1   9
BRANCH   1  14
ATOM     14  C   UNL     1     -21.192  -0.363   7.724  0.00  0.00    +0.000 C 
BRANCH  14  15
ATOM     15  C   UNL     1     -20.269  -0.507   8.958  0.00  0.00    +0.000 C 
ATOM     16  C   UNL     1     -20.964  -1.144  10.156  0.00  0.00    +0.000 C 
BRANCH  15  17
ATOM     17  O   UNL     1     -19.107  -1.279   8.660  0.00  0.00    +0.000 OA
ATOM     18  H   UNL     1     -19.354  -2.201   8.873  0.00  0.00    +0.000 HD
ENDBRANCH  15  17
ENDBRANCH  14  15
ENDBRANCH   1  14
TORSDOF 7
ENDMDL
MODEL 6
REMARK VINA RESULT:    -2.610     17.521     19.404
REMARK INTER + INTRA:          -3.971
REMARK INTER:                  -3.248
REMARK INTRA:                  -0.723
REMARK UNBOUND:                -0.446
REMARK  Name = 
REMARK  10 active torsions:
REMARK  status: ('A' for Active; 'I' for Inactive)
REMARK    1  A    between atoms: C_1  and  C_2
REMARK    2  A    between atoms: C_5  and  N_8
REMARK    3  A    between atoms: N_8  and  C_9
REMARK    4  A    between atoms: N_8  and  C_13
REMARK    5  A    between atoms: C_9  and  C_10
REMARK    6  A    between atoms: C_10  and  C_11
REMARK    7  A    between atoms: C_10  and  O_12
REMARK    8  A    between atoms: C_13  and  C_14
REMARK    9  A    between atoms: C_14  and  C_15
REMARK   10  A    between atoms: C_14  and  O_16
REMARK                            x       y       z     vdW  Elec       q    Type
REMARK                         _______ _______ _______ _____ _____    ______ ____
ROOT
ATOM      1  N   UNL     1     -17.454  18.351  12.285  0.00  0.00    +0.000 N 
ENDROOT
BRANCH   1   6
ATOM      2  C   UNL     1     -12.495  20.150   9.939  0.00  0.00    +0.000 C 
ATOM      3  C   UNL     1     -13.782  19.704  10.562  0.00  0.00    +0.000 A 
ATOM      4  C   UNL     1     -13.785  18.845  11.656  0.00  0.00    +0.000 A 
ATOM      5  C   UNL     1     -14.995  18.405  12.218  0.00  0.00    +0.000 A 
ATOM      6  C   UNL     1     -16.251  18.778  11.707  0.00  0.00    +0.000 A 
ATOM      7  C   UNL     1     -16.210  19.648  10.603  0.00  0.00    +0.000 A 
ATOM      8  C   UNL     1     -15.007  20.097  10.032  0.00  0.00    +0.000 A 
ENDBRANCH   1   6
BRANCH   1   9
ATOM      9  C   UNL     1     -17.443  17.644  13.588  0.00  0.00    +0.000 C 
BRANCH   9  10
ATOM     10  C   UNL     1     -18.145  16.266  13.529  0.00  0.00    +0.000 C 
ATOM     11  C   UNL     1     -17.248  15.172  14.096  0.00  0.00    +0.000 C 
BRANCH  10  12
ATOM     12  O   UNL     1     -19.365  16.276  14.285  0.00  0.00    +0.000 OA
ATOM     13  H   UNL     1     -19.227  15.744  15.086  0.00  0.00    +0.000 HD
ENDBRANCH  10  12
ENDBRANCH   9  10
ENDBRANCH   1   9
BRANCH   1  14
ATOM     14  C   UNL     1     -18.663  18.113  11.455  0.00  0.00    +0.000 C 
BRANCH  14  15
ATOM     15  C   UNL     1     -19.826  19.062  11.832  0.00  0.00    +0.000 C 
ATOM     16  C   UNL     1     -20.517  19.674  10.619  0.00  0.00    +0.000 C 
BRANCH  15  17
ATOM     17  O   UNL     1     -20.816  18.398  12.616  0.00  0.00    +0.000 OA
ATOM     18  H   UNL     1     -21.653  18.861  12.411  0.00  0.00    +0.000 HD
ENDBRANCH  15  17
ENDBRANCH  14  15
ENDBRANCH   1  14
TORSDOF 7
ENDMDL
MODEL 7
REMARK VINA RESULT:    -2.562     17.359     19.073
REMARK INTER + INTRA:          -3.906
REMARK INTER:                  -3.168
REMARK INTRA:                  -0.738
REMARK UNBOUND:                -0.446
REMARK  Name = 
REMARK  10 active torsions:
REMARK  status: ('A' for Active; 'I' for Inactive)
REMARK    1  A    between atoms: C_1  and  C_2
REMARK    2  A    between atoms: C_5  and  N_8
REMARK    3  A    between atoms: N_8  and  C_9
REMARK    4  A    between atoms: N_8  and  C_13
REMARK    5  A    between atoms: C_9  and  C_10
REMARK    6  A    between atoms: C_10  and  C_11
REMARK    7  A    between atoms: C_10  and  O_12
REMARK    8  A    between atoms: C_13  and  C_14
REMARK    9  A    between atoms: C_14  and  C_15
REMARK   10  A    between atoms: C_14  and  O_16
REMARK                            x       y       z     vdW  Elec       q    Type
REMARK                         _______ _______ _______ _____ _____    ______ ____
ROOT
ATOM      1  N   UNL     1     -17.767  18.584  12.152  0.00  0.00    +0.000 N 
ENDROOT
BRANCH   1   6
ATOM      2  C   UNL     1     -12.607  20.037  10.009  0.00  0.00    +0.000 C 
ATOM      3  C   UNL     1     -13.946  19.680  10.579  0.00  0.00    +0.000 A 
ATOM      4  C   UNL     1     -14.050  18.856  11.695  0.00  0.00    +0.000 A 
ATOM      5  C   UNL     1     -15.309  18.501  12.207  0.00  0.00    +0.000 A 
ATOM      6  C   UNL     1     -16.516  18.926  11.624  0.00  0.00    +0.000 A 
ATOM      7  C   UNL     1     -16.372  19.759  10.499  0.00  0.00    +0.000 A 
ATOM      8  C   UNL     1     -15.120  20.124   9.978  0.00  0.00    +0.000 A 
ENDBRANCH   1   6
BRANCH   1   9
ATOM      9  C   UNL     1     -18.978  19.337  11.743  0.00  0.00    +0.000 C 
BRANCH   9  10
ATOM     10  C   UNL     1     -19.968  18.479  10.917  0.00  0.00    +0.000 C 
ATOM     11  C   UNL     1     -19.222  17.488  10.031  0.00  0.00    +0.000 C 
BRANCH  10  12
ATOM     12  O   UNL     1     -20.844  17.736  11.775  0.00  0.00    +0.000 OA
ATOM     13  H   UNL     1     -21.540  17.339  11.225  0.00  0.00    +0.000 HD
ENDBRANCH  10  12
ENDBRANCH   9  10
ENDBRANCH   1   9
BRANCH   1  14
ATOM     14  C   UNL     1     -17.885  17.868  13.448  0.00  0.00    +0.000 C 
BRANCH  14  15
ATOM     15  C   UNL     1     -18.019  16.337  13.260  0.00  0.00    +0.000 C 
ATOM     16  C   UNL     1     -17.053  15.540  14.127  0.00  0.00    +0.000 C 
BRANCH  15  17
ATOM     17  O   UNL     1     -19.342  15.885  13.542  0.00  0.00    +0.000 OA
ATOM     18  H   UNL     1     -19.923  16.632  13.292  0.00  0.00    +0.000 HD
ENDBRANCH  15  17
ENDBRANCH  14  15
ENDBRANCH   1  14
TORSDOF 7
ENDMDL
MODEL 8
REMARK VINA RESULT:    -2.548     16.363     18.137
REMARK INTER + INTRA:          -3.888
REMARK INTER:                  -3.125
REMARK INTRA:                  -0.763
REMARK UNBOUND:                -0.446
REMARK  Name = 
REMARK  10 active torsions:
REMARK  status: ('A' for Active; 'I' for Inactive)
REMARK    1  A    between atoms: C_1  and  C_2
REMARK    2  A    between atoms: C_5  and  N_8
REMARK    3  A    between atoms: N_8  and  C_9
REMARK    4  A    between atoms: N_8  and  C_13
REMARK    5  A    between atoms: C_9  and  C_10
REMARK    6  A    between atoms: C_10  and  C_11
REMARK    7  A    between atoms: C_10  and  O_12
REMARK    8  A    between atoms: C_13  and  C_14
REMARK    9  A    between atoms: C_14  and  C_15
REMARK   10  A    between atoms: C_14  and  O_16
REMARK                            x       y       z     vdW  Elec       q    Type
REMARK                         _______ _______ _______ _____ _____    ______ ____
ROOT
ATOM      1  N   UNL     1     -18.521  17.508  13.108  0.00  0.00    +0.000 N 
ENDROOT
BRANCH   1   6
ATOM      2  C   UNL     1     -13.020  18.725  11.851  0.00  0.00    +0.000 C 
ATOM      3  C   UNL     1     -14.447  18.390  12.161  0.00  0.00    +0.000 A 
ATOM      4  C   UNL     1     -15.489  18.983  11.456  0.00  0.00    +0.000 A 
ATOM      5  C   UNL     1     -16.826  18.688  11.772  0.00  0.00    +0.000 A 
ATOM      6  C   UNL     1     -17.187  17.813  12.812  0.00  0.00    +0.000 A 
ATOM      7  C   UNL     1     -16.108  17.231  13.501  0.00  0.00    +0.000 A 
ATOM      8  C   UNL     1     -14.767  17.515  13.195  0.00  0.00    +0.000 A 
ENDBRANCH   1   6
BRANCH   1   9
ATOM      9  C   UNL     1     -19.616  18.329  12.536  0.00  0.00    +0.000 C 
BRANCH   9  10
ATOM     10  C   UNL     1     -20.320  17.640  11.341  0.00  0.00    +0.000 C 
ATOM     11  C   UNL     1     -20.592  18.636  10.220  0.00  0.00    +0.000 C 
BRANCH  10  12
ATOM     12  O   UNL     1     -19.513  16.581  10.808  0.00  0.00    +0.000 OA
ATOM     13  H   UNL     1     -20.090  15.819  10.637  0.00  0.00    +0.000 HD
ENDBRANCH  10  12
ENDBRANCH   9  10
ENDBRANCH   1   9
BRANCH   1  14
ATOM     14  C   UNL     1     -18.884  16.753  14.335  0.00  0.00    +0.000 C 
BRANCH  14  15
ATOM     15  C   UNL     1     -19.236  15.277  14.029  0.00  0.00    +0.000 C 
ATOM     16  C   UNL     1     -20.736  15.027  13.930  0.00  0.00    +0.000 C 
BRANCH  15  17
ATOM     17  O   UNL     1     -18.632  14.831  12.815  0.00  0.00    +0.000 OA
ATOM     18  H   UNL     1     -18.580  13.858  12.902  0.00  0.00    +0.000 HD
ENDBRANCH  15  17
ENDBRANCH  14  15
ENDBRANCH   1  14
TORSDOF 7
ENDMDL
MODEL 9
REMARK VINA RESULT:    -1.673     17.150     18.774
REMARK INTER + INTRA:          -2.707
REMARK INTER:                  -2.097
REMARK INTRA:                  -0.610
REMARK UNBOUND:                -0.446
REMARK  Name = 
REMARK  10 active torsions:
REMARK  status: ('A' for Active; 'I' for Inactive)
REMARK    1  A    between atoms: C_1  and  C_2
REMARK    2  A    between atoms: C_5  and  N_8
REMARK    3  A    between atoms: N_8  and  C_9
REMARK    4  A    between atoms: N_8  and  C_13
REMARK    5  A    between atoms: C_9  and  C_10
REMARK    6  A    between atoms: C_10  and  C_11
REMARK    7  A    between atoms: C_10  and  O_12
REMARK    8  A    between atoms: C_13  and  C_14
REMARK    9  A    between atoms: C_14  and  C_15
REMARK   10  A    between atoms: C_14  and  O_16
REMARK                            x       y       z     vdW  Elec       q    Type
REMARK                         _______ _______ _______ _____ _____    ______ ____
ROOT
ATOM      1  N   UNL     1     -18.714  18.648  10.307  0.00  0.00    +0.000 N 
ENDROOT
BRANCH   1   6
ATOM      2  C   UNL     1     -13.242  20.442   9.897  0.00  0.00    +0.000 C 
ATOM      3  C   UNL     1     -14.668  19.999  10.012  0.00  0.00    +0.000 A 
ATOM      4  C   UNL     1     -15.135  19.385  11.169  0.00  0.00    +0.000 A 
ATOM      5  C   UNL     1     -16.465  18.944  11.260  0.00  0.00    +0.000 A 
ATOM      6  C   UNL     1     -17.383  19.072  10.202  0.00  0.00    +0.000 A 
ATOM      7  C   UNL     1     -16.878  19.699   9.049  0.00  0.00    +0.000 A 
ATOM      8  C   UNL     1     -15.550  20.146   8.945  0.00  0.00    +0.000 A 
ENDBRANCH   1   6
BRANCH   1   9
ATOM      9  C   UNL     1     -19.696  19.016   9.259  0.00  0.00    +0.000 C 
BRANCH   9  10
ATOM     10  C   UNL     1     -20.356  17.783   8.595  0.00  0.00    +0.000 C 
ATOM     11  C   UNL     1     -20.833  18.113   7.185  0.00  0.00    +0.000 C 
BRANCH  10  12
ATOM     12  O   UNL     1     -19.431  16.690   8.506  0.00  0.00    +0.000 OA
ATOM     13  H   UNL     1     -19.643  16.180   7.706  0.00  0.00    +0.000 HD
ENDBRANCH  10  12
ENDBRANCH   9  10
ENDBRANCH   1   9
BRANCH   1  14
ATOM     14  C   UNL     1     -19.307  18.295  11.622  0.00  0.00    +0.000 C 
BRANCH  14  15
ATOM     15  C   UNL     1     -19.073  16.809  11.989  0.00  0.00    +0.000 C 
ATOM     16  C   UNL     1     -18.965  16.572  13.491  0.00  0.00    +0.000 C 
BRANCH  15  17
ATOM     17  O   UNL     1     -20.111  15.971  11.483  0.00  0.00    +0.000 OA
ATOM     18  H   UNL     1     -20.896  16.551  11.421  0.00  0.00    +0.000 HD
ENDBRANCH  15  17
ENDBRANCH  14  15
ENDBRANCH   1  14
TORSDOF 7
ENDMDL
