MODEL 1
REMARK VINA RESULT:    -4.341      0.000      0.000
REMARK INTER + INTRA:          -6.318
REMARK INTER:                  -5.864
REMARK INTRA:                  -0.454
REMARK UNBOUND:                -0.454
REMARK  Name = 
REMARK  10 active torsions:
REMARK  status: ('A' for Active; 'I' for Inactive)
REMARK    1  A    between atoms: C_1  and  C_2
REMARK    2  A    between atoms: C_5  and  N_8
REMARK    3  A    between atoms: N_8  and  C_9
REMARK    4  A    between atoms: N_8  and  C_13
REMARK    5  A    between atoms: C_9  and  C_10
REMARK    6  A    between atoms: C_10  and  C_11
REMARK    7  A    between atoms: C_10  and  O_12
REMARK    8  A    between atoms: C_13  and  C_14
REMARK    9  A    between atoms: C_14  and  C_15
REMARK   10  A    between atoms: C_14  and  O_16
REMARK                            x       y       z     vdW  Elec       q    Type
REMARK                         _______ _______ _______ _____ _____    ______ ____
ROOT
ATOM      1  N   UNL     1     -18.051 -19.040  -2.254  0.00  0.00    +0.000 N 
ENDROOT
BRANCH   1   6
ATOM      2  C   UNL     1     -15.034 -20.871  -6.823  0.00  0.00    +0.000 C 
ATOM      3  C   UNL     1     -15.798 -20.403  -5.623  0.00  0.00    +0.000 A 
ATOM      4  C   UNL     1     -16.688 -21.248  -4.969  0.00  0.00    +0.000 A 
ATOM      5  C   UNL     1     -17.424 -20.794  -3.862  0.00  0.00    +0.000 A 
ATOM      6  C   UNL     1     -17.328 -19.480  -3.371  0.00  0.00    +0.000 A 
ATOM      7  C   UNL     1     -16.417 -18.654  -4.055  0.00  0.00    +0.000 A 
ATOM      8  C   UNL     1     -15.673 -19.096  -5.161  0.00  0.00    +0.000 A 
ENDBRANCH   1   6
BRANCH   1   9
ATOM      9  C   UNL     1     -18.939 -17.858  -2.362  0.00  0.00    +0.000 C 
BRANCH   9  10
ATOM     10  C   UNL     1     -19.906 -17.942  -3.568  0.00  0.00    +0.000 C 
ATOM     11  C   UNL     1     -21.085 -18.857  -3.258  0.00  0.00    +0.000 C 
BRANCH  10  12
ATOM     12  O   UNL     1     -20.425 -16.648  -3.904  0.00  0.00    +0.000 OA
ATOM     13  H   UNL     1     -21.383 -16.656  -3.743  0.00  0.00    +0.000 HD
ENDBRANCH  10  12
ENDBRANCH   9  10
ENDBRANCH   1   9
BRANCH   1  14
ATOM     14  C   UNL     1     -17.605 -19.363  -0.874  0.00  0.00    +0.000 C 
BRANCH  14  15
ATOM     15  C   UNL     1     -18.008 -18.266   0.141  0.00  0.00    +0.000 C 
ATOM     16  C   UNL     1     -18.935 -18.775   1.238  0.00  0.00    +0.000 C 
BRANCH  15  17
ATOM     17  O   UNL     1     -16.866 -17.680   0.764  0.00  0.00    +0.000 OA
ATOM     18  H   UNL     1     -17.144 -16.772   0.997  0.00  0.00    +0.000 HD
ENDBRANCH  15  17
ENDBRANCH  14  15
ENDBRANCH   1  14
TORSDOF 7
ENDMDL
MODEL 2
REMARK VINA RESULT:    -4.009     16.656     17.809
REMARK INTER + INTRA:          -5.870
REMARK INTER:                  -5.332
REMARK INTRA:                  -0.538
REMARK UNBOUND:                -0.454
REMARK  Name = 
REMARK  10 active torsions:
REMARK  status: ('A' for Active; 'I' for Inactive)
REMARK    1  A    between atoms: C_1  and  C_2
REMARK    2  A    between atoms: C_5  and  N_8
REMARK    3  A    between atoms: N_8  and  C_9
REMARK    4  A    between atoms: N_8  and  C_13
REMARK    5  A    between atoms: C_9  and  C_10
REMARK    6  A    between atoms: C_10  and  C_11
REMARK    7  A    between atoms: C_10  and  O_12
REMARK    8  A    between atoms: C_13  and  C_14
REMARK    9  A    between atoms: C_14  and  C_15
REMARK   10  A    between atoms: C_14  and  O_16
REMARK                            x       y       z     vdW  Elec       q    Type
REMARK                         _______ _______ _______ _____ _____    ______ ____
ROOT
ATOM      1  N   UNL     1      -0.480 -18.888   3.750  0.00  0.00    +0.000 N 
ENDROOT
BRANCH   1   6
ATOM      2  C   UNL     1      -0.296 -20.190  -1.871  0.00  0.00    +0.000 C 
ATOM      3  C   UNL     1      -0.367 -19.861  -0.411  0.00  0.00    +0.000 A 
ATOM      4  C   UNL     1      -0.777 -18.603   0.018  0.00  0.00    +0.000 A 
ATOM      5  C   UNL     1      -0.813 -18.290   1.387  0.00  0.00    +0.000 A 
ATOM      6  C   UNL     1      -0.423 -19.200   2.386  0.00  0.00    +0.000 A 
ATOM      7  C   UNL     1      -0.017 -20.462   1.916  0.00  0.00    +0.000 A 
ATOM      8  C   UNL     1       0.022 -20.789   0.550  0.00  0.00    +0.000 A 
ENDBRANCH   1   6
BRANCH   1   9
ATOM      9  C   UNL     1      -1.483 -19.546   4.622  0.00  0.00    +0.000 C 
BRANCH   9  10
ATOM     10  C   UNL     1      -2.854 -19.730   3.928  0.00  0.00    +0.000 C 
ATOM     11  C   UNL     1      -3.795 -20.561   4.791  0.00  0.00    +0.000 C 
BRANCH  10  12
ATOM     12  O   UNL     1      -3.480 -18.463   3.681  0.00  0.00    +0.000 OA
ATOM     13  H   UNL     1      -4.442 -18.587   3.733  0.00  0.00    +0.000 HD
ENDBRANCH  10  12
ENDBRANCH   9  10
ENDBRANCH   1   9
BRANCH   1  14
ATOM     14  C   UNL     1       0.045 -17.598   4.266  0.00  0.00    +0.000 C 
BRANCH  14  15
ATOM     15  C   UNL     1      -0.818 -17.037   5.423  0.00  0.00    +0.000 C 
ATOM     16  C   UNL     1      -0.048 -16.099   6.345  0.00  0.00    +0.000 C 
BRANCH  15  17
ATOM     17  O   UNL     1      -1.961 -16.336   4.936  0.00  0.00    +0.000 OA
ATOM     18  H   UNL     1      -1.732 -15.389   5.019  0.00  0.00    +0.000 HD
ENDBRANCH  15  17
ENDBRANCH  14  15
ENDBRANCH   1  14
TORSDOF 7
ENDMDL
MODEL 3
REMARK VINA RESULT:    -3.994     16.418     17.692
REMARK INTER + INTRA:          -5.849
REMARK INTER:                  -5.142
REMARK INTRA:                  -0.707
REMARK UNBOUND:                -0.454
REMARK  Name = 
REMARK  10 active torsions:
REMARK  status: ('A' for Active; 'I' for Inactive)
REMARK    1  A    between atoms: C_1  and  C_2
REMARK    2  A    between atoms: C_5  and  N_8
REMARK    3  A    between atoms: N_8  and  C_9
REMARK    4  A    between atoms: N_8  and  C_13
REMARK    5  A    between atoms: C_9  and  C_10
REMARK    6  A    between atoms: C_10  and  C_11
REMARK    7  A    between atoms: C_10  and  O_12
REMARK    8  A    between atoms: C_13  and  C_14
REMARK    9  A    between atoms: C_14  and  C_15
REMARK   10  A    between atoms: C_14  and  O_16
REMARK                            x       y       z     vdW  Elec       q    Type
REMARK                         _______ _______ _______ _____ _____    ______ ____
ROOT
ATOM      1  N   UNL     1      -1.040 -19.091   3.366  0.00  0.00    +0.000 N 
ENDROOT
BRANCH   1   6
ATOM      2  C   UNL     1       0.030 -20.376  -2.160  0.00  0.00    +0.000 C 
ATOM      3  C   UNL     1      -0.269 -20.056  -0.727  0.00  0.00    +0.000 A 
ATOM      4  C   UNL     1      -0.987 -18.916  -0.384  0.00  0.00    +0.000 A 
ATOM      5  C   UNL     1      -1.238 -18.605   0.962  0.00  0.00    +0.000 A 
ATOM      6  C   UNL     1      -0.769 -19.397   2.026  0.00  0.00    +0.000 A 
ATOM      7  C   UNL     1      -0.049 -20.543   1.643  0.00  0.00    +0.000 A 
ATOM      8  C   UNL     1       0.208 -20.866   0.300  0.00  0.00    +0.000 A 
ENDBRANCH   1   6
BRANCH   1   9
ATOM      9  C   UNL     1      -0.189 -18.119   4.093  0.00  0.00    +0.000 C 
BRANCH   9  10
ATOM     10  C   UNL     1      -0.916 -17.468   5.296  0.00  0.00    +0.000 C 
ATOM     11  C   UNL     1       0.054 -16.650   6.140  0.00  0.00    +0.000 C 
BRANCH  10  12
ATOM     12  O   UNL     1      -1.964 -16.595   4.853  0.00  0.00    +0.000 OA
ATOM     13  H   UNL     1      -2.053 -15.877   5.501  0.00  0.00    +0.000 HD
ENDBRANCH  10  12
ENDBRANCH   9  10
ENDBRANCH   1   9
BRANCH   1  14
ATOM     14  C   UNL     1      -1.791 -20.035   4.233  0.00  0.00    +0.000 C 
BRANCH  14  15
ATOM     15  C   UNL     1      -3.308 -20.029   3.926  0.00  0.00    +0.000 C 
ATOM     16  C   UNL     1      -4.148 -20.640   5.042  0.00  0.00    +0.000 C 
BRANCH  15  17
ATOM     17  O   UNL     1      -3.792 -18.709   3.682  0.00  0.00    +0.000 OA
ATOM     18  H   UNL     1      -2.991 -18.175   3.507  0.00  0.00    +0.000 HD
ENDBRANCH  15  17
ENDBRANCH  14  15
ENDBRANCH   1  14
TORSDOF 7
ENDMDL
MODEL 4
REMARK VINA RESULT:    -3.908     17.054     18.665
REMARK INTER + INTRA:          -5.733
REMARK INTER:                  -5.472
REMARK INTRA:                  -0.261
REMARK UNBOUND:                -0.454
REMARK  Name = 
REMARK  10 active torsions:
REMARK  status: ('A' for Active; 'I' for Inactive)
REMARK    1  A    between atoms: C_1  and  C_2
REMARK    2  A    between atoms: C_5  and  N_8
REMARK    3  A    between atoms: N_8  and  C_9
REMARK    4  A    between atoms: N_8  and  C_13
REMARK    5  A    between atoms: C_9  and  C_10
REMARK    6  A    between atoms: C_10  and  C_11
REMARK    7  A    between atoms: C_10  and  O_12
REMARK    8  A    between atoms: C_13  and  C_14
REMARK    9  A    between atoms: C_14  and  C_15
REMARK   10  A    between atoms: C_14  and  O_16
REMARK                            x       y       z     vdW  Elec       q    Type
REMARK                         _______ _______ _______ _____ _____    ______ ____
ROOT
ATOM      1  N   UNL     1      -0.966 -18.907   3.846  0.00  0.00    +0.000 N 
ENDROOT
BRANCH   1   6
ATOM      2  C   UNL     1      -1.451 -16.411   9.029  0.00  0.00    +0.000 C 
ATOM      3  C   UNL     1      -1.349 -17.055   7.680  0.00  0.00    +0.000 A 
ATOM      4  C   UNL     1      -1.508 -18.428   7.531  0.00  0.00    +0.000 A 
ATOM      5  C   UNL     1      -1.382 -19.030   6.268  0.00  0.00    +0.000 A 
ATOM      6  C   UNL     1      -1.071 -18.303   5.105  0.00  0.00    +0.000 A 
ATOM      7  C   UNL     1      -0.919 -16.916   5.294  0.00  0.00    +0.000 A 
ATOM      8  C   UNL     1      -1.045 -16.301   6.550  0.00  0.00    +0.000 A 
ENDBRANCH   1   6
BRANCH   1   9
ATOM      9  C   UNL     1      -1.973 -19.907   3.415  0.00  0.00    +0.000 C 
BRANCH   9  10
ATOM     10  C   UNL     1      -3.383 -19.296   3.229  0.00  0.00    +0.000 C 
ATOM     11  C   UNL     1      -3.986 -19.715   1.893  0.00  0.00    +0.000 C 
BRANCH  10  12
ATOM     12  O   UNL     1      -4.271 -19.723   4.271  0.00  0.00    +0.000 OA
ATOM     13  H   UNL     1      -4.844 -18.974   4.505  0.00  0.00    +0.000 HD
ENDBRANCH  10  12
ENDBRANCH   9  10
ENDBRANCH   1   9
BRANCH   1  14
ATOM     14  C   UNL     1       0.338 -18.988   3.139  0.00  0.00    +0.000 C 
BRANCH  14  15
ATOM     15  C   UNL     1       0.367 -18.111   1.864  0.00  0.00    +0.000 C 
ATOM     16  C   UNL     1      -0.561 -18.617   0.767  0.00  0.00    +0.000 C 
BRANCH  15  17
ATOM     17  O   UNL     1       0.018 -16.757   2.149  0.00  0.00    +0.000 OA
ATOM     18  H   UNL     1      -0.151 -16.351   1.275  0.00  0.00    +0.000 HD
ENDBRANCH  15  17
ENDBRANCH  14  15
ENDBRANCH   1  14
TORSDOF 7
ENDMDL
MODEL 5
REMARK VINA RESULT:    -3.651      1.823      2.359
REMARK INTER + INTRA:          -5.385
REMARK INTER:                  -4.839
REMARK INTRA:                  -0.547
REMARK UNBOUND:                -0.454
REMARK  Name = 
REMARK  10 active torsions:
REMARK  status: ('A' for Active; 'I' for Inactive)
REMARK    1  A    between atoms: C_1  and  C_2
REMARK    2  A    between atoms: C_5  and  N_8
REMARK    3  A    between atoms: N_8  and  C_9
REMARK    4  A    between atoms: N_8  and  C_13
REMARK    5  A    between atoms: C_9  and  C_10
REMARK    6  A    between atoms: C_10  and  C_11
REMARK    7  A    between atoms: C_10  and  O_12
REMARK    8  A    between atoms: C_13  and  C_14
REMARK    9  A    between atoms: C_14  and  C_15
REMARK   10  A    between atoms: C_14  and  O_16
REMARK                            x       y       z     vdW  Elec       q    Type
REMARK                         _______ _______ _______ _____ _____    ______ ____
ROOT
ATOM      1  N   UNL     1     -18.211 -19.137  -2.254  0.00  0.00    +0.000 N 
ENDROOT
BRANCH   1   6
ATOM      2  C   UNL     1     -15.000 -20.791  -6.758  0.00  0.00    +0.000 C 
ATOM      3  C   UNL     1     -15.814 -20.368  -5.574  0.00  0.00    +0.000 A 
ATOM      4  C   UNL     1     -16.684 -21.257  -4.951  0.00  0.00    +0.000 A 
ATOM      5  C   UNL     1     -17.467 -20.847  -3.860  0.00  0.00    +0.000 A 
ATOM      6  C   UNL     1     -17.441 -19.534  -3.355  0.00  0.00    +0.000 A 
ATOM      7  C   UNL     1     -16.550 -18.663  -4.008  0.00  0.00    +0.000 A 
ATOM      8  C   UNL     1     -15.759 -19.062  -5.098  0.00  0.00    +0.000 A 
ENDBRANCH   1   6
BRANCH   1   9
ATOM      9  C   UNL     1     -19.549 -19.736  -2.028  0.00  0.00    +0.000 C 
BRANCH   9  10
ATOM     10  C   UNL     1     -19.743 -20.240  -0.577  0.00  0.00    +0.000 C 
ATOM     11  C   UNL     1     -21.112 -20.885  -0.403  0.00  0.00    +0.000 C 
BRANCH  10  12
ATOM     12  O   UNL     1     -18.746 -21.213  -0.233  0.00  0.00    +0.000 OA
ATOM     13  H   UNL     1     -18.778 -21.924  -0.894  0.00  0.00    +0.000 HD
ENDBRANCH  10  12
ENDBRANCH   9  10
ENDBRANCH   1   9
BRANCH   1  14
ATOM     14  C   UNL     1     -17.998 -17.819  -1.603  0.00  0.00    +0.000 C 
BRANCH  14  15
ATOM     15  C   UNL     1     -17.044 -17.915  -0.388  0.00  0.00    +0.000 C 
ATOM     16  C   UNL     1     -15.747 -17.138  -0.582  0.00  0.00    +0.000 C 
BRANCH  15  17
ATOM     17  O   UNL     1     -17.664 -17.448   0.808  0.00  0.00    +0.000 OA
ATOM     18  H   UNL     1     -18.559 -17.844   0.801  0.00  0.00    +0.000 HD
ENDBRANCH  15  17
ENDBRANCH  14  15
ENDBRANCH   1  14
TORSDOF 7
ENDMDL
MODEL 6
REMARK VINA RESULT:    -3.528      3.640      7.579
REMARK INTER + INTRA:          -5.220
REMARK INTER:                  -4.713
REMARK INTRA:                  -0.507
REMARK UNBOUND:                -0.454
REMARK  Name = 
REMARK  10 active torsions:
REMARK  status: ('A' for Active; 'I' for Inactive)
REMARK    1  A    between atoms: C_1  and  C_2
REMARK    2  A    between atoms: C_5  and  N_8
REMARK    3  A    between atoms: N_8  and  C_9
REMARK    4  A    between atoms: N_8  and  C_13
REMARK    5  A    between atoms: C_9  and  C_10
REMARK    6  A    between atoms: C_10  and  C_11
REMARK    7  A    between atoms: C_10  and  O_12
REMARK    8  A    between atoms: C_13  and  C_14
REMARK    9  A    between atoms: C_14  and  C_15
REMARK   10  A    between atoms: C_14  and  O_16
REMARK                            x       y       z     vdW  Elec       q    Type
REMARK                         _______ _______ _______ _____ _____    ______ ____
ROOT
ATOM      1  N   UNL     1     -18.948 -19.939   1.385  0.00  0.00    +0.000 N 
ENDROOT
BRANCH   1   6
ATOM      2  C   UNL     1     -20.156 -20.715   6.976  0.00  0.00    +0.000 C 
ATOM      3  C   UNL     1     -19.855 -20.534   5.520  0.00  0.00    +0.000 A 
ATOM      4  C   UNL     1     -18.694 -21.057   4.960  0.00  0.00    +0.000 A 
ATOM      5  C   UNL     1     -18.403 -20.859   3.601  0.00  0.00    +0.000 A 
ATOM      6  C   UNL     1     -19.235 -20.116   2.744  0.00  0.00    +0.000 A 
ATOM      7  C   UNL     1     -20.401 -19.604   3.343  0.00  0.00    +0.000 A 
ATOM      8  C   UNL     1     -20.706 -19.797   4.701  0.00  0.00    +0.000 A 
ENDBRANCH   1   6
BRANCH   1   9
ATOM      9  C   UNL     1     -18.783 -18.574   0.831  0.00  0.00    +0.000 C 
BRANCH   9  10
ATOM     10  C   UNL     1     -17.489 -18.417  -0.004  0.00  0.00    +0.000 C 
ATOM     11  C   UNL     1     -17.800 -17.880  -1.396  0.00  0.00    +0.000 C 
BRANCH  10  12
ATOM     12  O   UNL     1     -16.575 -17.510   0.628  0.00  0.00    +0.000 OA
ATOM     13  H   UNL     1     -15.753 -17.500   0.110  0.00  0.00    +0.000 HD
ENDBRANCH  10  12
ENDBRANCH   9  10
ENDBRANCH   1   9
BRANCH   1  14
ATOM     14  C   UNL     1     -19.295 -20.981   0.384  0.00  0.00    +0.000 C 
BRANCH  14  15
ATOM     15  C   UNL     1     -20.425 -20.522  -0.569  0.00  0.00    +0.000 C 
ATOM     16  C   UNL     1     -20.130 -20.815  -2.035  0.00  0.00    +0.000 C 
BRANCH  15  17
ATOM     17  O   UNL     1     -21.672 -21.133  -0.239  0.00  0.00    +0.000 OA
ATOM     18  H   UNL     1     -21.803 -20.943   0.712  0.00  0.00    +0.000 HD
ENDBRANCH  15  17
ENDBRANCH  14  15
ENDBRANCH   1  14
TORSDOF 7
ENDMDL
