MODEL 1
REMARK VINA RESULT:    -3.897      0.000      0.000
REMARK INTER + INTRA:          -4.292
REMARK INTER:                  -4.239
REMARK INTRA:                  -0.052
REMARK UNBOUND:                -0.052
REMARK  Name = 
REMARK  3 active torsions:
REMARK  status: ('A' for Active; 'I' for Inactive)
REMARK    1  A    between atoms: C_1  and  O_2
REMARK    2  A    between atoms: O_2  and  C_3
REMARK    3  A    between atoms: C_8  and  O_9
REMARK                            x       y       z     vdW  Elec       q    Type
REMARK                         _______ _______ _______ _____ _____    ______ ____
ROOT
ATOM      1  C   UNL     1      -0.557  14.414  -8.196  0.00  0.00    +0.000 A 
ATOM      2  C   UNL     1      -0.937  14.826  -9.473  0.00  0.00    +0.000 A 
ATOM      3  C   UNL     1      -0.942  13.909 -10.531  0.00  0.00    +0.000 A 
ATOM      4  C   UNL     1      -0.569  12.580 -10.318  0.00  0.00    +0.000 A 
ATOM      5  C   UNL     1      -0.189  12.161  -9.045  0.00  0.00    +0.000 A 
ATOM      6  C   UNL     1      -0.187  13.078  -8.002  0.00  0.00    +0.000 A 
ENDROOT
BRANCH   1   8
ATOM      7  C   UNL     1       0.439  16.264  -7.087  0.00  0.00    +0.000 C 
ATOM      8  O   UNL     1      -0.505  15.200  -7.073  0.00  0.00    +0.000 OA
ENDBRANCH   1   8
BRANCH   6   9
ATOM      9  O   UNL     1       0.191  12.642  -6.760  0.00  0.00    +0.000 OA
ATOM     10  H   UNL     1       0.117  11.670  -6.805  0.00  0.00    +0.000 HD
ENDBRANCH   6   9
TORSDOF 2
ENDMDL
MODEL 2
REMARK VINA RESULT:    -3.802      1.109      2.297
REMARK INTER + INTRA:          -4.187
REMARK INTER:                  -4.143
REMARK INTRA:                  -0.045
REMARK UNBOUND:                -0.052
REMARK  Name = 
REMARK  3 active torsions:
REMARK  status: ('A' for Active; 'I' for Inactive)
REMARK    1  A    between atoms: C_1  and  O_2
REMARK    2  A    between atoms: O_2  and  C_3
REMARK    3  A    between atoms: C_8  and  O_9
REMARK                            x       y       z     vdW  Elec       q    Type
REMARK                         _______ _______ _______ _____ _____    ______ ____
ROOT
ATOM      1  C   UNL     1      -0.496  14.578  -8.191  0.00  0.00    +0.000 A 
ATOM      2  C   UNL     1      -0.127  13.295  -7.790  0.00  0.00    +0.000 A 
ATOM      3  C   UNL     1      -0.113  12.248  -8.720  0.00  0.00    +0.000 A 
ATOM      4  C   UNL     1      -0.468  12.478 -10.050  0.00  0.00    +0.000 A 
ATOM      5  C   UNL     1      -0.837  13.758 -10.459  0.00  0.00    +0.000 A 
ATOM      6  C   UNL     1      -0.848  14.790  -9.530  0.00  0.00    +0.000 A 
ENDROOT
BRANCH   1   8
ATOM      7  C   UNL     1       0.689  16.269  -7.015  0.00  0.00    +0.000 C 
ATOM      8  O   UNL     1      -0.555  15.692  -7.392  0.00  0.00    +0.000 OA
ENDBRANCH   1   8
BRANCH   6   9
ATOM      9  O   UNL     1      -1.215  16.039  -9.955  0.00  0.00    +0.000 OA
ATOM     10  H   UNL     1      -0.459  16.612  -9.725  0.00  0.00    +0.000 HD
ENDBRANCH   6   9
TORSDOF 2
ENDMDL
MODEL 3
REMARK VINA RESULT:    -3.775      1.294      3.223
REMARK INTER + INTRA:          -4.159
REMARK INTER:                  -4.115
REMARK INTRA:                  -0.044
REMARK UNBOUND:                -0.052
REMARK  Name = 
REMARK  3 active torsions:
REMARK  status: ('A' for Active; 'I' for Inactive)
REMARK    1  A    between atoms: C_1  and  O_2
REMARK    2  A    between atoms: O_2  and  C_3
REMARK    3  A    between atoms: C_8  and  O_9
REMARK                            x       y       z     vdW  Elec       q    Type
REMARK                         _______ _______ _______ _____ _____    ______ ____
ROOT
ATOM      1  C   UNL     1      -0.221  12.346  -9.207  0.00  0.00    +0.000 A 
ATOM      2  C   UNL     1      -0.665  13.046 -10.328  0.00  0.00    +0.000 A 
ATOM      3  C   UNL     1      -1.031  14.393 -10.212  0.00  0.00    +0.000 A 
ATOM      4  C   UNL     1      -0.956  15.043  -8.978  0.00  0.00    +0.000 A 
ATOM      5  C   UNL     1      -0.513  14.350  -7.854  0.00  0.00    +0.000 A 
ATOM      6  C   UNL     1      -0.152  13.015  -7.979  0.00  0.00    +0.000 A 
ENDROOT
BRANCH   1   8
ATOM      7  C   UNL     1      -0.589  10.126  -9.970  0.00  0.00    +0.000 C 
ATOM      8  O   UNL     1       0.167  11.031  -9.174  0.00  0.00    +0.000 OA
ENDBRANCH   1   8
BRANCH   6   9
ATOM      9  O   UNL     1       0.281  12.355  -6.860  0.00  0.00    +0.000 OA
ATOM     10  H   UNL     1       1.045  12.874  -6.545  0.00  0.00    +0.000 HD
ENDBRANCH   6   9
TORSDOF 2
ENDMDL
MODEL 4
REMARK VINA RESULT:    -3.572      6.439      7.802
REMARK INTER + INTRA:          -3.938
REMARK INTER:                  -3.911
REMARK INTRA:                  -0.027
REMARK UNBOUND:                -0.052
REMARK  Name = 
REMARK  3 active torsions:
REMARK  status: ('A' for Active; 'I' for Inactive)
REMARK    1  A    between atoms: C_1  and  O_2
REMARK    2  A    between atoms: O_2  and  C_3
REMARK    3  A    between atoms: C_8  and  O_9
REMARK                            x       y       z     vdW  Elec       q    Type
REMARK                         _______ _______ _______ _____ _____    ______ ____
ROOT
ATOM      1  C   UNL     1      -1.417  13.848  -1.304  0.00  0.00    +0.000 A 
ATOM      2  C   UNL     1      -2.086  14.761  -0.491  0.00  0.00    +0.000 A 
ATOM      3  C   UNL     1      -1.787  16.126  -0.578  0.00  0.00    +0.000 A 
ATOM      4  C   UNL     1      -0.819  16.583  -1.475  0.00  0.00    +0.000 A 
ATOM      5  C   UNL     1      -0.147  15.677  -2.292  0.00  0.00    +0.000 A 
ATOM      6  C   UNL     1      -0.450  14.325  -2.198  0.00  0.00    +0.000 A 
ENDROOT
BRANCH   1   8
ATOM      7  C   UNL     1      -0.988  11.746  -0.282  0.00  0.00    +0.000 C 
ATOM      8  O   UNL     1      -1.606  12.489  -1.325  0.00  0.00    +0.000 OA
ENDBRANCH   1   8
BRANCH   6   9
ATOM      9  O   UNL     1       0.225  13.453  -3.011  0.00  0.00    +0.000 OA
ATOM     10  H   UNL     1       1.133  13.808  -3.056  0.00  0.00    +0.000 HD
ENDBRANCH   6   9
TORSDOF 2
ENDMDL
MODEL 5
REMARK VINA RESULT:    -3.484      6.093      7.039
REMARK INTER + INTRA:          -3.842
REMARK INTER:                  -3.804
REMARK INTRA:                  -0.038
REMARK UNBOUND:                -0.052
REMARK  Name = 
REMARK  3 active torsions:
REMARK  status: ('A' for Active; 'I' for Inactive)
REMARK    1  A    between atoms: C_1  and  O_2
REMARK    2  A    between atoms: O_2  and  C_3
REMARK    3  A    between atoms: C_8  and  O_9
REMARK                            x       y       z     vdW  Elec       q    Type
REMARK                         _______ _______ _______ _____ _____    ______ ____
ROOT
ATOM      1  C   UNL     1      -0.532  14.505  -2.118  0.00  0.00    +0.000 A 
ATOM      2  C   UNL     1      -1.308  14.969  -1.056  0.00  0.00    +0.000 A 
ATOM      3  C   UNL     1      -2.044  14.064  -0.280  0.00  0.00    +0.000 A 
ATOM      4  C   UNL     1      -2.007  12.697  -0.561  0.00  0.00    +0.000 A 
ATOM      5  C   UNL     1      -1.234  12.226  -1.620  0.00  0.00    +0.000 A 
ATOM      6  C   UNL     1      -0.507  13.131  -2.384  0.00  0.00    +0.000 A 
ENDROOT
BRANCH   1   8
ATOM      7  C   UNL     1       0.013  16.677  -2.913  0.00  0.00    +0.000 C 
ATOM      8  O   UNL     1       0.235  15.272  -2.957  0.00  0.00    +0.000 OA
ENDBRANCH   1   8
BRANCH   6   9
ATOM      9  O   UNL     1       0.246  12.644  -3.419  0.00  0.00    +0.000 OA
ATOM     10  H   UNL     1       1.155  12.939  -3.225  0.00  0.00    +0.000 HD
ENDBRANCH   6   9
TORSDOF 2
ENDMDL
MODEL 6
REMARK VINA RESULT:    -3.306     13.428     13.967
REMARK INTER + INTRA:          -3.648
REMARK INTER:                  -3.606
REMARK INTRA:                  -0.042
REMARK UNBOUND:                -0.052
REMARK  Name = 
REMARK  3 active torsions:
REMARK  status: ('A' for Active; 'I' for Inactive)
REMARK    1  A    between atoms: C_1  and  O_2
REMARK    2  A    between atoms: O_2  and  C_3
REMARK    3  A    between atoms: C_8  and  O_9
REMARK                            x       y       z     vdW  Elec       q    Type
REMARK                         _______ _______ _______ _____ _____    ______ ____
ROOT
ATOM      1  C   UNL     1       9.285  15.025 -18.230  0.00  0.00    +0.000 A 
ATOM      2  C   UNL     1      10.298  15.927 -18.551  0.00  0.00    +0.000 A 
ATOM      3  C   UNL     1      11.492  15.928 -17.817  0.00  0.00    +0.000 A 
ATOM      4  C   UNL     1      11.676  15.030 -16.764  0.00  0.00    +0.000 A 
ATOM      5  C   UNL     1      10.668  14.126 -16.438  0.00  0.00    +0.000 A 
ATOM      6  C   UNL     1       9.487  14.132 -17.171  0.00  0.00    +0.000 A 
ENDROOT
BRANCH   1   8
ATOM      7  C   UNL     1       7.493  16.119 -19.344  0.00  0.00    +0.000 C 
ATOM      8  O   UNL     1       8.070  14.913 -18.859  0.00  0.00    +0.000 OA
ENDBRANCH   1   8
BRANCH   6   9
ATOM      9  O   UNL     1       8.511  13.234 -16.832  0.00  0.00    +0.000 OA
ATOM     10  H   UNL     1       8.996  12.452 -16.506  0.00  0.00    +0.000 HD
ENDBRANCH   6   9
TORSDOF 2
ENDMDL
MODEL 7
REMARK VINA RESULT:    -3.244     13.975     14.356
REMARK INTER + INTRA:          -3.581
REMARK INTER:                  -3.528
REMARK INTRA:                  -0.052
REMARK UNBOUND:                -0.052
REMARK  Name = 
REMARK  3 active torsions:
REMARK  status: ('A' for Active; 'I' for Inactive)
REMARK    1  A    between atoms: C_1  and  O_2
REMARK    2  A    between atoms: O_2  and  C_3
REMARK    3  A    between atoms: C_8  and  O_9
REMARK                            x       y       z     vdW  Elec       q    Type
REMARK                         _______ _______ _______ _____ _____    ______ ____
ROOT
ATOM      1  C   UNL     1      11.345  15.431 -17.179  0.00  0.00    +0.000 A 
ATOM      2  C   UNL     1      10.477  15.711 -18.234  0.00  0.00    +0.000 A 
ATOM      3  C   UNL     1       9.252  15.038 -18.330  0.00  0.00    +0.000 A 
ATOM      4  C   UNL     1       8.892  14.085 -17.376  0.00  0.00    +0.000 A 
ATOM      5  C   UNL     1       9.753  13.800 -16.319  0.00  0.00    +0.000 A 
ATOM      6  C   UNL     1      10.966  14.472 -16.232  0.00  0.00    +0.000 A 
ENDROOT
BRANCH   1   8
ATOM      7  C   UNL     1      13.600  15.680 -17.885  0.00  0.00    +0.000 C 
ATOM      8  O   UNL     1      12.570  16.009 -16.961  0.00  0.00    +0.000 OA
ENDBRANCH   1   8
BRANCH   6   9
ATOM      9  O   UNL     1      11.796  14.174 -15.184  0.00  0.00    +0.000 OA
ATOM     10  H   UNL     1      11.819  13.199 -15.155  0.00  0.00    +0.000 HD
ENDBRANCH   6   9
TORSDOF 2
ENDMDL
MODEL 8
REMARK VINA RESULT:    -3.123     12.915     13.558
REMARK INTER + INTRA:          -3.449
REMARK INTER:                  -3.396
REMARK INTRA:                  -0.053
REMARK UNBOUND:                -0.052
REMARK  Name = 
REMARK  3 active torsions:
REMARK  status: ('A' for Active; 'I' for Inactive)
REMARK    1  A    between atoms: C_1  and  O_2
REMARK    2  A    between atoms: O_2  and  C_3
REMARK    3  A    between atoms: C_8  and  O_9
REMARK                            x       y       z     vdW  Elec       q    Type
REMARK                         _______ _______ _______ _____ _____    ______ ____
ROOT
ATOM      1  C   UNL     1       8.990  15.217 -18.494  0.00  0.00    +0.000 A 
ATOM      2  C   UNL     1       8.541  16.233 -19.336  0.00  0.00    +0.000 A 
ATOM      3  C   UNL     1       7.170  16.383 -19.582  0.00  0.00    +0.000 A 
ATOM      4  C   UNL     1       6.246  15.520 -18.990  0.00  0.00    +0.000 A 
ATOM      5  C   UNL     1       6.687  14.503 -18.147  0.00  0.00    +0.000 A 
ATOM      6  C   UNL     1       8.049  14.361 -17.909  0.00  0.00    +0.000 A 
ENDROOT
BRANCH   1   8
ATOM      7  C   UNL     1      11.144  14.531 -19.226  0.00  0.00    +0.000 C 
ATOM      8  O   UNL     1      10.296  14.954 -18.166  0.00  0.00    +0.000 OA
ENDBRANCH   1   8
BRANCH   6   9
ATOM      9  O   UNL     1       8.458  13.354 -17.077  0.00  0.00    +0.000 OA
ATOM     10  H   UNL     1       9.106  12.846 -17.602  0.00  0.00    +0.000 HD
ENDBRANCH   6   9
TORSDOF 2
ENDMDL
MODEL 9
REMARK VINA RESULT:    -3.107      6.583      7.849
REMARK INTER + INTRA:          -3.432
REMARK INTER:                  -3.395
REMARK INTRA:                  -0.038
REMARK UNBOUND:                -0.052
REMARK  Name = 
REMARK  3 active torsions:
REMARK  status: ('A' for Active; 'I' for Inactive)
REMARK    1  A    between atoms: C_1  and  O_2
REMARK    2  A    between atoms: O_2  and  C_3
REMARK    3  A    between atoms: C_8  and  O_9
REMARK                            x       y       z     vdW  Elec       q    Type
REMARK                         _______ _______ _______ _____ _____    ______ ____
ROOT
ATOM      1  C   UNL     1      -1.172  13.672  -1.605  0.00  0.00    +0.000 A 
ATOM      2  C   UNL     1      -0.003  14.183  -2.166  0.00  0.00    +0.000 A 
ATOM      3  C   UNL     1       0.341  15.526  -1.965  0.00  0.00    +0.000 A 
ATOM      4  C   UNL     1      -0.480  16.361  -1.205  0.00  0.00    +0.000 A 
ATOM      5  C   UNL     1      -1.650  15.857  -0.640  0.00  0.00    +0.000 A 
ATOM      6  C   UNL     1      -1.983  14.524  -0.845  0.00  0.00    +0.000 A 
ENDROOT
BRANCH   1   8
ATOM      7  C   UNL     1      -0.895  11.522  -2.578  0.00  0.00    +0.000 C 
ATOM      8  O   UNL     1      -1.631  12.384  -1.719  0.00  0.00    +0.000 OA
ENDBRANCH   1   8
BRANCH   6   9
ATOM      9  O   UNL     1      -3.138  14.052  -0.280  0.00  0.00    +0.000 OA
ATOM     10  H   UNL     1      -2.905  13.877   0.651  0.00  0.00    +0.000 HD
ENDBRANCH   6   9
TORSDOF 2
ENDMDL
