MODEL 1
REMARK VINA RESULT:    -3.204      0.000      0.000
REMARK INTER + INTRA:          -4.598
REMARK INTER:                  -4.328
REMARK INTRA:                  -0.270
REMARK UNBOUND:                -0.270
REMARK  Name = 
REMARK  10 active torsions:
REMARK  status: ('A' for Active; 'I' for Inactive)
REMARK    1  A    between atoms: C_1  and  C_2
REMARK    2  A    between atoms: C_5  and  N_8
REMARK    3  A    between atoms: N_8  and  C_9
REMARK    4  A    between atoms: N_8  and  C_13
REMARK    5  A    between atoms: C_9  and  C_10
REMARK    6  A    between atoms: C_10  and  C_11
REMARK    7  A    between atoms: C_10  and  O_12
REMARK    8  A    between atoms: C_13  and  C_14
REMARK    9  A    between atoms: C_14  and  C_15
REMARK   10  A    between atoms: C_14  and  O_16
REMARK                            x       y       z     vdW  Elec       q    Type
REMARK                         _______ _______ _______ _____ _____    ______ ____
ROOT
ATOM      1  N   UNL     1     -20.627   0.347   7.356  0.00  0.00    +0.000 N 
ENDROOT
BRANCH   1   6
ATOM      2  C   UNL     1     -21.205   1.438  12.995  0.00  0.00    +0.000 C 
ATOM      3  C   UNL     1     -21.080   1.151  11.530  0.00  0.00    +0.000 A 
ATOM      4  C   UNL     1     -20.822  -0.137  11.074  0.00  0.00    +0.000 A 
ATOM      5  C   UNL     1     -20.675  -0.395   9.701  0.00  0.00    +0.000 A 
ATOM      6  C   UNL     1     -20.755   0.614   8.725  0.00  0.00    +0.000 A 
ATOM      7  C   UNL     1     -21.019   1.904   9.221  0.00  0.00    +0.000 A 
ATOM      8  C   UNL     1     -21.169   2.175  10.591  0.00  0.00    +0.000 A 
ENDBRANCH   1   6
BRANCH   1   9
ATOM      9  C   UNL     1     -21.160   1.305   6.358  0.00  0.00    +0.000 C 
BRANCH   9  10
ATOM     10  C   UNL     1     -20.078   2.274   5.819  0.00  0.00    +0.000 C 
ATOM     11  C   UNL     1     -20.338   2.623   4.359  0.00  0.00    +0.000 C 
BRANCH  10  12
ATOM     12  O   UNL     1     -20.060   3.495   6.571  0.00  0.00    +0.000 OA
ATOM     13  H   UNL     1     -20.486   3.328   7.428  0.00  0.00    +0.000 HD
ENDBRANCH  10  12
ENDBRANCH   9  10
ENDBRANCH   1   9
BRANCH   1  14
ATOM     14  C   UNL     1     -20.453  -1.042   6.856  0.00  0.00    +0.000 C 
BRANCH  14  15
ATOM     15  C   UNL     1     -18.996  -1.328   6.421  0.00  0.00    +0.000 C 
ATOM     16  C   UNL     1     -18.865  -1.648   4.937  0.00  0.00    +0.000 C 
BRANCH  15  17
ATOM     17  O   UNL     1     -18.133  -0.230   6.714  0.00  0.00    +0.000 OA
ATOM     18  H   UNL     1     -18.449   0.118   7.573  0.00  0.00    +0.000 HD
ENDBRANCH  15  17
ENDBRANCH  14  15
ENDBRANCH   1  14
TORSDOF 7
ENDMDL
MODEL 2
REMARK VINA RESULT:    -3.171      2.172      5.842
REMARK INTER + INTRA:          -4.553
REMARK INTER:                  -4.177
REMARK INTRA:                  -0.376
REMARK UNBOUND:                -0.270
REMARK  Name = 
REMARK  10 active torsions:
REMARK  status: ('A' for Active; 'I' for Inactive)
REMARK    1  A    between atoms: C_1  and  C_2
REMARK    2  A    between atoms: C_5  and  N_8
REMARK    3  A    between atoms: N_8  and  C_9
REMARK    4  A    between atoms: N_8  and  C_13
REMARK    5  A    between atoms: C_9  and  C_10
REMARK    6  A    between atoms: C_10  and  C_11
REMARK    7  A    between atoms: C_10  and  O_12
REMARK    8  A    between atoms: C_13  and  C_14
REMARK    9  A    between atoms: C_14  and  C_15
REMARK   10  A    between atoms: C_14  and  O_16
REMARK                            x       y       z     vdW  Elec       q    Type
REMARK                         _______ _______ _______ _____ _____    ______ ____
ROOT
ATOM      1  N   UNL     1     -20.474   0.107   7.321  0.00  0.00    +0.000 N 
ENDROOT
BRANCH   1   6
ATOM      2  C   UNL     1     -20.087   1.627   1.765  0.00  0.00    +0.000 C 
ATOM      3  C   UNL     1     -20.212   1.228   3.203  0.00  0.00    +0.000 A 
ATOM      4  C   UNL     1     -20.491   2.172   4.185  0.00  0.00    +0.000 A 
ATOM      5  C   UNL     1     -20.577   1.797   5.536  0.00  0.00    +0.000 A 
ATOM      6  C   UNL     1     -20.367   0.477   5.974  0.00  0.00    +0.000 A 
ATOM      7  C   UNL     1     -20.089  -0.451   4.955  0.00  0.00    +0.000 A 
ATOM      8  C   UNL     1     -20.002  -0.090   3.600  0.00  0.00    +0.000 A 
ENDBRANCH   1   6
BRANCH   1   9
ATOM      9  C   UNL     1     -20.336  -1.317   7.713  0.00  0.00    +0.000 C 
BRANCH   9  10
ATOM     10  C   UNL     1     -18.926  -1.656   8.254  0.00  0.00    +0.000 C 
ATOM     11  C   UNL     1     -17.843  -1.030   7.384  0.00  0.00    +0.000 C 
BRANCH  10  12
ATOM     12  O   UNL     1     -18.757  -1.169   9.593  0.00  0.00    +0.000 OA
ATOM     13  H   UNL     1     -17.958  -1.579   9.964  0.00  0.00    +0.000 HD
ENDBRANCH  10  12
ENDBRANCH   9  10
ENDBRANCH   1   9
BRANCH   1  14
ATOM     14  C   UNL     1     -21.205   0.955   8.296  0.00  0.00    +0.000 C 
BRANCH  14  15
ATOM     15  C   UNL     1     -20.245   1.770   9.197  0.00  0.00    +0.000 C 
ATOM     16  C   UNL     1     -20.754   3.174   9.500  0.00  0.00    +0.000 C 
BRANCH  15  17
ATOM     17  O   UNL     1     -20.001   1.111  10.439  0.00  0.00    +0.000 OA
ATOM     18  H   UNL     1     -19.517   1.765  10.981  0.00  0.00    +0.000 HD
ENDBRANCH  15  17
ENDBRANCH  14  15
ENDBRANCH   1  14
TORSDOF 7
ENDMDL
MODEL 3
REMARK VINA RESULT:    -3.117      1.837      2.582
REMARK INTER + INTRA:          -4.480
REMARK INTER:                  -4.065
REMARK INTRA:                  -0.415
REMARK UNBOUND:                -0.270
REMARK  Name = 
REMARK  10 active torsions:
REMARK  status: ('A' for Active; 'I' for Inactive)
REMARK    1  A    between atoms: C_1  and  C_2
REMARK    2  A    between atoms: C_5  and  N_8
REMARK    3  A    between atoms: N_8  and  C_9
REMARK    4  A    between atoms: N_8  and  C_13
REMARK    5  A    between atoms: C_9  and  C_10
REMARK    6  A    between atoms: C_10  and  C_11
REMARK    7  A    between atoms: C_10  and  O_12
REMARK    8  A    between atoms: C_13  and  C_14
REMARK    9  A    between atoms: C_14  and  C_15
REMARK   10  A    between atoms: C_14  and  O_16
REMARK                            x       y       z     vdW  Elec       q    Type
REMARK                         _______ _______ _______ _____ _____    ______ ____
ROOT
ATOM      1  N   UNL     1     -20.430   0.809   5.476  0.00  0.00    +0.000 N 
ENDROOT
BRANCH   1   6
ATOM      2  C   UNL     1     -21.009   0.862  11.220  0.00  0.00    +0.000 C 
ATOM      3  C   UNL     1     -20.834   0.846   9.732  0.00  0.00    +0.000 A 
ATOM      4  C   UNL     1     -20.684   2.030   9.018  0.00  0.00    +0.000 A 
ATOM      5  C   UNL     1     -20.551   2.010   7.620  0.00  0.00    +0.000 A 
ATOM      6  C   UNL     1     -20.583   0.822   6.868  0.00  0.00    +0.000 A 
ATOM      7  C   UNL     1     -20.734  -0.356   7.623  0.00  0.00    +0.000 A 
ATOM      8  C   UNL     1     -20.866  -0.351   9.022  0.00  0.00    +0.000 A 
ENDBRANCH   1   6
BRANCH   1   9
ATOM      9  C   UNL     1     -20.205   2.077   4.741  0.00  0.00    +0.000 C 
BRANCH   9  10
ATOM     10  C   UNL     1     -20.529   1.960   3.231  0.00  0.00    +0.000 C 
ATOM     11  C   UNL     1     -21.204   3.227   2.719  0.00  0.00    +0.000 C 
BRANCH  10  12
ATOM     12  O   UNL     1     -19.335   1.752   2.464  0.00  0.00    +0.000 OA
ATOM     13  H   UNL     1     -18.613   2.243   2.891  0.00  0.00    +0.000 HD
ENDBRANCH  10  12
ENDBRANCH   9  10
ENDBRANCH   1   9
BRANCH   1  14
ATOM     14  C   UNL     1     -20.973  -0.302   4.653  0.00  0.00    +0.000 C 
BRANCH  14  15
ATOM     15  C   UNL     1     -19.889  -1.347   4.293  0.00  0.00    +0.000 C 
ATOM     16  C   UNL     1     -19.851  -1.683   2.807  0.00  0.00    +0.000 C 
BRANCH  15  17
ATOM     17  O   UNL     1     -18.587  -0.910   4.681  0.00  0.00    +0.000 OA
ATOM     18  H   UNL     1     -18.643  -0.779   5.649  0.00  0.00    +0.000 HD
ENDBRANCH  15  17
ENDBRANCH  14  15
ENDBRANCH   1  14
TORSDOF 7
ENDMDL
MODEL 4
REMARK VINA RESULT:    -2.901     16.981     18.633
REMARK INTER + INTRA:          -4.188
REMARK INTER:                  -3.485
REMARK INTRA:                  -0.703
REMARK UNBOUND:                -0.270
REMARK  Name = 
REMARK  10 active torsions:
REMARK  status: ('A' for Active; 'I' for Inactive)
REMARK    1  A    between atoms: C_1  and  C_2
REMARK    2  A    between atoms: C_5  and  N_8
REMARK    3  A    between atoms: N_8  and  C_9
REMARK    4  A    between atoms: N_8  and  C_13
REMARK    5  A    between atoms: C_9  and  C_10
REMARK    6  A    between atoms: C_10  and  C_11
REMARK    7  A    between atoms: C_10  and  O_12
REMARK    8  A    between atoms: C_13  and  C_14
REMARK    9  A    between atoms: C_14  and  C_15
REMARK   10  A    between atoms: C_14  and  O_16
REMARK                            x       y       z     vdW  Elec       q    Type
REMARK                         _______ _______ _______ _____ _____    ______ ____
ROOT
ATOM      1  N   UNL     1     -15.753  18.703  13.027  0.00  0.00    +0.000 N 
ENDROOT
BRANCH   1   6
ATOM      2  C   UNL     1     -19.315  14.274  14.041  0.00  0.00    +0.000 C 
ATOM      3  C   UNL     1     -18.384  15.413  13.756  0.00  0.00    +0.000 A 
ATOM      4  C   UNL     1     -17.066  15.385  14.198  0.00  0.00    +0.000 A 
ATOM      5  C   UNL     1     -16.206  16.469  13.954  0.00  0.00    +0.000 A 
ATOM      6  C   UNL     1     -16.621  17.634  13.284  0.00  0.00    +0.000 A 
ATOM      7  C   UNL     1     -17.959  17.626  12.850  0.00  0.00    +0.000 A 
ATOM      8  C   UNL     1     -18.829  16.548  13.085  0.00  0.00    +0.000 A 
ENDBRANCH   1   6
BRANCH   1   9
ATOM      9  C   UNL     1     -14.729  19.086  14.029  0.00  0.00    +0.000 C 
BRANCH   9  10
ATOM     10  C   UNL     1     -13.287  19.018  13.468  0.00  0.00    +0.000 C 
ATOM     11  C   UNL     1     -13.107  17.799  12.571  0.00  0.00    +0.000 C 
BRANCH  10  12
ATOM     12  O   UNL     1     -12.979  20.187  12.696  0.00  0.00    +0.000 OA
ATOM     13  H   UNL     1     -13.574  20.205  11.928  0.00  0.00    +0.000 HD
ENDBRANCH  10  12
ENDBRANCH   9  10
ENDBRANCH   1   9
BRANCH   1  14
ATOM     14  C   UNL     1     -16.116  19.774  12.065  0.00  0.00    +0.000 C 
BRANCH  14  15
ATOM     15  C   UNL     1     -15.735  19.407  10.610  0.00  0.00    +0.000 C 
ATOM     16  C   UNL     1     -16.850  19.687   9.610  0.00  0.00    +0.000 C 
BRANCH  15  17
ATOM     17  O   UNL     1     -14.569  20.106  10.179  0.00  0.00    +0.000 OA
ATOM     18  H   UNL     1     -13.915  19.973  10.895  0.00  0.00    +0.000 HD
ENDBRANCH  15  17
ENDBRANCH  14  15
ENDBRANCH   1  14
TORSDOF 7
ENDMDL
MODEL 5
REMARK VINA RESULT:    -2.893     18.008     19.393
REMARK INTER + INTRA:          -4.178
REMARK INTER:                  -3.648
REMARK INTRA:                  -0.530
REMARK UNBOUND:                -0.270
REMARK  Name = 
REMARK  10 active torsions:
REMARK  status: ('A' for Active; 'I' for Inactive)
REMARK    1  A    between atoms: C_1  and  C_2
REMARK    2  A    between atoms: C_5  and  N_8
REMARK    3  A    between atoms: N_8  and  C_9
REMARK    4  A    between atoms: N_8  and  C_13
REMARK    5  A    between atoms: C_9  and  C_10
REMARK    6  A    between atoms: C_10  and  C_11
REMARK    7  A    between atoms: C_10  and  O_12
REMARK    8  A    between atoms: C_13  and  C_14
REMARK    9  A    between atoms: C_14  and  C_15
REMARK   10  A    between atoms: C_14  and  O_16
REMARK                            x       y       z     vdW  Elec       q    Type
REMARK                         _______ _______ _______ _____ _____    ______ ____
ROOT
ATOM      1  N   UNL     1     -15.432  19.432  11.024  0.00  0.00    +0.000 N 
ENDROOT
BRANCH   1   6
ATOM      2  C   UNL     1     -20.851  18.297   9.389  0.00  0.00    +0.000 C 
ATOM      3  C   UNL     1     -19.452  18.615   9.820  0.00  0.00    +0.000 A 
ATOM      4  C   UNL     1     -18.525  19.125   8.918  0.00  0.00    +0.000 A 
ATOM      5  C   UNL     1     -17.206  19.393   9.320  0.00  0.00    +0.000 A 
ATOM      6  C   UNL     1     -16.743  19.145  10.625  0.00  0.00    +0.000 A 
ATOM      7  C   UNL     1     -17.708  18.631  11.511  0.00  0.00    +0.000 A 
ATOM      8  C   UNL     1     -19.031  18.361  11.122  0.00  0.00    +0.000 A 
ENDBRANCH   1   6
BRANCH   1   9
ATOM      9  C   UNL     1     -15.010  19.185  12.424  0.00  0.00    +0.000 C 
BRANCH   9  10
ATOM     10  C   UNL     1     -14.373  17.788  12.622  0.00  0.00    +0.000 C 
ATOM     11  C   UNL     1     -12.903  17.908  13.004  0.00  0.00    +0.000 C 
BRANCH  10  12
ATOM     12  O   UNL     1     -15.044  17.058  13.659  0.00  0.00    +0.000 OA
ATOM     13  H   UNL     1     -15.453  16.273  13.258  0.00  0.00    +0.000 HD
ENDBRANCH  10  12
ENDBRANCH   9  10
ENDBRANCH   1   9
BRANCH   1  14
ATOM     14  C   UNL     1     -14.603  20.420  10.288  0.00  0.00    +0.000 C 
BRANCH  14  15
ATOM     15  C   UNL     1     -13.549  19.739   9.382  0.00  0.00    +0.000 C 
ATOM     16  C   UNL     1     -13.401  20.412   8.023  0.00  0.00    +0.000 C 
BRANCH  15  17
ATOM     17  O   UNL     1     -12.264  19.707  10.002  0.00  0.00    +0.000 OA
ATOM     18  H   UNL     1     -11.738  19.085   9.460  0.00  0.00    +0.000 HD
ENDBRANCH  15  17
ENDBRANCH  14  15
ENDBRANCH   1  14
TORSDOF 7
ENDMDL
MODEL 6
REMARK VINA RESULT:    -2.715     16.984     18.633
REMARK INTER + INTRA:          -3.937
REMARK INTER:                  -3.387
REMARK INTRA:                  -0.550
REMARK UNBOUND:                -0.270
REMARK  Name = 
REMARK  10 active torsions:
REMARK  status: ('A' for Active; 'I' for Inactive)
REMARK    1  A    between atoms: C_1  and  C_2
REMARK    2  A    between atoms: C_5  and  N_8
REMARK    3  A    between atoms: N_8  and  C_9
REMARK    4  A    between atoms: N_8  and  C_13
REMARK    5  A    between atoms: C_9  and  C_10
REMARK    6  A    between atoms: C_10  and  C_11
REMARK    7  A    between atoms: C_10  and  O_12
REMARK    8  A    between atoms: C_13  and  C_14
REMARK    9  A    between atoms: C_14  and  C_15
REMARK   10  A    between atoms: C_14  and  O_16
REMARK                            x       y       z     vdW  Elec       q    Type
REMARK                         _______ _______ _______ _____ _____    ______ ____
ROOT
ATOM      1  N   UNL     1     -18.678  18.788  10.261  0.00  0.00    +0.000 N 
ENDROOT
BRANCH   1   6
ATOM      2  C   UNL     1     -13.171  20.441   9.748  0.00  0.00    +0.000 C 
ATOM      3  C   UNL     1     -14.606  20.036   9.889  0.00  0.00    +0.000 A 
ATOM      4  C   UNL     1     -15.077  19.477  11.072  0.00  0.00    +0.000 A 
ATOM      5  C   UNL     1     -16.417  19.071  11.188  0.00  0.00    +0.000 A 
ATOM      6  C   UNL     1     -17.339  19.178  10.132  0.00  0.00    +0.000 A 
ATOM      7  C   UNL     1     -16.828  19.748   8.952  0.00  0.00    +0.000 A 
ATOM      8  C   UNL     1     -15.492  20.161   8.823  0.00  0.00    +0.000 A 
ENDBRANCH   1   6
BRANCH   1   9
ATOM      9  C   UNL     1     -19.654  19.116   9.194  0.00  0.00    +0.000 C 
BRANCH   9  10
ATOM     10  C   UNL     1     -20.342  17.861   8.604  0.00  0.00    +0.000 C 
ATOM     11  C   UNL     1     -20.870  18.137   7.201  0.00  0.00    +0.000 C 
BRANCH  10  12
ATOM     12  O   UNL     1     -19.425  16.761   8.525  0.00  0.00    +0.000 OA
ATOM     13  H   UNL     1     -18.522  17.117   8.565  0.00  0.00    +0.000 HD
ENDBRANCH  10  12
ENDBRANCH   9  10
ENDBRANCH   1   9
BRANCH   1  14
ATOM     14  C   UNL     1     -19.277  18.524  11.595  0.00  0.00    +0.000 C 
BRANCH  14  15
ATOM     15  C   UNL     1     -18.990  17.086  12.089  0.00  0.00    +0.000 C 
ATOM     16  C   UNL     1     -19.290  16.890  13.570  0.00  0.00    +0.000 C 
BRANCH  15  17
ATOM     17  O   UNL     1     -19.738  16.117  11.355  0.00  0.00    +0.000 OA
ATOM     18  H   UNL     1     -20.408  15.784  11.985  0.00  0.00    +0.000 HD
ENDBRANCH  15  17
ENDBRANCH  14  15
ENDBRANCH   1  14
TORSDOF 7
ENDMDL
MODEL 7
REMARK VINA RESULT:    -2.690     17.100     18.790
REMARK INTER + INTRA:          -3.903
REMARK INTER:                  -3.163
REMARK INTRA:                  -0.740
REMARK UNBOUND:                -0.270
REMARK  Name = 
REMARK  10 active torsions:
REMARK  status: ('A' for Active; 'I' for Inactive)
REMARK    1  A    between atoms: C_1  and  C_2
REMARK    2  A    between atoms: C_5  and  N_8
REMARK    3  A    between atoms: N_8  and  C_9
REMARK    4  A    between atoms: N_8  and  C_13
REMARK    5  A    between atoms: C_9  and  C_10
REMARK    6  A    between atoms: C_10  and  C_11
REMARK    7  A    between atoms: C_10  and  O_12
REMARK    8  A    between atoms: C_13  and  C_14
REMARK    9  A    between atoms: C_14  and  C_15
REMARK   10  A    between atoms: C_14  and  O_16
REMARK                            x       y       z     vdW  Elec       q    Type
REMARK                         _______ _______ _______ _____ _____    ______ ____
ROOT
ATOM      1  N   UNL     1     -17.757  18.598  12.147  0.00  0.00    +0.000 N 
ENDROOT
BRANCH   1   6
ATOM      2  C   UNL     1     -12.607  20.054   9.980  0.00  0.00    +0.000 C 
ATOM      3  C   UNL     1     -13.943  19.697  10.557  0.00  0.00    +0.000 A 
ATOM      4  C   UNL     1     -14.042  18.880  11.678  0.00  0.00    +0.000 A 
ATOM      5  C   UNL     1     -15.298  18.523  12.196  0.00  0.00    +0.000 A 
ATOM      6  C   UNL     1     -16.508  18.941  11.613  0.00  0.00    +0.000 A 
ATOM      7  C   UNL     1     -16.370  19.767  10.483  0.00  0.00    +0.000 A 
ATOM      8  C   UNL     1     -15.120  20.133   9.956  0.00  0.00    +0.000 A 
ENDBRANCH   1   6
BRANCH   1   9
ATOM      9  C   UNL     1     -18.970  19.347  11.741  0.00  0.00    +0.000 C 
BRANCH   9  10
ATOM     10  C   UNL     1     -19.962  18.485  10.923  0.00  0.00    +0.000 C 
ATOM     11  C   UNL     1     -19.220  17.494  10.035  0.00  0.00    +0.000 C 
BRANCH  10  12
ATOM     12  O   UNL     1     -20.832  17.741  11.788  0.00  0.00    +0.000 OA
ATOM     13  H   UNL     1     -21.058  18.306  12.545  0.00  0.00    +0.000 HD
ENDBRANCH  10  12
ENDBRANCH   9  10
ENDBRANCH   1   9
BRANCH   1  14
ATOM     14  C   UNL     1     -17.868  17.885  13.445  0.00  0.00    +0.000 C 
BRANCH  14  15
ATOM     15  C   UNL     1     -17.986  16.353  13.262  0.00  0.00    +0.000 C 
ATOM     16  C   UNL     1     -17.016  15.568  14.138  0.00  0.00    +0.000 C 
BRANCH  15  17
ATOM     17  O   UNL     1     -19.306  15.889  13.541  0.00  0.00    +0.000 OA
ATOM     18  H   UNL     1     -19.187  15.157  14.180  0.00  0.00    +0.000 HD
ENDBRANCH  15  17
ENDBRANCH  14  15
ENDBRANCH   1  14
TORSDOF 7
ENDMDL
MODEL 8
REMARK VINA RESULT:    -2.657     16.758     18.825
REMARK INTER + INTRA:          -3.858
REMARK INTER:                  -3.365
REMARK INTRA:                  -0.493
REMARK UNBOUND:                -0.270
REMARK  Name = 
REMARK  10 active torsions:
REMARK  status: ('A' for Active; 'I' for Inactive)
REMARK    1  A    between atoms: C_1  and  C_2
REMARK    2  A    between atoms: C_5  and  N_8
REMARK    3  A    between atoms: N_8  and  C_9
REMARK    4  A    between atoms: N_8  and  C_13
REMARK    5  A    between atoms: C_9  and  C_10
REMARK    6  A    between atoms: C_10  and  C_11
REMARK    7  A    between atoms: C_10  and  O_12
REMARK    8  A    between atoms: C_13  and  C_14
REMARK    9  A    between atoms: C_14  and  C_15
REMARK   10  A    between atoms: C_14  and  O_16
REMARK                            x       y       z     vdW  Elec       q    Type
REMARK                         _______ _______ _______ _____ _____    ______ ____
ROOT
ATOM      1  N   UNL     1     -17.610  17.631  13.457  0.00  0.00    +0.000 N 
ENDROOT
BRANCH   1   6
ATOM      2  C   UNL     1     -12.909  19.511  10.683  0.00  0.00    +0.000 C 
ATOM      3  C   UNL     1     -14.130  19.004  11.387  0.00  0.00    +0.000 A 
ATOM      4  C   UNL     1     -15.399  19.445  11.024  0.00  0.00    +0.000 A 
ATOM      5  C   UNL     1     -16.538  18.989  11.708  0.00  0.00    +0.000 A 
ATOM      6  C   UNL     1     -16.468  18.097  12.793  0.00  0.00    +0.000 A 
ATOM      7  C   UNL     1     -15.171  17.670  13.130  0.00  0.00    +0.000 A 
ATOM      8  C   UNL     1     -14.023  18.116  12.453  0.00  0.00    +0.000 A 
ENDBRANCH   1   6
BRANCH   1   9
ATOM      9  C   UNL     1     -18.265  16.375  13.019  0.00  0.00    +0.000 C 
BRANCH   9  10
ATOM     10  C   UNL     1     -18.176  15.250  14.079  0.00  0.00    +0.000 C 
ATOM     11  C   UNL     1     -19.416  14.365  14.040  0.00  0.00    +0.000 C 
BRANCH  10  12
ATOM     12  O   UNL     1     -17.029  14.419  13.853  0.00  0.00    +0.000 OA
ATOM     13  H   UNL     1     -16.289  14.780  14.368  0.00  0.00    +0.000 HD
ENDBRANCH  10  12
ENDBRANCH   9  10
ENDBRANCH   1   9
BRANCH   1  14
ATOM     14  C   UNL     1     -18.483  18.555  14.225  0.00  0.00    +0.000 C 
BRANCH  14  15
ATOM     15  C   UNL     1     -19.798  18.876  13.474  0.00  0.00    +0.000 C 
ATOM     16  C   UNL     1     -21.044  18.632  14.317  0.00  0.00    +0.000 C 
BRANCH  15  17
ATOM     17  O   UNL     1     -19.829  20.228  13.020  0.00  0.00    +0.000 OA
ATOM     18  H   UNL     1     -20.327  20.714  13.707  0.00  0.00    +0.000 HD
ENDBRANCH  15  17
ENDBRANCH  14  15
ENDBRANCH   1  14
TORSDOF 7
ENDMDL
MODEL 9
REMARK VINA RESULT:    -2.622     16.346     17.978
REMARK INTER + INTRA:          -3.811
REMARK INTER:                  -3.232
REMARK INTRA:                  -0.578
REMARK UNBOUND:                -0.270
REMARK  Name = 
REMARK  10 active torsions:
REMARK  status: ('A' for Active; 'I' for Inactive)
REMARK    1  A    between atoms: C_1  and  C_2
REMARK    2  A    between atoms: C_5  and  N_8
REMARK    3  A    between atoms: N_8  and  C_9
REMARK    4  A    between atoms: N_8  and  C_13
REMARK    5  A    between atoms: C_9  and  C_10
REMARK    6  A    between atoms: C_10  and  C_11
REMARK    7  A    between atoms: C_10  and  O_12
REMARK    8  A    between atoms: C_13  and  C_14
REMARK    9  A    between atoms: C_14  and  C_15
REMARK   10  A    between atoms: C_14  and  O_16
REMARK                            x       y       z     vdW  Elec       q    Type
REMARK                         _______ _______ _______ _____ _____    ______ ____
ROOT
ATOM      1  N   UNL     1     -16.189  17.866  13.237  0.00  0.00    +0.000 N 
ENDROOT
BRANCH   1   6
ATOM      2  C   UNL     1     -20.155  13.817  14.337  0.00  0.00    +0.000 C 
ATOM      3  C   UNL     1     -19.124  14.859  14.028  0.00  0.00    +0.000 A 
ATOM      4  C   UNL     1     -17.777  14.632  14.293  0.00  0.00    +0.000 A 
ATOM      5  C   UNL     1     -16.818  15.623  14.030  0.00  0.00    +0.000 A 
ATOM      6  C   UNL     1     -17.153  16.889  13.516  0.00  0.00    +0.000 A 
ATOM      7  C   UNL     1     -18.523  17.083  13.258  0.00  0.00    +0.000 A 
ATOM      8  C   UNL     1     -19.492  16.099  13.515  0.00  0.00    +0.000 A 
ENDBRANCH   1   6
BRANCH   1   9
ATOM      9  C   UNL     1     -16.579  19.120  12.548  0.00  0.00    +0.000 C 
BRANCH   9  10
ATOM     10  C   UNL     1     -16.642  18.963  11.008  0.00  0.00    +0.000 C 
ATOM     11  C   UNL     1     -18.014  19.359  10.476  0.00  0.00    +0.000 C 
BRANCH  10  12
ATOM     12  O   UNL     1     -15.660  19.789  10.367  0.00  0.00    +0.000 OA
ATOM     13  H   UNL     1     -15.503  19.433   9.476  0.00  0.00    +0.000 HD
ENDBRANCH  10  12
ENDBRANCH   9  10
ENDBRANCH   1   9
BRANCH   1  14
ATOM     14  C   UNL     1     -14.749  17.518  13.133  0.00  0.00    +0.000 C 
BRANCH  14  15
ATOM     15  C   UNL     1     -13.839  18.768  13.200  0.00  0.00    +0.000 C 
ATOM     16  C   UNL     1     -12.817  18.706  14.329  0.00  0.00    +0.000 C 
BRANCH  15  17
ATOM     17  O   UNL     1     -13.134  18.973  11.976  0.00  0.00    +0.000 OA
ATOM     18  H   UNL     1     -12.216  19.180  12.245  0.00  0.00    +0.000 HD
ENDBRANCH  15  17
ENDBRANCH  14  15
ENDBRANCH   1  14
TORSDOF 7
ENDMDL
