MODEL 1
REMARK VINA RESULT:    -3.893      0.000      0.000
REMARK INTER + INTRA:          -4.286
REMARK INTER:                  -4.234
REMARK INTRA:                  -0.052
REMARK UNBOUND:                -0.052
REMARK  Name = 
REMARK  3 active torsions:
REMARK  status: ('A' for Active; 'I' for Inactive)
REMARK    1  A    between atoms: C_1  and  O_2
REMARK    2  A    between atoms: O_2  and  C_3
REMARK    3  A    between atoms: C_8  and  O_9
REMARK                            x       y       z     vdW  Elec       q    Type
REMARK                         _______ _______ _______ _____ _____    ______ ____
ROOT
ATOM      1  C   UNL     1      -0.561  14.387  -8.195  0.00  0.00    +0.000 A 
ATOM      2  C   UNL     1      -0.949  14.795  -9.471  0.00  0.00    +0.000 A 
ATOM      3  C   UNL     1      -0.942  13.879 -10.531  0.00  0.00    +0.000 A 
ATOM      4  C   UNL     1      -0.547  12.557 -10.320  0.00  0.00    +0.000 A 
ATOM      5  C   UNL     1      -0.158  12.142  -9.049  0.00  0.00    +0.000 A 
ATOM      6  C   UNL     1      -0.168  13.057  -8.004  0.00  0.00    +0.000 A 
ENDROOT
BRANCH   1   8
ATOM      7  C   UNL     1       0.407  16.252  -7.085  0.00  0.00    +0.000 C 
ATOM      8  O   UNL     1      -0.519  15.172  -7.071  0.00  0.00    +0.000 OA
ENDBRANCH   1   8
BRANCH   6   9
ATOM      9  O   UNL     1       0.218  12.626  -6.763  0.00  0.00    +0.000 OA
ATOM     10  H   UNL     1       1.177  12.806  -6.725  0.00  0.00    +0.000 HD
ENDBRANCH   6   9
TORSDOF 2
ENDMDL
MODEL 2
REMARK VINA RESULT:    -3.799      1.113      2.300
REMARK INTER + INTRA:          -4.185
REMARK INTER:                  -4.140
REMARK INTRA:                  -0.045
REMARK UNBOUND:                -0.052
REMARK  Name = 
REMARK  3 active torsions:
REMARK  status: ('A' for Active; 'I' for Inactive)
REMARK    1  A    between atoms: C_1  and  O_2
REMARK    2  A    between atoms: O_2  and  C_3
REMARK    3  A    between atoms: C_8  and  O_9
REMARK                            x       y       z     vdW  Elec       q    Type
REMARK                         _______ _______ _______ _____ _____    ______ ____
ROOT
ATOM      1  C   UNL     1      -0.493  14.565  -8.190  0.00  0.00    +0.000 A 
ATOM      2  C   UNL     1      -0.121  13.283  -7.790  0.00  0.00    +0.000 A 
ATOM      3  C   UNL     1      -0.105  12.236  -8.721  0.00  0.00    +0.000 A 
ATOM      4  C   UNL     1      -0.461  12.467 -10.051  0.00  0.00    +0.000 A 
ATOM      5  C   UNL     1      -0.834  13.746 -10.458  0.00  0.00    +0.000 A 
ATOM      6  C   UNL     1      -0.846  14.778  -9.528  0.00  0.00    +0.000 A 
ENDROOT
BRANCH   1   8
ATOM      7  C   UNL     1       0.690  16.258  -7.014  0.00  0.00    +0.000 C 
ATOM      8  O   UNL     1      -0.553  15.679  -7.390  0.00  0.00    +0.000 OA
ENDBRANCH   1   8
BRANCH   6   9
ATOM      9  O   UNL     1      -1.216  16.026  -9.952  0.00  0.00    +0.000 OA
ATOM     10  H   UNL     1      -1.102  16.003 -10.922  0.00  0.00    +0.000 HD
ENDBRANCH   6   9
TORSDOF 2
ENDMDL
MODEL 3
REMARK VINA RESULT:    -3.766      1.292      3.226
REMARK INTER + INTRA:          -4.149
REMARK INTER:                  -4.105
REMARK INTRA:                  -0.044
REMARK UNBOUND:                -0.052
REMARK  Name = 
REMARK  3 active torsions:
REMARK  status: ('A' for Active; 'I' for Inactive)
REMARK    1  A    between atoms: C_1  and  O_2
REMARK    2  A    between atoms: O_2  and  C_3
REMARK    3  A    between atoms: C_8  and  O_9
REMARK                            x       y       z     vdW  Elec       q    Type
REMARK                         _______ _______ _______ _____ _____    ______ ____
ROOT
ATOM      1  C   UNL     1      -0.205  12.311  -9.205  0.00  0.00    +0.000 A 
ATOM      2  C   UNL     1      -0.648  12.999 -10.334  0.00  0.00    +0.000 A 
ATOM      3  C   UNL     1      -1.034  14.342 -10.227  0.00  0.00    +0.000 A 
ATOM      4  C   UNL     1      -0.981  14.998  -8.996  0.00  0.00    +0.000 A 
ATOM      5  C   UNL     1      -0.539  14.317  -7.864  0.00  0.00    +0.000 A 
ATOM      6  C   UNL     1      -0.158  12.986  -7.979  0.00  0.00    +0.000 A 
ENDROOT
BRANCH   1   8
ATOM      7  C   UNL     1      -0.532  10.082  -9.964  0.00  0.00    +0.000 C 
ATOM      8  O   UNL     1       0.201  11.001  -9.162  0.00  0.00    +0.000 OA
ENDBRANCH   1   8
BRANCH   6   9
ATOM      9  O   UNL     1       0.272  12.337  -6.853  0.00  0.00    +0.000 OA
ATOM     10  H   UNL     1       0.817  11.598  -7.185  0.00  0.00    +0.000 HD
ENDBRANCH   6   9
TORSDOF 2
ENDMDL
MODEL 4
REMARK VINA RESULT:    -3.638      6.405      7.789
REMARK INTER + INTRA:          -4.009
REMARK INTER:                  -3.957
REMARK INTRA:                  -0.052
REMARK UNBOUND:                -0.052
REMARK  Name = 
REMARK  3 active torsions:
REMARK  status: ('A' for Active; 'I' for Inactive)
REMARK    1  A    between atoms: C_1  and  O_2
REMARK    2  A    between atoms: O_2  and  C_3
REMARK    3  A    between atoms: C_8  and  O_9
REMARK                            x       y       z     vdW  Elec       q    Type
REMARK                         _______ _______ _______ _____ _____    ______ ____
ROOT
ATOM      1  C   UNL     1      -1.374  13.638  -1.344  0.00  0.00    +0.000 A 
ATOM      2  C   UNL     1      -1.999  14.550  -0.495  0.00  0.00    +0.000 A 
ATOM      3  C   UNL     1      -1.641  15.903  -0.536  0.00  0.00    +0.000 A 
ATOM      4  C   UNL     1      -0.660  16.349  -1.423  0.00  0.00    +0.000 A 
ATOM      5  C   UNL     1      -0.031  15.444  -2.275  0.00  0.00    +0.000 A 
ATOM      6  C   UNL     1      -0.392  14.103  -2.227  0.00  0.00    +0.000 A 
ENDROOT
BRANCH   1   8
ATOM      7  C   UNL     1      -1.221  11.514  -0.288  0.00  0.00    +0.000 C 
ATOM      8  O   UNL     1      -1.622  12.290  -1.411  0.00  0.00    +0.000 OA
ENDBRANCH   1   8
BRANCH   6   9
ATOM      9  O   UNL     1       0.240  13.233  -3.074  0.00  0.00    +0.000 OA
ATOM     10  H   UNL     1       0.488  12.474  -2.511  0.00  0.00    +0.000 HD
ENDBRANCH   6   9
TORSDOF 2
ENDMDL
MODEL 5
REMARK VINA RESULT:    -3.451      5.893      7.237
REMARK INTER + INTRA:          -3.806
REMARK INTER:                  -3.754
REMARK INTRA:                  -0.052
REMARK UNBOUND:                -0.052
REMARK  Name = 
REMARK  3 active torsions:
REMARK  status: ('A' for Active; 'I' for Inactive)
REMARK    1  A    between atoms: C_1  and  O_2
REMARK    2  A    between atoms: O_2  and  C_3
REMARK    3  A    between atoms: C_8  and  O_9
REMARK                            x       y       z     vdW  Elec       q    Type
REMARK                         _______ _______ _______ _____ _____    ______ ____
ROOT
ATOM      1  C   UNL     1      -0.417  15.313  -1.893  0.00  0.00    +0.000 A 
ATOM      2  C   UNL     1      -1.263  15.968  -1.000  0.00  0.00    +0.000 A 
ATOM      3  C   UNL     1      -2.220  15.240  -0.280  0.00  0.00    +0.000 A 
ATOM      4  C   UNL     1      -2.335  13.859  -0.452  0.00  0.00    +0.000 A 
ATOM      5  C   UNL     1      -1.493  13.198  -1.343  0.00  0.00    +0.000 A 
ATOM      6  C   UNL     1      -0.547  13.927  -2.052  0.00  0.00    +0.000 A 
ENDROOT
BRANCH   1   8
ATOM      7  C   UNL     1       0.118  16.755  -3.704  0.00  0.00    +0.000 C 
ATOM      8  O   UNL     1       0.559  15.895  -2.661  0.00  0.00    +0.000 OA
ENDBRANCH   1   8
BRANCH   6   9
ATOM      9  O   UNL     1       0.269  13.255  -2.922  0.00  0.00    +0.000 OA
ATOM     10  H   UNL     1       0.025  13.595  -3.804  0.00  0.00    +0.000 HD
ENDBRANCH   6   9
TORSDOF 2
ENDMDL
MODEL 6
REMARK VINA RESULT:    -3.333     13.402     13.949
REMARK INTER + INTRA:          -3.678
REMARK INTER:                  -3.637
REMARK INTRA:                  -0.040
REMARK UNBOUND:                -0.052
REMARK  Name = 
REMARK  3 active torsions:
REMARK  status: ('A' for Active; 'I' for Inactive)
REMARK    1  A    between atoms: C_1  and  O_2
REMARK    2  A    between atoms: O_2  and  C_3
REMARK    3  A    between atoms: C_8  and  O_9
REMARK                            x       y       z     vdW  Elec       q    Type
REMARK                         _______ _______ _______ _____ _____    ______ ____
ROOT
ATOM      1  C   UNL     1       9.186  15.048 -18.235  0.00  0.00    +0.000 A 
ATOM      2  C   UNL     1      10.142  15.994 -18.603  0.00  0.00    +0.000 A 
ATOM      3  C   UNL     1      11.376  16.035 -17.942  0.00  0.00    +0.000 A 
ATOM      4  C   UNL     1      11.659  15.134 -16.914  0.00  0.00    +0.000 A 
ATOM      5  C   UNL     1      10.709  14.186 -16.541  0.00  0.00    +0.000 A 
ATOM      6  C   UNL     1       9.488  14.153 -17.201  0.00  0.00    +0.000 A 
ENDROOT
BRANCH   1   8
ATOM      7  C   UNL     1       7.351  16.058 -19.357  0.00  0.00    +0.000 C 
ATOM      8  O   UNL     1       7.942  14.894 -18.792  0.00  0.00    +0.000 OA
ENDBRANCH   1   8
BRANCH   6   9
ATOM      9  O   UNL     1       8.570  13.212 -16.817  0.00  0.00    +0.000 OA
ATOM     10  H   UNL     1       8.885  12.380 -17.218  0.00  0.00    +0.000 HD
ENDBRANCH   6   9
TORSDOF 2
ENDMDL
MODEL 7
REMARK VINA RESULT:    -3.324      6.374      7.398
REMARK INTER + INTRA:          -3.668
REMARK INTER:                  -3.618
REMARK INTRA:                  -0.051
REMARK UNBOUND:                -0.052
REMARK  Name = 
REMARK  3 active torsions:
REMARK  status: ('A' for Active; 'I' for Inactive)
REMARK    1  A    between atoms: C_1  and  O_2
REMARK    2  A    between atoms: O_2  and  C_3
REMARK    3  A    between atoms: C_8  and  O_9
REMARK                            x       y       z     vdW  Elec       q    Type
REMARK                         _______ _______ _______ _____ _____    ______ ____
ROOT
ATOM      1  C   UNL     1      -0.957  13.896  -1.075  0.00  0.00    +0.000 A 
ATOM      2  C   UNL     1      -1.320  12.807  -0.285  0.00  0.00    +0.000 A 
ATOM      3  C   UNL     1      -1.178  11.504  -0.780  0.00  0.00    +0.000 A 
ATOM      4  C   UNL     1      -0.674  11.287  -2.064  0.00  0.00    +0.000 A 
ATOM      5  C   UNL     1      -0.308  12.371  -2.859  0.00  0.00    +0.000 A 
ATOM      6  C   UNL     1      -0.453  13.658  -2.360  0.00  0.00    +0.000 A 
ENDROOT
BRANCH   1   8
ATOM      7  C   UNL     1      -2.321  15.682  -0.301  0.00  0.00    +0.000 C 
ATOM      8  O   UNL     1      -1.043  15.219  -0.721  0.00  0.00    +0.000 OA
ENDBRANCH   1   8
BRANCH   6   9
ATOM      9  O   UNL     1      -0.087  14.708  -3.160  0.00  0.00    +0.000 OA
ATOM     10  H   UNL     1       0.250  15.385  -2.543  0.00  0.00    +0.000 HD
ENDBRANCH   6   9
TORSDOF 2
ENDMDL
MODEL 8
REMARK VINA RESULT:    -3.238     14.082     14.441
REMARK INTER + INTRA:          -3.574
REMARK INTER:                  -3.523
REMARK INTRA:                  -0.052
REMARK UNBOUND:                -0.052
REMARK  Name = 
REMARK  3 active torsions:
REMARK  status: ('A' for Active; 'I' for Inactive)
REMARK    1  A    between atoms: C_1  and  O_2
REMARK    2  A    between atoms: O_2  and  C_3
REMARK    3  A    between atoms: C_8  and  O_9
REMARK                            x       y       z     vdW  Elec       q    Type
REMARK                         _______ _______ _______ _____ _____    ______ ____
ROOT
ATOM      1  C   UNL     1      11.660  15.209 -17.255  0.00  0.00    +0.000 A 
ATOM      2  C   UNL     1      11.025  15.479 -18.466  0.00  0.00    +0.000 A 
ATOM      3  C   UNL     1       9.730  14.999 -18.699  0.00  0.00    +0.000 A 
ATOM      4  C   UNL     1       9.068  14.249 -17.727  0.00  0.00    +0.000 A 
ATOM      5  C   UNL     1       9.695  13.975 -16.514  0.00  0.00    +0.000 A 
ATOM      6  C   UNL     1      10.980  14.454 -16.291  0.00  0.00    +0.000 A 
ENDROOT
BRANCH   1   8
ATOM      7  C   UNL     1      13.156  17.015 -16.870  0.00  0.00    +0.000 C 
ATOM      8  O   UNL     1      12.920  15.612 -16.892  0.00  0.00    +0.000 OA
ENDBRANCH   1   8
BRANCH   6   9
ATOM      9  O   UNL     1      11.576  14.172 -15.091  0.00  0.00    +0.000 OA
ATOM     10  H   UNL     1      11.356  13.237 -14.918  0.00  0.00    +0.000 HD
ENDBRANCH   6   9
TORSDOF 2
ENDMDL
MODEL 9
REMARK VINA RESULT:    -3.137     12.887     13.542
REMARK INTER + INTRA:          -3.464
REMARK INTER:                  -3.420
REMARK INTRA:                  -0.044
REMARK UNBOUND:                -0.052
REMARK  Name = 
REMARK  3 active torsions:
REMARK  status: ('A' for Active; 'I' for Inactive)
REMARK    1  A    between atoms: C_1  and  O_2
REMARK    2  A    between atoms: O_2  and  C_3
REMARK    3  A    between atoms: C_8  and  O_9
REMARK                            x       y       z     vdW  Elec       q    Type
REMARK                         _______ _______ _______ _____ _____    ______ ____
ROOT
ATOM      1  C   UNL     1       8.951  15.232 -18.511  0.00  0.00    +0.000 A 
ATOM      2  C   UNL     1       8.491  16.241 -19.356  0.00  0.00    +0.000 A 
ATOM      3  C   UNL     1       7.119  16.369 -19.611  0.00  0.00    +0.000 A 
ATOM      4  C   UNL     1       6.205  15.492 -19.024  0.00  0.00    +0.000 A 
ATOM      5  C   UNL     1       6.658  14.482 -18.178  0.00  0.00    +0.000 A 
ATOM      6  C   UNL     1       8.019  14.362 -17.931  0.00  0.00    +0.000 A 
ENDROOT
BRANCH   1   8
ATOM      7  C   UNL     1      11.071  14.389 -19.177  0.00  0.00    +0.000 C 
ATOM      8  O   UNL     1      10.259  14.989 -18.175  0.00  0.00    +0.000 OA
ENDBRANCH   1   8
BRANCH   6   9
ATOM      9  O   UNL     1       8.440  13.361 -17.096  0.00  0.00    +0.000 OA
ATOM     10  H   UNL     1       7.811  12.630 -17.248  0.00  0.00    +0.000 HD
ENDBRANCH   6   9
TORSDOF 2
ENDMDL
