MODEL 1
REMARK VINA RESULT:    -4.510      0.000      0.000
REMARK INTER + INTRA:          -6.239
REMARK INTER:                  -6.092
REMARK INTRA:                  -0.147
REMARK UNBOUND:                -0.147
REMARK  Name = 
REMARK  10 active torsions:
REMARK  status: ('A' for Active; 'I' for Inactive)
REMARK    1  A    between atoms: C_1  and  C_2
REMARK    2  A    between atoms: C_5  and  N_8
REMARK    3  A    between atoms: N_8  and  C_9
REMARK    4  A    between atoms: N_8  and  C_13
REMARK    5  A    between atoms: C_9  and  C_10
REMARK    6  A    between atoms: C_10  and  C_11
REMARK    7  A    between atoms: C_10  and  O_12
REMARK    8  A    between atoms: C_13  and  C_14
REMARK    9  A    between atoms: C_14  and  C_15
REMARK   10  A    between atoms: C_14  and  O_16
REMARK                            x       y       z     vdW  Elec       q    Type
REMARK                         _______ _______ _______ _____ _____    ______ ____
ROOT
ATOM      1  N   UNL     1       9.565  15.592 -19.342  0.00  0.00    +0.000 N 
ENDROOT
BRANCH   1   6
ATOM      2  C   UNL     1       4.111  17.299 -20.157  0.00  0.00    +0.000 C 
ATOM      3  C   UNL     1       5.525  16.863 -19.921  0.00  0.00    +0.000 A 
ATOM      4  C   UNL     1       6.586  17.738 -20.126  0.00  0.00    +0.000 A 
ATOM      5  C   UNL     1       7.911  17.315 -19.932  0.00  0.00    +0.000 A 
ATOM      6  C   UNL     1       8.243  16.002 -19.552  0.00  0.00    +0.000 A 
ATOM      7  C   UNL     1       7.145  15.145 -19.353  0.00  0.00    +0.000 A 
ATOM      8  C   UNL     1       5.815  15.556 -19.540  0.00  0.00    +0.000 A 
ENDBRANCH   1   6
BRANCH   1   9
ATOM      9  C   UNL     1      10.127  15.567 -17.971  0.00  0.00    +0.000 C 
BRANCH   9  10
ATOM     10  C   UNL     1      10.283  14.132 -17.412  0.00  0.00    +0.000 C 
ATOM     11  C   UNL     1      10.801  14.158 -15.978  0.00  0.00    +0.000 C 
BRANCH  10  12
ATOM     12  O   UNL     1       9.028  13.438 -17.417  0.00  0.00    +0.000 OA
ATOM     13  H   UNL     1       8.882  13.087 -18.312  0.00  0.00    +0.000 HD
ENDBRANCH  10  12
ENDBRANCH   9  10
ENDBRANCH   1   9
BRANCH   1  14
ATOM     14  C   UNL     1      10.575  15.666 -20.430  0.00  0.00    +0.000 C 
BRANCH  14  15
ATOM     15  C   UNL     1      10.717  14.324 -21.187  0.00  0.00    +0.000 C 
ATOM     16  C   UNL     1      11.691  13.359 -20.521  0.00  0.00    +0.000 C 
BRANCH  15  17
ATOM     17  O   UNL     1       9.462  13.660 -21.324  0.00  0.00    +0.000 OA
ATOM     18  H   UNL     1       8.907  14.017 -20.601  0.00  0.00    +0.000 HD
ENDBRANCH  15  17
ENDBRANCH  14  15
ENDBRANCH   1  14
TORSDOF 7
ENDMDL
MODEL 2
REMARK VINA RESULT:    -4.405      3.311      5.902
REMARK INTER + INTRA:          -6.098
REMARK INTER:                  -5.536
REMARK INTRA:                  -0.561
REMARK UNBOUND:                -0.147
REMARK  Name = 
REMARK  10 active torsions:
REMARK  status: ('A' for Active; 'I' for Inactive)
REMARK    1  A    between atoms: C_1  and  C_2
REMARK    2  A    between atoms: C_5  and  N_8
REMARK    3  A    between atoms: N_8  and  C_9
REMARK    4  A    between atoms: N_8  and  C_13
REMARK    5  A    between atoms: C_9  and  C_10
REMARK    6  A    between atoms: C_10  and  C_11
REMARK    7  A    between atoms: C_10  and  O_12
REMARK    8  A    between atoms: C_13  and  C_14
REMARK    9  A    between atoms: C_14  and  C_15
REMARK   10  A    between atoms: C_14  and  O_16
REMARK                            x       y       z     vdW  Elec       q    Type
REMARK                         _______ _______ _______ _____ _____    ______ ____
ROOT
ATOM      1  N   UNL     1      11.576  14.900 -18.708  0.00  0.00    +0.000 N 
ENDROOT
BRANCH   1   6
ATOM      2  C   UNL     1      16.757  16.660 -16.868  0.00  0.00    +0.000 C 
ATOM      3  C   UNL     1      15.420  16.179 -17.342  0.00  0.00    +0.000 A 
ATOM      4  C   UNL     1      15.171  15.982 -18.697  0.00  0.00    +0.000 A 
ATOM      5  C   UNL     1      13.907  15.560 -19.138  0.00  0.00    +0.000 A 
ATOM      6  C   UNL     1      12.829  15.339 -18.262  0.00  0.00    +0.000 A 
ATOM      7  C   UNL     1      13.117  15.547 -16.900  0.00  0.00    +0.000 A 
ATOM      8  C   UNL     1      14.377  15.966 -16.445  0.00  0.00    +0.000 A 
ENDBRANCH   1   6
BRANCH   1   9
ATOM      9  C   UNL     1      10.370  15.125 -17.875  0.00  0.00    +0.000 C 
BRANCH   9  10
ATOM     10  C   UNL     1       9.854  13.828 -17.203  0.00  0.00    +0.000 C 
ATOM     11  C   UNL     1      10.134  13.842 -15.705  0.00  0.00    +0.000 C 
BRANCH  10  12
ATOM     12  O   UNL     1       8.439  13.680 -17.389  0.00  0.00    +0.000 OA
ATOM     13  H   UNL     1       8.217  12.741 -17.275  0.00  0.00    +0.000 HD
ENDBRANCH  10  12
ENDBRANCH   9  10
ENDBRANCH   1   9
BRANCH   1  14
ATOM     14  C   UNL     1      11.454  13.799 -19.698  0.00  0.00    +0.000 C 
BRANCH  14  15
ATOM     15  C   UNL     1      10.846  14.282 -21.036  0.00  0.00    +0.000 C 
ATOM     16  C   UNL     1      11.648  13.839 -22.254  0.00  0.00    +0.000 C 
BRANCH  15  17
ATOM     17  O   UNL     1       9.504  13.825 -21.201  0.00  0.00    +0.000 OA
ATOM     18  H   UNL     1       8.945  14.564 -20.886  0.00  0.00    +0.000 HD
ENDBRANCH  15  17
ENDBRANCH  14  15
ENDBRANCH   1  14
TORSDOF 7
ENDMDL
MODEL 3
REMARK VINA RESULT:    -4.336      3.159      6.469
REMARK INTER + INTRA:          -6.005
REMARK INTER:                  -5.412
REMARK INTRA:                  -0.592
REMARK UNBOUND:                -0.147
REMARK  Name = 
REMARK  10 active torsions:
REMARK  status: ('A' for Active; 'I' for Inactive)
REMARK    1  A    between atoms: C_1  and  C_2
REMARK    2  A    between atoms: C_5  and  N_8
REMARK    3  A    between atoms: N_8  and  C_9
REMARK    4  A    between atoms: N_8  and  C_13
REMARK    5  A    between atoms: C_9  and  C_10
REMARK    6  A    between atoms: C_10  and  C_11
REMARK    7  A    between atoms: C_10  and  O_12
REMARK    8  A    between atoms: C_13  and  C_14
REMARK    9  A    between atoms: C_14  and  C_15
REMARK   10  A    between atoms: C_14  and  O_16
REMARK                            x       y       z     vdW  Elec       q    Type
REMARK                         _______ _______ _______ _____ _____    ______ ____
ROOT
ATOM      1  N   UNL     1      11.469  15.381 -18.815  0.00  0.00    +0.000 N 
ENDROOT
BRANCH   1   6
ATOM      2  C   UNL     1      16.830  16.081 -16.792  0.00  0.00    +0.000 C 
ATOM      3  C   UNL     1      15.437  15.924 -17.318  0.00  0.00    +0.000 A 
ATOM      4  C   UNL     1      14.353  15.823 -16.452  0.00  0.00    +0.000 A 
ATOM      5  C   UNL     1      13.052  15.646 -16.950  0.00  0.00    +0.000 A 
ATOM      6  C   UNL     1      12.771  15.538 -18.324  0.00  0.00    +0.000 A 
ATOM      7  C   UNL     1      13.890  15.647 -19.170  0.00  0.00    +0.000 A 
ATOM      8  C   UNL     1      15.196  15.827 -18.685  0.00  0.00    +0.000 A 
ENDBRANCH   1   6
BRANCH   1   9
ATOM      9  C   UNL     1      11.179  15.631 -20.247  0.00  0.00    +0.000 C 
BRANCH   9  10
ATOM     10  C   UNL     1      10.785  14.345 -21.013  0.00  0.00    +0.000 C 
ATOM     11  C   UNL     1      11.561  13.141 -20.493  0.00  0.00    +0.000 C 
BRANCH  10  12
ATOM     12  O   UNL     1       9.385  14.068 -20.867  0.00  0.00    +0.000 OA
ATOM     13  H   UNL     1       9.018  14.700 -20.228  0.00  0.00    +0.000 HD
ENDBRANCH  10  12
ENDBRANCH   9  10
ENDBRANCH   1   9
BRANCH   1  14
ATOM     14  C   UNL     1      10.291  15.475 -17.914  0.00  0.00    +0.000 C 
BRANCH  14  15
ATOM     15  C   UNL     1       9.782  14.082 -17.472  0.00  0.00    +0.000 C 
ATOM     16  C   UNL     1      10.006  13.804 -15.990  0.00  0.00    +0.000 C 
BRANCH  15  17
ATOM     17  O   UNL     1       8.392  13.917 -17.747  0.00  0.00    +0.000 OA
ATOM     18  H   UNL     1       8.162  13.043 -17.372  0.00  0.00    +0.000 HD
ENDBRANCH  15  17
ENDBRANCH  14  15
ENDBRANCH   1  14
TORSDOF 7
ENDMDL
MODEL 4
REMARK VINA RESULT:    -4.189     17.735     19.370
REMARK INTER + INTRA:          -5.806
REMARK INTER:                  -5.136
REMARK INTRA:                  -0.670
REMARK UNBOUND:                -0.147
REMARK  Name = 
REMARK  10 active torsions:
REMARK  status: ('A' for Active; 'I' for Inactive)
REMARK    1  A    between atoms: C_1  and  C_2
REMARK    2  A    between atoms: C_5  and  N_8
REMARK    3  A    between atoms: N_8  and  C_9
REMARK    4  A    between atoms: N_8  and  C_13
REMARK    5  A    between atoms: C_9  and  C_10
REMARK    6  A    between atoms: C_10  and  C_11
REMARK    7  A    between atoms: C_10  and  O_12
REMARK    8  A    between atoms: C_13  and  C_14
REMARK    9  A    between atoms: C_14  and  C_15
REMARK   10  A    between atoms: C_14  and  O_16
REMARK                            x       y       z     vdW  Elec       q    Type
REMARK                         _______ _______ _______ _____ _____    ______ ____
ROOT
ATOM      1  N   UNL     1       0.316  16.988  -2.430  0.00  0.00    +0.000 N 
ENDROOT
BRANCH   1   6
ATOM      2  C   UNL     1      -2.017  12.165  -0.280  0.00  0.00    +0.000 C 
ATOM      3  C   UNL     1      -1.427  13.416  -0.857  0.00  0.00    +0.000 A 
ATOM      4  C   UNL     1      -0.343  13.360  -1.726  0.00  0.00    +0.000 A 
ATOM      5  C   UNL     1       0.224  14.537  -2.240  0.00  0.00    +0.000 A 
ATOM      6  C   UNL     1      -0.242  15.819  -1.898  0.00  0.00    +0.000 A 
ATOM      7  C   UNL     1      -1.340  15.838  -1.019  0.00  0.00    +0.000 A 
ATOM      8  C   UNL     1      -1.918  14.668  -0.499  0.00  0.00    +0.000 A 
ENDBRANCH   1   6
BRANCH   1   9
ATOM      9  C   UNL     1       1.125  17.885  -1.568  0.00  0.00    +0.000 C 
BRANCH   9  10
ATOM     10  C   UNL     1       2.645  17.610  -1.676  0.00  0.00    +0.000 C 
ATOM     11  C   UNL     1       3.080  16.554  -0.666  0.00  0.00    +0.000 C 
BRANCH  10  12
ATOM     12  O   UNL     1       2.992  17.141  -2.986  0.00  0.00    +0.000 OA
ATOM     13  H   UNL     1       3.099  16.176  -2.943  0.00  0.00    +0.000 HD
ENDBRANCH  10  12
ENDBRANCH   9  10
ENDBRANCH   1   9
BRANCH   1  14
ATOM     14  C   UNL     1      -0.259  17.635  -3.637  0.00  0.00    +0.000 C 
BRANCH  14  15
ATOM     15  C   UNL     1      -0.156  16.730  -4.889  0.00  0.00    +0.000 C 
ATOM     16  C   UNL     1      -1.174  17.081  -5.968  0.00  0.00    +0.000 C 
BRANCH  15  17
ATOM     17  O   UNL     1       1.144  16.786  -5.474  0.00  0.00    +0.000 OA
ATOM     18  H   UNL     1       1.740  16.398  -4.802  0.00  0.00    +0.000 HD
ENDBRANCH  15  17
ENDBRANCH  14  15
ENDBRANCH   1  14
TORSDOF 7
ENDMDL
MODEL 5
REMARK VINA RESULT:    -4.125      2.221      5.906
REMARK INTER + INTRA:          -5.719
REMARK INTER:                  -5.216
REMARK INTRA:                  -0.503
REMARK UNBOUND:                -0.147
REMARK  Name = 
REMARK  10 active torsions:
REMARK  status: ('A' for Active; 'I' for Inactive)
REMARK    1  A    between atoms: C_1  and  C_2
REMARK    2  A    between atoms: C_5  and  N_8
REMARK    3  A    between atoms: N_8  and  C_9
REMARK    4  A    between atoms: N_8  and  C_13
REMARK    5  A    between atoms: C_9  and  C_10
REMARK    6  A    between atoms: C_10  and  C_11
REMARK    7  A    between atoms: C_10  and  O_12
REMARK    8  A    between atoms: C_13  and  C_14
REMARK    9  A    between atoms: C_14  and  C_15
REMARK   10  A    between atoms: C_14  and  O_16
REMARK                            x       y       z     vdW  Elec       q    Type
REMARK                         _______ _______ _______ _____ _____    ______ ____
ROOT
ATOM      1  N   UNL     1      11.356  14.919 -19.477  0.00  0.00    +0.000 N 
ENDROOT
BRANCH   1   6
ATOM      2  C   UNL     1      14.103  10.752 -22.379  0.00  0.00    +0.000 C 
ATOM      3  C   UNL     1      13.402  11.826 -21.605  0.00  0.00    +0.000 A 
ATOM      4  C   UNL     1      12.171  11.587 -21.005  0.00  0.00    +0.000 A 
ATOM      5  C   UNL     1      11.504  12.607 -20.306  0.00  0.00    +0.000 A 
ATOM      6  C   UNL     1      12.017  13.912 -20.192  0.00  0.00    +0.000 A 
ATOM      7  C   UNL     1      13.264  14.117 -20.809  0.00  0.00    +0.000 A 
ATOM      8  C   UNL     1      13.942  13.105 -21.509  0.00  0.00    +0.000 A 
ENDBRANCH   1   6
BRANCH   1   9
ATOM      9  C   UNL     1      11.296  14.863 -17.997  0.00  0.00    +0.000 C 
BRANCH   9  10
ATOM     10  C   UNL     1      12.549  15.473 -17.322  0.00  0.00    +0.000 C 
ATOM     11  C   UNL     1      12.492  16.996 -17.343  0.00  0.00    +0.000 C 
BRANCH  10  12
ATOM     12  O   UNL     1      12.654  15.051 -15.955  0.00  0.00    +0.000 OA
ATOM     13  H   UNL     1      12.135  14.236 -15.851  0.00  0.00    +0.000 HD
ENDBRANCH  10  12
ENDBRANCH   9  10
ENDBRANCH   1   9
BRANCH   1  14
ATOM     14  C   UNL     1      10.300  15.747 -20.114  0.00  0.00    +0.000 C 
BRANCH  14  15
ATOM     15  C   UNL     1       8.895  15.447 -19.538  0.00  0.00    +0.000 C 
ATOM     16  C   UNL     1       7.984  16.668 -19.513  0.00  0.00    +0.000 C 
BRANCH  15  17
ATOM     17  O   UNL     1       8.234  14.417 -20.271  0.00  0.00    +0.000 OA
ATOM     18  H   UNL     1       8.942  13.977 -20.783  0.00  0.00    +0.000 HD
ENDBRANCH  15  17
ENDBRANCH  14  15
ENDBRANCH   1  14
TORSDOF 7
ENDMDL
MODEL 6
REMARK VINA RESULT:    -4.096      1.716      3.572
REMARK INTER + INTRA:          -5.680
REMARK INTER:                  -5.277
REMARK INTRA:                  -0.403
REMARK UNBOUND:                -0.147
REMARK  Name = 
REMARK  10 active torsions:
REMARK  status: ('A' for Active; 'I' for Inactive)
REMARK    1  A    between atoms: C_1  and  C_2
REMARK    2  A    between atoms: C_5  and  N_8
REMARK    3  A    between atoms: N_8  and  C_9
REMARK    4  A    between atoms: N_8  and  C_13
REMARK    5  A    between atoms: C_9  and  C_10
REMARK    6  A    between atoms: C_10  and  C_11
REMARK    7  A    between atoms: C_10  and  O_12
REMARK    8  A    between atoms: C_13  and  C_14
REMARK    9  A    between atoms: C_14  and  C_15
REMARK   10  A    between atoms: C_14  and  O_16
REMARK                            x       y       z     vdW  Elec       q    Type
REMARK                         _______ _______ _______ _____ _____    ______ ____
ROOT
ATOM      1  N   UNL     1      10.350  14.951 -18.600  0.00  0.00    +0.000 N 
ENDROOT
BRANCH   1   6
ATOM      2  C   UNL     1       5.122  17.130 -19.719  0.00  0.00    +0.000 C 
ATOM      3  C   UNL     1       6.480  16.556 -19.452  0.00  0.00    +0.000 A 
ATOM      4  C   UNL     1       6.624  15.274 -18.931  0.00  0.00    +0.000 A 
ATOM      5  C   UNL     1       7.898  14.752 -18.654  0.00  0.00    +0.000 A 
ATOM      6  C   UNL     1       9.081  15.485 -18.860  0.00  0.00    +0.000 A 
ATOM      7  C   UNL     1       8.898  16.775 -19.389  0.00  0.00    +0.000 A 
ATOM      8  C   UNL     1       7.630  17.308 -19.672  0.00  0.00    +0.000 A 
ENDBRANCH   1   6
BRANCH   1   9
ATOM      9  C   UNL     1      10.936  13.945 -19.518  0.00  0.00    +0.000 C 
BRANCH   9  10
ATOM     10  C   UNL     1      10.767  14.324 -21.010  0.00  0.00    +0.000 C 
ATOM     11  C   UNL     1      12.037  14.019 -21.796  0.00  0.00    +0.000 C 
BRANCH  10  12
ATOM     12  O   UNL     1       9.688  13.594 -21.608  0.00  0.00    +0.000 OA
ATOM     13  H   UNL     1       9.206  14.198 -22.198  0.00  0.00    +0.000 HD
ENDBRANCH  10  12
ENDBRANCH   9  10
ENDBRANCH   1   9
BRANCH   1  14
ATOM     14  C   UNL     1      10.916  14.946 -17.226  0.00  0.00    +0.000 C 
BRANCH  14  15
ATOM     15  C   UNL     1      12.352  15.520 -17.184  0.00  0.00    +0.000 C 
ATOM     16  C   UNL     1      12.405  17.023 -17.431  0.00  0.00    +0.000 C 
BRANCH  15  17
ATOM     17  O   UNL     1      12.990  15.255 -15.936  0.00  0.00    +0.000 OA
ATOM     18  H   UNL     1      12.876  14.294 -15.793  0.00  0.00    +0.000 HD
ENDBRANCH  15  17
ENDBRANCH  14  15
ENDBRANCH   1  14
TORSDOF 7
ENDMDL
MODEL 7
REMARK VINA RESULT:    -4.011      1.218      1.861
REMARK INTER + INTRA:          -5.565
REMARK INTER:                  -5.416
REMARK INTRA:                  -0.149
REMARK UNBOUND:                -0.147
REMARK  Name = 
REMARK  10 active torsions:
REMARK  status: ('A' for Active; 'I' for Inactive)
REMARK    1  A    between atoms: C_1  and  C_2
REMARK    2  A    between atoms: C_5  and  N_8
REMARK    3  A    between atoms: N_8  and  C_9
REMARK    4  A    between atoms: N_8  and  C_13
REMARK    5  A    between atoms: C_9  and  C_10
REMARK    6  A    between atoms: C_10  and  C_11
REMARK    7  A    between atoms: C_10  and  O_12
REMARK    8  A    between atoms: C_13  and  C_14
REMARK    9  A    between atoms: C_14  and  C_15
REMARK   10  A    between atoms: C_14  and  O_16
REMARK                            x       y       z     vdW  Elec       q    Type
REMARK                         _______ _______ _______ _____ _____    ______ ____
ROOT
ATOM      1  N   UNL     1       9.783  15.104 -19.276  0.00  0.00    +0.000 N 
ENDROOT
BRANCH   1   6
ATOM      2  C   UNL     1       4.507  17.331 -20.002  0.00  0.00    +0.000 C 
ATOM      3  C   UNL     1       5.876  16.746 -19.838  0.00  0.00    +0.000 A 
ATOM      4  C   UNL     1       6.046  15.427 -19.431  0.00  0.00    +0.000 A 
ATOM      5  C   UNL     1       7.332  14.893 -19.250  0.00  0.00    +0.000 A 
ATOM      6  C   UNL     1       8.503  15.648 -19.440  0.00  0.00    +0.000 A 
ATOM      7  C   UNL     1       8.294  16.977 -19.852  0.00  0.00    +0.000 A 
ATOM      8  C   UNL     1       7.013  17.523 -20.039  0.00  0.00    +0.000 A 
ENDBRANCH   1   6
BRANCH   1   9
ATOM      9  C   UNL     1      10.309  14.837 -17.916  0.00  0.00    +0.000 C 
BRANCH   9  10
ATOM     10  C   UNL     1      11.681  15.507 -17.661  0.00  0.00    +0.000 C 
ATOM     11  C   UNL     1      11.573  17.024 -17.758  0.00  0.00    +0.000 C 
BRANCH  10  12
ATOM     12  O   UNL     1      12.179  15.180 -16.356  0.00  0.00    +0.000 OA
ATOM     13  H   UNL     1      12.977  14.637 -16.465  0.00  0.00    +0.000 HD
ENDBRANCH  10  12
ENDBRANCH   9  10
ENDBRANCH   1   9
BRANCH   1  14
ATOM     14  C   UNL     1      10.821  15.248 -20.329  0.00  0.00    +0.000 C 
BRANCH  14  15
ATOM     15  C   UNL     1      10.904  14.001 -21.243  0.00  0.00    +0.000 C 
ATOM     16  C   UNL     1      11.671  12.846 -20.611  0.00  0.00    +0.000 C 
BRANCH  15  17
ATOM     17  O   UNL     1       9.608  13.526 -21.605  0.00  0.00    +0.000 OA
ATOM     18  H   UNL     1       9.122  14.320 -21.905  0.00  0.00    +0.000 HD
ENDBRANCH  15  17
ENDBRANCH  14  15
ENDBRANCH   1  14
TORSDOF 7
ENDMDL
MODEL 8
REMARK VINA RESULT:    -3.769      2.639      5.683
REMARK INTER + INTRA:          -5.239
REMARK INTER:                  -4.674
REMARK INTRA:                  -0.565
REMARK UNBOUND:                -0.147
REMARK  Name = 
REMARK  10 active torsions:
REMARK  status: ('A' for Active; 'I' for Inactive)
REMARK    1  A    between atoms: C_1  and  C_2
REMARK    2  A    between atoms: C_5  and  N_8
REMARK    3  A    between atoms: N_8  and  C_9
REMARK    4  A    between atoms: N_8  and  C_13
REMARK    5  A    between atoms: C_9  and  C_10
REMARK    6  A    between atoms: C_10  and  C_11
REMARK    7  A    between atoms: C_10  and  O_12
REMARK    8  A    between atoms: C_13  and  C_14
REMARK    9  A    between atoms: C_14  and  C_15
REMARK   10  A    between atoms: C_14  and  O_16
REMARK                            x       y       z     vdW  Elec       q    Type
REMARK                         _______ _______ _______ _____ _____    ______ ____
ROOT
ATOM      1  N   UNL     1      10.893  15.193 -18.739  0.00  0.00    +0.000 N 
ENDROOT
BRANCH   1   6
ATOM      2  C   UNL     1      14.748  18.176 -15.646  0.00  0.00    +0.000 C 
ATOM      3  C   UNL     1      13.763  17.404 -16.468  0.00  0.00    +0.000 A 
ATOM      4  C   UNL     1      12.748  18.052 -17.164  0.00  0.00    +0.000 A 
ATOM      5  C   UNL     1      11.809  17.321 -17.909  0.00  0.00    +0.000 A 
ATOM      6  C   UNL     1      11.821  15.916 -17.978  0.00  0.00    +0.000 A 
ATOM      7  C   UNL     1      12.862  15.293 -17.265  0.00  0.00    +0.000 A 
ATOM      8  C   UNL     1      13.808  16.013 -16.517  0.00  0.00    +0.000 A 
ENDBRANCH   1   6
BRANCH   1   9
ATOM      9  C   UNL     1      11.135  13.762 -19.043  0.00  0.00    +0.000 C 
BRANCH   9  10
ATOM     10  C   UNL     1      11.445  13.511 -20.539  0.00  0.00    +0.000 C 
ATOM     11  C   UNL     1      12.917  13.769 -20.841  0.00  0.00    +0.000 C 
BRANCH  10  12
ATOM     12  O   UNL     1      11.148  12.157 -20.906  0.00  0.00    +0.000 OA
ATOM     13  H   UNL     1      10.745  12.166 -21.790  0.00  0.00    +0.000 HD
ENDBRANCH  10  12
ENDBRANCH   9  10
ENDBRANCH   1   9
BRANCH   1  14
ATOM     14  C   UNL     1       9.960  15.880 -19.668  0.00  0.00    +0.000 C 
BRANCH  14  15
ATOM     15  C   UNL     1       8.479  15.558 -19.352  0.00  0.00    +0.000 C 
ATOM     16  C   UNL     1       7.556  16.761 -19.514  0.00  0.00    +0.000 C 
BRANCH  15  17
ATOM     17  O   UNL     1       7.981  14.506 -20.177  0.00  0.00    +0.000 OA
ATOM     18  H   UNL     1       8.548  13.735 -19.972  0.00  0.00    +0.000 HD
ENDBRANCH  15  17
ENDBRANCH  14  15
ENDBRANCH   1  14
TORSDOF 7
ENDMDL
MODEL 9
REMARK VINA RESULT:    -3.574      2.404      5.507
REMARK INTER + INTRA:          -4.975
REMARK INTER:                  -4.462
REMARK INTRA:                  -0.513
REMARK UNBOUND:                -0.147
REMARK  Name = 
REMARK  10 active torsions:
REMARK  status: ('A' for Active; 'I' for Inactive)
REMARK    1  A    between atoms: C_1  and  C_2
REMARK    2  A    between atoms: C_5  and  N_8
REMARK    3  A    between atoms: N_8  and  C_9
REMARK    4  A    between atoms: N_8  and  C_13
REMARK    5  A    between atoms: C_9  and  C_10
REMARK    6  A    between atoms: C_10  and  C_11
REMARK    7  A    between atoms: C_10  and  O_12
REMARK    8  A    between atoms: C_13  and  C_14
REMARK    9  A    between atoms: C_14  and  C_15
REMARK   10  A    between atoms: C_14  and  O_16
REMARK                            x       y       z     vdW  Elec       q    Type
REMARK                         _______ _______ _______ _____ _____    ______ ____
ROOT
ATOM      1  N   UNL     1       9.549  16.184 -19.084  0.00  0.00    +0.000 N 
ENDROOT
BRANCH   1   6
ATOM      2  C   UNL     1      14.421  16.794 -16.047  0.00  0.00    +0.000 C 
ATOM      3  C   UNL     1      13.143  16.640 -16.814  0.00  0.00    +0.000 A 
ATOM      4  C   UNL     1      12.548  15.393 -16.967  0.00  0.00    +0.000 A 
ATOM      5  C   UNL     1      11.366  15.250 -17.713  0.00  0.00    +0.000 A 
ATOM      6  C   UNL     1      10.738  16.331 -18.358  0.00  0.00    +0.000 A 
ATOM      7  C   UNL     1      11.367  17.577 -18.180  0.00  0.00    +0.000 A 
ATOM      8  C   UNL     1      12.547  17.734 -17.435  0.00  0.00    +0.000 A 
ENDBRANCH   1   6
BRANCH   1   9
ATOM      9  C   UNL     1       8.854  14.875 -19.116  0.00  0.00    +0.000 C 
BRANCH   9  10
ATOM     10  C   UNL     1       7.933  14.654 -17.892  0.00  0.00    +0.000 C 
ATOM     11  C   UNL     1       6.508  14.340 -18.332  0.00  0.00    +0.000 C 
BRANCH  10  12
ATOM     12  O   UNL     1       8.400  13.564 -17.086  0.00  0.00    +0.000 OA
ATOM     13  H   UNL     1       9.287  13.317 -17.397  0.00  0.00    +0.000 HD
ENDBRANCH  10  12
ENDBRANCH   9  10
ENDBRANCH   1   9
BRANCH   1  14
ATOM     14  C   UNL     1       9.220  17.094 -20.211  0.00  0.00    +0.000 C 
BRANCH  14  15
ATOM     15  C   UNL     1       8.024  18.021 -19.884  0.00  0.00    +0.000 C 
ATOM     16  C   UNL     1       6.689  17.474 -20.375  0.00  0.00    +0.000 C 
BRANCH  15  17
ATOM     17  O   UNL     1       7.914  18.263 -18.482  0.00  0.00    +0.000 OA
ATOM     18  H   UNL     1       7.871  19.237 -18.396  0.00  0.00    +0.000 HD
ENDBRANCH  15  17
ENDBRANCH  14  15
ENDBRANCH   1  14
TORSDOF 7
ENDMDL
