MODEL 1
REMARK VINA RESULT:    -4.499      0.000      0.000
REMARK INTER + INTRA:          -6.237
REMARK INTER:                  -6.077
REMARK INTRA:                  -0.160
REMARK UNBOUND:                -0.160
REMARK  Name = 
REMARK  10 active torsions:
REMARK  status: ('A' for Active; 'I' for Inactive)
REMARK    1  A    between atoms: C_1  and  C_2
REMARK    2  A    between atoms: C_5  and  N_8
REMARK    3  A    between atoms: N_8  and  C_9
REMARK    4  A    between atoms: N_8  and  C_13
REMARK    5  A    between atoms: C_9  and  C_10
REMARK    6  A    between atoms: C_10  and  C_11
REMARK    7  A    between atoms: C_10  and  O_12
REMARK    8  A    between atoms: C_13  and  C_14
REMARK    9  A    between atoms: C_14  and  C_15
REMARK   10  A    between atoms: C_14  and  O_16
REMARK                            x       y       z     vdW  Elec       q    Type
REMARK                         _______ _______ _______ _____ _____    ______ ____
ROOT
ATOM      1  N   UNL     1       9.593  15.563 -19.355  0.00  0.00    +0.000 N 
ENDROOT
BRANCH   1   6
ATOM      2  C   UNL     1       4.144  17.288 -20.171  0.00  0.00    +0.000 C 
ATOM      3  C   UNL     1       5.556  16.847 -19.935  0.00  0.00    +0.000 A 
ATOM      4  C   UNL     1       6.620  17.721 -20.133  0.00  0.00    +0.000 A 
ATOM      5  C   UNL     1       7.944  17.293 -19.940  0.00  0.00    +0.000 A 
ATOM      6  C   UNL     1       8.272  15.977 -19.565  0.00  0.00    +0.000 A 
ATOM      7  C   UNL     1       7.171  15.122 -19.372  0.00  0.00    +0.000 A 
ATOM      8  C   UNL     1       5.843  15.538 -19.560  0.00  0.00    +0.000 A 
ENDBRANCH   1   6
BRANCH   1   9
ATOM      9  C   UNL     1      10.160  15.552 -17.985  0.00  0.00    +0.000 C 
BRANCH   9  10
ATOM     10  C   UNL     1      10.366  14.121 -17.432  0.00  0.00    +0.000 C 
ATOM     11  C   UNL     1      10.885  14.160 -16.000  0.00  0.00    +0.000 C 
BRANCH  10  12
ATOM     12  O   UNL     1       9.135  13.384 -17.439  0.00  0.00    +0.000 OA
ATOM     13  H   UNL     1       8.433  13.967 -17.104  0.00  0.00    +0.000 HD
ENDBRANCH  10  12
ENDBRANCH   9  10
ENDBRANCH   1   9
BRANCH   1  14
ATOM     14  C   UNL     1      10.599  15.619 -20.447  0.00  0.00    +0.000 C 
BRANCH  14  15
ATOM     15  C   UNL     1      10.739  14.264 -21.182  0.00  0.00    +0.000 C 
ATOM     16  C   UNL     1      11.672  13.290 -20.472  0.00  0.00    +0.000 C 
BRANCH  15  17
ATOM     17  O   UNL     1       9.476  13.622 -21.350  0.00  0.00    +0.000 OA
ATOM     18  H   UNL     1       9.409  13.445 -22.310  0.00  0.00    +0.000 HD
ENDBRANCH  15  17
ENDBRANCH  14  15
ENDBRANCH   1  14
TORSDOF 7
ENDMDL
MODEL 2
REMARK VINA RESULT:    -4.364      3.255      5.900
REMARK INTER + INTRA:          -6.055
REMARK INTER:                  -5.466
REMARK INTRA:                  -0.589
REMARK UNBOUND:                -0.160
REMARK  Name = 
REMARK  10 active torsions:
REMARK  status: ('A' for Active; 'I' for Inactive)
REMARK    1  A    between atoms: C_1  and  C_2
REMARK    2  A    between atoms: C_5  and  N_8
REMARK    3  A    between atoms: N_8  and  C_9
REMARK    4  A    between atoms: N_8  and  C_13
REMARK    5  A    between atoms: C_9  and  C_10
REMARK    6  A    between atoms: C_10  and  C_11
REMARK    7  A    between atoms: C_10  and  O_12
REMARK    8  A    between atoms: C_13  and  C_14
REMARK    9  A    between atoms: C_14  and  C_15
REMARK   10  A    between atoms: C_14  and  O_16
REMARK                            x       y       z     vdW  Elec       q    Type
REMARK                         _______ _______ _______ _____ _____    ______ ____
ROOT
ATOM      1  N   UNL     1      11.555  14.960 -18.717  0.00  0.00    +0.000 N 
ENDROOT
BRANCH   1   6
ATOM      2  C   UNL     1      16.777  16.521 -16.813  0.00  0.00    +0.000 C 
ATOM      3  C   UNL     1      15.429  16.092 -17.304  0.00  0.00    +0.000 A 
ATOM      4  C   UNL     1      15.189  15.906 -18.662  0.00  0.00    +0.000 A 
ATOM      5  C   UNL     1      13.914  15.533 -19.119  0.00  0.00    +0.000 A 
ATOM      6  C   UNL     1      12.819  15.351 -18.256  0.00  0.00    +0.000 A 
ATOM      7  C   UNL     1      13.098  15.545 -16.891  0.00  0.00    +0.000 A 
ATOM      8  C   UNL     1      14.369  15.916 -16.420  0.00  0.00    +0.000 A 
ENDBRANCH   1   6
BRANCH   1   9
ATOM      9  C   UNL     1      10.349  15.230 -17.898  0.00  0.00    +0.000 C 
BRANCH   9  10
ATOM     10  C   UNL     1       9.720  13.941 -17.314  0.00  0.00    +0.000 C 
ATOM     11  C   UNL     1      10.043  13.800 -15.831  0.00  0.00    +0.000 C 
BRANCH  10  12
ATOM     12  O   UNL     1       8.293  13.954 -17.459  0.00  0.00    +0.000 OA
ATOM     13  H   UNL     1       8.080  13.696 -18.371  0.00  0.00    +0.000 HD
ENDBRANCH  10  12
ENDBRANCH   9  10
ENDBRANCH   1   9
BRANCH   1  14
ATOM     14  C   UNL     1      11.404  13.866 -19.710  0.00  0.00    +0.000 C 
BRANCH  14  15
ATOM     15  C   UNL     1      10.823  14.372 -21.053  0.00  0.00    +0.000 C 
ATOM     16  C   UNL     1      11.749  14.125 -22.238  0.00  0.00    +0.000 C 
BRANCH  15  17
ATOM     17  O   UNL     1       9.563  13.769 -21.343  0.00  0.00    +0.000 OA
ATOM     18  H   UNL     1       9.497  13.780 -22.319  0.00  0.00    +0.000 HD
ENDBRANCH  15  17
ENDBRANCH  14  15
ENDBRANCH   1  14
TORSDOF 7
ENDMDL
MODEL 3
REMARK VINA RESULT:    -4.333      3.168      6.458
REMARK INTER + INTRA:          -6.013
REMARK INTER:                  -5.393
REMARK INTRA:                  -0.621
REMARK UNBOUND:                -0.160
REMARK  Name = 
REMARK  10 active torsions:
REMARK  status: ('A' for Active; 'I' for Inactive)
REMARK    1  A    between atoms: C_1  and  C_2
REMARK    2  A    between atoms: C_5  and  N_8
REMARK    3  A    between atoms: N_8  and  C_9
REMARK    4  A    between atoms: N_8  and  C_13
REMARK    5  A    between atoms: C_9  and  C_10
REMARK    6  A    between atoms: C_10  and  C_11
REMARK    7  A    between atoms: C_10  and  O_12
REMARK    8  A    between atoms: C_13  and  C_14
REMARK    9  A    between atoms: C_14  and  C_15
REMARK   10  A    between atoms: C_14  and  O_16
REMARK                            x       y       z     vdW  Elec       q    Type
REMARK                         _______ _______ _______ _____ _____    ______ ____
ROOT
ATOM      1  N   UNL     1      11.490  15.346 -18.846  0.00  0.00    +0.000 N 
ENDROOT
BRANCH   1   6
ATOM      2  C   UNL     1      16.860  16.062 -16.850  0.00  0.00    +0.000 C 
ATOM      3  C   UNL     1      15.464  15.901 -17.369  0.00  0.00    +0.000 A 
ATOM      4  C   UNL     1      14.385  15.800 -16.498  0.00  0.00    +0.000 A 
ATOM      5  C   UNL     1      13.082  15.619 -16.989  0.00  0.00    +0.000 A 
ATOM      6  C   UNL     1      12.794  15.507 -18.361  0.00  0.00    +0.000 A 
ATOM      7  C   UNL     1      13.909  15.616 -19.213  0.00  0.00    +0.000 A 
ATOM      8  C   UNL     1      15.217  15.799 -18.735  0.00  0.00    +0.000 A 
ENDBRANCH   1   6
BRANCH   1   9
ATOM      9  C   UNL     1      11.190  15.608 -20.274  0.00  0.00    +0.000 C 
BRANCH   9  10
ATOM     10  C   UNL     1      10.776  14.329 -21.044  0.00  0.00    +0.000 C 
ATOM     11  C   UNL     1      11.550  13.116 -20.542  0.00  0.00    +0.000 C 
BRANCH  10  12
ATOM     12  O   UNL     1       9.377  14.061 -20.883  0.00  0.00    +0.000 OA
ATOM     13  H   UNL     1       9.134  13.347 -21.495  0.00  0.00    +0.000 HD
ENDBRANCH  10  12
ENDBRANCH   9  10
ENDBRANCH   1   9
BRANCH   1  14
ATOM     14  C   UNL     1      10.318  15.423 -17.937  0.00  0.00    +0.000 C 
BRANCH  14  15
ATOM     15  C   UNL     1       9.843  14.024 -17.475  0.00  0.00    +0.000 C 
ATOM     16  C   UNL     1      10.038  13.787 -15.983  0.00  0.00    +0.000 C 
BRANCH  15  17
ATOM     17  O   UNL     1       8.466  13.807 -17.781  0.00  0.00    +0.000 OA
ATOM     18  H   UNL     1       8.389  13.986 -18.740  0.00  0.00    +0.000 HD
ENDBRANCH  15  17
ENDBRANCH  14  15
ENDBRANCH   1  14
TORSDOF 7
ENDMDL
MODEL 4
REMARK VINA RESULT:    -4.221     17.768     19.346
REMARK INTER + INTRA:          -5.863
REMARK INTER:                  -5.290
REMARK INTRA:                  -0.572
REMARK UNBOUND:                -0.160
REMARK  Name = 
REMARK  10 active torsions:
REMARK  status: ('A' for Active; 'I' for Inactive)
REMARK    1  A    between atoms: C_1  and  C_2
REMARK    2  A    between atoms: C_5  and  N_8
REMARK    3  A    between atoms: N_8  and  C_9
REMARK    4  A    between atoms: N_8  and  C_13
REMARK    5  A    between atoms: C_9  and  C_10
REMARK    6  A    between atoms: C_10  and  C_11
REMARK    7  A    between atoms: C_10  and  O_12
REMARK    8  A    between atoms: C_13  and  C_14
REMARK    9  A    between atoms: C_14  and  C_15
REMARK   10  A    between atoms: C_14  and  O_16
REMARK                            x       y       z     vdW  Elec       q    Type
REMARK                         _______ _______ _______ _____ _____    ______ ____
ROOT
ATOM      1  N   UNL     1       0.108  17.005  -2.639  0.00  0.00    +0.000 N 
ENDROOT
BRANCH   1   6
ATOM      2  C   UNL     1      -1.903  12.134  -0.280  0.00  0.00    +0.000 C 
ATOM      3  C   UNL     1      -1.401  13.398  -0.908  0.00  0.00    +0.000 A 
ATOM      4  C   UNL     1      -0.501  13.361  -1.968  0.00  0.00    +0.000 A 
ATOM      5  C   UNL     1      -0.010  14.549  -2.533  0.00  0.00    +0.000 A 
ATOM      6  C   UNL     1      -0.370  15.823  -2.058  0.00  0.00    +0.000 A 
ATOM      7  C   UNL     1      -1.283  15.823  -0.987  0.00  0.00    +0.000 A 
ATOM      8  C   UNL     1      -1.783  14.642  -0.414  0.00  0.00    +0.000 A 
ENDBRANCH   1   6
BRANCH   1   9
ATOM      9  C   UNL     1       0.802  18.015  -1.805  0.00  0.00    +0.000 C 
BRANCH   9  10
ATOM     10  C   UNL     1       2.327  17.765  -1.703  0.00  0.00    +0.000 C 
ATOM     11  C   UNL     1       2.649  16.819  -0.553  0.00  0.00    +0.000 C 
BRANCH  10  12
ATOM     12  O   UNL     1       2.834  17.183  -2.912  0.00  0.00    +0.000 OA
ATOM     13  H   UNL     1       2.925  17.891  -3.572  0.00  0.00    +0.000 HD
ENDBRANCH  10  12
ENDBRANCH   9  10
ENDBRANCH   1   9
BRANCH   1  14
ATOM     14  C   UNL     1      -0.470  17.529  -3.903  0.00  0.00    +0.000 C 
BRANCH  14  15
ATOM     15  C   UNL     1      -0.137  16.627  -5.116  0.00  0.00    +0.000 C 
ATOM     16  C   UNL     1      -1.106  16.805  -6.279  0.00  0.00    +0.000 C 
BRANCH  15  17
ATOM     17  O   UNL     1       1.184  16.863  -5.601  0.00  0.00    +0.000 OA
ATOM     18  H   UNL     1       1.559  15.972  -5.754  0.00  0.00    +0.000 HD
ENDBRANCH  15  17
ENDBRANCH  14  15
ENDBRANCH   1  14
TORSDOF 7
ENDMDL
MODEL 5
REMARK VINA RESULT:    -4.129      1.469      5.137
REMARK INTER + INTRA:          -5.737
REMARK INTER:                  -5.059
REMARK INTRA:                  -0.678
REMARK UNBOUND:                -0.160
REMARK  Name = 
REMARK  10 active torsions:
REMARK  status: ('A' for Active; 'I' for Inactive)
REMARK    1  A    between atoms: C_1  and  C_2
REMARK    2  A    between atoms: C_5  and  N_8
REMARK    3  A    between atoms: N_8  and  C_9
REMARK    4  A    between atoms: N_8  and  C_13
REMARK    5  A    between atoms: C_9  and  C_10
REMARK    6  A    between atoms: C_10  and  C_11
REMARK    7  A    between atoms: C_10  and  O_12
REMARK    8  A    between atoms: C_13  and  C_14
REMARK    9  A    between atoms: C_14  and  C_15
REMARK   10  A    between atoms: C_14  and  O_16
REMARK                            x       y       z     vdW  Elec       q    Type
REMARK                         _______ _______ _______ _____ _____    ______ ____
ROOT
ATOM      1  N   UNL     1      10.334  15.667 -19.389  0.00  0.00    +0.000 N 
ENDROOT
BRANCH   1   6
ATOM      2  C   UNL     1      14.058  12.311 -22.252  0.00  0.00    +0.000 C 
ATOM      3  C   UNL     1      13.091  13.197 -21.529  0.00  0.00    +0.000 A 
ATOM      4  C   UNL     1      13.541  14.216 -20.695  0.00  0.00    +0.000 A 
ATOM      5  C   UNL     1      12.630  15.024 -19.996  0.00  0.00    +0.000 A 
ATOM      6  C   UNL     1      11.238  14.845 -20.074  0.00  0.00    +0.000 A 
ATOM      7  C   UNL     1      10.818  13.807 -20.927  0.00  0.00    +0.000 A 
ATOM      8  C   UNL     1      11.719  12.993 -21.634  0.00  0.00    +0.000 A 
ENDBRANCH   1   6
BRANCH   1   9
ATOM      9  C   UNL     1      10.223  15.582 -17.913  0.00  0.00    +0.000 C 
BRANCH   9  10
ATOM     10  C   UNL     1      10.378  14.136 -17.382  0.00  0.00    +0.000 C 
ATOM     11  C   UNL     1      10.791  14.135 -15.915  0.00  0.00    +0.000 C 
BRANCH  10  12
ATOM     12  O   UNL     1       9.147  13.410 -17.497  0.00  0.00    +0.000 OA
ATOM     13  H   UNL     1       9.354  12.461 -17.490  0.00  0.00    +0.000 HD
ENDBRANCH  10  12
ENDBRANCH   9  10
ENDBRANCH   1   9
BRANCH   1  14
ATOM     14  C   UNL     1       9.147  16.241 -20.073  0.00  0.00    +0.000 C 
BRANCH  14  15
ATOM     15  C   UNL     1       7.819  15.773 -19.430  0.00  0.00    +0.000 C 
ATOM     16  C   UNL     1       6.643  16.687 -19.749  0.00  0.00    +0.000 C 
BRANCH  15  17
ATOM     17  O   UNL     1       7.474  14.450 -19.838  0.00  0.00    +0.000 OA
ATOM     18  H   UNL     1       8.194  14.176 -20.441  0.00  0.00    +0.000 HD
ENDBRANCH  15  17
ENDBRANCH  14  15
ENDBRANCH   1  14
TORSDOF 7
ENDMDL
MODEL 6
REMARK VINA RESULT:    -4.108      1.343      3.274
REMARK INTER + INTRA:          -5.710
REMARK INTER:                  -5.265
REMARK INTRA:                  -0.445
REMARK UNBOUND:                -0.160
REMARK  Name = 
REMARK  10 active torsions:
REMARK  status: ('A' for Active; 'I' for Inactive)
REMARK    1  A    between atoms: C_1  and  C_2
REMARK    2  A    between atoms: C_5  and  N_8
REMARK    3  A    between atoms: N_8  and  C_9
REMARK    4  A    between atoms: N_8  and  C_13
REMARK    5  A    between atoms: C_9  and  C_10
REMARK    6  A    between atoms: C_10  and  C_11
REMARK    7  A    between atoms: C_10  and  O_12
REMARK    8  A    between atoms: C_13  and  C_14
REMARK    9  A    between atoms: C_14  and  C_15
REMARK   10  A    between atoms: C_14  and  O_16
REMARK                            x       y       z     vdW  Elec       q    Type
REMARK                         _______ _______ _______ _____ _____    ______ ____
ROOT
ATOM      1  N   UNL     1      10.137  15.583 -19.009  0.00  0.00    +0.000 N 
ENDROOT
BRANCH   1   6
ATOM      2  C   UNL     1       4.640  17.028 -20.022  0.00  0.00    +0.000 C 
ATOM      3  C   UNL     1       6.068  16.644 -19.783  0.00  0.00    +0.000 A 
ATOM      4  C   UNL     1       6.394  15.399 -19.255  0.00  0.00    +0.000 A 
ATOM      5  C   UNL     1       7.733  15.057 -19.004  0.00  0.00    +0.000 A 
ATOM      6  C   UNL     1       8.802  15.939 -19.243  0.00  0.00    +0.000 A 
ATOM      7  C   UNL     1       8.435  17.187 -19.779  0.00  0.00    +0.000 A 
ATOM      8  C   UNL     1       7.101  17.542 -20.036  0.00  0.00    +0.000 A 
ENDBRANCH   1   6
BRANCH   1   9
ATOM      9  C   UNL     1      10.664  14.296 -19.523  0.00  0.00    +0.000 C 
BRANCH   9  10
ATOM     10  C   UNL     1      10.795  14.275 -21.066  0.00  0.00    +0.000 C 
ATOM     11  C   UNL     1      12.075  13.567 -21.494  0.00  0.00    +0.000 C 
BRANCH  10  12
ATOM     12  O   UNL     1       9.687  13.591 -21.667  0.00  0.00    +0.000 OA
ATOM     13  H   UNL     1      10.026  12.791 -22.101  0.00  0.00    +0.000 HD
ENDBRANCH  10  12
ENDBRANCH   9  10
ENDBRANCH   1   9
BRANCH   1  14
ATOM     14  C   UNL     1      10.898  16.161 -17.872  0.00  0.00    +0.000 C 
BRANCH  14  15
ATOM     15  C   UNL     1      11.870  15.136 -17.239  0.00  0.00    +0.000 C 
ATOM     16  C   UNL     1      13.264  15.703 -16.995  0.00  0.00    +0.000 C 
BRANCH  15  17
ATOM     17  O   UNL     1      11.374  14.634 -16.000  0.00  0.00    +0.000 OA
ATOM     18  H   UNL     1      10.877  13.824 -16.235  0.00  0.00    +0.000 HD
ENDBRANCH  15  17
ENDBRANCH  14  15
ENDBRANCH   1  14
TORSDOF 7
ENDMDL
MODEL 7
REMARK VINA RESULT:    -4.013      2.745      6.196
REMARK INTER + INTRA:          -5.581
REMARK INTER:                  -5.114
REMARK INTRA:                  -0.468
REMARK UNBOUND:                -0.160
REMARK  Name = 
REMARK  10 active torsions:
REMARK  status: ('A' for Active; 'I' for Inactive)
REMARK    1  A    between atoms: C_1  and  C_2
REMARK    2  A    between atoms: C_5  and  N_8
REMARK    3  A    between atoms: N_8  and  C_9
REMARK    4  A    between atoms: N_8  and  C_13
REMARK    5  A    between atoms: C_9  and  C_10
REMARK    6  A    between atoms: C_10  and  C_11
REMARK    7  A    between atoms: C_10  and  O_12
REMARK    8  A    between atoms: C_13  and  C_14
REMARK    9  A    between atoms: C_14  and  C_15
REMARK   10  A    between atoms: C_14  and  O_16
REMARK                            x       y       z     vdW  Elec       q    Type
REMARK                         _______ _______ _______ _____ _____    ______ ____
ROOT
ATOM      1  N   UNL     1      11.132  15.001 -19.196  0.00  0.00    +0.000 N 
ENDROOT
BRANCH   1   6
ATOM      2  C   UNL     1      15.992  16.310 -16.368  0.00  0.00    +0.000 C 
ATOM      3  C   UNL     1      14.725  15.995 -17.103  0.00  0.00    +0.000 A 
ATOM      4  C   UNL     1      13.554  15.699 -16.413  0.00  0.00    +0.000 A 
ATOM      5  C   UNL     1      12.377  15.374 -17.107  0.00  0.00    +0.000 A 
ATOM      6  C   UNL     1      12.314  15.306 -18.510  0.00  0.00    +0.000 A 
ATOM      7  C   UNL     1      13.516  15.613 -19.175  0.00  0.00    +0.000 A 
ATOM      8  C   UNL     1      14.700  15.941 -18.494  0.00  0.00    +0.000 A 
ENDBRANCH   1   6
BRANCH   1   9
ATOM      9  C   UNL     1      11.039  15.232 -20.658  0.00  0.00    +0.000 C 
BRANCH   9  10
ATOM     10  C   UNL     1      10.987  13.916 -21.472  0.00  0.00    +0.000 C 
ATOM     11  C   UNL     1      11.669  12.781 -20.717  0.00  0.00    +0.000 C 
BRANCH  10  12
ATOM     12  O   UNL     1       9.632  13.525 -21.732  0.00  0.00    +0.000 OA
ATOM     13  H   UNL     1       9.274  14.115 -22.416  0.00  0.00    +0.000 HD
ENDBRANCH  10  12
ENDBRANCH   9  10
ENDBRANCH   1   9
BRANCH   1  14
ATOM     14  C   UNL     1       9.827  14.941 -18.489  0.00  0.00    +0.000 C 
BRANCH  14  15
ATOM     15  C   UNL     1       8.740  15.785 -19.198  0.00  0.00    +0.000 C 
ATOM     16  C   UNL     1       7.353  15.155 -19.130  0.00  0.00    +0.000 C 
BRANCH  15  17
ATOM     17  O   UNL     1       8.654  17.100 -18.653  0.00  0.00    +0.000 OA
ATOM     18  H   UNL     1       8.056  17.586 -19.256  0.00  0.00    +0.000 HD
ENDBRANCH  15  17
ENDBRANCH  14  15
ENDBRANCH   1  14
TORSDOF 7
ENDMDL
MODEL 8
REMARK VINA RESULT:    -3.873      2.204      6.087
REMARK INTER + INTRA:          -5.392
REMARK INTER:                  -4.615
REMARK INTRA:                  -0.777
REMARK UNBOUND:                -0.160
REMARK  Name = 
REMARK  10 active torsions:
REMARK  status: ('A' for Active; 'I' for Inactive)
REMARK    1  A    between atoms: C_1  and  C_2
REMARK    2  A    between atoms: C_5  and  N_8
REMARK    3  A    between atoms: N_8  and  C_9
REMARK    4  A    between atoms: N_8  and  C_13
REMARK    5  A    between atoms: C_9  and  C_10
REMARK    6  A    between atoms: C_10  and  C_11
REMARK    7  A    between atoms: C_10  and  O_12
REMARK    8  A    between atoms: C_13  and  C_14
REMARK    9  A    between atoms: C_14  and  C_15
REMARK   10  A    between atoms: C_14  and  O_16
REMARK                            x       y       z     vdW  Elec       q    Type
REMARK                         _______ _______ _______ _____ _____    ______ ____
ROOT
ATOM      1  N   UNL     1      11.495  14.952 -19.426  0.00  0.00    +0.000 N 
ENDROOT
BRANCH   1   6
ATOM      2  C   UNL     1      13.910  10.636 -22.405  0.00  0.00    +0.000 C 
ATOM      3  C   UNL     1      13.296  11.749 -21.612  0.00  0.00    +0.000 A 
ATOM      4  C   UNL     1      12.101  11.563 -20.925  0.00  0.00    +0.000 A 
ATOM      5  C   UNL     1      11.515  12.619 -20.208  0.00  0.00    +0.000 A 
ATOM      6  C   UNL     1      12.075  13.909 -20.160  0.00  0.00    +0.000 A 
ATOM      7  C   UNL     1      13.284  14.060 -20.863  0.00  0.00    +0.000 A 
ATOM      8  C   UNL     1      13.881  13.012 -21.582  0.00  0.00    +0.000 A 
ENDBRANCH   1   6
BRANCH   1   9
ATOM      9  C   UNL     1      10.179  15.503 -19.831  0.00  0.00    +0.000 C 
BRANCH   9  10
ATOM     10  C   UNL     1       9.101  15.351 -18.730  0.00  0.00    +0.000 C 
ATOM     11  C   UNL     1       7.702  15.350 -19.334  0.00  0.00    +0.000 C 
BRANCH  10  12
ATOM     12  O   UNL     1       9.273  14.124 -18.007  0.00  0.00    +0.000 OA
ATOM     13  H   UNL     1       8.404  13.846 -17.674  0.00  0.00    +0.000 HD
ENDBRANCH  10  12
ENDBRANCH   9  10
ENDBRANCH   1   9
BRANCH   1  14
ATOM     14  C   UNL     1      12.325  15.863 -18.597  0.00  0.00    +0.000 C 
BRANCH  14  15
ATOM     15  C   UNL     1      12.800  15.189 -17.287  0.00  0.00    +0.000 C 
ATOM     16  C   UNL     1      13.832  16.016 -16.528  0.00  0.00    +0.000 C 
BRANCH  15  17
ATOM     17  O   UNL     1      11.711  14.925 -16.405  0.00  0.00    +0.000 OA
ATOM     18  H   UNL     1      12.126  14.607 -15.578  0.00  0.00    +0.000 HD
ENDBRANCH  15  17
ENDBRANCH  14  15
ENDBRANCH   1  14
TORSDOF 7
ENDMDL
MODEL 9
REMARK VINA RESULT:    -3.804      1.988      5.424
REMARK INTER + INTRA:          -5.298
REMARK INTER:                  -4.588
REMARK INTRA:                  -0.710
REMARK UNBOUND:                -0.160
REMARK  Name = 
REMARK  10 active torsions:
REMARK  status: ('A' for Active; 'I' for Inactive)
REMARK    1  A    between atoms: C_1  and  C_2
REMARK    2  A    between atoms: C_5  and  N_8
REMARK    3  A    between atoms: N_8  and  C_9
REMARK    4  A    between atoms: N_8  and  C_13
REMARK    5  A    between atoms: C_9  and  C_10
REMARK    6  A    between atoms: C_10  and  C_11
REMARK    7  A    between atoms: C_10  and  O_12
REMARK    8  A    between atoms: C_13  and  C_14
REMARK    9  A    between atoms: C_14  and  C_15
REMARK   10  A    between atoms: C_14  and  O_16
REMARK                            x       y       z     vdW  Elec       q    Type
REMARK                         _______ _______ _______ _____ _____    ______ ____
ROOT
ATOM      1  N   UNL     1      10.040  16.125 -20.196  0.00  0.00    +0.000 N 
ENDROOT
BRANCH   1   6
ATOM      2  C   UNL     1      14.251  16.121 -16.247  0.00  0.00    +0.000 C 
ATOM      3  C   UNL     1      13.171  16.106 -17.286  0.00  0.00    +0.000 A 
ATOM      4  C   UNL     1      13.168  17.029 -18.326  0.00  0.00    +0.000 A 
ATOM      5  C   UNL     1      12.137  17.030 -19.279  0.00  0.00    +0.000 A 
ATOM      6  C   UNL     1      11.055  16.132 -19.231  0.00  0.00    +0.000 A 
ATOM      7  C   UNL     1      11.092  15.212 -18.168  0.00  0.00    +0.000 A 
ATOM      8  C   UNL     1      12.118  15.199 -17.208  0.00  0.00    +0.000 A 
ENDBRANCH   1   6
BRANCH   1   9
ATOM      9  C   UNL     1      10.383  16.004 -21.634  0.00  0.00    +0.000 C 
BRANCH   9  10
ATOM     10  C   UNL     1      10.692  14.547 -22.057  0.00  0.00    +0.000 C 
ATOM     11  C   UNL     1      12.129  14.173 -21.713  0.00  0.00    +0.000 C 
BRANCH  10  12
ATOM     12  O   UNL     1       9.821  13.622 -21.391  0.00  0.00    +0.000 OA
ATOM     13  H   UNL     1      10.297  13.258 -20.626  0.00  0.00    +0.000 HD
ENDBRANCH  10  12
ENDBRANCH   9  10
ENDBRANCH   1   9
BRANCH   1  14
ATOM     14  C   UNL     1       8.712  16.730 -19.920  0.00  0.00    +0.000 C 
BRANCH  14  15
ATOM     15  C   UNL     1       7.734  15.720 -19.271  0.00  0.00    +0.000 C 
ATOM     16  C   UNL     1       6.313  16.256 -19.149  0.00  0.00    +0.000 C 
BRANCH  15  17
ATOM     17  O   UNL     1       7.683  14.494 -19.999  0.00  0.00    +0.000 OA
ATOM     18  H   UNL     1       8.416  13.956 -19.639  0.00  0.00    +0.000 HD
ENDBRANCH  15  17
ENDBRANCH  14  15
ENDBRANCH   1  14
TORSDOF 7
ENDMDL
