MODEL 1
REMARK VINA RESULT:    -3.626      0.000      0.000
REMARK INTER + INTRA:          -3.986
REMARK INTER:                  -3.944
REMARK INTRA:                  -0.042
REMARK UNBOUND:                -0.042
REMARK  Name = 
REMARK  3 active torsions:
REMARK  status: ('A' for Active; 'I' for Inactive)
REMARK    1  A    between atoms: C_1  and  O_2
REMARK    2  A    between atoms: O_2  and  C_3
REMARK    3  A    between atoms: C_8  and  O_9
REMARK                            x       y       z     vdW  Elec       q    Type
REMARK                         _______ _______ _______ _____ _____    ______ ____
ROOT
ATOM      1  C   UNL     1     -17.223 -18.971  -2.612  0.00  0.00    +0.000 A 
ATOM      2  C   UNL     1     -18.126 -19.716  -1.855  0.00  0.00    +0.000 A 
ATOM      3  C   UNL     1     -18.376 -19.368  -0.521  0.00  0.00    +0.000 A 
ATOM      4  C   UNL     1     -17.726 -18.277   0.059  0.00  0.00    +0.000 A 
ATOM      5  C   UNL     1     -16.823 -17.527  -0.691  0.00  0.00    +0.000 A 
ATOM      6  C   UNL     1     -16.581 -17.880  -2.012  0.00  0.00    +0.000 A 
ENDROOT
BRANCH   1   8
ATOM      7  C   UNL     1     -16.867 -20.553  -4.349  0.00  0.00    +0.000 C 
ATOM      8  O   UNL     1     -16.883 -19.196  -3.921  0.00  0.00    +0.000 OA
ENDBRANCH   1   8
BRANCH   6   9
ATOM      9  O   UNL     1     -15.690 -17.128  -2.729  0.00  0.00    +0.000 OA
ATOM     10  H   UNL     1     -16.138 -16.954  -3.579  0.00  0.00    +0.000 HD
ENDBRANCH   6   9
TORSDOF 2
ENDMDL
MODEL 2
REMARK VINA RESULT:    -3.429      2.240      3.205
REMARK INTER + INTRA:          -3.772
REMARK INTER:                  -3.719
REMARK INTRA:                  -0.053
REMARK UNBOUND:                -0.042
REMARK  Name = 
REMARK  3 active torsions:
REMARK  status: ('A' for Active; 'I' for Inactive)
REMARK    1  A    between atoms: C_1  and  O_2
REMARK    2  A    between atoms: O_2  and  C_3
REMARK    3  A    between atoms: C_8  and  O_9
REMARK                            x       y       z     vdW  Elec       q    Type
REMARK                         _______ _______ _______ _____ _____    ______ ____
ROOT
ATOM      1  C   UNL     1     -18.041 -19.179  -0.655  0.00  0.00    +0.000 A 
ATOM      2  C   UNL     1     -17.975 -19.615  -1.978  0.00  0.00    +0.000 A 
ATOM      3  C   UNL     1     -17.140 -18.958  -2.891  0.00  0.00    +0.000 A 
ATOM      4  C   UNL     1     -16.371 -17.866  -2.487  0.00  0.00    +0.000 A 
ATOM      5  C   UNL     1     -16.431 -17.424  -1.167  0.00  0.00    +0.000 A 
ATOM      6  C   UNL     1     -17.262 -18.082  -0.269  0.00  0.00    +0.000 A 
ENDROOT
BRANCH   1   8
ATOM      7  C   UNL     1     -18.455 -21.030   0.776  0.00  0.00    +0.000 C 
ATOM      8  O   UNL     1     -18.811 -19.723   0.341  0.00  0.00    +0.000 OA
ENDBRANCH   1   8
BRANCH   6   9
ATOM      9  O   UNL     1     -17.304 -17.629   1.023  0.00  0.00    +0.000 OA
ATOM     10  H   UNL     1     -17.623 -16.709   0.954  0.00  0.00    +0.000 HD
ENDBRANCH   6   9
TORSDOF 2
ENDMDL
MODEL 3
REMARK VINA RESULT:    -3.426      1.801      3.571
REMARK INTER + INTRA:          -3.768
REMARK INTER:                  -3.716
REMARK INTRA:                  -0.052
REMARK UNBOUND:                -0.042
REMARK  Name = 
REMARK  3 active torsions:
REMARK  status: ('A' for Active; 'I' for Inactive)
REMARK    1  A    between atoms: C_1  and  O_2
REMARK    2  A    between atoms: O_2  and  C_3
REMARK    3  A    between atoms: C_8  and  O_9
REMARK                            x       y       z     vdW  Elec       q    Type
REMARK                         _______ _______ _______ _____ _____    ______ ____
ROOT
ATOM      1  C   UNL     1     -16.842 -19.150  -3.317  0.00  0.00    +0.000 A 
ATOM      2  C   UNL     1     -17.015 -20.250  -4.157  0.00  0.00    +0.000 A 
ATOM      3  C   UNL     1     -16.228 -20.381  -5.308  0.00  0.00    +0.000 A 
ATOM      4  C   UNL     1     -15.270 -19.416  -5.625  0.00  0.00    +0.000 A 
ATOM      5  C   UNL     1     -15.091 -18.315  -4.791  0.00  0.00    +0.000 A 
ATOM      6  C   UNL     1     -15.876 -18.193  -3.651  0.00  0.00    +0.000 A 
ENDROOT
BRANCH   1   8
ATOM      7  C   UNL     1     -18.950 -18.771  -2.288  0.00  0.00    +0.000 C 
ATOM      8  O   UNL     1     -17.539 -18.894  -2.164  0.00  0.00    +0.000 OA
ENDBRANCH   1   8
BRANCH   6   9
ATOM      9  O   UNL     1     -15.683 -17.102  -2.847  0.00  0.00    +0.000 OA
ATOM     10  H   UNL     1     -14.944 -17.354  -2.259  0.00  0.00    +0.000 HD
ENDBRANCH   6   9
TORSDOF 2
ENDMDL
MODEL 4
REMARK VINA RESULT:    -3.269      1.645      2.462
REMARK INTER + INTRA:          -3.597
REMARK INTER:                  -3.558
REMARK INTRA:                  -0.040
REMARK UNBOUND:                -0.042
REMARK  Name = 
REMARK  3 active torsions:
REMARK  status: ('A' for Active; 'I' for Inactive)
REMARK    1  A    between atoms: C_1  and  O_2
REMARK    2  A    between atoms: O_2  and  C_3
REMARK    3  A    between atoms: C_8  and  O_9
REMARK                            x       y       z     vdW  Elec       q    Type
REMARK                         _______ _______ _______ _____ _____    ______ ____
ROOT
ATOM      1  C   UNL     1     -17.451 -18.246  -1.395  0.00  0.00    +0.000 A 
ATOM      2  C   UNL     1     -18.317 -18.987  -2.199  0.00  0.00    +0.000 A 
ATOM      3  C   UNL     1     -19.345 -19.737  -1.613  0.00  0.00    +0.000 A 
ATOM      4  C   UNL     1     -19.511 -19.750  -0.227  0.00  0.00    +0.000 A 
ATOM      5  C   UNL     1     -18.650 -19.011   0.582  0.00  0.00    +0.000 A 
ATOM      6  C   UNL     1     -17.633 -18.271  -0.007  0.00  0.00    +0.000 A 
ENDROOT
BRANCH   1   8
ATOM      7  C   UNL     1     -15.845 -17.812  -3.092  0.00  0.00    +0.000 C 
ATOM      8  O   UNL     1     -16.406 -17.471  -1.829  0.00  0.00    +0.000 OA
ENDBRANCH   1   8
BRANCH   6   9
ATOM      9  O   UNL     1     -16.799 -17.554   0.809  0.00  0.00    +0.000 OA
ATOM     10  H   UNL     1     -17.397 -17.051   1.394  0.00  0.00    +0.000 HD
ENDBRANCH   6   9
TORSDOF 2
ENDMDL
MODEL 5
REMARK VINA RESULT:    -3.197      1.277      3.125
REMARK INTER + INTRA:          -3.519
REMARK INTER:                  -3.468
REMARK INTRA:                  -0.051
REMARK UNBOUND:                -0.042
REMARK  Name = 
REMARK  3 active torsions:
REMARK  status: ('A' for Active; 'I' for Inactive)
REMARK    1  A    between atoms: C_1  and  O_2
REMARK    2  A    between atoms: O_2  and  C_3
REMARK    3  A    between atoms: C_8  and  O_9
REMARK                            x       y       z     vdW  Elec       q    Type
REMARK                         _______ _______ _______ _____ _____    ______ ____
ROOT
ATOM      1  C   UNL     1     -17.535 -18.495  -2.117  0.00  0.00    +0.000 A 
ATOM      2  C   UNL     1     -18.265 -19.637  -2.443  0.00  0.00    +0.000 A 
ATOM      3  C   UNL     1     -17.911 -20.398  -3.564  0.00  0.00    +0.000 A 
ATOM      4  C   UNL     1     -16.829 -20.021  -4.363  0.00  0.00    +0.000 A 
ATOM      5  C   UNL     1     -16.095 -18.881  -4.044  0.00  0.00    +0.000 A 
ATOM      6  C   UNL     1     -16.454 -18.132  -2.930  0.00  0.00    +0.000 A 
ENDROOT
BRANCH   1   8
ATOM      7  C   UNL     1     -17.781 -18.260   0.234  0.00  0.00    +0.000 C 
ATOM      8  O   UNL     1     -17.768 -17.659  -1.055  0.00  0.00    +0.000 OA
ENDBRANCH   1   8
BRANCH   6   9
ATOM      9  O   UNL     1     -15.717 -17.016  -2.637  0.00  0.00    +0.000 OA
ATOM     10  H   UNL     1     -15.059 -16.957  -3.355  0.00  0.00    +0.000 HD
ENDBRANCH   6   9
TORSDOF 2
ENDMDL
MODEL 6
REMARK VINA RESULT:    -2.994      1.205      2.329
REMARK INTER + INTRA:          -3.299
REMARK INTER:                  -3.260
REMARK INTRA:                  -0.038
REMARK UNBOUND:                -0.042
REMARK  Name = 
REMARK  3 active torsions:
REMARK  status: ('A' for Active; 'I' for Inactive)
REMARK    1  A    between atoms: C_1  and  O_2
REMARK    2  A    between atoms: O_2  and  C_3
REMARK    3  A    between atoms: C_8  and  O_9
REMARK                            x       y       z     vdW  Elec       q    Type
REMARK                         _______ _______ _______ _____ _____    ______ ____
ROOT
ATOM      1  C   UNL     1     -17.219 -18.927  -2.741  0.00  0.00    +0.000 A 
ATOM      2  C   UNL     1     -16.409 -17.878  -2.307  0.00  0.00    +0.000 A 
ATOM      3  C   UNL     1     -16.503 -17.422  -0.986  0.00  0.00    +0.000 A 
ATOM      4  C   UNL     1     -17.404 -18.011  -0.096  0.00  0.00    +0.000 A 
ATOM      5  C   UNL     1     -18.216 -19.060  -0.522  0.00  0.00    +0.000 A 
ATOM      6  C   UNL     1     -18.116 -19.505  -1.835  0.00  0.00    +0.000 A 
ENDROOT
BRANCH   1   8
ATOM      7  C   UNL     1     -16.115 -19.184  -4.830  0.00  0.00    +0.000 C 
ATOM      8  O   UNL     1     -17.234 -19.472  -4.000  0.00  0.00    +0.000 OA
ENDBRANCH   1   8
BRANCH   6   9
ATOM      9  O   UNL     1     -18.924 -20.537  -2.230  0.00  0.00    +0.000 OA
ATOM     10  H   UNL     1     -18.988 -21.117  -1.448  0.00  0.00    +0.000 HD
ENDBRANCH   6   9
TORSDOF 2
ENDMDL
MODEL 7
REMARK VINA RESULT:    -2.958      1.235      2.018
REMARK INTER + INTRA:          -3.259
REMARK INTER:                  -3.211
REMARK INTRA:                  -0.049
REMARK UNBOUND:                -0.042
REMARK  Name = 
REMARK  3 active torsions:
REMARK  status: ('A' for Active; 'I' for Inactive)
REMARK    1  A    between atoms: C_1  and  O_2
REMARK    2  A    between atoms: O_2  and  C_3
REMARK    3  A    between atoms: C_8  and  O_9
REMARK                            x       y       z     vdW  Elec       q    Type
REMARK                         _______ _______ _______ _____ _____    ______ ____
ROOT
ATOM      1  C   UNL     1     -18.278 -19.332  -2.071  0.00  0.00    +0.000 A 
ATOM      2  C   UNL     1     -18.520 -19.131  -0.713  0.00  0.00    +0.000 A 
ATOM      3  C   UNL     1     -17.722 -18.238   0.015  0.00  0.00    +0.000 A 
ATOM      4  C   UNL     1     -16.683 -17.546  -0.610  0.00  0.00    +0.000 A 
ATOM      5  C   UNL     1     -16.436 -17.742  -1.967  0.00  0.00    +0.000 A 
ATOM      6  C   UNL     1     -17.232 -18.629  -2.681  0.00  0.00    +0.000 A 
ENDROOT
BRANCH   1   8
ATOM      7  C   UNL     1     -20.291 -19.765  -3.258  0.00  0.00    +0.000 C 
ATOM      8  O   UNL     1     -18.975 -20.172  -2.903  0.00  0.00    +0.000 OA
ENDBRANCH   1   8
BRANCH   6   9
ATOM      9  O   UNL     1     -16.969 -18.805  -4.013  0.00  0.00    +0.000 OA
ATOM     10  H   UNL     1     -17.386 -19.659  -4.238  0.00  0.00    +0.000 HD
ENDBRANCH   6   9
TORSDOF 2
ENDMDL
MODEL 8
REMARK VINA RESULT:    -2.894     16.631     17.472
REMARK INTER + INTRA:          -3.190
REMARK INTER:                  -3.140
REMARK INTRA:                  -0.050
REMARK UNBOUND:                -0.042
REMARK  Name = 
REMARK  3 active torsions:
REMARK  status: ('A' for Active; 'I' for Inactive)
REMARK    1  A    between atoms: C_1  and  O_2
REMARK    2  A    between atoms: O_2  and  C_3
REMARK    3  A    between atoms: C_8  and  O_9
REMARK                            x       y       z     vdW  Elec       q    Type
REMARK                         _______ _______ _______ _____ _____    ______ ____
ROOT
ATOM      1  C   UNL     1      -1.397 -18.508   5.109  0.00  0.00    +0.000 A 
ATOM      2  C   UNL     1      -1.739 -19.295   6.208  0.00  0.00    +0.000 A 
ATOM      3  C   UNL     1      -1.727 -18.742   7.495  0.00  0.00    +0.000 A 
ATOM      4  C   UNL     1      -1.373 -17.405   7.688  0.00  0.00    +0.000 A 
ATOM      5  C   UNL     1      -1.030 -16.613   6.595  0.00  0.00    +0.000 A 
ATOM      6  C   UNL     1      -1.044 -17.170   5.323  0.00  0.00    +0.000 A 
ENDROOT
BRANCH   1   8
ATOM      7  C   UNL     1      -2.621 -19.164   3.181  0.00  0.00    +0.000 C 
ATOM      8  O   UNL     1      -1.364 -18.915   3.800  0.00  0.00    +0.000 OA
ENDBRANCH   1   8
BRANCH   6   9
ATOM      9  O   UNL     1      -0.703 -16.371   4.264  0.00  0.00    +0.000 OA
ATOM     10  H   UNL     1       0.168 -16.703   3.973  0.00  0.00    +0.000 HD
ENDBRANCH   6   9
TORSDOF 2
ENDMDL
MODEL 9
REMARK VINA RESULT:    -2.878     18.318     19.028
REMARK INTER + INTRA:          -3.173
REMARK INTER:                  -3.136
REMARK INTRA:                  -0.037
REMARK UNBOUND:                -0.042
REMARK  Name = 
REMARK  3 active torsions:
REMARK  status: ('A' for Active; 'I' for Inactive)
REMARK    1  A    between atoms: C_1  and  O_2
REMARK    2  A    between atoms: O_2  and  C_3
REMARK    3  A    between atoms: C_8  and  O_9
REMARK                            x       y       z     vdW  Elec       q    Type
REMARK                         _______ _______ _______ _____ _____    ______ ____
ROOT
ATOM      1  C   UNL     1      -0.772 -16.793   6.748  0.00  0.00    +0.000 A 
ATOM      2  C   UNL     1      -0.002 -15.631   6.764  0.00  0.00    +0.000 A 
ATOM      3  C   UNL     1       0.015 -14.818   7.904  0.00  0.00    +0.000 A 
ATOM      4  C   UNL     1      -0.737 -15.162   9.029  0.00  0.00    +0.000 A 
ATOM      5  C   UNL     1      -1.509 -16.321   9.021  0.00  0.00    +0.000 A 
ATOM      6  C   UNL     1      -1.520 -17.121   7.886  0.00  0.00    +0.000 A 
ENDROOT
BRANCH   1   8
ATOM      7  C   UNL     1      -0.192 -17.340   4.509  0.00  0.00    +0.000 C 
ATOM      8  O   UNL     1      -0.884 -17.678   5.706  0.00  0.00    +0.000 OA
ENDBRANCH   1   8
BRANCH   6   9
ATOM      9  O   UNL     1      -2.286 -18.256   7.901  0.00  0.00    +0.000 OA
ATOM     10  H   UNL     1      -1.994 -18.742   8.696  0.00  0.00    +0.000 HD
ENDBRANCH   6   9
TORSDOF 2
ENDMDL
