MODEL 1
REMARK VINA RESULT:    -4.271      0.000      0.000
REMARK INTER + INTRA:          -6.188
REMARK INTER:                  -5.769
REMARK INTRA:                  -0.418
REMARK UNBOUND:                -0.418
REMARK  Name = 
REMARK  10 active torsions:
REMARK  status: ('A' for Active; 'I' for Inactive)
REMARK    1  A    between atoms: C_1  and  C_2
REMARK    2  A    between atoms: C_5  and  N_8
REMARK    3  A    between atoms: N_8  and  C_9
REMARK    4  A    between atoms: N_8  and  C_13
REMARK    5  A    between atoms: C_9  and  C_10
REMARK    6  A    between atoms: C_10  and  C_11
REMARK    7  A    between atoms: C_10  and  O_12
REMARK    8  A    between atoms: C_13  and  C_14
REMARK    9  A    between atoms: C_14  and  C_15
REMARK   10  A    between atoms: C_14  and  O_16
REMARK                            x       y       z     vdW  Elec       q    Type
REMARK                         _______ _______ _______ _____ _____    ______ ____
ROOT
ATOM      1  N   UNL     1     -17.865 -18.761  -2.327  0.00  0.00    +0.000 N 
ENDROOT
BRANCH   1   6
ATOM      2  C   UNL     1     -15.030 -21.119  -6.770  0.00  0.00    +0.000 C 
ATOM      3  C   UNL     1     -15.746 -20.513  -5.602  0.00  0.00    +0.000 A 
ATOM      4  C   UNL     1     -16.657 -21.257  -4.859  0.00  0.00    +0.000 A 
ATOM      5  C   UNL     1     -17.349 -20.676  -3.784  0.00  0.00    +0.000 A 
ATOM      6  C   UNL     1     -17.186 -19.329  -3.413  0.00  0.00    +0.000 A 
ATOM      7  C   UNL     1     -16.256 -18.608  -4.184  0.00  0.00    +0.000 A 
ATOM      8  C   UNL     1     -15.557 -19.177  -5.261  0.00  0.00    +0.000 A 
ENDBRANCH   1   6
BRANCH   1   9
ATOM      9  C   UNL     1     -17.716 -19.342  -0.971  0.00  0.00    +0.000 C 
BRANCH   9  10
ATOM     10  C   UNL     1     -18.060 -18.336   0.154  0.00  0.00    +0.000 C 
ATOM     11  C   UNL     1     -18.907 -18.997   1.236  0.00  0.00    +0.000 C 
BRANCH  10  12
ATOM     12  O   UNL     1     -16.870 -17.826   0.770  0.00  0.00    +0.000 OA
ATOM     13  H   UNL     1     -17.116 -17.440   1.627  0.00  0.00    +0.000 HD
ENDBRANCH  10  12
ENDBRANCH   9  10
ENDBRANCH   1   9
BRANCH   1  14
ATOM     14  C   UNL     1     -19.093 -17.949  -2.527  0.00  0.00    +0.000 C 
BRANCH  14  15
ATOM     15  C   UNL     1     -20.151 -18.691  -3.378  0.00  0.00    +0.000 C 
ATOM     16  C   UNL     1     -20.954 -19.712  -2.580  0.00  0.00    +0.000 C 
BRANCH  15  17
ATOM     17  O   UNL     1     -21.070 -17.784  -3.985  0.00  0.00    +0.000 OA
ATOM     18  H   UNL     1     -21.119 -18.063  -4.922  0.00  0.00    +0.000 HD
ENDBRANCH  15  17
ENDBRANCH  14  15
ENDBRANCH   1  14
TORSDOF 7
ENDMDL
MODEL 2
REMARK VINA RESULT:    -4.183      0.810      3.235
REMARK INTER + INTRA:          -6.069
REMARK INTER:                  -5.917
REMARK INTRA:                  -0.151
REMARK UNBOUND:                -0.418
REMARK  Name = 
REMARK  10 active torsions:
REMARK  status: ('A' for Active; 'I' for Inactive)
REMARK    1  A    between atoms: C_1  and  C_2
REMARK    2  A    between atoms: C_5  and  N_8
REMARK    3  A    between atoms: N_8  and  C_9
REMARK    4  A    between atoms: N_8  and  C_13
REMARK    5  A    between atoms: C_9  and  C_10
REMARK    6  A    between atoms: C_10  and  C_11
REMARK    7  A    between atoms: C_10  and  O_12
REMARK    8  A    between atoms: C_13  and  C_14
REMARK    9  A    between atoms: C_14  and  C_15
REMARK   10  A    between atoms: C_14  and  O_16
REMARK                            x       y       z     vdW  Elec       q    Type
REMARK                         _______ _______ _______ _____ _____    ______ ____
ROOT
ATOM      1  N   UNL     1     -18.106 -18.896  -2.449  0.00  0.00    +0.000 N 
ENDROOT
BRANCH   1   6
ATOM      2  C   UNL     1     -14.969 -21.020  -6.805  0.00  0.00    +0.000 C 
ATOM      3  C   UNL     1     -15.765 -20.476  -5.659  0.00  0.00    +0.000 A 
ATOM      4  C   UNL     1     -16.722 -21.257  -5.019  0.00  0.00    +0.000 A 
ATOM      5  C   UNL     1     -17.487 -20.733  -3.965  0.00  0.00    +0.000 A 
ATOM      6  C   UNL     1     -17.354 -19.407  -3.514  0.00  0.00    +0.000 A 
ATOM      7  C   UNL     1     -16.376 -18.647  -4.182  0.00  0.00    +0.000 A 
ATOM      8  C   UNL     1     -15.603 -19.160  -5.237  0.00  0.00    +0.000 A 
ENDBRANCH   1   6
BRANCH   1   9
ATOM      9  C   UNL     1     -19.585 -18.998  -2.468  0.00  0.00    +0.000 C 
BRANCH   9  10
ATOM     10  C   UNL     1     -20.217 -18.342  -3.720  0.00  0.00    +0.000 C 
ATOM     11  C   UNL     1     -21.679 -18.743  -3.867  0.00  0.00    +0.000 C 
BRANCH  10  12
ATOM     12  O   UNL     1     -20.155 -16.911  -3.638  0.00  0.00    +0.000 OA
ATOM     13  H   UNL     1     -21.003 -16.592  -3.288  0.00  0.00    +0.000 HD
ENDBRANCH  10  12
ENDBRANCH   9  10
ENDBRANCH   1   9
BRANCH   1  14
ATOM     14  C   UNL     1     -17.565 -17.831  -1.566  0.00  0.00    +0.000 C 
BRANCH  14  15
ATOM     15  C   UNL     1     -17.873 -18.097  -0.073  0.00  0.00    +0.000 C 
ATOM     16  C   UNL     1     -18.010 -19.579   0.256  0.00  0.00    +0.000 C 
BRANCH  15  17
ATOM     17  O   UNL     1     -16.871 -17.545   0.779  0.00  0.00    +0.000 OA
ATOM     18  H   UNL     1     -16.022 -17.762   0.343  0.00  0.00    +0.000 HD
ENDBRANCH  15  17
ENDBRANCH  14  15
ENDBRANCH   1  14
TORSDOF 7
ENDMDL
MODEL 3
REMARK VINA RESULT:    -4.083     16.456     17.631
REMARK INTER + INTRA:          -5.934
REMARK INTER:                  -5.260
REMARK INTRA:                  -0.675
REMARK UNBOUND:                -0.418
REMARK  Name = 
REMARK  10 active torsions:
REMARK  status: ('A' for Active; 'I' for Inactive)
REMARK    1  A    between atoms: C_1  and  C_2
REMARK    2  A    between atoms: C_5  and  N_8
REMARK    3  A    between atoms: N_8  and  C_9
REMARK    4  A    between atoms: N_8  and  C_13
REMARK    5  A    between atoms: C_9  and  C_10
REMARK    6  A    between atoms: C_10  and  C_11
REMARK    7  A    between atoms: C_10  and  O_12
REMARK    8  A    between atoms: C_13  and  C_14
REMARK    9  A    between atoms: C_14  and  C_15
REMARK   10  A    between atoms: C_14  and  O_16
REMARK                            x       y       z     vdW  Elec       q    Type
REMARK                         _______ _______ _______ _____ _____    ______ ____
ROOT
ATOM      1  N   UNL     1      -0.980 -18.850   3.174  0.00  0.00    +0.000 N 
ENDROOT
BRANCH   1   6
ATOM      2  C   UNL     1       0.068 -20.682  -2.200  0.00  0.00    +0.000 C 
ATOM      3  C   UNL     1      -0.225 -20.220  -0.805  0.00  0.00    +0.000 A 
ATOM      4  C   UNL     1      -0.924 -19.040  -0.576  0.00  0.00    +0.000 A 
ATOM      5  C   UNL     1      -1.170 -18.596   0.734  0.00  0.00    +0.000 A 
ATOM      6  C   UNL     1      -0.715 -19.288   1.870  0.00  0.00    +0.000 A 
ATOM      7  C   UNL     1      -0.013 -20.478   1.601  0.00  0.00    +0.000 A 
ATOM      8  C   UNL     1       0.238 -20.934   0.296  0.00  0.00    +0.000 A 
ENDBRANCH   1   6
BRANCH   1   9
ATOM      9  C   UNL     1      -0.251 -17.684   3.729  0.00  0.00    +0.000 C 
BRANCH   9  10
ATOM     10  C   UNL     1      -0.821 -17.213   5.090  0.00  0.00    +0.000 C 
ATOM     11  C   UNL     1       0.181 -16.329   5.823  0.00  0.00    +0.000 C 
BRANCH  10  12
ATOM     12  O   UNL     1      -2.029 -16.461   4.910  0.00  0.00    +0.000 OA
ATOM     13  H   UNL     1      -1.853 -15.542   5.173  0.00  0.00    +0.000 HD
ENDBRANCH  10  12
ENDBRANCH   9  10
ENDBRANCH   1   9
BRANCH   1  14
ATOM     14  C   UNL     1      -1.560 -19.766   4.189  0.00  0.00    +0.000 C 
BRANCH  14  15
ATOM     15  C   UNL     1      -3.083 -19.963   3.997  0.00  0.00    +0.000 C 
ATOM     16  C   UNL     1      -3.766 -20.578   5.213  0.00  0.00    +0.000 C 
BRANCH  15  17
ATOM     17  O   UNL     1      -3.740 -18.732   3.697  0.00  0.00    +0.000 OA
ATOM     18  H   UNL     1      -3.952 -18.785   2.743  0.00  0.00    +0.000 HD
ENDBRANCH  15  17
ENDBRANCH  14  15
ENDBRANCH   1  14
TORSDOF 7
ENDMDL
MODEL 4
REMARK VINA RESULT:    -4.025     16.652     17.941
REMARK INTER + INTRA:          -5.855
REMARK INTER:                  -5.324
REMARK INTRA:                  -0.531
REMARK UNBOUND:                -0.418
REMARK  Name = 
REMARK  10 active torsions:
REMARK  status: ('A' for Active; 'I' for Inactive)
REMARK    1  A    between atoms: C_1  and  C_2
REMARK    2  A    between atoms: C_5  and  N_8
REMARK    3  A    between atoms: N_8  and  C_9
REMARK    4  A    between atoms: N_8  and  C_13
REMARK    5  A    between atoms: C_9  and  C_10
REMARK    6  A    between atoms: C_10  and  C_11
REMARK    7  A    between atoms: C_10  and  O_12
REMARK    8  A    between atoms: C_13  and  C_14
REMARK    9  A    between atoms: C_14  and  C_15
REMARK   10  A    between atoms: C_14  and  O_16
REMARK                            x       y       z     vdW  Elec       q    Type
REMARK                         _______ _______ _______ _____ _____    ______ ____
ROOT
ATOM      1  N   UNL     1      -0.475 -18.878   3.740  0.00  0.00    +0.000 N 
ENDROOT
BRANCH   1   6
ATOM      2  C   UNL     1      -0.308 -20.230  -1.869  0.00  0.00    +0.000 C 
ATOM      3  C   UNL     1      -0.375 -19.888  -0.413  0.00  0.00    +0.000 A 
ATOM      4  C   UNL     1      -0.753 -18.616   0.005  0.00  0.00    +0.000 A 
ATOM      5  C   UNL     1      -0.785 -18.291   1.371  0.00  0.00    +0.000 A 
ATOM      6  C   UNL     1      -0.422 -19.202   2.379  0.00  0.00    +0.000 A 
ATOM      7  C   UNL     1      -0.047 -20.479   1.920  0.00  0.00    +0.000 A 
ATOM      8  C   UNL     1      -0.013 -20.817   0.558  0.00  0.00    +0.000 A 
ENDBRANCH   1   6
BRANCH   1   9
ATOM      9  C   UNL     1      -1.481 -19.521   4.619  0.00  0.00    +0.000 C 
BRANCH   9  10
ATOM     10  C   UNL     1      -2.855 -19.702   3.927  0.00  0.00    +0.000 C 
ATOM     11  C   UNL     1      -3.790 -20.546   4.785  0.00  0.00    +0.000 C 
BRANCH  10  12
ATOM     12  O   UNL     1      -3.486 -18.435   3.696  0.00  0.00    +0.000 OA
ATOM     13  H   UNL     1      -4.445 -18.553   3.796  0.00  0.00    +0.000 HD
ENDBRANCH  10  12
ENDBRANCH   9  10
ENDBRANCH   1   9
BRANCH   1  14
ATOM     14  C   UNL     1       0.060 -17.587   4.244  0.00  0.00    +0.000 C 
BRANCH  14  15
ATOM     15  C   UNL     1      -0.790 -17.015   5.404  0.00  0.00    +0.000 C 
ATOM     16  C   UNL     1      -0.013 -16.059   6.302  0.00  0.00    +0.000 C 
BRANCH  15  17
ATOM     17  O   UNL     1      -1.944 -16.328   4.923  0.00  0.00    +0.000 OA
ATOM     18  H   UNL     1      -1.656 -15.901   4.091  0.00  0.00    +0.000 HD
ENDBRANCH  15  17
ENDBRANCH  14  15
ENDBRANCH   1  14
TORSDOF 7
ENDMDL
MODEL 5
REMARK VINA RESULT:    -3.917     17.074     18.740
REMARK INTER + INTRA:          -5.710
REMARK INTER:                  -5.461
REMARK INTRA:                  -0.248
REMARK UNBOUND:                -0.418
REMARK  Name = 
REMARK  10 active torsions:
REMARK  status: ('A' for Active; 'I' for Inactive)
REMARK    1  A    between atoms: C_1  and  C_2
REMARK    2  A    between atoms: C_5  and  N_8
REMARK    3  A    between atoms: N_8  and  C_9
REMARK    4  A    between atoms: N_8  and  C_13
REMARK    5  A    between atoms: C_9  and  C_10
REMARK    6  A    between atoms: C_10  and  C_11
REMARK    7  A    between atoms: C_10  and  O_12
REMARK    8  A    between atoms: C_13  and  C_14
REMARK    9  A    between atoms: C_14  and  C_15
REMARK   10  A    between atoms: C_14  and  O_16
REMARK                            x       y       z     vdW  Elec       q    Type
REMARK                         _______ _______ _______ _____ _____    ______ ____
ROOT
ATOM      1  N   UNL     1      -0.954 -18.919   3.865  0.00  0.00    +0.000 N 
ENDROOT
BRANCH   1   6
ATOM      2  C   UNL     1      -1.401 -16.378   9.029  0.00  0.00    +0.000 C 
ATOM      3  C   UNL     1      -1.309 -17.032   7.685  0.00  0.00    +0.000 A 
ATOM      4  C   UNL     1      -1.524 -18.399   7.539  0.00  0.00    +0.000 A 
ATOM      5  C   UNL     1      -1.407 -19.012   6.281  0.00  0.00    +0.000 A 
ATOM      6  C   UNL     1      -1.050 -18.304   5.120  0.00  0.00    +0.000 A 
ATOM      7  C   UNL     1      -0.843 -16.925   5.304  0.00  0.00    +0.000 A 
ATOM      8  C   UNL     1      -0.959 -16.298   6.556  0.00  0.00    +0.000 A 
ENDBRANCH   1   6
BRANCH   1   9
ATOM      9  C   UNL     1      -1.957 -19.931   3.454  0.00  0.00    +0.000 C 
BRANCH   9  10
ATOM     10  C   UNL     1      -3.365 -19.326   3.234  0.00  0.00    +0.000 C 
ATOM     11  C   UNL     1      -3.939 -19.754   1.889  0.00  0.00    +0.000 C 
BRANCH  10  12
ATOM     12  O   UNL     1      -4.274 -19.750   4.260  0.00  0.00    +0.000 OA
ATOM     13  H   UNL     1      -3.857 -19.581   5.121  0.00  0.00    +0.000 HD
ENDBRANCH  10  12
ENDBRANCH   9  10
ENDBRANCH   1   9
BRANCH   1  14
ATOM     14  C   UNL     1       0.342 -18.995   3.143  0.00  0.00    +0.000 C 
BRANCH  14  15
ATOM     15  C   UNL     1       0.360 -18.104   1.878  0.00  0.00    +0.000 C 
ATOM     16  C   UNL     1      -0.562 -18.610   0.775  0.00  0.00    +0.000 C 
BRANCH  15  17
ATOM     17  O   UNL     1      -0.006 -16.757   2.177  0.00  0.00    +0.000 OA
ATOM     18  H   UNL     1      -0.499 -16.449   1.390  0.00  0.00    +0.000 HD
ENDBRANCH  15  17
ENDBRANCH  14  15
ENDBRANCH   1  14
TORSDOF 7
ENDMDL
MODEL 6
REMARK VINA RESULT:    -3.913      0.455      3.434
REMARK INTER + INTRA:          -5.704
REMARK INTER:                  -5.204
REMARK INTRA:                  -0.500
REMARK UNBOUND:                -0.418
REMARK  Name = 
REMARK  10 active torsions:
REMARK  status: ('A' for Active; 'I' for Inactive)
REMARK    1  A    between atoms: C_1  and  C_2
REMARK    2  A    between atoms: C_5  and  N_8
REMARK    3  A    between atoms: N_8  and  C_9
REMARK    4  A    between atoms: N_8  and  C_13
REMARK    5  A    between atoms: C_9  and  C_10
REMARK    6  A    between atoms: C_10  and  C_11
REMARK    7  A    between atoms: C_10  and  O_12
REMARK    8  A    between atoms: C_13  and  C_14
REMARK    9  A    between atoms: C_14  and  C_15
REMARK   10  A    between atoms: C_14  and  O_16
REMARK                            x       y       z     vdW  Elec       q    Type
REMARK                         _______ _______ _______ _____ _____    ______ ____
ROOT
ATOM      1  N   UNL     1     -18.016 -19.062  -2.288  0.00  0.00    +0.000 N 
ENDROOT
BRANCH   1   6
ATOM      2  C   UNL     1     -14.943 -20.882  -6.824  0.00  0.00    +0.000 C 
ATOM      3  C   UNL     1     -15.759 -20.403  -5.663  0.00  0.00    +0.000 A 
ATOM      4  C   UNL     1     -15.620 -19.106  -5.179  0.00  0.00    +0.000 A 
ATOM      5  C   UNL     1     -16.365 -18.672  -4.070  0.00  0.00    +0.000 A 
ATOM      6  C   UNL     1     -17.261 -19.508  -3.381  0.00  0.00    +0.000 A 
ATOM      7  C   UNL     1     -17.379 -20.811  -3.899  0.00  0.00    +0.000 A 
ATOM      8  C   UNL     1     -16.641 -21.258  -5.008  0.00  0.00    +0.000 A 
ENDBRANCH   1   6
BRANCH   1   9
ATOM      9  C   UNL     1     -18.881 -17.865  -2.421  0.00  0.00    +0.000 C 
BRANCH   9  10
ATOM     10  C   UNL     1     -19.921 -18.000  -3.561  0.00  0.00    +0.000 C 
ATOM     11  C   UNL     1     -21.007 -19.004  -3.192  0.00  0.00    +0.000 C 
BRANCH  10  12
ATOM     12  O   UNL     1     -20.553 -16.742  -3.833  0.00  0.00    +0.000 OA
ATOM     13  H   UNL     1     -20.777 -16.327  -2.984  0.00  0.00    +0.000 HD
ENDBRANCH  10  12
ENDBRANCH   9  10
ENDBRANCH   1   9
BRANCH   1  14
ATOM     14  C   UNL     1     -17.624 -19.397  -0.895  0.00  0.00    +0.000 C 
BRANCH  14  15
ATOM     15  C   UNL     1     -18.021 -18.286   0.107  0.00  0.00    +0.000 C 
ATOM     16  C   UNL     1     -18.938 -18.781   1.219  0.00  0.00    +0.000 C 
BRANCH  15  17
ATOM     17  O   UNL     1     -16.875 -17.689   0.712  0.00  0.00    +0.000 OA
ATOM     18  H   UNL     1     -16.188 -18.385   0.695  0.00  0.00    +0.000 HD
ENDBRANCH  15  17
ENDBRANCH  14  15
ENDBRANCH   1  14
TORSDOF 7
ENDMDL
MODEL 7
REMARK VINA RESULT:    -3.852      1.910      2.219
REMARK INTER + INTRA:          -5.621
REMARK INTER:                  -4.998
REMARK INTRA:                  -0.624
REMARK UNBOUND:                -0.418
REMARK  Name = 
REMARK  10 active torsions:
REMARK  status: ('A' for Active; 'I' for Inactive)
REMARK    1  A    between atoms: C_1  and  C_2
REMARK    2  A    between atoms: C_5  and  N_8
REMARK    3  A    between atoms: N_8  and  C_9
REMARK    4  A    between atoms: N_8  and  C_13
REMARK    5  A    between atoms: C_9  and  C_10
REMARK    6  A    between atoms: C_10  and  C_11
REMARK    7  A    between atoms: C_10  and  O_12
REMARK    8  A    between atoms: C_13  and  C_14
REMARK    9  A    between atoms: C_14  and  C_15
REMARK   10  A    between atoms: C_14  and  O_16
REMARK                            x       y       z     vdW  Elec       q    Type
REMARK                         _______ _______ _______ _____ _____    ______ ____
ROOT
ATOM      1  N   UNL     1     -18.088 -19.404  -2.128  0.00  0.00    +0.000 N 
ENDROOT
BRANCH   1   6
ATOM      2  C   UNL     1     -15.020 -20.588  -6.873  0.00  0.00    +0.000 C 
ATOM      3  C   UNL     1     -15.796 -20.287  -5.628  0.00  0.00    +0.000 A 
ATOM      4  C   UNL     1     -16.596 -21.257  -5.033  0.00  0.00    +0.000 A 
ATOM      5  C   UNL     1     -17.345 -20.961  -3.882  0.00  0.00    +0.000 A 
ATOM      6  C   UNL     1     -17.353 -19.687  -3.286  0.00  0.00    +0.000 A 
ATOM      7  C   UNL     1     -16.532 -18.732  -3.913  0.00  0.00    +0.000 A 
ATOM      8  C   UNL     1     -15.776 -19.015  -5.063  0.00  0.00    +0.000 A 
ENDBRANCH   1   6
BRANCH   1   9
ATOM      9  C   UNL     1     -17.977 -18.073  -1.484  0.00  0.00    +0.000 C 
BRANCH   9  10
ATOM     10  C   UNL     1     -16.919 -18.039  -0.355  0.00  0.00    +0.000 C 
ATOM     11  C   UNL     1     -15.751 -17.135  -0.730  0.00  0.00    +0.000 C 
BRANCH  10  12
ATOM     12  O   UNL     1     -17.486 -17.547   0.868  0.00  0.00    +0.000 OA
ATOM     13  H   UNL     1     -16.898 -17.803   1.597  0.00  0.00    +0.000 HD
ENDBRANCH  10  12
ENDBRANCH   9  10
ENDBRANCH   1   9
BRANCH   1  14
ATOM     14  C   UNL     1     -18.566 -20.491  -1.236  0.00  0.00    +0.000 C 
BRANCH  14  15
ATOM     15  C   UNL     1     -19.834 -20.086  -0.447  0.00  0.00    +0.000 C 
ATOM     16  C   UNL     1     -20.974 -21.087  -0.589  0.00  0.00    +0.000 C 
BRANCH  15  17
ATOM     17  O   UNL     1     -19.561 -19.921   0.943  0.00  0.00    +0.000 OA
ATOM     18  H   UNL     1     -20.439 -19.826   1.364  0.00  0.00    +0.000 HD
ENDBRANCH  15  17
ENDBRANCH  14  15
ENDBRANCH   1  14
TORSDOF 7
ENDMDL
MODEL 8
REMARK VINA RESULT:    -3.704      1.567      2.217
REMARK INTER + INTRA:          -5.421
REMARK INTER:                  -5.006
REMARK INTRA:                  -0.415
REMARK UNBOUND:                -0.418
REMARK  Name = 
REMARK  10 active torsions:
REMARK  status: ('A' for Active; 'I' for Inactive)
REMARK    1  A    between atoms: C_1  and  C_2
REMARK    2  A    between atoms: C_5  and  N_8
REMARK    3  A    between atoms: N_8  and  C_9
REMARK    4  A    between atoms: N_8  and  C_13
REMARK    5  A    between atoms: C_9  and  C_10
REMARK    6  A    between atoms: C_10  and  C_11
REMARK    7  A    between atoms: C_10  and  O_12
REMARK    8  A    between atoms: C_13  and  C_14
REMARK    9  A    between atoms: C_14  and  C_15
REMARK   10  A    between atoms: C_14  and  O_16
REMARK                            x       y       z     vdW  Elec       q    Type
REMARK                         _______ _______ _______ _____ _____    ______ ____
ROOT
ATOM      1  N   UNL     1     -18.494 -20.199  -1.381  0.00  0.00    +0.000 N 
ENDROOT
BRANCH   1   6
ATOM      2  C   UNL     1     -14.989 -18.252  -5.535  0.00  0.00    +0.000 C 
ATOM      3  C   UNL     1     -15.918 -18.745  -4.468  0.00  0.00    +0.000 A 
ATOM      4  C   UNL     1     -16.105 -18.024  -3.294  0.00  0.00    +0.000 A 
ATOM      5  C   UNL     1     -16.954 -18.506  -2.284  0.00  0.00    +0.000 A 
ATOM      6  C   UNL     1     -17.634 -19.733  -2.384  0.00  0.00    +0.000 A 
ATOM      7  C   UNL     1     -17.424 -20.435  -3.585  0.00  0.00    +0.000 A 
ATOM      8  C   UNL     1     -16.579 -19.963  -4.603  0.00  0.00    +0.000 A 
ENDBRANCH   1   6
BRANCH   1   9
ATOM      9  C   UNL     1     -18.117 -20.061   0.046  0.00  0.00    +0.000 C 
BRANCH   9  10
ATOM     10  C   UNL     1     -18.689 -18.778   0.697  0.00  0.00    +0.000 C 
ATOM     11  C   UNL     1     -19.519 -19.115   1.930  0.00  0.00    +0.000 C 
BRANCH  10  12
ATOM     12  O   UNL     1     -17.636 -17.891   1.099  0.00  0.00    +0.000 OA
ATOM     13  H   UNL     1     -16.950 -18.418   1.541  0.00  0.00    +0.000 HD
ENDBRANCH  10  12
ENDBRANCH   9  10
ENDBRANCH   1   9
BRANCH   1  14
ATOM     14  C   UNL     1     -19.501 -21.255  -1.661  0.00  0.00    +0.000 C 
BRANCH  14  15
ATOM     15  C   UNL     1     -20.906 -20.666  -1.932  0.00  0.00    +0.000 C 
ATOM     16  C   UNL     1     -21.757 -20.543  -0.674  0.00  0.00    +0.000 C 
BRANCH  15  17
ATOM     17  O   UNL     1     -20.829 -19.378  -2.541  0.00  0.00    +0.000 OA
ATOM     18  H   UNL     1     -21.379 -18.798  -1.976  0.00  0.00    +0.000 HD
ENDBRANCH  15  17
ENDBRANCH  14  15
ENDBRANCH   1  14
TORSDOF 7
ENDMDL
MODEL 9
REMARK VINA RESULT:    -3.683     17.116     18.742
REMARK INTER + INTRA:          -5.393
REMARK INTER:                  -4.907
REMARK INTRA:                  -0.487
REMARK UNBOUND:                -0.418
REMARK  Name = 
REMARK  10 active torsions:
REMARK  status: ('A' for Active; 'I' for Inactive)
REMARK    1  A    between atoms: C_1  and  C_2
REMARK    2  A    between atoms: C_5  and  N_8
REMARK    3  A    between atoms: N_8  and  C_9
REMARK    4  A    between atoms: N_8  and  C_13
REMARK    5  A    between atoms: C_9  and  C_10
REMARK    6  A    between atoms: C_10  and  C_11
REMARK    7  A    between atoms: C_10  and  O_12
REMARK    8  A    between atoms: C_13  and  C_14
REMARK    9  A    between atoms: C_14  and  C_15
REMARK   10  A    between atoms: C_14  and  O_16
REMARK                            x       y       z     vdW  Elec       q    Type
REMARK                         _______ _______ _______ _____ _____    ______ ____
ROOT
ATOM      1  N   UNL     1      -0.840 -19.409   4.065  0.00  0.00    +0.000 N 
ENDROOT
BRANCH   1   6
ATOM      2  C   UNL     1      -1.510 -16.041   8.706  0.00  0.00    +0.000 C 
ATOM      3  C   UNL     1      -1.312 -16.918   7.508  0.00  0.00    +0.000 A 
ATOM      4  C   UNL     1      -0.956 -16.377   6.277  0.00  0.00    +0.000 A 
ATOM      5  C   UNL     1      -0.802 -17.201   5.150  0.00  0.00    +0.000 A 
ATOM      6  C   UNL     1      -1.015 -18.591   5.188  0.00  0.00    +0.000 A 
ATOM      7  C   UNL     1      -1.371 -19.103   6.449  0.00  0.00    +0.000 A 
ATOM      8  C   UNL     1      -1.527 -18.291   7.584  0.00  0.00    +0.000 A 
ENDBRANCH   1   6
BRANCH   1   9
ATOM      9  C   UNL     1       0.243 -19.118   3.095  0.00  0.00    +0.000 C 
BRANCH   9  10
ATOM     10  C   UNL     1      -0.282 -18.486   1.782  0.00  0.00    +0.000 C 
ATOM     11  C   UNL     1       0.367 -17.130   1.532  0.00  0.00    +0.000 C 
BRANCH  10  12
ATOM     12  O   UNL     1       0.001 -19.329   0.657  0.00  0.00    +0.000 OA
ATOM     13  H   UNL     1       0.958 -19.299   0.490  0.00  0.00    +0.000 HD
ENDBRANCH  10  12
ENDBRANCH   9  10
ENDBRANCH   1   9
BRANCH   1  14
ATOM     14  C   UNL     1      -1.958 -20.226   3.527  0.00  0.00    +0.000 C 
BRANCH  14  15
ATOM     15  C   UNL     1      -3.241 -19.388   3.308  0.00  0.00    +0.000 C 
ATOM     16  C   UNL     1      -3.800 -19.506   1.896  0.00  0.00    +0.000 C 
BRANCH  15  17
ATOM     17  O   UNL     1      -4.272 -19.753   4.224  0.00  0.00    +0.000 OA
ATOM     18  H   UNL     1      -4.219 -19.091   4.942  0.00  0.00    +0.000 HD
ENDBRANCH  15  17
ENDBRANCH  14  15
ENDBRANCH   1  14
TORSDOF 7
ENDMDL
