MODEL 1
REMARK VINA RESULT:    -4.674      0.000      0.000
REMARK INTER + INTRA:          -5.122
REMARK INTER:                  -5.084
REMARK INTRA:                  -0.038
REMARK UNBOUND:                -0.038
REMARK  Name = 
REMARK  3 active torsions:
REMARK  status: ('A' for Active; 'I' for Inactive)
REMARK    1  A    between atoms: C_1  and  O_2
REMARK    2  A    between atoms: O_2  and  C_3
REMARK    3  A    between atoms: C_8  and  O_9
REMARK                            x       y       z     vdW  Elec       q    Type
REMARK                         _______ _______ _______ _____ _____    ______ ____
ROOT
ATOM      1  C   UNL     1      -2.619  17.876  13.009  0.00  0.00    +0.000 A 
ATOM      2  C   UNL     1      -2.091  18.558  14.104  0.00  0.00    +0.000 A 
ATOM      3  C   UNL     1      -1.093  19.522  13.913  0.00  0.00    +0.000 A 
ATOM      4  C   UNL     1      -0.621  19.808  12.631  0.00  0.00    +0.000 A 
ATOM      5  C   UNL     1      -1.145  19.132  11.531  0.00  0.00    +0.000 A 
ATOM      6  C   UNL     1      -2.134  18.176  11.730  0.00  0.00    +0.000 A 
ENDROOT
BRANCH   1   8
ATOM      7  C   UNL     1      -3.987  16.458  14.337  0.00  0.00    +0.000 C 
ATOM      8  O   UNL     1      -3.594  16.911  13.047  0.00  0.00    +0.000 OA
ENDBRANCH   1   8
BRANCH   6   9
ATOM      9  O   UNL     1      -2.633  17.525  10.634  0.00  0.00    +0.000 OA
ATOM     10  H   UNL     1      -1.958  16.854  10.416  0.00  0.00    +0.000 HD
ENDBRANCH   6   9
TORSDOF 2
ENDMDL
MODEL 2
REMARK VINA RESULT:    -2.685     11.059     12.364
REMARK INTER + INTRA:          -2.958
REMARK INTER:                  -2.920
REMARK INTRA:                  -0.038
REMARK UNBOUND:                -0.038
REMARK  Name = 
REMARK  3 active torsions:
REMARK  status: ('A' for Active; 'I' for Inactive)
REMARK    1  A    between atoms: C_1  and  O_2
REMARK    2  A    between atoms: O_2  and  C_3
REMARK    3  A    between atoms: C_8  and  O_9
REMARK                            x       y       z     vdW  Elec       q    Type
REMARK                         _______ _______ _______ _____ _____    ______ ____
ROOT
ATOM      1  C   UNL     1     -13.703  18.981  11.305  0.00  0.00    +0.000 A 
ATOM      2  C   UNL     1     -15.011  19.443  11.166  0.00  0.00    +0.000 A 
ATOM      3  C   UNL     1     -16.019  18.956  12.008  0.00  0.00    +0.000 A 
ATOM      4  C   UNL     1     -15.724  18.006  12.988  0.00  0.00    +0.000 A 
ATOM      5  C   UNL     1     -14.420  17.540  13.133  0.00  0.00    +0.000 A 
ATOM      6  C   UNL     1     -13.427  18.029  12.294  0.00  0.00    +0.000 A 
ENDROOT
BRANCH   1   8
ATOM      7  C   UNL     1     -12.903  20.105   9.370  0.00  0.00    +0.000 C 
ATOM      8  O   UNL     1     -12.622  19.368  10.554  0.00  0.00    +0.000 OA
ENDBRANCH   1   8
BRANCH   6   9
ATOM      9  O   UNL     1     -12.152  17.555  12.456  0.00  0.00    +0.000 OA
ATOM     10  H   UNL     1     -12.033  17.489  13.422  0.00  0.00    +0.000 HD
ENDBRANCH   6   9
TORSDOF 2
ENDMDL
MODEL 3
REMARK VINA RESULT:    -2.683     10.992     12.257
REMARK INTER + INTRA:          -2.956
REMARK INTER:                  -2.919
REMARK INTRA:                  -0.037
REMARK UNBOUND:                -0.038
REMARK  Name = 
REMARK  3 active torsions:
REMARK  status: ('A' for Active; 'I' for Inactive)
REMARK    1  A    between atoms: C_1  and  O_2
REMARK    2  A    between atoms: O_2  and  C_3
REMARK    3  A    between atoms: C_8  and  O_9
REMARK                            x       y       z     vdW  Elec       q    Type
REMARK                         _______ _______ _______ _____ _____    ______ ____
ROOT
ATOM      1  C   UNL     1     -14.569  18.208  12.251  0.00  0.00    +0.000 A 
ATOM      2  C   UNL     1     -15.553  18.939  11.587  0.00  0.00    +0.000 A 
ATOM      3  C   UNL     1     -15.192  19.844  10.581  0.00  0.00    +0.000 A 
ATOM      4  C   UNL     1     -13.851  20.021  10.236  0.00  0.00    +0.000 A 
ATOM      5  C   UNL     1     -12.862  19.294  10.894  0.00  0.00    +0.000 A 
ATOM      6  C   UNL     1     -13.229  18.399  11.892  0.00  0.00    +0.000 A 
ENDROOT
BRANCH   1   8
ATOM      7  C   UNL     1     -16.119  17.117  13.684  0.00  0.00    +0.000 C 
ATOM      8  O   UNL     1     -14.775  17.293  13.252  0.00  0.00    +0.000 OA
ENDBRANCH   1   8
BRANCH   6   9
ATOM      9  O   UNL     1     -12.239  17.696  12.525  0.00  0.00    +0.000 OA
ATOM     10  H   UNL     1     -12.603  17.497  13.409  0.00  0.00    +0.000 HD
ENDBRANCH   6   9
TORSDOF 2
ENDMDL
MODEL 4
REMARK VINA RESULT:    -2.656     24.822     25.838
REMARK INTER + INTRA:          -2.926
REMARK INTER:                  -2.874
REMARK INTRA:                  -0.052
REMARK UNBOUND:                -0.038
REMARK  Name = 
REMARK  3 active torsions:
REMARK  status: ('A' for Active; 'I' for Inactive)
REMARK    1  A    between atoms: C_1  and  O_2
REMARK    2  A    between atoms: O_2  and  C_3
REMARK    3  A    between atoms: C_8  and  O_9
REMARK                            x       y       z     vdW  Elec       q    Type
REMARK                         _______ _______ _______ _____ _____    ______ ____
ROOT
ATOM      1  C   UNL     1     -19.934   0.305   6.072  0.00  0.00    +0.000 A 
ATOM      2  C   UNL     1     -20.172   0.062   4.720  0.00  0.00    +0.000 A 
ATOM      3  C   UNL     1     -20.435   1.130   3.853  0.00  0.00    +0.000 A 
ATOM      4  C   UNL     1     -20.460   2.441   4.332  0.00  0.00    +0.000 A 
ATOM      5  C   UNL     1     -20.222   2.692   5.681  0.00  0.00    +0.000 A 
ATOM      6  C   UNL     1     -19.964   1.627   6.534  0.00  0.00    +0.000 A 
ENDROOT
BRANCH   1   8
ATOM      7  C   UNL     1     -18.459  -1.375   6.877  0.00  0.00    +0.000 C 
ATOM      8  O   UNL     1     -19.666  -0.639   7.031  0.00  0.00    +0.000 OA
ENDBRANCH   1   8
BRANCH   6   9
ATOM      9  O   UNL     1     -19.733   1.898   7.856  0.00  0.00    +0.000 OA
ATOM     10  H   UNL     1     -19.214   1.138   8.180  0.00  0.00    +0.000 HD
ENDBRANCH   6   9
TORSDOF 2
ENDMDL
MODEL 5
REMARK VINA RESULT:    -2.488     11.380     12.701
REMARK INTER + INTRA:          -2.744
REMARK INTER:                  -2.696
REMARK INTRA:                  -0.048
REMARK UNBOUND:                -0.038
REMARK  Name = 
REMARK  3 active torsions:
REMARK  status: ('A' for Active; 'I' for Inactive)
REMARK    1  A    between atoms: C_1  and  O_2
REMARK    2  A    between atoms: O_2  and  C_3
REMARK    3  A    between atoms: C_8  and  O_9
REMARK                            x       y       z     vdW  Elec       q    Type
REMARK                         _______ _______ _______ _____ _____    ______ ____
ROOT
ATOM      1  C   UNL     1     -14.827  19.543  10.867  0.00  0.00    +0.000 A 
ATOM      2  C   UNL     1     -15.715  18.917  11.741  0.00  0.00    +0.000 A 
ATOM      3  C   UNL     1     -15.231  18.055  12.732  0.00  0.00    +0.000 A 
ATOM      4  C   UNL     1     -13.861  17.815  12.854  0.00  0.00    +0.000 A 
ATOM      5  C   UNL     1     -12.967  18.436  11.985  0.00  0.00    +0.000 A 
ATOM      6  C   UNL     1     -13.457  19.290  11.004  0.00  0.00    +0.000 A 
ENDROOT
BRANCH   1   8
ATOM      7  C   UNL     1     -16.208  19.993   8.986  0.00  0.00    +0.000 C 
ATOM      8  O   UNL     1     -15.159  20.406   9.853  0.00  0.00    +0.000 OA
ENDBRANCH   1   8
BRANCH   6   9
ATOM      9  O   UNL     1     -12.559  19.889  10.161  0.00  0.00    +0.000 OA
ATOM     10  H   UNL     1     -11.741  19.363  10.255  0.00  0.00    +0.000 HD
ENDBRANCH   6   9
TORSDOF 2
ENDMDL
MODEL 6
REMARK VINA RESULT:    -2.480     11.130     12.214
REMARK INTER + INTRA:          -2.735
REMARK INTER:                  -2.684
REMARK INTRA:                  -0.051
REMARK UNBOUND:                -0.038
REMARK  Name = 
REMARK  3 active torsions:
REMARK  status: ('A' for Active; 'I' for Inactive)
REMARK    1  A    between atoms: C_1  and  O_2
REMARK    2  A    between atoms: O_2  and  C_3
REMARK    3  A    between atoms: C_8  and  O_9
REMARK                            x       y       z     vdW  Elec       q    Type
REMARK                         _______ _______ _______ _____ _____    ______ ____
ROOT
ATOM      1  C   UNL     1     -13.492  19.286  11.273  0.00  0.00    +0.000 A 
ATOM      2  C   UNL     1     -12.612  19.600  10.238  0.00  0.00    +0.000 A 
ATOM      3  C   UNL     1     -13.098  20.177   9.058  0.00  0.00    +0.000 A 
ATOM      4  C   UNL     1     -14.461  20.441   8.908  0.00  0.00    +0.000 A 
ATOM      5  C   UNL     1     -15.346  20.130   9.938  0.00  0.00    +0.000 A 
ATOM      6  C   UNL     1     -14.855  19.558  11.105  0.00  0.00    +0.000 A 
ENDROOT
BRANCH   1   8
ATOM      7  C   UNL     1     -12.513  17.453  12.427  0.00  0.00    +0.000 C 
ATOM      8  O   UNL     1     -13.158  18.720  12.478  0.00  0.00    +0.000 OA
ENDBRANCH   1   8
BRANCH   6   9
ATOM      9  O   UNL     1     -15.745  19.261  12.103  0.00  0.00    +0.000 OA
ATOM     10  H   UNL     1     -15.602  18.314  12.289  0.00  0.00    +0.000 HD
ENDBRANCH   6   9
TORSDOF 2
ENDMDL
MODEL 7
REMARK VINA RESULT:    -2.443     11.496     12.604
REMARK INTER + INTRA:          -2.695
REMARK INTER:                  -2.644
REMARK INTRA:                  -0.051
REMARK UNBOUND:                -0.038
REMARK  Name = 
REMARK  3 active torsions:
REMARK  status: ('A' for Active; 'I' for Inactive)
REMARK    1  A    between atoms: C_1  and  O_2
REMARK    2  A    between atoms: O_2  and  C_3
REMARK    3  A    between atoms: C_8  and  O_9
REMARK                            x       y       z     vdW  Elec       q    Type
REMARK                         _______ _______ _______ _____ _____    ______ ____
ROOT
ATOM      1  C   UNL     1     -14.101  19.402  11.234  0.00  0.00    +0.000 A 
ATOM      2  C   UNL     1     -15.445  19.060  11.379  0.00  0.00    +0.000 A 
ATOM      3  C   UNL     1     -16.366  19.404  10.381  0.00  0.00    +0.000 A 
ATOM      4  C   UNL     1     -15.949  20.091   9.240  0.00  0.00    +0.000 A 
ATOM      5  C   UNL     1     -14.608  20.436   9.088  0.00  0.00    +0.000 A 
ATOM      6  C   UNL     1     -13.702  20.091  10.082  0.00  0.00    +0.000 A 
ENDROOT
BRANCH   1   8
ATOM      7  C   UNL     1     -12.908  17.766  12.477  0.00  0.00    +0.000 C 
ATOM      8  O   UNL     1     -13.094  19.132  12.126  0.00  0.00    +0.000 OA
ENDBRANCH   1   8
BRANCH   6   9
ATOM      9  O   UNL     1     -12.389  20.442   9.910  0.00  0.00    +0.000 OA
ATOM     10  H   UNL     1     -12.068  20.651  10.808  0.00  0.00    +0.000 HD
ENDBRANCH   6   9
TORSDOF 2
ENDMDL
MODEL 8
REMARK VINA RESULT:    -2.382     25.414     26.589
REMARK INTER + INTRA:          -2.628
REMARK INTER:                  -2.587
REMARK INTRA:                  -0.042
REMARK UNBOUND:                -0.038
REMARK  Name = 
REMARK  3 active torsions:
REMARK  status: ('A' for Active; 'I' for Inactive)
REMARK    1  A    between atoms: C_1  and  O_2
REMARK    2  A    between atoms: O_2  and  C_3
REMARK    3  A    between atoms: C_8  and  O_9
REMARK                            x       y       z     vdW  Elec       q    Type
REMARK                         _______ _______ _______ _____ _____    ______ ____
ROOT
ATOM      1  C   UNL     1     -20.453   1.010   5.068  0.00  0.00    +0.000 A 
ATOM      2  C   UNL     1     -21.196  -0.006   4.467  0.00  0.00    +0.000 A 
ATOM      3  C   UNL     1     -21.205  -1.290   5.025  0.00  0.00    +0.000 A 
ATOM      4  C   UNL     1     -20.474  -1.564   6.182  0.00  0.00    +0.000 A 
ATOM      5  C   UNL     1     -19.730  -0.555   6.789  0.00  0.00    +0.000 A 
ATOM      6  C   UNL     1     -19.726   0.716   6.228  0.00  0.00    +0.000 A 
ENDROOT
BRANCH   1   8
ATOM      7  C   UNL     1     -20.432   2.513   3.228  0.00  0.00    +0.000 C 
ATOM      8  O   UNL     1     -20.352   2.307   4.633  0.00  0.00    +0.000 OA
ENDBRANCH   1   8
BRANCH   6   9
ATOM      9  O   UNL     1     -18.987   1.692   6.842  0.00  0.00    +0.000 OA
ATOM     10  H   UNL     1     -19.451   2.524   6.632  0.00  0.00    +0.000 HD
ENDBRANCH   6   9
TORSDOF 2
ENDMDL
