MODEL 1
REMARK VINA RESULT:    -4.330      0.000      0.000
REMARK INTER + INTRA:          -6.292
REMARK INTER:                  -5.849
REMARK INTRA:                  -0.443
REMARK UNBOUND:                -0.443
REMARK  Name = 
REMARK  10 active torsions:
REMARK  status: ('A' for Active; 'I' for Inactive)
REMARK    1  A    between atoms: C_1  and  C_2
REMARK    2  A    between atoms: C_5  and  N_8
REMARK    3  A    between atoms: N_8  and  C_9
REMARK    4  A    between atoms: N_8  and  C_13
REMARK    5  A    between atoms: C_9  and  C_10
REMARK    6  A    between atoms: C_10  and  C_11
REMARK    7  A    between atoms: C_10  and  O_12
REMARK    8  A    between atoms: C_13  and  C_14
REMARK    9  A    between atoms: C_14  and  C_15
REMARK   10  A    between atoms: C_14  and  O_16
REMARK                            x       y       z     vdW  Elec       q    Type
REMARK                         _______ _______ _______ _____ _____    ______ ____
ROOT
ATOM      1  N   UNL     1     -17.762 -18.688  -2.306  0.00  0.00    +0.000 N 
ENDROOT
BRANCH   1   6
ATOM      2  C   UNL     1     -15.090 -21.200  -6.765  0.00  0.00    +0.000 C 
ATOM      3  C   UNL     1     -15.765 -20.555  -5.593  0.00  0.00    +0.000 A 
ATOM      4  C   UNL     1     -16.687 -21.257  -4.824  0.00  0.00    +0.000 A 
ATOM      5  C   UNL     1     -17.339 -20.639  -3.745  0.00  0.00    +0.000 A 
ATOM      6  C   UNL     1     -17.123 -19.293  -3.395  0.00  0.00    +0.000 A 
ATOM      7  C   UNL     1     -16.183 -18.615  -4.192  0.00  0.00    +0.000 A 
ATOM      8  C   UNL     1     -15.522 -19.223  -5.273  0.00  0.00    +0.000 A 
ENDBRANCH   1   6
BRANCH   1   9
ATOM      9  C   UNL     1     -17.661 -19.292  -0.955  0.00  0.00    +0.000 C 
BRANCH   9  10
ATOM     10  C   UNL     1     -18.050 -18.307   0.174  0.00  0.00    +0.000 C 
ATOM     11  C   UNL     1     -18.816 -19.021   1.281  0.00  0.00    +0.000 C 
BRANCH  10  12
ATOM     12  O   UNL     1     -16.885 -17.706   0.756  0.00  0.00    +0.000 OA
ATOM     13  H   UNL     1     -16.588 -16.992   0.168  0.00  0.00    +0.000 HD
ENDBRANCH  10  12
ENDBRANCH   9  10
ENDBRANCH   1   9
BRANCH   1  14
ATOM     14  C   UNL     1     -18.926 -17.787  -2.501  0.00  0.00    +0.000 C 
BRANCH  14  15
ATOM     15  C   UNL     1     -20.033 -18.440  -3.363  0.00  0.00    +0.000 C 
ATOM     16  C   UNL     1     -20.819 -19.512  -2.618  0.00  0.00    +0.000 C 
BRANCH  15  17
ATOM     17  O   UNL     1     -20.960 -17.472  -3.852  0.00  0.00    +0.000 OA
ATOM     18  H   UNL     1     -20.581 -16.607  -3.597  0.00  0.00    +0.000 HD
ENDBRANCH  15  17
ENDBRANCH  14  15
ENDBRANCH   1  14
TORSDOF 7
ENDMDL
MODEL 2
REMARK VINA RESULT:    -4.327      0.390      3.189
REMARK INTER + INTRA:          -6.288
REMARK INTER:                  -5.783
REMARK INTRA:                  -0.505
REMARK UNBOUND:                -0.443
REMARK  Name = 
REMARK  10 active torsions:
REMARK  status: ('A' for Active; 'I' for Inactive)
REMARK    1  A    between atoms: C_1  and  C_2
REMARK    2  A    between atoms: C_5  and  N_8
REMARK    3  A    between atoms: N_8  and  C_9
REMARK    4  A    between atoms: N_8  and  C_13
REMARK    5  A    between atoms: C_9  and  C_10
REMARK    6  A    between atoms: C_10  and  C_11
REMARK    7  A    between atoms: C_10  and  O_12
REMARK    8  A    between atoms: C_13  and  C_14
REMARK    9  A    between atoms: C_14  and  C_15
REMARK   10  A    between atoms: C_14  and  O_16
REMARK                            x       y       z     vdW  Elec       q    Type
REMARK                         _______ _______ _______ _____ _____    ______ ____
ROOT
ATOM      1  N   UNL     1     -17.997 -19.020  -2.293  0.00  0.00    +0.000 N 
ENDROOT
BRANCH   1   6
ATOM      2  C   UNL     1     -14.996 -20.906  -6.850  0.00  0.00    +0.000 C 
ATOM      3  C   UNL     1     -15.756 -20.424  -5.652  0.00  0.00    +0.000 A 
ATOM      4  C   UNL     1     -16.657 -21.256  -4.995  0.00  0.00    +0.000 A 
ATOM      5  C   UNL     1     -17.389 -20.789  -3.892  0.00  0.00    +0.000 A 
ATOM      6  C   UNL     1     -17.278 -19.474  -3.406  0.00  0.00    +0.000 A 
ATOM      7  C   UNL     1     -16.357 -18.661  -4.093  0.00  0.00    +0.000 A 
ATOM      8  C   UNL     1     -15.617 -19.116  -5.197  0.00  0.00    +0.000 A 
ENDBRANCH   1   6
BRANCH   1   9
ATOM      9  C   UNL     1     -18.839 -17.804  -2.396  0.00  0.00    +0.000 C 
BRANCH   9  10
ATOM     10  C   UNL     1     -19.910 -17.908  -3.510  0.00  0.00    +0.000 C 
ATOM     11  C   UNL     1     -20.983 -18.924  -3.140  0.00  0.00    +0.000 C 
BRANCH  10  12
ATOM     12  O   UNL     1     -20.551 -16.643  -3.726  0.00  0.00    +0.000 OA
ATOM     13  H   UNL     1     -19.911 -15.941  -3.521  0.00  0.00    +0.000 HD
ENDBRANCH  10  12
ENDBRANCH   9  10
ENDBRANCH   1   9
BRANCH   1  14
ATOM     14  C   UNL     1     -17.581 -19.377  -0.912  0.00  0.00    +0.000 C 
BRANCH  14  15
ATOM     15  C   UNL     1     -17.966 -18.283   0.114  0.00  0.00    +0.000 C 
ATOM     16  C   UNL     1     -18.880 -18.795   1.221  0.00  0.00    +0.000 C 
BRANCH  15  17
ATOM     17  O   UNL     1     -16.813 -17.705   0.724  0.00  0.00    +0.000 OA
ATOM     18  H   UNL     1     -17.002 -17.718   1.684  0.00  0.00    +0.000 HD
ENDBRANCH  15  17
ENDBRANCH  14  15
ENDBRANCH   1  14
TORSDOF 7
ENDMDL
MODEL 3
REMARK VINA RESULT:    -4.110     16.639     17.890
REMARK INTER + INTRA:          -5.994
REMARK INTER:                  -5.425
REMARK INTRA:                  -0.570
REMARK UNBOUND:                -0.443
REMARK  Name = 
REMARK  10 active torsions:
REMARK  status: ('A' for Active; 'I' for Inactive)
REMARK    1  A    between atoms: C_1  and  C_2
REMARK    2  A    between atoms: C_5  and  N_8
REMARK    3  A    between atoms: N_8  and  C_9
REMARK    4  A    between atoms: N_8  and  C_13
REMARK    5  A    between atoms: C_9  and  C_10
REMARK    6  A    between atoms: C_10  and  C_11
REMARK    7  A    between atoms: C_10  and  O_12
REMARK    8  A    between atoms: C_13  and  C_14
REMARK    9  A    between atoms: C_14  and  C_15
REMARK   10  A    between atoms: C_14  and  O_16
REMARK                            x       y       z     vdW  Elec       q    Type
REMARK                         _______ _______ _______ _____ _____    ______ ____
ROOT
ATOM      1  N   UNL     1      -0.478 -18.769   3.564  0.00  0.00    +0.000 N 
ENDROOT
BRANCH   1   6
ATOM      2  C   UNL     1      -0.169 -20.519  -1.929  0.00  0.00    +0.000 C 
ATOM      3  C   UNL     1      -0.272 -20.075  -0.501  0.00  0.00    +0.000 A 
ATOM      4  C   UNL     1      -0.792 -18.827  -0.177  0.00  0.00    +0.000 A 
ATOM      5  C   UNL     1      -0.858 -18.405   1.161  0.00  0.00    +0.000 A 
ATOM      6  C   UNL     1      -0.391 -19.189   2.231  0.00  0.00    +0.000 A 
ATOM      7  C   UNL     1       0.127 -20.445   1.866  0.00  0.00    +0.000 A 
ATOM      8  C   UNL     1       0.197 -20.881   0.532  0.00  0.00    +0.000 A 
ENDBRANCH   1   6
BRANCH   1   9
ATOM      9  C   UNL     1      -1.427 -19.431   4.492  0.00  0.00    +0.000 C 
BRANCH   9  10
ATOM     10  C   UNL     1      -2.819 -19.667   3.857  0.00  0.00    +0.000 C 
ATOM     11  C   UNL     1      -3.682 -20.550   4.751  0.00  0.00    +0.000 C 
BRANCH  10  12
ATOM     12  O   UNL     1      -3.511 -18.427   3.657  0.00  0.00    +0.000 OA
ATOM     13  H   UNL     1      -3.504 -18.228   2.706  0.00  0.00    +0.000 HD
ENDBRANCH  10  12
ENDBRANCH   9  10
ENDBRANCH   1   9
BRANCH   1  14
ATOM     14  C   UNL     1      -0.060 -17.402   3.969  0.00  0.00    +0.000 C 
BRANCH  14  15
ATOM     15  C   UNL     1      -0.707 -16.965   5.305  0.00  0.00    +0.000 C 
ATOM     16  C   UNL     1       0.183 -16.042   6.129  0.00  0.00    +0.000 C 
BRANCH  15  17
ATOM     17  O   UNL     1      -1.955 -16.305   5.095  0.00  0.00    +0.000 OA
ATOM     18  H   UNL     1      -1.738 -15.522   4.551  0.00  0.00    +0.000 HD
ENDBRANCH  15  17
ENDBRANCH  14  15
ENDBRANCH   1  14
TORSDOF 7
ENDMDL
MODEL 4
REMARK VINA RESULT:    -4.081     16.445     17.581
REMARK INTER + INTRA:          -5.956
REMARK INTER:                  -5.295
REMARK INTRA:                  -0.661
REMARK UNBOUND:                -0.443
REMARK  Name = 
REMARK  10 active torsions:
REMARK  status: ('A' for Active; 'I' for Inactive)
REMARK    1  A    between atoms: C_1  and  C_2
REMARK    2  A    between atoms: C_5  and  N_8
REMARK    3  A    between atoms: N_8  and  C_9
REMARK    4  A    between atoms: N_8  and  C_13
REMARK    5  A    between atoms: C_9  and  C_10
REMARK    6  A    between atoms: C_10  and  C_11
REMARK    7  A    between atoms: C_10  and  O_12
REMARK    8  A    between atoms: C_13  and  C_14
REMARK    9  A    between atoms: C_14  and  C_15
REMARK   10  A    between atoms: C_14  and  O_16
REMARK                            x       y       z     vdW  Elec       q    Type
REMARK                         _______ _______ _______ _____ _____    ______ ____
ROOT
ATOM      1  N   UNL     1      -0.960 -18.830   3.165  0.00  0.00    +0.000 N 
ENDROOT
BRANCH   1   6
ATOM      2  C   UNL     1       0.093 -20.728  -2.184  0.00  0.00    +0.000 C 
ATOM      3  C   UNL     1      -0.201 -20.249  -0.796  0.00  0.00    +0.000 A 
ATOM      4  C   UNL     1      -0.892 -19.061  -0.582  0.00  0.00    +0.000 A 
ATOM      5  C   UNL     1      -1.139 -18.601   0.722  0.00  0.00    +0.000 A 
ATOM      6  C   UNL     1      -0.693 -19.284   1.868  0.00  0.00    +0.000 A 
ATOM      7  C   UNL     1       0.000 -20.482   1.614  0.00  0.00    +0.000 A 
ATOM      8  C   UNL     1       0.252 -20.954   0.315  0.00  0.00    +0.000 A 
ENDBRANCH   1   6
BRANCH   1   9
ATOM      9  C   UNL     1      -0.169 -17.715   3.740  0.00  0.00    +0.000 C 
BRANCH   9  10
ATOM     10  C   UNL     1      -0.738 -17.208   5.088  0.00  0.00    +0.000 C 
ATOM     11  C   UNL     1       0.268 -16.312   5.801  0.00  0.00    +0.000 C 
BRANCH  10  12
ATOM     12  O   UNL     1      -1.941 -16.453   4.887  0.00  0.00    +0.000 OA
ATOM     13  H   UNL     1      -1.691 -15.550   4.630  0.00  0.00    +0.000 HD
ENDBRANCH  10  12
ENDBRANCH   9  10
ENDBRANCH   1   9
BRANCH   1  14
ATOM     14  C   UNL     1      -1.623 -19.705   4.165  0.00  0.00    +0.000 C 
BRANCH  14  15
ATOM     15  C   UNL     1      -3.145 -19.833   3.913  0.00  0.00    +0.000 C 
ATOM     16  C   UNL     1      -3.894 -20.474   5.075  0.00  0.00    +0.000 C 
BRANCH  15  17
ATOM     17  O   UNL     1      -3.743 -18.565   3.647  0.00  0.00    +0.000 OA
ATOM     18  H   UNL     1      -3.680 -18.074   4.491  0.00  0.00    +0.000 HD
ENDBRANCH  15  17
ENDBRANCH  14  15
ENDBRANCH   1  14
TORSDOF 7
ENDMDL
MODEL 5
REMARK VINA RESULT:    -3.880     17.048     18.711
REMARK INTER + INTRA:          -5.685
REMARK INTER:                  -5.427
REMARK INTRA:                  -0.257
REMARK UNBOUND:                -0.443
REMARK  Name = 
REMARK  10 active torsions:
REMARK  status: ('A' for Active; 'I' for Inactive)
REMARK    1  A    between atoms: C_1  and  C_2
REMARK    2  A    between atoms: C_5  and  N_8
REMARK    3  A    between atoms: N_8  and  C_9
REMARK    4  A    between atoms: N_8  and  C_13
REMARK    5  A    between atoms: C_9  and  C_10
REMARK    6  A    between atoms: C_10  and  C_11
REMARK    7  A    between atoms: C_10  and  O_12
REMARK    8  A    between atoms: C_13  and  C_14
REMARK    9  A    between atoms: C_14  and  C_15
REMARK   10  A    between atoms: C_14  and  O_16
REMARK                            x       y       z     vdW  Elec       q    Type
REMARK                         _______ _______ _______ _____ _____    ______ ____
ROOT
ATOM      1  N   UNL     1      -0.973 -18.903   3.858  0.00  0.00    +0.000 N 
ENDROOT
BRANCH   1   6
ATOM      2  C   UNL     1      -1.413 -16.375   9.029  0.00  0.00    +0.000 C 
ATOM      3  C   UNL     1      -1.274 -17.035   7.692  0.00  0.00    +0.000 A 
ATOM      4  C   UNL     1      -0.987 -16.289   6.554  0.00  0.00    +0.000 A 
ATOM      5  C   UNL     1      -0.888 -16.909   5.297  0.00  0.00    +0.000 A 
ATOM      6  C   UNL     1      -1.092 -18.288   5.111  0.00  0.00    +0.000 A 
ATOM      7  C   UNL     1      -1.379 -19.011   6.283  0.00  0.00    +0.000 A 
ATOM      8  C   UNL     1      -1.479 -18.404   7.546  0.00  0.00    +0.000 A 
ENDBRANCH   1   6
BRANCH   1   9
ATOM      9  C   UNL     1      -1.968 -19.915   3.429  0.00  0.00    +0.000 C 
BRANCH   9  10
ATOM     10  C   UNL     1      -3.385 -19.320   3.242  0.00  0.00    +0.000 C 
ATOM     11  C   UNL     1      -3.988 -19.755   1.911  0.00  0.00    +0.000 C 
BRANCH  10  12
ATOM     12  O   UNL     1      -4.266 -19.750   4.289  0.00  0.00    +0.000 OA
ATOM     13  H   UNL     1      -4.121 -19.175   5.060  0.00  0.00    +0.000 HD
ENDBRANCH  10  12
ENDBRANCH   9  10
ENDBRANCH   1   9
BRANCH   1  14
ATOM     14  C   UNL     1       0.337 -18.981   3.162  0.00  0.00    +0.000 C 
BRANCH  14  15
ATOM     15  C   UNL     1       0.363 -18.130   1.869  0.00  0.00    +0.000 C 
ATOM     16  C   UNL     1      -0.546 -18.676   0.774  0.00  0.00    +0.000 C 
BRANCH  15  17
ATOM     17  O   UNL     1      -0.013 -16.777   2.121  0.00  0.00    +0.000 OA
ATOM     18  H   UNL     1      -0.759 -16.835   2.751  0.00  0.00    +0.000 HD
ENDBRANCH  15  17
ENDBRANCH  14  15
ENDBRANCH   1  14
TORSDOF 7
ENDMDL
MODEL 6
REMARK VINA RESULT:    -3.792      1.117      1.715
REMARK INTER + INTRA:          -5.566
REMARK INTER:                  -5.072
REMARK INTRA:                  -0.494
REMARK UNBOUND:                -0.443
REMARK  Name = 
REMARK  10 active torsions:
REMARK  status: ('A' for Active; 'I' for Inactive)
REMARK    1  A    between atoms: C_1  and  C_2
REMARK    2  A    between atoms: C_5  and  N_8
REMARK    3  A    between atoms: N_8  and  C_9
REMARK    4  A    between atoms: N_8  and  C_13
REMARK    5  A    between atoms: C_9  and  C_10
REMARK    6  A    between atoms: C_10  and  C_11
REMARK    7  A    between atoms: C_10  and  O_12
REMARK    8  A    between atoms: C_13  and  C_14
REMARK    9  A    between atoms: C_14  and  C_15
REMARK   10  A    between atoms: C_14  and  O_16
REMARK                            x       y       z     vdW  Elec       q    Type
REMARK                         _______ _______ _______ _____ _____    ______ ____
ROOT
ATOM      1  N   UNL     1     -18.136 -19.181  -2.326  0.00  0.00    +0.000 N 
ENDROOT
BRANCH   1   6
ATOM      2  C   UNL     1     -14.872 -20.746  -6.823  0.00  0.00    +0.000 C 
ATOM      3  C   UNL     1     -15.738 -20.335  -5.672  0.00  0.00    +0.000 A 
ATOM      4  C   UNL     1     -15.706 -19.033  -5.184  0.00  0.00    +0.000 A 
ATOM      5  C   UNL     1     -16.497 -18.660  -4.085  0.00  0.00    +0.000 A 
ATOM      6  C   UNL     1     -17.335 -19.565  -3.409  0.00  0.00    +0.000 A 
ATOM      7  C   UNL     1     -17.344 -20.871  -3.930  0.00  0.00    +0.000 A 
ATOM      8  C   UNL     1     -16.559 -21.257  -5.030  0.00  0.00    +0.000 A 
ENDBRANCH   1   6
BRANCH   1   9
ATOM      9  C   UNL     1     -17.662 -19.395  -0.937  0.00  0.00    +0.000 C 
BRANCH   9  10
ATOM     10  C   UNL     1     -18.006 -18.215   0.003  0.00  0.00    +0.000 C 
ATOM     11  C   UNL     1     -18.781 -18.698   1.223  0.00  0.00    +0.000 C 
BRANCH  10  12
ATOM     12  O   UNL     1     -16.816 -17.560   0.463  0.00  0.00    +0.000 OA
ATOM     13  H   UNL     1     -16.909 -17.401   1.418  0.00  0.00    +0.000 HD
ENDBRANCH  10  12
ENDBRANCH   9  10
ENDBRANCH   1   9
BRANCH   1  14
ATOM     14  C   UNL     1     -19.609 -19.047  -2.468  0.00  0.00    +0.000 C 
BRANCH  14  15
ATOM     15  C   UNL     1     -20.354 -20.348  -2.086  0.00  0.00    +0.000 C 
ATOM     16  C   UNL     1     -21.487 -20.120  -1.092  0.00  0.00    +0.000 C 
BRANCH  15  17
ATOM     17  O   UNL     1     -20.898 -21.000  -3.232  0.00  0.00    +0.000 OA
ATOM     18  H   UNL     1     -21.136 -20.276  -3.846  0.00  0.00    +0.000 HD
ENDBRANCH  15  17
ENDBRANCH  14  15
ENDBRANCH   1  14
TORSDOF 7
ENDMDL
MODEL 7
REMARK VINA RESULT:    -3.758     16.895     18.442
REMARK INTER + INTRA:          -5.519
REMARK INTER:                  -4.766
REMARK INTRA:                  -0.753
REMARK UNBOUND:                -0.443
REMARK  Name = 
REMARK  10 active torsions:
REMARK  status: ('A' for Active; 'I' for Inactive)
REMARK    1  A    between atoms: C_1  and  C_2
REMARK    2  A    between atoms: C_5  and  N_8
REMARK    3  A    between atoms: N_8  and  C_9
REMARK    4  A    between atoms: N_8  and  C_13
REMARK    5  A    between atoms: C_9  and  C_10
REMARK    6  A    between atoms: C_10  and  C_11
REMARK    7  A    between atoms: C_10  and  O_12
REMARK    8  A    between atoms: C_13  and  C_14
REMARK    9  A    between atoms: C_14  and  C_15
REMARK   10  A    between atoms: C_14  and  O_16
REMARK                            x       y       z     vdW  Elec       q    Type
REMARK                         _______ _______ _______ _____ _____    ______ ____
ROOT
ATOM      1  N   UNL     1      -1.539 -19.726   4.845  0.00  0.00    +0.000 N 
ENDROOT
BRANCH   1   6
ATOM      2  C   UNL     1      -1.242 -15.484   8.751  0.00  0.00    +0.000 C 
ATOM      3  C   UNL     1      -1.343 -16.578   7.732  0.00  0.00    +0.000 A 
ATOM      4  C   UNL     1      -1.745 -17.859   8.096  0.00  0.00    +0.000 A 
ATOM      5  C   UNL     1      -1.809 -18.888   7.143  0.00  0.00    +0.000 A 
ATOM      6  C   UNL     1      -1.454 -18.700   5.795  0.00  0.00    +0.000 A 
ATOM      7  C   UNL     1      -1.054 -17.392   5.462  0.00  0.00    +0.000 A 
ATOM      8  C   UNL     1      -0.989 -16.354   6.405  0.00  0.00    +0.000 A 
ENDBRANCH   1   6
BRANCH   1   9
ATOM      9  C   UNL     1      -2.426 -20.889   5.085  0.00  0.00    +0.000 C 
BRANCH   9  10
ATOM     10  C   UNL     1      -3.869 -20.659   4.570  0.00  0.00    +0.000 C 
ATOM     11  C   UNL     1      -4.879 -20.784   5.705  0.00  0.00    +0.000 C 
BRANCH  10  12
ATOM     12  O   UNL     1      -4.008 -19.353   3.993  0.00  0.00    +0.000 OA
ATOM     13  H   UNL     1      -4.722 -18.891   4.463  0.00  0.00    +0.000 HD
ENDBRANCH  10  12
ENDBRANCH   9  10
ENDBRANCH   1   9
BRANCH   1  14
ATOM     14  C   UNL     1      -0.440 -19.968   3.875  0.00  0.00    +0.000 C 
BRANCH  14  15
ATOM     15  C   UNL     1      -0.863 -19.647   2.421  0.00  0.00    +0.000 C 
ATOM     16  C   UNL     1      -1.358 -20.870   1.657  0.00  0.00    +0.000 C 
BRANCH  15  17
ATOM     17  O   UNL     1      -1.887 -18.655   2.377  0.00  0.00    +0.000 OA
ATOM     18  H   UNL     1      -2.344 -18.724   3.239  0.00  0.00    +0.000 HD
ENDBRANCH  15  17
ENDBRANCH  14  15
ENDBRANCH   1  14
TORSDOF 7
ENDMDL
MODEL 8
REMARK VINA RESULT:    -3.679     17.101     18.699
REMARK INTER + INTRA:          -5.413
REMARK INTER:                  -4.928
REMARK INTRA:                  -0.485
REMARK UNBOUND:                -0.443
REMARK  Name = 
REMARK  10 active torsions:
REMARK  status: ('A' for Active; 'I' for Inactive)
REMARK    1  A    between atoms: C_1  and  C_2
REMARK    2  A    between atoms: C_5  and  N_8
REMARK    3  A    between atoms: N_8  and  C_9
REMARK    4  A    between atoms: N_8  and  C_13
REMARK    5  A    between atoms: C_9  and  C_10
REMARK    6  A    between atoms: C_10  and  C_11
REMARK    7  A    between atoms: C_10  and  O_12
REMARK    8  A    between atoms: C_13  and  C_14
REMARK    9  A    between atoms: C_14  and  C_15
REMARK   10  A    between atoms: C_14  and  O_16
REMARK                            x       y       z     vdW  Elec       q    Type
REMARK                         _______ _______ _______ _____ _____    ______ ____
ROOT
ATOM      1  N   UNL     1      -0.839 -19.407   4.078  0.00  0.00    +0.000 N 
ENDROOT
BRANCH   1   6
ATOM      2  C   UNL     1      -1.511 -16.056   8.731  0.00  0.00    +0.000 C 
ATOM      3  C   UNL     1      -1.313 -16.930   7.530  0.00  0.00    +0.000 A 
ATOM      4  C   UNL     1      -0.929 -16.387   6.308  0.00  0.00    +0.000 A 
ATOM      5  C   UNL     1      -0.774 -17.207   5.178  0.00  0.00    +0.000 A 
ATOM      6  C   UNL     1      -1.015 -18.593   5.204  0.00  0.00    +0.000 A 
ATOM      7  C   UNL     1      -1.399 -19.107   6.456  0.00  0.00    +0.000 A 
ATOM      8  C   UNL     1      -1.555 -18.299   7.595  0.00  0.00    +0.000 A 
ENDBRANCH   1   6
BRANCH   1   9
ATOM      9  C   UNL     1       0.245 -19.114   3.111  0.00  0.00    +0.000 C 
BRANCH   9  10
ATOM     10  C   UNL     1      -0.278 -18.497   1.791  0.00  0.00    +0.000 C 
ATOM     11  C   UNL     1       0.367 -17.141   1.529  0.00  0.00    +0.000 C 
BRANCH  10  12
ATOM     12  O   UNL     1       0.012 -19.349   0.674  0.00  0.00    +0.000 OA
ATOM     13  H   UNL     1      -0.028 -20.270   0.979  0.00  0.00    +0.000 HD
ENDBRANCH  10  12
ENDBRANCH   9  10
ENDBRANCH   1   9
BRANCH   1  14
ATOM     14  C   UNL     1      -1.958 -20.219   3.534  0.00  0.00    +0.000 C 
BRANCH  14  15
ATOM     15  C   UNL     1      -3.240 -19.378   3.321  0.00  0.00    +0.000 C 
ATOM     16  C   UNL     1      -3.800 -19.488   1.908  0.00  0.00    +0.000 C 
BRANCH  15  17
ATOM     17  O   UNL     1      -4.271 -19.747   4.235  0.00  0.00    +0.000 OA
ATOM     18  H   UNL     1      -4.426 -18.948   4.778  0.00  0.00    +0.000 HD
ENDBRANCH  15  17
ENDBRANCH  14  15
ENDBRANCH   1  14
TORSDOF 7
ENDMDL
MODEL 9
REMARK VINA RESULT:    -3.585     16.535     17.746
REMARK INTER + INTRA:          -5.285
REMARK INTER:                  -4.786
REMARK INTRA:                  -0.500
REMARK UNBOUND:                -0.443
REMARK  Name = 
REMARK  10 active torsions:
REMARK  status: ('A' for Active; 'I' for Inactive)
REMARK    1  A    between atoms: C_1  and  C_2
REMARK    2  A    between atoms: C_5  and  N_8
REMARK    3  A    between atoms: N_8  and  C_9
REMARK    4  A    between atoms: N_8  and  C_13
REMARK    5  A    between atoms: C_9  and  C_10
REMARK    6  A    between atoms: C_10  and  C_11
REMARK    7  A    between atoms: C_10  and  O_12
REMARK    8  A    between atoms: C_13  and  C_14
REMARK    9  A    between atoms: C_14  and  C_15
REMARK   10  A    between atoms: C_14  and  O_16
REMARK                            x       y       z     vdW  Elec       q    Type
REMARK                         _______ _______ _______ _____ _____    ______ ____
ROOT
ATOM      1  N   UNL     1      -0.889 -19.711   4.663  0.00  0.00    +0.000 N 
ENDROOT
BRANCH   1   6
ATOM      2  C   UNL     1      -3.113 -18.940  -0.608  0.00  0.00    +0.000 C 
ATOM      3  C   UNL     1      -2.539 -19.116   0.764  0.00  0.00    +0.000 A 
ATOM      4  C   UNL     1      -1.169 -19.014   0.984  0.00  0.00    +0.000 A 
ATOM      5  C   UNL     1      -0.634 -19.209   2.268  0.00  0.00    +0.000 A 
ATOM      6  C   UNL     1      -1.427 -19.537   3.382  0.00  0.00    +0.000 A 
ATOM      7  C   UNL     1      -2.807 -19.630   3.123  0.00  0.00    +0.000 A 
ATOM      8  C   UNL     1      -3.356 -19.435   1.845  0.00  0.00    +0.000 A 
ENDBRANCH   1   6
BRANCH   1   9
ATOM      9  C   UNL     1      -1.365 -20.820   5.525  0.00  0.00    +0.000 C 
BRANCH   9  10
ATOM     10  C   UNL     1      -2.122 -20.321   6.780  0.00  0.00    +0.000 C 
ATOM     11  C   UNL     1      -3.618 -20.586   6.655  0.00  0.00    +0.000 C 
BRANCH  10  12
ATOM     12  O   UNL     1      -1.651 -20.983   7.962  0.00  0.00    +0.000 OA
ATOM     13  H   UNL     1      -0.880 -20.493   8.295  0.00  0.00    +0.000 HD
ENDBRANCH  10  12
ENDBRANCH   9  10
ENDBRANCH   1   9
BRANCH   1  14
ATOM     14  C   UNL     1      -0.255 -18.582   5.391  0.00  0.00    +0.000 C 
BRANCH  14  15
ATOM     15  C   UNL     1      -1.075 -17.275   5.269  0.00  0.00    +0.000 C 
ATOM     16  C   UNL     1      -1.210 -16.526   6.590  0.00  0.00    +0.000 C 
BRANCH  15  17
ATOM     17  O   UNL     1      -0.506 -16.383   4.312  0.00  0.00    +0.000 OA
ATOM     18  H   UNL     1       0.311 -16.049   4.733  0.00  0.00    +0.000 HD
ENDBRANCH  15  17
ENDBRANCH  14  15
ENDBRANCH   1  14
TORSDOF 7
ENDMDL
