MODEL 1
REMARK VINA RESULT:    -4.610      0.000      0.000
REMARK INTER + INTRA:          -5.052
REMARK INTER:                  -5.014
REMARK INTRA:                  -0.038
REMARK UNBOUND:                -0.038
REMARK  Name = 
REMARK  3 active torsions:
REMARK  status: ('A' for Active; 'I' for Inactive)
REMARK    1  A    between atoms: C_1  and  O_2
REMARK    2  A    between atoms: O_2  and  C_3
REMARK    3  A    between atoms: C_8  and  O_9
REMARK                            x       y       z     vdW  Elec       q    Type
REMARK                         _______ _______ _______ _____ _____    ______ ____
ROOT
ATOM      1  C   UNL     1      -2.628  17.886  13.100  0.00  0.00    +0.000 A 
ATOM      2  C   UNL     1      -2.164  18.561  14.228  0.00  0.00    +0.000 A 
ATOM      3  C   UNL     1      -1.177  19.546  14.097  0.00  0.00    +0.000 A 
ATOM      4  C   UNL     1      -0.651  19.859  12.842  0.00  0.00    +0.000 A 
ATOM      5  C   UNL     1      -1.111  19.189  11.710  0.00  0.00    +0.000 A 
ATOM      6  C   UNL     1      -2.089  18.213  11.850  0.00  0.00    +0.000 A 
ENDROOT
BRANCH   1   8
ATOM      7  C   UNL     1      -3.948  16.344  14.337  0.00  0.00    +0.000 C 
ATOM      8  O   UNL     1      -3.585  16.903  13.080  0.00  0.00    +0.000 OA
ENDBRANCH   1   8
BRANCH   6   9
ATOM      9  O   UNL     1      -2.525  17.568  10.723  0.00  0.00    +0.000 OA
ATOM     10  H   UNL     1      -1.763  17.029  10.435  0.00  0.00    +0.000 HD
ENDBRANCH   6   9
TORSDOF 2
ENDMDL
MODEL 2
REMARK VINA RESULT:    -4.254      1.583      3.081
REMARK INTER + INTRA:          -4.665
REMARK INTER:                  -4.628
REMARK INTRA:                  -0.037
REMARK UNBOUND:                -0.038
REMARK  Name = 
REMARK  3 active torsions:
REMARK  status: ('A' for Active; 'I' for Inactive)
REMARK    1  A    between atoms: C_1  and  O_2
REMARK    2  A    between atoms: O_2  and  C_3
REMARK    3  A    between atoms: C_8  and  O_9
REMARK                            x       y       z     vdW  Elec       q    Type
REMARK                         _______ _______ _______ _____ _____    ______ ____
ROOT
ATOM      1  C   UNL     1      -1.833  18.713  13.200  0.00  0.00    +0.000 A 
ATOM      2  C   UNL     1      -2.596  18.444  14.336  0.00  0.00    +0.000 A 
ATOM      3  C   UNL     1      -3.582  17.450  14.297  0.00  0.00    +0.000 A 
ATOM      4  C   UNL     1      -3.811  16.725  13.126  0.00  0.00    +0.000 A 
ATOM      5  C   UNL     1      -3.052  16.988  11.987  0.00  0.00    +0.000 A 
ATOM      6  C   UNL     1      -2.076  17.976  12.035  0.00  0.00    +0.000 A 
ENDROOT
BRANCH   1   8
ATOM      7  C   UNL     1      -0.587  20.442  14.251  0.00  0.00    +0.000 C 
ATOM      8  O   UNL     1      -0.840  19.653  13.095  0.00  0.00    +0.000 OA
ENDBRANCH   1   8
BRANCH   6   9
ATOM      9  O   UNL     1      -1.344  18.216  10.903  0.00  0.00    +0.000 OA
ATOM     10  H   UNL     1      -0.936  19.091  11.052  0.00  0.00    +0.000 HD
ENDBRANCH   6   9
TORSDOF 2
ENDMDL
MODEL 3
REMARK VINA RESULT:    -3.969      1.349      2.930
REMARK INTER + INTRA:          -4.355
REMARK INTER:                  -4.314
REMARK INTRA:                  -0.041
REMARK UNBOUND:                -0.038
REMARK  Name = 
REMARK  3 active torsions:
REMARK  status: ('A' for Active; 'I' for Inactive)
REMARK    1  A    between atoms: C_1  and  O_2
REMARK    2  A    between atoms: O_2  and  C_3
REMARK    3  A    between atoms: C_8  and  O_9
REMARK                            x       y       z     vdW  Elec       q    Type
REMARK                         _______ _______ _______ _____ _____    ______ ____
ROOT
ATOM      1  C   UNL     1      -1.630  17.979  12.148  0.00  0.00    +0.000 A 
ATOM      2  C   UNL     1      -1.320  18.687  13.309  0.00  0.00    +0.000 A 
ATOM      3  C   UNL     1      -2.265  18.794  14.337  0.00  0.00    +0.000 A 
ATOM      4  C   UNL     1      -3.520  18.195  14.209  0.00  0.00    +0.000 A 
ATOM      5  C   UNL     1      -3.837  17.485  13.053  0.00  0.00    +0.000 A 
ATOM      6  C   UNL     1      -2.893  17.386  12.039  0.00  0.00    +0.000 A 
ENDROOT
BRANCH   1   8
ATOM      7  C   UNL     1       0.591  17.777  11.329  0.00  0.00    +0.000 C 
ATOM      8  O   UNL     1      -0.807  17.795  11.066  0.00  0.00    +0.000 OA
ENDBRANCH   1   8
BRANCH   6   9
ATOM      9  O   UNL     1      -3.228  16.683  10.912  0.00  0.00    +0.000 OA
ATOM     10  H   UNL     1      -2.683  15.874  10.953  0.00  0.00    +0.000 HD
ENDBRANCH   6   9
TORSDOF 2
ENDMDL
MODEL 4
REMARK VINA RESULT:    -2.681     11.080     12.381
REMARK INTER + INTRA:          -2.954
REMARK INTER:                  -2.916
REMARK INTRA:                  -0.038
REMARK UNBOUND:                -0.038
REMARK  Name = 
REMARK  3 active torsions:
REMARK  status: ('A' for Active; 'I' for Inactive)
REMARK    1  A    between atoms: C_1  and  O_2
REMARK    2  A    between atoms: O_2  and  C_3
REMARK    3  A    between atoms: C_8  and  O_9
REMARK                            x       y       z     vdW  Elec       q    Type
REMARK                         _______ _______ _______ _____ _____    ______ ____
ROOT
ATOM      1  C   UNL     1     -13.709  18.975  11.342  0.00  0.00    +0.000 A 
ATOM      2  C   UNL     1     -15.012  19.445  11.181  0.00  0.00    +0.000 A 
ATOM      3  C   UNL     1     -16.033  18.975  12.016  0.00  0.00    +0.000 A 
ATOM      4  C   UNL     1     -15.757  18.036  13.012  0.00  0.00    +0.000 A 
ATOM      5  C   UNL     1     -14.458  17.563  13.180  0.00  0.00    +0.000 A 
ATOM      6  C   UNL     1     -13.451  18.034  12.346  0.00  0.00    +0.000 A 
ENDROOT
BRANCH   1   8
ATOM      7  C   UNL     1     -12.877  20.066   9.402  0.00  0.00    +0.000 C 
ATOM      8  O   UNL     1     -12.616  19.345  10.600  0.00  0.00    +0.000 OA
ENDBRANCH   1   8
BRANCH   6   9
ATOM      9  O   UNL     1     -12.182  17.554  12.530  0.00  0.00    +0.000 OA
ATOM     10  H   UNL     1     -12.183  17.190  13.436  0.00  0.00    +0.000 HD
ENDBRANCH   6   9
TORSDOF 2
ENDMDL
MODEL 5
REMARK VINA RESULT:    -2.680     11.053     12.279
REMARK INTER + INTRA:          -2.953
REMARK INTER:                  -2.916
REMARK INTRA:                  -0.037
REMARK UNBOUND:                -0.038
REMARK  Name = 
REMARK  3 active torsions:
REMARK  status: ('A' for Active; 'I' for Inactive)
REMARK    1  A    between atoms: C_1  and  O_2
REMARK    2  A    between atoms: O_2  and  C_3
REMARK    3  A    between atoms: C_8  and  O_9
REMARK                            x       y       z     vdW  Elec       q    Type
REMARK                         _______ _______ _______ _____ _____    ______ ____
ROOT
ATOM      1  C   UNL     1     -14.592  18.204  12.237  0.00  0.00    +0.000 A 
ATOM      2  C   UNL     1     -15.550  18.959  11.561  0.00  0.00    +0.000 A 
ATOM      3  C   UNL     1     -15.154  19.859  10.563  0.00  0.00    +0.000 A 
ATOM      4  C   UNL     1     -13.805  20.009  10.239  0.00  0.00    +0.000 A 
ATOM      5  C   UNL     1     -12.842  19.259  10.910  0.00  0.00    +0.000 A 
ATOM      6  C   UNL     1     -13.243  18.368  11.898  0.00  0.00    +0.000 A 
ENDROOT
BRANCH   1   8
ATOM      7  C   UNL     1     -16.185  17.154  13.653  0.00  0.00    +0.000 C 
ATOM      8  O   UNL     1     -14.833  17.290  13.231  0.00  0.00    +0.000 OA
ENDBRANCH   1   8
BRANCH   6   9
ATOM      9  O   UNL     1     -12.278  17.642  12.544  0.00  0.00    +0.000 OA
ATOM     10  H   UNL     1     -11.491  18.219  12.544  0.00  0.00    +0.000 HD
ENDBRANCH   6   9
TORSDOF 2
ENDMDL
MODEL 6
REMARK VINA RESULT:    -2.678     25.689     27.173
REMARK INTER + INTRA:          -2.951
REMARK INTER:                  -2.903
REMARK INTRA:                  -0.047
REMARK UNBOUND:                -0.038
REMARK  Name = 
REMARK  3 active torsions:
REMARK  status: ('A' for Active; 'I' for Inactive)
REMARK    1  A    between atoms: C_1  and  O_2
REMARK    2  A    between atoms: O_2  and  C_3
REMARK    3  A    between atoms: C_8  and  O_9
REMARK                            x       y       z     vdW  Elec       q    Type
REMARK                         _______ _______ _______ _____ _____    ______ ____
ROOT
ATOM      1  C   UNL     1     -20.174   0.780   3.069  0.00  0.00    +0.000 A 
ATOM      2  C   UNL     1     -21.192   0.493   3.978  0.00  0.00    +0.000 A 
ATOM      3  C   UNL     1     -21.205  -0.738   4.647  0.00  0.00    +0.000 A 
ATOM      4  C   UNL     1     -20.206  -1.683   4.410  0.00  0.00    +0.000 A 
ATOM      5  C   UNL     1     -19.186  -1.403   3.504  0.00  0.00    +0.000 A 
ATOM      6  C   UNL     1     -19.180  -0.180   2.845  0.00  0.00    +0.000 A 
ENDROOT
BRANCH   1   8
ATOM      7  C   UNL     1     -20.173   3.157   3.067  0.00  0.00    +0.000 C 
ATOM      8  O   UNL     1     -20.036   1.938   2.346  0.00  0.00    +0.000 OA
ENDBRANCH   1   8
BRANCH   6   9
ATOM      9  O   UNL     1     -18.167   0.072   1.959  0.00  0.00    +0.000 OA
ATOM     10  H   UNL     1     -18.543   0.718   1.330  0.00  0.00    +0.000 HD
ENDBRANCH   6   9
TORSDOF 2
ENDMDL
MODEL 7
REMARK VINA RESULT:    -2.671     24.889     25.879
REMARK INTER + INTRA:          -2.944
REMARK INTER:                  -2.891
REMARK INTRA:                  -0.053
REMARK UNBOUND:                -0.038
REMARK  Name = 
REMARK  3 active torsions:
REMARK  status: ('A' for Active; 'I' for Inactive)
REMARK    1  A    between atoms: C_1  and  O_2
REMARK    2  A    between atoms: O_2  and  C_3
REMARK    3  A    between atoms: C_8  and  O_9
REMARK                            x       y       z     vdW  Elec       q    Type
REMARK                         _______ _______ _______ _____ _____    ______ ____
ROOT
ATOM      1  C   UNL     1     -19.876   0.249   6.058  0.00  0.00    +0.000 A 
ATOM      2  C   UNL     1     -20.120   0.055   4.699  0.00  0.00    +0.000 A 
ATOM      3  C   UNL     1     -20.422   1.150   3.879  0.00  0.00    +0.000 A 
ATOM      4  C   UNL     1     -20.481   2.439   4.412  0.00  0.00    +0.000 A 
ATOM      5  C   UNL     1     -20.238   2.641   5.769  0.00  0.00    +0.000 A 
ATOM      6  C   UNL     1     -19.940   1.549   6.575  0.00  0.00    +0.000 A 
ENDROOT
BRANCH   1   8
ATOM      7  C   UNL     1     -18.320  -1.381   6.811  0.00  0.00    +0.000 C 
ATOM      8  O   UNL     1     -19.572  -0.725   6.974  0.00  0.00    +0.000 OA
ENDBRANCH   1   8
BRANCH   6   9
ATOM      9  O   UNL     1     -19.706   1.773   7.905  0.00  0.00    +0.000 OA
ATOM     10  H   UNL     1     -19.867   0.911   8.334  0.00  0.00    +0.000 HD
ENDBRANCH   6   9
TORSDOF 2
ENDMDL
MODEL 8
REMARK VINA RESULT:    -2.488     11.409     12.689
REMARK INTER + INTRA:          -2.744
REMARK INTER:                  -2.697
REMARK INTRA:                  -0.046
REMARK UNBOUND:                -0.038
REMARK  Name = 
REMARK  3 active torsions:
REMARK  status: ('A' for Active; 'I' for Inactive)
REMARK    1  A    between atoms: C_1  and  O_2
REMARK    2  A    between atoms: O_2  and  C_3
REMARK    3  A    between atoms: C_8  and  O_9
REMARK                            x       y       z     vdW  Elec       q    Type
REMARK                         _______ _______ _______ _____ _____    ______ ____
ROOT
ATOM      1  C   UNL     1     -14.797  19.527  10.852  0.00  0.00    +0.000 A 
ATOM      2  C   UNL     1     -15.688  18.902  11.724  0.00  0.00    +0.000 A 
ATOM      3  C   UNL     1     -15.206  18.042  12.719  0.00  0.00    +0.000 A 
ATOM      4  C   UNL     1     -13.836  17.804  12.846  0.00  0.00    +0.000 A 
ATOM      5  C   UNL     1     -12.940  18.426  11.979  0.00  0.00    +0.000 A 
ATOM      6  C   UNL     1     -13.427  19.276  10.995  0.00  0.00    +0.000 A 
ENDROOT
BRANCH   1   8
ATOM      7  C   UNL     1     -16.219  20.006   9.010  0.00  0.00    +0.000 C 
ATOM      8  O   UNL     1     -15.126  20.388   9.836  0.00  0.00    +0.000 OA
ENDBRANCH   1   8
BRANCH   6   9
ATOM      9  O   UNL     1     -12.526  19.875  10.155  0.00  0.00    +0.000 OA
ATOM     10  H   UNL     1     -11.917  19.159   9.893  0.00  0.00    +0.000 HD
ENDBRANCH   6   9
TORSDOF 2
ENDMDL
MODEL 9
REMARK VINA RESULT:    -2.446     11.010     12.168
REMARK INTER + INTRA:          -2.699
REMARK INTER:                  -2.648
REMARK INTRA:                  -0.051
REMARK UNBOUND:                -0.038
REMARK  Name = 
REMARK  3 active torsions:
REMARK  status: ('A' for Active; 'I' for Inactive)
REMARK    1  A    between atoms: C_1  and  O_2
REMARK    2  A    between atoms: O_2  and  C_3
REMARK    3  A    between atoms: C_8  and  O_9
REMARK                            x       y       z     vdW  Elec       q    Type
REMARK                         _______ _______ _______ _____ _____    ______ ____
ROOT
ATOM      1  C   UNL     1     -13.712  18.580  11.772  0.00  0.00    +0.000 A 
ATOM      2  C   UNL     1     -12.651  19.039  10.992  0.00  0.00    +0.000 A 
ATOM      3  C   UNL     1     -12.890  19.939   9.946  0.00  0.00    +0.000 A 
ATOM      4  C   UNL     1     -14.186  20.383   9.676  0.00  0.00    +0.000 A 
ATOM      5  C   UNL     1     -15.251  19.929  10.451  0.00  0.00    +0.000 A 
ATOM      6  C   UNL     1     -15.005  19.036  11.486  0.00  0.00    +0.000 A 
ENDROOT
BRANCH   1   8
ATOM      7  C   UNL     1     -12.750  18.064  13.883  0.00  0.00    +0.000 C 
ATOM      8  O   UNL     1     -13.626  17.702  12.822  0.00  0.00    +0.000 OA
ENDBRANCH   1   8
BRANCH   6   9
ATOM      9  O   UNL     1     -16.068  18.605  12.234  0.00  0.00    +0.000 OA
ATOM     10  H   UNL     1     -16.769  19.265  12.074  0.00  0.00    +0.000 HD
ENDBRANCH   6   9
TORSDOF 2
ENDMDL
