MODEL 1
REMARK VINA RESULT:    -3.623      0.000      0.000
REMARK INTER + INTRA:          -3.983
REMARK INTER:                  -3.941
REMARK INTRA:                  -0.042
REMARK UNBOUND:                -0.042
REMARK  Name = 
REMARK  3 active torsions:
REMARK  status: ('A' for Active; 'I' for Inactive)
REMARK    1  A    between atoms: C_1  and  O_2
REMARK    2  A    between atoms: O_2  and  C_3
REMARK    3  A    between atoms: C_8  and  O_9
REMARK                            x       y       z     vdW  Elec       q    Type
REMARK                         _______ _______ _______ _____ _____    ______ ____
ROOT
ATOM      1  C   UNL     1     -17.240 -18.972  -2.616  0.00  0.00    +0.000 A 
ATOM      2  C   UNL     1     -18.146 -19.704  -1.849  0.00  0.00    +0.000 A 
ATOM      3  C   UNL     1     -18.389 -19.342  -0.518  0.00  0.00    +0.000 A 
ATOM      4  C   UNL     1     -17.729 -18.251   0.051  0.00  0.00    +0.000 A 
ATOM      5  C   UNL     1     -16.823 -17.515  -0.709  0.00  0.00    +0.000 A 
ATOM      6  C   UNL     1     -16.588 -17.881  -2.028  0.00  0.00    +0.000 A 
ENDROOT
BRANCH   1   8
ATOM      7  C   UNL     1     -16.899 -20.573  -4.338  0.00  0.00    +0.000 C 
ATOM      8  O   UNL     1     -16.906 -19.212  -3.924  0.00  0.00    +0.000 OA
ENDBRANCH   1   8
BRANCH   6   9
ATOM      9  O   UNL     1     -15.693 -17.142  -2.755  0.00  0.00    +0.000 OA
ATOM     10  H   UNL     1     -15.472 -16.384  -2.181  0.00  0.00    +0.000 HD
ENDBRANCH   6   9
TORSDOF 2
ENDMDL
MODEL 2
REMARK VINA RESULT:    -3.435      1.334      1.669
REMARK INTER + INTRA:          -3.779
REMARK INTER:                  -3.740
REMARK INTRA:                  -0.038
REMARK UNBOUND:                -0.042
REMARK  Name = 
REMARK  3 active torsions:
REMARK  status: ('A' for Active; 'I' for Inactive)
REMARK    1  A    between atoms: C_1  and  O_2
REMARK    2  A    between atoms: O_2  and  C_3
REMARK    3  A    between atoms: C_8  and  O_9
REMARK                            x       y       z     vdW  Elec       q    Type
REMARK                         _______ _______ _______ _____ _____    ______ ____
ROOT
ATOM      1  C   UNL     1     -16.525 -18.580  -3.336  0.00  0.00    +0.000 A 
ATOM      2  C   UNL     1     -17.541 -19.491  -3.619  0.00  0.00    +0.000 A 
ATOM      3  C   UNL     1     -18.606 -19.652  -2.723  0.00  0.00    +0.000 A 
ATOM      4  C   UNL     1     -18.657 -18.906  -1.544  0.00  0.00    +0.000 A 
ATOM      5  C   UNL     1     -17.646 -17.993  -1.254  0.00  0.00    +0.000 A 
ATOM      6  C   UNL     1     -16.594 -17.841  -2.149  0.00  0.00    +0.000 A 
ENDROOT
BRANCH   1   8
ATOM      7  C   UNL     1     -15.466 -18.818  -5.450  0.00  0.00    +0.000 C 
ATOM      8  O   UNL     1     -15.427 -18.320  -4.118  0.00  0.00    +0.000 OA
ENDBRANCH   1   8
BRANCH   6   9
ATOM      9  O   UNL     1     -15.611 -16.938  -1.842  0.00  0.00    +0.000 OA
ATOM     10  H   UNL     1     -15.093 -16.845  -2.665  0.00  0.00    +0.000 HD
ENDBRANCH   6   9
TORSDOF 2
ENDMDL
MODEL 3
REMARK VINA RESULT:    -3.424      2.232      3.202
REMARK INTER + INTRA:          -3.767
REMARK INTER:                  -3.714
REMARK INTRA:                  -0.052
REMARK UNBOUND:                -0.042
REMARK  Name = 
REMARK  3 active torsions:
REMARK  status: ('A' for Active; 'I' for Inactive)
REMARK    1  A    between atoms: C_1  and  O_2
REMARK    2  A    between atoms: O_2  and  C_3
REMARK    3  A    between atoms: C_8  and  O_9
REMARK                            x       y       z     vdW  Elec       q    Type
REMARK                         _______ _______ _______ _____ _____    ______ ____
ROOT
ATOM      1  C   UNL     1     -18.059 -19.180  -0.652  0.00  0.00    +0.000 A 
ATOM      2  C   UNL     1     -18.044 -19.642  -1.968  0.00  0.00    +0.000 A 
ATOM      3  C   UNL     1     -17.226 -19.018  -2.919  0.00  0.00    +0.000 A 
ATOM      4  C   UNL     1     -16.423 -17.934  -2.560  0.00  0.00    +0.000 A 
ATOM      5  C   UNL     1     -16.432 -17.468  -1.247  0.00  0.00    +0.000 A 
ATOM      6  C   UNL     1     -17.247 -18.092  -0.311  0.00  0.00    +0.000 A 
ENDROOT
BRANCH   1   8
ATOM      7  C   UNL     1     -18.494 -21.014   0.794  0.00  0.00    +0.000 C 
ATOM      8  O   UNL     1     -18.807 -19.691   0.378  0.00  0.00    +0.000 OA
ENDBRANCH   1   8
BRANCH   6   9
ATOM      9  O   UNL     1     -17.239 -17.615   0.973  0.00  0.00    +0.000 OA
ATOM     10  H   UNL     1     -18.032 -17.049   1.033  0.00  0.00    +0.000 HD
ENDBRANCH   6   9
TORSDOF 2
ENDMDL
MODEL 4
REMARK VINA RESULT:    -3.422      1.632      3.526
REMARK INTER + INTRA:          -3.764
REMARK INTER:                  -3.722
REMARK INTRA:                  -0.042
REMARK UNBOUND:                -0.042
REMARK  Name = 
REMARK  3 active torsions:
REMARK  status: ('A' for Active; 'I' for Inactive)
REMARK    1  A    between atoms: C_1  and  O_2
REMARK    2  A    between atoms: O_2  and  C_3
REMARK    3  A    between atoms: C_8  and  O_9
REMARK                            x       y       z     vdW  Elec       q    Type
REMARK                         _______ _______ _______ _____ _____    ______ ____
ROOT
ATOM      1  C   UNL     1     -16.857 -19.129  -3.311  0.00  0.00    +0.000 A 
ATOM      2  C   UNL     1     -17.000 -20.217  -4.171  0.00  0.00    +0.000 A 
ATOM      3  C   UNL     1     -16.180 -20.328  -5.301  0.00  0.00    +0.000 A 
ATOM      4  C   UNL     1     -15.218 -19.354  -5.576  0.00  0.00    +0.000 A 
ATOM      5  C   UNL     1     -15.069 -18.265  -4.721  0.00  0.00    +0.000 A 
ATOM      6  C   UNL     1     -15.887 -18.163  -3.603  0.00  0.00    +0.000 A 
ENDROOT
BRANCH   1   8
ATOM      7  C   UNL     1     -18.013 -20.037  -1.444  0.00  0.00    +0.000 C 
ATOM      8  O   UNL     1     -17.588 -18.893  -2.174  0.00  0.00    +0.000 OA
ENDBRANCH   1   8
BRANCH   6   9
ATOM      9  O   UNL     1     -15.722 -17.082  -2.778  0.00  0.00    +0.000 OA
ATOM     10  H   UNL     1     -15.450 -17.463  -1.921  0.00  0.00    +0.000 HD
ENDBRANCH   6   9
TORSDOF 2
ENDMDL
MODEL 5
REMARK VINA RESULT:    -3.411      1.803      3.184
REMARK INTER + INTRA:          -3.753
REMARK INTER:                  -3.715
REMARK INTRA:                  -0.038
REMARK UNBOUND:                -0.042
REMARK  Name = 
REMARK  3 active torsions:
REMARK  status: ('A' for Active; 'I' for Inactive)
REMARK    1  A    between atoms: C_1  and  O_2
REMARK    2  A    between atoms: O_2  and  C_3
REMARK    3  A    between atoms: C_8  and  O_9
REMARK                            x       y       z     vdW  Elec       q    Type
REMARK                         _______ _______ _______ _____ _____    ______ ____
ROOT
ATOM      1  C   UNL     1     -17.515 -18.254  -0.940  0.00  0.00    +0.000 A 
ATOM      2  C   UNL     1     -18.255 -19.179  -1.675  0.00  0.00    +0.000 A 
ATOM      3  C   UNL     1     -17.892 -19.477  -2.994  0.00  0.00    +0.000 A 
ATOM      4  C   UNL     1     -16.791 -18.852  -3.583  0.00  0.00    +0.000 A 
ATOM      5  C   UNL     1     -16.045 -17.927  -2.855  0.00  0.00    +0.000 A 
ATOM      6  C   UNL     1     -16.413 -17.638  -1.547  0.00  0.00    +0.000 A 
ENDROOT
BRANCH   1   8
ATOM      7  C   UNL     1     -18.702 -18.641   1.082  0.00  0.00    +0.000 C 
ATOM      8  O   UNL     1     -17.755 -17.868   0.354  0.00  0.00    +0.000 OA
ENDBRANCH   1   8
BRANCH   6   9
ATOM      9  O   UNL     1     -15.666 -16.726  -0.852  0.00  0.00    +0.000 OA
ATOM     10  H   UNL     1     -14.740 -16.997  -1.001  0.00  0.00    +0.000 HD
ENDBRANCH   6   9
TORSDOF 2
ENDMDL
MODEL 6
REMARK VINA RESULT:    -3.265      1.633      2.490
REMARK INTER + INTRA:          -3.594
REMARK INTER:                  -3.555
REMARK INTRA:                  -0.039
REMARK UNBOUND:                -0.042
REMARK  Name = 
REMARK  3 active torsions:
REMARK  status: ('A' for Active; 'I' for Inactive)
REMARK    1  A    between atoms: C_1  and  O_2
REMARK    2  A    between atoms: O_2  and  C_3
REMARK    3  A    between atoms: C_8  and  O_9
REMARK                            x       y       z     vdW  Elec       q    Type
REMARK                         _______ _______ _______ _____ _____    ______ ____
ROOT
ATOM      1  C   UNL     1     -17.429 -18.275  -1.379  0.00  0.00    +0.000 A 
ATOM      2  C   UNL     1     -18.268 -19.032  -2.197  0.00  0.00    +0.000 A 
ATOM      3  C   UNL     1     -19.309 -19.778  -1.630  0.00  0.00    +0.000 A 
ATOM      4  C   UNL     1     -19.515 -19.771  -0.250  0.00  0.00    +0.000 A 
ATOM      5  C   UNL     1     -18.682 -19.017   0.573  0.00  0.00    +0.000 A 
ATOM      6  C   UNL     1     -17.651 -18.281   0.003  0.00  0.00    +0.000 A 
ENDROOT
BRANCH   1   8
ATOM      7  C   UNL     1     -15.841 -17.793  -3.080  0.00  0.00    +0.000 C 
ATOM      8  O   UNL     1     -16.375 -17.502  -1.794  0.00  0.00    +0.000 OA
ENDBRANCH   1   8
BRANCH   6   9
ATOM      9  O   UNL     1     -16.845 -17.548   0.832  0.00  0.00    +0.000 OA
ATOM     10  H   UNL     1     -16.594 -18.166   1.545  0.00  0.00    +0.000 HD
ENDBRANCH   6   9
TORSDOF 2
ENDMDL
MODEL 7
REMARK VINA RESULT:    -2.986      1.751      4.522
REMARK INTER + INTRA:          -3.290
REMARK INTER:                  -3.246
REMARK INTRA:                  -0.043
REMARK UNBOUND:                -0.042
REMARK  Name = 
REMARK  3 active torsions:
REMARK  status: ('A' for Active; 'I' for Inactive)
REMARK    1  A    between atoms: C_1  and  O_2
REMARK    2  A    between atoms: O_2  and  C_3
REMARK    3  A    between atoms: C_8  and  O_9
REMARK                            x       y       z     vdW  Elec       q    Type
REMARK                         _______ _______ _______ _____ _____    ______ ____
ROOT
ATOM      1  C   UNL     1     -16.775 -19.265  -3.862  0.00  0.00    +0.000 A 
ATOM      2  C   UNL     1     -15.761 -18.610  -4.558  0.00  0.00    +0.000 A 
ATOM      3  C   UNL     1     -15.073 -19.274  -5.582  0.00  0.00    +0.000 A 
ATOM      4  C   UNL     1     -15.395 -20.592  -5.911  0.00  0.00    +0.000 A 
ATOM      5  C   UNL     1     -16.407 -21.253  -5.220  0.00  0.00    +0.000 A 
ATOM      6  C   UNL     1     -17.084 -20.587  -4.206  0.00  0.00    +0.000 A 
ENDROOT
BRANCH   1   8
ATOM      7  C   UNL     1     -16.852 -17.882  -1.931  0.00  0.00    +0.000 C 
ATOM      8  O   UNL     1     -17.528 -18.741  -2.842  0.00  0.00    +0.000 OA
ENDBRANCH   1   8
BRANCH   6   9
ATOM      9  O   UNL     1     -18.075 -21.257  -3.541  0.00  0.00    +0.000 OA
ATOM     10  H   UNL     1     -18.854 -21.193  -4.126  0.00  0.00    +0.000 HD
ENDBRANCH   6   9
TORSDOF 2
ENDMDL
MODEL 8
REMARK VINA RESULT:    -2.906     18.288     19.023
REMARK INTER + INTRA:          -3.203
REMARK INTER:                  -3.166
REMARK INTRA:                  -0.038
REMARK UNBOUND:                -0.042
REMARK  Name = 
REMARK  3 active torsions:
REMARK  status: ('A' for Active; 'I' for Inactive)
REMARK    1  A    between atoms: C_1  and  O_2
REMARK    2  A    between atoms: O_2  and  C_3
REMARK    3  A    between atoms: C_8  and  O_9
REMARK                            x       y       z     vdW  Elec       q    Type
REMARK                         _______ _______ _______ _____ _____    ______ ____
ROOT
ATOM      1  C   UNL     1      -0.770 -16.777   6.732  0.00  0.00    +0.000 A 
ATOM      2  C   UNL     1       0.029 -15.634   6.757  0.00  0.00    +0.000 A 
ATOM      3  C   UNL     1       0.043 -14.815   7.893  0.00  0.00    +0.000 A 
ATOM      4  C   UNL     1      -0.739 -15.134   9.005  0.00  0.00    +0.000 A 
ATOM      5  C   UNL     1      -1.540 -16.273   8.988  0.00  0.00    +0.000 A 
ATOM      6  C   UNL     1      -1.548 -17.080   7.857  0.00  0.00    +0.000 A 
ENDROOT
BRANCH   1   8
ATOM      7  C   UNL     1      -0.246 -17.300   4.474  0.00  0.00    +0.000 C 
ATOM      8  O   UNL     1      -0.883 -17.665   5.693  0.00  0.00    +0.000 OA
ENDBRANCH   1   8
BRANCH   6   9
ATOM      9  O   UNL     1      -2.343 -18.195   7.863  0.00  0.00    +0.000 OA
ATOM     10  H   UNL     1      -1.875 -18.830   8.439  0.00  0.00    +0.000 HD
ENDBRANCH   6   9
TORSDOF 2
ENDMDL
MODEL 9
REMARK VINA RESULT:    -2.890     16.627     17.474
REMARK INTER + INTRA:          -3.185
REMARK INTER:                  -3.134
REMARK INTRA:                  -0.051
REMARK UNBOUND:                -0.042
REMARK  Name = 
REMARK  3 active torsions:
REMARK  status: ('A' for Active; 'I' for Inactive)
REMARK    1  A    between atoms: C_1  and  O_2
REMARK    2  A    between atoms: O_2  and  C_3
REMARK    3  A    between atoms: C_8  and  O_9
REMARK                            x       y       z     vdW  Elec       q    Type
REMARK                         _______ _______ _______ _____ _____    ______ ____
ROOT
ATOM      1  C   UNL     1      -1.420 -18.514   5.091  0.00  0.00    +0.000 A 
ATOM      2  C   UNL     1      -1.758 -19.292   6.197  0.00  0.00    +0.000 A 
ATOM      3  C   UNL     1      -1.712 -18.738   7.483  0.00  0.00    +0.000 A 
ATOM      4  C   UNL     1      -1.327 -17.409   7.667  0.00  0.00    +0.000 A 
ATOM      5  C   UNL     1      -0.988 -16.625   6.566  0.00  0.00    +0.000 A 
ATOM      6  C   UNL     1      -1.037 -17.183   5.295  0.00  0.00    +0.000 A 
ENDROOT
BRANCH   1   8
ATOM      7  C   UNL     1      -2.692 -19.157   3.189  0.00  0.00    +0.000 C 
ATOM      8  O   UNL     1      -1.420 -18.923   3.781  0.00  0.00    +0.000 OA
ENDBRANCH   1   8
BRANCH   6   9
ATOM      9  O   UNL     1      -0.699 -16.392   4.229  0.00  0.00    +0.000 OA
ATOM     10  H   UNL     1      -1.328 -15.646   4.264  0.00  0.00    +0.000 HD
ENDBRANCH   6   9
TORSDOF 2
ENDMDL
