MODEL 1
REMARK VINA RESULT:    -4.311      0.000      0.000
REMARK INTER + INTRA:          -6.286
REMARK INTER:                  -5.823
REMARK INTRA:                  -0.463
REMARK UNBOUND:                -0.463
REMARK  Name = 
REMARK  10 active torsions:
REMARK  status: ('A' for Active; 'I' for Inactive)
REMARK    1  A    between atoms: C_1  and  C_2
REMARK    2  A    between atoms: C_5  and  N_8
REMARK    3  A    between atoms: N_8  and  C_9
REMARK    4  A    between atoms: N_8  and  C_13
REMARK    5  A    between atoms: C_9  and  C_10
REMARK    6  A    between atoms: C_10  and  C_11
REMARK    7  A    between atoms: C_10  and  O_12
REMARK    8  A    between atoms: C_13  and  C_14
REMARK    9  A    between atoms: C_14  and  C_15
REMARK   10  A    between atoms: C_14  and  O_16
REMARK                            x       y       z     vdW  Elec       q    Type
REMARK                         _______ _______ _______ _____ _____    ______ ____
ROOT
ATOM      1  N   UNL     1     -18.078 -19.128  -2.203  0.00  0.00    +0.000 N 
ENDROOT
BRANCH   1   6
ATOM      2  C   UNL     1     -14.967 -20.812  -6.766  0.00  0.00    +0.000 C 
ATOM      3  C   UNL     1     -15.793 -20.369  -5.597  0.00  0.00    +0.000 A 
ATOM      4  C   UNL     1     -15.696 -19.071  -5.105  0.00  0.00    +0.000 A 
ATOM      5  C   UNL     1     -16.450 -18.670  -3.991  0.00  0.00    +0.000 A 
ATOM      6  C   UNL     1     -17.314 -19.541  -3.302  0.00  0.00    +0.000 A 
ATOM      7  C   UNL     1     -17.388 -20.843  -3.828  0.00  0.00    +0.000 A 
ATOM      8  C   UNL     1     -16.641 -21.257  -4.943  0.00  0.00    +0.000 A 
ENDBRANCH   1   6
BRANCH   1   9
ATOM      9  C   UNL     1     -18.947 -17.932  -2.309  0.00  0.00    +0.000 C 
BRANCH   9  10
ATOM     10  C   UNL     1     -19.934 -18.011  -3.500  0.00  0.00    +0.000 C 
ATOM     11  C   UNL     1     -21.075 -18.975  -3.200  0.00  0.00    +0.000 C 
BRANCH  10  12
ATOM     12  O   UNL     1     -20.502 -16.725  -3.785  0.00  0.00    +0.000 OA
ATOM     13  H   UNL     1     -21.440 -16.851  -4.001  0.00  0.00    +0.000 HD
ENDBRANCH  10  12
ENDBRANCH   9  10
ENDBRANCH   1   9
BRANCH   1  14
ATOM     14  C   UNL     1     -17.694 -19.500  -0.817  0.00  0.00    +0.000 C 
BRANCH  14  15
ATOM     15  C   UNL     1     -18.085 -18.409   0.210  0.00  0.00    +0.000 C 
ATOM     16  C   UNL     1     -18.937 -18.942   1.355  0.00  0.00    +0.000 C 
BRANCH  15  17
ATOM     17  O   UNL     1     -16.935 -17.778   0.771  0.00  0.00    +0.000 OA
ATOM     18  H   UNL     1     -17.228 -16.872   0.995  0.00  0.00    +0.000 HD
ENDBRANCH  15  17
ENDBRANCH  14  15
ENDBRANCH   1  14
TORSDOF 7
ENDMDL
MODEL 2
REMARK VINA RESULT:    -4.260      0.586      3.405
REMARK INTER + INTRA:          -6.217
REMARK INTER:                  -5.809
REMARK INTRA:                  -0.408
REMARK UNBOUND:                -0.463
REMARK  Name = 
REMARK  10 active torsions:
REMARK  status: ('A' for Active; 'I' for Inactive)
REMARK    1  A    between atoms: C_1  and  C_2
REMARK    2  A    between atoms: C_5  and  N_8
REMARK    3  A    between atoms: N_8  and  C_9
REMARK    4  A    between atoms: N_8  and  C_13
REMARK    5  A    between atoms: C_9  and  C_10
REMARK    6  A    between atoms: C_10  and  C_11
REMARK    7  A    between atoms: C_10  and  O_12
REMARK    8  A    between atoms: C_13  and  C_14
REMARK    9  A    between atoms: C_14  and  C_15
REMARK   10  A    between atoms: C_14  and  O_16
REMARK                            x       y       z     vdW  Elec       q    Type
REMARK                         _______ _______ _______ _____ _____    ______ ____
ROOT
ATOM      1  N   UNL     1     -17.810 -18.741  -2.374  0.00  0.00    +0.000 N 
ENDROOT
BRANCH   1   6
ATOM      2  C   UNL     1     -15.075 -21.131  -6.862  0.00  0.00    +0.000 C 
ATOM      3  C   UNL     1     -15.765 -20.517  -5.683  0.00  0.00    +0.000 A 
ATOM      4  C   UNL     1     -16.655 -21.257  -4.911  0.00  0.00    +0.000 A 
ATOM      5  C   UNL     1     -17.322 -20.668  -3.825  0.00  0.00    +0.000 A 
ATOM      6  C   UNL     1     -17.156 -19.317  -3.471  0.00  0.00    +0.000 A 
ATOM      7  C   UNL     1     -16.248 -18.600  -4.272  0.00  0.00    +0.000 A 
ATOM      8  C   UNL     1     -15.572 -19.177  -5.359  0.00  0.00    +0.000 A 
ENDBRANCH   1   6
BRANCH   1   9
ATOM      9  C   UNL     1     -17.568 -19.262  -1.007  0.00  0.00    +0.000 C 
BRANCH   9  10
ATOM     10  C   UNL     1     -17.982 -18.260   0.098  0.00  0.00    +0.000 C 
ATOM     11  C   UNL     1     -18.870 -18.933   1.139  0.00  0.00    +0.000 C 
BRANCH  10  12
ATOM     12  O   UNL     1     -16.831 -17.732   0.771  0.00  0.00    +0.000 OA
ATOM     13  H   UNL     1     -16.832 -16.767   0.657  0.00  0.00    +0.000 HD
ENDBRANCH  10  12
ENDBRANCH   9  10
ENDBRANCH   1   9
BRANCH   1  14
ATOM     14  C   UNL     1     -19.084 -17.998  -2.543  0.00  0.00    +0.000 C 
BRANCH  14  15
ATOM     15  C   UNL     1     -20.168 -18.848  -3.248  0.00  0.00    +0.000 C 
ATOM     16  C   UNL     1     -20.902 -19.790  -2.301  0.00  0.00    +0.000 C 
BRANCH  15  17
ATOM     17  O   UNL     1     -21.140 -18.030  -3.899  0.00  0.00    +0.000 OA
ATOM     18  H   UNL     1     -21.933 -18.597  -3.980  0.00  0.00    +0.000 HD
ENDBRANCH  15  17
ENDBRANCH  14  15
ENDBRANCH   1  14
TORSDOF 7
ENDMDL
MODEL 3
REMARK VINA RESULT:    -4.115     16.571     17.717
REMARK INTER + INTRA:          -6.021
REMARK INTER:                  -5.395
REMARK INTRA:                  -0.626
REMARK UNBOUND:                -0.463
REMARK  Name = 
REMARK  10 active torsions:
REMARK  status: ('A' for Active; 'I' for Inactive)
REMARK    1  A    between atoms: C_1  and  C_2
REMARK    2  A    between atoms: C_5  and  N_8
REMARK    3  A    between atoms: N_8  and  C_9
REMARK    4  A    between atoms: N_8  and  C_13
REMARK    5  A    between atoms: C_9  and  C_10
REMARK    6  A    between atoms: C_10  and  C_11
REMARK    7  A    between atoms: C_10  and  O_12
REMARK    8  A    between atoms: C_13  and  C_14
REMARK    9  A    between atoms: C_14  and  C_15
REMARK   10  A    between atoms: C_14  and  O_16
REMARK                            x       y       z     vdW  Elec       q    Type
REMARK                         _______ _______ _______ _____ _____    ______ ____
ROOT
ATOM      1  N   UNL     1      -0.590 -18.880   3.469  0.00  0.00    +0.000 N 
ENDROOT
BRANCH   1   6
ATOM      2  C   UNL     1      -0.215 -20.486  -2.063  0.00  0.00    +0.000 C 
ATOM      3  C   UNL     1      -0.289 -20.058  -0.630  0.00  0.00    +0.000 A 
ATOM      4  C   UNL     1       0.167 -20.889   0.389  0.00  0.00    +0.000 A 
ATOM      5  C   UNL     1       0.066 -20.495   1.733  0.00  0.00    +0.000 A 
ATOM      6  C   UNL     1      -0.510 -19.274   2.128  0.00  0.00    +0.000 A 
ATOM      7  C   UNL     1      -0.959 -18.459   1.072  0.00  0.00    +0.000 A 
ATOM      8  C   UNL     1      -0.863 -18.840  -0.277  0.00  0.00    +0.000 A 
ENDBRANCH   1   6
BRANCH   1   9
ATOM      9  C   UNL     1      -1.532 -19.559   4.390  0.00  0.00    +0.000 C 
BRANCH   9  10
ATOM     10  C   UNL     1      -2.949 -19.722   3.785  0.00  0.00    +0.000 C 
ATOM     11  C   UNL     1      -3.831 -20.576   4.688  0.00  0.00    +0.000 C 
BRANCH  10  12
ATOM     12  O   UNL     1      -3.586 -18.448   3.617  0.00  0.00    +0.000 OA
ATOM     13  H   UNL     1      -2.895 -17.785   3.456  0.00  0.00    +0.000 HD
ENDBRANCH  10  12
ENDBRANCH   9  10
ENDBRANCH   1   9
BRANCH   1  14
ATOM     14  C   UNL     1      -0.171 -17.520   3.896  0.00  0.00    +0.000 C 
BRANCH  14  15
ATOM     15  C   UNL     1      -0.808 -17.109   5.245  0.00  0.00    +0.000 C 
ATOM     16  C   UNL     1       0.133 -16.304   6.133  0.00  0.00    +0.000 C 
BRANCH  15  17
ATOM     17  O   UNL     1      -1.998 -16.345   5.055  0.00  0.00    +0.000 OA
ATOM     18  H   UNL     1      -2.723 -16.922   5.369  0.00  0.00    +0.000 HD
ENDBRANCH  15  17
ENDBRANCH  14  15
ENDBRANCH   1  14
TORSDOF 7
ENDMDL
MODEL 4
REMARK VINA RESULT:    -4.053     16.467     17.699
REMARK INTER + INTRA:          -5.937
REMARK INTER:                  -5.257
REMARK INTRA:                  -0.679
REMARK UNBOUND:                -0.463
REMARK  Name = 
REMARK  10 active torsions:
REMARK  status: ('A' for Active; 'I' for Inactive)
REMARK    1  A    between atoms: C_1  and  C_2
REMARK    2  A    between atoms: C_5  and  N_8
REMARK    3  A    between atoms: N_8  and  C_9
REMARK    4  A    between atoms: N_8  and  C_13
REMARK    5  A    between atoms: C_9  and  C_10
REMARK    6  A    between atoms: C_10  and  C_11
REMARK    7  A    between atoms: C_10  and  O_12
REMARK    8  A    between atoms: C_13  and  C_14
REMARK    9  A    between atoms: C_14  and  C_15
REMARK   10  A    between atoms: C_14  and  O_16
REMARK                            x       y       z     vdW  Elec       q    Type
REMARK                         _______ _______ _______ _____ _____    ______ ____
ROOT
ATOM      1  N   UNL     1      -0.989 -18.884   3.252  0.00  0.00    +0.000 N 
ENDROOT
BRANCH   1   6
ATOM      2  C   UNL     1       0.042 -20.617  -2.158  0.00  0.00    +0.000 C 
ATOM      3  C   UNL     1      -0.246 -20.181  -0.754  0.00  0.00    +0.000 A 
ATOM      4  C   UNL     1      -0.975 -19.024  -0.500  0.00  0.00    +0.000 A 
ATOM      5  C   UNL     1      -1.216 -18.604   0.818  0.00  0.00    +0.000 A 
ATOM      6  C   UNL     1      -0.727 -19.298   1.939  0.00  0.00    +0.000 A 
ATOM      7  C   UNL     1       0.003 -20.464   1.646  0.00  0.00    +0.000 A 
ATOM      8  C   UNL     1       0.250 -20.896   0.332  0.00  0.00    +0.000 A 
ENDBRANCH   1   6
BRANCH   1   9
ATOM      9  C   UNL     1      -0.215 -17.768   3.847  0.00  0.00    +0.000 C 
BRANCH   9  10
ATOM     10  C   UNL     1      -0.838 -17.241   5.163  0.00  0.00    +0.000 C 
ATOM     11  C   UNL     1       0.137 -16.332   5.902  0.00  0.00    +0.000 C 
BRANCH  10  12
ATOM     12  O   UNL     1      -2.034 -16.493   4.903  0.00  0.00    +0.000 OA
ATOM     13  H   UNL     1      -2.782 -17.113   4.898  0.00  0.00    +0.000 HD
ENDBRANCH  10  12
ENDBRANCH   9  10
ENDBRANCH   1   9
BRANCH   1  14
ATOM     14  C   UNL     1      -1.621 -19.800   4.235  0.00  0.00    +0.000 C 
BRANCH  14  15
ATOM     15  C   UNL     1      -3.138 -19.972   3.983  0.00  0.00    +0.000 C 
ATOM     16  C   UNL     1      -3.867 -20.640   5.142  0.00  0.00    +0.000 C 
BRANCH  15  17
ATOM     17  O   UNL     1      -3.774 -18.722   3.722  0.00  0.00    +0.000 OA
ATOM     18  H   UNL     1      -3.270 -18.068   4.247  0.00  0.00    +0.000 HD
ENDBRANCH  15  17
ENDBRANCH  14  15
ENDBRANCH   1  14
TORSDOF 7
ENDMDL
MODEL 5
REMARK VINA RESULT:    -3.869     17.112     18.678
REMARK INTER + INTRA:          -5.689
REMARK INTER:                  -5.442
REMARK INTRA:                  -0.247
REMARK UNBOUND:                -0.463
REMARK  Name = 
REMARK  10 active torsions:
REMARK  status: ('A' for Active; 'I' for Inactive)
REMARK    1  A    between atoms: C_1  and  C_2
REMARK    2  A    between atoms: C_5  and  N_8
REMARK    3  A    between atoms: N_8  and  C_9
REMARK    4  A    between atoms: N_8  and  C_13
REMARK    5  A    between atoms: C_9  and  C_10
REMARK    6  A    between atoms: C_10  and  C_11
REMARK    7  A    between atoms: C_10  and  O_12
REMARK    8  A    between atoms: C_13  and  C_14
REMARK    9  A    between atoms: C_14  and  C_15
REMARK   10  A    between atoms: C_14  and  O_16
REMARK                            x       y       z     vdW  Elec       q    Type
REMARK                         _______ _______ _______ _____ _____    ______ ____
ROOT
ATOM      1  N   UNL     1      -0.970 -18.906   3.858  0.00  0.00    +0.000 N 
ENDROOT
BRANCH   1   6
ATOM      2  C   UNL     1      -1.390 -16.375   9.029  0.00  0.00    +0.000 C 
ATOM      3  C   UNL     1      -1.257 -17.037   7.692  0.00  0.00    +0.000 A 
ATOM      4  C   UNL     1      -0.924 -16.300   6.561  0.00  0.00    +0.000 A 
ATOM      5  C   UNL     1      -0.830 -16.920   5.304  0.00  0.00    +0.000 A 
ATOM      6  C   UNL     1      -1.084 -18.290   5.110  0.00  0.00    +0.000 A 
ATOM      7  C   UNL     1      -1.417 -19.004   6.276  0.00  0.00    +0.000 A 
ATOM      8  C   UNL     1      -1.512 -18.397   7.539  0.00  0.00    +0.000 A 
ENDBRANCH   1   6
BRANCH   1   9
ATOM      9  C   UNL     1      -1.965 -19.920   3.434  0.00  0.00    +0.000 C 
BRANCH   9  10
ATOM     10  C   UNL     1      -3.378 -19.323   3.223  0.00  0.00    +0.000 C 
ATOM     11  C   UNL     1      -3.955 -19.751   1.879  0.00  0.00    +0.000 C 
BRANCH  10  12
ATOM     12  O   UNL     1      -4.279 -19.757   4.251  0.00  0.00    +0.000 OA
ATOM     13  H   UNL     1      -5.154 -19.889   3.849  0.00  0.00    +0.000 HD
ENDBRANCH  10  12
ENDBRANCH   9  10
ENDBRANCH   1   9
BRANCH   1  14
ATOM     14  C   UNL     1       0.336 -18.981   3.154  0.00  0.00    +0.000 C 
BRANCH  14  15
ATOM     15  C   UNL     1       0.363 -18.108   1.877  0.00  0.00    +0.000 C 
ATOM     16  C   UNL     1      -0.548 -18.631   0.773  0.00  0.00    +0.000 C 
BRANCH  15  17
ATOM     17  O   UNL     1      -0.008 -16.758   2.153  0.00  0.00    +0.000 OA
ATOM     18  H   UNL     1       0.407 -16.231   1.440  0.00  0.00    +0.000 HD
ENDBRANCH  15  17
ENDBRANCH  14  15
ENDBRANCH   1  14
TORSDOF 7
ENDMDL
MODEL 6
REMARK VINA RESULT:    -3.692     16.269     17.473
REMARK INTER + INTRA:          -5.450
REMARK INTER:                  -4.926
REMARK INTRA:                  -0.524
REMARK UNBOUND:                -0.463
REMARK  Name = 
REMARK  10 active torsions:
REMARK  status: ('A' for Active; 'I' for Inactive)
REMARK    1  A    between atoms: C_1  and  C_2
REMARK    2  A    between atoms: C_5  and  N_8
REMARK    3  A    between atoms: N_8  and  C_9
REMARK    4  A    between atoms: N_8  and  C_13
REMARK    5  A    between atoms: C_9  and  C_10
REMARK    6  A    between atoms: C_10  and  C_11
REMARK    7  A    between atoms: C_10  and  O_12
REMARK    8  A    between atoms: C_13  and  C_14
REMARK    9  A    between atoms: C_14  and  C_15
REMARK   10  A    between atoms: C_14  and  O_16
REMARK                            x       y       z     vdW  Elec       q    Type
REMARK                         _______ _______ _______ _____ _____    ______ ____
ROOT
ATOM      1  N   UNL     1      -1.837 -19.468   5.098  0.00  0.00    +0.000 N 
ENDROOT
BRANCH   1   6
ATOM      2  C   UNL     1      -2.663 -19.034  -0.599  0.00  0.00    +0.000 C 
ATOM      3  C   UNL     1      -2.455 -19.122   0.882  0.00  0.00    +0.000 A 
ATOM      4  C   UNL     1      -1.206 -18.880   1.444  0.00  0.00    +0.000 A 
ATOM      5  C   UNL     1      -1.010 -18.994   2.830  0.00  0.00    +0.000 A 
ATOM      6  C   UNL     1      -2.035 -19.375   3.715  0.00  0.00    +0.000 A 
ATOM      7  C   UNL     1      -3.284 -19.610   3.112  0.00  0.00    +0.000 A 
ATOM      8  C   UNL     1      -3.494 -19.498   1.728  0.00  0.00    +0.000 A 
ENDBRANCH   1   6
BRANCH   1   9
ATOM      9  C   UNL     1      -0.802 -18.636   5.759  0.00  0.00    +0.000 C 
BRANCH   9  10
ATOM     10  C   UNL     1      -1.310 -17.218   6.116  0.00  0.00    +0.000 C 
ATOM     11  C   UNL     1      -1.044 -16.897   7.582  0.00  0.00    +0.000 C 
BRANCH  10  12
ATOM     12  O   UNL     1      -0.657 -16.221   5.318  0.00  0.00    +0.000 OA
ATOM     13  H   UNL     1      -1.341 -15.707   4.858  0.00  0.00    +0.000 HD
ENDBRANCH  10  12
ENDBRANCH   9  10
ENDBRANCH   1   9
BRANCH   1  14
ATOM     14  C   UNL     1      -2.235 -20.684   5.852  0.00  0.00    +0.000 C 
BRANCH  14  15
ATOM     15  C   UNL     1      -3.448 -20.427   6.778  0.00  0.00    +0.000 C 
ATOM     16  C   UNL     1      -4.716 -21.134   6.314  0.00  0.00    +0.000 C 
BRANCH  15  17
ATOM     17  O   UNL     1      -3.182 -20.832   8.120  0.00  0.00    +0.000 OA
ATOM     18  H   UNL     1      -2.770 -20.051   8.543  0.00  0.00    +0.000 HD
ENDBRANCH  15  17
ENDBRANCH  14  15
ENDBRANCH   1  14
TORSDOF 7
ENDMDL
MODEL 7
REMARK VINA RESULT:    -3.676      1.656      3.399
REMARK INTER + INTRA:          -5.428
REMARK INTER:                  -4.992
REMARK INTRA:                  -0.436
REMARK UNBOUND:                -0.463
REMARK  Name = 
REMARK  10 active torsions:
REMARK  status: ('A' for Active; 'I' for Inactive)
REMARK    1  A    between atoms: C_1  and  C_2
REMARK    2  A    between atoms: C_5  and  N_8
REMARK    3  A    between atoms: N_8  and  C_9
REMARK    4  A    between atoms: N_8  and  C_13
REMARK    5  A    between atoms: C_9  and  C_10
REMARK    6  A    between atoms: C_10  and  C_11
REMARK    7  A    between atoms: C_10  and  O_12
REMARK    8  A    between atoms: C_13  and  C_14
REMARK    9  A    between atoms: C_14  and  C_15
REMARK   10  A    between atoms: C_14  and  O_16
REMARK                            x       y       z     vdW  Elec       q    Type
REMARK                         _______ _______ _______ _____ _____    ______ ____
ROOT
ATOM      1  N   UNL     1     -18.486 -20.139  -1.461  0.00  0.00    +0.000 N 
ENDROOT
BRANCH   1   6
ATOM      2  C   UNL     1     -14.882 -18.151  -5.509  0.00  0.00    +0.000 C 
ATOM      3  C   UNL     1     -15.836 -18.655  -4.469  0.00  0.00    +0.000 A 
ATOM      4  C   UNL     1     -16.023 -17.963  -3.277  0.00  0.00    +0.000 A 
ATOM      5  C   UNL     1     -16.896 -18.456  -2.293  0.00  0.00    +0.000 A 
ATOM      6  C   UNL     1     -17.602 -19.664  -2.438  0.00  0.00    +0.000 A 
ATOM      7  C   UNL     1     -17.390 -20.335  -3.656  0.00  0.00    +0.000 A 
ATOM      8  C   UNL     1     -16.521 -19.853  -4.649  0.00  0.00    +0.000 A 
ENDBRANCH   1   6
BRANCH   1   9
ATOM      9  C   UNL     1     -18.118 -20.065  -0.026  0.00  0.00    +0.000 C 
BRANCH   9  10
ATOM     10  C   UNL     1     -18.688 -18.809   0.676  0.00  0.00    +0.000 C 
ATOM     11  C   UNL     1     -19.520 -19.195   1.893  0.00  0.00    +0.000 C 
BRANCH  10  12
ATOM     12  O   UNL     1     -17.634 -17.942   1.115  0.00  0.00    +0.000 OA
ATOM     13  H   UNL     1     -17.279 -17.480   0.337  0.00  0.00    +0.000 HD
ENDBRANCH  10  12
ENDBRANCH   9  10
ENDBRANCH   1   9
BRANCH   1  14
ATOM     14  C   UNL     1     -19.522 -21.152  -1.788  0.00  0.00    +0.000 C 
BRANCH  14  15
ATOM     15  C   UNL     1     -20.912 -20.512  -2.018  0.00  0.00    +0.000 C 
ATOM     16  C   UNL     1     -21.757 -20.443  -0.752  0.00  0.00    +0.000 C 
BRANCH  15  17
ATOM     17  O   UNL     1     -20.804 -19.193  -2.550  0.00  0.00    +0.000 OA
ATOM     18  H   UNL     1     -19.889 -19.132  -2.890  0.00  0.00    +0.000 HD
ENDBRANCH  15  17
ENDBRANCH  14  15
ENDBRANCH   1  14
TORSDOF 7
ENDMDL
MODEL 8
REMARK VINA RESULT:    -3.664     17.081     18.643
REMARK INTER + INTRA:          -5.412
REMARK INTER:                  -4.907
REMARK INTRA:                  -0.504
REMARK UNBOUND:                -0.463
REMARK  Name = 
REMARK  10 active torsions:
REMARK  status: ('A' for Active; 'I' for Inactive)
REMARK    1  A    between atoms: C_1  and  C_2
REMARK    2  A    between atoms: C_5  and  N_8
REMARK    3  A    between atoms: N_8  and  C_9
REMARK    4  A    between atoms: N_8  and  C_13
REMARK    5  A    between atoms: C_9  and  C_10
REMARK    6  A    between atoms: C_10  and  C_11
REMARK    7  A    between atoms: C_10  and  O_12
REMARK    8  A    between atoms: C_13  and  C_14
REMARK    9  A    between atoms: C_14  and  C_15
REMARK   10  A    between atoms: C_14  and  O_16
REMARK                            x       y       z     vdW  Elec       q    Type
REMARK                         _______ _______ _______ _____ _____    ______ ____
ROOT
ATOM      1  N   UNL     1      -0.923 -19.467   3.995  0.00  0.00    +0.000 N 
ENDROOT
BRANCH   1   6
ATOM      2  C   UNL     1      -1.513 -16.204   8.720  0.00  0.00    +0.000 C 
ATOM      3  C   UNL     1      -1.336 -17.054   7.499  0.00  0.00    +0.000 A 
ATOM      4  C   UNL     1      -1.018 -16.483   6.272  0.00  0.00    +0.000 A 
ATOM      5  C   UNL     1      -0.882 -17.282   5.124  0.00  0.00    +0.000 A 
ATOM      6  C   UNL     1      -1.079 -18.674   5.139  0.00  0.00    +0.000 A 
ATOM      7  C   UNL     1      -1.398 -19.217   6.397  0.00  0.00    +0.000 A 
ATOM      8  C   UNL     1      -1.534 -18.430   7.552  0.00  0.00    +0.000 A 
ENDBRANCH   1   6
BRANCH   1   9
ATOM      9  C   UNL     1       0.166 -19.176   3.031  0.00  0.00    +0.000 C 
BRANCH   9  10
ATOM     10  C   UNL     1      -0.341 -18.473   1.748  0.00  0.00    +0.000 C 
ATOM     11  C   UNL     1       0.364 -17.137   1.544  0.00  0.00    +0.000 C 
BRANCH  10  12
ATOM     12  O   UNL     1      -0.101 -19.283   0.588  0.00  0.00    +0.000 OA
ATOM     13  H   UNL     1       0.860 -19.332   0.449  0.00  0.00    +0.000 HD
ENDBRANCH  10  12
ENDBRANCH   9  10
ENDBRANCH   1   9
BRANCH   1  14
ATOM     14  C   UNL     1      -2.060 -20.243   3.436  0.00  0.00    +0.000 C 
BRANCH  14  15
ATOM     15  C   UNL     1      -3.335 -19.380   3.279  0.00  0.00    +0.000 C 
ATOM     16  C   UNL     1      -3.938 -19.450   1.881  0.00  0.00    +0.000 C 
BRANCH  15  17
ATOM     17  O   UNL     1      -4.345 -19.756   4.214  0.00  0.00    +0.000 OA
ATOM     18  H   UNL     1      -4.087 -19.322   5.053  0.00  0.00    +0.000 HD
ENDBRANCH  15  17
ENDBRANCH  14  15
ENDBRANCH   1  14
TORSDOF 7
ENDMDL
MODEL 9
REMARK VINA RESULT:    -3.652      1.954      3.017
REMARK INTER + INTRA:          -5.395
REMARK INTER:                  -4.900
REMARK INTRA:                  -0.495
REMARK UNBOUND:                -0.463
REMARK  Name = 
REMARK  10 active torsions:
REMARK  status: ('A' for Active; 'I' for Inactive)
REMARK    1  A    between atoms: C_1  and  C_2
REMARK    2  A    between atoms: C_5  and  N_8
REMARK    3  A    between atoms: N_8  and  C_9
REMARK    4  A    between atoms: N_8  and  C_13
REMARK    5  A    between atoms: C_9  and  C_10
REMARK    6  A    between atoms: C_10  and  C_11
REMARK    7  A    between atoms: C_10  and  O_12
REMARK    8  A    between atoms: C_13  and  C_14
REMARK    9  A    between atoms: C_14  and  C_15
REMARK   10  A    between atoms: C_14  and  O_16
REMARK                            x       y       z     vdW  Elec       q    Type
REMARK                         _______ _______ _______ _____ _____    ______ ____
ROOT
ATOM      1  N   UNL     1     -18.425 -19.454  -2.123  0.00  0.00    +0.000 N 
ENDROOT
BRANCH   1   6
ATOM      2  C   UNL     1     -15.006 -20.520  -6.652  0.00  0.00    +0.000 C 
ATOM      3  C   UNL     1     -15.875 -20.249  -5.461  0.00  0.00    +0.000 A 
ATOM      4  C   UNL     1     -16.673 -21.249  -4.917  0.00  0.00    +0.000 A 
ATOM      5  C   UNL     1     -17.508 -20.982  -3.820  0.00  0.00    +0.000 A 
ATOM      6  C   UNL     1     -17.605 -19.709  -3.230  0.00  0.00    +0.000 A 
ATOM      7  C   UNL     1     -16.782 -18.723  -3.804  0.00  0.00    +0.000 A 
ATOM      8  C   UNL     1     -15.942 -18.977  -4.900  0.00  0.00    +0.000 A 
ENDBRANCH   1   6
BRANCH   1   9
ATOM      9  C   UNL     1     -18.300 -18.175  -1.384  0.00  0.00    +0.000 C 
BRANCH   9  10
ATOM     10  C   UNL     1     -17.135 -18.184  -0.363  0.00  0.00    +0.000 C 
ATOM     11  C   UNL     1     -16.072 -17.159  -0.740  0.00  0.00    +0.000 C 
BRANCH  10  12
ATOM     12  O   UNL     1     -17.604 -17.873   0.956  0.00  0.00    +0.000 OA
ATOM     13  H   UNL     1     -16.889 -18.067   1.584  0.00  0.00    +0.000 HD
ENDBRANCH  10  12
ENDBRANCH   9  10
ENDBRANCH   1   9
BRANCH   1  14
ATOM     14  C   UNL     1     -19.042 -20.564  -1.352  0.00  0.00    +0.000 C 
BRANCH  14  15
ATOM     15  C   UNL     1     -20.109 -20.057  -0.352  0.00  0.00    +0.000 C 
ATOM     16  C   UNL     1     -21.447 -20.774  -0.489  0.00  0.00    +0.000 C 
BRANCH  15  17
ATOM     17  O   UNL     1     -19.672 -20.193   0.999  0.00  0.00    +0.000 OA
ATOM     18  H   UNL     1     -18.912 -19.582   1.082  0.00  0.00    +0.000 HD
ENDBRANCH  15  17
ENDBRANCH  14  15
ENDBRANCH   1  14
TORSDOF 7
ENDMDL
