MODEL 1
REMARK VINA RESULT:    -3.620      0.000      0.000
REMARK INTER + INTRA:          -3.980
REMARK INTER:                  -3.938
REMARK INTRA:                  -0.042
REMARK UNBOUND:                -0.042
REMARK  Name = 
REMARK  3 active torsions:
REMARK  status: ('A' for Active; 'I' for Inactive)
REMARK    1  A    between atoms: C_1  and  O_2
REMARK    2  A    between atoms: O_2  and  C_3
REMARK    3  A    between atoms: C_8  and  O_9
REMARK                            x       y       z     vdW  Elec       q    Type
REMARK                         _______ _______ _______ _____ _____    ______ ____
ROOT
ATOM      1  C   UNL     1     -17.244 -18.957  -2.613  0.00  0.00    +0.000 A 
ATOM      2  C   UNL     1     -18.141 -19.702  -1.849  0.00  0.00    +0.000 A 
ATOM      3  C   UNL     1     -18.376 -19.358  -0.512  0.00  0.00    +0.000 A 
ATOM      4  C   UNL     1     -17.717 -18.272   0.066  0.00  0.00    +0.000 A 
ATOM      5  C   UNL     1     -16.818 -17.523  -0.690  0.00  0.00    +0.000 A 
ATOM      6  C   UNL     1     -16.591 -17.871  -2.016  0.00  0.00    +0.000 A 
ENDROOT
BRANCH   1   8
ATOM      7  C   UNL     1     -16.894 -20.535  -4.355  0.00  0.00    +0.000 C 
ATOM      8  O   UNL     1     -16.917 -19.179  -3.927  0.00  0.00    +0.000 OA
ENDBRANCH   1   8
BRANCH   6   9
ATOM      9  O   UNL     1     -15.704 -17.120  -2.739  0.00  0.00    +0.000 OA
ATOM     10  H   UNL     1     -16.244 -16.700  -3.435  0.00  0.00    +0.000 HD
ENDBRANCH   6   9
TORSDOF 2
ENDMDL
MODEL 2
REMARK VINA RESULT:    -3.430      2.197      3.175
REMARK INTER + INTRA:          -3.773
REMARK INTER:                  -3.720
REMARK INTRA:                  -0.052
REMARK UNBOUND:                -0.042
REMARK  Name = 
REMARK  3 active torsions:
REMARK  status: ('A' for Active; 'I' for Inactive)
REMARK    1  A    between atoms: C_1  and  O_2
REMARK    2  A    between atoms: O_2  and  C_3
REMARK    3  A    between atoms: C_8  and  O_9
REMARK                            x       y       z     vdW  Elec       q    Type
REMARK                         _______ _______ _______ _____ _____    ______ ____
ROOT
ATOM      1  C   UNL     1     -18.014 -19.104  -0.729  0.00  0.00    +0.000 A 
ATOM      2  C   UNL     1     -18.005 -19.563  -2.046  0.00  0.00    +0.000 A 
ATOM      3  C   UNL     1     -17.164 -18.961  -2.991  0.00  0.00    +0.000 A 
ATOM      4  C   UNL     1     -16.332 -17.902  -2.625  0.00  0.00    +0.000 A 
ATOM      5  C   UNL     1     -16.335 -17.438  -1.311  0.00  0.00    +0.000 A 
ATOM      6  C   UNL     1     -17.172 -18.041  -0.381  0.00  0.00    +0.000 A 
ENDROOT
BRANCH   1   8
ATOM      7  C   UNL     1     -18.471 -20.908   0.749  0.00  0.00    +0.000 C 
ATOM      8  O   UNL     1     -18.782 -19.596   0.296  0.00  0.00    +0.000 OA
ENDBRANCH   1   8
BRANCH   6   9
ATOM      9  O   UNL     1     -17.157 -17.568   0.904  0.00  0.00    +0.000 OA
ATOM     10  H   UNL     1     -16.294 -17.120   0.994  0.00  0.00    +0.000 HD
ENDBRANCH   6   9
TORSDOF 2
ENDMDL
MODEL 3
REMARK VINA RESULT:    -3.422      1.631      3.557
REMARK INTER + INTRA:          -3.764
REMARK INTER:                  -3.724
REMARK INTRA:                  -0.040
REMARK UNBOUND:                -0.042
REMARK  Name = 
REMARK  3 active torsions:
REMARK  status: ('A' for Active; 'I' for Inactive)
REMARK    1  A    between atoms: C_1  and  O_2
REMARK    2  A    between atoms: O_2  and  C_3
REMARK    3  A    between atoms: C_8  and  O_9
REMARK                            x       y       z     vdW  Elec       q    Type
REMARK                         _______ _______ _______ _____ _____    ______ ____
ROOT
ATOM      1  C   UNL     1     -16.827 -19.173  -3.336  0.00  0.00    +0.000 A 
ATOM      2  C   UNL     1     -16.985 -20.270  -4.182  0.00  0.00    +0.000 A 
ATOM      3  C   UNL     1     -16.194 -20.386  -5.332  0.00  0.00    +0.000 A 
ATOM      4  C   UNL     1     -15.245 -19.409  -5.640  0.00  0.00    +0.000 A 
ATOM      5  C   UNL     1     -15.081 -18.311  -4.800  0.00  0.00    +0.000 A 
ATOM      6  C   UNL     1     -15.870 -18.203  -3.661  0.00  0.00    +0.000 A 
ENDROOT
BRANCH   1   8
ATOM      7  C   UNL     1     -18.042 -20.068  -1.500  0.00  0.00    +0.000 C 
ATOM      8  O   UNL     1     -17.529 -18.930  -2.183  0.00  0.00    +0.000 OA
ENDBRANCH   1   8
BRANCH   6   9
ATOM      9  O   UNL     1     -15.691 -17.114  -2.851  0.00  0.00    +0.000 OA
ATOM     10  H   UNL     1     -15.899 -17.436  -1.953  0.00  0.00    +0.000 HD
ENDBRANCH   6   9
TORSDOF 2
ENDMDL
MODEL 4
REMARK VINA RESULT:    -3.337      2.582      3.780
REMARK INTER + INTRA:          -3.672
REMARK INTER:                  -3.626
REMARK INTRA:                  -0.046
REMARK UNBOUND:                -0.042
REMARK  Name = 
REMARK  3 active torsions:
REMARK  status: ('A' for Active; 'I' for Inactive)
REMARK    1  A    between atoms: C_1  and  O_2
REMARK    2  A    between atoms: O_2  and  C_3
REMARK    3  A    between atoms: C_8  and  O_9
REMARK                            x       y       z     vdW  Elec       q    Type
REMARK                         _______ _______ _______ _____ _____    ______ ____
ROOT
ATOM      1  C   UNL     1     -18.570 -19.059   0.237  0.00  0.00    +0.000 A 
ATOM      2  C   UNL     1     -19.346 -19.685  -0.737  0.00  0.00    +0.000 A 
ATOM      3  C   UNL     1     -19.106 -19.428  -2.093  0.00  0.00    +0.000 A 
ATOM      4  C   UNL     1     -18.094 -18.548  -2.479  0.00  0.00    +0.000 A 
ATOM      5  C   UNL     1     -17.314 -17.919  -1.511  0.00  0.00    +0.000 A 
ATOM      6  C   UNL     1     -17.559 -18.179  -0.169  0.00  0.00    +0.000 A 
ENDROOT
BRANCH   1   8
ATOM      7  C   UNL     1     -20.013 -19.183   2.121  0.00  0.00    +0.000 C 
ATOM      8  O   UNL     1     -18.692 -19.215   1.595  0.00  0.00    +0.000 OA
ENDBRANCH   1   8
BRANCH   6   9
ATOM      9  O   UNL     1     -16.779 -17.549   0.764  0.00  0.00    +0.000 OA
ATOM     10  H   UNL     1     -16.740 -18.171   1.516  0.00  0.00    +0.000 HD
ENDBRANCH   6   9
TORSDOF 2
ENDMDL
MODEL 5
REMARK VINA RESULT:    -3.268      1.600      2.458
REMARK INTER + INTRA:          -3.596
REMARK INTER:                  -3.557
REMARK INTRA:                  -0.039
REMARK UNBOUND:                -0.042
REMARK  Name = 
REMARK  3 active torsions:
REMARK  status: ('A' for Active; 'I' for Inactive)
REMARK    1  A    between atoms: C_1  and  O_2
REMARK    2  A    between atoms: O_2  and  C_3
REMARK    3  A    between atoms: C_8  and  O_9
REMARK                            x       y       z     vdW  Elec       q    Type
REMARK                         _______ _______ _______ _____ _____    ______ ____
ROOT
ATOM      1  C   UNL     1     -17.397 -18.276  -1.419  0.00  0.00    +0.000 A 
ATOM      2  C   UNL     1     -18.229 -19.037  -2.239  0.00  0.00    +0.000 A 
ATOM      3  C   UNL     1     -19.274 -19.783  -1.678  0.00  0.00    +0.000 A 
ATOM      4  C   UNL     1     -19.490 -19.771  -0.299  0.00  0.00    +0.000 A 
ATOM      5  C   UNL     1     -18.663 -19.013   0.527  0.00  0.00    +0.000 A 
ATOM      6  C   UNL     1     -17.629 -18.277  -0.038  0.00  0.00    +0.000 A 
ENDROOT
BRANCH   1   8
ATOM      7  C   UNL     1     -15.809 -17.788  -3.118  0.00  0.00    +0.000 C 
ATOM      8  O   UNL     1     -16.341 -17.503  -1.830  0.00  0.00    +0.000 OA
ENDBRANCH   1   8
BRANCH   6   9
ATOM      9  O   UNL     1     -16.830 -17.539   0.794  0.00  0.00    +0.000 OA
ATOM     10  H   UNL     1     -16.135 -18.160   1.085  0.00  0.00    +0.000 HD
ENDBRANCH   6   9
TORSDOF 2
ENDMDL
MODEL 6
REMARK VINA RESULT:    -2.950      1.353      2.371
REMARK INTER + INTRA:          -3.251
REMARK INTER:                  -3.213
REMARK INTRA:                  -0.038
REMARK UNBOUND:                -0.042
REMARK  Name = 
REMARK  3 active torsions:
REMARK  status: ('A' for Active; 'I' for Inactive)
REMARK    1  A    between atoms: C_1  and  O_2
REMARK    2  A    between atoms: O_2  and  C_3
REMARK    3  A    between atoms: C_8  and  O_9
REMARK                            x       y       z     vdW  Elec       q    Type
REMARK                         _______ _______ _______ _____ _____    ______ ____
ROOT
ATOM      1  C   UNL     1     -16.900 -18.813  -3.137  0.00  0.00    +0.000 A 
ATOM      2  C   UNL     1     -16.110 -17.805  -2.586  0.00  0.00    +0.000 A 
ATOM      3  C   UNL     1     -16.334 -17.381  -1.270  0.00  0.00    +0.000 A 
ATOM      4  C   UNL     1     -17.346 -17.961  -0.502  0.00  0.00    +0.000 A 
ATOM      5  C   UNL     1     -18.139 -18.969  -1.045  0.00  0.00    +0.000 A 
ATOM      6  C   UNL     1     -17.910 -19.383  -2.351  0.00  0.00    +0.000 A 
ENDROOT
BRANCH   1   8
ATOM      7  C   UNL     1     -15.648 -18.935  -5.153  0.00  0.00    +0.000 C 
ATOM      8  O   UNL     1     -16.795 -19.324  -4.406  0.00  0.00    +0.000 OA
ENDBRANCH   1   8
BRANCH   6   9
ATOM      9  O   UNL     1     -18.702 -20.375  -2.864  0.00  0.00    +0.000 OA
ATOM     10  H   UNL     1     -19.025 -20.022  -3.715  0.00  0.00    +0.000 HD
ENDBRANCH   6   9
TORSDOF 2
ENDMDL
MODEL 7
REMARK VINA RESULT:    -2.949     14.551     15.376
REMARK INTER + INTRA:          -3.250
REMARK INTER:                  -3.210
REMARK INTRA:                  -0.039
REMARK UNBOUND:                -0.042
REMARK  Name = 
REMARK  3 active torsions:
REMARK  status: ('A' for Active; 'I' for Inactive)
REMARK    1  A    between atoms: C_1  and  O_2
REMARK    2  A    between atoms: O_2  and  C_3
REMARK    3  A    between atoms: C_8  and  O_9
REMARK                            x       y       z     vdW  Elec       q    Type
REMARK                         _______ _______ _______ _____ _____    ______ ____
ROOT
ATOM      1  C   UNL     1      -2.733 -19.549   0.941  0.00  0.00    +0.000 A 
ATOM      2  C   UNL     1      -1.613 -20.176   1.486  0.00  0.00    +0.000 A 
ATOM      3  C   UNL     1      -0.425 -20.251   0.748  0.00  0.00    +0.000 A 
ATOM      4  C   UNL     1      -0.352 -19.702  -0.534  0.00  0.00    +0.000 A 
ATOM      5  C   UNL     1      -1.466 -19.074  -1.085  0.00  0.00    +0.000 A 
ATOM      6  C   UNL     1      -2.640 -19.004  -0.346  0.00  0.00    +0.000 A 
ENDROOT
BRANCH   1   8
ATOM      7  C   UNL     1      -4.264 -20.326   2.584  0.00  0.00    +0.000 C 
ATOM      8  O   UNL     1      -3.956 -19.403   1.546  0.00  0.00    +0.000 OA
ENDBRANCH   1   8
BRANCH   6   9
ATOM      9  O   UNL     1      -3.722 -18.382  -0.909  0.00  0.00    +0.000 OA
ATOM     10  H   UNL     1      -4.075 -17.808  -0.202  0.00  0.00    +0.000 HD
ENDBRANCH   6   9
TORSDOF 2
ENDMDL
MODEL 8
REMARK VINA RESULT:    -2.905     18.340     19.033
REMARK INTER + INTRA:          -3.201
REMARK INTER:                  -3.164
REMARK INTRA:                  -0.037
REMARK UNBOUND:                -0.042
REMARK  Name = 
REMARK  3 active torsions:
REMARK  status: ('A' for Active; 'I' for Inactive)
REMARK    1  A    between atoms: C_1  and  O_2
REMARK    2  A    between atoms: O_2  and  C_3
REMARK    3  A    between atoms: C_8  and  O_9
REMARK                            x       y       z     vdW  Elec       q    Type
REMARK                         _______ _______ _______ _____ _____    ______ ____
ROOT
ATOM      1  C   UNL     1      -0.781 -16.791   6.737  0.00  0.00    +0.000 A 
ATOM      2  C   UNL     1       0.012 -15.644   6.763  0.00  0.00    +0.000 A 
ATOM      3  C   UNL     1       0.039 -14.837   7.907  0.00  0.00    +0.000 A 
ATOM      4  C   UNL     1      -0.724 -15.172   9.027  0.00  0.00    +0.000 A 
ATOM      5  C   UNL     1      -1.518 -16.316   9.010  0.00  0.00    +0.000 A 
ATOM      6  C   UNL     1      -1.539 -17.110   7.870  0.00  0.00    +0.000 A 
ENDROOT
BRANCH   1   8
ATOM      7  C   UNL     1      -0.150 -17.372   4.521  0.00  0.00    +0.000 C 
ATOM      8  O   UNL     1      -0.904 -17.668   5.690  0.00  0.00    +0.000 OA
ENDBRANCH   1   8
BRANCH   6   9
ATOM      9  O   UNL     1      -2.328 -18.230   7.877  0.00  0.00    +0.000 OA
ATOM     10  H   UNL     1      -2.326 -18.540   6.952  0.00  0.00    +0.000 HD
ENDBRANCH   6   9
TORSDOF 2
ENDMDL
MODEL 9
REMARK VINA RESULT:    -2.890     16.639     17.491
REMARK INTER + INTRA:          -3.185
REMARK INTER:                  -3.137
REMARK INTRA:                  -0.048
REMARK UNBOUND:                -0.042
REMARK  Name = 
REMARK  3 active torsions:
REMARK  status: ('A' for Active; 'I' for Inactive)
REMARK    1  A    between atoms: C_1  and  O_2
REMARK    2  A    between atoms: O_2  and  C_3
REMARK    3  A    between atoms: C_8  and  O_9
REMARK                            x       y       z     vdW  Elec       q    Type
REMARK                         _______ _______ _______ _____ _____    ______ ____
ROOT
ATOM      1  C   UNL     1      -1.387 -18.518   5.114  0.00  0.00    +0.000 A 
ATOM      2  C   UNL     1      -1.729 -19.280   6.230  0.00  0.00    +0.000 A 
ATOM      3  C   UNL     1      -1.714 -18.701   7.505  0.00  0.00    +0.000 A 
ATOM      4  C   UNL     1      -1.356 -17.362   7.670  0.00  0.00    +0.000 A 
ATOM      5  C   UNL     1      -1.013 -16.593   6.560  0.00  0.00    +0.000 A 
ATOM      6  C   UNL     1      -1.031 -17.176   5.299  0.00  0.00    +0.000 A 
ENDROOT
BRANCH   1   8
ATOM      7  C   UNL     1      -2.616 -19.173   3.190  0.00  0.00    +0.000 C 
ATOM      8  O   UNL     1      -1.357 -18.951   3.813  0.00  0.00    +0.000 OA
ENDBRANCH   1   8
BRANCH   6   9
ATOM      9  O   UNL     1      -0.690 -16.400   4.224  0.00  0.00    +0.000 OA
ATOM     10  H   UNL     1      -1.484 -15.861   4.044  0.00  0.00    +0.000 HD
ENDBRANCH   6   9
TORSDOF 2
ENDMDL
