MODEL 1
REMARK VINA RESULT:    -4.906      0.000      0.000
REMARK INTER + INTRA:          -7.467
REMARK INTER:                  -6.627
REMARK INTRA:                  -0.840
REMARK UNBOUND:                -0.840
REMARK  Name = 
REMARK  10 active torsions:
REMARK  status: ('A' for Active; 'I' for Inactive)
REMARK    1  A    between atoms: C_1  and  C_2
REMARK    2  A    between atoms: C_5  and  N_8
REMARK    3  A    between atoms: N_8  and  C_9
REMARK    4  A    between atoms: N_8  and  C_13
REMARK    5  A    between atoms: C_9  and  C_10
REMARK    6  A    between atoms: C_10  and  C_11
REMARK    7  A    between atoms: C_10  and  O_12
REMARK    8  A    between atoms: C_13  and  C_14
REMARK    9  A    between atoms: C_14  and  C_15
REMARK   10  A    between atoms: C_14  and  O_16
REMARK                            x       y       z     vdW  Elec       q    Type
REMARK                         _______ _______ _______ _____ _____    ______ ____
ROOT
ATOM      1  N   UNL     1       4.414 -10.779  -3.151  0.00  0.00    +0.000 N 
ENDROOT
BRANCH   1   6
ATOM      2  C   UNL     1      10.106 -11.490  -3.796  0.00  0.00    +0.000 C 
ATOM      3  C   UNL     1       8.629 -11.326  -3.613  0.00  0.00    +0.000 A 
ATOM      4  C   UNL     1       7.729 -11.931  -4.485  0.00  0.00    +0.000 A 
ATOM      5  C   UNL     1       6.346 -11.748  -4.327  0.00  0.00    +0.000 A 
ATOM      6  C   UNL     1       5.795 -10.941  -3.315  0.00  0.00    +0.000 A 
ATOM      7  C   UNL     1       6.733 -10.347  -2.451  0.00  0.00    +0.000 A 
ATOM      8  C   UNL     1       8.119 -10.523  -2.597  0.00  0.00    +0.000 A 
ENDBRANCH   1   6
BRANCH   1   9
ATOM      9  C   UNL     1       3.633 -11.781  -2.386  0.00  0.00    +0.000 C 
BRANCH   9  10
ATOM     10  C   UNL     1       3.506 -11.423  -0.885  0.00  0.00    +0.000 C 
ATOM     11  C   UNL     1       4.541 -12.174  -0.056  0.00  0.00    +0.000 C 
BRANCH  10  12
ATOM     12  O   UNL     1       3.701 -10.018  -0.672  0.00  0.00    +0.000 OA
ATOM     13  H   UNL     1       3.515  -9.826   0.262  0.00  0.00    +0.000 HD
ENDBRANCH  10  12
ENDBRANCH   9  10
ENDBRANCH   1   9
BRANCH   1  14
ATOM     14  C   UNL     1       3.617  -9.961  -4.102  0.00  0.00    +0.000 C 
BRANCH  14  15
ATOM     15  C   UNL     1       3.913  -8.448  -3.960  0.00  0.00    +0.000 C 
ATOM     16  C   UNL     1       2.909  -7.570  -4.698  0.00  0.00    +0.000 C 
BRANCH  15  17
ATOM     17  O   UNL     1       3.935  -8.041  -2.593  0.00  0.00    +0.000 OA
ATOM     18  H   UNL     1       3.160  -8.478  -2.186  0.00  0.00    +0.000 HD
ENDBRANCH  15  17
ENDBRANCH  14  15
ENDBRANCH   1  14
TORSDOF 7
ENDMDL
MODEL 2
REMARK VINA RESULT:    -4.608      2.362      3.876
REMARK INTER + INTRA:          -7.064
REMARK INTER:                  -6.576
REMARK INTRA:                  -0.488
REMARK UNBOUND:                -0.840
REMARK  Name = 
REMARK  10 active torsions:
REMARK  status: ('A' for Active; 'I' for Inactive)
REMARK    1  A    between atoms: C_1  and  C_2
REMARK    2  A    between atoms: C_5  and  N_8
REMARK    3  A    between atoms: N_8  and  C_9
REMARK    4  A    between atoms: N_8  and  C_13
REMARK    5  A    between atoms: C_9  and  C_10
REMARK    6  A    between atoms: C_10  and  C_11
REMARK    7  A    between atoms: C_10  and  O_12
REMARK    8  A    between atoms: C_13  and  C_14
REMARK    9  A    between atoms: C_14  and  C_15
REMARK   10  A    between atoms: C_14  and  O_16
REMARK                            x       y       z     vdW  Elec       q    Type
REMARK                         _______ _______ _______ _____ _____    ______ ____
ROOT
ATOM      1  N   UNL     1       5.559 -10.967  -1.395  0.00  0.00    +0.000 N 
ENDROOT
BRANCH   1   6
ATOM      2  C   UNL     1      10.512 -13.802  -0.525  0.00  0.00    +0.000 C 
ATOM      3  C   UNL     1       9.217 -13.087  -0.761  0.00  0.00    +0.000 A 
ATOM      4  C   UNL     1       9.005 -12.360  -1.928  0.00  0.00    +0.000 A 
ATOM      5  C   UNL     1       7.800 -11.667  -2.130  0.00  0.00    +0.000 A 
ATOM      6  C   UNL     1       6.765 -11.644  -1.178  0.00  0.00    +0.000 A 
ATOM      7  C   UNL     1       7.014 -12.391  -0.012  0.00  0.00    +0.000 A 
ATOM      8  C   UNL     1       8.213 -13.091   0.202  0.00  0.00    +0.000 A 
ENDBRANCH   1   6
BRANCH   1   9
ATOM      9  C   UNL     1       5.444  -9.990  -2.504  0.00  0.00    +0.000 C 
BRANCH   9  10
ATOM     10  C   UNL     1       4.616 -10.530  -3.696  0.00  0.00    +0.000 C 
ATOM     11  C   UNL     1       3.574  -9.511  -4.142  0.00  0.00    +0.000 C 
BRANCH  10  12
ATOM     12  O   UNL     1       5.460 -10.823  -4.818  0.00  0.00    +0.000 OA
ATOM     13  H   UNL     1       5.821 -11.717  -4.698  0.00  0.00    +0.000 HD
ENDBRANCH  10  12
ENDBRANCH   9  10
ENDBRANCH   1   9
BRANCH   1  14
ATOM     14  C   UNL     1       4.569 -10.789  -0.301  0.00  0.00    +0.000 C 
BRANCH  14  15
ATOM     15  C   UNL     1       3.199 -11.422  -0.644  0.00  0.00    +0.000 C 
ATOM     16  C   UNL     1       3.317 -12.821  -1.237  0.00  0.00    +0.000 C 
BRANCH  15  17
ATOM     17  O   UNL     1       2.352 -11.497   0.501  0.00  0.00    +0.000 OA
ATOM     18  H   UNL     1       2.028 -12.420   0.516  0.00  0.00    +0.000 HD
ENDBRANCH  15  17
ENDBRANCH  14  15
ENDBRANCH   1  14
TORSDOF 7
ENDMDL
MODEL 3
REMARK VINA RESULT:    -4.540     10.200     13.222
REMARK INTER + INTRA:          -6.972
REMARK INTER:                  -6.357
REMARK INTRA:                  -0.615
REMARK UNBOUND:                -0.840
REMARK  Name = 
REMARK  10 active torsions:
REMARK  status: ('A' for Active; 'I' for Inactive)
REMARK    1  A    between atoms: C_1  and  C_2
REMARK    2  A    between atoms: C_5  and  N_8
REMARK    3  A    between atoms: N_8  and  C_9
REMARK    4  A    between atoms: N_8  and  C_13
REMARK    5  A    between atoms: C_9  and  C_10
REMARK    6  A    between atoms: C_10  and  C_11
REMARK    7  A    between atoms: C_10  and  O_12
REMARK    8  A    between atoms: C_13  and  C_14
REMARK    9  A    between atoms: C_14  and  C_15
REMARK   10  A    between atoms: C_14  and  O_16
REMARK                            x       y       z     vdW  Elec       q    Type
REMARK                         _______ _______ _______ _____ _____    ______ ____
ROOT
ATOM      1  N   UNL     1      15.752 -11.785 -10.397  0.00  0.00    +0.000 N 
ENDROOT
BRANCH   1   6
ATOM      2  C   UNL     1      12.914 -11.525  -5.376  0.00  0.00    +0.000 C 
ATOM      3  C   UNL     1      13.649 -11.567  -6.681  0.00  0.00    +0.000 A 
ATOM      4  C   UNL     1      12.964 -11.712  -7.883  0.00  0.00    +0.000 A 
ATOM      5  C   UNL     1      13.661 -11.782  -9.100  0.00  0.00    +0.000 A 
ATOM      6  C   UNL     1      15.064 -11.735  -9.178  0.00  0.00    +0.000 A 
ATOM      7  C   UNL     1      15.724 -11.586  -7.944  0.00  0.00    +0.000 A 
ATOM      8  C   UNL     1      15.039 -11.513  -6.719  0.00  0.00    +0.000 A 
ENDBRANCH   1   6
BRANCH   1   9
ATOM      9  C   UNL     1      17.047 -12.501 -10.491  0.00  0.00    +0.000 C 
BRANCH   9  10
ATOM     10  C   UNL     1      18.266 -11.561 -10.324  0.00  0.00    +0.000 C 
ATOM     11  C   UNL     1      19.210 -12.079  -9.246  0.00  0.00    +0.000 C 
BRANCH  10  12
ATOM     12  O   UNL     1      19.005 -11.455 -11.549  0.00  0.00    +0.000 OA
ATOM     13  H   UNL     1      18.408 -11.677 -12.282  0.00  0.00    +0.000 HD
ENDBRANCH  10  12
ENDBRANCH   9  10
ENDBRANCH   1   9
BRANCH   1  14
ATOM     14  C   UNL     1      15.526 -10.762 -11.450  0.00  0.00    +0.000 C 
BRANCH  14  15
ATOM     15  C   UNL     1      15.755 -11.327 -12.872  0.00  0.00    +0.000 C 
ATOM     16  C   UNL     1      14.527 -11.212 -13.768  0.00  0.00    +0.000 C 
BRANCH  15  17
ATOM     17  O   UNL     1      16.843 -10.678 -13.529  0.00  0.00    +0.000 OA
ATOM     18  H   UNL     1      17.421 -11.405 -13.839  0.00  0.00    +0.000 HD
ENDBRANCH  15  17
ENDBRANCH  14  15
ENDBRANCH   1  14
TORSDOF 7
ENDMDL
MODEL 4
REMARK VINA RESULT:    -4.521      1.722      3.338
REMARK INTER + INTRA:          -6.947
REMARK INTER:                  -6.651
REMARK INTRA:                  -0.296
REMARK UNBOUND:                -0.840
REMARK  Name = 
REMARK  10 active torsions:
REMARK  status: ('A' for Active; 'I' for Inactive)
REMARK    1  A    between atoms: C_1  and  C_2
REMARK    2  A    between atoms: C_5  and  N_8
REMARK    3  A    between atoms: N_8  and  C_9
REMARK    4  A    between atoms: N_8  and  C_13
REMARK    5  A    between atoms: C_9  and  C_10
REMARK    6  A    between atoms: C_10  and  C_11
REMARK    7  A    between atoms: C_10  and  O_12
REMARK    8  A    between atoms: C_13  and  C_14
REMARK    9  A    between atoms: C_14  and  C_15
REMARK   10  A    between atoms: C_14  and  O_16
REMARK                            x       y       z     vdW  Elec       q    Type
REMARK                         _______ _______ _______ _____ _____    ______ ____
ROOT
ATOM      1  N   UNL     1       5.321 -11.196  -1.738  0.00  0.00    +0.000 N 
ENDROOT
BRANCH   1   6
ATOM      2  C   UNL     1      10.990 -12.076  -2.391  0.00  0.00    +0.000 C 
ATOM      3  C   UNL     1       9.523 -11.836  -2.200  0.00  0.00    +0.000 A 
ATOM      4  C   UNL     1       8.718 -12.788  -1.583  0.00  0.00    +0.000 A 
ATOM      5  C   UNL     1       7.339 -12.571  -1.433  0.00  0.00    +0.000 A 
ATOM      6  C   UNL     1       6.694 -11.414  -1.908  0.00  0.00    +0.000 A 
ATOM      7  C   UNL     1       7.539 -10.473  -2.525  0.00  0.00    +0.000 A 
ATOM      8  C   UNL     1       8.920 -10.677  -2.679  0.00  0.00    +0.000 A 
ENDBRANCH   1   6
BRANCH   1   9
ATOM      9  C   UNL     1       4.712  -9.919  -2.180  0.00  0.00    +0.000 C 
BRANCH   9  10
ATOM     10  C   UNL     1       4.551  -9.831  -3.718  0.00  0.00    +0.000 C 
ATOM     11  C   UNL     1       3.969 -11.123  -4.280  0.00  0.00    +0.000 C 
BRANCH  10  12
ATOM     12  O   UNL     1       3.677  -8.754  -4.083  0.00  0.00    +0.000 OA
ATOM     13  H   UNL     1       3.509  -8.813  -5.039  0.00  0.00    +0.000 HD
ENDBRANCH  10  12
ENDBRANCH   9  10
ENDBRANCH   1   9
BRANCH   1  14
ATOM     14  C   UNL     1       4.547 -11.933  -0.707  0.00  0.00    +0.000 C 
BRANCH  14  15
ATOM     15  C   UNL     1       3.064 -11.495  -0.666  0.00  0.00    +0.000 C 
ATOM     16  C   UNL     1       2.141 -12.431  -1.438  0.00  0.00    +0.000 C 
BRANCH  15  17
ATOM     17  O   UNL     1       2.578 -11.401   0.673  0.00  0.00    +0.000 OA
ATOM     18  H   UNL     1       3.354 -11.133   1.205  0.00  0.00    +0.000 HD
ENDBRANCH  15  17
ENDBRANCH  14  15
ENDBRANCH   1  14
TORSDOF 7
ENDMDL
MODEL 5
REMARK VINA RESULT:    -4.520      2.458      5.827
REMARK INTER + INTRA:          -6.945
REMARK INTER:                  -6.223
REMARK INTRA:                  -0.721
REMARK UNBOUND:                -0.840
REMARK  Name = 
REMARK  10 active torsions:
REMARK  status: ('A' for Active; 'I' for Inactive)
REMARK    1  A    between atoms: C_1  and  C_2
REMARK    2  A    between atoms: C_5  and  N_8
REMARK    3  A    between atoms: N_8  and  C_9
REMARK    4  A    between atoms: N_8  and  C_13
REMARK    5  A    between atoms: C_9  and  C_10
REMARK    6  A    between atoms: C_10  and  C_11
REMARK    7  A    between atoms: C_10  and  O_12
REMARK    8  A    between atoms: C_13  and  C_14
REMARK    9  A    between atoms: C_14  and  C_15
REMARK   10  A    between atoms: C_14  and  O_16
REMARK                            x       y       z     vdW  Elec       q    Type
REMARK                         _______ _______ _______ _____ _____    ______ ____
ROOT
ATOM      1  N   UNL     1       4.009 -11.903  -2.593  0.00  0.00    +0.000 N 
ENDROOT
BRANCH   1   6
ATOM      2  C   UNL     1      -1.415 -12.191  -4.549  0.00  0.00    +0.000 C 
ATOM      3  C   UNL     1      -0.014 -12.096  -4.027  0.00  0.00    +0.000 A 
ATOM      4  C   UNL     1       0.952 -11.359  -4.704  0.00  0.00    +0.000 A 
ATOM      5  C   UNL     1       2.271 -11.299  -4.227  0.00  0.00    +0.000 A 
ATOM      6  C   UNL     1       2.696 -11.984  -3.074  0.00  0.00    +0.000 A 
ATOM      7  C   UNL     1       1.693 -12.717  -2.414  0.00  0.00    +0.000 A 
ATOM      8  C   UNL     1       0.369 -12.784  -2.880  0.00  0.00    +0.000 A 
ENDBRANCH   1   6
BRANCH   1   9
ATOM      9  C   UNL     1       4.929 -10.863  -3.113  0.00  0.00    +0.000 C 
BRANCH   9  10
ATOM     10  C   UNL     1       4.800  -9.517  -2.357  0.00  0.00    +0.000 C 
ATOM     11  C   UNL     1       4.249  -8.429  -3.272  0.00  0.00    +0.000 C 
BRANCH  10  12
ATOM     12  O   UNL     1       3.918  -9.640  -1.233  0.00  0.00    +0.000 OA
ATOM     13  H   UNL     1       3.005  -9.588  -1.559  0.00  0.00    +0.000 HD
ENDBRANCH  10  12
ENDBRANCH   9  10
ENDBRANCH   1   9
BRANCH   1  14
ATOM     14  C   UNL     1       4.679 -13.082  -1.986  0.00  0.00    +0.000 C 
BRANCH  14  15
ATOM     15  C   UNL     1       4.912 -12.904  -0.467  0.00  0.00    +0.000 C 
ATOM     16  C   UNL     1       6.276 -12.311  -0.134  0.00  0.00    +0.000 C 
BRANCH  15  17
ATOM     17  O   UNL     1       3.914 -12.075   0.126  0.00  0.00    +0.000 OA
ATOM     18  H   UNL     1       4.371 -11.611   0.856  0.00  0.00    +0.000 HD
ENDBRANCH  15  17
ENDBRANCH  14  15
ENDBRANCH   1  14
TORSDOF 7
ENDMDL
MODEL 6
REMARK VINA RESULT:    -4.501     10.288     13.522
REMARK INTER + INTRA:          -6.920
REMARK INTER:                  -6.313
REMARK INTRA:                  -0.606
REMARK UNBOUND:                -0.840
REMARK  Name = 
REMARK  10 active torsions:
REMARK  status: ('A' for Active; 'I' for Inactive)
REMARK    1  A    between atoms: C_1  and  C_2
REMARK    2  A    between atoms: C_5  and  N_8
REMARK    3  A    between atoms: N_8  and  C_9
REMARK    4  A    between atoms: N_8  and  C_13
REMARK    5  A    between atoms: C_9  and  C_10
REMARK    6  A    between atoms: C_10  and  C_11
REMARK    7  A    between atoms: C_10  and  O_12
REMARK    8  A    between atoms: C_13  and  C_14
REMARK    9  A    between atoms: C_14  and  C_15
REMARK   10  A    between atoms: C_14  and  O_16
REMARK                            x       y       z     vdW  Elec       q    Type
REMARK                         _______ _______ _______ _____ _____    ______ ____
ROOT
ATOM      1  N   UNL     1      15.864 -11.377 -10.435  0.00  0.00    +0.000 N 
ENDROOT
BRANCH   1   6
ATOM      2  C   UNL     1      12.948 -11.900  -5.480  0.00  0.00    +0.000 C 
ATOM      3  C   UNL     1      13.702 -11.740  -6.764  0.00  0.00    +0.000 A 
ATOM      4  C   UNL     1      13.046 -11.799  -7.990  0.00  0.00    +0.000 A 
ATOM      5  C   UNL     1      13.762 -11.678  -9.192  0.00  0.00    +0.000 A 
ATOM      6  C   UNL     1      15.159 -11.516  -9.233  0.00  0.00    +0.000 A 
ATOM      7  C   UNL     1      15.788 -11.459  -7.976  0.00  0.00    +0.000 A 
ATOM      8  C   UNL     1      15.084 -11.576  -6.766  0.00  0.00    +0.000 A 
ENDBRANCH   1   6
BRANCH   1   9
ATOM      9  C   UNL     1      15.217 -10.738 -11.606  0.00  0.00    +0.000 C 
BRANCH   9  10
ATOM     10  C   UNL     1      15.656 -11.367 -12.951  0.00  0.00    +0.000 C 
ATOM     11  C   UNL     1      14.479 -11.473 -13.913  0.00  0.00    +0.000 C 
BRANCH  10  12
ATOM     12  O   UNL     1      16.675 -10.577 -13.581  0.00  0.00    +0.000 OA
ATOM     13  H   UNL     1      16.481  -9.641 -13.407  0.00  0.00    +0.000 HD
ENDBRANCH  10  12
ENDBRANCH   9  10
ENDBRANCH   1   9
BRANCH   1  14
ATOM     14  C   UNL     1      17.011 -12.263 -10.761  0.00  0.00    +0.000 C 
BRANCH  14  15
ATOM     15  C   UNL     1      18.371 -11.546 -10.587  0.00  0.00    +0.000 C 
ATOM     16  C   UNL     1      19.272 -12.212  -9.553  0.00  0.00    +0.000 C 
BRANCH  15  17
ATOM     17  O   UNL     1      19.090 -11.473 -11.817  0.00  0.00    +0.000 OA
ATOM     18  H   UNL     1      18.524 -10.938 -12.409  0.00  0.00    +0.000 HD
ENDBRANCH  15  17
ENDBRANCH  14  15
ENDBRANCH   1  14
TORSDOF 7
ENDMDL
MODEL 7
REMARK VINA RESULT:    -4.495     11.136     13.885
REMARK INTER + INTRA:          -6.911
REMARK INTER:                  -6.369
REMARK INTRA:                  -0.542
REMARK UNBOUND:                -0.840
REMARK  Name = 
REMARK  10 active torsions:
REMARK  status: ('A' for Active; 'I' for Inactive)
REMARK    1  A    between atoms: C_1  and  C_2
REMARK    2  A    between atoms: C_5  and  N_8
REMARK    3  A    between atoms: N_8  and  C_9
REMARK    4  A    between atoms: N_8  and  C_13
REMARK    5  A    between atoms: C_9  and  C_10
REMARK    6  A    between atoms: C_10  and  C_11
REMARK    7  A    between atoms: C_10  and  O_12
REMARK    8  A    between atoms: C_13  and  C_14
REMARK    9  A    between atoms: C_14  and  C_15
REMARK   10  A    between atoms: C_14  and  O_16
REMARK                            x       y       z     vdW  Elec       q    Type
REMARK                         _______ _______ _______ _____ _____    ______ ____
ROOT
ATOM      1  N   UNL     1      15.781 -11.724 -10.962  0.00  0.00    +0.000 N 
ENDROOT
BRANCH   1   6
ATOM      2  C   UNL     1      14.739 -11.707 -16.640  0.00  0.00    +0.000 C 
ATOM      3  C   UNL     1      15.021 -11.734 -15.169  0.00  0.00    +0.000 A 
ATOM      4  C   UNL     1      14.099 -12.266 -14.275  0.00  0.00    +0.000 A 
ATOM      5  C   UNL     1      14.355 -12.261 -12.894  0.00  0.00    +0.000 A 
ATOM      6  C   UNL     1      15.523 -11.708 -12.339  0.00  0.00    +0.000 A 
ATOM      7  C   UNL     1      16.434 -11.180 -13.273  0.00  0.00    +0.000 A 
ATOM      8  C   UNL     1      16.191 -11.181 -14.656  0.00  0.00    +0.000 A 
ENDBRANCH   1   6
BRANCH   1   9
ATOM      9  C   UNL     1      15.151 -12.752 -10.099  0.00  0.00    +0.000 C 
BRANCH   9  10
ATOM     10  C   UNL     1      14.201 -12.144  -9.038  0.00  0.00    +0.000 C 
ATOM     11  C   UNL     1      12.844 -12.838  -9.061  0.00  0.00    +0.000 C 
BRANCH  10  12
ATOM     12  O   UNL     1      14.748 -12.280  -7.720  0.00  0.00    +0.000 OA
ATOM     13  H   UNL     1      14.177 -12.885  -7.217  0.00  0.00    +0.000 HD
ENDBRANCH  10  12
ENDBRANCH   9  10
ENDBRANCH   1   9
BRANCH   1  14
ATOM     14  C   UNL     1      16.229 -10.500 -10.250  0.00  0.00    +0.000 C 
BRANCH  14  15
ATOM     15  C   UNL     1      17.561 -10.718  -9.493  0.00  0.00    +0.000 C 
ATOM     16  C   UNL     1      18.628 -11.400 -10.342  0.00  0.00    +0.000 C 
BRANCH  15  17
ATOM     17  O   UNL     1      18.101  -9.489  -9.010  0.00  0.00    +0.000 OA
ATOM     18  H   UNL     1      18.499  -9.710  -8.144  0.00  0.00    +0.000 HD
ENDBRANCH  15  17
ENDBRANCH  14  15
ENDBRANCH   1  14
TORSDOF 7
ENDMDL
MODEL 8
REMARK VINA RESULT:    -4.443      2.520      5.450
REMARK INTER + INTRA:          -6.841
REMARK INTER:                  -6.466
REMARK INTRA:                  -0.375
REMARK UNBOUND:                -0.840
REMARK  Name = 
REMARK  10 active torsions:
REMARK  status: ('A' for Active; 'I' for Inactive)
REMARK    1  A    between atoms: C_1  and  C_2
REMARK    2  A    between atoms: C_5  and  N_8
REMARK    3  A    between atoms: N_8  and  C_9
REMARK    4  A    between atoms: N_8  and  C_13
REMARK    5  A    between atoms: C_9  and  C_10
REMARK    6  A    between atoms: C_10  and  C_11
REMARK    7  A    between atoms: C_10  and  O_12
REMARK    8  A    between atoms: C_13  and  C_14
REMARK    9  A    between atoms: C_14  and  C_15
REMARK   10  A    between atoms: C_14  and  O_16
REMARK                            x       y       z     vdW  Elec       q    Type
REMARK                         _______ _______ _______ _____ _____    ______ ____
ROOT
ATOM      1  N   UNL     1       5.027 -10.812  -3.872  0.00  0.00    +0.000 N 
ENDROOT
BRANCH   1   6
ATOM      2  C   UNL     1      -0.180 -12.708  -5.492  0.00  0.00    +0.000 C 
ATOM      3  C   UNL     1       1.168 -12.226  -5.049  0.00  0.00    +0.000 A 
ATOM      4  C   UNL     1       1.331 -10.950  -4.520  0.00  0.00    +0.000 A 
ATOM      5  C   UNL     1       2.601 -10.492  -4.134  0.00  0.00    +0.000 A 
ATOM      6  C   UNL     1       3.766 -11.268  -4.277  0.00  0.00    +0.000 A 
ATOM      7  C   UNL     1       3.563 -12.553  -4.813  0.00  0.00    +0.000 A 
ATOM      8  C   UNL     1       2.298 -13.024  -5.201  0.00  0.00    +0.000 A 
ENDBRANCH   1   6
BRANCH   1   9
ATOM      9  C   UNL     1       6.253 -11.494  -4.352  0.00  0.00    +0.000 C 
BRANCH   9  10
ATOM     10  C   UNL     1       7.505 -10.585  -4.298  0.00  0.00    +0.000 C 
ATOM     11  C   UNL     1       8.657 -11.285  -3.585  0.00  0.00    +0.000 C 
BRANCH  10  12
ATOM     12  O   UNL     1       7.946 -10.237  -5.618  0.00  0.00    +0.000 OA
ATOM     13  H   UNL     1       7.267  -9.672  -6.023  0.00  0.00    +0.000 HD
ENDBRANCH  10  12
ENDBRANCH   9  10
ENDBRANCH   1   9
BRANCH   1  14
ATOM     14  C   UNL     1       5.196 -10.029  -2.621  0.00  0.00    +0.000 C 
BRANCH  14  15
ATOM     15  C   UNL     1       4.574 -10.742  -1.397  0.00  0.00    +0.000 C 
ATOM     16  C   UNL     1       5.614 -11.355  -0.466  0.00  0.00    +0.000 C 
BRANCH  15  17
ATOM     17  O   UNL     1       3.760  -9.857  -0.629  0.00  0.00    +0.000 OA
ATOM     18  H   UNL     1       3.132 -10.439  -0.155  0.00  0.00    +0.000 HD
ENDBRANCH  15  17
ENDBRANCH  14  15
ENDBRANCH   1  14
TORSDOF 7
ENDMDL
MODEL 9
REMARK VINA RESULT:    -4.371      9.605     12.167
REMARK INTER + INTRA:          -6.743
REMARK INTER:                  -6.181
REMARK INTRA:                  -0.562
REMARK UNBOUND:                -0.840
REMARK  Name = 
REMARK  10 active torsions:
REMARK  status: ('A' for Active; 'I' for Inactive)
REMARK    1  A    between atoms: C_1  and  C_2
REMARK    2  A    between atoms: C_5  and  N_8
REMARK    3  A    between atoms: N_8  and  C_9
REMARK    4  A    between atoms: N_8  and  C_13
REMARK    5  A    between atoms: C_9  and  C_10
REMARK    6  A    between atoms: C_10  and  C_11
REMARK    7  A    between atoms: C_10  and  O_12
REMARK    8  A    between atoms: C_13  and  C_14
REMARK    9  A    between atoms: C_14  and  C_15
REMARK   10  A    between atoms: C_14  and  O_16
REMARK                            x       y       z     vdW  Elec       q    Type
REMARK                         _______ _______ _______ _____ _____    ______ ____
ROOT
ATOM      1  N   UNL     1      14.842 -12.063 -10.372  0.00  0.00    +0.000 N 
ENDROOT
BRANCH   1   6
ATOM      2  C   UNL     1      13.423 -11.089  -4.861  0.00  0.00    +0.000 C 
ATOM      3  C   UNL     1      13.793 -11.317  -6.295  0.00  0.00    +0.000 A 
ATOM      4  C   UNL     1      12.815 -11.418  -7.278  0.00  0.00    +0.000 A 
ATOM      5  C   UNL     1      13.166 -11.662  -8.615  0.00  0.00    +0.000 A 
ATOM      6  C   UNL     1      14.497 -11.839  -9.033  0.00  0.00    +0.000 A 
ATOM      7  C   UNL     1      15.460 -11.729  -8.013  0.00  0.00    +0.000 A 
ATOM      8  C   UNL     1      15.123 -11.483  -6.671  0.00  0.00    +0.000 A 
ENDBRANCH   1   6
BRANCH   1   9
ATOM      9  C   UNL     1      15.503 -13.330 -10.767  0.00  0.00    +0.000 C 
BRANCH   9  10
ATOM     10  C   UNL     1      14.506 -14.504 -10.925  0.00  0.00    +0.000 C 
ATOM     11  C   UNL     1      14.438 -15.336  -9.650  0.00  0.00    +0.000 C 
BRANCH  10  12
ATOM     12  O   UNL     1      13.186 -14.022 -11.214  0.00  0.00    +0.000 OA
ATOM     13  H   UNL     1      12.591 -14.789 -11.268  0.00  0.00    +0.000 HD
ENDBRANCH  10  12
ENDBRANCH   9  10
ENDBRANCH   1   9
BRANCH   1  14
ATOM     14  C   UNL     1      15.046 -10.932 -11.312  0.00  0.00    +0.000 C 
BRANCH  14  15
ATOM     15  C   UNL     1      15.530 -11.408 -12.703  0.00  0.00    +0.000 C 
ATOM     16  C   UNL     1      14.464 -11.283 -13.785  0.00  0.00    +0.000 C 
BRANCH  15  17
ATOM     17  O   UNL     1      16.684 -10.688 -13.134  0.00  0.00    +0.000 OA
ATOM     18  H   UNL     1      17.411 -11.343 -13.121  0.00  0.00    +0.000 HD
ENDBRANCH  15  17
ENDBRANCH  14  15
ENDBRANCH   1  14
TORSDOF 7
ENDMDL
