MODEL 1
REMARK VINA RESULT:    -4.906      0.000      0.000
REMARK INTER + INTRA:          -7.469
REMARK INTER:                  -6.627
REMARK INTRA:                  -0.842
REMARK UNBOUND:                -0.842
REMARK  Name = 
REMARK  10 active torsions:
REMARK  status: ('A' for Active; 'I' for Inactive)
REMARK    1  A    between atoms: C_1  and  C_2
REMARK    2  A    between atoms: C_5  and  N_8
REMARK    3  A    between atoms: N_8  and  C_9
REMARK    4  A    between atoms: N_8  and  C_13
REMARK    5  A    between atoms: C_9  and  C_10
REMARK    6  A    between atoms: C_10  and  C_11
REMARK    7  A    between atoms: C_10  and  O_12
REMARK    8  A    between atoms: C_13  and  C_14
REMARK    9  A    between atoms: C_14  and  C_15
REMARK   10  A    between atoms: C_14  and  O_16
REMARK                            x       y       z     vdW  Elec       q    Type
REMARK                         _______ _______ _______ _____ _____    ______ ____
ROOT
ATOM      1  N   UNL     1       4.430 -10.772  -3.142  0.00  0.00    +0.000 N 
ENDROOT
BRANCH   1   6
ATOM      2  C   UNL     1      10.113 -11.464  -3.886  0.00  0.00    +0.000 C 
ATOM      3  C   UNL     1       8.638 -11.304  -3.678  0.00  0.00    +0.000 A 
ATOM      4  C   UNL     1       7.726 -11.899  -4.543  0.00  0.00    +0.000 A 
ATOM      5  C   UNL     1       6.345 -11.721  -4.361  0.00  0.00    +0.000 A 
ATOM      6  C   UNL     1       5.809 -10.929  -3.330  0.00  0.00    +0.000 A 
ATOM      7  C   UNL     1       6.760 -10.344  -2.473  0.00  0.00    +0.000 A 
ATOM      8  C   UNL     1       8.144 -10.516  -2.643  0.00  0.00    +0.000 A 
ENDBRANCH   1   6
BRANCH   1   9
ATOM      9  C   UNL     1       3.669 -11.769  -2.352  0.00  0.00    +0.000 C 
BRANCH   9  10
ATOM     10  C   UNL     1       3.560 -11.392  -0.854  0.00  0.00    +0.000 C 
ATOM     11  C   UNL     1       4.625 -12.111  -0.033  0.00  0.00    +0.000 C 
BRANCH  10  12
ATOM     12  O   UNL     1       3.731  -9.981  -0.665  0.00  0.00    +0.000 OA
ATOM     13  H   UNL     1       3.189  -9.711   0.095  0.00  0.00    +0.000 HD
ENDBRANCH  10  12
ENDBRANCH   9  10
ENDBRANCH   1   9
BRANCH   1  14
ATOM     14  C   UNL     1       3.612  -9.967  -4.086  0.00  0.00    +0.000 C 
BRANCH  14  15
ATOM     15  C   UNL     1       3.912  -8.453  -3.974  0.00  0.00    +0.000 C 
ATOM     16  C   UNL     1       2.917  -7.587  -4.737  0.00  0.00    +0.000 C 
BRANCH  15  17
ATOM     17  O   UNL     1       3.925  -8.017  -2.615  0.00  0.00    +0.000 OA
ATOM     18  H   UNL     1       4.536  -8.630  -2.159  0.00  0.00    +0.000 HD
ENDBRANCH  15  17
ENDBRANCH  14  15
ENDBRANCH   1  14
TORSDOF 7
ENDMDL
MODEL 2
REMARK VINA RESULT:    -4.599      2.486      4.065
REMARK INTER + INTRA:          -7.054
REMARK INTER:                  -6.525
REMARK INTRA:                  -0.529
REMARK UNBOUND:                -0.842
REMARK  Name = 
REMARK  10 active torsions:
REMARK  status: ('A' for Active; 'I' for Inactive)
REMARK    1  A    between atoms: C_1  and  C_2
REMARK    2  A    between atoms: C_5  and  N_8
REMARK    3  A    between atoms: N_8  and  C_9
REMARK    4  A    between atoms: N_8  and  C_13
REMARK    5  A    between atoms: C_9  and  C_10
REMARK    6  A    between atoms: C_10  and  C_11
REMARK    7  A    between atoms: C_10  and  O_12
REMARK    8  A    between atoms: C_13  and  C_14
REMARK    9  A    between atoms: C_14  and  C_15
REMARK   10  A    between atoms: C_14  and  O_16
REMARK                            x       y       z     vdW  Elec       q    Type
REMARK                         _______ _______ _______ _____ _____    ______ ____
ROOT
ATOM      1  N   UNL     1       5.766 -11.106  -1.387  0.00  0.00    +0.000 N 
ENDROOT
BRANCH   1   6
ATOM      2  C   UNL     1      10.654 -13.998  -0.351  0.00  0.00    +0.000 C 
ATOM      3  C   UNL     1       9.396 -13.227  -0.610  0.00  0.00    +0.000 A 
ATOM      4  C   UNL     1       8.373 -13.192   0.331  0.00  0.00    +0.000 A 
ATOM      5  C   UNL     1       7.183 -12.492   0.070  0.00  0.00    +0.000 A 
ATOM      6  C   UNL     1       6.947 -11.818  -1.141  0.00  0.00    +0.000 A 
ATOM      7  C   UNL     1       8.003 -11.873  -2.069  0.00  0.00    +0.000 A 
ATOM      8  C   UNL     1       9.199 -12.567  -1.820  0.00  0.00    +0.000 A 
ENDBRANCH   1   6
BRANCH   1   9
ATOM      9  C   UNL     1       5.670 -10.209  -2.563  0.00  0.00    +0.000 C 
BRANCH   9  10
ATOM     10  C   UNL     1       4.901 -10.848  -3.745  0.00  0.00    +0.000 C 
ATOM     11  C   UNL     1       3.667 -10.027  -4.101  0.00  0.00    +0.000 C 
BRANCH  10  12
ATOM     12  O   UNL     1       5.730 -10.933  -4.913  0.00  0.00    +0.000 OA
ATOM     13  H   UNL     1       5.217 -11.366  -5.615  0.00  0.00    +0.000 HD
ENDBRANCH  10  12
ENDBRANCH   9  10
ENDBRANCH   1   9
BRANCH   1  14
ATOM     14  C   UNL     1       4.807 -10.806  -0.293  0.00  0.00    +0.000 C 
BRANCH  14  15
ATOM     15  C   UNL     1       3.401 -11.387  -0.573  0.00  0.00    +0.000 C 
ATOM     16  C   UNL     1       3.437 -12.810  -1.117  0.00  0.00    +0.000 C 
BRANCH  15  17
ATOM     17  O   UNL     1       2.586 -11.382   0.599  0.00  0.00    +0.000 OA
ATOM     18  H   UNL     1       2.755 -10.516   1.021  0.00  0.00    +0.000 HD
ENDBRANCH  15  17
ENDBRANCH  14  15
ENDBRANCH   1  14
TORSDOF 7
ENDMDL
MODEL 3
REMARK VINA RESULT:    -4.591      1.792      3.562
REMARK INTER + INTRA:          -7.043
REMARK INTER:                  -6.641
REMARK INTRA:                  -0.402
REMARK UNBOUND:                -0.842
REMARK  Name = 
REMARK  10 active torsions:
REMARK  status: ('A' for Active; 'I' for Inactive)
REMARK    1  A    between atoms: C_1  and  C_2
REMARK    2  A    between atoms: C_5  and  N_8
REMARK    3  A    between atoms: N_8  and  C_9
REMARK    4  A    between atoms: N_8  and  C_13
REMARK    5  A    between atoms: C_9  and  C_10
REMARK    6  A    between atoms: C_10  and  C_11
REMARK    7  A    between atoms: C_10  and  O_12
REMARK    8  A    between atoms: C_13  and  C_14
REMARK    9  A    between atoms: C_14  and  C_15
REMARK   10  A    between atoms: C_14  and  O_16
REMARK                            x       y       z     vdW  Elec       q    Type
REMARK                         _______ _______ _______ _____ _____    ______ ____
ROOT
ATOM      1  N   UNL     1       5.487 -10.689  -1.635  0.00  0.00    +0.000 N 
ENDROOT
BRANCH   1   6
ATOM      2  C   UNL     1      10.870 -12.640  -2.369  0.00  0.00    +0.000 C 
ATOM      3  C   UNL     1       9.481 -12.121  -2.158  0.00  0.00    +0.000 A 
ATOM      4  C   UNL     1       8.559 -12.834  -1.399  0.00  0.00    +0.000 A 
ATOM      5  C   UNL     1       7.249 -12.357  -1.230  0.00  0.00    +0.000 A 
ATOM      6  C   UNL     1       6.789 -11.168  -1.824  0.00  0.00    +0.000 A 
ATOM      7  C   UNL     1       7.748 -10.473  -2.583  0.00  0.00    +0.000 A 
ATOM      8  C   UNL     1       9.062 -10.937  -2.758  0.00  0.00    +0.000 A 
ENDBRANCH   1   6
BRANCH   1   9
ATOM      9  C   UNL     1       5.004  -9.523  -2.414  0.00  0.00    +0.000 C 
BRANCH   9  10
ATOM     10  C   UNL     1       4.153  -9.932  -3.642  0.00  0.00    +0.000 C 
ATOM     11  C   UNL     1       3.499  -8.713  -4.282  0.00  0.00    +0.000 C 
BRANCH  10  12
ATOM     12  O   UNL     1       4.961 -10.577  -4.636  0.00  0.00    +0.000 OA
ATOM     13  H   UNL     1       5.347  -9.889  -5.203  0.00  0.00    +0.000 HD
ENDBRANCH  10  12
ENDBRANCH   9  10
ENDBRANCH   1   9
BRANCH   1  14
ATOM     14  C   UNL     1       4.748 -10.945  -0.372  0.00  0.00    +0.000 C 
BRANCH  14  15
ATOM     15  C   UNL     1       3.284 -11.374  -0.628  0.00  0.00    +0.000 C 
ATOM     16  C   UNL     1       3.167 -12.738  -1.299  0.00  0.00    +0.000 C 
BRANCH  15  17
ATOM     17  O   UNL     1       2.526 -11.410   0.580  0.00  0.00    +0.000 OA
ATOM     18  H   UNL     1       3.125 -11.811   1.242  0.00  0.00    +0.000 HD
ENDBRANCH  15  17
ENDBRANCH  14  15
ENDBRANCH   1  14
TORSDOF 7
ENDMDL
MODEL 4
REMARK VINA RESULT:    -4.543     10.194     13.236
REMARK INTER + INTRA:          -6.978
REMARK INTER:                  -6.363
REMARK INTRA:                  -0.615
REMARK UNBOUND:                -0.842
REMARK  Name = 
REMARK  10 active torsions:
REMARK  status: ('A' for Active; 'I' for Inactive)
REMARK    1  A    between atoms: C_1  and  C_2
REMARK    2  A    between atoms: C_5  and  N_8
REMARK    3  A    between atoms: N_8  and  C_9
REMARK    4  A    between atoms: N_8  and  C_13
REMARK    5  A    between atoms: C_9  and  C_10
REMARK    6  A    between atoms: C_10  and  C_11
REMARK    7  A    between atoms: C_10  and  O_12
REMARK    8  A    between atoms: C_13  and  C_14
REMARK    9  A    between atoms: C_14  and  C_15
REMARK   10  A    between atoms: C_14  and  O_16
REMARK                            x       y       z     vdW  Elec       q    Type
REMARK                         _______ _______ _______ _____ _____    ______ ____
ROOT
ATOM      1  N   UNL     1      15.766 -11.787 -10.445  0.00  0.00    +0.000 N 
ENDROOT
BRANCH   1   6
ATOM      2  C   UNL     1      12.949 -11.550  -5.411  0.00  0.00    +0.000 C 
ATOM      3  C   UNL     1      13.679 -11.587  -6.719  0.00  0.00    +0.000 A 
ATOM      4  C   UNL     1      12.989 -11.725  -7.918  0.00  0.00    +0.000 A 
ATOM      5  C   UNL     1      13.680 -11.789  -9.139  0.00  0.00    +0.000 A 
ATOM      6  C   UNL     1      15.083 -11.742  -9.222  0.00  0.00    +0.000 A 
ATOM      7  C   UNL     1      15.748 -11.601  -7.990  0.00  0.00    +0.000 A 
ATOM      8  C   UNL     1      15.069 -11.533  -6.763  0.00  0.00    +0.000 A 
ENDBRANCH   1   6
BRANCH   1   9
ATOM      9  C   UNL     1      17.060 -12.504 -10.548  0.00  0.00    +0.000 C 
BRANCH   9  10
ATOM     10  C   UNL     1      18.280 -11.566 -10.378  0.00  0.00    +0.000 C 
ATOM     11  C   UNL     1      19.224 -12.090  -9.302  0.00  0.00    +0.000 C 
BRANCH  10  12
ATOM     12  O   UNL     1      19.019 -11.455 -11.602  0.00  0.00    +0.000 OA
ATOM     13  H   UNL     1      18.954 -10.536 -11.911  0.00  0.00    +0.000 HD
ENDBRANCH  10  12
ENDBRANCH   9  10
ENDBRANCH   1   9
BRANCH   1  14
ATOM     14  C   UNL     1      15.536 -10.758 -11.491  0.00  0.00    +0.000 C 
BRANCH  14  15
ATOM     15  C   UNL     1      15.756 -11.317 -12.918  0.00  0.00    +0.000 C 
ATOM     16  C   UNL     1      14.523 -11.196 -13.806  0.00  0.00    +0.000 C 
BRANCH  15  17
ATOM     17  O   UNL     1      16.841 -10.667 -13.577  0.00  0.00    +0.000 OA
ATOM     18  H   UNL     1      16.441  -9.887 -14.013  0.00  0.00    +0.000 HD
ENDBRANCH  15  17
ENDBRANCH  14  15
ENDBRANCH   1  14
TORSDOF 7
ENDMDL
MODEL 5
REMARK VINA RESULT:    -4.525      2.499      5.889
REMARK INTER + INTRA:          -6.953
REMARK INTER:                  -6.215
REMARK INTRA:                  -0.738
REMARK UNBOUND:                -0.842
REMARK  Name = 
REMARK  10 active torsions:
REMARK  status: ('A' for Active; 'I' for Inactive)
REMARK    1  A    between atoms: C_1  and  C_2
REMARK    2  A    between atoms: C_5  and  N_8
REMARK    3  A    between atoms: N_8  and  C_9
REMARK    4  A    between atoms: N_8  and  C_13
REMARK    5  A    between atoms: C_9  and  C_10
REMARK    6  A    between atoms: C_10  and  C_11
REMARK    7  A    between atoms: C_10  and  O_12
REMARK    8  A    between atoms: C_13  and  C_14
REMARK    9  A    between atoms: C_14  and  C_15
REMARK   10  A    between atoms: C_14  and  O_16
REMARK                            x       y       z     vdW  Elec       q    Type
REMARK                         _______ _______ _______ _____ _____    ______ ____
ROOT
ATOM      1  N   UNL     1       4.028 -11.968  -2.592  0.00  0.00    +0.000 N 
ENDROOT
BRANCH   1   6
ATOM      2  C   UNL     1      -1.415 -12.186  -4.503  0.00  0.00    +0.000 C 
ATOM      3  C   UNL     1       0.002 -12.152  -4.017  0.00  0.00    +0.000 A 
ATOM      4  C   UNL     1       0.331 -12.606  -2.744  0.00  0.00    +0.000 A 
ATOM      5  C   UNL     1       1.656 -12.544  -2.283  0.00  0.00    +0.000 A 
ATOM      6  C   UNL     1       2.706 -12.009  -3.051  0.00  0.00    +0.000 A 
ATOM      7  C   UNL     1       2.337 -11.562  -4.333  0.00  0.00    +0.000 A 
ATOM      8  C   UNL     1       1.016 -11.620  -4.808  0.00  0.00    +0.000 A 
ENDBRANCH   1   6
BRANCH   1   9
ATOM      9  C   UNL     1       4.954 -10.919  -3.084  0.00  0.00    +0.000 C 
BRANCH   9  10
ATOM     10  C   UNL     1       4.766  -9.565  -2.357  0.00  0.00    +0.000 C 
ATOM     11  C   UNL     1       4.180  -8.518  -3.297  0.00  0.00    +0.000 C 
BRANCH  10  12
ATOM     12  O   UNL     1       3.880  -9.700  -1.236  0.00  0.00    +0.000 OA
ATOM     13  H   UNL     1       4.356 -10.170  -0.532  0.00  0.00    +0.000 HD
ENDBRANCH  10  12
ENDBRANCH   9  10
ENDBRANCH   1   9
BRANCH   1  14
ATOM     14  C   UNL     1       4.692 -13.181  -2.049  0.00  0.00    +0.000 C 
BRANCH  14  15
ATOM     15  C   UNL     1       4.961 -13.069  -0.529  0.00  0.00    +0.000 C 
ATOM     16  C   UNL     1       6.369 -12.586  -0.204  0.00  0.00    +0.000 C 
BRANCH  15  17
ATOM     17  O   UNL     1       4.035 -12.190   0.107  0.00  0.00    +0.000 OA
ATOM     18  H   UNL     1       4.525 -11.353   0.232  0.00  0.00    +0.000 HD
ENDBRANCH  15  17
ENDBRANCH  14  15
ENDBRANCH   1  14
TORSDOF 7
ENDMDL
MODEL 6
REMARK VINA RESULT:    -4.497     10.073     13.378
REMARK INTER + INTRA:          -6.917
REMARK INTER:                  -6.402
REMARK INTRA:                  -0.515
REMARK UNBOUND:                -0.842
REMARK  Name = 
REMARK  10 active torsions:
REMARK  status: ('A' for Active; 'I' for Inactive)
REMARK    1  A    between atoms: C_1  and  C_2
REMARK    2  A    between atoms: C_5  and  N_8
REMARK    3  A    between atoms: N_8  and  C_9
REMARK    4  A    between atoms: N_8  and  C_13
REMARK    5  A    between atoms: C_9  and  C_10
REMARK    6  A    between atoms: C_10  and  C_11
REMARK    7  A    between atoms: C_10  and  O_12
REMARK    8  A    between atoms: C_13  and  C_14
REMARK    9  A    between atoms: C_14  and  C_15
REMARK   10  A    between atoms: C_14  and  O_16
REMARK                            x       y       z     vdW  Elec       q    Type
REMARK                         _______ _______ _______ _____ _____    ______ ____
ROOT
ATOM      1  N   UNL     1      16.013 -11.434 -10.195  0.00  0.00    +0.000 N 
ENDROOT
BRANCH   1   6
ATOM      2  C   UNL     1      12.674 -11.878  -5.506  0.00  0.00    +0.000 C 
ATOM      3  C   UNL     1      13.537 -11.738  -6.722  0.00  0.00    +0.000 A 
ATOM      4  C   UNL     1      12.991 -11.816  -7.999  0.00  0.00    +0.000 A 
ATOM      5  C   UNL     1      13.810 -11.714  -9.136  0.00  0.00    +0.000 A 
ATOM      6  C   UNL     1      15.205 -11.555  -9.057  0.00  0.00    +0.000 A 
ATOM      7  C   UNL     1      15.722 -11.477  -7.751  0.00  0.00    +0.000 A 
ATOM      8  C   UNL     1      14.915 -11.575  -6.606  0.00  0.00    +0.000 A 
ENDBRANCH   1   6
BRANCH   1   9
ATOM      9  C   UNL     1      15.514 -10.707 -11.387  0.00  0.00    +0.000 C 
BRANCH   9  10
ATOM     10  C   UNL     1      15.850 -11.430 -12.714  0.00  0.00    +0.000 C 
ATOM     11  C   UNL     1      14.589 -11.677 -13.534  0.00  0.00    +0.000 C 
BRANCH  10  12
ATOM     12  O   UNL     1      16.752 -10.651 -13.512  0.00  0.00    +0.000 OA
ATOM     13  H   UNL     1      16.281 -10.372 -14.314  0.00  0.00    +0.000 HD
ENDBRANCH  10  12
ENDBRANCH   9  10
ENDBRANCH   1   9
BRANCH   1  14
ATOM     14  C   UNL     1      17.108 -12.400 -10.465  0.00  0.00    +0.000 C 
BRANCH  14  15
ATOM     15  C   UNL     1      18.505 -11.792 -10.192  0.00  0.00    +0.000 C 
ATOM     16  C   UNL     1      19.424 -11.831 -11.407  0.00  0.00    +0.000 C 
BRANCH  15  17
ATOM     17  O   UNL     1      18.413 -10.438  -9.751  0.00  0.00    +0.000 OA
ATOM     18  H   UNL     1      19.337 -10.161  -9.589  0.00  0.00    +0.000 HD
ENDBRANCH  15  17
ENDBRANCH  14  15
ENDBRANCH   1  14
TORSDOF 7
ENDMDL
MODEL 7
REMARK VINA RESULT:    -4.413      2.658      5.789
REMARK INTER + INTRA:          -6.803
REMARK INTER:                  -6.345
REMARK INTRA:                  -0.458
REMARK UNBOUND:                -0.842
REMARK  Name = 
REMARK  10 active torsions:
REMARK  status: ('A' for Active; 'I' for Inactive)
REMARK    1  A    between atoms: C_1  and  C_2
REMARK    2  A    between atoms: C_5  and  N_8
REMARK    3  A    between atoms: N_8  and  C_9
REMARK    4  A    between atoms: N_8  and  C_13
REMARK    5  A    between atoms: C_9  and  C_10
REMARK    6  A    between atoms: C_10  and  C_11
REMARK    7  A    between atoms: C_10  and  O_12
REMARK    8  A    between atoms: C_13  and  C_14
REMARK    9  A    between atoms: C_14  and  C_15
REMARK   10  A    between atoms: C_14  and  O_16
REMARK                            x       y       z     vdW  Elec       q    Type
REMARK                         _______ _______ _______ _____ _____    ______ ____
ROOT
ATOM      1  N   UNL     1       3.932 -12.339  -2.477  0.00  0.00    +0.000 N 
ENDROOT
BRANCH   1   6
ATOM      2  C   UNL     1      -1.345 -11.689  -4.728  0.00  0.00    +0.000 C 
ATOM      3  C   UNL     1       0.030 -11.874  -4.162  0.00  0.00    +0.000 A 
ATOM      4  C   UNL     1       0.278 -12.832  -3.185  0.00  0.00    +0.000 A 
ATOM      5  C   UNL     1       1.562 -12.981  -2.637  0.00  0.00    +0.000 A 
ATOM      6  C   UNL     1       2.649 -12.172  -3.014  0.00  0.00    +0.000 A 
ATOM      7  C   UNL     1       2.363 -11.215  -4.005  0.00  0.00    +0.000 A 
ATOM      8  C   UNL     1       1.084 -11.058  -4.564  0.00  0.00    +0.000 A 
ENDBRANCH   1   6
BRANCH   1   9
ATOM      9  C   UNL     1       5.093 -12.547  -3.376  0.00  0.00    +0.000 C 
BRANCH   9  10
ATOM     10  C   UNL     1       5.861 -11.237  -3.678  0.00  0.00    +0.000 C 
ATOM     11  C   UNL     1       7.239 -11.250  -3.026  0.00  0.00    +0.000 C 
BRANCH  10  12
ATOM     12  O   UNL     1       6.038 -11.057  -5.089  0.00  0.00    +0.000 OA
ATOM     13  H   UNL     1       6.991 -10.994  -5.268  0.00  0.00    +0.000 HD
ENDBRANCH  10  12
ENDBRANCH   9  10
ENDBRANCH   1   9
BRANCH   1  14
ATOM     14  C   UNL     1       4.126 -12.819  -1.085  0.00  0.00    +0.000 C 
BRANCH  14  15
ATOM     15  C   UNL     1       4.008 -11.674  -0.050  0.00  0.00    +0.000 C 
ATOM     16  C   UNL     1       4.512 -10.336  -0.577  0.00  0.00    +0.000 C 
BRANCH  15  17
ATOM     17  O   UNL     1       2.662 -11.497   0.388  0.00  0.00    +0.000 OA
ATOM     18  H   UNL     1       2.490 -12.250   0.989  0.00  0.00    +0.000 HD
ENDBRANCH  15  17
ENDBRANCH  14  15
ENDBRANCH   1  14
TORSDOF 7
ENDMDL
MODEL 8
REMARK VINA RESULT:    -4.411      9.566     12.134
REMARK INTER + INTRA:          -6.800
REMARK INTER:                  -6.233
REMARK INTRA:                  -0.567
REMARK UNBOUND:                -0.842
REMARK  Name = 
REMARK  10 active torsions:
REMARK  status: ('A' for Active; 'I' for Inactive)
REMARK    1  A    between atoms: C_1  and  C_2
REMARK    2  A    between atoms: C_5  and  N_8
REMARK    3  A    between atoms: N_8  and  C_9
REMARK    4  A    between atoms: N_8  and  C_13
REMARK    5  A    between atoms: C_9  and  C_10
REMARK    6  A    between atoms: C_10  and  C_11
REMARK    7  A    between atoms: C_10  and  O_12
REMARK    8  A    between atoms: C_13  and  C_14
REMARK    9  A    between atoms: C_14  and  C_15
REMARK   10  A    between atoms: C_14  and  O_16
REMARK                            x       y       z     vdW  Elec       q    Type
REMARK                         _______ _______ _______ _____ _____    ______ ____
ROOT
ATOM      1  N   UNL     1      14.741 -12.055 -10.375  0.00  0.00    +0.000 N 
ENDROOT
BRANCH   1   6
ATOM      2  C   UNL     1      13.439 -11.043  -4.842  0.00  0.00    +0.000 C 
ATOM      3  C   UNL     1      13.776 -11.330  -6.273  0.00  0.00    +0.000 A 
ATOM      4  C   UNL     1      15.099 -11.436  -6.689  0.00  0.00    +0.000 A 
ATOM      5  C   UNL     1      15.409 -11.675  -8.037  0.00  0.00    +0.000 A 
ATOM      6  C   UNL     1      14.425 -11.797  -9.035  0.00  0.00    +0.000 A 
ATOM      7  C   UNL     1      13.098 -11.687  -8.578  0.00  0.00    +0.000 A 
ATOM      8  C   UNL     1      12.774 -11.450  -7.232  0.00  0.00    +0.000 A 
ENDBRANCH   1   6
BRANCH   1   9
ATOM      9  C   UNL     1      15.449 -13.304 -10.744  0.00  0.00    +0.000 C 
BRANCH   9  10
ATOM     10  C   UNL     1      14.497 -14.518 -10.872  0.00  0.00    +0.000 C 
ATOM     11  C   UNL     1      14.490 -15.342  -9.590  0.00  0.00    +0.000 C 
BRANCH  10  12
ATOM     12  O   UNL     1      13.152 -14.093 -11.134  0.00  0.00    +0.000 OA
ATOM     13  H   UNL     1      13.164 -13.134 -11.289  0.00  0.00    +0.000 HD
ENDBRANCH  10  12
ENDBRANCH   9  10
ENDBRANCH   1   9
BRANCH   1  14
ATOM     14  C   UNL     1      14.864 -10.951 -11.362  0.00  0.00    +0.000 C 
BRANCH  14  15
ATOM     15  C   UNL     1      15.468 -11.432 -12.703  0.00  0.00    +0.000 C 
ATOM     16  C   UNL     1      14.528 -11.240 -13.887  0.00  0.00    +0.000 C 
BRANCH  15  17
ATOM     17  O   UNL     1      16.694 -10.764 -12.999  0.00  0.00    +0.000 OA
ATOM     18  H   UNL     1      17.089 -10.564 -12.127  0.00  0.00    +0.000 HD
ENDBRANCH  15  17
ENDBRANCH  14  15
ENDBRANCH   1  14
TORSDOF 7
ENDMDL
MODEL 9
REMARK VINA RESULT:    -4.387      2.083      2.603
REMARK INTER + INTRA:          -6.767
REMARK INTER:                  -6.283
REMARK INTRA:                  -0.485
REMARK UNBOUND:                -0.842
REMARK  Name = 
REMARK  10 active torsions:
REMARK  status: ('A' for Active; 'I' for Inactive)
REMARK    1  A    between atoms: C_1  and  C_2
REMARK    2  A    between atoms: C_5  and  N_8
REMARK    3  A    between atoms: N_8  and  C_9
REMARK    4  A    between atoms: N_8  and  C_13
REMARK    5  A    between atoms: C_9  and  C_10
REMARK    6  A    between atoms: C_10  and  C_11
REMARK    7  A    between atoms: C_10  and  O_12
REMARK    8  A    between atoms: C_13  and  C_14
REMARK    9  A    between atoms: C_14  and  C_15
REMARK   10  A    between atoms: C_14  and  O_16
REMARK                            x       y       z     vdW  Elec       q    Type
REMARK                         _______ _______ _______ _____ _____    ______ ____
ROOT
ATOM      1  N   UNL     1       5.715 -10.556  -1.752  0.00  0.00    +0.000 N 
ENDROOT
BRANCH   1   6
ATOM      2  C   UNL     1      11.096 -12.594  -2.211  0.00  0.00    +0.000 C 
ATOM      3  C   UNL     1       9.694 -12.077  -2.113  0.00  0.00    +0.000 A 
ATOM      4  C   UNL     1       9.346 -10.848  -2.662  0.00  0.00    +0.000 A 
ATOM      5  C   UNL     1       8.037 -10.354  -2.541  0.00  0.00    +0.000 A 
ATOM      6  C   UNL     1       7.023 -11.045  -1.852  0.00  0.00    +0.000 A 
ATOM      7  C   UNL     1       7.410 -12.285  -1.312  0.00  0.00    +0.000 A 
ATOM      8  C   UNL     1       8.715 -12.791  -1.428  0.00  0.00    +0.000 A 
ENDBRANCH   1   6
BRANCH   1   9
ATOM      9  C   UNL     1       4.938 -10.760  -0.506  0.00  0.00    +0.000 C 
BRANCH   9  10
ATOM     10  C   UNL     1       3.655 -11.597  -0.729  0.00  0.00    +0.000 C 
ATOM     11  C   UNL     1       3.984 -13.081  -0.841  0.00  0.00    +0.000 C 
BRANCH  10  12
ATOM     12  O   UNL     1       2.734 -11.427   0.357  0.00  0.00    +0.000 OA
ATOM     13  H   UNL     1       1.846 -11.297  -0.018  0.00  0.00    +0.000 HD
ENDBRANCH  10  12
ENDBRANCH   9  10
ENDBRANCH   1   9
BRANCH   1  14
ATOM     14  C   UNL     1       4.895 -10.300  -2.964  0.00  0.00    +0.000 C 
BRANCH  14  15
ATOM     15  C   UNL     1       4.973 -11.466  -3.979  0.00  0.00    +0.000 C 
ATOM     16  C   UNL     1       3.606 -11.919  -4.478  0.00  0.00    +0.000 C 
BRANCH  15  17
ATOM     17  O   UNL     1       5.766 -11.123  -5.115  0.00  0.00    +0.000 OA
ATOM     18  H   UNL     1       5.204 -11.331  -5.888  0.00  0.00    +0.000 HD
ENDBRANCH  15  17
ENDBRANCH  14  15
ENDBRANCH   1  14
TORSDOF 7
ENDMDL
