MODEL 1
REMARK VINA RESULT:    -4.925      0.000      0.000
REMARK INTER + INTRA:          -7.482
REMARK INTER:                  -6.653
REMARK INTRA:                  -0.830
REMARK UNBOUND:                -0.830
REMARK  Name = 
REMARK  10 active torsions:
REMARK  status: ('A' for Active; 'I' for Inactive)
REMARK    1  A    between atoms: C_1  and  C_2
REMARK    2  A    between atoms: C_5  and  N_8
REMARK    3  A    between atoms: N_8  and  C_9
REMARK    4  A    between atoms: N_8  and  C_13
REMARK    5  A    between atoms: C_9  and  C_10
REMARK    6  A    between atoms: C_10  and  C_11
REMARK    7  A    between atoms: C_10  and  O_12
REMARK    8  A    between atoms: C_13  and  C_14
REMARK    9  A    between atoms: C_14  and  C_15
REMARK   10  A    between atoms: C_14  and  O_16
REMARK                            x       y       z     vdW  Elec       q    Type
REMARK                         _______ _______ _______ _____ _____    ______ ____
ROOT
ATOM      1  N   UNL     1       4.402 -10.788  -3.148  0.00  0.00    +0.000 N 
ENDROOT
BRANCH   1   6
ATOM      2  C   UNL     1      10.090 -11.475  -3.861  0.00  0.00    +0.000 C 
ATOM      3  C   UNL     1       8.615 -11.276  -3.691  0.00  0.00    +0.000 A 
ATOM      4  C   UNL     1       8.111 -10.561  -2.609  0.00  0.00    +0.000 A 
ATOM      5  C   UNL     1       6.726 -10.403  -2.438  0.00  0.00    +0.000 A 
ATOM      6  C   UNL     1       5.782 -10.965  -3.315  0.00  0.00    +0.000 A 
ATOM      7  C   UNL     1       6.327 -11.680  -4.398  0.00  0.00    +0.000 A 
ATOM      8  C   UNL     1       7.710 -11.843  -4.582  0.00  0.00    +0.000 A 
ENDBRANCH   1   6
BRANCH   1   9
ATOM      9  C   UNL     1       3.613 -11.777  -2.376  0.00  0.00    +0.000 C 
BRANCH   9  10
ATOM     10  C   UNL     1       3.502 -11.415  -0.874  0.00  0.00    +0.000 C 
ATOM     11  C   UNL     1       4.551 -12.159  -0.056  0.00  0.00    +0.000 C 
BRANCH  10  12
ATOM     12  O   UNL     1       3.693 -10.009  -0.668  0.00  0.00    +0.000 OA
ATOM     13  H   UNL     1       3.524  -9.555  -1.511  0.00  0.00    +0.000 HD
ENDBRANCH  10  12
ENDBRANCH   9  10
ENDBRANCH   1   9
BRANCH   1  14
ATOM     14  C   UNL     1       3.613  -9.966  -4.101  0.00  0.00    +0.000 C 
BRANCH  14  15
ATOM     15  C   UNL     1       3.919  -8.455  -3.963  0.00  0.00    +0.000 C 
ATOM     16  C   UNL     1       2.927  -7.571  -4.710  0.00  0.00    +0.000 C 
BRANCH  15  17
ATOM     17  O   UNL     1       3.936  -8.043  -2.597  0.00  0.00    +0.000 OA
ATOM     18  H   UNL     1       3.880  -8.873  -2.082  0.00  0.00    +0.000 HD
ENDBRANCH  15  17
ENDBRANCH  14  15
ENDBRANCH   1  14
TORSDOF 7
ENDMDL
MODEL 2
REMARK VINA RESULT:    -4.635      2.451      4.056
REMARK INTER + INTRA:          -7.091
REMARK INTER:                  -6.554
REMARK INTRA:                  -0.537
REMARK UNBOUND:                -0.830
REMARK  Name = 
REMARK  10 active torsions:
REMARK  status: ('A' for Active; 'I' for Inactive)
REMARK    1  A    between atoms: C_1  and  C_2
REMARK    2  A    between atoms: C_5  and  N_8
REMARK    3  A    between atoms: N_8  and  C_9
REMARK    4  A    between atoms: N_8  and  C_13
REMARK    5  A    between atoms: C_9  and  C_10
REMARK    6  A    between atoms: C_10  and  C_11
REMARK    7  A    between atoms: C_10  and  O_12
REMARK    8  A    between atoms: C_13  and  C_14
REMARK    9  A    between atoms: C_14  and  C_15
REMARK   10  A    between atoms: C_14  and  O_16
REMARK                            x       y       z     vdW  Elec       q    Type
REMARK                         _______ _______ _______ _____ _____    ______ ____
ROOT
ATOM      1  N   UNL     1       5.735 -11.037  -1.351  0.00  0.00    +0.000 N 
ENDROOT
BRANCH   1   6
ATOM      2  C   UNL     1      10.637 -13.934  -0.398  0.00  0.00    +0.000 C 
ATOM      3  C   UNL     1       9.355 -13.203  -0.655  0.00  0.00    +0.000 A 
ATOM      4  C   UNL     1       9.162 -12.494  -1.836  0.00  0.00    +0.000 A 
ATOM      5  C   UNL     1       7.970 -11.786  -2.059  0.00  0.00    +0.000 A 
ATOM      6  C   UNL     1       6.930 -11.730  -1.114  0.00  0.00    +0.000 A 
ATOM      7  C   UNL     1       7.159 -12.459   0.067  0.00  0.00    +0.000 A 
ATOM      8  C   UNL     1       8.345 -13.174   0.302  0.00  0.00    +0.000 A 
ENDBRANCH   1   6
BRANCH   1   9
ATOM      9  C   UNL     1       5.626 -10.120  -2.511  0.00  0.00    +0.000 C 
BRANCH   9  10
ATOM     10  C   UNL     1       4.873 -10.753  -3.707  0.00  0.00    +0.000 C 
ATOM     11  C   UNL     1       3.653  -9.921  -4.085  0.00  0.00    +0.000 C 
BRANCH  10  12
ATOM     12  O   UNL     1       5.722 -10.845  -4.859  0.00  0.00    +0.000 OA
ATOM     13  H   UNL     1       5.407 -11.582  -5.408  0.00  0.00    +0.000 HD
ENDBRANCH  10  12
ENDBRANCH   9  10
ENDBRANCH   1   9
BRANCH   1  14
ATOM     14  C   UNL     1       4.767 -10.777  -0.255  0.00  0.00    +0.000 C 
BRANCH  14  15
ATOM     15  C   UNL     1       3.377 -11.390  -0.546  0.00  0.00    +0.000 C 
ATOM     16  C   UNL     1       3.451 -12.809  -1.099  0.00  0.00    +0.000 C 
BRANCH  15  17
ATOM     17  O   UNL     1       2.556 -11.414   0.622  0.00  0.00    +0.000 OA
ATOM     18  H   UNL     1       2.904 -10.696   1.189  0.00  0.00    +0.000 HD
ENDBRANCH  15  17
ENDBRANCH  14  15
ENDBRANCH   1  14
TORSDOF 7
ENDMDL
MODEL 3
REMARK VINA RESULT:    -4.539     10.165     13.231
REMARK INTER + INTRA:          -6.961
REMARK INTER:                  -6.367
REMARK INTRA:                  -0.594
REMARK UNBOUND:                -0.830
REMARK  Name = 
REMARK  10 active torsions:
REMARK  status: ('A' for Active; 'I' for Inactive)
REMARK    1  A    between atoms: C_1  and  C_2
REMARK    2  A    between atoms: C_5  and  N_8
REMARK    3  A    between atoms: N_8  and  C_9
REMARK    4  A    between atoms: N_8  and  C_13
REMARK    5  A    between atoms: C_9  and  C_10
REMARK    6  A    between atoms: C_10  and  C_11
REMARK    7  A    between atoms: C_10  and  O_12
REMARK    8  A    between atoms: C_13  and  C_14
REMARK    9  A    between atoms: C_14  and  C_15
REMARK   10  A    between atoms: C_14  and  O_16
REMARK                            x       y       z     vdW  Elec       q    Type
REMARK                         _______ _______ _______ _____ _____    ______ ____
ROOT
ATOM      1  N   UNL     1      15.697 -11.778 -10.427  0.00  0.00    +0.000 N 
ENDROOT
BRANCH   1   6
ATOM      2  C   UNL     1      12.898 -11.508  -5.385  0.00  0.00    +0.000 C 
ATOM      3  C   UNL     1      13.623 -11.553  -6.696  0.00  0.00    +0.000 A 
ATOM      4  C   UNL     1      12.932 -11.744  -7.888  0.00  0.00    +0.000 A 
ATOM      5  C   UNL     1      13.619 -11.815  -9.110  0.00  0.00    +0.000 A 
ATOM      6  C   UNL     1      15.020 -11.725  -9.203  0.00  0.00    +0.000 A 
ATOM      7  C   UNL     1      15.685 -11.530  -7.978  0.00  0.00    +0.000 A 
ATOM      8  C   UNL     1      15.010 -11.455  -6.749  0.00  0.00    +0.000 A 
ENDBRANCH   1   6
BRANCH   1   9
ATOM      9  C   UNL     1      16.987 -12.501 -10.533  0.00  0.00    +0.000 C 
BRANCH   9  10
ATOM     10  C   UNL     1      18.212 -11.573 -10.342  0.00  0.00    +0.000 C 
ATOM     11  C   UNL     1      19.156 -12.129  -9.282  0.00  0.00    +0.000 C 
BRANCH  10  12
ATOM     12  O   UNL     1      18.949 -11.435 -11.564  0.00  0.00    +0.000 OA
ATOM     13  H   UNL     1      18.709 -12.175 -12.146  0.00  0.00    +0.000 HD
ENDBRANCH  10  12
ENDBRANCH   9  10
ENDBRANCH   1   9
BRANCH   1  14
ATOM     14  C   UNL     1      15.469 -10.752 -11.477  0.00  0.00    +0.000 C 
BRANCH  14  15
ATOM     15  C   UNL     1      15.720 -11.306 -12.900  0.00  0.00    +0.000 C 
ATOM     16  C   UNL     1      14.512 -11.167 -13.819  0.00  0.00    +0.000 C 
BRANCH  15  17
ATOM     17  O   UNL     1      16.829 -10.665 -13.528  0.00  0.00    +0.000 OA
ATOM     18  H   UNL     1      16.570 -10.575 -14.467  0.00  0.00    +0.000 HD
ENDBRANCH  15  17
ENDBRANCH  14  15
ENDBRANCH   1  14
TORSDOF 7
ENDMDL
MODEL 4
REMARK VINA RESULT:    -4.507     11.135     13.922
REMARK INTER + INTRA:          -6.918
REMARK INTER:                  -6.378
REMARK INTRA:                  -0.540
REMARK UNBOUND:                -0.830
REMARK  Name = 
REMARK  10 active torsions:
REMARK  status: ('A' for Active; 'I' for Inactive)
REMARK    1  A    between atoms: C_1  and  C_2
REMARK    2  A    between atoms: C_5  and  N_8
REMARK    3  A    between atoms: N_8  and  C_9
REMARK    4  A    between atoms: N_8  and  C_13
REMARK    5  A    between atoms: C_9  and  C_10
REMARK    6  A    between atoms: C_10  and  C_11
REMARK    7  A    between atoms: C_10  and  O_12
REMARK    8  A    between atoms: C_13  and  C_14
REMARK    9  A    between atoms: C_14  and  C_15
REMARK   10  A    between atoms: C_14  and  O_16
REMARK                            x       y       z     vdW  Elec       q    Type
REMARK                         _______ _______ _______ _____ _____    ______ ____
ROOT
ATOM      1  N   UNL     1      15.807 -11.685 -11.006  0.00  0.00    +0.000 N 
ENDROOT
BRANCH   1   6
ATOM      2  C   UNL     1      14.752 -11.679 -16.681  0.00  0.00    +0.000 C 
ATOM      3  C   UNL     1      15.037 -11.703 -15.211  0.00  0.00    +0.000 A 
ATOM      4  C   UNL     1      14.108 -12.217 -14.312  0.00  0.00    +0.000 A 
ATOM      5  C   UNL     1      14.368 -12.209 -12.932  0.00  0.00    +0.000 A 
ATOM      6  C   UNL     1      15.546 -11.672 -12.382  0.00  0.00    +0.000 A 
ATOM      7  C   UNL     1      16.463 -11.163 -13.320  0.00  0.00    +0.000 A 
ATOM      8  C   UNL     1      16.216 -11.167 -14.703  0.00  0.00    +0.000 A 
ENDBRANCH   1   6
BRANCH   1   9
ATOM      9  C   UNL     1      15.158 -12.696 -10.136  0.00  0.00    +0.000 C 
BRANCH   9  10
ATOM     10  C   UNL     1      14.138 -12.075  -9.151  0.00  0.00    +0.000 C 
ATOM     11  C   UNL     1      12.832 -12.860  -9.152  0.00  0.00    +0.000 C 
BRANCH  10  12
ATOM     12  O   UNL     1      14.652 -12.068  -7.812  0.00  0.00    +0.000 OA
ATOM     13  H   UNL     1      15.414 -12.671  -7.779  0.00  0.00    +0.000 HD
ENDBRANCH  10  12
ENDBRANCH   9  10
ENDBRANCH   1   9
BRANCH   1  14
ATOM     14  C   UNL     1      16.280 -10.466 -10.301  0.00  0.00    +0.000 C 
BRANCH  14  15
ATOM     15  C   UNL     1      17.589 -10.717  -9.515  0.00  0.00    +0.000 C 
ATOM     16  C   UNL     1      18.659 -11.420 -10.341  0.00  0.00    +0.000 C 
BRANCH  15  17
ATOM     17  O   UNL     1      18.144  -9.501  -9.015  0.00  0.00    +0.000 OA
ATOM     18  H   UNL     1      17.782  -9.411  -8.111  0.00  0.00    +0.000 HD
ENDBRANCH  15  17
ENDBRANCH  14  15
ENDBRANCH   1  14
TORSDOF 7
ENDMDL
MODEL 5
REMARK VINA RESULT:    -4.494      9.944     13.283
REMARK INTER + INTRA:          -6.900
REMARK INTER:                  -6.379
REMARK INTRA:                  -0.521
REMARK UNBOUND:                -0.830
REMARK  Name = 
REMARK  10 active torsions:
REMARK  status: ('A' for Active; 'I' for Inactive)
REMARK    1  A    between atoms: C_1  and  C_2
REMARK    2  A    between atoms: C_5  and  N_8
REMARK    3  A    between atoms: N_8  and  C_9
REMARK    4  A    between atoms: N_8  and  C_13
REMARK    5  A    between atoms: C_9  and  C_10
REMARK    6  A    between atoms: C_10  and  C_11
REMARK    7  A    between atoms: C_10  and  O_12
REMARK    8  A    between atoms: C_13  and  C_14
REMARK    9  A    between atoms: C_14  and  C_15
REMARK   10  A    between atoms: C_14  and  O_16
REMARK                            x       y       z     vdW  Elec       q    Type
REMARK                         _______ _______ _______ _____ _____    ______ ____
ROOT
ATOM      1  N   UNL     1      15.921 -11.425 -10.055  0.00  0.00    +0.000 N 
ENDROOT
BRANCH   1   6
ATOM      2  C   UNL     1      12.502 -11.902  -5.428  0.00  0.00    +0.000 C 
ATOM      3  C   UNL     1      13.386 -11.754  -6.628  0.00  0.00    +0.000 A 
ATOM      4  C   UNL     1      12.862 -11.822  -7.914  0.00  0.00    +0.000 A 
ATOM      5  C   UNL     1      13.700 -11.712  -9.036  0.00  0.00    +0.000 A 
ATOM      6  C   UNL     1      15.094 -11.553  -8.932  0.00  0.00    +0.000 A 
ATOM      7  C   UNL     1      15.589 -11.486  -7.616  0.00  0.00    +0.000 A 
ATOM      8  C   UNL     1      14.761 -11.592  -6.486  0.00  0.00    +0.000 A 
ENDBRANCH   1   6
BRANCH   1   9
ATOM      9  C   UNL     1      15.436 -10.707 -11.258  0.00  0.00    +0.000 C 
BRANCH   9  10
ATOM     10  C   UNL     1      15.785 -11.440 -12.576  0.00  0.00    +0.000 C 
ATOM     11  C   UNL     1      14.522 -11.807 -13.346  0.00  0.00    +0.000 C 
BRANCH  10  12
ATOM     12  O   UNL     1      16.598 -10.617 -13.423  0.00  0.00    +0.000 OA
ATOM     13  H   UNL     1      17.457 -10.491 -12.986  0.00  0.00    +0.000 HD
ENDBRANCH  10  12
ENDBRANCH   9  10
ENDBRANCH   1   9
BRANCH   1  14
ATOM     14  C   UNL     1      17.034 -12.377 -10.302  0.00  0.00    +0.000 C 
BRANCH  14  15
ATOM     15  C   UNL     1      18.420 -11.735 -10.049  0.00  0.00    +0.000 C 
ATOM     16  C   UNL     1      19.341 -11.799 -11.261  0.00  0.00    +0.000 C 
BRANCH  15  17
ATOM     17  O   UNL     1      18.303 -10.368  -9.655  0.00  0.00    +0.000 OA
ATOM     18  H   UNL     1      17.914  -9.914 -10.430  0.00  0.00    +0.000 HD
ENDBRANCH  15  17
ENDBRANCH  14  15
ENDBRANCH   1  14
TORSDOF 7
ENDMDL
MODEL 6
REMARK VINA RESULT:    -4.452      1.188      3.112
REMARK INTER + INTRA:          -6.844
REMARK INTER:                  -6.268
REMARK INTRA:                  -0.576
REMARK UNBOUND:                -0.830
REMARK  Name = 
REMARK  10 active torsions:
REMARK  status: ('A' for Active; 'I' for Inactive)
REMARK    1  A    between atoms: C_1  and  C_2
REMARK    2  A    between atoms: C_5  and  N_8
REMARK    3  A    between atoms: N_8  and  C_9
REMARK    4  A    between atoms: N_8  and  C_13
REMARK    5  A    between atoms: C_9  and  C_10
REMARK    6  A    between atoms: C_10  and  C_11
REMARK    7  A    between atoms: C_10  and  O_12
REMARK    8  A    between atoms: C_13  and  C_14
REMARK    9  A    between atoms: C_14  and  C_15
REMARK   10  A    between atoms: C_14  and  O_16
REMARK                            x       y       z     vdW  Elec       q    Type
REMARK                         _______ _______ _______ _____ _____    ______ ____
ROOT
ATOM      1  N   UNL     1       5.313 -10.856  -2.122  0.00  0.00    +0.000 N 
ENDROOT
BRANCH   1   6
ATOM      2  C   UNL     1      10.514 -11.787  -4.448  0.00  0.00    +0.000 C 
ATOM      3  C   UNL     1       9.160 -11.526  -3.861  0.00  0.00    +0.000 A 
ATOM      4  C   UNL     1       9.005 -10.669  -2.777  0.00  0.00    +0.000 A 
ATOM      5  C   UNL     1       7.738 -10.452  -2.211  0.00  0.00    +0.000 A 
ATOM      6  C   UNL     1       6.576 -11.092  -2.679  0.00  0.00    +0.000 A 
ATOM      7  C   UNL     1       6.770 -11.950  -3.777  0.00  0.00    +0.000 A 
ATOM      8  C   UNL     1       8.031 -12.174  -4.354  0.00  0.00    +0.000 A 
ENDBRANCH   1   6
BRANCH   1   9
ATOM      9  C   UNL     1       4.657  -9.538  -2.298  0.00  0.00    +0.000 C 
BRANCH   9  10
ATOM     10  C   UNL     1       4.207  -9.282  -3.758  0.00  0.00    +0.000 C 
ATOM     11  C   UNL     1       3.231 -10.355  -4.223  0.00  0.00    +0.000 C 
BRANCH  10  12
ATOM     12  O   UNL     1       3.559  -8.008  -3.880  0.00  0.00    +0.000 OA
ATOM     13  H   UNL     1       4.077  -7.357  -3.379  0.00  0.00    +0.000 HD
ENDBRANCH  10  12
ENDBRANCH   9  10
ENDBRANCH   1   9
BRANCH   1  14
ATOM     14  C   UNL     1       4.823 -11.647  -0.964  0.00  0.00    +0.000 C 
BRANCH  14  15
ATOM     15  C   UNL     1       3.323 -11.394  -0.677  0.00  0.00    +0.000 C 
ATOM     16  C   UNL     1       2.404 -12.400  -1.360  0.00  0.00    +0.000 C 
BRANCH  15  17
ATOM     17  O   UNL     1       3.043 -11.419   0.722  0.00  0.00    +0.000 OA
ATOM     18  H   UNL     1       2.133 -11.771   0.792  0.00  0.00    +0.000 HD
ENDBRANCH  15  17
ENDBRANCH  14  15
ENDBRANCH   1  14
TORSDOF 7
ENDMDL
MODEL 7
REMARK VINA RESULT:    -4.384      2.075      2.574
REMARK INTER + INTRA:          -6.752
REMARK INTER:                  -6.277
REMARK INTRA:                  -0.475
REMARK UNBOUND:                -0.830
REMARK  Name = 
REMARK  10 active torsions:
REMARK  status: ('A' for Active; 'I' for Inactive)
REMARK    1  A    between atoms: C_1  and  C_2
REMARK    2  A    between atoms: C_5  and  N_8
REMARK    3  A    between atoms: N_8  and  C_9
REMARK    4  A    between atoms: N_8  and  C_13
REMARK    5  A    between atoms: C_9  and  C_10
REMARK    6  A    between atoms: C_10  and  C_11
REMARK    7  A    between atoms: C_10  and  O_12
REMARK    8  A    between atoms: C_13  and  C_14
REMARK    9  A    between atoms: C_14  and  C_15
REMARK   10  A    between atoms: C_14  and  O_16
REMARK                            x       y       z     vdW  Elec       q    Type
REMARK                         _______ _______ _______ _____ _____    ______ ____
ROOT
ATOM      1  N   UNL     1       5.696 -10.552  -1.767  0.00  0.00    +0.000 N 
ENDROOT
BRANCH   1   6
ATOM      2  C   UNL     1      11.077 -12.590  -2.232  0.00  0.00    +0.000 C 
ATOM      3  C   UNL     1       9.675 -12.073  -2.133  0.00  0.00    +0.000 A 
ATOM      4  C   UNL     1       9.335 -10.827  -2.651  0.00  0.00    +0.000 A 
ATOM      5  C   UNL     1       8.025 -10.334  -2.528  0.00  0.00    +0.000 A 
ATOM      6  C   UNL     1       7.004 -11.042  -1.868  0.00  0.00    +0.000 A 
ATOM      7  C   UNL     1       7.383 -12.297  -1.359  0.00  0.00    +0.000 A 
ATOM      8  C   UNL     1       8.689 -12.803  -1.477  0.00  0.00    +0.000 A 
ENDBRANCH   1   6
BRANCH   1   9
ATOM      9  C   UNL     1       4.927 -10.741  -0.513  0.00  0.00    +0.000 C 
BRANCH   9  10
ATOM     10  C   UNL     1       3.633 -11.565  -0.722  0.00  0.00    +0.000 C 
ATOM     11  C   UNL     1       3.950 -13.049  -0.868  0.00  0.00    +0.000 C 
BRANCH  10  12
ATOM     12  O   UNL     1       2.739 -11.409   0.389  0.00  0.00    +0.000 OA
ATOM     13  H   UNL     1       2.167 -10.645   0.210  0.00  0.00    +0.000 HD
ENDBRANCH  10  12
ENDBRANCH   9  10
ENDBRANCH   1   9
BRANCH   1  14
ATOM     14  C   UNL     1       4.868 -10.314  -2.977  0.00  0.00    +0.000 C 
BRANCH  14  15
ATOM     15  C   UNL     1       4.979 -11.471  -3.999  0.00  0.00    +0.000 C 
ATOM     16  C   UNL     1       3.626 -11.958  -4.503  0.00  0.00    +0.000 C 
BRANCH  15  17
ATOM     17  O   UNL     1       5.766 -11.102  -5.131  0.00  0.00    +0.000 OA
ATOM     18  H   UNL     1       6.614 -11.575  -5.014  0.00  0.00    +0.000 HD
ENDBRANCH  15  17
ENDBRANCH  14  15
ENDBRANCH   1  14
TORSDOF 7
ENDMDL
MODEL 8
REMARK VINA RESULT:    -4.384      2.551      5.374
REMARK INTER + INTRA:          -6.751
REMARK INTER:                  -6.340
REMARK INTRA:                  -0.411
REMARK UNBOUND:                -0.830
REMARK  Name = 
REMARK  10 active torsions:
REMARK  status: ('A' for Active; 'I' for Inactive)
REMARK    1  A    between atoms: C_1  and  C_2
REMARK    2  A    between atoms: C_5  and  N_8
REMARK    3  A    between atoms: N_8  and  C_9
REMARK    4  A    between atoms: N_8  and  C_13
REMARK    5  A    between atoms: C_9  and  C_10
REMARK    6  A    between atoms: C_10  and  C_11
REMARK    7  A    between atoms: C_10  and  O_12
REMARK    8  A    between atoms: C_13  and  C_14
REMARK    9  A    between atoms: C_14  and  C_15
REMARK   10  A    between atoms: C_14  and  O_16
REMARK                            x       y       z     vdW  Elec       q    Type
REMARK                         _______ _______ _______ _____ _____    ______ ____
ROOT
ATOM      1  N   UNL     1       4.987 -10.887  -3.922  0.00  0.00    +0.000 N 
ENDROOT
BRANCH   1   6
ATOM      2  C   UNL     1      -0.254 -12.823  -5.374  0.00  0.00    +0.000 C 
ATOM      3  C   UNL     1       1.103 -12.330  -4.974  0.00  0.00    +0.000 A 
ATOM      4  C   UNL     1       1.273 -11.055  -4.447  0.00  0.00    +0.000 A 
ATOM      5  C   UNL     1       2.552 -10.587  -4.102  0.00  0.00    +0.000 A 
ATOM      6  C   UNL     1       3.718 -11.352  -4.286  0.00  0.00    +0.000 A 
ATOM      7  C   UNL     1       3.508 -12.637  -4.820  0.00  0.00    +0.000 A 
ATOM      8  C   UNL     1       2.234 -13.118  -5.167  0.00  0.00    +0.000 A 
ENDBRANCH   1   6
BRANCH   1   9
ATOM      9  C   UNL     1       6.202 -11.581  -4.412  0.00  0.00    +0.000 C 
BRANCH   9  10
ATOM     10  C   UNL     1       7.482 -10.721  -4.275  0.00  0.00    +0.000 C 
ATOM     11  C   UNL     1       8.601 -11.510  -3.604  0.00  0.00    +0.000 C 
BRANCH  10  12
ATOM     12  O   UNL     1       7.952 -10.288  -5.559  0.00  0.00    +0.000 OA
ATOM     13  H   UNL     1       8.906 -10.117  -5.489  0.00  0.00    +0.000 HD
ENDBRANCH  10  12
ENDBRANCH   9  10
ENDBRANCH   1   9
BRANCH   1  14
ATOM     14  C   UNL     1       5.186 -10.074  -2.695  0.00  0.00    +0.000 C 
BRANCH  14  15
ATOM     15  C   UNL     1       4.640 -10.781  -1.431  0.00  0.00    +0.000 C 
ATOM     16  C   UNL     1       5.740 -11.337  -0.534  0.00  0.00    +0.000 C 
BRANCH  15  17
ATOM     17  O   UNL     1       3.830  -9.907  -0.646  0.00  0.00    +0.000 OA
ATOM     18  H   UNL     1       3.259  -9.444  -1.292  0.00  0.00    +0.000 HD
ENDBRANCH  15  17
ENDBRANCH  14  15
ENDBRANCH   1  14
TORSDOF 7
ENDMDL
