MODEL 1
REMARK VINA RESULT:    -3.775      0.000      0.000
REMARK INTER + INTRA:          -4.159
REMARK INTER:                  -4.107
REMARK INTRA:                  -0.052
REMARK UNBOUND:                -0.052
REMARK  Name = 
REMARK  3 active torsions:
REMARK  status: ('A' for Active; 'I' for Inactive)
REMARK    1  A    between atoms: C_1  and  O_2
REMARK    2  A    between atoms: O_2  and  C_3
REMARK    3  A    between atoms: C_8  and  O_9
REMARK                            x       y       z     vdW  Elec       q    Type
REMARK                         _______ _______ _______ _____ _____    ______ ____
ROOT
ATOM      1  C   UNL     1       5.345 -10.150  -2.305  0.00  0.00    +0.000 A 
ATOM      2  C   UNL     1       6.529 -10.615  -2.877  0.00  0.00    +0.000 A 
ATOM      3  C   UNL     1       7.328 -11.532  -2.183  0.00  0.00    +0.000 A 
ATOM      4  C   UNL     1       6.950 -11.985  -0.918  0.00  0.00    +0.000 A 
ATOM      5  C   UNL     1       5.769 -11.526  -0.340  0.00  0.00    +0.000 A 
ATOM      6  C   UNL     1       4.982 -10.616  -1.036  0.00  0.00    +0.000 A 
ENDROOT
BRANCH   1   8
ATOM      7  C   UNL     1       3.745  -9.707  -4.006  0.00  0.00    +0.000 C 
ATOM      8  O   UNL     1       4.469  -9.256  -2.867  0.00  0.00    +0.000 OA
ENDBRANCH   1   8
BRANCH   6   9
ATOM      9  O   UNL     1       3.826 -10.179  -0.447  0.00  0.00    +0.000 OA
ATOM     10  H   UNL     1       3.377  -9.657  -1.139  0.00  0.00    +0.000 HD
ENDBRANCH   6   9
TORSDOF 2
ENDMDL
MODEL 2
REMARK VINA RESULT:    -3.697      1.718      2.270
REMARK INTER + INTRA:          -4.073
REMARK INTER:                  -4.030
REMARK INTRA:                  -0.044
REMARK UNBOUND:                -0.052
REMARK  Name = 
REMARK  3 active torsions:
REMARK  status: ('A' for Active; 'I' for Inactive)
REMARK    1  A    between atoms: C_1  and  O_2
REMARK    2  A    between atoms: O_2  and  C_3
REMARK    3  A    between atoms: C_8  and  O_9
REMARK                            x       y       z     vdW  Elec       q    Type
REMARK                         _______ _______ _______ _____ _____    ______ ____
ROOT
ATOM      1  C   UNL     1       3.848 -11.133  -3.148  0.00  0.00    +0.000 A 
ATOM      2  C   UNL     1       4.607 -11.627  -4.208  0.00  0.00    +0.000 A 
ATOM      3  C   UNL     1       5.982 -11.369  -4.263  0.00  0.00    +0.000 A 
ATOM      4  C   UNL     1       6.602 -10.617  -3.263  0.00  0.00    +0.000 A 
ATOM      5  C   UNL     1       5.850 -10.120  -2.201  0.00  0.00    +0.000 A 
ATOM      6  C   UNL     1       4.487 -10.381  -2.154  0.00  0.00    +0.000 A 
ENDROOT
BRANCH   1   8
ATOM      7  C   UNL     1       1.691 -11.272  -4.137  0.00  0.00    +0.000 C 
ATOM      8  O   UNL     1       2.499 -11.306  -2.966  0.00  0.00    +0.000 OA
ENDBRANCH   1   8
BRANCH   6   9
ATOM      9  O   UNL     1       3.769  -9.882  -1.100  0.00  0.00    +0.000 OA
ATOM     10  H   UNL     1       2.987  -9.463  -1.509  0.00  0.00    +0.000 HD
ENDBRANCH   6   9
TORSDOF 2
ENDMDL
MODEL 3
REMARK VINA RESULT:    -3.518      1.639      2.651
REMARK INTER + INTRA:          -3.879
REMARK INTER:                  -3.827
REMARK INTRA:                  -0.052
REMARK UNBOUND:                -0.052
REMARK  Name = 
REMARK  3 active torsions:
REMARK  status: ('A' for Active; 'I' for Inactive)
REMARK    1  A    between atoms: C_1  and  O_2
REMARK    2  A    between atoms: O_2  and  C_3
REMARK    3  A    between atoms: C_8  and  O_9
REMARK                            x       y       z     vdW  Elec       q    Type
REMARK                         _______ _______ _______ _____ _____    ______ ____
ROOT
ATOM      1  C   UNL     1       4.241 -10.536  -3.070  0.00  0.00    +0.000 A 
ATOM      2  C   UNL     1       4.090 -10.479  -1.685  0.00  0.00    +0.000 A 
ATOM      3  C   UNL     1       5.156 -10.836  -0.850  0.00  0.00    +0.000 A 
ATOM      4  C   UNL     1       6.373 -11.250  -1.393  0.00  0.00    +0.000 A 
ATOM      5  C   UNL     1       6.532 -11.310  -2.776  0.00  0.00    +0.000 A 
ATOM      6  C   UNL     1       5.469 -10.954  -3.597  0.00  0.00    +0.000 A 
ENDROOT
BRANCH   1   8
ATOM      7  C   UNL     1       2.179 -11.104  -4.105  0.00  0.00    +0.000 C 
ATOM      8  O   UNL     1       3.287 -10.218  -4.003  0.00  0.00    +0.000 OA
ENDBRANCH   1   8
BRANCH   6   9
ATOM      9  O   UNL     1       5.649 -11.021  -4.953  0.00  0.00    +0.000 OA
ATOM     10  H   UNL     1       5.141 -10.266  -5.308  0.00  0.00    +0.000 HD
ENDBRANCH   6   9
TORSDOF 2
ENDMDL
MODEL 4
REMARK VINA RESULT:    -3.510      8.323      9.593
REMARK INTER + INTRA:          -3.870
REMARK INTER:                  -3.828
REMARK INTRA:                  -0.042
REMARK UNBOUND:                -0.052
REMARK  Name = 
REMARK  3 active torsions:
REMARK  status: ('A' for Active; 'I' for Inactive)
REMARK    1  A    between atoms: C_1  and  O_2
REMARK    2  A    between atoms: O_2  and  C_3
REMARK    3  A    between atoms: C_8  and  O_9
REMARK                            x       y       z     vdW  Elec       q    Type
REMARK                         _______ _______ _______ _____ _____    ______ ____
ROOT
ATOM      1  C   UNL     1      12.849 -12.168  -7.995  0.00  0.00    +0.000 A 
ATOM      2  C   UNL     1      14.047 -12.121  -7.283  0.00  0.00    +0.000 A 
ATOM      3  C   UNL     1      14.132 -11.365  -6.107  0.00  0.00    +0.000 A 
ATOM      4  C   UNL     1      13.025 -10.654  -5.641  0.00  0.00    +0.000 A 
ATOM      5  C   UNL     1      11.825 -10.696  -6.347  0.00  0.00    +0.000 A 
ATOM      6  C   UNL     1      11.749 -11.449  -7.512  0.00  0.00    +0.000 A 
ENDROOT
BRANCH   1   8
ATOM      7  C   UNL     1      13.722 -12.978 -10.051  0.00  0.00    +0.000 C 
ATOM      8  O   UNL     1      12.623 -12.864  -9.156  0.00  0.00    +0.000 OA
ENDBRANCH   1   8
BRANCH   6   9
ATOM      9  O   UNL     1      10.559 -11.475  -8.188  0.00  0.00    +0.000 OA
ATOM     10  H   UNL     1      10.124 -12.299  -7.895  0.00  0.00    +0.000 HD
ENDBRANCH   6   9
TORSDOF 2
ENDMDL
MODEL 5
REMARK VINA RESULT:    -3.510      7.035      8.470
REMARK INTER + INTRA:          -3.870
REMARK INTER:                  -3.825
REMARK INTRA:                  -0.046
REMARK UNBOUND:                -0.052
REMARK  Name = 
REMARK  3 active torsions:
REMARK  status: ('A' for Active; 'I' for Inactive)
REMARK    1  A    between atoms: C_1  and  O_2
REMARK    2  A    between atoms: O_2  and  C_3
REMARK    3  A    between atoms: C_8  and  O_9
REMARK                            x       y       z     vdW  Elec       q    Type
REMARK                         _______ _______ _______ _____ _____    ______ ____
ROOT
ATOM      1  C   UNL     1      11.557 -11.227  -6.173  0.00  0.00    +0.000 A 
ATOM      2  C   UNL     1      12.811 -11.265  -5.565  0.00  0.00    +0.000 A 
ATOM      3  C   UNL     1      13.957 -11.493  -6.338  0.00  0.00    +0.000 A 
ATOM      4  C   UNL     1      13.853 -11.684  -7.718  0.00  0.00    +0.000 A 
ATOM      5  C   UNL     1      12.604 -11.647  -8.332  0.00  0.00    +0.000 A 
ATOM      6  C   UNL     1      11.473 -11.420  -7.557  0.00  0.00    +0.000 A 
ENDROOT
BRANCH   1   8
ATOM      7  C   UNL     1      10.158 -11.698  -4.310  0.00  0.00    +0.000 C 
ATOM      8  O   UNL     1      10.357 -11.016  -5.543  0.00  0.00    +0.000 OA
ENDBRANCH   1   8
BRANCH   6   9
ATOM      9  O   UNL     1      10.256 -11.388  -8.184  0.00  0.00    +0.000 OA
ATOM     10  H   UNL     1      10.423 -10.927  -9.027  0.00  0.00    +0.000 HD
ENDBRANCH   6   9
TORSDOF 2
ENDMDL
MODEL 6
REMARK VINA RESULT:    -3.484      1.276      3.082
REMARK INTER + INTRA:          -3.843
REMARK INTER:                  -3.805
REMARK INTRA:                  -0.038
REMARK UNBOUND:                -0.052
REMARK  Name = 
REMARK  3 active torsions:
REMARK  status: ('A' for Active; 'I' for Inactive)
REMARK    1  A    between atoms: C_1  and  O_2
REMARK    2  A    between atoms: O_2  and  C_3
REMARK    3  A    between atoms: C_8  and  O_9
REMARK                            x       y       z     vdW  Elec       q    Type
REMARK                         _______ _______ _______ _____ _____    ______ ____
ROOT
ATOM      1  C   UNL     1       5.673 -11.147  -1.504  0.00  0.00    +0.000 A 
ATOM      2  C   UNL     1       6.413 -11.561  -2.610  0.00  0.00    +0.000 A 
ATOM      3  C   UNL     1       6.011 -11.189  -3.900  0.00  0.00    +0.000 A 
ATOM      4  C   UNL     1       4.871 -10.404  -4.087  0.00  0.00    +0.000 A 
ATOM      5  C   UNL     1       4.127  -9.986  -2.986  0.00  0.00    +0.000 A 
ATOM      6  C   UNL     1       4.533 -10.360  -1.711  0.00  0.00    +0.000 A 
ENDROOT
BRANCH   1   8
ATOM      7  C   UNL     1       7.032 -12.323   0.051  0.00  0.00    +0.000 C 
ATOM      8  O   UNL     1       5.947 -11.436  -0.191  0.00  0.00    +0.000 OA
ENDBRANCH   1   8
BRANCH   6   9
ATOM      9  O   UNL     1       3.785  -9.937  -0.645  0.00  0.00    +0.000 OA
ATOM     10  H   UNL     1       4.404  -9.943   0.110  0.00  0.00    +0.000 HD
ENDBRANCH   6   9
TORSDOF 2
ENDMDL
MODEL 7
REMARK VINA RESULT:    -3.459      2.393      3.210
REMARK INTER + INTRA:          -3.815
REMARK INTER:                  -3.773
REMARK INTRA:                  -0.042
REMARK UNBOUND:                -0.052
REMARK  Name = 
REMARK  3 active torsions:
REMARK  status: ('A' for Active; 'I' for Inactive)
REMARK    1  A    between atoms: C_1  and  O_2
REMARK    2  A    between atoms: O_2  and  C_3
REMARK    3  A    between atoms: C_8  and  O_9
REMARK                            x       y       z     vdW  Elec       q    Type
REMARK                         _______ _______ _______ _____ _____    ______ ____
ROOT
ATOM      1  C   UNL     1       2.785 -11.807  -1.885  0.00  0.00    +0.000 A 
ATOM      2  C   UNL     1       3.218 -11.509  -3.176  0.00  0.00    +0.000 A 
ATOM      3  C   UNL     1       4.303 -10.644  -3.368  0.00  0.00    +0.000 A 
ATOM      4  C   UNL     1       4.956 -10.074  -2.274  0.00  0.00    +0.000 A 
ATOM      5  C   UNL     1       4.529 -10.367  -0.980  0.00  0.00    +0.000 A 
ATOM      6  C   UNL     1       3.453 -11.226  -0.799  0.00  0.00    +0.000 A 
ENDROOT
BRANCH   1   8
ATOM      7  C   UNL     1       0.638 -12.657  -2.447  0.00  0.00    +0.000 C 
ATOM      8  O   UNL     1       1.742 -12.632  -1.549  0.00  0.00    +0.000 OA
ENDBRANCH   1   8
BRANCH   6   9
ATOM      9  O   UNL     1       3.051 -11.499   0.481  0.00  0.00    +0.000 OA
ATOM     10  H   UNL     1       2.077 -11.540   0.433  0.00  0.00    +0.000 HD
ENDBRANCH   6   9
TORSDOF 2
ENDMDL
MODEL 8
REMARK VINA RESULT:    -3.425      1.743      3.056
REMARK INTER + INTRA:          -3.778
REMARK INTER:                  -3.729
REMARK INTRA:                  -0.049
REMARK UNBOUND:                -0.052
REMARK  Name = 
REMARK  3 active torsions:
REMARK  status: ('A' for Active; 'I' for Inactive)
REMARK    1  A    between atoms: C_1  and  O_2
REMARK    2  A    between atoms: O_2  and  C_3
REMARK    3  A    between atoms: C_8  and  O_9
REMARK                            x       y       z     vdW  Elec       q    Type
REMARK                         _______ _______ _______ _____ _____    ______ ____
ROOT
ATOM      1  C   UNL     1       6.017 -11.238  -2.660  0.00  0.00    +0.000 A 
ATOM      2  C   UNL     1       7.106 -11.247  -1.788  0.00  0.00    +0.000 A 
ATOM      3  C   UNL     1       8.405 -11.105  -2.290  0.00  0.00    +0.000 A 
ATOM      4  C   UNL     1       8.622 -10.955  -3.661  0.00  0.00    +0.000 A 
ATOM      5  C   UNL     1       7.540 -10.944  -4.538  0.00  0.00    +0.000 A 
ATOM      6  C   UNL     1       6.254 -11.086  -4.032  0.00  0.00    +0.000 A 
ENDROOT
BRANCH   1   8
ATOM      7  C   UNL     1       4.223 -10.498  -1.288  0.00  0.00    +0.000 C 
ATOM      8  O   UNL     1       4.697 -11.367  -2.310  0.00  0.00    +0.000 OA
ENDBRANCH   1   8
BRANCH   6   9
ATOM      9  O   UNL     1       5.207 -11.072  -4.913  0.00  0.00    +0.000 OA
ATOM     10  H   UNL     1       5.406 -11.788  -5.547  0.00  0.00    +0.000 HD
ENDBRANCH   6   9
TORSDOF 2
ENDMDL
MODEL 9
REMARK VINA RESULT:    -3.343      2.170      3.197
REMARK INTER + INTRA:          -3.688
REMARK INTER:                  -3.649
REMARK INTRA:                  -0.039
REMARK UNBOUND:                -0.052
REMARK  Name = 
REMARK  3 active torsions:
REMARK  status: ('A' for Active; 'I' for Inactive)
REMARK    1  A    between atoms: C_1  and  O_2
REMARK    2  A    between atoms: O_2  and  C_3
REMARK    3  A    between atoms: C_8  and  O_9
REMARK                            x       y       z     vdW  Elec       q    Type
REMARK                         _______ _______ _______ _____ _____    ______ ____
ROOT
ATOM      1  C   UNL     1       6.605 -11.287  -1.581  0.00  0.00    +0.000 A 
ATOM      2  C   UNL     1       5.979 -10.331  -2.380  0.00  0.00    +0.000 A 
ATOM      3  C   UNL     1       4.647  -9.975  -2.130  0.00  0.00    +0.000 A 
ATOM      4  C   UNL     1       3.939 -10.572  -1.085  0.00  0.00    +0.000 A 
ATOM      5  C   UNL     1       4.558 -11.527  -0.283  0.00  0.00    +0.000 A 
ATOM      6  C   UNL     1       5.879 -11.874  -0.537  0.00  0.00    +0.000 A 
ENDROOT
BRANCH   1   8
ATOM      7  C   UNL     1       8.800 -10.867  -2.390  0.00  0.00    +0.000 C 
ATOM      8  O   UNL     1       7.897 -11.731  -1.710  0.00  0.00    +0.000 OA
ENDBRANCH   1   8
BRANCH   6   9
ATOM      9  O   UNL     1       6.466 -12.816   0.265  0.00  0.00    +0.000 OA
ATOM     10  H   UNL     1       5.753 -13.114   0.861  0.00  0.00    +0.000 HD
ENDBRANCH   6   9
TORSDOF 2
ENDMDL
