MODEL 1
REMARK VINA RESULT:    -3.814      0.000      0.000
REMARK INTER + INTRA:          -4.199
REMARK INTER:                  -4.149
REMARK INTRA:                  -0.050
REMARK UNBOUND:                -0.050
REMARK  Name = 
REMARK  3 active torsions:
REMARK  status: ('A' for Active; 'I' for Inactive)
REMARK    1  A    between atoms: C_1  and  O_2
REMARK    2  A    between atoms: O_2  and  C_3
REMARK    3  A    between atoms: C_8  and  O_9
REMARK                            x       y       z     vdW  Elec       q    Type
REMARK                         _______ _______ _______ _____ _____    ______ ____
ROOT
ATOM      1  C   UNL     1       5.338 -10.084  -2.185  0.00  0.00    +0.000 A 
ATOM      2  C   UNL     1       6.560 -10.556  -2.662  0.00  0.00    +0.000 A 
ATOM      3  C   UNL     1       7.290 -11.489  -1.914  0.00  0.00    +0.000 A 
ATOM      4  C   UNL     1       6.803 -11.952  -0.691  0.00  0.00    +0.000 A 
ATOM      5  C   UNL     1       5.582 -11.486  -0.208  0.00  0.00    +0.000 A 
ATOM      6  C   UNL     1       4.866 -10.560  -0.955  0.00  0.00    +0.000 A 
ENDROOT
BRANCH   1   8
ATOM      7  C   UNL     1       3.841  -9.625  -3.972  0.00  0.00    +0.000 C 
ATOM      8  O   UNL     1       4.522  -9.174  -2.807  0.00  0.00    +0.000 OA
ENDBRANCH   1   8
BRANCH   6   9
ATOM      9  O   UNL     1       3.669 -10.116  -0.460  0.00  0.00    +0.000 OA
ATOM     10  H   UNL     1       3.418 -10.777   0.214  0.00  0.00    +0.000 HD
ENDBRANCH   6   9
TORSDOF 2
ENDMDL
MODEL 2
REMARK VINA RESULT:    -3.714      1.751      2.375
REMARK INTER + INTRA:          -4.089
REMARK INTER:                  -4.048
REMARK INTRA:                  -0.042
REMARK UNBOUND:                -0.050
REMARK  Name = 
REMARK  3 active torsions:
REMARK  status: ('A' for Active; 'I' for Inactive)
REMARK    1  A    between atoms: C_1  and  O_2
REMARK    2  A    between atoms: O_2  and  C_3
REMARK    3  A    between atoms: C_8  and  O_9
REMARK                            x       y       z     vdW  Elec       q    Type
REMARK                         _______ _______ _______ _____ _____    ______ ____
ROOT
ATOM      1  C   UNL     1       3.852 -11.037  -3.237  0.00  0.00    +0.000 A 
ATOM      2  C   UNL     1       4.626 -11.523  -4.290  0.00  0.00    +0.000 A 
ATOM      3  C   UNL     1       6.010 -11.310  -4.298  0.00  0.00    +0.000 A 
ATOM      4  C   UNL     1       6.624 -10.611  -3.257  0.00  0.00    +0.000 A 
ATOM      5  C   UNL     1       5.858 -10.123  -2.201  0.00  0.00    +0.000 A 
ATOM      6  C   UNL     1       4.486 -10.339  -2.202  0.00  0.00    +0.000 A 
ENDROOT
BRANCH   1   8
ATOM      7  C   UNL     1       1.734 -11.197  -4.301  0.00  0.00    +0.000 C 
ATOM      8  O   UNL     1       2.494 -11.171  -3.099  0.00  0.00    +0.000 OA
ENDBRANCH   1   8
BRANCH   6   9
ATOM      9  O   UNL     1       3.754  -9.850  -1.153  0.00  0.00    +0.000 OA
ATOM     10  H   UNL     1       3.760 -10.567  -0.490  0.00  0.00    +0.000 HD
ENDBRANCH   6   9
TORSDOF 2
ENDMDL
MODEL 3
REMARK VINA RESULT:    -3.593      2.465      3.030
REMARK INTER + INTRA:          -3.958
REMARK INTER:                  -3.918
REMARK INTRA:                  -0.040
REMARK UNBOUND:                -0.050
REMARK  Name = 
REMARK  3 active torsions:
REMARK  status: ('A' for Active; 'I' for Inactive)
REMARK    1  A    between atoms: C_1  and  O_2
REMARK    2  A    between atoms: O_2  and  C_3
REMARK    3  A    between atoms: C_8  and  O_9
REMARK                            x       y       z     vdW  Elec       q    Type
REMARK                         _______ _______ _______ _____ _____    ______ ____
ROOT
ATOM      1  C   UNL     1       2.800 -11.953  -1.487  0.00  0.00    +0.000 A 
ATOM      2  C   UNL     1       3.632 -11.903  -2.604  0.00  0.00    +0.000 A 
ATOM      3  C   UNL     1       4.891 -11.296  -2.512  0.00  0.00    +0.000 A 
ATOM      4  C   UNL     1       5.322 -10.738  -1.306  0.00  0.00    +0.000 A 
ATOM      5  C   UNL     1       4.496 -10.785  -0.186  0.00  0.00    +0.000 A 
ATOM      6  C   UNL     1       3.249 -11.388  -0.286  0.00  0.00    +0.000 A 
ENDROOT
BRANCH   1   8
ATOM      7  C   UNL     1       0.822 -12.561  -2.654  0.00  0.00    +0.000 C 
ATOM      8  O   UNL     1       1.548 -12.512  -1.432  0.00  0.00    +0.000 OA
ENDBRANCH   1   8
BRANCH   6   9
ATOM      9  O   UNL     1       2.455 -11.422   0.829  0.00  0.00    +0.000 OA
ATOM     10  H   UNL     1       2.368 -10.488   1.100  0.00  0.00    +0.000 HD
ENDBRANCH   6   9
TORSDOF 2
ENDMDL
MODEL 4
REMARK VINA RESULT:    -3.510      8.460      9.683
REMARK INTER + INTRA:          -3.867
REMARK INTER:                  -3.825
REMARK INTRA:                  -0.043
REMARK UNBOUND:                -0.050
REMARK  Name = 
REMARK  3 active torsions:
REMARK  status: ('A' for Active; 'I' for Inactive)
REMARK    1  A    between atoms: C_1  and  O_2
REMARK    2  A    between atoms: O_2  and  C_3
REMARK    3  A    between atoms: C_8  and  O_9
REMARK                            x       y       z     vdW  Elec       q    Type
REMARK                         _______ _______ _______ _____ _____    ______ ____
ROOT
ATOM      1  C   UNL     1      12.821 -12.211  -7.970  0.00  0.00    +0.000 A 
ATOM      2  C   UNL     1      14.015 -12.166  -7.251  0.00  0.00    +0.000 A 
ATOM      3  C   UNL     1      14.108 -11.377  -6.098  0.00  0.00    +0.000 A 
ATOM      4  C   UNL     1      13.012 -10.632  -5.660  0.00  0.00    +0.000 A 
ATOM      5  C   UNL     1      11.815 -10.672  -6.372  0.00  0.00    +0.000 A 
ATOM      6  C   UNL     1      11.732 -11.457  -7.515  0.00  0.00    +0.000 A 
ENDROOT
BRANCH   1   8
ATOM      7  C   UNL     1      13.680 -13.065 -10.014  0.00  0.00    +0.000 C 
ATOM      8  O   UNL     1      12.588 -12.936  -9.111  0.00  0.00    +0.000 OA
ENDBRANCH   1   8
BRANCH   6   9
ATOM      9  O   UNL     1      10.545 -11.481  -8.198  0.00  0.00    +0.000 OA
ATOM     10  H   UNL     1      10.343 -10.543  -8.377  0.00  0.00    +0.000 HD
ENDBRANCH   6   9
TORSDOF 2
ENDMDL
MODEL 5
REMARK VINA RESULT:    -3.508      7.145      8.549
REMARK INTER + INTRA:          -3.865
REMARK INTER:                  -3.822
REMARK INTRA:                  -0.043
REMARK UNBOUND:                -0.050
REMARK  Name = 
REMARK  3 active torsions:
REMARK  status: ('A' for Active; 'I' for Inactive)
REMARK    1  A    between atoms: C_1  and  O_2
REMARK    2  A    between atoms: O_2  and  C_3
REMARK    3  A    between atoms: C_8  and  O_9
REMARK                            x       y       z     vdW  Elec       q    Type
REMARK                         _______ _______ _______ _____ _____    ______ ____
ROOT
ATOM      1  C   UNL     1      11.497 -11.233  -6.169  0.00  0.00    +0.000 A 
ATOM      2  C   UNL     1      12.743 -11.265  -5.544  0.00  0.00    +0.000 A 
ATOM      3  C   UNL     1      13.901 -11.479  -6.303  0.00  0.00    +0.000 A 
ATOM      4  C   UNL     1      13.818 -11.662  -7.684  0.00  0.00    +0.000 A 
ATOM      5  C   UNL     1      12.577 -11.631  -8.316  0.00  0.00    +0.000 A 
ATOM      6  C   UNL     1      11.434 -11.419  -7.556  0.00  0.00    +0.000 A 
ENDROOT
BRANCH   1   8
ATOM      7  C   UNL     1      10.125 -11.621  -4.268  0.00  0.00    +0.000 C 
ATOM      8  O   UNL     1      10.287 -11.036  -5.555  0.00  0.00    +0.000 OA
ENDBRANCH   1   8
BRANCH   6   9
ATOM      9  O   UNL     1      10.225 -11.393  -8.199  0.00  0.00    +0.000 OA
ATOM     10  H   UNL     1      10.048 -10.446  -8.356  0.00  0.00    +0.000 HD
ENDBRANCH   6   9
TORSDOF 2
ENDMDL
MODEL 6
REMARK VINA RESULT:    -3.507      1.327      3.087
REMARK INTER + INTRA:          -3.865
REMARK INTER:                  -3.824
REMARK INTRA:                  -0.040
REMARK UNBOUND:                -0.050
REMARK  Name = 
REMARK  3 active torsions:
REMARK  status: ('A' for Active; 'I' for Inactive)
REMARK    1  A    between atoms: C_1  and  O_2
REMARK    2  A    between atoms: O_2  and  C_3
REMARK    3  A    between atoms: C_8  and  O_9
REMARK                            x       y       z     vdW  Elec       q    Type
REMARK                         _______ _______ _______ _____ _____    ______ ____
ROOT
ATOM      1  C   UNL     1       5.700 -11.107  -1.487  0.00  0.00    +0.000 A 
ATOM      2  C   UNL     1       6.458 -11.482  -2.595  0.00  0.00    +0.000 A 
ATOM      3  C   UNL     1       6.076 -11.068  -3.877  0.00  0.00    +0.000 A 
ATOM      4  C   UNL     1       4.937 -10.281  -4.056  0.00  0.00    +0.000 A 
ATOM      5  C   UNL     1       4.174  -9.902  -2.954  0.00  0.00    +0.000 A 
ATOM      6  C   UNL     1       4.561 -10.317  -1.686  0.00  0.00    +0.000 A 
ENDROOT
BRANCH   1   8
ATOM      7  C   UNL     1       6.660 -12.654   0.040  0.00  0.00    +0.000 C 
ATOM      8  O   UNL     1       5.954 -11.439  -0.180  0.00  0.00    +0.000 OA
ENDBRANCH   1   8
BRANCH   6   9
ATOM      9  O   UNL     1       3.795  -9.932  -0.618  0.00  0.00    +0.000 OA
ATOM     10  H   UNL     1       3.698 -10.740  -0.078  0.00  0.00    +0.000 HD
ENDBRANCH   6   9
TORSDOF 2
ENDMDL
MODEL 7
REMARK VINA RESULT:    -3.436     14.919     16.051
REMARK INTER + INTRA:          -3.788
REMARK INTER:                  -3.743
REMARK INTRA:                  -0.045
REMARK UNBOUND:                -0.050
REMARK  Name = 
REMARK  3 active torsions:
REMARK  status: ('A' for Active; 'I' for Inactive)
REMARK    1  A    between atoms: C_1  and  O_2
REMARK    2  A    between atoms: O_2  and  C_3
REMARK    3  A    between atoms: C_8  and  O_9
REMARK                            x       y       z     vdW  Elec       q    Type
REMARK                         _______ _______ _______ _____ _____    ______ ____
ROOT
ATOM      1  C   UNL     1      15.985 -11.465 -12.940  0.00  0.00    +0.000 A 
ATOM      2  C   UNL     1      14.943 -12.314 -12.570  0.00  0.00    +0.000 A 
ATOM      3  C   UNL     1      13.922 -12.608 -13.483  0.00  0.00    +0.000 A 
ATOM      4  C   UNL     1      13.938 -12.054 -14.765  0.00  0.00    +0.000 A 
ATOM      5  C   UNL     1      14.976 -11.205 -15.142  0.00  0.00    +0.000 A 
ATOM      6  C   UNL     1      15.984 -10.920 -14.230  0.00  0.00    +0.000 A 
ENDROOT
BRANCH   1   8
ATOM      7  C   UNL     1      17.631 -12.111 -11.353  0.00  0.00    +0.000 C 
ATOM      8  O   UNL     1      17.045 -11.091 -12.153  0.00  0.00    +0.000 OA
ENDBRANCH   1   8
BRANCH   6   9
ATOM      9  O   UNL     1      16.993 -10.082 -14.623  0.00  0.00    +0.000 OA
ATOM     10  H   UNL     1      17.476 -10.581 -15.310  0.00  0.00    +0.000 HD
ENDBRANCH   6   9
TORSDOF 2
ENDMDL
MODEL 8
REMARK VINA RESULT:    -3.433      1.691      2.675
REMARK INTER + INTRA:          -3.784
REMARK INTER:                  -3.731
REMARK INTRA:                  -0.053
REMARK UNBOUND:                -0.050
REMARK  Name = 
REMARK  3 active torsions:
REMARK  status: ('A' for Active; 'I' for Inactive)
REMARK    1  A    between atoms: C_1  and  O_2
REMARK    2  A    between atoms: O_2  and  C_3
REMARK    3  A    between atoms: C_8  and  O_9
REMARK                            x       y       z     vdW  Elec       q    Type
REMARK                         _______ _______ _______ _____ _____    ______ ____
ROOT
ATOM      1  C   UNL     1       4.169 -10.641  -2.972  0.00  0.00    +0.000 A 
ATOM      2  C   UNL     1       3.956 -10.634  -1.594  0.00  0.00    +0.000 A 
ATOM      3  C   UNL     1       4.980 -11.034  -0.726  0.00  0.00    +0.000 A 
ATOM      4  C   UNL     1       6.217 -11.442  -1.230  0.00  0.00    +0.000 A 
ATOM      5  C   UNL     1       6.437 -11.451  -2.605  0.00  0.00    +0.000 A 
ATOM      6  C   UNL     1       5.416 -11.053  -3.459  0.00  0.00    +0.000 A 
ENDROOT
BRANCH   1   8
ATOM      7  C   UNL     1       2.105 -11.097  -4.057  0.00  0.00    +0.000 C 
ATOM      8  O   UNL     1       3.262 -10.278  -3.934  0.00  0.00    +0.000 OA
ENDBRANCH   1   8
BRANCH   6   9
ATOM      9  O   UNL     1       5.657 -11.070  -4.807  0.00  0.00    +0.000 OA
ATOM     10  H   UNL     1       5.260 -11.906  -5.119  0.00  0.00    +0.000 HD
ENDBRANCH   6   9
TORSDOF 2
ENDMDL
MODEL 9
REMARK VINA RESULT:    -3.413      1.790      3.117
REMARK INTER + INTRA:          -3.762
REMARK INTER:                  -3.710
REMARK INTRA:                  -0.052
REMARK UNBOUND:                -0.050
REMARK  Name = 
REMARK  3 active torsions:
REMARK  status: ('A' for Active; 'I' for Inactive)
REMARK    1  A    between atoms: C_1  and  O_2
REMARK    2  A    between atoms: O_2  and  C_3
REMARK    3  A    between atoms: C_8  and  O_9
REMARK                            x       y       z     vdW  Elec       q    Type
REMARK                         _______ _______ _______ _____ _____    ______ ____
ROOT
ATOM      1  C   UNL     1       6.043 -11.284  -2.628  0.00  0.00    +0.000 A 
ATOM      2  C   UNL     1       7.109 -11.347  -1.731  0.00  0.00    +0.000 A 
ATOM      3  C   UNL     1       8.420 -11.167  -2.189  0.00  0.00    +0.000 A 
ATOM      4  C   UNL     1       8.670 -10.924  -3.541  0.00  0.00    +0.000 A 
ATOM      5  C   UNL     1       7.611 -10.860  -4.443  0.00  0.00    +0.000 A 
ATOM      6  C   UNL     1       6.314 -11.040  -3.980  0.00  0.00    +0.000 A 
ENDROOT
BRANCH   1   8
ATOM      7  C   UNL     1       4.144 -10.467  -1.456  0.00  0.00    +0.000 C 
ATOM      8  O   UNL     1       4.715 -11.441  -2.321  0.00  0.00    +0.000 OA
ENDBRANCH   1   8
BRANCH   6   9
ATOM      9  O   UNL     1       5.288 -10.972  -4.885  0.00  0.00    +0.000 OA
ATOM     10  H   UNL     1       4.519 -10.667  -4.367  0.00  0.00    +0.000 HD
ENDBRANCH   6   9
TORSDOF 2
ENDMDL
