MODEL 1
REMARK VINA RESULT:    -3.799      0.000      0.000
REMARK INTER + INTRA:          -4.184
REMARK INTER:                  -4.132
REMARK INTRA:                  -0.052
REMARK UNBOUND:                -0.052
REMARK  Name = 
REMARK  3 active torsions:
REMARK  status: ('A' for Active; 'I' for Inactive)
REMARK    1  A    between atoms: C_1  and  O_2
REMARK    2  A    between atoms: O_2  and  C_3
REMARK    3  A    between atoms: C_8  and  O_9
REMARK                            x       y       z     vdW  Elec       q    Type
REMARK                         _______ _______ _______ _____ _____    ______ ____
ROOT
ATOM      1  C   UNL     1       5.384 -10.112  -2.183  0.00  0.00    +0.000 A 
ATOM      2  C   UNL     1       6.587 -10.563  -2.724  0.00  0.00    +0.000 A 
ATOM      3  C   UNL     1       7.362 -11.497  -2.025  0.00  0.00    +0.000 A 
ATOM      4  C   UNL     1       6.940 -11.981  -0.786  0.00  0.00    +0.000 A 
ATOM      5  C   UNL     1       5.739 -11.536  -0.238  0.00  0.00    +0.000 A 
ATOM      6  C   UNL     1       4.976 -10.609  -0.938  0.00  0.00    +0.000 A 
ENDROOT
BRANCH   1   8
ATOM      7  C   UNL     1       3.840  -9.628  -3.923  0.00  0.00    +0.000 C 
ATOM      8  O   UNL     1       4.528  -9.204  -2.752  0.00  0.00    +0.000 OA
ENDBRANCH   1   8
BRANCH   6   9
ATOM      9  O   UNL     1       3.800 -10.186  -0.380  0.00  0.00    +0.000 OA
ATOM     10  H   UNL     1       3.516  -9.437  -0.938  0.00  0.00    +0.000 HD
ENDBRANCH   6   9
TORSDOF 2
ENDMDL
MODEL 2
REMARK VINA RESULT:    -3.716      1.773      2.373
REMARK INTER + INTRA:          -4.094
REMARK INTER:                  -4.050
REMARK INTRA:                  -0.044
REMARK UNBOUND:                -0.052
REMARK  Name = 
REMARK  3 active torsions:
REMARK  status: ('A' for Active; 'I' for Inactive)
REMARK    1  A    between atoms: C_1  and  O_2
REMARK    2  A    between atoms: O_2  and  C_3
REMARK    3  A    between atoms: C_8  and  O_9
REMARK                            x       y       z     vdW  Elec       q    Type
REMARK                         _______ _______ _______ _____ _____    ______ ____
ROOT
ATOM      1  C   UNL     1       3.827 -11.107  -3.197  0.00  0.00    +0.000 A 
ATOM      2  C   UNL     1       4.608 -11.576  -4.253  0.00  0.00    +0.000 A 
ATOM      3  C   UNL     1       5.985 -11.323  -4.270  0.00  0.00    +0.000 A 
ATOM      4  C   UNL     1       6.585 -10.602  -3.236  0.00  0.00    +0.000 A 
ATOM      5  C   UNL     1       5.812 -10.131  -2.178  0.00  0.00    +0.000 A 
ATOM      6  C   UNL     1       4.446 -10.386  -2.169  0.00  0.00    +0.000 A 
ENDROOT
BRANCH   1   8
ATOM      7  C   UNL     1       1.689 -11.177  -4.234  0.00  0.00    +0.000 C 
ATOM      8  O   UNL     1       2.473 -11.279  -3.051  0.00  0.00    +0.000 OA
ENDBRANCH   1   8
BRANCH   6   9
ATOM      9  O   UNL     1       3.706  -9.912  -1.119  0.00  0.00    +0.000 OA
ATOM     10  H   UNL     1       4.094 -10.338  -0.330  0.00  0.00    +0.000 HD
ENDBRANCH   6   9
TORSDOF 2
ENDMDL
MODEL 3
REMARK VINA RESULT:    -3.612      2.495      3.075
REMARK INTER + INTRA:          -3.981
REMARK INTER:                  -3.941
REMARK INTRA:                  -0.039
REMARK UNBOUND:                -0.052
REMARK  Name = 
REMARK  3 active torsions:
REMARK  status: ('A' for Active; 'I' for Inactive)
REMARK    1  A    between atoms: C_1  and  O_2
REMARK    2  A    between atoms: O_2  and  C_3
REMARK    3  A    between atoms: C_8  and  O_9
REMARK                            x       y       z     vdW  Elec       q    Type
REMARK                         _______ _______ _______ _____ _____    ______ ____
ROOT
ATOM      1  C   UNL     1       2.772 -11.921  -1.449  0.00  0.00    +0.000 A 
ATOM      2  C   UNL     1       3.588 -11.853  -2.577  0.00  0.00    +0.000 A 
ATOM      3  C   UNL     1       4.848 -11.246  -2.493  0.00  0.00    +0.000 A 
ATOM      4  C   UNL     1       5.294 -10.704  -1.286  0.00  0.00    +0.000 A 
ATOM      5  C   UNL     1       4.484 -10.768  -0.155  0.00  0.00    +0.000 A 
ATOM      6  C   UNL     1       3.236 -11.372  -0.247  0.00  0.00    +0.000 A 
ENDROOT
BRANCH   1   8
ATOM      7  C   UNL     1       0.827 -12.627  -2.618  0.00  0.00    +0.000 C 
ATOM      8  O   UNL     1       1.522 -12.483  -1.385  0.00  0.00    +0.000 OA
ENDBRANCH   1   8
BRANCH   6   9
ATOM      9  O   UNL     1       2.458 -11.423   0.879  0.00  0.00    +0.000 OA
ATOM     10  H   UNL     1       1.724 -10.805   0.701  0.00  0.00    +0.000 HD
ENDBRANCH   6   9
TORSDOF 2
ENDMDL
MODEL 4
REMARK VINA RESULT:    -3.557      1.368      3.140
REMARK INTER + INTRA:          -3.921
REMARK INTER:                  -3.881
REMARK INTRA:                  -0.039
REMARK UNBOUND:                -0.052
REMARK  Name = 
REMARK  3 active torsions:
REMARK  status: ('A' for Active; 'I' for Inactive)
REMARK    1  A    between atoms: C_1  and  O_2
REMARK    2  A    between atoms: O_2  and  C_3
REMARK    3  A    between atoms: C_8  and  O_9
REMARK                            x       y       z     vdW  Elec       q    Type
REMARK                         _______ _______ _______ _____ _____    ______ ____
ROOT
ATOM      1  C   UNL     1       5.954 -11.375  -1.172  0.00  0.00    +0.000 A 
ATOM      2  C   UNL     1       6.631 -11.605  -2.369  0.00  0.00    +0.000 A 
ATOM      3  C   UNL     1       6.188 -10.997  -3.551  0.00  0.00    +0.000 A 
ATOM      4  C   UNL     1       5.070 -10.161  -3.541  0.00  0.00    +0.000 A 
ATOM      5  C   UNL     1       4.389  -9.927  -2.349  0.00  0.00    +0.000 A 
ATOM      6  C   UNL     1       4.835 -10.534  -1.181  0.00  0.00    +0.000 A 
ENDROOT
BRANCH   1   8
ATOM      7  C   UNL     1       7.617 -12.334   0.229  0.00  0.00    +0.000 C 
ATOM      8  O   UNL     1       6.273 -11.901   0.054  0.00  0.00    +0.000 OA
ENDBRANCH   1   8
BRANCH   6   9
ATOM      9  O   UNL     1       4.149 -10.288  -0.022  0.00  0.00    +0.000 OA
ATOM     10  H   UNL     1       4.684  -9.619   0.446  0.00  0.00    +0.000 HD
ENDBRANCH   6   9
TORSDOF 2
ENDMDL
MODEL 5
REMARK VINA RESULT:    -3.508      8.380      9.630
REMARK INTER + INTRA:          -3.868
REMARK INTER:                  -3.829
REMARK INTRA:                  -0.039
REMARK UNBOUND:                -0.052
REMARK  Name = 
REMARK  3 active torsions:
REMARK  status: ('A' for Active; 'I' for Inactive)
REMARK    1  A    between atoms: C_1  and  O_2
REMARK    2  A    between atoms: O_2  and  C_3
REMARK    3  A    between atoms: C_8  and  O_9
REMARK                            x       y       z     vdW  Elec       q    Type
REMARK                         _______ _______ _______ _____ _____    ______ ____
ROOT
ATOM      1  C   UNL     1      12.796 -12.157  -8.039  0.00  0.00    +0.000 A 
ATOM      2  C   UNL     1      14.013 -12.129  -7.358  0.00  0.00    +0.000 A 
ATOM      3  C   UNL     1      14.136 -11.390  -6.174  0.00  0.00    +0.000 A 
ATOM      4  C   UNL     1      13.046 -10.679  -5.668  0.00  0.00    +0.000 A 
ATOM      5  C   UNL     1      11.827 -10.702  -6.342  0.00  0.00    +0.000 A 
ATOM      6  C   UNL     1      11.715 -11.437  -7.516  0.00  0.00    +0.000 A 
ENDROOT
BRANCH   1   8
ATOM      7  C   UNL     1      13.654 -13.142 -10.024  0.00  0.00    +0.000 C 
ATOM      8  O   UNL     1      12.534 -12.833  -9.203  0.00  0.00    +0.000 OA
ENDBRANCH   1   8
BRANCH   6   9
ATOM      9  O   UNL     1      10.507 -11.445  -8.160  0.00  0.00    +0.000 OA
ATOM     10  H   UNL     1      10.320 -10.505  -8.349  0.00  0.00    +0.000 HD
ENDBRANCH   6   9
TORSDOF 2
ENDMDL
MODEL 6
REMARK VINA RESULT:    -3.498      7.113      8.537
REMARK INTER + INTRA:          -3.857
REMARK INTER:                  -3.814
REMARK INTRA:                  -0.043
REMARK UNBOUND:                -0.052
REMARK  Name = 
REMARK  3 active torsions:
REMARK  status: ('A' for Active; 'I' for Inactive)
REMARK    1  A    between atoms: C_1  and  O_2
REMARK    2  A    between atoms: O_2  and  C_3
REMARK    3  A    between atoms: C_8  and  O_9
REMARK                            x       y       z     vdW  Elec       q    Type
REMARK                         _______ _______ _______ _____ _____    ______ ____
ROOT
ATOM      1  C   UNL     1      11.571 -11.267  -6.173  0.00  0.00    +0.000 A 
ATOM      2  C   UNL     1      12.833 -11.315  -5.584  0.00  0.00    +0.000 A 
ATOM      3  C   UNL     1      13.967 -11.530  -6.378  0.00  0.00    +0.000 A 
ATOM      4  C   UNL     1      13.844 -11.697  -7.758  0.00  0.00    +0.000 A 
ATOM      5  C   UNL     1      12.586 -11.649  -8.354  0.00  0.00    +0.000 A 
ATOM      6  C   UNL     1      11.467 -11.436  -7.559  0.00  0.00    +0.000 A 
ENDROOT
BRANCH   1   8
ATOM      7  C   UNL     1      10.265 -11.626  -4.220  0.00  0.00    +0.000 C 
ATOM      8  O   UNL     1      10.380 -11.065  -5.522  0.00  0.00    +0.000 OA
ENDBRANCH   1   8
BRANCH   6   9
ATOM      9  O   UNL     1      10.240 -11.393  -8.167  0.00  0.00    +0.000 OA
ATOM     10  H   UNL     1      10.013 -10.445  -8.201  0.00  0.00    +0.000 HD
ENDBRANCH   6   9
TORSDOF 2
ENDMDL
MODEL 7
REMARK VINA RESULT:    -3.461      1.743      2.753
REMARK INTER + INTRA:          -3.817
REMARK INTER:                  -3.764
REMARK INTRA:                  -0.052
REMARK UNBOUND:                -0.052
REMARK  Name = 
REMARK  3 active torsions:
REMARK  status: ('A' for Active; 'I' for Inactive)
REMARK    1  A    between atoms: C_1  and  O_2
REMARK    2  A    between atoms: O_2  and  C_3
REMARK    3  A    between atoms: C_8  and  O_9
REMARK                            x       y       z     vdW  Elec       q    Type
REMARK                         _______ _______ _______ _____ _____    ______ ____
ROOT
ATOM      1  C   UNL     1       4.135 -10.650  -3.071  0.00  0.00    +0.000 A 
ATOM      2  C   UNL     1       3.959 -10.654  -1.688  0.00  0.00    +0.000 A 
ATOM      3  C   UNL     1       5.022 -11.008  -0.848  0.00  0.00    +0.000 A 
ATOM      4  C   UNL     1       6.262 -11.360  -1.386  0.00  0.00    +0.000 A 
ATOM      5  C   UNL     1       6.445 -11.358  -2.766  0.00  0.00    +0.000 A 
ATOM      6  C   UNL     1       5.385 -11.006  -3.592  0.00  0.00    +0.000 A 
ENDROOT
BRANCH   1   8
ATOM      7  C   UNL     1       2.045 -11.174  -4.074  0.00  0.00    +0.000 C 
ATOM      8  O   UNL     1       3.186 -10.327  -4.008  0.00  0.00    +0.000 OA
ENDBRANCH   1   8
BRANCH   6   9
ATOM      9  O   UNL     1       5.590 -11.011  -4.946  0.00  0.00    +0.000 OA
ATOM     10  H   UNL     1       5.691 -10.071  -5.186  0.00  0.00    +0.000 HD
ENDBRANCH   6   9
TORSDOF 2
ENDMDL
MODEL 8
REMARK VINA RESULT:    -3.413      1.963      2.455
REMARK INTER + INTRA:          -3.765
REMARK INTER:                  -3.715
REMARK INTRA:                  -0.050
REMARK UNBOUND:                -0.052
REMARK  Name = 
REMARK  3 active torsions:
REMARK  status: ('A' for Active; 'I' for Inactive)
REMARK    1  A    between atoms: C_1  and  O_2
REMARK    2  A    between atoms: O_2  and  C_3
REMARK    3  A    between atoms: C_8  and  O_9
REMARK                            x       y       z     vdW  Elec       q    Type
REMARK                         _______ _______ _______ _____ _____    ______ ____
ROOT
ATOM      1  C   UNL     1       3.650 -11.247  -2.704  0.00  0.00    +0.000 A 
ATOM      2  C   UNL     1       3.686 -12.611  -2.418  0.00  0.00    +0.000 A 
ATOM      3  C   UNL     1       4.213 -13.056  -1.199  0.00  0.00    +0.000 A 
ATOM      4  C   UNL     1       4.706 -12.143  -0.265  0.00  0.00    +0.000 A 
ATOM      5  C   UNL     1       4.673 -10.778  -0.544  0.00  0.00    +0.000 A 
ATOM      6  C   UNL     1       4.148 -10.346  -1.755  0.00  0.00    +0.000 A 
ENDROOT
BRANCH   1   8
ATOM      7  C   UNL     1       1.838 -11.023  -4.226  0.00  0.00    +0.000 C 
ATOM      8  O   UNL     1       3.165 -10.671  -3.851  0.00  0.00    +0.000 OA
ENDBRANCH   1   8
BRANCH   6   9
ATOM      9  O   UNL     1       4.127  -9.000  -2.006  0.00  0.00    +0.000 OA
ATOM     10  H   UNL     1       3.531  -8.630  -1.327  0.00  0.00    +0.000 HD
ENDBRANCH   6   9
TORSDOF 2
ENDMDL
MODEL 9
REMARK VINA RESULT:    -3.412      1.766      3.082
REMARK INTER + INTRA:          -3.763
REMARK INTER:                  -3.711
REMARK INTRA:                  -0.052
REMARK UNBOUND:                -0.052
REMARK  Name = 
REMARK  3 active torsions:
REMARK  status: ('A' for Active; 'I' for Inactive)
REMARK    1  A    between atoms: C_1  and  O_2
REMARK    2  A    between atoms: O_2  and  C_3
REMARK    3  A    between atoms: C_8  and  O_9
REMARK                            x       y       z     vdW  Elec       q    Type
REMARK                         _______ _______ _______ _____ _____    ______ ____
ROOT
ATOM      1  C   UNL     1       6.008 -11.263  -2.666  0.00  0.00    +0.000 A 
ATOM      2  C   UNL     1       7.079 -11.263  -1.773  0.00  0.00    +0.000 A 
ATOM      3  C   UNL     1       8.384 -11.081  -2.245  0.00  0.00    +0.000 A 
ATOM      4  C   UNL     1       8.625 -10.899  -3.609  0.00  0.00    +0.000 A 
ATOM      5  C   UNL     1       7.561 -10.897  -4.507  0.00  0.00    +0.000 A 
ATOM      6  C   UNL     1       6.269 -11.079  -4.030  0.00  0.00    +0.000 A 
ENDROOT
BRANCH   1   8
ATOM      7  C   UNL     1       4.104 -10.436  -1.510  0.00  0.00    +0.000 C 
ATOM      8  O   UNL     1       4.685 -11.430  -2.347  0.00  0.00    +0.000 OA
ENDBRANCH   1   8
BRANCH   6   9
ATOM      9  O   UNL     1       5.239 -11.073  -4.933  0.00  0.00    +0.000 OA
ATOM     10  H   UNL     1       4.430 -11.064  -4.387  0.00  0.00    +0.000 HD
ENDBRANCH   6   9
TORSDOF 2
ENDMDL
