MODEL 1
REMARK VINA RESULT:    -4.913      0.000      0.000
REMARK INTER + INTRA:          -7.468
REMARK INTER:                  -6.636
REMARK INTRA:                  -0.832
REMARK UNBOUND:                -0.832
REMARK  Name = 
REMARK  10 active torsions:
REMARK  status: ('A' for Active; 'I' for Inactive)
REMARK    1  A    between atoms: C_1  and  C_2
REMARK    2  A    between atoms: C_5  and  N_8
REMARK    3  A    between atoms: N_8  and  C_9
REMARK    4  A    between atoms: N_8  and  C_13
REMARK    5  A    between atoms: C_9  and  C_10
REMARK    6  A    between atoms: C_10  and  C_11
REMARK    7  A    between atoms: C_10  and  O_12
REMARK    8  A    between atoms: C_13  and  C_14
REMARK    9  A    between atoms: C_14  and  C_15
REMARK   10  A    between atoms: C_14  and  O_16
REMARK                            x       y       z     vdW  Elec       q    Type
REMARK                         _______ _______ _______ _____ _____    ______ ____
ROOT
ATOM      1  N   UNL     1       4.426 -10.770  -3.159  0.00  0.00    +0.000 N 
ENDROOT
BRANCH   1   6
ATOM      2  C   UNL     1      10.110 -11.478  -3.886  0.00  0.00    +0.000 C 
ATOM      3  C   UNL     1       8.634 -11.315  -3.682  0.00  0.00    +0.000 A 
ATOM      4  C   UNL     1       7.724 -11.891  -4.562  0.00  0.00    +0.000 A 
ATOM      5  C   UNL     1       6.343 -11.709  -4.383  0.00  0.00    +0.000 A 
ATOM      6  C   UNL     1       5.806 -10.931  -3.342  0.00  0.00    +0.000 A 
ATOM      7  C   UNL     1       6.755 -10.365  -2.471  0.00  0.00    +0.000 A 
ATOM      8  C   UNL     1       8.139 -10.541  -2.637  0.00  0.00    +0.000 A 
ENDBRANCH   1   6
BRANCH   1   9
ATOM      9  C   UNL     1       3.659 -11.769  -2.377  0.00  0.00    +0.000 C 
BRANCH   9  10
ATOM     10  C   UNL     1       3.553 -11.404  -0.876  0.00  0.00    +0.000 C 
ATOM     11  C   UNL     1       4.598 -12.155  -0.058  0.00  0.00    +0.000 C 
BRANCH  10  12
ATOM     12  O   UNL     1       3.756  -9.999  -0.672  0.00  0.00    +0.000 OA
ATOM     13  H   UNL     1       3.571  -9.543  -1.510  0.00  0.00    +0.000 HD
ENDBRANCH  10  12
ENDBRANCH   9  10
ENDBRANCH   1   9
BRANCH   1  14
ATOM     14  C   UNL     1       3.615  -9.957  -4.101  0.00  0.00    +0.000 C 
BRANCH  14  15
ATOM     15  C   UNL     1       3.901  -8.443  -3.962  0.00  0.00    +0.000 C 
ATOM     16  C   UNL     1       2.882  -7.571  -4.687  0.00  0.00    +0.000 C 
BRANCH  15  17
ATOM     17  O   UNL     1       3.936  -8.036  -2.595  0.00  0.00    +0.000 OA
ATOM     18  H   UNL     1       4.879  -8.083  -2.341  0.00  0.00    +0.000 HD
ENDBRANCH  15  17
ENDBRANCH  14  15
ENDBRANCH   1  14
TORSDOF 7
ENDMDL
MODEL 2
REMARK VINA RESULT:    -4.630      2.453      3.959
REMARK INTER + INTRA:          -7.086
REMARK INTER:                  -6.550
REMARK INTRA:                  -0.536
REMARK UNBOUND:                -0.832
REMARK  Name = 
REMARK  10 active torsions:
REMARK  status: ('A' for Active; 'I' for Inactive)
REMARK    1  A    between atoms: C_1  and  C_2
REMARK    2  A    between atoms: C_5  and  N_8
REMARK    3  A    between atoms: N_8  and  C_9
REMARK    4  A    between atoms: N_8  and  C_13
REMARK    5  A    between atoms: C_9  and  C_10
REMARK    6  A    between atoms: C_10  and  C_11
REMARK    7  A    between atoms: C_10  and  O_12
REMARK    8  A    between atoms: C_13  and  C_14
REMARK    9  A    between atoms: C_14  and  C_15
REMARK   10  A    between atoms: C_14  and  O_16
REMARK                            x       y       z     vdW  Elec       q    Type
REMARK                         _______ _______ _______ _____ _____    ______ ____
ROOT
ATOM      1  N   UNL     1       5.721 -11.042  -1.327  0.00  0.00    +0.000 N 
ENDROOT
BRANCH   1   6
ATOM      2  C   UNL     1      10.623 -13.953  -0.418  0.00  0.00    +0.000 C 
ATOM      3  C   UNL     1       9.341 -13.218  -0.664  0.00  0.00    +0.000 A 
ATOM      4  C   UNL     1       9.141 -12.504  -1.841  0.00  0.00    +0.000 A 
ATOM      5  C   UNL     1       7.949 -11.792  -2.053  0.00  0.00    +0.000 A 
ATOM      6  C   UNL     1       6.915 -11.738  -1.101  0.00  0.00    +0.000 A 
ATOM      7  C   UNL     1       7.150 -12.473   0.075  0.00  0.00    +0.000 A 
ATOM      8  C   UNL     1       8.337 -13.191   0.299  0.00  0.00    +0.000 A 
ENDBRANCH   1   6
BRANCH   1   9
ATOM      9  C   UNL     1       5.608 -10.113  -2.478  0.00  0.00    +0.000 C 
BRANCH   9  10
ATOM     10  C   UNL     1       4.877 -10.743  -3.688  0.00  0.00    +0.000 C 
ATOM     11  C   UNL     1       3.653  -9.921  -4.074  0.00  0.00    +0.000 C 
BRANCH  10  12
ATOM     12  O   UNL     1       5.741 -10.816  -4.831  0.00  0.00    +0.000 OA
ATOM     13  H   UNL     1       6.655 -10.687  -4.526  0.00  0.00    +0.000 HD
ENDBRANCH  10  12
ENDBRANCH   9  10
ENDBRANCH   1   9
BRANCH   1  14
ATOM     14  C   UNL     1       4.756 -10.792  -0.226  0.00  0.00    +0.000 C 
BRANCH  14  15
ATOM     15  C   UNL     1       3.359 -11.385  -0.527  0.00  0.00    +0.000 C 
ATOM     16  C   UNL     1       3.418 -12.795  -1.103  0.00  0.00    +0.000 C 
BRANCH  15  17
ATOM     17  O   UNL     1       2.538 -11.418   0.640  0.00  0.00    +0.000 OA
ATOM     18  H   UNL     1       3.119 -11.761   1.348  0.00  0.00    +0.000 HD
ENDBRANCH  15  17
ENDBRANCH  14  15
ENDBRANCH   1  14
TORSDOF 7
ENDMDL
MODEL 3
REMARK VINA RESULT:    -4.545     10.199     13.244
REMARK INTER + INTRA:          -6.971
REMARK INTER:                  -6.351
REMARK INTRA:                  -0.620
REMARK UNBOUND:                -0.832
REMARK  Name = 
REMARK  10 active torsions:
REMARK  status: ('A' for Active; 'I' for Inactive)
REMARK    1  A    between atoms: C_1  and  C_2
REMARK    2  A    between atoms: C_5  and  N_8
REMARK    3  A    between atoms: N_8  and  C_9
REMARK    4  A    between atoms: N_8  and  C_13
REMARK    5  A    between atoms: C_9  and  C_10
REMARK    6  A    between atoms: C_10  and  C_11
REMARK    7  A    between atoms: C_10  and  O_12
REMARK    8  A    between atoms: C_13  and  C_14
REMARK    9  A    between atoms: C_14  and  C_15
REMARK   10  A    between atoms: C_14  and  O_16
REMARK                            x       y       z     vdW  Elec       q    Type
REMARK                         _______ _______ _______ _____ _____    ______ ____
ROOT
ATOM      1  N   UNL     1      15.777 -11.801 -10.436  0.00  0.00    +0.000 N 
ENDROOT
BRANCH   1   6
ATOM      2  C   UNL     1      12.943 -11.544  -5.413  0.00  0.00    +0.000 C 
ATOM      3  C   UNL     1      13.677 -11.586  -6.718  0.00  0.00    +0.000 A 
ATOM      4  C   UNL     1      12.991 -11.730  -7.919  0.00  0.00    +0.000 A 
ATOM      5  C   UNL     1      13.687 -11.799  -9.137  0.00  0.00    +0.000 A 
ATOM      6  C   UNL     1      15.091 -11.751  -9.216  0.00  0.00    +0.000 A 
ATOM      7  C   UNL     1      15.751 -11.603  -7.982  0.00  0.00    +0.000 A 
ATOM      8  C   UNL     1      15.067 -11.531  -6.757  0.00  0.00    +0.000 A 
ENDBRANCH   1   6
BRANCH   1   9
ATOM      9  C   UNL     1      17.067 -12.525 -10.534  0.00  0.00    +0.000 C 
BRANCH   9  10
ATOM     10  C   UNL     1      18.293 -11.593 -10.369  0.00  0.00    +0.000 C 
ATOM     11  C   UNL     1      19.241 -12.124  -9.301  0.00  0.00    +0.000 C 
BRANCH  10  12
ATOM     12  O   UNL     1      19.025 -11.484 -11.598  0.00  0.00    +0.000 OA
ATOM     13  H   UNL     1      18.637 -12.106 -12.236  0.00  0.00    +0.000 HD
ENDBRANCH  10  12
ENDBRANCH   9  10
ENDBRANCH   1   9
BRANCH   1  14
ATOM     14  C   UNL     1      15.558 -10.771 -11.483  0.00  0.00    +0.000 C 
BRANCH  14  15
ATOM     15  C   UNL     1      15.771 -11.333 -12.909  0.00  0.00    +0.000 C 
ATOM     16  C   UNL     1      14.539 -11.200 -13.797  0.00  0.00    +0.000 C 
BRANCH  15  17
ATOM     17  O   UNL     1      16.863 -10.696 -13.570  0.00  0.00    +0.000 OA
ATOM     18  H   UNL     1      17.147  -9.985 -12.961  0.00  0.00    +0.000 HD
ENDBRANCH  15  17
ENDBRANCH  14  15
ENDBRANCH   1  14
TORSDOF 7
ENDMDL
MODEL 4
REMARK VINA RESULT:    -4.544      2.496      5.834
REMARK INTER + INTRA:          -6.969
REMARK INTER:                  -6.233
REMARK INTRA:                  -0.736
REMARK UNBOUND:                -0.832
REMARK  Name = 
REMARK  10 active torsions:
REMARK  status: ('A' for Active; 'I' for Inactive)
REMARK    1  A    between atoms: C_1  and  C_2
REMARK    2  A    between atoms: C_5  and  N_8
REMARK    3  A    between atoms: N_8  and  C_9
REMARK    4  A    between atoms: N_8  and  C_13
REMARK    5  A    between atoms: C_9  and  C_10
REMARK    6  A    between atoms: C_10  and  C_11
REMARK    7  A    between atoms: C_10  and  O_12
REMARK    8  A    between atoms: C_13  and  C_14
REMARK    9  A    between atoms: C_14  and  C_15
REMARK   10  A    between atoms: C_14  and  O_16
REMARK                            x       y       z     vdW  Elec       q    Type
REMARK                         _______ _______ _______ _____ _____    ______ ____
ROOT
ATOM      1  N   UNL     1       4.034 -11.996  -2.598  0.00  0.00    +0.000 N 
ENDROOT
BRANCH   1   6
ATOM      2  C   UNL     1      -1.415 -12.274  -4.484  0.00  0.00    +0.000 C 
ATOM      3  C   UNL     1      -0.006 -12.179  -3.985  0.00  0.00    +0.000 A 
ATOM      4  C   UNL     1       1.011 -11.697  -4.804  0.00  0.00    +0.000 A 
ATOM      5  C   UNL     1       2.335 -11.639  -4.341  0.00  0.00    +0.000 A 
ATOM      6  C   UNL     1       2.714 -12.075  -3.059  0.00  0.00    +0.000 A 
ATOM      7  C   UNL     1       1.661 -12.554  -2.258  0.00  0.00    +0.000 A 
ATOM      8  C   UNL     1       0.332 -12.616  -2.708  0.00  0.00    +0.000 A 
ENDBRANCH   1   6
BRANCH   1   9
ATOM      9  C   UNL     1       4.944 -10.950  -3.124  0.00  0.00    +0.000 C 
BRANCH   9  10
ATOM     10  C   UNL     1       4.735  -9.575  -2.445  0.00  0.00    +0.000 C 
ATOM     11  C   UNL     1       4.103  -8.580  -3.411  0.00  0.00    +0.000 C 
BRANCH  10  12
ATOM     12  O   UNL     1       3.877  -9.691  -1.301  0.00  0.00    +0.000 OA
ATOM     13  H   UNL     1       3.555 -10.607  -1.258  0.00  0.00    +0.000 HD
ENDBRANCH  10  12
ENDBRANCH   9  10
ENDBRANCH   1   9
BRANCH   1  14
ATOM     14  C   UNL     1       4.715 -13.177  -2.008  0.00  0.00    +0.000 C 
BRANCH  14  15
ATOM     15  C   UNL     1       4.990 -12.999  -0.496  0.00  0.00    +0.000 C 
ATOM     16  C   UNL     1       6.376 -12.437  -0.200  0.00  0.00    +0.000 C 
BRANCH  15  17
ATOM     17  O   UNL     1       4.027 -12.144   0.118  0.00  0.00    +0.000 OA
ATOM     18  H   UNL     1       4.465 -11.271   0.177  0.00  0.00    +0.000 HD
ENDBRANCH  15  17
ENDBRANCH  14  15
ENDBRANCH   1  14
TORSDOF 7
ENDMDL
MODEL 5
REMARK VINA RESULT:    -4.489     10.254     13.526
REMARK INTER + INTRA:          -6.895
REMARK INTER:                  -6.257
REMARK INTRA:                  -0.638
REMARK UNBOUND:                -0.832
REMARK  Name = 
REMARK  10 active torsions:
REMARK  status: ('A' for Active; 'I' for Inactive)
REMARK    1  A    between atoms: C_1  and  C_2
REMARK    2  A    between atoms: C_5  and  N_8
REMARK    3  A    between atoms: N_8  and  C_9
REMARK    4  A    between atoms: N_8  and  C_13
REMARK    5  A    between atoms: C_9  and  C_10
REMARK    6  A    between atoms: C_10  and  C_11
REMARK    7  A    between atoms: C_10  and  O_12
REMARK    8  A    between atoms: C_13  and  C_14
REMARK    9  A    between atoms: C_14  and  C_15
REMARK   10  A    between atoms: C_14  and  O_16
REMARK                            x       y       z     vdW  Elec       q    Type
REMARK                         _______ _______ _______ _____ _____    ______ ____
ROOT
ATOM      1  N   UNL     1      15.937 -11.379 -10.370  0.00  0.00    +0.000 N 
ENDROOT
BRANCH   1   6
ATOM      2  C   UNL     1      12.885 -11.958  -5.505  0.00  0.00    +0.000 C 
ATOM      3  C   UNL     1      13.674 -11.783  -6.766  0.00  0.00    +0.000 A 
ATOM      4  C   UNL     1      13.052 -11.825  -8.009  0.00  0.00    +0.000 A 
ATOM      5  C   UNL     1      13.801 -11.690  -9.190  0.00  0.00    +0.000 A 
ATOM      6  C   UNL     1      15.199 -11.533  -9.190  0.00  0.00    +0.000 A 
ATOM      7  C   UNL     1      15.794 -11.493  -7.916  0.00  0.00    +0.000 A 
ATOM      8  C   UNL     1      15.056 -11.624  -6.728  0.00  0.00    +0.000 A 
ENDBRANCH   1   6
BRANCH   1   9
ATOM      9  C   UNL     1      15.337 -10.692 -11.539  0.00  0.00    +0.000 C 
BRANCH   9  10
ATOM     10  C   UNL     1      15.723 -11.351 -12.886  0.00  0.00    +0.000 C 
ATOM     11  C   UNL     1      14.521 -11.429 -13.819  0.00  0.00    +0.000 C 
BRANCH  10  12
ATOM     12  O   UNL     1      16.752 -10.602 -13.549  0.00  0.00    +0.000 OA
ATOM     13  H   UNL     1      16.356  -9.784 -13.892  0.00  0.00    +0.000 HD
ENDBRANCH  10  12
ENDBRANCH   9  10
ENDBRANCH   1   9
BRANCH   1  14
ATOM     14  C   UNL     1      17.068 -12.287 -10.693  0.00  0.00    +0.000 C 
BRANCH  14  15
ATOM     15  C   UNL     1      18.440 -11.585 -10.547  0.00  0.00    +0.000 C 
ATOM     16  C   UNL     1      19.362 -12.273  -9.547  0.00  0.00    +0.000 C 
BRANCH  15  17
ATOM     17  O   UNL     1      19.126 -11.504 -11.796  0.00  0.00    +0.000 OA
ATOM     18  H   UNL     1      19.060 -12.402 -12.180  0.00  0.00    +0.000 HD
ENDBRANCH  15  17
ENDBRANCH  14  15
ENDBRANCH   1  14
TORSDOF 7
ENDMDL
MODEL 6
REMARK VINA RESULT:    -4.485      1.689      3.317
REMARK INTER + INTRA:          -6.891
REMARK INTER:                  -6.564
REMARK INTRA:                  -0.327
REMARK UNBOUND:                -0.832
REMARK  Name = 
REMARK  10 active torsions:
REMARK  status: ('A' for Active; 'I' for Inactive)
REMARK    1  A    between atoms: C_1  and  C_2
REMARK    2  A    between atoms: C_5  and  N_8
REMARK    3  A    between atoms: N_8  and  C_9
REMARK    4  A    between atoms: N_8  and  C_13
REMARK    5  A    between atoms: C_9  and  C_10
REMARK    6  A    between atoms: C_10  and  C_11
REMARK    7  A    between atoms: C_10  and  O_12
REMARK    8  A    between atoms: C_13  and  C_14
REMARK    9  A    between atoms: C_14  and  C_15
REMARK   10  A    between atoms: C_14  and  O_16
REMARK                            x       y       z     vdW  Elec       q    Type
REMARK                         _______ _______ _______ _____ _____    ______ ____
ROOT
ATOM      1  N   UNL     1       5.345 -11.182  -1.801  0.00  0.00    +0.000 N 
ENDROOT
BRANCH   1   6
ATOM      2  C   UNL     1      11.026 -11.918  -2.516  0.00  0.00    +0.000 C 
ATOM      3  C   UNL     1       9.556 -11.716  -2.309  0.00  0.00    +0.000 A 
ATOM      4  C   UNL     1       8.782 -12.688  -1.683  0.00  0.00    +0.000 A 
ATOM      5  C   UNL     1       7.400 -12.506  -1.518  0.00  0.00    +0.000 A 
ATOM      6  C   UNL     1       6.721 -11.366  -1.986  0.00  0.00    +0.000 A 
ATOM      7  C   UNL     1       7.535 -10.403  -2.611  0.00  0.00    +0.000 A 
ATOM      8  C   UNL     1       8.919 -10.572  -2.781  0.00  0.00    +0.000 A 
ENDBRANCH   1   6
BRANCH   1   9
ATOM      9  C   UNL     1       4.716  -9.883  -2.140  0.00  0.00    +0.000 C 
BRANCH   9  10
ATOM     10  C   UNL     1       4.448  -9.724  -3.657  0.00  0.00    +0.000 C 
ATOM     11  C   UNL     1       3.885 -11.010  -4.249  0.00  0.00    +0.000 C 
BRANCH  10  12
ATOM     12  O   UNL     1       3.506  -8.671  -3.905  0.00  0.00    +0.000 OA
ATOM     13  H   UNL     1       3.995  -7.902  -4.241  0.00  0.00    +0.000 HD
ENDBRANCH  10  12
ENDBRANCH   9  10
ENDBRANCH   1   9
BRANCH   1  14
ATOM     14  C   UNL     1       4.582 -12.011  -0.833  0.00  0.00    +0.000 C 
BRANCH  14  15
ATOM     15  C   UNL     1       3.132 -11.503  -0.644  0.00  0.00    +0.000 C 
ATOM     16  C   UNL     1       2.096 -12.368  -1.352  0.00  0.00    +0.000 C 
BRANCH  15  17
ATOM     17  O   UNL     1       2.776 -11.427   0.735  0.00  0.00    +0.000 OA
ATOM     18  H   UNL     1       3.614 -11.563   1.221  0.00  0.00    +0.000 HD
ENDBRANCH  15  17
ENDBRANCH  14  15
ENDBRANCH   1  14
TORSDOF 7
ENDMDL
MODEL 7
REMARK VINA RESULT:    -4.406      9.558     12.125
REMARK INTER + INTRA:          -6.783
REMARK INTER:                  -6.194
REMARK INTRA:                  -0.589
REMARK UNBOUND:                -0.832
REMARK  Name = 
REMARK  10 active torsions:
REMARK  status: ('A' for Active; 'I' for Inactive)
REMARK    1  A    between atoms: C_1  and  C_2
REMARK    2  A    between atoms: C_5  and  N_8
REMARK    3  A    between atoms: N_8  and  C_9
REMARK    4  A    between atoms: N_8  and  C_13
REMARK    5  A    between atoms: C_9  and  C_10
REMARK    6  A    between atoms: C_10  and  C_11
REMARK    7  A    between atoms: C_10  and  O_12
REMARK    8  A    between atoms: C_13  and  C_14
REMARK    9  A    between atoms: C_14  and  C_15
REMARK   10  A    between atoms: C_14  and  O_16
REMARK                            x       y       z     vdW  Elec       q    Type
REMARK                         _______ _______ _______ _____ _____    ______ ____
ROOT
ATOM      1  N   UNL     1      14.803 -12.062 -10.335  0.00  0.00    +0.000 N 
ENDROOT
BRANCH   1   6
ATOM      2  C   UNL     1      13.386 -11.105  -4.821  0.00  0.00    +0.000 C 
ATOM      3  C   UNL     1      13.752 -11.378  -6.248  0.00  0.00    +0.000 A 
ATOM      4  C   UNL     1      15.083 -11.489  -6.635  0.00  0.00    +0.000 A 
ATOM      5  C   UNL     1      15.422 -11.715  -7.979  0.00  0.00    +0.000 A 
ATOM      6  C   UNL     1      14.459 -11.817  -8.999  0.00  0.00    +0.000 A 
ATOM      7  C   UNL     1      13.124 -11.702  -8.571  0.00  0.00    +0.000 A 
ATOM      8  C   UNL     1      12.772 -11.479  -7.230  0.00  0.00    +0.000 A 
ENDBRANCH   1   6
BRANCH   1   9
ATOM      9  C   UNL     1      15.478 -13.328 -10.709  0.00  0.00    +0.000 C 
BRANCH   9  10
ATOM     10  C   UNL     1      14.494 -14.517 -10.838  0.00  0.00    +0.000 C 
ATOM     11  C   UNL     1      14.367 -15.266  -9.516  0.00  0.00    +0.000 C 
BRANCH  10  12
ATOM     12  O   UNL     1      13.187 -14.064 -11.219  0.00  0.00    +0.000 OA
ATOM     13  H   UNL     1      13.216 -13.097 -11.302  0.00  0.00    +0.000 HD
ENDBRANCH  10  12
ENDBRANCH   9  10
ENDBRANCH   1   9
BRANCH   1  14
ATOM     14  C   UNL     1      14.992 -10.946 -11.297  0.00  0.00    +0.000 C 
BRANCH  14  15
ATOM     15  C   UNL     1      15.495 -11.441 -12.675  0.00  0.00    +0.000 C 
ATOM     16  C   UNL     1      14.433 -11.358 -13.765  0.00  0.00    +0.000 C 
BRANCH  15  17
ATOM     17  O   UNL     1      16.637 -10.708 -13.114  0.00  0.00    +0.000 OA
ATOM     18  H   UNL     1      17.246 -10.707 -12.348  0.00  0.00    +0.000 HD
ENDBRANCH  15  17
ENDBRANCH  14  15
ENDBRANCH   1  14
TORSDOF 7
ENDMDL
MODEL 8
REMARK VINA RESULT:    -4.397      2.073      2.548
REMARK INTER + INTRA:          -6.771
REMARK INTER:                  -6.347
REMARK INTRA:                  -0.424
REMARK UNBOUND:                -0.832
REMARK  Name = 
REMARK  10 active torsions:
REMARK  status: ('A' for Active; 'I' for Inactive)
REMARK    1  A    between atoms: C_1  and  C_2
REMARK    2  A    between atoms: C_5  and  N_8
REMARK    3  A    between atoms: N_8  and  C_9
REMARK    4  A    between atoms: N_8  and  C_13
REMARK    5  A    between atoms: C_9  and  C_10
REMARK    6  A    between atoms: C_10  and  C_11
REMARK    7  A    between atoms: C_10  and  O_12
REMARK    8  A    between atoms: C_13  and  C_14
REMARK    9  A    between atoms: C_14  and  C_15
REMARK   10  A    between atoms: C_14  and  O_16
REMARK                            x       y       z     vdW  Elec       q    Type
REMARK                         _______ _______ _______ _____ _____    ______ ____
ROOT
ATOM      1  N   UNL     1       5.505 -10.514  -1.768  0.00  0.00    +0.000 N 
ENDROOT
BRANCH   1   6
ATOM      2  C   UNL     1      10.883 -12.571  -2.193  0.00  0.00    +0.000 C 
ATOM      3  C   UNL     1       9.481 -12.049  -2.104  0.00  0.00    +0.000 A 
ATOM      4  C   UNL     1       9.134 -10.831  -2.678  0.00  0.00    +0.000 A 
ATOM      5  C   UNL     1       7.825 -10.333  -2.566  0.00  0.00    +0.000 A 
ATOM      6  C   UNL     1       6.813 -11.007  -1.860  0.00  0.00    +0.000 A 
ATOM      7  C   UNL     1       7.199 -12.236  -1.293  0.00  0.00    +0.000 A 
ATOM      8  C   UNL     1       8.503 -12.747  -1.401  0.00  0.00    +0.000 A 
ENDBRANCH   1   6
BRANCH   1   9
ATOM      9  C   UNL     1       4.738 -10.670  -0.508  0.00  0.00    +0.000 C 
BRANCH   9  10
ATOM     10  C   UNL     1       3.445 -11.501  -0.692  0.00  0.00    +0.000 C 
ATOM     11  C   UNL     1       3.766 -12.983  -0.844  0.00  0.00    +0.000 C 
BRANCH  10  12
ATOM     12  O   UNL     1       2.571 -11.350   0.436  0.00  0.00    +0.000 OA
ATOM     13  H   UNL     1       1.814 -11.946   0.312  0.00  0.00    +0.000 HD
ENDBRANCH  10  12
ENDBRANCH   9  10
ENDBRANCH   1   9
BRANCH   1  14
ATOM     14  C   UNL     1       4.675 -10.305  -2.982  0.00  0.00    +0.000 C 
BRANCH  14  15
ATOM     15  C   UNL     1       4.770 -11.495  -3.967  0.00  0.00    +0.000 C 
ATOM     16  C   UNL     1       3.411 -11.964  -4.473  0.00  0.00    +0.000 C 
BRANCH  15  17
ATOM     17  O   UNL     1       5.578 -11.179  -5.099  0.00  0.00    +0.000 OA
ATOM     18  H   UNL     1       6.115 -10.410  -4.820  0.00  0.00    +0.000 HD
ENDBRANCH  15  17
ENDBRANCH  14  15
ENDBRANCH   1  14
TORSDOF 7
ENDMDL
MODEL 9
REMARK VINA RESULT:    -4.380      2.689      5.812
REMARK INTER + INTRA:          -6.748
REMARK INTER:                  -6.275
REMARK INTRA:                  -0.473
REMARK UNBOUND:                -0.832
REMARK  Name = 
REMARK  10 active torsions:
REMARK  status: ('A' for Active; 'I' for Inactive)
REMARK    1  A    between atoms: C_1  and  C_2
REMARK    2  A    between atoms: C_5  and  N_8
REMARK    3  A    between atoms: N_8  and  C_9
REMARK    4  A    between atoms: N_8  and  C_13
REMARK    5  A    between atoms: C_9  and  C_10
REMARK    6  A    between atoms: C_10  and  C_11
REMARK    7  A    between atoms: C_10  and  O_12
REMARK    8  A    between atoms: C_13  and  C_14
REMARK    9  A    between atoms: C_14  and  C_15
REMARK   10  A    between atoms: C_14  and  O_16
REMARK                            x       y       z     vdW  Elec       q    Type
REMARK                         _______ _______ _______ _____ _____    ______ ____
ROOT
ATOM      1  N   UNL     1       3.905 -12.368  -2.420  0.00  0.00    +0.000 N 
ENDROOT
BRANCH   1   6
ATOM      2  C   UNL     1      -1.415 -11.857  -4.603  0.00  0.00    +0.000 C 
ATOM      3  C   UNL     1      -0.029 -12.005  -4.055  0.00  0.00    +0.000 A 
ATOM      4  C   UNL     1       0.258 -12.963  -3.089  0.00  0.00    +0.000 A 
ATOM      5  C   UNL     1       1.553 -13.078  -2.556  0.00  0.00    +0.000 A 
ATOM      6  C   UNL     1       2.611 -12.235  -2.941  0.00  0.00    +0.000 A 
ATOM      7  C   UNL     1       2.285 -11.280  -3.921  0.00  0.00    +0.000 A 
ATOM      8  C   UNL     1       0.995 -11.156  -4.463  0.00  0.00    +0.000 A 
ENDBRANCH   1   6
BRANCH   1   9
ATOM      9  C   UNL     1       5.055 -12.575  -3.332  0.00  0.00    +0.000 C 
BRANCH   9  10
ATOM     10  C   UNL     1       5.846 -11.273  -3.608  0.00  0.00    +0.000 C 
ATOM     11  C   UNL     1       7.209 -11.308  -2.926  0.00  0.00    +0.000 C 
BRANCH  10  12
ATOM     12  O   UNL     1       6.057 -11.086  -5.014  0.00  0.00    +0.000 OA
ATOM     13  H   UNL     1       6.100 -11.963  -5.431  0.00  0.00    +0.000 HD
ENDBRANCH  10  12
ENDBRANCH   9  10
ENDBRANCH   1   9
BRANCH   1  14
ATOM     14  C   UNL     1       4.129 -12.814  -1.021  0.00  0.00    +0.000 C 
BRANCH  14  15
ATOM     15  C   UNL     1       3.971 -11.656  -0.007  0.00  0.00    +0.000 C 
ATOM     16  C   UNL     1       4.485 -10.322  -0.535  0.00  0.00    +0.000 C 
BRANCH  15  17
ATOM     17  O   UNL     1       2.611 -11.480   0.386  0.00  0.00    +0.000 OA
ATOM     18  H   UNL     1       2.650 -11.235   1.332  0.00  0.00    +0.000 HD
ENDBRANCH  15  17
ENDBRANCH  14  15
ENDBRANCH   1  14
TORSDOF 7
ENDMDL
