MODEL 1
REMARK VINA RESULT:    -3.787      0.000      0.000
REMARK INTER + INTRA:          -4.170
REMARK INTER:                  -4.119
REMARK INTRA:                  -0.052
REMARK UNBOUND:                -0.052
REMARK  Name = 
REMARK  3 active torsions:
REMARK  status: ('A' for Active; 'I' for Inactive)
REMARK    1  A    between atoms: C_1  and  O_2
REMARK    2  A    between atoms: O_2  and  C_3
REMARK    3  A    between atoms: C_8  and  O_9
REMARK                            x       y       z     vdW  Elec       q    Type
REMARK                         _______ _______ _______ _____ _____    ______ ____
ROOT
ATOM      1  C   UNL     1       5.351 -10.103  -2.175  0.00  0.00    +0.000 A 
ATOM      2  C   UNL     1       6.554 -10.560  -2.712  0.00  0.00    +0.000 A 
ATOM      3  C   UNL     1       7.319 -11.503  -2.014  0.00  0.00    +0.000 A 
ATOM      4  C   UNL     1       6.886 -11.991  -0.779  0.00  0.00    +0.000 A 
ATOM      5  C   UNL     1       5.685 -11.539  -0.237  0.00  0.00    +0.000 A 
ATOM      6  C   UNL     1       4.933 -10.604  -0.936  0.00  0.00    +0.000 A 
ENDROOT
BRANCH   1   8
ATOM      7  C   UNL     1       3.800  -9.609  -3.907  0.00  0.00    +0.000 C 
ATOM      8  O   UNL     1       4.505  -9.186  -2.746  0.00  0.00    +0.000 OA
ENDBRANCH   1   8
BRANCH   6   9
ATOM      9  O   UNL     1       3.757 -10.175  -0.382  0.00  0.00    +0.000 OA
ATOM     10  H   UNL     1       4.010  -9.810   0.487  0.00  0.00    +0.000 HD
ENDBRANCH   6   9
TORSDOF 2
ENDMDL
MODEL 2
REMARK VINA RESULT:    -3.717      1.778      2.379
REMARK INTER + INTRA:          -4.095
REMARK INTER:                  -4.050
REMARK INTRA:                  -0.044
REMARK UNBOUND:                -0.052
REMARK  Name = 
REMARK  3 active torsions:
REMARK  status: ('A' for Active; 'I' for Inactive)
REMARK    1  A    between atoms: C_1  and  O_2
REMARK    2  A    between atoms: O_2  and  C_3
REMARK    3  A    between atoms: C_8  and  O_9
REMARK                            x       y       z     vdW  Elec       q    Type
REMARK                         _______ _______ _______ _____ _____    ______ ____
ROOT
ATOM      1  C   UNL     1       3.814 -11.106  -3.226  0.00  0.00    +0.000 A 
ATOM      2  C   UNL     1       4.582 -11.583  -4.287  0.00  0.00    +0.000 A 
ATOM      3  C   UNL     1       5.964 -11.353  -4.309  0.00  0.00    +0.000 A 
ATOM      4  C   UNL     1       6.581 -10.647  -3.275  0.00  0.00    +0.000 A 
ATOM      5  C   UNL     1       5.820 -10.167  -2.211  0.00  0.00    +0.000 A 
ATOM      6  C   UNL     1       4.451 -10.400  -2.198  0.00  0.00    +0.000 A 
ENDROOT
BRANCH   1   8
ATOM      7  C   UNL     1       1.669 -11.112  -4.249  0.00  0.00    +0.000 C 
ATOM      8  O   UNL     1       2.459 -11.255  -3.074  0.00  0.00    +0.000 OA
ENDBRANCH   1   8
BRANCH   6   9
ATOM      9  O   UNL     1       3.724  -9.918  -1.141  0.00  0.00    +0.000 OA
ATOM     10  H   UNL     1       4.386  -9.734  -0.448  0.00  0.00    +0.000 HD
ENDBRANCH   6   9
TORSDOF 2
ENDMDL
MODEL 3
REMARK VINA RESULT:    -3.575      2.439      2.999
REMARK INTER + INTRA:          -3.940
REMARK INTER:                  -3.899
REMARK INTRA:                  -0.041
REMARK UNBOUND:                -0.052
REMARK  Name = 
REMARK  3 active torsions:
REMARK  status: ('A' for Active; 'I' for Inactive)
REMARK    1  A    between atoms: C_1  and  O_2
REMARK    2  A    between atoms: O_2  and  C_3
REMARK    3  A    between atoms: C_8  and  O_9
REMARK                            x       y       z     vdW  Elec       q    Type
REMARK                         _______ _______ _______ _____ _____    ______ ____
ROOT
ATOM      1  C   UNL     1       2.855 -11.954  -1.464  0.00  0.00    +0.000 A 
ATOM      2  C   UNL     1       3.713 -11.903  -2.562  0.00  0.00    +0.000 A 
ATOM      3  C   UNL     1       4.955 -11.265  -2.451  0.00  0.00    +0.000 A 
ATOM      4  C   UNL     1       5.343 -10.677  -1.245  0.00  0.00    +0.000 A 
ATOM      5  C   UNL     1       4.491 -10.724  -0.144  0.00  0.00    +0.000 A 
ATOM      6  C   UNL     1       3.261 -11.358  -0.264  0.00  0.00    +0.000 A 
ENDROOT
BRANCH   1   8
ATOM      7  C   UNL     1       0.901 -12.586  -2.659  0.00  0.00    +0.000 C 
ATOM      8  O   UNL     1       1.616 -12.541  -1.430  0.00  0.00    +0.000 OA
ENDBRANCH   1   8
BRANCH   6   9
ATOM      9  O   UNL     1       2.441 -11.391   0.832  0.00  0.00    +0.000 OA
ATOM     10  H   UNL     1       1.586 -11.716   0.493  0.00  0.00    +0.000 HD
ENDBRANCH   6   9
TORSDOF 2
ENDMDL
MODEL 4
REMARK VINA RESULT:    -3.520      8.418      9.670
REMARK INTER + INTRA:          -3.881
REMARK INTER:                  -3.840
REMARK INTRA:                  -0.041
REMARK UNBOUND:                -0.052
REMARK  Name = 
REMARK  3 active torsions:
REMARK  status: ('A' for Active; 'I' for Inactive)
REMARK    1  A    between atoms: C_1  and  O_2
REMARK    2  A    between atoms: O_2  and  C_3
REMARK    3  A    between atoms: C_8  and  O_9
REMARK                            x       y       z     vdW  Elec       q    Type
REMARK                         _______ _______ _______ _____ _____    ______ ____
ROOT
ATOM      1  C   UNL     1      12.834 -12.157  -8.001  0.00  0.00    +0.000 A 
ATOM      2  C   UNL     1      14.036 -12.116  -7.295  0.00  0.00    +0.000 A 
ATOM      3  C   UNL     1      14.128 -11.369  -6.114  0.00  0.00    +0.000 A 
ATOM      4  C   UNL     1      13.023 -10.661  -5.636  0.00  0.00    +0.000 A 
ATOM      5  C   UNL     1      11.819 -10.698  -6.336  0.00  0.00    +0.000 A 
ATOM      6  C   UNL     1      11.737 -11.441  -7.506  0.00  0.00    +0.000 A 
ENDROOT
BRANCH   1   8
ATOM      7  C   UNL     1      13.715 -13.017 -10.033  0.00  0.00    +0.000 C 
ATOM      8  O   UNL     1      12.601 -12.843  -9.166  0.00  0.00    +0.000 OA
ENDBRANCH   1   8
BRANCH   6   9
ATOM      9  O   UNL     1      10.543 -11.462  -8.177  0.00  0.00    +0.000 OA
ATOM     10  H   UNL     1      10.115 -10.614  -7.948  0.00  0.00    +0.000 HD
ENDBRANCH   6   9
TORSDOF 2
ENDMDL
MODEL 5
REMARK VINA RESULT:    -3.514      7.153      8.573
REMARK INTER + INTRA:          -3.874
REMARK INTER:                  -3.828
REMARK INTRA:                  -0.046
REMARK UNBOUND:                -0.052
REMARK  Name = 
REMARK  3 active torsions:
REMARK  status: ('A' for Active; 'I' for Inactive)
REMARK    1  A    between atoms: C_1  and  O_2
REMARK    2  A    between atoms: O_2  and  C_3
REMARK    3  A    between atoms: C_8  and  O_9
REMARK                            x       y       z     vdW  Elec       q    Type
REMARK                         _______ _______ _______ _____ _____    ______ ____
ROOT
ATOM      1  C   UNL     1      11.571 -11.231  -6.185  0.00  0.00    +0.000 A 
ATOM      2  C   UNL     1      12.834 -11.280  -5.596  0.00  0.00    +0.000 A 
ATOM      3  C   UNL     1      13.968 -11.503  -6.388  0.00  0.00    +0.000 A 
ATOM      4  C   UNL     1      13.844 -11.677  -7.768  0.00  0.00    +0.000 A 
ATOM      5  C   UNL     1      12.585 -11.629  -8.364  0.00  0.00    +0.000 A 
ATOM      6  C   UNL     1      11.467 -11.408  -7.570  0.00  0.00    +0.000 A 
ENDROOT
BRANCH   1   8
ATOM      7  C   UNL     1      10.188 -11.735  -4.320  0.00  0.00    +0.000 C 
ATOM      8  O   UNL     1      10.381 -11.023  -5.536  0.00  0.00    +0.000 OA
ENDBRANCH   1   8
BRANCH   6   9
ATOM      9  O   UNL     1      10.241 -11.365  -8.179  0.00  0.00    +0.000 OA
ATOM     10  H   UNL     1      10.364 -11.845  -9.020  0.00  0.00    +0.000 HD
ENDBRANCH   6   9
TORSDOF 2
ENDMDL
MODEL 6
REMARK VINA RESULT:    -3.497     15.003     16.055
REMARK INTER + INTRA:          -3.855
REMARK INTER:                  -3.817
REMARK INTRA:                  -0.038
REMARK UNBOUND:                -0.052
REMARK  Name = 
REMARK  3 active torsions:
REMARK  status: ('A' for Active; 'I' for Inactive)
REMARK    1  A    between atoms: C_1  and  O_2
REMARK    2  A    between atoms: O_2  and  C_3
REMARK    3  A    between atoms: C_8  and  O_9
REMARK                            x       y       z     vdW  Elec       q    Type
REMARK                         _______ _______ _______ _____ _____    ______ ____
ROOT
ATOM      1  C   UNL     1      16.007 -11.445 -13.104  0.00  0.00    +0.000 A 
ATOM      2  C   UNL     1      14.947 -12.274 -12.741  0.00  0.00    +0.000 A 
ATOM      3  C   UNL     1      13.915 -12.532 -13.653  0.00  0.00    +0.000 A 
ATOM      4  C   UNL     1      13.939 -11.963 -14.927  0.00  0.00    +0.000 A 
ATOM      5  C   UNL     1      14.995 -11.134 -15.298  0.00  0.00    +0.000 A 
ATOM      6  C   UNL     1      16.014 -10.883 -14.387  0.00  0.00    +0.000 A 
ENDROOT
BRANCH   1   8
ATOM      7  C   UNL     1      16.987 -11.447 -10.940  0.00  0.00    +0.000 C 
ATOM      8  O   UNL     1      17.078 -11.106 -12.318  0.00  0.00    +0.000 OA
ENDBRANCH   1   8
BRANCH   6   9
ATOM      9  O   UNL     1      17.041 -10.065 -14.775  0.00  0.00    +0.000 OA
ATOM     10  H   UNL     1      16.656  -9.493 -15.466  0.00  0.00    +0.000 HD
ENDBRANCH   6   9
TORSDOF 2
ENDMDL
MODEL 7
REMARK VINA RESULT:    -3.481      1.388      3.113
REMARK INTER + INTRA:          -3.838
REMARK INTER:                  -3.799
REMARK INTRA:                  -0.039
REMARK UNBOUND:                -0.052
REMARK  Name = 
REMARK  3 active torsions:
REMARK  status: ('A' for Active; 'I' for Inactive)
REMARK    1  A    between atoms: C_1  and  O_2
REMARK    2  A    between atoms: O_2  and  C_3
REMARK    3  A    between atoms: C_8  and  O_9
REMARK                            x       y       z     vdW  Elec       q    Type
REMARK                         _______ _______ _______ _____ _____    ______ ____
ROOT
ATOM      1  C   UNL     1       5.608 -11.232  -1.560  0.00  0.00    +0.000 A 
ATOM      2  C   UNL     1       6.285 -11.767  -2.655  0.00  0.00    +0.000 A 
ATOM      3  C   UNL     1       5.831 -11.505  -3.954  0.00  0.00    +0.000 A 
ATOM      4  C   UNL     1       4.703 -10.710  -4.163  0.00  0.00    +0.000 A 
ATOM      5  C   UNL     1       4.021 -10.172  -3.074  0.00  0.00    +0.000 A 
ATOM      6  C   UNL     1       4.478 -10.437  -1.789  0.00  0.00    +0.000 A 
ENDROOT
BRANCH   1   8
ATOM      7  C   UNL     1       6.757 -12.525   0.069  0.00  0.00    +0.000 C 
ATOM      8  O   UNL     1       5.937 -11.405  -0.239  0.00  0.00    +0.000 OA
ENDBRANCH   1   8
BRANCH   6   9
ATOM      9  O   UNL     1       3.791  -9.897  -0.734  0.00  0.00    +0.000 OA
ATOM     10  H   UNL     1       2.888 -10.259  -0.814  0.00  0.00    +0.000 HD
ENDBRANCH   6   9
TORSDOF 2
ENDMDL
MODEL 8
REMARK VINA RESULT:    -3.448      2.307      3.431
REMARK INTER + INTRA:          -3.802
REMARK INTER:                  -3.750
REMARK INTRA:                  -0.053
REMARK UNBOUND:                -0.052
REMARK  Name = 
REMARK  3 active torsions:
REMARK  status: ('A' for Active; 'I' for Inactive)
REMARK    1  A    between atoms: C_1  and  O_2
REMARK    2  A    between atoms: O_2  and  C_3
REMARK    3  A    between atoms: C_8  and  O_9
REMARK                            x       y       z     vdW  Elec       q    Type
REMARK                         _______ _______ _______ _____ _____    ______ ____
ROOT
ATOM      1  C   UNL     1       2.905 -11.256  -3.302  0.00  0.00    +0.000 A 
ATOM      2  C   UNL     1       2.679 -12.008  -2.150  0.00  0.00    +0.000 A 
ATOM      3  C   UNL     1       3.382 -11.715  -0.975  0.00  0.00    +0.000 A 
ATOM      4  C   UNL     1       4.312 -10.674  -0.947  0.00  0.00    +0.000 A 
ATOM      5  C   UNL     1       4.543  -9.918  -2.094  0.00  0.00    +0.000 A 
ATOM      6  C   UNL     1       3.841 -10.215  -3.255  0.00  0.00    +0.000 A 
ENDROOT
BRANCH   1   8
ATOM      7  C   UNL     1       0.897 -11.156  -4.569  0.00  0.00    +0.000 C 
ATOM      8  O   UNL     1       2.292 -11.430  -4.517  0.00  0.00    +0.000 OA
ENDBRANCH   1   8
BRANCH   6   9
ATOM      9  O   UNL     1       4.085  -9.458  -4.370  0.00  0.00    +0.000 OA
ATOM     10  H   UNL     1       4.002 -10.082  -5.116  0.00  0.00    +0.000 HD
ENDBRANCH   6   9
TORSDOF 2
ENDMDL
MODEL 9
REMARK VINA RESULT:    -3.400      1.767      3.096
REMARK INTER + INTRA:          -3.750
REMARK INTER:                  -3.697
REMARK INTRA:                  -0.053
REMARK UNBOUND:                -0.052
REMARK  Name = 
REMARK  3 active torsions:
REMARK  status: ('A' for Active; 'I' for Inactive)
REMARK    1  A    between atoms: C_1  and  O_2
REMARK    2  A    between atoms: O_2  and  C_3
REMARK    3  A    between atoms: C_8  and  O_9
REMARK                            x       y       z     vdW  Elec       q    Type
REMARK                         _______ _______ _______ _____ _____    ______ ____
ROOT
ATOM      1  C   UNL     1       6.053 -11.287  -2.630  0.00  0.00    +0.000 A 
ATOM      2  C   UNL     1       7.132 -11.332  -1.748  0.00  0.00    +0.000 A 
ATOM      3  C   UNL     1       8.435 -11.151  -2.229  0.00  0.00    +0.000 A 
ATOM      4  C   UNL     1       8.664 -10.926  -3.587  0.00  0.00    +0.000 A 
ATOM      5  C   UNL     1       7.591 -10.880  -4.474  0.00  0.00    +0.000 A 
ATOM      6  C   UNL     1       6.302 -11.061  -3.989  0.00  0.00    +0.000 A 
ENDROOT
BRANCH   1   8
ATOM      7  C   UNL     1       4.156 -10.443  -1.473  0.00  0.00    +0.000 C 
ATOM      8  O   UNL     1       4.730 -11.447  -2.301  0.00  0.00    +0.000 OA
ENDBRANCH   1   8
BRANCH   6   9
ATOM      9  O   UNL     1       5.263 -11.011  -4.880  0.00  0.00    +0.000 OA
ATOM     10  H   UNL     1       4.782 -11.850  -4.748  0.00  0.00    +0.000 HD
ENDBRANCH   6   9
TORSDOF 2
ENDMDL
