MODEL 1
REMARK VINA RESULT:    -4.906      0.000      0.000
REMARK INTER + INTRA:          -7.452
REMARK INTER:                  -6.627
REMARK INTRA:                  -0.825
REMARK UNBOUND:                -0.825
REMARK  Name = 
REMARK  10 active torsions:
REMARK  status: ('A' for Active; 'I' for Inactive)
REMARK    1  A    between atoms: C_1  and  C_2
REMARK    2  A    between atoms: C_5  and  N_8
REMARK    3  A    between atoms: N_8  and  C_9
REMARK    4  A    between atoms: N_8  and  C_13
REMARK    5  A    between atoms: C_9  and  C_10
REMARK    6  A    between atoms: C_10  and  C_11
REMARK    7  A    between atoms: C_10  and  O_12
REMARK    8  A    between atoms: C_13  and  C_14
REMARK    9  A    between atoms: C_14  and  C_15
REMARK   10  A    between atoms: C_14  and  O_16
REMARK                            x       y       z     vdW  Elec       q    Type
REMARK                         _______ _______ _______ _____ _____    ______ ____
ROOT
ATOM      1  N   UNL     1       4.413 -10.763  -3.163  0.00  0.00    +0.000 N 
ENDROOT
BRANCH   1   6
ATOM      2  C   UNL     1      10.100 -11.508  -3.821  0.00  0.00    +0.000 C 
ATOM      3  C   UNL     1       8.623 -11.334  -3.634  0.00  0.00    +0.000 A 
ATOM      4  C   UNL     1       7.718 -11.955  -4.488  0.00  0.00    +0.000 A 
ATOM      5  C   UNL     1       6.335 -11.764  -4.327  0.00  0.00    +0.000 A 
ATOM      6  C   UNL     1       5.793 -10.934  -3.330  0.00  0.00    +0.000 A 
ATOM      7  C   UNL     1       6.737 -10.324  -2.484  0.00  0.00    +0.000 A 
ATOM      8  C   UNL     1       8.122 -10.508  -2.633  0.00  0.00    +0.000 A 
ENDBRANCH   1   6
BRANCH   1   9
ATOM      9  C   UNL     1       3.633 -11.744  -2.370  0.00  0.00    +0.000 C 
BRANCH   9  10
ATOM     10  C   UNL     1       3.549 -11.371  -0.870  0.00  0.00    +0.000 C 
ATOM     11  C   UNL     1       4.616 -12.104  -0.065  0.00  0.00    +0.000 C 
BRANCH  10  12
ATOM     12  O   UNL     1       3.737  -9.962  -0.678  0.00  0.00    +0.000 OA
ATOM     13  H   UNL     1       3.203  -9.494  -1.341  0.00  0.00    +0.000 HD
ENDBRANCH  10  12
ENDBRANCH   9  10
ENDBRANCH   1   9
BRANCH   1  14
ATOM     14  C   UNL     1       3.614  -9.965  -4.129  0.00  0.00    +0.000 C 
BRANCH  14  15
ATOM     15  C   UNL     1       3.880  -8.447  -3.993  0.00  0.00    +0.000 C 
ATOM     16  C   UNL     1       2.845  -7.590  -4.712  0.00  0.00    +0.000 C 
BRANCH  15  17
ATOM     17  O   UNL     1       3.919  -8.039  -2.627  0.00  0.00    +0.000 OA
ATOM     18  H   UNL     1       4.834  -8.223  -2.334  0.00  0.00    +0.000 HD
ENDBRANCH  15  17
ENDBRANCH  14  15
ENDBRANCH   1  14
TORSDOF 7
ENDMDL
MODEL 2
REMARK VINA RESULT:    -4.646      2.416      4.009
REMARK INTER + INTRA:          -7.101
REMARK INTER:                  -6.562
REMARK INTRA:                  -0.538
REMARK UNBOUND:                -0.825
REMARK  Name = 
REMARK  10 active torsions:
REMARK  status: ('A' for Active; 'I' for Inactive)
REMARK    1  A    between atoms: C_1  and  C_2
REMARK    2  A    between atoms: C_5  and  N_8
REMARK    3  A    between atoms: N_8  and  C_9
REMARK    4  A    between atoms: N_8  and  C_13
REMARK    5  A    between atoms: C_9  and  C_10
REMARK    6  A    between atoms: C_10  and  C_11
REMARK    7  A    between atoms: C_10  and  O_12
REMARK    8  A    between atoms: C_13  and  C_14
REMARK    9  A    between atoms: C_14  and  C_15
REMARK   10  A    between atoms: C_14  and  O_16
REMARK                            x       y       z     vdW  Elec       q    Type
REMARK                         _______ _______ _______ _____ _____    ______ ____
ROOT
ATOM      1  N   UNL     1       5.670 -11.054  -1.334  0.00  0.00    +0.000 N 
ENDROOT
BRANCH   1   6
ATOM      2  C   UNL     1      10.607 -13.924  -0.488  0.00  0.00    +0.000 C 
ATOM      3  C   UNL     1       9.335 -13.159  -0.696  0.00  0.00    +0.000 A 
ATOM      4  C   UNL     1       8.290 -13.251   0.217  0.00  0.00    +0.000 A 
ATOM      5  C   UNL     1       7.088 -12.556   0.002  0.00  0.00    +0.000 A 
ATOM      6  C   UNL     1       6.863 -11.760  -1.136  0.00  0.00    +0.000 A 
ATOM      7  C   UNL     1       7.942 -11.689  -2.036  0.00  0.00    +0.000 A 
ATOM      8  C   UNL     1       9.149 -12.377  -1.832  0.00  0.00    +0.000 A 
ENDBRANCH   1   6
BRANCH   1   9
ATOM      9  C   UNL     1       5.562 -10.071  -2.440  0.00  0.00    +0.000 C 
BRANCH   9  10
ATOM     10  C   UNL     1       4.826 -10.639  -3.678  0.00  0.00    +0.000 C 
ATOM     11  C   UNL     1       3.675  -9.730  -4.092  0.00  0.00    +0.000 C 
BRANCH  10  12
ATOM     12  O   UNL     1       5.718 -10.763  -4.795  0.00  0.00    +0.000 OA
ATOM     13  H   UNL     1       5.408 -11.499  -5.348  0.00  0.00    +0.000 HD
ENDBRANCH  10  12
ENDBRANCH   9  10
ENDBRANCH   1   9
BRANCH   1  14
ATOM     14  C   UNL     1       4.700 -10.856  -0.227  0.00  0.00    +0.000 C 
BRANCH  14  15
ATOM     15  C   UNL     1       3.299 -11.416  -0.569  0.00  0.00    +0.000 C 
ATOM     16  C   UNL     1       3.344 -12.808  -1.190  0.00  0.00    +0.000 C 
BRANCH  15  17
ATOM     17  O   UNL     1       2.458 -11.473   0.582  0.00  0.00    +0.000 OA
ATOM     18  H   UNL     1       2.185 -12.410   0.649  0.00  0.00    +0.000 HD
ENDBRANCH  15  17
ENDBRANCH  14  15
ENDBRANCH   1  14
TORSDOF 7
ENDMDL
MODEL 3
REMARK VINA RESULT:    -4.627      1.745      3.525
REMARK INTER + INTRA:          -7.075
REMARK INTER:                  -6.644
REMARK INTRA:                  -0.431
REMARK UNBOUND:                -0.825
REMARK  Name = 
REMARK  10 active torsions:
REMARK  status: ('A' for Active; 'I' for Inactive)
REMARK    1  A    between atoms: C_1  and  C_2
REMARK    2  A    between atoms: C_5  and  N_8
REMARK    3  A    between atoms: N_8  and  C_9
REMARK    4  A    between atoms: N_8  and  C_13
REMARK    5  A    between atoms: C_9  and  C_10
REMARK    6  A    between atoms: C_10  and  C_11
REMARK    7  A    between atoms: C_10  and  O_12
REMARK    8  A    between atoms: C_13  and  C_14
REMARK    9  A    between atoms: C_14  and  C_15
REMARK   10  A    between atoms: C_14  and  O_16
REMARK                            x       y       z     vdW  Elec       q    Type
REMARK                         _______ _______ _______ _____ _____    ______ ____
ROOT
ATOM      1  N   UNL     1       5.436 -10.599  -1.686  0.00  0.00    +0.000 N 
ENDROOT
BRANCH   1   6
ATOM      2  C   UNL     1      10.833 -12.516  -2.410  0.00  0.00    +0.000 C 
ATOM      3  C   UNL     1       9.440 -12.007  -2.201  0.00  0.00    +0.000 A 
ATOM      4  C   UNL     1       8.500 -12.762  -1.507  0.00  0.00    +0.000 A 
ATOM      5  C   UNL     1       7.187 -12.293  -1.340  0.00  0.00    +0.000 A 
ATOM      6  C   UNL     1       6.742 -11.069  -1.873  0.00  0.00    +0.000 A 
ATOM      7  C   UNL     1       7.719 -10.332  -2.566  0.00  0.00    +0.000 A 
ATOM      8  C   UNL     1       9.036 -10.788  -2.738  0.00  0.00    +0.000 A 
ENDBRANCH   1   6
BRANCH   1   9
ATOM      9  C   UNL     1       4.950  -9.430  -2.458  0.00  0.00    +0.000 C 
BRANCH   9  10
ATOM     10  C   UNL     1       4.077  -9.834  -3.672  0.00  0.00    +0.000 C 
ATOM     11  C   UNL     1       3.465  -8.606  -4.335  0.00  0.00    +0.000 C 
BRANCH  10  12
ATOM     12  O   UNL     1       4.855 -10.529  -4.656  0.00  0.00    +0.000 OA
ATOM     13  H   UNL     1       4.295 -11.217  -5.052  0.00  0.00    +0.000 HD
ENDBRANCH  10  12
ENDBRANCH   9  10
ENDBRANCH   1   9
BRANCH   1  14
ATOM     14  C   UNL     1       4.694 -10.869  -0.428  0.00  0.00    +0.000 C 
BRANCH  14  15
ATOM     15  C   UNL     1       3.259 -11.384  -0.695  0.00  0.00    +0.000 C 
ATOM     16  C   UNL     1       3.228 -12.738  -1.394  0.00  0.00    +0.000 C 
BRANCH  15  17
ATOM     17  O   UNL     1       2.505 -11.493   0.512  0.00  0.00    +0.000 OA
ATOM     18  H   UNL     1       1.680 -11.951   0.253  0.00  0.00    +0.000 HD
ENDBRANCH  15  17
ENDBRANCH  14  15
ENDBRANCH   1  14
TORSDOF 7
ENDMDL
MODEL 4
REMARK VINA RESULT:    -4.577      2.478      5.876
REMARK INTER + INTRA:          -7.008
REMARK INTER:                  -6.269
REMARK INTRA:                  -0.738
REMARK UNBOUND:                -0.825
REMARK  Name = 
REMARK  10 active torsions:
REMARK  status: ('A' for Active; 'I' for Inactive)
REMARK    1  A    between atoms: C_1  and  C_2
REMARK    2  A    between atoms: C_5  and  N_8
REMARK    3  A    between atoms: N_8  and  C_9
REMARK    4  A    between atoms: N_8  and  C_13
REMARK    5  A    between atoms: C_9  and  C_10
REMARK    6  A    between atoms: C_10  and  C_11
REMARK    7  A    between atoms: C_10  and  O_12
REMARK    8  A    between atoms: C_13  and  C_14
REMARK    9  A    between atoms: C_14  and  C_15
REMARK   10  A    between atoms: C_14  and  O_16
REMARK                            x       y       z     vdW  Elec       q    Type
REMARK                         _______ _______ _______ _____ _____    ______ ____
ROOT
ATOM      1  N   UNL     1       3.994 -11.964  -2.547  0.00  0.00    +0.000 N 
ENDROOT
BRANCH   1   6
ATOM      2  C   UNL     1      -1.415 -12.151  -4.557  0.00  0.00    +0.000 C 
ATOM      3  C   UNL     1      -0.007 -12.124  -4.047  0.00  0.00    +0.000 A 
ATOM      4  C   UNL     1       0.316 -12.673  -2.811  0.00  0.00    +0.000 A 
ATOM      5  C   UNL     1       1.632 -12.618  -2.325  0.00  0.00    +0.000 A 
ATOM      6  C   UNL     1       2.679 -11.998  -3.030  0.00  0.00    +0.000 A 
ATOM      7  C   UNL     1       2.317 -11.455  -4.276  0.00  0.00    +0.000 A 
ATOM      8  C   UNL     1       1.005 -11.505  -4.775  0.00  0.00    +0.000 A 
ENDBRANCH   1   6
BRANCH   1   9
ATOM      9  C   UNL     1       4.947 -10.950  -3.059  0.00  0.00    +0.000 C 
BRANCH   9  10
ATOM     10  C   UNL     1       4.802  -9.580  -2.352  0.00  0.00    +0.000 C 
ATOM     11  C   UNL     1       4.231  -8.534  -3.303  0.00  0.00    +0.000 C 
BRANCH  10  12
ATOM     12  O   UNL     1       3.928  -9.675  -1.219  0.00  0.00    +0.000 OA
ATOM     13  H   UNL     1       3.379  -8.873  -1.194  0.00  0.00    +0.000 HD
ENDBRANCH  10  12
ENDBRANCH   9  10
ENDBRANCH   1   9
BRANCH   1  14
ATOM     14  C   UNL     1       4.624 -13.168  -1.949  0.00  0.00    +0.000 C 
BRANCH  14  15
ATOM     15  C   UNL     1       4.887 -12.998  -0.433  0.00  0.00    +0.000 C 
ATOM     16  C   UNL     1       6.297 -12.511  -0.120  0.00  0.00    +0.000 C 
BRANCH  15  17
ATOM     17  O   UNL     1       3.963 -12.089   0.163  0.00  0.00    +0.000 OA
ATOM     18  H   UNL     1       3.307 -12.656   0.616  0.00  0.00    +0.000 HD
ENDBRANCH  15  17
ENDBRANCH  14  15
ENDBRANCH   1  14
TORSDOF 7
ENDMDL
MODEL 5
REMARK VINA RESULT:    -4.542     10.228     13.249
REMARK INTER + INTRA:          -6.960
REMARK INTER:                  -6.339
REMARK INTRA:                  -0.622
REMARK UNBOUND:                -0.825
REMARK  Name = 
REMARK  10 active torsions:
REMARK  status: ('A' for Active; 'I' for Inactive)
REMARK    1  A    between atoms: C_1  and  C_2
REMARK    2  A    between atoms: C_5  and  N_8
REMARK    3  A    between atoms: N_8  and  C_9
REMARK    4  A    between atoms: N_8  and  C_13
REMARK    5  A    between atoms: C_9  and  C_10
REMARK    6  A    between atoms: C_10  and  C_11
REMARK    7  A    between atoms: C_10  and  O_12
REMARK    8  A    between atoms: C_13  and  C_14
REMARK    9  A    between atoms: C_14  and  C_15
REMARK   10  A    between atoms: C_14  and  O_16
REMARK                            x       y       z     vdW  Elec       q    Type
REMARK                         _______ _______ _______ _____ _____    ______ ____
ROOT
ATOM      1  N   UNL     1      15.779 -11.774 -10.434  0.00  0.00    +0.000 N 
ENDROOT
BRANCH   1   6
ATOM      2  C   UNL     1      12.946 -11.557  -5.409  0.00  0.00    +0.000 C 
ATOM      3  C   UNL     1      13.680 -11.589  -6.714  0.00  0.00    +0.000 A 
ATOM      4  C   UNL     1      12.994 -11.727  -7.916  0.00  0.00    +0.000 A 
ATOM      5  C   UNL     1      13.689 -11.786  -9.135  0.00  0.00    +0.000 A 
ATOM      6  C   UNL     1      15.093 -11.734  -9.214  0.00  0.00    +0.000 A 
ATOM      7  C   UNL     1      15.753 -11.592  -7.980  0.00  0.00    +0.000 A 
ATOM      8  C   UNL     1      15.070 -11.530  -6.754  0.00  0.00    +0.000 A 
ENDBRANCH   1   6
BRANCH   1   9
ATOM      9  C   UNL     1      17.067 -12.501 -10.540  0.00  0.00    +0.000 C 
BRANCH   9  10
ATOM     10  C   UNL     1      18.295 -11.573 -10.379  0.00  0.00    +0.000 C 
ATOM     11  C   UNL     1      19.240 -12.100  -9.306  0.00  0.00    +0.000 C 
BRANCH  10  12
ATOM     12  O   UNL     1      19.029 -11.474 -11.608  0.00  0.00    +0.000 OA
ATOM     13  H   UNL     1      19.411 -12.346 -11.801  0.00  0.00    +0.000 HD
ENDBRANCH  10  12
ENDBRANCH   9  10
ENDBRANCH   1   9
BRANCH   1  14
ATOM     14  C   UNL     1      15.563 -10.733 -11.472  0.00  0.00    +0.000 C 
BRANCH  14  15
ATOM     15  C   UNL     1      15.769 -11.284 -12.904  0.00  0.00    +0.000 C 
ATOM     16  C   UNL     1      14.531 -11.151 -13.782  0.00  0.00    +0.000 C 
BRANCH  15  17
ATOM     17  O   UNL     1      16.853 -10.635 -13.567  0.00  0.00    +0.000 OA
ATOM     18  H   UNL     1      16.445 -10.179 -14.331  0.00  0.00    +0.000 HD
ENDBRANCH  15  17
ENDBRANCH  14  15
ENDBRANCH   1  14
TORSDOF 7
ENDMDL
MODEL 6
REMARK VINA RESULT:    -4.494      4.493      7.778
REMARK INTER + INTRA:          -6.896
REMARK INTER:                  -6.427
REMARK INTRA:                  -0.469
REMARK UNBOUND:                -0.825
REMARK  Name = 
REMARK  10 active torsions:
REMARK  status: ('A' for Active; 'I' for Inactive)
REMARK    1  A    between atoms: C_1  and  C_2
REMARK    2  A    between atoms: C_5  and  N_8
REMARK    3  A    between atoms: N_8  and  C_9
REMARK    4  A    between atoms: N_8  and  C_13
REMARK    5  A    between atoms: C_9  and  C_10
REMARK    6  A    between atoms: C_10  and  C_11
REMARK    7  A    between atoms: C_10  and  O_12
REMARK    8  A    between atoms: C_13  and  C_14
REMARK    9  A    between atoms: C_14  and  C_15
REMARK   10  A    between atoms: C_14  and  O_16
REMARK                            x       y       z     vdW  Elec       q    Type
REMARK                         _______ _______ _______ _____ _____    ______ ____
ROOT
ATOM      1  N   UNL     1      11.167 -11.981  -5.003  0.00  0.00    +0.000 N 
ENDROOT
BRANCH   1   6
ATOM      2  C   UNL     1       6.324 -10.247  -2.383  0.00  0.00    +0.000 C 
ATOM      3  C   UNL     1       7.574 -10.721  -3.058  0.00  0.00    +0.000 A 
ATOM      4  C   UNL     1       8.760 -10.863  -2.346  0.00  0.00    +0.000 A 
ATOM      5  C   UNL     1       9.937 -11.279  -2.991  0.00  0.00    +0.000 A 
ATOM      6  C   UNL     1       9.995 -11.548  -4.370  0.00  0.00    +0.000 A 
ATOM      7  C   UNL     1       8.777 -11.395  -5.058  0.00  0.00    +0.000 A 
ATOM      8  C   UNL     1       7.593 -10.982  -4.425  0.00  0.00    +0.000 A 
ENDBRANCH   1   6
BRANCH   1   9
ATOM      9  C   UNL     1      11.092 -12.697  -6.298  0.00  0.00    +0.000 C 
BRANCH   9  10
ATOM     10  C   UNL     1      11.451 -11.795  -7.505  0.00  0.00    +0.000 C 
ATOM     11  C   UNL     1      12.333 -12.541  -8.499  0.00  0.00    +0.000 C 
BRANCH  10  12
ATOM     12  O   UNL     1      10.270 -11.364  -8.195  0.00  0.00    +0.000 OA
ATOM     13  H   UNL     1       9.751 -12.153  -8.426  0.00  0.00    +0.000 HD
ENDBRANCH  10  12
ENDBRANCH   9  10
ENDBRANCH   1   9
BRANCH   1  14
ATOM     14  C   UNL     1      12.416 -12.214  -4.232  0.00  0.00    +0.000 C 
BRANCH  14  15
ATOM     15  C   UNL     1      13.491 -11.140  -4.523  0.00  0.00    +0.000 C 
ATOM     16  C   UNL     1      14.645 -11.662  -5.372  0.00  0.00    +0.000 C 
BRANCH  15  17
ATOM     17  O   UNL     1      12.936 -10.003  -5.182  0.00  0.00    +0.000 OA
ATOM     18  H   UNL     1      13.538  -9.828  -5.934  0.00  0.00    +0.000 HD
ENDBRANCH  15  17
ENDBRANCH  14  15
ENDBRANCH   1  14
TORSDOF 7
ENDMDL
MODEL 7
REMARK VINA RESULT:    -4.494     10.294     13.544
REMARK INTER + INTRA:          -6.895
REMARK INTER:                  -6.253
REMARK INTRA:                  -0.643
REMARK UNBOUND:                -0.825
REMARK  Name = 
REMARK  10 active torsions:
REMARK  status: ('A' for Active; 'I' for Inactive)
REMARK    1  A    between atoms: C_1  and  C_2
REMARK    2  A    between atoms: C_5  and  N_8
REMARK    3  A    between atoms: N_8  and  C_9
REMARK    4  A    between atoms: N_8  and  C_13
REMARK    5  A    between atoms: C_9  and  C_10
REMARK    6  A    between atoms: C_10  and  C_11
REMARK    7  A    between atoms: C_10  and  O_12
REMARK    8  A    between atoms: C_13  and  C_14
REMARK    9  A    between atoms: C_14  and  C_15
REMARK   10  A    between atoms: C_14  and  O_16
REMARK                            x       y       z     vdW  Elec       q    Type
REMARK                         _______ _______ _______ _____ _____    ______ ____
ROOT
ATOM      1  N   UNL     1      15.936 -11.396 -10.389  0.00  0.00    +0.000 N 
ENDROOT
BRANCH   1   6
ATOM      2  C   UNL     1      12.901 -11.902  -5.504  0.00  0.00    +0.000 C 
ATOM      3  C   UNL     1      13.686 -11.746  -6.771  0.00  0.00    +0.000 A 
ATOM      4  C   UNL     1      13.060 -11.814  -8.011  0.00  0.00    +0.000 A 
ATOM      5  C   UNL     1      13.805 -11.697  -9.196  0.00  0.00    +0.000 A 
ATOM      6  C   UNL     1      15.202 -11.531  -9.204  0.00  0.00    +0.000 A 
ATOM      7  C   UNL     1      15.800 -11.465  -7.932  0.00  0.00    +0.000 A 
ATOM      8  C   UNL     1      15.067 -11.578  -6.740  0.00  0.00    +0.000 A 
ENDBRANCH   1   6
BRANCH   1   9
ATOM      9  C   UNL     1      15.327 -10.734 -11.569  0.00  0.00    +0.000 C 
BRANCH   9  10
ATOM     10  C   UNL     1      15.737 -11.397 -12.906  0.00  0.00    +0.000 C 
ATOM     11  C   UNL     1      14.531 -11.569 -13.822  0.00  0.00    +0.000 C 
BRANCH  10  12
ATOM     12  O   UNL     1      16.710 -10.602 -13.598  0.00  0.00    +0.000 OA
ATOM     13  H   UNL     1      17.080  -9.962 -12.968  0.00  0.00    +0.000 HD
ENDBRANCH  10  12
ENDBRANCH   9  10
ENDBRANCH   1   9
BRANCH   1  14
ATOM     14  C   UNL     1      17.071 -12.302 -10.698  0.00  0.00    +0.000 C 
BRANCH  14  15
ATOM     15  C   UNL     1      18.440 -11.592 -10.559  0.00  0.00    +0.000 C 
ATOM     16  C   UNL     1      19.370 -12.274  -9.562  0.00  0.00    +0.000 C 
BRANCH  15  17
ATOM     17  O   UNL     1      19.119 -11.507 -11.811  0.00  0.00    +0.000 OA
ATOM     18  H   UNL     1      18.519 -10.996 -12.390  0.00  0.00    +0.000 HD
ENDBRANCH  15  17
ENDBRANCH  14  15
ENDBRANCH   1  14
TORSDOF 7
ENDMDL
MODEL 8
REMARK VINA RESULT:    -4.425      9.590     12.145
REMARK INTER + INTRA:          -6.802
REMARK INTER:                  -6.223
REMARK INTRA:                  -0.579
REMARK UNBOUND:                -0.825
REMARK  Name = 
REMARK  10 active torsions:
REMARK  status: ('A' for Active; 'I' for Inactive)
REMARK    1  A    between atoms: C_1  and  C_2
REMARK    2  A    between atoms: C_5  and  N_8
REMARK    3  A    between atoms: N_8  and  C_9
REMARK    4  A    between atoms: N_8  and  C_13
REMARK    5  A    between atoms: C_9  and  C_10
REMARK    6  A    between atoms: C_10  and  C_11
REMARK    7  A    between atoms: C_10  and  O_12
REMARK    8  A    between atoms: C_13  and  C_14
REMARK    9  A    between atoms: C_14  and  C_15
REMARK   10  A    between atoms: C_14  and  O_16
REMARK                            x       y       z     vdW  Elec       q    Type
REMARK                         _______ _______ _______ _____ _____    ______ ____
ROOT
ATOM      1  N   UNL     1      14.781 -12.076 -10.347  0.00  0.00    +0.000 N 
ENDROOT
BRANCH   1   6
ATOM      2  C   UNL     1      13.453 -11.103  -4.814  0.00  0.00    +0.000 C 
ATOM      3  C   UNL     1      13.796 -11.380  -6.245  0.00  0.00    +0.000 A 
ATOM      4  C   UNL     1      15.120 -11.503  -6.652  0.00  0.00    +0.000 A 
ATOM      5  C   UNL     1      15.437 -11.733  -8.000  0.00  0.00    +0.000 A 
ATOM      6  C   UNL     1      14.459 -11.827  -9.007  0.00  0.00    +0.000 A 
ATOM      7  C   UNL     1      13.131 -11.700  -8.560  0.00  0.00    +0.000 A 
ATOM      8  C   UNL     1      12.800 -11.472  -7.214  0.00  0.00    +0.000 A 
ENDBRANCH   1   6
BRANCH   1   9
ATOM      9  C   UNL     1      15.466 -13.335 -10.725  0.00  0.00    +0.000 C 
BRANCH   9  10
ATOM     10  C   UNL     1      14.494 -14.535 -10.844  0.00  0.00    +0.000 C 
ATOM     11  C   UNL     1      14.441 -15.324  -9.541  0.00  0.00    +0.000 C 
BRANCH  10  12
ATOM     12  O   UNL     1      13.165 -14.092 -11.150  0.00  0.00    +0.000 OA
ATOM     13  H   UNL     1      13.060 -13.191 -10.802  0.00  0.00    +0.000 HD
ENDBRANCH  10  12
ENDBRANCH   9  10
ENDBRANCH   1   9
BRANCH   1  14
ATOM     14  C   UNL     1      14.937 -10.964 -11.319  0.00  0.00    +0.000 C 
BRANCH  14  15
ATOM     15  C   UNL     1      15.506 -11.448 -12.675  0.00  0.00    +0.000 C 
ATOM     16  C   UNL     1      14.501 -11.350 -13.816  0.00  0.00    +0.000 C 
BRANCH  15  17
ATOM     17  O   UNL     1      16.672 -10.717 -13.049  0.00  0.00    +0.000 OA
ATOM     18  H   UNL     1      17.317 -11.396 -13.332  0.00  0.00    +0.000 HD
ENDBRANCH  15  17
ENDBRANCH  14  15
ENDBRANCH   1  14
TORSDOF 7
ENDMDL
MODEL 9
REMARK VINA RESULT:    -4.402      2.563      5.463
REMARK INTER + INTRA:          -6.771
REMARK INTER:                  -6.356
REMARK INTRA:                  -0.415
REMARK UNBOUND:                -0.825
REMARK  Name = 
REMARK  10 active torsions:
REMARK  status: ('A' for Active; 'I' for Inactive)
REMARK    1  A    between atoms: C_1  and  C_2
REMARK    2  A    between atoms: C_5  and  N_8
REMARK    3  A    between atoms: N_8  and  C_9
REMARK    4  A    between atoms: N_8  and  C_13
REMARK    5  A    between atoms: C_9  and  C_10
REMARK    6  A    between atoms: C_10  and  C_11
REMARK    7  A    between atoms: C_10  and  O_12
REMARK    8  A    between atoms: C_13  and  C_14
REMARK    9  A    between atoms: C_14  and  C_15
REMARK   10  A    between atoms: C_14  and  O_16
REMARK                            x       y       z     vdW  Elec       q    Type
REMARK                         _______ _______ _______ _____ _____    ______ ____
ROOT
ATOM      1  N   UNL     1       4.927 -10.872  -3.936  0.00  0.00    +0.000 N 
ENDROOT
BRANCH   1   6
ATOM      2  C   UNL     1      -0.262 -12.892  -5.460  0.00  0.00    +0.000 C 
ATOM      3  C   UNL     1       1.081 -12.378  -5.042  0.00  0.00    +0.000 A 
ATOM      4  C   UNL     1       1.226 -11.094  -4.527  0.00  0.00    +0.000 A 
ATOM      5  C   UNL     1       2.492 -10.606  -4.165  0.00  0.00    +0.000 A 
ATOM      6  C   UNL     1       3.670 -11.358  -4.318  0.00  0.00    +0.000 A 
ATOM      7  C   UNL     1       3.486 -12.652  -4.839  0.00  0.00    +0.000 A 
ATOM      8  C   UNL     1       2.225 -13.153  -5.203  0.00  0.00    +0.000 A 
ENDBRANCH   1   6
BRANCH   1   9
ATOM      9  C   UNL     1       6.159 -11.555  -4.397  0.00  0.00    +0.000 C 
BRANCH   9  10
ATOM     10  C   UNL     1       7.419 -10.663  -4.281  0.00  0.00    +0.000 C 
ATOM     11  C   UNL     1       8.568 -11.424  -3.629  0.00  0.00    +0.000 C 
BRANCH  10  12
ATOM     12  O   UNL     1       7.857 -10.219  -5.573  0.00  0.00    +0.000 OA
ATOM     13  H   UNL     1       7.164  -9.649  -5.946  0.00  0.00    +0.000 HD
ENDBRANCH  10  12
ENDBRANCH   9  10
ENDBRANCH   1   9
BRANCH   1  14
ATOM     14  C   UNL     1       5.092 -10.044  -2.714  0.00  0.00    +0.000 C 
BRANCH  14  15
ATOM     15  C   UNL     1       4.545 -10.751  -1.451  0.00  0.00    +0.000 C 
ATOM     16  C   UNL     1       5.640 -11.355  -0.580  0.00  0.00    +0.000 C 
BRANCH  15  17
ATOM     17  O   UNL     1       3.776  -9.862  -0.641  0.00  0.00    +0.000 OA
ATOM     18  H   UNL     1       2.906 -10.299  -0.542  0.00  0.00    +0.000 HD
ENDBRANCH  15  17
ENDBRANCH  14  15
ENDBRANCH   1  14
TORSDOF 7
ENDMDL
