MODEL 1
REMARK VINA RESULT:    -3.771      0.000      0.000
REMARK INTER + INTRA:          -4.152
REMARK INTER:                  -4.102
REMARK INTRA:                  -0.050
REMARK UNBOUND:                -0.050
REMARK  Name = 
REMARK  3 active torsions:
REMARK  status: ('A' for Active; 'I' for Inactive)
REMARK    1  A    between atoms: C_1  and  O_2
REMARK    2  A    between atoms: O_2  and  C_3
REMARK    3  A    between atoms: C_8  and  O_9
REMARK                            x       y       z     vdW  Elec       q    Type
REMARK                         _______ _______ _______ _____ _____    ______ ____
ROOT
ATOM      1  C   UNL     1       5.363 -10.100  -2.332  0.00  0.00    +0.000 A 
ATOM      2  C   UNL     1       6.550 -10.560  -2.900  0.00  0.00    +0.000 A 
ATOM      3  C   UNL     1       7.348 -11.479  -2.206  0.00  0.00    +0.000 A 
ATOM      4  C   UNL     1       6.963 -11.939  -0.945  0.00  0.00    +0.000 A 
ATOM      5  C   UNL     1       5.778 -11.485  -0.372  0.00  0.00    +0.000 A 
ATOM      6  C   UNL     1       4.993 -10.573  -1.067  0.00  0.00    +0.000 A 
ENDROOT
BRANCH   1   8
ATOM      7  C   UNL     1       3.731  -9.670  -4.006  0.00  0.00    +0.000 C 
ATOM      8  O   UNL     1       4.489  -9.205  -2.895  0.00  0.00    +0.000 OA
ENDBRANCH   1   8
BRANCH   6   9
ATOM      9  O   UNL     1       3.833 -10.141  -0.483  0.00  0.00    +0.000 OA
ATOM     10  H   UNL     1       4.092  -9.350   0.027  0.00  0.00    +0.000 HD
ENDBRANCH   6   9
TORSDOF 2
ENDMDL
MODEL 2
REMARK VINA RESULT:    -3.725      1.717      2.256
REMARK INTER + INTRA:          -4.102
REMARK INTER:                  -4.058
REMARK INTRA:                  -0.044
REMARK UNBOUND:                -0.050
REMARK  Name = 
REMARK  3 active torsions:
REMARK  status: ('A' for Active; 'I' for Inactive)
REMARK    1  A    between atoms: C_1  and  O_2
REMARK    2  A    between atoms: O_2  and  C_3
REMARK    3  A    between atoms: C_8  and  O_9
REMARK                            x       y       z     vdW  Elec       q    Type
REMARK                         _______ _______ _______ _____ _____    ______ ____
ROOT
ATOM      1  C   UNL     1       3.825 -11.112  -3.195  0.00  0.00    +0.000 A 
ATOM      2  C   UNL     1       4.602 -11.574  -4.257  0.00  0.00    +0.000 A 
ATOM      3  C   UNL     1       5.981 -11.327  -4.273  0.00  0.00    +0.000 A 
ATOM      4  C   UNL     1       6.586 -10.620  -3.233  0.00  0.00    +0.000 A 
ATOM      5  C   UNL     1       5.816 -10.156  -2.169  0.00  0.00    +0.000 A 
ATOM      6  C   UNL     1       4.449 -10.405  -2.161  0.00  0.00    +0.000 A 
ENDROOT
BRANCH   1   8
ATOM      7  C   UNL     1       1.683 -11.135  -4.225  0.00  0.00    +0.000 C 
ATOM      8  O   UNL     1       2.471 -11.279  -3.049  0.00  0.00    +0.000 OA
ENDBRANCH   1   8
BRANCH   6   9
ATOM      9  O   UNL     1       3.713  -9.938  -1.104  0.00  0.00    +0.000 OA
ATOM     10  H   UNL     1       3.947  -8.993  -1.037  0.00  0.00    +0.000 HD
ENDBRANCH   6   9
TORSDOF 2
ENDMDL
MODEL 3
REMARK VINA RESULT:    -3.568      2.523      3.086
REMARK INTER + INTRA:          -3.931
REMARK INTER:                  -3.889
REMARK INTRA:                  -0.042
REMARK UNBOUND:                -0.050
REMARK  Name = 
REMARK  3 active torsions:
REMARK  status: ('A' for Active; 'I' for Inactive)
REMARK    1  A    between atoms: C_1  and  O_2
REMARK    2  A    between atoms: O_2  and  C_3
REMARK    3  A    between atoms: C_8  and  O_9
REMARK                            x       y       z     vdW  Elec       q    Type
REMARK                         _______ _______ _______ _____ _____    ______ ____
ROOT
ATOM      1  C   UNL     1       2.786 -12.010  -1.494  0.00  0.00    +0.000 A 
ATOM      2  C   UNL     1       3.641 -11.942  -2.593  0.00  0.00    +0.000 A 
ATOM      3  C   UNL     1       4.878 -11.296  -2.479  0.00  0.00    +0.000 A 
ATOM      4  C   UNL     1       5.264 -10.716  -1.269  0.00  0.00    +0.000 A 
ATOM      5  C   UNL     1       4.416 -10.781  -0.166  0.00  0.00    +0.000 A 
ATOM      6  C   UNL     1       3.191 -11.423  -0.288  0.00  0.00    +0.000 A 
ENDROOT
BRANCH   1   8
ATOM      7  C   UNL     1       0.782 -12.539  -2.656  0.00  0.00    +0.000 C 
ATOM      8  O   UNL     1       1.552 -12.607  -1.462  0.00  0.00    +0.000 OA
ENDBRANCH   1   8
BRANCH   6   9
ATOM      9  O   UNL     1       2.375 -11.474   0.810  0.00  0.00    +0.000 OA
ATOM     10  H   UNL     1       1.469 -11.485   0.446  0.00  0.00    +0.000 HD
ENDBRANCH   6   9
TORSDOF 2
ENDMDL
MODEL 4
REMARK VINA RESULT:    -3.520      1.623      2.639
REMARK INTER + INTRA:          -3.879
REMARK INTER:                  -3.827
REMARK INTRA:                  -0.052
REMARK UNBOUND:                -0.050
REMARK  Name = 
REMARK  3 active torsions:
REMARK  status: ('A' for Active; 'I' for Inactive)
REMARK    1  A    between atoms: C_1  and  O_2
REMARK    2  A    between atoms: O_2  and  C_3
REMARK    3  A    between atoms: C_8  and  O_9
REMARK                            x       y       z     vdW  Elec       q    Type
REMARK                         _______ _______ _______ _____ _____    ______ ____
ROOT
ATOM      1  C   UNL     1       4.236 -10.571  -3.033  0.00  0.00    +0.000 A 
ATOM      2  C   UNL     1       4.096 -10.546  -1.646  0.00  0.00    +0.000 A 
ATOM      3  C   UNL     1       5.174 -10.904  -0.827  0.00  0.00    +0.000 A 
ATOM      4  C   UNL     1       6.393 -11.287  -1.390  0.00  0.00    +0.000 A 
ATOM      5  C   UNL     1       6.542 -11.314  -2.774  0.00  0.00    +0.000 A 
ATOM      6  C   UNL     1       5.467 -10.958  -3.579  0.00  0.00    +0.000 A 
ENDROOT
BRANCH   1   8
ATOM      7  C   UNL     1       2.158 -11.131  -4.040  0.00  0.00    +0.000 C 
ATOM      8  O   UNL     1       3.270 -10.249  -3.952  0.00  0.00    +0.000 OA
ENDBRANCH   1   8
BRANCH   6   9
ATOM      9  O   UNL     1       5.636 -10.993  -4.937  0.00  0.00    +0.000 OA
ATOM     10  H   UNL     1       5.293 -10.135  -5.253  0.00  0.00    +0.000 HD
ENDBRANCH   6   9
TORSDOF 2
ENDMDL
MODEL 5
REMARK VINA RESULT:    -3.504      7.042      8.476
REMARK INTER + INTRA:          -3.862
REMARK INTER:                  -3.813
REMARK INTRA:                  -0.049
REMARK UNBOUND:                -0.050
REMARK  Name = 
REMARK  3 active torsions:
REMARK  status: ('A' for Active; 'I' for Inactive)
REMARK    1  A    between atoms: C_1  and  O_2
REMARK    2  A    between atoms: O_2  and  C_3
REMARK    3  A    between atoms: C_8  and  O_9
REMARK                            x       y       z     vdW  Elec       q    Type
REMARK                         _______ _______ _______ _____ _____    ______ ____
ROOT
ATOM      1  C   UNL     1      11.580 -11.199  -6.203  0.00  0.00    +0.000 A 
ATOM      2  C   UNL     1      12.831 -11.240  -5.588  0.00  0.00    +0.000 A 
ATOM      3  C   UNL     1      13.979 -11.480  -6.353  0.00  0.00    +0.000 A 
ATOM      4  C   UNL     1      13.882 -11.679  -7.732  0.00  0.00    +0.000 A 
ATOM      5  C   UNL     1      12.636 -11.638  -8.353  0.00  0.00    +0.000 A 
ATOM      6  C   UNL     1      11.503 -11.400  -7.586  0.00  0.00    +0.000 A 
ENDROOT
BRANCH   1   8
ATOM      7  C   UNL     1      10.081 -11.799  -4.459  0.00  0.00    +0.000 C 
ATOM      8  O   UNL     1      10.378 -10.976  -5.581  0.00  0.00    +0.000 OA
ENDBRANCH   1   8
BRANCH   6   9
ATOM      9  O   UNL     1      10.289 -11.365  -8.220  0.00  0.00    +0.000 OA
ATOM     10  H   UNL     1      10.435 -10.806  -9.006  0.00  0.00    +0.000 HD
ENDBRANCH   6   9
TORSDOF 2
ENDMDL
MODEL 6
REMARK VINA RESULT:    -3.498      8.238      9.519
REMARK INTER + INTRA:          -3.855
REMARK INTER:                  -3.815
REMARK INTRA:                  -0.040
REMARK UNBOUND:                -0.050
REMARK  Name = 
REMARK  3 active torsions:
REMARK  status: ('A' for Active; 'I' for Inactive)
REMARK    1  A    between atoms: C_1  and  O_2
REMARK    2  A    between atoms: O_2  and  C_3
REMARK    3  A    between atoms: C_8  and  O_9
REMARK                            x       y       z     vdW  Elec       q    Type
REMARK                         _______ _______ _______ _____ _____    ______ ____
ROOT
ATOM      1  C   UNL     1      12.749 -12.212  -7.983  0.00  0.00    +0.000 A 
ATOM      2  C   UNL     1      13.965 -12.182  -7.302  0.00  0.00    +0.000 A 
ATOM      3  C   UNL     1      14.102 -11.399  -6.148  0.00  0.00    +0.000 A 
ATOM      4  C   UNL     1      13.027 -10.645  -5.674  0.00  0.00    +0.000 A 
ATOM      5  C   UNL     1      11.809 -10.669  -6.349  0.00  0.00    +0.000 A 
ATOM      6  C   UNL     1      11.683 -11.448  -7.492  0.00  0.00    +0.000 A 
ENDROOT
BRANCH   1   8
ATOM      7  C   UNL     1      13.583 -13.253  -9.950  0.00  0.00    +0.000 C 
ATOM      8  O   UNL     1      12.474 -12.929  -9.120  0.00  0.00    +0.000 OA
ENDBRANCH   1   8
BRANCH   6   9
ATOM      9  O   UNL     1      10.476 -11.456  -8.139  0.00  0.00    +0.000 OA
ATOM     10  H   UNL     1       9.811 -11.466  -7.424  0.00  0.00    +0.000 HD
ENDBRANCH   6   9
TORSDOF 2
ENDMDL
MODEL 7
REMARK VINA RESULT:    -3.496      1.293      3.080
REMARK INTER + INTRA:          -3.853
REMARK INTER:                  -3.815
REMARK INTRA:                  -0.037
REMARK UNBOUND:                -0.050
REMARK  Name = 
REMARK  3 active torsions:
REMARK  status: ('A' for Active; 'I' for Inactive)
REMARK    1  A    between atoms: C_1  and  O_2
REMARK    2  A    between atoms: O_2  and  C_3
REMARK    3  A    between atoms: C_8  and  O_9
REMARK                            x       y       z     vdW  Elec       q    Type
REMARK                         _______ _______ _______ _____ _____    ______ ____
ROOT
ATOM      1  C   UNL     1       5.724 -11.133  -1.472  0.00  0.00    +0.000 A 
ATOM      2  C   UNL     1       6.482 -11.533  -2.572  0.00  0.00    +0.000 A 
ATOM      3  C   UNL     1       6.103 -11.144  -3.862  0.00  0.00    +0.000 A 
ATOM      4  C   UNL     1       4.968 -10.355  -4.059  0.00  0.00    +0.000 A 
ATOM      5  C   UNL     1       4.206  -9.951  -2.966  0.00  0.00    +0.000 A 
ATOM      6  C   UNL     1       4.589 -10.342  -1.689  0.00  0.00    +0.000 A 
ENDROOT
BRANCH   1   8
ATOM      7  C   UNL     1       7.031 -12.359   0.088  0.00  0.00    +0.000 C 
ATOM      8  O   UNL     1       5.975 -11.439  -0.159  0.00  0.00    +0.000 OA
ENDBRANCH   1   8
BRANCH   6   9
ATOM      9  O   UNL     1       3.823  -9.932  -0.631  0.00  0.00    +0.000 OA
ATOM     10  H   UNL     1       3.834  -8.957  -0.679  0.00  0.00    +0.000 HD
ENDBRANCH   6   9
TORSDOF 2
ENDMDL
MODEL 8
REMARK VINA RESULT:    -3.384      1.735      2.995
REMARK INTER + INTRA:          -3.731
REMARK INTER:                  -3.678
REMARK INTRA:                  -0.052
REMARK UNBOUND:                -0.050
REMARK  Name = 
REMARK  3 active torsions:
REMARK  status: ('A' for Active; 'I' for Inactive)
REMARK    1  A    between atoms: C_1  and  O_2
REMARK    2  A    between atoms: O_2  and  C_3
REMARK    3  A    between atoms: C_8  and  O_9
REMARK                            x       y       z     vdW  Elec       q    Type
REMARK                         _______ _______ _______ _____ _____    ______ ____
ROOT
ATOM      1  C   UNL     1       6.056 -11.289  -2.575  0.00  0.00    +0.000 A 
ATOM      2  C   UNL     1       7.110 -11.366  -1.666  0.00  0.00    +0.000 A 
ATOM      3  C   UNL     1       8.426 -11.172  -2.102  0.00  0.00    +0.000 A 
ATOM      4  C   UNL     1       8.694 -10.902  -3.445  0.00  0.00    +0.000 A 
ATOM      5  C   UNL     1       7.647 -10.823  -4.360  0.00  0.00    +0.000 A 
ATOM      6  C   UNL     1       6.344 -11.017  -3.918  0.00  0.00    +0.000 A 
ENDROOT
BRANCH   1   8
ATOM      7  C   UNL     1       4.129 -10.483  -1.442  0.00  0.00    +0.000 C 
ATOM      8  O   UNL     1       4.725 -11.457  -2.290  0.00  0.00    +0.000 OA
ENDBRANCH   1   8
BRANCH   6   9
ATOM      9  O   UNL     1       5.331 -10.935  -4.836  0.00  0.00    +0.000 OA
ATOM     10  H   UNL     1       5.699 -11.332  -5.648  0.00  0.00    +0.000 HD
ENDBRANCH   6   9
TORSDOF 2
ENDMDL
MODEL 9
REMARK VINA RESULT:    -3.361      2.217      3.239
REMARK INTER + INTRA:          -3.706
REMARK INTER:                  -3.666
REMARK INTRA:                  -0.040
REMARK UNBOUND:                -0.050
REMARK  Name = 
REMARK  3 active torsions:
REMARK  status: ('A' for Active; 'I' for Inactive)
REMARK    1  A    between atoms: C_1  and  O_2
REMARK    2  A    between atoms: O_2  and  C_3
REMARK    3  A    between atoms: C_8  and  O_9
REMARK                            x       y       z     vdW  Elec       q    Type
REMARK                         _______ _______ _______ _____ _____    ______ ____
ROOT
ATOM      1  C   UNL     1       6.604 -11.336  -1.549  0.00  0.00    +0.000 A 
ATOM      2  C   UNL     1       5.951 -10.368  -2.312  0.00  0.00    +0.000 A 
ATOM      3  C   UNL     1       4.617 -10.041  -2.035  0.00  0.00    +0.000 A 
ATOM      4  C   UNL     1       3.933 -10.679  -0.999  0.00  0.00    +0.000 A 
ATOM      5  C   UNL     1       4.578 -11.647  -0.233  0.00  0.00    +0.000 A 
ATOM      6  C   UNL     1       5.901 -11.965  -0.514  0.00  0.00    +0.000 A 
ENDROOT
BRANCH   1   8
ATOM      7  C   UNL     1       8.808 -10.811  -2.264  0.00  0.00    +0.000 C 
ATOM      8  O   UNL     1       7.900 -11.754  -1.707  0.00  0.00    +0.000 OA
ENDBRANCH   1   8
BRANCH   6   9
ATOM      9  O   UNL     1       6.514 -12.920   0.253  0.00  0.00    +0.000 OA
ATOM     10  H   UNL     1       6.270 -13.768  -0.165  0.00  0.00    +0.000 HD
ENDBRANCH   6   9
TORSDOF 2
ENDMDL
