MODEL 1
REMARK VINA RESULT:    -4.086      0.000      0.000
REMARK INTER + INTRA:          -4.483
REMARK INTER:                  -4.445
REMARK INTRA:                  -0.038
REMARK UNBOUND:                -0.038
REMARK  Name = 
REMARK  3 active torsions:
REMARK  status: ('A' for Active; 'I' for Inactive)
REMARK    1  A    between atoms: C_1  and  O_2
REMARK    2  A    between atoms: O_2  and  C_3
REMARK    3  A    between atoms: C_8  and  O_9
REMARK                            x       y       z     vdW  Elec       q    Type
REMARK                         _______ _______ _______ _____ _____    ______ ____
ROOT
ATOM      1  C   UNL     1      -2.588  17.506  -6.930  0.00  0.00    +0.000 A 
ATOM      2  C   UNL     1      -3.187  16.473  -6.210  0.00  0.00    +0.000 A 
ATOM      3  C   UNL     1      -2.426  15.372  -5.801  0.00  0.00    +0.000 A 
ATOM      4  C   UNL     1      -1.066  15.298  -6.108  0.00  0.00    +0.000 A 
ATOM      5  C   UNL     1      -0.459  16.326  -6.826  0.00  0.00    +0.000 A 
ATOM      6  C   UNL     1      -1.223  17.414  -7.228  0.00  0.00    +0.000 A 
ENDROOT
BRANCH   1   8
ATOM      7  C   UNL     1      -4.629  18.604  -7.454  0.00  0.00    +0.000 C 
ATOM      8  O   UNL     1      -3.208  18.638  -7.393  0.00  0.00    +0.000 OA
ENDBRANCH   1   8
BRANCH   6   9
ATOM      9  O   UNL     1      -0.604  18.413  -7.933  0.00  0.00    +0.000 OA
ATOM     10  H   UNL     1      -0.355  18.000  -8.782  0.00  0.00    +0.000 HD
ENDBRANCH   6   9
TORSDOF 2
ENDMDL
MODEL 2
REMARK VINA RESULT:    -4.028      2.135      2.819
REMARK INTER + INTRA:          -4.420
REMARK INTER:                  -4.369
REMARK INTRA:                  -0.051
REMARK UNBOUND:                -0.038
REMARK  Name = 
REMARK  3 active torsions:
REMARK  status: ('A' for Active; 'I' for Inactive)
REMARK    1  A    between atoms: C_1  and  O_2
REMARK    2  A    between atoms: O_2  and  C_3
REMARK    3  A    between atoms: C_8  and  O_9
REMARK                            x       y       z     vdW  Elec       q    Type
REMARK                         _______ _______ _______ _____ _____    ______ ____
ROOT
ATOM      1  C   UNL     1      -3.260  16.465  -6.117  0.00  0.00    +0.000 A 
ATOM      2  C   UNL     1      -2.847  17.558  -6.878  0.00  0.00    +0.000 A 
ATOM      3  C   UNL     1      -1.515  17.653  -7.300  0.00  0.00    +0.000 A 
ATOM      4  C   UNL     1      -0.593  16.660  -6.964  0.00  0.00    +0.000 A 
ATOM      5  C   UNL     1      -0.998  15.565  -6.204  0.00  0.00    +0.000 A 
ATOM      6  C   UNL     1      -2.321  15.479  -5.789  0.00  0.00    +0.000 A 
ENDROOT
BRANCH   1   8
ATOM      7  C   UNL     1      -5.520  15.911  -6.597  0.00  0.00    +0.000 C 
ATOM      8  O   UNL     1      -4.525  16.243  -5.636  0.00  0.00    +0.000 OA
ENDBRANCH   1   8
BRANCH   6   9
ATOM      9  O   UNL     1      -2.695  14.394  -5.043  0.00  0.00    +0.000 OA
ATOM     10  H   UNL     1      -3.667  14.462  -4.975  0.00  0.00    +0.000 HD
ENDBRANCH   6   9
TORSDOF 2
ENDMDL
MODEL 3
REMARK VINA RESULT:    -4.017      3.685      5.044
REMARK INTER + INTRA:          -4.408
REMARK INTER:                  -4.368
REMARK INTRA:                  -0.040
REMARK UNBOUND:                -0.038
REMARK  Name = 
REMARK  3 active torsions:
REMARK  status: ('A' for Active; 'I' for Inactive)
REMARK    1  A    between atoms: C_1  and  O_2
REMARK    2  A    between atoms: O_2  and  C_3
REMARK    3  A    between atoms: C_8  and  O_9
REMARK                            x       y       z     vdW  Elec       q    Type
REMARK                         _______ _______ _______ _____ _____    ______ ____
ROOT
ATOM      1  C   UNL     1      -3.833  14.653  -5.541  0.00  0.00    +0.000 A 
ATOM      2  C   UNL     1      -4.582  15.495  -6.361  0.00  0.00    +0.000 A 
ATOM      3  C   UNL     1      -5.967  15.315  -6.470  0.00  0.00    +0.000 A 
ATOM      4  C   UNL     1      -6.606  14.295  -5.762  0.00  0.00    +0.000 A 
ATOM      5  C   UNL     1      -5.864  13.449  -4.940  0.00  0.00    +0.000 A 
ATOM      6  C   UNL     1      -4.491  13.635  -4.839  0.00  0.00    +0.000 A 
ENDROOT
BRANCH   1   8
ATOM      7  C   UNL     1      -1.704  15.279  -6.391  0.00  0.00    +0.000 C 
ATOM      8  O   UNL     1      -2.477  14.712  -5.340  0.00  0.00    +0.000 OA
ENDBRANCH   1   8
BRANCH   6   9
ATOM      9  O   UNL     1      -3.783  12.792  -4.025  0.00  0.00    +0.000 OA
ATOM     10  H   UNL     1      -3.593  13.319  -3.225  0.00  0.00    +0.000 HD
ENDBRANCH   6   9
TORSDOF 2
ENDMDL
MODEL 4
REMARK VINA RESULT:    -3.998     11.121     11.844
REMARK INTER + INTRA:          -4.387
REMARK INTER:                  -4.335
REMARK INTRA:                  -0.052
REMARK UNBOUND:                -0.038
REMARK  Name = 
REMARK  3 active torsions:
REMARK  status: ('A' for Active; 'I' for Inactive)
REMARK    1  A    between atoms: C_1  and  O_2
REMARK    2  A    between atoms: O_2  and  C_3
REMARK    3  A    between atoms: C_8  and  O_9
REMARK                            x       y       z     vdW  Elec       q    Type
REMARK                         _______ _______ _______ _____ _____    ______ ____
ROOT
ATOM      1  C   UNL     1       8.301  21.752  -8.001  0.00  0.00    +0.000 A 
ATOM      2  C   UNL     1       7.972  22.679  -8.989  0.00  0.00    +0.000 A 
ATOM      3  C   UNL     1       7.646  22.240 -10.278  0.00  0.00    +0.000 A 
ATOM      4  C   UNL     1       7.649  20.878 -10.585  0.00  0.00    +0.000 A 
ATOM      5  C   UNL     1       7.977  19.946  -9.603  0.00  0.00    +0.000 A 
ATOM      6  C   UNL     1       8.299  20.390  -8.327  0.00  0.00    +0.000 A 
ENDROOT
BRANCH   1   8
ATOM      7  C   UNL     1       9.782  22.863  -6.511  0.00  0.00    +0.000 C 
ATOM      8  O   UNL     1       8.640  22.037  -6.702  0.00  0.00    +0.000 OA
ENDBRANCH   1   8
BRANCH   6   9
ATOM      9  O   UNL     1       8.617  19.455  -7.378  0.00  0.00    +0.000 OA
ATOM     10  H   UNL     1       9.121  19.948  -6.703  0.00  0.00    +0.000 HD
ENDBRANCH   6   9
TORSDOF 2
ENDMDL
MODEL 5
REMARK VINA RESULT:    -3.930      4.541      5.923
REMARK INTER + INTRA:          -4.313
REMARK INTER:                  -4.260
REMARK INTRA:                  -0.053
REMARK UNBOUND:                -0.038
REMARK  Name = 
REMARK  3 active torsions:
REMARK  status: ('A' for Active; 'I' for Inactive)
REMARK    1  A    between atoms: C_1  and  O_2
REMARK    2  A    between atoms: O_2  and  C_3
REMARK    3  A    between atoms: C_8  and  O_9
REMARK                            x       y       z     vdW  Elec       q    Type
REMARK                         _______ _______ _______ _____ _____    ______ ____
ROOT
ATOM      1  C   UNL     1      -5.068  13.795  -5.080  0.00  0.00    +0.000 A 
ATOM      2  C   UNL     1      -5.030  13.943  -3.694  0.00  0.00    +0.000 A 
ATOM      3  C   UNL     1      -6.223  14.073  -2.971  0.00  0.00    +0.000 A 
ATOM      4  C   UNL     1      -7.454  14.057  -3.629  0.00  0.00    +0.000 A 
ATOM      5  C   UNL     1      -7.500  13.909  -5.013  0.00  0.00    +0.000 A 
ATOM      6  C   UNL     1      -6.312  13.781  -5.722  0.00  0.00    +0.000 A 
ENDROOT
BRANCH   1   8
ATOM      7  C   UNL     1      -3.114  14.778  -6.008  0.00  0.00    +0.000 C 
ATOM      8  O   UNL     1      -3.985  13.658  -5.911  0.00  0.00    +0.000 OA
ENDBRANCH   1   8
BRANCH   6   9
ATOM      9  O   UNL     1      -6.383  13.637  -7.082  0.00  0.00    +0.000 OA
ATOM     10  H   UNL     1      -5.542  13.208  -7.330  0.00  0.00    +0.000 HD
ENDBRANCH   6   9
TORSDOF 2
ENDMDL
MODEL 6
REMARK VINA RESULT:    -3.728      1.757      3.069
REMARK INTER + INTRA:          -4.093
REMARK INTER:                  -4.050
REMARK INTRA:                  -0.043
REMARK UNBOUND:                -0.038
REMARK  Name = 
REMARK  3 active torsions:
REMARK  status: ('A' for Active; 'I' for Inactive)
REMARK    1  A    between atoms: C_1  and  O_2
REMARK    2  A    between atoms: O_2  and  C_3
REMARK    3  A    between atoms: C_8  and  O_9
REMARK                            x       y       z     vdW  Elec       q    Type
REMARK                         _______ _______ _______ _____ _____    ______ ____
ROOT
ATOM      1  C   UNL     1      -3.048  15.777  -6.013  0.00  0.00    +0.000 A 
ATOM      2  C   UNL     1      -1.774  15.212  -5.972  0.00  0.00    +0.000 A 
ATOM      3  C   UNL     1      -0.679  15.918  -6.486  0.00  0.00    +0.000 A 
ATOM      4  C   UNL     1      -0.853  17.186  -7.043  0.00  0.00    +0.000 A 
ATOM      5  C   UNL     1      -2.123  17.757  -7.087  0.00  0.00    +0.000 A 
ATOM      6  C   UNL     1      -3.203  17.050  -6.575  0.00  0.00    +0.000 A 
ENDROOT
BRANCH   1   8
ATOM      7  C   UNL     1      -4.331  13.797  -5.726  0.00  0.00    +0.000 C 
ATOM      8  O   UNL     1      -4.205  15.203  -5.550  0.00  0.00    +0.000 OA
ENDBRANCH   1   8
BRANCH   6   9
ATOM      9  O   UNL     1      -4.441  17.632  -6.629  0.00  0.00    +0.000 OA
ATOM     10  H   UNL     1      -4.373  18.296  -7.342  0.00  0.00    +0.000 HD
ENDBRANCH   6   9
TORSDOF 2
ENDMDL
MODEL 7
REMARK VINA RESULT:    -3.651      2.274      3.697
REMARK INTER + INTRA:          -4.010
REMARK INTER:                  -3.958
REMARK INTRA:                  -0.052
REMARK UNBOUND:                -0.038
REMARK  Name = 
REMARK  3 active torsions:
REMARK  status: ('A' for Active; 'I' for Inactive)
REMARK    1  A    between atoms: C_1  and  O_2
REMARK    2  A    between atoms: O_2  and  C_3
REMARK    3  A    between atoms: C_8  and  O_9
REMARK                            x       y       z     vdW  Elec       q    Type
REMARK                         _______ _______ _______ _____ _____    ______ ____
ROOT
ATOM      1  C   UNL     1      -2.772  16.599  -6.019  0.00  0.00    +0.000 A 
ATOM      2  C   UNL     1      -3.588  17.554  -6.626  0.00  0.00    +0.000 A 
ATOM      3  C   UNL     1      -4.928  17.254  -6.902  0.00  0.00    +0.000 A 
ATOM      4  C   UNL     1      -5.456  16.004  -6.575  0.00  0.00    +0.000 A 
ATOM      5  C   UNL     1      -4.648  15.046  -5.968  0.00  0.00    +0.000 A 
ATOM      6  C   UNL     1      -3.320  15.351  -5.698  0.00  0.00    +0.000 A 
ENDROOT
BRANCH   1   8
ATOM      7  C   UNL     1      -0.531  16.818  -6.777  0.00  0.00    +0.000 C 
ATOM      8  O   UNL     1      -1.449  16.754  -5.692  0.00  0.00    +0.000 OA
ENDBRANCH   1   8
BRANCH   6   9
ATOM      9  O   UNL     1      -2.545  14.393  -5.102  0.00  0.00    +0.000 OA
ATOM     10  H   UNL     1      -1.751  14.871  -4.794  0.00  0.00    +0.000 HD
ENDBRANCH   6   9
TORSDOF 2
ENDMDL
MODEL 8
REMARK VINA RESULT:    -3.639      5.987      7.364
REMARK INTER + INTRA:          -3.997
REMARK INTER:                  -3.948
REMARK INTRA:                  -0.049
REMARK UNBOUND:                -0.038
REMARK  Name = 
REMARK  3 active torsions:
REMARK  status: ('A' for Active; 'I' for Inactive)
REMARK    1  A    between atoms: C_1  and  O_2
REMARK    2  A    between atoms: O_2  and  C_3
REMARK    3  A    between atoms: C_8  and  O_9
REMARK                            x       y       z     vdW  Elec       q    Type
REMARK                         _______ _______ _______ _____ _____    ______ ____
ROOT
ATOM      1  C   UNL     1      -6.238  14.405  -3.300  0.00  0.00    +0.000 A 
ATOM      2  C   UNL     1      -5.906  15.752  -3.168  0.00  0.00    +0.000 A 
ATOM      3  C   UNL     1      -6.344  16.474  -2.050  0.00  0.00    +0.000 A 
ATOM      4  C   UNL     1      -7.114  15.854  -1.065  0.00  0.00    +0.000 A 
ATOM      5  C   UNL     1      -7.450  14.508  -1.190  0.00  0.00    +0.000 A 
ATOM      6  C   UNL     1      -7.012  13.800  -2.301  0.00  0.00    +0.000 A 
ENDROOT
BRANCH   1   8
ATOM      7  C   UNL     1      -4.496  13.526  -4.656  0.00  0.00    +0.000 C 
ATOM      8  O   UNL     1      -5.881  13.579  -4.336  0.00  0.00    +0.000 OA
ENDBRANCH   1   8
BRANCH   6   9
ATOM      9  O   UNL     1      -7.354  12.478  -2.402  0.00  0.00    +0.000 OA
ATOM     10  H   UNL     1      -8.110  12.464  -3.020  0.00  0.00    +0.000 HD
ENDBRANCH   6   9
TORSDOF 2
ENDMDL
MODEL 9
REMARK VINA RESULT:    -3.595     11.307     11.698
REMARK INTER + INTRA:          -3.948
REMARK INTER:                  -3.910
REMARK INTRA:                  -0.039
REMARK UNBOUND:                -0.038
REMARK  Name = 
REMARK  3 active torsions:
REMARK  status: ('A' for Active; 'I' for Inactive)
REMARK    1  A    between atoms: C_1  and  O_2
REMARK    2  A    between atoms: O_2  and  C_3
REMARK    3  A    between atoms: C_8  and  O_9
REMARK                            x       y       z     vdW  Elec       q    Type
REMARK                         _______ _______ _______ _____ _____    ______ ____
ROOT
ATOM      1  C   UNL     1       7.942  21.449  -8.876  0.00  0.00    +0.000 A 
ATOM      2  C   UNL     1       7.517  22.762  -9.074  0.00  0.00    +0.000 A 
ATOM      3  C   UNL     1       7.557  23.678  -8.015  0.00  0.00    +0.000 A 
ATOM      4  C   UNL     1       8.019  23.286  -6.758  0.00  0.00    +0.000 A 
ATOM      5  C   UNL     1       8.446  21.976  -6.552  0.00  0.00    +0.000 A 
ATOM      6  C   UNL     1       8.403  21.075  -7.608  0.00  0.00    +0.000 A 
ENDROOT
BRANCH   1   8
ATOM      7  C   UNL     1       7.912  20.861 -11.178  0.00  0.00    +0.000 C 
ATOM      8  O   UNL     1       7.959  20.451  -9.817  0.00  0.00    +0.000 OA
ENDBRANCH   1   8
BRANCH   6   9
ATOM      9  O   UNL     1       8.828  19.793  -7.381  0.00  0.00    +0.000 OA
ATOM     10  H   UNL     1       8.929  19.404  -8.270  0.00  0.00    +0.000 HD
ENDBRANCH   6   9
TORSDOF 2
ENDMDL
