MODEL 1
REMARK VINA RESULT:    -5.184      0.000      0.000
REMARK INTER + INTRA:          -7.652
REMARK INTER:                  -7.003
REMARK INTRA:                  -0.649
REMARK UNBOUND:                -0.649
REMARK  Name = 
REMARK  10 active torsions:
REMARK  status: ('A' for Active; 'I' for Inactive)
REMARK    1  A    between atoms: C_1  and  C_2
REMARK    2  A    between atoms: C_5  and  N_8
REMARK    3  A    between atoms: N_8  and  C_9
REMARK    4  A    between atoms: N_8  and  C_13
REMARK    5  A    between atoms: C_9  and  C_10
REMARK    6  A    between atoms: C_10  and  C_11
REMARK    7  A    between atoms: C_10  and  O_12
REMARK    8  A    between atoms: C_13  and  C_14
REMARK    9  A    between atoms: C_14  and  C_15
REMARK   10  A    between atoms: C_14  and  O_16
REMARK                            x       y       z     vdW  Elec       q    Type
REMARK                         _______ _______ _______ _____ _____    ______ ____
ROOT
ATOM      1  N   UNL     1      -6.040  15.428  -5.350  0.00  0.00    +0.000 N 
ENDROOT
BRANCH   1   6
ATOM      2  C   UNL     1      -0.581  16.630  -6.790  0.00  0.00    +0.000 C 
ATOM      3  C   UNL     1      -1.992  16.323  -6.393  0.00  0.00    +0.000 A 
ATOM      4  C   UNL     1      -2.376  15.028  -6.064  0.00  0.00    +0.000 A 
ATOM      5  C   UNL     1      -3.707  14.740  -5.721  0.00  0.00    +0.000 A 
ATOM      6  C   UNL     1      -4.719  15.718  -5.712  0.00  0.00    +0.000 A 
ATOM      7  C   UNL     1      -4.294  17.017  -6.047  0.00  0.00    +0.000 A 
ATOM      8  C   UNL     1      -2.966  17.318  -6.390  0.00  0.00    +0.000 A 
ENDBRANCH   1   6
BRANCH   1   9
ATOM      9  C   UNL     1      -7.162  15.874  -6.212  0.00  0.00    +0.000 C 
BRANCH   9  10
ATOM     10  C   UNL     1      -7.417  14.921  -7.405  0.00  0.00    +0.000 C 
ATOM     11  C   UNL     1      -7.038  15.584  -8.723  0.00  0.00    +0.000 C 
BRANCH  10  12
ATOM     12  O   UNL     1      -6.649  13.717  -7.275  0.00  0.00    +0.000 OA
ATOM     13  H   UNL     1      -5.748  13.899  -7.589  0.00  0.00    +0.000 HD
ENDBRANCH  10  12
ENDBRANCH   9  10
ENDBRANCH   1   9
BRANCH   1  14
ATOM     14  C   UNL     1      -6.409  15.157  -3.937  0.00  0.00    +0.000 C 
BRANCH  14  15
ATOM     15  C   UNL     1      -6.277  13.657  -3.577  0.00  0.00    +0.000 C 
ATOM     16  C   UNL     1      -7.091  13.261  -2.350  0.00  0.00    +0.000 C 
BRANCH  15  17
ATOM     17  O   UNL     1      -6.674  12.818  -4.660  0.00  0.00    +0.000 OA
ATOM     18  H   UNL     1      -6.219  11.966  -4.500  0.00  0.00    +0.000 HD
ENDBRANCH  15  17
ENDBRANCH  14  15
ENDBRANCH   1  14
TORSDOF 7
ENDMDL
MODEL 2
REMARK VINA RESULT:    -5.134      0.512      1.293
REMARK INTER + INTRA:          -7.584
REMARK INTER:                  -6.900
REMARK INTRA:                  -0.684
REMARK UNBOUND:                -0.649
REMARK  Name = 
REMARK  10 active torsions:
REMARK  status: ('A' for Active; 'I' for Inactive)
REMARK    1  A    between atoms: C_1  and  C_2
REMARK    2  A    between atoms: C_5  and  N_8
REMARK    3  A    between atoms: N_8  and  C_9
REMARK    4  A    between atoms: N_8  and  C_13
REMARK    5  A    between atoms: C_9  and  C_10
REMARK    6  A    between atoms: C_10  and  C_11
REMARK    7  A    between atoms: C_10  and  O_12
REMARK    8  A    between atoms: C_13  and  C_14
REMARK    9  A    between atoms: C_14  and  C_15
REMARK   10  A    between atoms: C_14  and  O_16
REMARK                            x       y       z     vdW  Elec       q    Type
REMARK                         _______ _______ _______ _____ _____    ______ ____
ROOT
ATOM      1  N   UNL     1      -5.726  15.497  -5.268  0.00  0.00    +0.000 N 
ENDROOT
BRANCH   1   6
ATOM      2  C   UNL     1      -0.401  16.885  -7.013  0.00  0.00    +0.000 C 
ATOM      3  C   UNL     1      -1.789  16.518  -6.583  0.00  0.00    +0.000 A 
ATOM      4  C   UNL     1      -2.813  17.459  -6.593  0.00  0.00    +0.000 A 
ATOM      5  C   UNL     1      -4.104  17.117  -6.161  0.00  0.00    +0.000 A 
ATOM      6  C   UNL     1      -4.431  15.837  -5.679  0.00  0.00    +0.000 A 
ATOM      7  C   UNL     1      -3.373  14.910  -5.685  0.00  0.00    +0.000 A 
ATOM      8  C   UNL     1      -2.077  15.239  -6.116  0.00  0.00    +0.000 A 
ENDBRANCH   1   6
BRANCH   1   9
ATOM      9  C   UNL     1      -6.895  15.892  -6.091  0.00  0.00    +0.000 C 
BRANCH   9  10
ATOM     10  C   UNL     1      -7.249  14.842  -7.173  0.00  0.00    +0.000 C 
ATOM     11  C   UNL     1      -7.128  15.439  -8.570  0.00  0.00    +0.000 C 
BRANCH  10  12
ATOM     12  O   UNL     1      -6.374  13.709  -7.097  0.00  0.00    +0.000 OA
ATOM     13  H   UNL     1      -5.628  13.863  -7.700  0.00  0.00    +0.000 HD
ENDBRANCH  10  12
ENDBRANCH   9  10
ENDBRANCH   1   9
BRANCH   1  14
ATOM     14  C   UNL     1      -6.032  15.220  -3.841  0.00  0.00    +0.000 C 
BRANCH  14  15
ATOM     15  C   UNL     1      -6.350  13.726  -3.591  0.00  0.00    +0.000 C 
ATOM     16  C   UNL     1      -7.844  13.432  -3.530  0.00  0.00    +0.000 C 
BRANCH  15  17
ATOM     17  O   UNL     1      -5.776  12.890  -4.594  0.00  0.00    +0.000 OA
ATOM     18  H   UNL     1      -6.538  12.461  -5.032  0.00  0.00    +0.000 HD
ENDBRANCH  15  17
ENDBRANCH  14  15
ENDBRANCH   1  14
TORSDOF 7
ENDMDL
MODEL 3
REMARK VINA RESULT:    -5.075      1.334      3.197
REMARK INTER + INTRA:          -7.504
REMARK INTER:                  -7.091
REMARK INTRA:                  -0.413
REMARK UNBOUND:                -0.649
REMARK  Name = 
REMARK  10 active torsions:
REMARK  status: ('A' for Active; 'I' for Inactive)
REMARK    1  A    between atoms: C_1  and  C_2
REMARK    2  A    between atoms: C_5  and  N_8
REMARK    3  A    between atoms: N_8  and  C_9
REMARK    4  A    between atoms: N_8  and  C_13
REMARK    5  A    between atoms: C_9  and  C_10
REMARK    6  A    between atoms: C_10  and  C_11
REMARK    7  A    between atoms: C_10  and  O_12
REMARK    8  A    between atoms: C_13  and  C_14
REMARK    9  A    between atoms: C_14  and  C_15
REMARK   10  A    between atoms: C_14  and  O_16
REMARK                            x       y       z     vdW  Elec       q    Type
REMARK                         _______ _______ _______ _____ _____    ______ ____
ROOT
ATOM      1  N   UNL     1      -4.935  15.437  -5.844  0.00  0.00    +0.000 N 
ENDROOT
BRANCH   1   6
ATOM      2  C   UNL     1       0.055  17.917  -7.354  0.00  0.00    +0.000 C 
ATOM      3  C   UNL     1      -1.237  17.282  -6.939  0.00  0.00    +0.000 A 
ATOM      4  C   UNL     1      -1.269  15.981  -6.450  0.00  0.00    +0.000 A 
ATOM      5  C   UNL     1      -2.487  15.381  -6.091  0.00  0.00    +0.000 A 
ATOM      6  C   UNL     1      -3.726  16.034  -6.223  0.00  0.00    +0.000 A 
ATOM      7  C   UNL     1      -3.655  17.349  -6.718  0.00  0.00    +0.000 A 
ATOM      8  C   UNL     1      -2.443  17.962  -7.079  0.00  0.00    +0.000 A 
ENDBRANCH   1   6
BRANCH   1   9
ATOM      9  C   UNL     1      -4.967  14.007  -5.454  0.00  0.00    +0.000 C 
BRANCH   9  10
ATOM     10  C   UNL     1      -4.755  13.794  -3.935  0.00  0.00    +0.000 C 
ATOM     11  C   UNL     1      -6.088  13.598  -3.221  0.00  0.00    +0.000 C 
BRANCH  10  12
ATOM     12  O   UNL     1      -3.943  12.639  -3.685  0.00  0.00    +0.000 OA
ATOM     13  H   UNL     1      -3.113  12.937  -3.277  0.00  0.00    +0.000 HD
ENDBRANCH  10  12
ENDBRANCH   9  10
ENDBRANCH   1   9
BRANCH   1  14
ATOM     14  C   UNL     1      -6.239  15.992  -6.288  0.00  0.00    +0.000 C 
BRANCH  14  15
ATOM     15  C   UNL     1      -7.124  14.926  -6.977  0.00  0.00    +0.000 C 
ATOM     16  C   UNL     1      -8.615  15.223  -6.868  0.00  0.00    +0.000 C 
BRANCH  15  17
ATOM     17  O   UNL     1      -6.802  14.786  -8.359  0.00  0.00    +0.000 OA
ATOM     18  H   UNL     1      -7.120  15.611  -8.778  0.00  0.00    +0.000 HD
ENDBRANCH  15  17
ENDBRANCH  14  15
ENDBRANCH   1  14
TORSDOF 7
ENDMDL
MODEL 4
REMARK VINA RESULT:    -5.040      1.499      5.102
REMARK INTER + INTRA:          -7.457
REMARK INTER:                  -7.017
REMARK INTRA:                  -0.440
REMARK UNBOUND:                -0.649
REMARK  Name = 
REMARK  10 active torsions:
REMARK  status: ('A' for Active; 'I' for Inactive)
REMARK    1  A    between atoms: C_1  and  C_2
REMARK    2  A    between atoms: C_5  and  N_8
REMARK    3  A    between atoms: N_8  and  C_9
REMARK    4  A    between atoms: N_8  and  C_13
REMARK    5  A    between atoms: C_9  and  C_10
REMARK    6  A    between atoms: C_10  and  C_11
REMARK    7  A    between atoms: C_10  and  O_12
REMARK    8  A    between atoms: C_13  and  C_14
REMARK    9  A    between atoms: C_14  and  C_15
REMARK   10  A    between atoms: C_14  and  O_16
REMARK                            x       y       z     vdW  Elec       q    Type
REMARK                         _______ _______ _______ _____ _____    ______ ____
ROOT
ATOM      1  N   UNL     1      -5.617  15.543  -5.251  0.00  0.00    +0.000 N 
ENDROOT
BRANCH   1   6
ATOM      2  C   UNL     1      -7.766  14.286  -0.042  0.00  0.00    +0.000 C 
ATOM      3  C   UNL     1      -7.231  14.616  -1.402  0.00  0.00    +0.000 A 
ATOM      4  C   UNL     1      -7.020  13.619  -2.348  0.00  0.00    +0.000 A 
ATOM      5  C   UNL     1      -6.491  13.930  -3.611  0.00  0.00    +0.000 A 
ATOM      6  C   UNL     1      -6.126  15.237  -3.982  0.00  0.00    +0.000 A 
ATOM      7  C   UNL     1      -6.355  16.220  -3.002  0.00  0.00    +0.000 A 
ATOM      8  C   UNL     1      -6.886  15.922  -1.736  0.00  0.00    +0.000 A 
ENDBRANCH   1   6
BRANCH   1   9
ATOM      9  C   UNL     1      -4.197  15.942  -5.405  0.00  0.00    +0.000 C 
BRANCH   9  10
ATOM     10  C   UNL     1      -3.266  14.744  -5.714  0.00  0.00    +0.000 C 
ATOM     11  C   UNL     1      -1.968  15.215  -6.360  0.00  0.00    +0.000 C 
BRANCH  10  12
ATOM     12  O   UNL     1      -2.933  14.028  -4.517  0.00  0.00    +0.000 OA
ATOM     13  H   UNL     1      -3.180  13.097  -4.644  0.00  0.00    +0.000 HD
ENDBRANCH  10  12
ENDBRANCH   9  10
ENDBRANCH   1   9
BRANCH   1  14
ATOM     14  C   UNL     1      -6.511  15.977  -6.354  0.00  0.00    +0.000 C 
BRANCH  14  15
ATOM     15  C   UNL     1      -7.278  14.791  -6.986  0.00  0.00    +0.000 C 
ATOM     16  C   UNL     1      -7.871  15.119  -8.351  0.00  0.00    +0.000 C 
BRANCH  15  17
ATOM     17  O   UNL     1      -6.444  13.642  -7.132  0.00  0.00    +0.000 OA
ATOM     18  H   UNL     1      -5.565  13.925  -6.809  0.00  0.00    +0.000 HD
ENDBRANCH  15  17
ENDBRANCH  14  15
ENDBRANCH   1  14
TORSDOF 7
ENDMDL
MODEL 5
REMARK VINA RESULT:    -4.908      1.586      4.952
REMARK INTER + INTRA:          -7.279
REMARK INTER:                  -6.938
REMARK INTRA:                  -0.342
REMARK UNBOUND:                -0.649
REMARK  Name = 
REMARK  10 active torsions:
REMARK  status: ('A' for Active; 'I' for Inactive)
REMARK    1  A    between atoms: C_1  and  C_2
REMARK    2  A    between atoms: C_5  and  N_8
REMARK    3  A    between atoms: N_8  and  C_9
REMARK    4  A    between atoms: N_8  and  C_13
REMARK    5  A    between atoms: C_9  and  C_10
REMARK    6  A    between atoms: C_10  and  C_11
REMARK    7  A    between atoms: C_10  and  O_12
REMARK    8  A    between atoms: C_13  and  C_14
REMARK    9  A    between atoms: C_14  and  C_15
REMARK   10  A    between atoms: C_14  and  O_16
REMARK                            x       y       z     vdW  Elec       q    Type
REMARK                         _______ _______ _______ _____ _____    ______ ____
ROOT
ATOM      1  N   UNL     1      -5.710  15.117  -5.286  0.00  0.00    +0.000 N 
ENDROOT
BRANCH   1   6
ATOM      2  C   UNL     1      -7.928  14.143  -0.046  0.00  0.00    +0.000 C 
ATOM      3  C   UNL     1      -7.330  14.388  -1.398  0.00  0.00    +0.000 A 
ATOM      4  C   UNL     1      -6.787  15.625  -1.726  0.00  0.00    +0.000 A 
ATOM      5  C   UNL     1      -6.255  15.858  -3.005  0.00  0.00    +0.000 A 
ATOM      6  C   UNL     1      -6.260  14.884  -4.019  0.00  0.00    +0.000 A 
ATOM      7  C   UNL     1      -6.815  13.644  -3.652  0.00  0.00    +0.000 A 
ATOM      8  C   UNL     1      -7.348  13.398  -2.376  0.00  0.00    +0.000 A 
ENDBRANCH   1   6
BRANCH   1   9
ATOM      9  C   UNL     1      -6.108  14.269  -6.436  0.00  0.00    +0.000 C 
BRANCH   9  10
ATOM     10  C   UNL     1      -7.281  14.871  -7.248  0.00  0.00    +0.000 C 
ATOM     11  C   UNL     1      -7.460  16.352  -6.931  0.00  0.00    +0.000 C 
BRANCH  10  12
ATOM     12  O   UNL     1      -7.051  14.743  -8.658  0.00  0.00    +0.000 OA
ATOM     13  H   UNL     1      -6.121  14.962  -8.832  0.00  0.00    +0.000 HD
ENDBRANCH  10  12
ENDBRANCH   9  10
ENDBRANCH   1   9
BRANCH   1  14
ATOM     14  C   UNL     1      -4.405  15.809  -5.443  0.00  0.00    +0.000 C 
BRANCH  14  15
ATOM     15  C   UNL     1      -3.257  14.825  -5.771  0.00  0.00    +0.000 C 
ATOM     16  C   UNL     1      -2.012  15.516  -6.315  0.00  0.00    +0.000 C 
BRANCH  15  17
ATOM     17  O   UNL     1      -2.875  14.062  -4.627  0.00  0.00    +0.000 OA
ATOM     18  H   UNL     1      -2.037  13.626  -4.883  0.00  0.00    +0.000 HD
ENDBRANCH  15  17
ENDBRANCH  14  15
ENDBRANCH   1  14
TORSDOF 7
ENDMDL
MODEL 6
REMARK VINA RESULT:    -4.902      0.947      3.366
REMARK INTER + INTRA:          -7.270
REMARK INTER:                  -6.922
REMARK INTRA:                  -0.348
REMARK UNBOUND:                -0.649
REMARK  Name = 
REMARK  10 active torsions:
REMARK  status: ('A' for Active; 'I' for Inactive)
REMARK    1  A    between atoms: C_1  and  C_2
REMARK    2  A    between atoms: C_5  and  N_8
REMARK    3  A    between atoms: N_8  and  C_9
REMARK    4  A    between atoms: N_8  and  C_13
REMARK    5  A    between atoms: C_9  and  C_10
REMARK    6  A    between atoms: C_10  and  C_11
REMARK    7  A    between atoms: C_10  and  O_12
REMARK    8  A    between atoms: C_13  and  C_14
REMARK    9  A    between atoms: C_14  and  C_15
REMARK   10  A    between atoms: C_14  and  O_16
REMARK                            x       y       z     vdW  Elec       q    Type
REMARK                         _______ _______ _______ _____ _____    ______ ____
ROOT
ATOM      1  N   UNL     1      -5.657  15.178  -5.510  0.00  0.00    +0.000 N 
ENDROOT
BRANCH   1   6
ATOM      2  C   UNL     1      -0.322  16.895  -6.894  0.00  0.00    +0.000 C 
ATOM      3  C   UNL     1      -1.711  16.444  -6.559  0.00  0.00    +0.000 A 
ATOM      4  C   UNL     1      -2.775  17.339  -6.568  0.00  0.00    +0.000 A 
ATOM      5  C   UNL     1      -4.069  16.917  -6.223  0.00  0.00    +0.000 A 
ATOM      6  C   UNL     1      -4.361  15.597  -5.833  0.00  0.00    +0.000 A 
ATOM      7  C   UNL     1      -3.262  14.719  -5.837  0.00  0.00    +0.000 A 
ATOM      8  C   UNL     1      -1.963  15.128  -6.182  0.00  0.00    +0.000 A 
ENDBRANCH   1   6
BRANCH   1   9
ATOM      9  C   UNL     1      -5.884  13.822  -4.956  0.00  0.00    +0.000 C 
BRANCH   9  10
ATOM     10  C   UNL     1      -5.877  13.797  -3.407  0.00  0.00    +0.000 C 
ATOM     11  C   UNL     1      -6.176  15.179  -2.839  0.00  0.00    +0.000 C 
BRANCH  10  12
ATOM     12  O   UNL     1      -6.863  12.886  -2.903  0.00  0.00    +0.000 OA
ATOM     13  H   UNL     1      -7.483  12.684  -3.623  0.00  0.00    +0.000 HD
ENDBRANCH  10  12
ENDBRANCH   9  10
ENDBRANCH   1   9
BRANCH   1  14
ATOM     14  C   UNL     1      -6.847  15.799  -6.146  0.00  0.00    +0.000 C 
BRANCH  14  15
ATOM     15  C   UNL     1      -7.475  14.887  -7.227  0.00  0.00    +0.000 C 
ATOM     16  C   UNL     1      -8.890  15.301  -7.613  0.00  0.00    +0.000 C 
BRANCH  15  17
ATOM     17  O   UNL     1      -6.684  14.856  -8.414  0.00  0.00    +0.000 OA
ATOM     18  H   UNL     1      -6.837  13.969  -8.797  0.00  0.00    +0.000 HD
ENDBRANCH  15  17
ENDBRANCH  14  15
ENDBRANCH   1  14
TORSDOF 7
ENDMDL
MODEL 7
REMARK VINA RESULT:    -4.704      2.522      5.599
REMARK INTER + INTRA:          -7.004
REMARK INTER:                  -6.685
REMARK INTRA:                  -0.318
REMARK UNBOUND:                -0.649
REMARK  Name = 
REMARK  10 active torsions:
REMARK  status: ('A' for Active; 'I' for Inactive)
REMARK    1  A    between atoms: C_1  and  C_2
REMARK    2  A    between atoms: C_5  and  N_8
REMARK    3  A    between atoms: N_8  and  C_9
REMARK    4  A    between atoms: N_8  and  C_13
REMARK    5  A    between atoms: C_9  and  C_10
REMARK    6  A    between atoms: C_10  and  C_11
REMARK    7  A    between atoms: C_10  and  O_12
REMARK    8  A    between atoms: C_13  and  C_14
REMARK    9  A    between atoms: C_14  and  C_15
REMARK   10  A    between atoms: C_14  and  O_16
REMARK                            x       y       z     vdW  Elec       q    Type
REMARK                         _______ _______ _______ _____ _____    ______ ____
ROOT
ATOM      1  N   UNL     1      -6.068  15.000  -3.972  0.00  0.00    +0.000 N 
ENDROOT
BRANCH   1   6
ATOM      2  C   UNL     1      -8.269  14.403   1.332  0.00  0.00    +0.000 C 
ATOM      3  C   UNL     1      -7.721  14.565  -0.053  0.00  0.00    +0.000 A 
ATOM      4  C   UNL     1      -7.679  13.490  -0.934  0.00  0.00    +0.000 A 
ATOM      5  C   UNL     1      -7.136  13.640  -2.221  0.00  0.00    +0.000 A 
ATOM      6  C   UNL     1      -6.591  14.853  -2.680  0.00  0.00    +0.000 A 
ATOM      7  C   UNL     1      -6.652  15.918  -1.763  0.00  0.00    +0.000 A 
ATOM      8  C   UNL     1      -7.194  15.782  -0.475  0.00  0.00    +0.000 A 
ENDBRANCH   1   6
BRANCH   1   9
ATOM      9  C   UNL     1      -6.194  16.296  -4.681  0.00  0.00    +0.000 C 
BRANCH   9  10
ATOM     10  C   UNL     1      -4.834  17.010  -4.872  0.00  0.00    +0.000 C 
ATOM     11  C   UNL     1      -4.835  17.854  -6.142  0.00  0.00    +0.000 C 
BRANCH  10  12
ATOM     12  O   UNL     1      -4.546  17.875  -3.765  0.00  0.00    +0.000 OA
ATOM     13  H   UNL     1      -4.529  18.790  -4.093  0.00  0.00    +0.000 HD
ENDBRANCH  10  12
ENDBRANCH   9  10
ENDBRANCH   1   9
BRANCH   1  14
ATOM     14  C   UNL     1      -5.854  13.824  -4.854  0.00  0.00    +0.000 C 
BRANCH  14  15
ATOM     15  C   UNL     1      -4.360  13.434  -4.954  0.00  0.00    +0.000 C 
ATOM     16  C   UNL     1      -3.630  14.143  -6.089  0.00  0.00    +0.000 C 
BRANCH  15  17
ATOM     17  O   UNL     1      -3.661  13.706  -3.741  0.00  0.00    +0.000 OA
ATOM     18  H   UNL     1      -2.749  13.391  -3.898  0.00  0.00    +0.000 HD
ENDBRANCH  15  17
ENDBRANCH  14  15
ENDBRANCH   1  14
TORSDOF 7
ENDMDL
MODEL 8
REMARK VINA RESULT:    -4.436      1.552      4.592
REMARK INTER + INTRA:          -6.642
REMARK INTER:                  -6.161
REMARK INTRA:                  -0.480
REMARK UNBOUND:                -0.649
REMARK  Name = 
REMARK  10 active torsions:
REMARK  status: ('A' for Active; 'I' for Inactive)
REMARK    1  A    between atoms: C_1  and  C_2
REMARK    2  A    between atoms: C_5  and  N_8
REMARK    3  A    between atoms: N_8  and  C_9
REMARK    4  A    between atoms: N_8  and  C_13
REMARK    5  A    between atoms: C_9  and  C_10
REMARK    6  A    between atoms: C_10  and  C_11
REMARK    7  A    between atoms: C_10  and  O_12
REMARK    8  A    between atoms: C_13  and  C_14
REMARK    9  A    between atoms: C_14  and  C_15
REMARK   10  A    between atoms: C_14  and  O_16
REMARK                            x       y       z     vdW  Elec       q    Type
REMARK                         _______ _______ _______ _____ _____    ______ ____
ROOT
ATOM      1  N   UNL     1      -5.761  15.518  -5.733  0.00  0.00    +0.000 N 
ENDROOT
BRANCH   1   6
ATOM      2  C   UNL     1      -7.894  17.153 -10.842  0.00  0.00    +0.000 C 
ATOM      3  C   UNL     1      -7.321  16.719  -9.528  0.00  0.00    +0.000 A 
ATOM      4  C   UNL     1      -7.660  15.490  -8.971  0.00  0.00    +0.000 A 
ATOM      5  C   UNL     1      -7.143  15.101  -7.725  0.00  0.00    +0.000 A 
ATOM      6  C   UNL     1      -6.288  15.921  -6.966  0.00  0.00    +0.000 A 
ATOM      7  C   UNL     1      -5.965  17.154  -7.560  0.00  0.00    +0.000 A 
ATOM      8  C   UNL     1      -6.473  17.555  -8.807  0.00  0.00    +0.000 A 
ENDBRANCH   1   6
BRANCH   1   9
ATOM      9  C   UNL     1      -6.669  15.173  -4.613  0.00  0.00    +0.000 C 
BRANCH   9  10
ATOM     10  C   UNL     1      -6.337  13.803  -3.971  0.00  0.00    +0.000 C 
ATOM     11  C   UNL     1      -6.999  13.666  -2.605  0.00  0.00    +0.000 C 
BRANCH  10  12
ATOM     12  O   UNL     1      -6.794  12.723  -4.797  0.00  0.00    +0.000 OA
ATOM     13  H   UNL     1      -6.224  11.955  -4.631  0.00  0.00    +0.000 HD
ENDBRANCH  10  12
ENDBRANCH   9  10
ENDBRANCH   1   9
BRANCH   1  14
ATOM     14  C   UNL     1      -4.383  15.896  -5.325  0.00  0.00    +0.000 C 
BRANCH  14  15
ATOM     15  C   UNL     1      -3.338  14.832  -5.740  0.00  0.00    +0.000 C 
ATOM     16  C   UNL     1      -2.104  15.431  -6.404  0.00  0.00    +0.000 C 
BRANCH  15  17
ATOM     17  O   UNL     1      -2.906  14.055  -4.624  0.00  0.00    +0.000 OA
ATOM     18  H   UNL     1      -1.952  14.250  -4.535  0.00  0.00    +0.000 HD
ENDBRANCH  15  17
ENDBRANCH  14  15
ENDBRANCH   1  14
TORSDOF 7
ENDMDL
MODEL 9
REMARK VINA RESULT:    -4.356      1.943      4.909
REMARK INTER + INTRA:          -6.533
REMARK INTER:                  -6.111
REMARK INTRA:                  -0.422
REMARK UNBOUND:                -0.649
REMARK  Name = 
REMARK  10 active torsions:
REMARK  status: ('A' for Active; 'I' for Inactive)
REMARK    1  A    between atoms: C_1  and  C_2
REMARK    2  A    between atoms: C_5  and  N_8
REMARK    3  A    between atoms: N_8  and  C_9
REMARK    4  A    between atoms: N_8  and  C_13
REMARK    5  A    between atoms: C_9  and  C_10
REMARK    6  A    between atoms: C_10  and  C_11
REMARK    7  A    between atoms: C_10  and  O_12
REMARK    8  A    between atoms: C_13  and  C_14
REMARK    9  A    between atoms: C_14  and  C_15
REMARK   10  A    between atoms: C_14  and  O_16
REMARK                            x       y       z     vdW  Elec       q    Type
REMARK                         _______ _______ _______ _____ _____    ______ ____
ROOT
ATOM      1  N   UNL     1      -5.374  15.952  -5.358  0.00  0.00    +0.000 N 
ENDROOT
BRANCH   1   6
ATOM      2  C   UNL     1      -7.784  13.987  -0.494  0.00  0.00    +0.000 C 
ATOM      3  C   UNL     1      -7.137  14.489  -1.749  0.00  0.00    +0.000 A 
ATOM      4  C   UNL     1      -6.666  15.795  -1.837  0.00  0.00    +0.000 A 
ATOM      5  C   UNL     1      -6.087  16.269  -3.025  0.00  0.00    +0.000 A 
ATOM      6  C   UNL     1      -5.970  15.479  -4.183  0.00  0.00    +0.000 A 
ATOM      7  C   UNL     1      -6.454  14.163  -4.057  0.00  0.00    +0.000 A 
ATOM      8  C   UNL     1      -7.033  13.676  -2.874  0.00  0.00    +0.000 A 
ENDBRANCH   1   6
BRANCH   1   9
ATOM      9  C   UNL     1      -6.040  15.742  -6.666  0.00  0.00    +0.000 C 
BRANCH   9  10
ATOM     10  C   UNL     1      -5.978  16.992  -7.578  0.00  0.00    +0.000 C 
ATOM     11  C   UNL     1      -6.787  16.778  -8.852  0.00  0.00    +0.000 C 
BRANCH  10  12
ATOM     12  O   UNL     1      -6.502  18.146  -6.907  0.00  0.00    +0.000 OA
ATOM     13  H   UNL     1      -6.323  18.049  -5.957  0.00  0.00    +0.000 HD
ENDBRANCH  10  12
ENDBRANCH   9  10
ENDBRANCH   1   9
BRANCH   1  14
ATOM     14  C   UNL     1      -3.910  16.192  -5.435  0.00  0.00    +0.000 C 
BRANCH  14  15
ATOM     15  C   UNL     1      -3.125  14.908  -5.797  0.00  0.00    +0.000 C 
ATOM     16  C   UNL     1      -1.780  15.193  -6.456  0.00  0.00    +0.000 C 
BRANCH  15  17
ATOM     17  O   UNL     1      -2.891  14.092  -4.650  0.00  0.00    +0.000 OA
ATOM     18  H   UNL     1      -3.175  13.195  -4.917  0.00  0.00    +0.000 HD
ENDBRANCH  15  17
ENDBRANCH  14  15
ENDBRANCH   1  14
TORSDOF 7
ENDMDL
