MODEL 1
REMARK VINA RESULT:    -4.079      0.000      0.000
REMARK INTER + INTRA:          -4.475
REMARK INTER:                  -4.436
REMARK INTRA:                  -0.039
REMARK UNBOUND:                -0.039
REMARK  Name = 
REMARK  3 active torsions:
REMARK  status: ('A' for Active; 'I' for Inactive)
REMARK    1  A    between atoms: C_1  and  O_2
REMARK    2  A    between atoms: O_2  and  C_3
REMARK    3  A    between atoms: C_8  and  O_9
REMARK                            x       y       z     vdW  Elec       q    Type
REMARK                         _______ _______ _______ _____ _____    ______ ____
ROOT
ATOM      1  C   UNL     1      -2.593  17.490  -6.913  0.00  0.00    +0.000 A 
ATOM      2  C   UNL     1      -3.164  16.423  -6.222  0.00  0.00    +0.000 A 
ATOM      3  C   UNL     1      -2.375  15.327  -5.851  0.00  0.00    +0.000 A 
ATOM      4  C   UNL     1      -1.016  15.293  -6.170  0.00  0.00    +0.000 A 
ATOM      5  C   UNL     1      -0.438  16.355  -6.860  0.00  0.00    +0.000 A 
ATOM      6  C   UNL     1      -1.228  17.438  -7.224  0.00  0.00    +0.000 A 
ENDROOT
BRANCH   1   8
ATOM      7  C   UNL     1      -4.660  18.550  -7.413  0.00  0.00    +0.000 C 
ATOM      8  O   UNL     1      -3.241  18.622  -7.337  0.00  0.00    +0.000 OA
ENDBRANCH   1   8
BRANCH   6   9
ATOM      9  O   UNL     1      -0.637  18.471  -7.902  0.00  0.00    +0.000 OA
ATOM     10  H   UNL     1       0.186  18.091  -8.264  0.00  0.00    +0.000 HD
ENDBRANCH   6   9
TORSDOF 2
ENDMDL
MODEL 2
REMARK VINA RESULT:    -4.037      2.121      2.809
REMARK INTER + INTRA:          -4.430
REMARK INTER:                  -4.379
REMARK INTRA:                  -0.051
REMARK UNBOUND:                -0.039
REMARK  Name = 
REMARK  3 active torsions:
REMARK  status: ('A' for Active; 'I' for Inactive)
REMARK    1  A    between atoms: C_1  and  O_2
REMARK    2  A    between atoms: O_2  and  C_3
REMARK    3  A    between atoms: C_8  and  O_9
REMARK                            x       y       z     vdW  Elec       q    Type
REMARK                         _______ _______ _______ _____ _____    ______ ____
ROOT
ATOM      1  C   UNL     1      -3.249  16.462  -6.109  0.00  0.00    +0.000 A 
ATOM      2  C   UNL     1      -2.842  17.556  -6.871  0.00  0.00    +0.000 A 
ATOM      3  C   UNL     1      -1.510  17.658  -7.293  0.00  0.00    +0.000 A 
ATOM      4  C   UNL     1      -0.583  16.671  -6.954  0.00  0.00    +0.000 A 
ATOM      5  C   UNL     1      -0.982  15.575  -6.193  0.00  0.00    +0.000 A 
ATOM      6  C   UNL     1      -2.305  15.482  -5.779  0.00  0.00    +0.000 A 
ENDROOT
BRANCH   1   8
ATOM      7  C   UNL     1      -5.505  15.892  -6.590  0.00  0.00    +0.000 C 
ATOM      8  O   UNL     1      -4.514  16.234  -5.629  0.00  0.00    +0.000 OA
ENDBRANCH   1   8
BRANCH   6   9
ATOM      9  O   UNL     1      -2.674  14.395  -5.031  0.00  0.00    +0.000 OA
ATOM     10  H   UNL     1      -1.848  13.892  -4.901  0.00  0.00    +0.000 HD
ENDBRANCH   6   9
TORSDOF 2
ENDMDL
MODEL 3
REMARK VINA RESULT:    -4.017      3.689      5.056
REMARK INTER + INTRA:          -4.408
REMARK INTER:                  -4.368
REMARK INTRA:                  -0.040
REMARK UNBOUND:                -0.039
REMARK  Name = 
REMARK  3 active torsions:
REMARK  status: ('A' for Active; 'I' for Inactive)
REMARK    1  A    between atoms: C_1  and  O_2
REMARK    2  A    between atoms: O_2  and  C_3
REMARK    3  A    between atoms: C_8  and  O_9
REMARK                            x       y       z     vdW  Elec       q    Type
REMARK                         _______ _______ _______ _____ _____    ______ ____
ROOT
ATOM      1  C   UNL     1      -3.846  14.649  -5.539  0.00  0.00    +0.000 A 
ATOM      2  C   UNL     1      -4.619  15.471  -6.358  0.00  0.00    +0.000 A 
ATOM      3  C   UNL     1      -6.003  15.276  -6.439  0.00  0.00    +0.000 A 
ATOM      4  C   UNL     1      -6.619  14.261  -5.703  0.00  0.00    +0.000 A 
ATOM      5  C   UNL     1      -5.854  13.437  -4.882  0.00  0.00    +0.000 A 
ATOM      6  C   UNL     1      -4.481  13.637  -4.809  0.00  0.00    +0.000 A 
ENDROOT
BRANCH   1   8
ATOM      7  C   UNL     1      -1.741  15.293  -6.434  0.00  0.00    +0.000 C 
ATOM      8  O   UNL     1      -2.487  14.724  -5.365  0.00  0.00    +0.000 OA
ENDBRANCH   1   8
BRANCH   6   9
ATOM      9  O   UNL     1      -3.750  12.813  -3.995  0.00  0.00    +0.000 OA
ATOM     10  H   UNL     1      -3.905  13.154  -3.093  0.00  0.00    +0.000 HD
ENDBRANCH   6   9
TORSDOF 2
ENDMDL
MODEL 4
REMARK VINA RESULT:    -3.995     11.127     11.828
REMARK INTER + INTRA:          -4.384
REMARK INTER:                  -4.333
REMARK INTRA:                  -0.051
REMARK UNBOUND:                -0.039
REMARK  Name = 
REMARK  3 active torsions:
REMARK  status: ('A' for Active; 'I' for Inactive)
REMARK    1  A    between atoms: C_1  and  O_2
REMARK    2  A    between atoms: O_2  and  C_3
REMARK    3  A    between atoms: C_8  and  O_9
REMARK                            x       y       z     vdW  Elec       q    Type
REMARK                         _______ _______ _______ _____ _____    ______ ____
ROOT
ATOM      1  C   UNL     1       8.285  21.728  -8.038  0.00  0.00    +0.000 A 
ATOM      2  C   UNL     1       7.974  22.639  -9.046  0.00  0.00    +0.000 A 
ATOM      3  C   UNL     1       7.680  22.182 -10.337  0.00  0.00    +0.000 A 
ATOM      4  C   UNL     1       7.696  20.815 -10.624  0.00  0.00    +0.000 A 
ATOM      5  C   UNL     1       8.005  19.899  -9.622  0.00  0.00    +0.000 A 
ATOM      6  C   UNL     1       8.296  20.362  -8.345  0.00  0.00    +0.000 A 
ENDROOT
BRANCH   1   8
ATOM      7  C   UNL     1       9.702  22.900  -6.533  0.00  0.00    +0.000 C 
ATOM      8  O   UNL     1       8.593  22.033  -6.736  0.00  0.00    +0.000 OA
ENDBRANCH   1   8
BRANCH   6   9
ATOM      9  O   UNL     1       8.598  19.442  -7.377  0.00  0.00    +0.000 OA
ATOM     10  H   UNL     1       9.519  19.178  -7.562  0.00  0.00    +0.000 HD
ENDBRANCH   6   9
TORSDOF 2
ENDMDL
MODEL 5
REMARK VINA RESULT:    -3.805      4.226      5.620
REMARK INTER + INTRA:          -4.177
REMARK INTER:                  -4.128
REMARK INTRA:                  -0.049
REMARK UNBOUND:                -0.039
REMARK  Name = 
REMARK  3 active torsions:
REMARK  status: ('A' for Active; 'I' for Inactive)
REMARK    1  A    between atoms: C_1  and  O_2
REMARK    2  A    between atoms: O_2  and  C_3
REMARK    3  A    between atoms: C_8  and  O_9
REMARK                            x       y       z     vdW  Elec       q    Type
REMARK                         _______ _______ _______ _____ _____    ______ ____
ROOT
ATOM      1  C   UNL     1      -4.799  13.951  -5.374  0.00  0.00    +0.000 A 
ATOM      2  C   UNL     1      -4.670  13.913  -3.986  0.00  0.00    +0.000 A 
ATOM      3  C   UNL     1      -5.812  13.855  -3.178  0.00  0.00    +0.000 A 
ATOM      4  C   UNL     1      -7.085  13.835  -3.752  0.00  0.00    +0.000 A 
ATOM      5  C   UNL     1      -7.223  13.872  -5.137  0.00  0.00    +0.000 A 
ATOM      6  C   UNL     1      -6.084  13.930  -5.931  0.00  0.00    +0.000 A 
ENDROOT
BRANCH   1   8
ATOM      7  C   UNL     1      -2.809  15.036  -6.086  0.00  0.00    +0.000 C 
ATOM      8  O   UNL     1      -3.774  14.009  -6.283  0.00  0.00    +0.000 OA
ENDBRANCH   1   8
BRANCH   6   9
ATOM      9  O   UNL     1      -6.245  13.966  -7.290  0.00  0.00    +0.000 OA
ATOM     10  H   UNL     1      -5.654  13.267  -7.629  0.00  0.00    +0.000 HD
ENDBRANCH   6   9
TORSDOF 2
ENDMDL
MODEL 6
REMARK VINA RESULT:    -3.697      1.856      3.003
REMARK INTER + INTRA:          -4.060
REMARK INTER:                  -4.013
REMARK INTRA:                  -0.046
REMARK UNBOUND:                -0.039
REMARK  Name = 
REMARK  3 active torsions:
REMARK  status: ('A' for Active; 'I' for Inactive)
REMARK    1  A    between atoms: C_1  and  O_2
REMARK    2  A    between atoms: O_2  and  C_3
REMARK    3  A    between atoms: C_8  and  O_9
REMARK                            x       y       z     vdW  Elec       q    Type
REMARK                         _______ _______ _______ _____ _____    ______ ____
ROOT
ATOM      1  C   UNL     1      -2.355  16.782  -6.412  0.00  0.00    +0.000 A 
ATOM      2  C   UNL     1      -3.609  17.387  -6.474  0.00  0.00    +0.000 A 
ATOM      3  C   UNL     1      -4.767  16.617  -6.310  0.00  0.00    +0.000 A 
ATOM      4  C   UNL     1      -4.676  15.242  -6.084  0.00  0.00    +0.000 A 
ATOM      5  C   UNL     1      -3.426  14.630  -6.020  0.00  0.00    +0.000 A 
ATOM      6  C   UNL     1      -2.283  15.402  -6.185  0.00  0.00    +0.000 A 
ENDROOT
BRANCH   1   8
ATOM      7  C   UNL     1      -0.791  17.817  -7.872  0.00  0.00    +0.000 C 
ATOM      8  O   UNL     1      -1.143  17.410  -6.555  0.00  0.00    +0.000 OA
ENDBRANCH   1   8
BRANCH   6   9
ATOM      9  O   UNL     1      -1.066  14.778  -6.118  0.00  0.00    +0.000 OA
ATOM     10  H   UNL     1      -0.654  14.943  -6.988  0.00  0.00    +0.000 HD
ENDBRANCH   6   9
TORSDOF 2
ENDMDL
MODEL 7
REMARK VINA RESULT:    -3.658      4.144      5.100
REMARK INTER + INTRA:          -4.017
REMARK INTER:                  -3.966
REMARK INTRA:                  -0.051
REMARK UNBOUND:                -0.039
REMARK  Name = 
REMARK  3 active torsions:
REMARK  status: ('A' for Active; 'I' for Inactive)
REMARK    1  A    between atoms: C_1  and  O_2
REMARK    2  A    between atoms: O_2  and  C_3
REMARK    3  A    between atoms: C_8  and  O_9
REMARK                            x       y       z     vdW  Elec       q    Type
REMARK                         _______ _______ _______ _____ _____    ______ ____
ROOT
ATOM      1  C   UNL     1      -5.383  14.528  -4.392  0.00  0.00    +0.000 A 
ATOM      2  C   UNL     1      -5.673  15.815  -4.844  0.00  0.00    +0.000 A 
ATOM      3  C   UNL     1      -4.763  16.489  -5.668  0.00  0.00    +0.000 A 
ATOM      4  C   UNL     1      -3.563  15.881  -6.042  0.00  0.00    +0.000 A 
ATOM      5  C   UNL     1      -3.266  14.596  -5.595  0.00  0.00    +0.000 A 
ATOM      6  C   UNL     1      -4.175  13.935  -4.778  0.00  0.00    +0.000 A 
ENDROOT
BRANCH   1   8
ATOM      7  C   UNL     1      -7.370  13.245  -4.166  0.00  0.00    +0.000 C 
ATOM      8  O   UNL     1      -6.177  13.754  -3.584  0.00  0.00    +0.000 OA
ENDBRANCH   1   8
BRANCH   6   9
ATOM      9  O   UNL     1      -3.861  12.672  -4.351  0.00  0.00    +0.000 OA
ATOM     10  H   UNL     1      -4.574  12.106  -4.704  0.00  0.00    +0.000 HD
ENDBRANCH   6   9
TORSDOF 2
ENDMDL
MODEL 8
REMARK VINA RESULT:    -3.638      6.192      7.567
REMARK INTER + INTRA:          -3.995
REMARK INTER:                  -3.943
REMARK INTRA:                  -0.053
REMARK UNBOUND:                -0.039
REMARK  Name = 
REMARK  3 active torsions:
REMARK  status: ('A' for Active; 'I' for Inactive)
REMARK    1  A    between atoms: C_1  and  O_2
REMARK    2  A    between atoms: O_2  and  C_3
REMARK    3  A    between atoms: C_8  and  O_9
REMARK                            x       y       z     vdW  Elec       q    Type
REMARK                         _______ _______ _______ _____ _____    ______ ____
ROOT
ATOM      1  C   UNL     1      -6.303  14.522  -3.027  0.00  0.00    +0.000 A 
ATOM      2  C   UNL     1      -6.055  15.871  -2.777  0.00  0.00    +0.000 A 
ATOM      3  C   UNL     1      -6.567  16.473  -1.621  0.00  0.00    +0.000 A 
ATOM      4  C   UNL     1      -7.327  15.733  -0.714  0.00  0.00    +0.000 A 
ATOM      5  C   UNL     1      -7.579  14.384  -0.957  0.00  0.00    +0.000 A 
ATOM      6  C   UNL     1      -7.068  13.795  -2.106  0.00  0.00    +0.000 A 
ENDROOT
BRANCH   1   8
ATOM      7  C   UNL     1      -4.464  13.599  -4.216  0.00  0.00    +0.000 C 
ATOM      8  O   UNL     1      -5.868  13.805  -4.113  0.00  0.00    +0.000 OA
ENDBRANCH   1   8
BRANCH   6   9
ATOM      9  O   UNL     1      -7.329  12.469  -2.324  0.00  0.00    +0.000 OA
ATOM     10  H   UNL     1      -6.467  12.084  -2.576  0.00  0.00    +0.000 HD
ENDBRANCH   6   9
TORSDOF 2
ENDMDL
MODEL 9
REMARK VINA RESULT:    -3.611     11.289     11.704
REMARK INTER + INTRA:          -3.966
REMARK INTER:                  -3.927
REMARK INTRA:                  -0.039
REMARK UNBOUND:                -0.039
REMARK  Name = 
REMARK  3 active torsions:
REMARK  status: ('A' for Active; 'I' for Inactive)
REMARK    1  A    between atoms: C_1  and  O_2
REMARK    2  A    between atoms: O_2  and  C_3
REMARK    3  A    between atoms: C_8  and  O_9
REMARK                            x       y       z     vdW  Elec       q    Type
REMARK                         _______ _______ _______ _____ _____    ______ ____
ROOT
ATOM      1  C   UNL     1       7.949  21.396  -8.861  0.00  0.00    +0.000 A 
ATOM      2  C   UNL     1       7.558  22.718  -9.066  0.00  0.00    +0.000 A 
ATOM      3  C   UNL     1       7.633  23.641  -8.015  0.00  0.00    +0.000 A 
ATOM      4  C   UNL     1       8.096  23.247  -6.758  0.00  0.00    +0.000 A 
ATOM      5  C   UNL     1       8.489  21.927  -6.546  0.00  0.00    +0.000 A 
ATOM      6  C   UNL     1       8.411  21.019  -7.594  0.00  0.00    +0.000 A 
ENDROOT
BRANCH   1   8
ATOM      7  C   UNL     1       7.936  20.790 -11.158  0.00  0.00    +0.000 C 
ATOM      8  O   UNL     1       7.929  20.390  -9.793  0.00  0.00    +0.000 OA
ENDBRANCH   1   8
BRANCH   6   9
ATOM      9  O   UNL     1       8.802  19.727  -7.360  0.00  0.00    +0.000 OA
ATOM     10  H   UNL     1       9.495  19.798  -6.676  0.00  0.00    +0.000 HD
ENDBRANCH   6   9
TORSDOF 2
ENDMDL
