MODEL 1
REMARK VINA RESULT:    -5.202      0.000      0.000
REMARK INTER + INTRA:          -7.677
REMARK INTER:                  -7.027
REMARK INTRA:                  -0.650
REMARK UNBOUND:                -0.650
REMARK  Name = 
REMARK  10 active torsions:
REMARK  status: ('A' for Active; 'I' for Inactive)
REMARK    1  A    between atoms: C_1  and  C_2
REMARK    2  A    between atoms: C_5  and  N_8
REMARK    3  A    between atoms: N_8  and  C_9
REMARK    4  A    between atoms: N_8  and  C_13
REMARK    5  A    between atoms: C_9  and  C_10
REMARK    6  A    between atoms: C_10  and  C_11
REMARK    7  A    between atoms: C_10  and  O_12
REMARK    8  A    between atoms: C_13  and  C_14
REMARK    9  A    between atoms: C_14  and  C_15
REMARK   10  A    between atoms: C_14  and  O_16
REMARK                            x       y       z     vdW  Elec       q    Type
REMARK                         _______ _______ _______ _____ _____    ______ ____
ROOT
ATOM      1  N   UNL     1      -6.001  15.440  -5.351  0.00  0.00    +0.000 N 
ENDROOT
BRANCH   1   6
ATOM      2  C   UNL     1      -0.551  16.633  -6.834  0.00  0.00    +0.000 C 
ATOM      3  C   UNL     1      -1.960  16.329  -6.426  0.00  0.00    +0.000 A 
ATOM      4  C   UNL     1      -2.338  15.038  -6.071  0.00  0.00    +0.000 A 
ATOM      5  C   UNL     1      -3.667  14.753  -5.718  0.00  0.00    +0.000 A 
ATOM      6  C   UNL     1      -4.682  15.727  -5.723  0.00  0.00    +0.000 A 
ATOM      7  C   UNL     1      -4.263  17.021  -6.085  0.00  0.00    +0.000 A 
ATOM      8  C   UNL     1      -2.937  17.320  -6.438  0.00  0.00    +0.000 A 
ENDBRANCH   1   6
BRANCH   1   9
ATOM      9  C   UNL     1      -7.128  15.880  -6.209  0.00  0.00    +0.000 C 
BRANCH   9  10
ATOM     10  C   UNL     1      -7.389  14.920  -7.395  0.00  0.00    +0.000 C 
ATOM     11  C   UNL     1      -7.007  15.572  -8.718  0.00  0.00    +0.000 C 
BRANCH  10  12
ATOM     12  O   UNL     1      -6.627  13.713  -7.258  0.00  0.00    +0.000 OA
ATOM     13  H   UNL     1      -5.807  13.814  -7.771  0.00  0.00    +0.000 HD
ENDBRANCH  10  12
ENDBRANCH   9  10
ENDBRANCH   1   9
BRANCH   1  14
ATOM     14  C   UNL     1      -6.361  15.177  -3.934  0.00  0.00    +0.000 C 
BRANCH  14  15
ATOM     15  C   UNL     1      -6.233  13.679  -3.567  0.00  0.00    +0.000 C 
ATOM     16  C   UNL     1      -7.055  13.290  -2.344  0.00  0.00    +0.000 C 
BRANCH  15  17
ATOM     17  O   UNL     1      -6.625  12.836  -4.649  0.00  0.00    +0.000 OA
ATOM     18  H   UNL     1      -6.140  11.998  -4.504  0.00  0.00    +0.000 HD
ENDBRANCH  15  17
ENDBRANCH  14  15
ENDBRANCH   1  14
TORSDOF 7
ENDMDL
MODEL 2
REMARK VINA RESULT:    -5.175      1.417      2.068
REMARK INTER + INTRA:          -7.641
REMARK INTER:                  -7.297
REMARK INTRA:                  -0.344
REMARK UNBOUND:                -0.650
REMARK  Name = 
REMARK  10 active torsions:
REMARK  status: ('A' for Active; 'I' for Inactive)
REMARK    1  A    between atoms: C_1  and  C_2
REMARK    2  A    between atoms: C_5  and  N_8
REMARK    3  A    between atoms: N_8  and  C_9
REMARK    4  A    between atoms: N_8  and  C_13
REMARK    5  A    between atoms: C_9  and  C_10
REMARK    6  A    between atoms: C_10  and  C_11
REMARK    7  A    between atoms: C_10  and  O_12
REMARK    8  A    between atoms: C_13  and  C_14
REMARK    9  A    between atoms: C_14  and  C_15
REMARK   10  A    between atoms: C_14  and  O_16
REMARK                            x       y       z     vdW  Elec       q    Type
REMARK                         _______ _______ _______ _____ _____    ______ ____
ROOT
ATOM      1  N   UNL     1      -4.784  14.915  -6.209  0.00  0.00    +0.000 N 
ENDROOT
BRANCH   1   6
ATOM      2  C   UNL     1       0.043  17.973  -7.030  0.00  0.00    +0.000 C 
ATOM      3  C   UNL     1      -1.210  17.174  -6.841  0.00  0.00    +0.000 A 
ATOM      4  C   UNL     1      -2.461  17.777  -6.921  0.00  0.00    +0.000 A 
ATOM      5  C   UNL     1      -3.631  17.029  -6.714  0.00  0.00    +0.000 A 
ATOM      6  C   UNL     1      -3.613  15.659  -6.395  0.00  0.00    +0.000 A 
ATOM      7  C   UNL     1      -2.331  15.082  -6.325  0.00  0.00    +0.000 A 
ATOM      8  C   UNL     1      -1.153  15.818  -6.532  0.00  0.00    +0.000 A 
ENDBRANCH   1   6
BRANCH   1   9
ATOM      9  C   UNL     1      -6.102  15.594  -6.195  0.00  0.00    +0.000 C 
BRANCH   9  10
ATOM     10  C   UNL     1      -7.195  14.799  -6.952  0.00  0.00    +0.000 C 
ATOM     11  C   UNL     1      -8.560  15.456  -6.785  0.00  0.00    +0.000 C 
BRANCH  10  12
ATOM     12  O   UNL     1      -6.903  14.730  -8.354  0.00  0.00    +0.000 OA
ATOM     13  H   UNL     1      -7.673  15.071  -8.839  0.00  0.00    +0.000 HD
ENDBRANCH  10  12
ENDBRANCH   9  10
ENDBRANCH   1   9
BRANCH   1  14
ATOM     14  C   UNL     1      -4.756  13.594  -5.530  0.00  0.00    +0.000 C 
BRANCH  14  15
ATOM     15  C   UNL     1      -4.514  13.724  -4.007  0.00  0.00    +0.000 C 
ATOM     16  C   UNL     1      -5.798  13.666  -3.189  0.00  0.00    +0.000 C 
BRANCH  15  17
ATOM     17  O   UNL     1      -3.636  12.708  -3.525  0.00  0.00    +0.000 OA
ATOM     18  H   UNL     1      -3.841  12.629  -2.571  0.00  0.00    +0.000 HD
ENDBRANCH  15  17
ENDBRANCH  14  15
ENDBRANCH   1  14
TORSDOF 7
ENDMDL
MODEL 3
REMARK VINA RESULT:    -5.113      1.338      3.364
REMARK INTER + INTRA:          -7.557
REMARK INTER:                  -7.108
REMARK INTRA:                  -0.449
REMARK UNBOUND:                -0.650
REMARK  Name = 
REMARK  10 active torsions:
REMARK  status: ('A' for Active; 'I' for Inactive)
REMARK    1  A    between atoms: C_1  and  C_2
REMARK    2  A    between atoms: C_5  and  N_8
REMARK    3  A    between atoms: N_8  and  C_9
REMARK    4  A    between atoms: N_8  and  C_13
REMARK    5  A    between atoms: C_9  and  C_10
REMARK    6  A    between atoms: C_10  and  C_11
REMARK    7  A    between atoms: C_10  and  O_12
REMARK    8  A    between atoms: C_13  and  C_14
REMARK    9  A    between atoms: C_14  and  C_15
REMARK   10  A    between atoms: C_14  and  O_16
REMARK                            x       y       z     vdW  Elec       q    Type
REMARK                         _______ _______ _______ _____ _____    ______ ____
ROOT
ATOM      1  N   UNL     1      -4.841  15.431  -5.919  0.00  0.00    +0.000 N 
ENDROOT
BRANCH   1   6
ATOM      2  C   UNL     1       0.183  17.912  -7.308  0.00  0.00    +0.000 C 
ATOM      3  C   UNL     1      -1.123  17.260  -6.971  0.00  0.00    +0.000 A 
ATOM      4  C   UNL     1      -2.319  17.963  -7.070  0.00  0.00    +0.000 A 
ATOM      5  C   UNL     1      -3.537  17.356  -6.723  0.00  0.00    +0.000 A 
ATOM      6  C   UNL     1      -3.620  16.036  -6.244  0.00  0.00    +0.000 A 
ATOM      7  C   UNL     1      -2.392  15.355  -6.159  0.00  0.00    +0.000 A 
ATOM      8  C   UNL     1      -1.167  15.949  -6.504  0.00  0.00    +0.000 A 
ENDBRANCH   1   6
BRANCH   1   9
ATOM      9  C   UNL     1      -4.879  14.004  -5.515  0.00  0.00    +0.000 C 
BRANCH   9  10
ATOM     10  C   UNL     1      -4.708  13.809  -3.988  0.00  0.00    +0.000 C 
ATOM     11  C   UNL     1      -6.061  13.653  -3.304  0.00  0.00    +0.000 C 
BRANCH  10  12
ATOM     12  O   UNL     1      -3.929  12.638  -3.703  0.00  0.00    +0.000 OA
ATOM     13  H   UNL     1      -3.697  12.654  -2.760  0.00  0.00    +0.000 HD
ENDBRANCH  10  12
ENDBRANCH   9  10
ENDBRANCH   1   9
BRANCH   1  14
ATOM     14  C   UNL     1      -6.127  15.968  -6.432  0.00  0.00    +0.000 C 
BRANCH  14  15
ATOM     15  C   UNL     1      -7.071  14.848  -6.931  0.00  0.00    +0.000 C 
ATOM     16  C   UNL     1      -8.534  15.100  -6.588  0.00  0.00    +0.000 C 
BRANCH  15  17
ATOM     17  O   UNL     1      -6.973  14.666  -8.343  0.00  0.00    +0.000 OA
ATOM     18  H   UNL     1      -7.217  13.731  -8.494  0.00  0.00    +0.000 HD
ENDBRANCH  15  17
ENDBRANCH  14  15
ENDBRANCH   1  14
TORSDOF 7
ENDMDL
MODEL 4
REMARK VINA RESULT:    -5.019      1.474      5.228
REMARK INTER + INTRA:          -7.430
REMARK INTER:                  -6.989
REMARK INTRA:                  -0.441
REMARK UNBOUND:                -0.650
REMARK  Name = 
REMARK  10 active torsions:
REMARK  status: ('A' for Active; 'I' for Inactive)
REMARK    1  A    between atoms: C_1  and  C_2
REMARK    2  A    between atoms: C_5  and  N_8
REMARK    3  A    between atoms: N_8  and  C_9
REMARK    4  A    between atoms: N_8  and  C_13
REMARK    5  A    between atoms: C_9  and  C_10
REMARK    6  A    between atoms: C_10  and  C_11
REMARK    7  A    between atoms: C_10  and  O_12
REMARK    8  A    between atoms: C_13  and  C_14
REMARK    9  A    between atoms: C_14  and  C_15
REMARK   10  A    between atoms: C_14  and  O_16
REMARK                            x       y       z     vdW  Elec       q    Type
REMARK                         _______ _______ _______ _____ _____    ______ ____
ROOT
ATOM      1  N   UNL     1      -5.606  15.541  -5.286  0.00  0.00    +0.000 N 
ENDROOT
BRANCH   1   6
ATOM      2  C   UNL     1      -7.784  14.280  -0.091  0.00  0.00    +0.000 C 
ATOM      3  C   UNL     1      -7.196  14.603  -1.430  0.00  0.00    +0.000 A 
ATOM      4  C   UNL     1      -6.847  15.908  -1.762  0.00  0.00    +0.000 A 
ATOM      5  C   UNL     1      -6.324  16.209  -3.030  0.00  0.00    +0.000 A 
ATOM      6  C   UNL     1      -6.146  15.237  -4.031  0.00  0.00    +0.000 A 
ATOM      7  C   UNL     1      -6.508  13.929  -3.660  0.00  0.00    +0.000 A 
ATOM      8  C   UNL     1      -7.030  13.613  -2.395  0.00  0.00    +0.000 A 
ENDBRANCH   1   6
BRANCH   1   9
ATOM      9  C   UNL     1      -4.182  15.936  -5.407  0.00  0.00    +0.000 C 
BRANCH   9  10
ATOM     10  C   UNL     1      -3.255  14.743  -5.744  0.00  0.00    +0.000 C 
ATOM     11  C   UNL     1      -1.957  15.224  -6.382  0.00  0.00    +0.000 C 
BRANCH  10  12
ATOM     12  O   UNL     1      -2.921  14.001  -4.563  0.00  0.00    +0.000 OA
ATOM     13  H   UNL     1      -2.586  13.131  -4.838  0.00  0.00    +0.000 HD
ENDBRANCH  10  12
ENDBRANCH   9  10
ENDBRANCH   1   9
BRANCH   1  14
ATOM     14  C   UNL     1      -6.473  15.979  -6.411  0.00  0.00    +0.000 C 
BRANCH  14  15
ATOM     15  C   UNL     1      -7.280  14.806  -7.017  0.00  0.00    +0.000 C 
ATOM     16  C   UNL     1      -7.909  15.143  -8.363  0.00  0.00    +0.000 C 
BRANCH  15  17
ATOM     17  O   UNL     1      -6.473  13.642  -7.185  0.00  0.00    +0.000 OA
ATOM     18  H   UNL     1      -6.109  13.456  -6.296  0.00  0.00    +0.000 HD
ENDBRANCH  15  17
ENDBRANCH  14  15
ENDBRANCH   1  14
TORSDOF 7
ENDMDL
MODEL 5
REMARK VINA RESULT:    -4.953      1.565      4.947
REMARK INTER + INTRA:          -7.341
REMARK INTER:                  -7.007
REMARK INTRA:                  -0.334
REMARK UNBOUND:                -0.650
REMARK  Name = 
REMARK  10 active torsions:
REMARK  status: ('A' for Active; 'I' for Inactive)
REMARK    1  A    between atoms: C_1  and  C_2
REMARK    2  A    between atoms: C_5  and  N_8
REMARK    3  A    between atoms: N_8  and  C_9
REMARK    4  A    between atoms: N_8  and  C_13
REMARK    5  A    between atoms: C_9  and  C_10
REMARK    6  A    between atoms: C_10  and  C_11
REMARK    7  A    between atoms: C_10  and  O_12
REMARK    8  A    between atoms: C_13  and  C_14
REMARK    9  A    between atoms: C_14  and  C_15
REMARK   10  A    between atoms: C_14  and  O_16
REMARK                            x       y       z     vdW  Elec       q    Type
REMARK                         _______ _______ _______ _____ _____    ______ ____
ROOT
ATOM      1  N   UNL     1      -5.690  15.073  -5.309  0.00  0.00    +0.000 N 
ENDROOT
BRANCH   1   6
ATOM      2  C   UNL     1      -7.931  14.216  -0.059  0.00  0.00    +0.000 C 
ATOM      3  C   UNL     1      -7.328  14.430  -1.413  0.00  0.00    +0.000 A 
ATOM      4  C   UNL     1      -6.771  15.656  -1.761  0.00  0.00    +0.000 A 
ATOM      5  C   UNL     1      -6.234  15.860  -3.043  0.00  0.00    +0.000 A 
ATOM      6  C   UNL     1      -6.245  14.869  -4.040  0.00  0.00    +0.000 A 
ATOM      7  C   UNL     1      -6.813  13.641  -3.652  0.00  0.00    +0.000 A 
ATOM      8  C   UNL     1      -7.352  13.423  -2.374  0.00  0.00    +0.000 A 
ENDBRANCH   1   6
BRANCH   1   9
ATOM      9  C   UNL     1      -6.116  14.230  -6.452  0.00  0.00    +0.000 C 
BRANCH   9  10
ATOM     10  C   UNL     1      -7.271  14.862  -7.267  0.00  0.00    +0.000 C 
ATOM     11  C   UNL     1      -7.429  16.341  -6.931  0.00  0.00    +0.000 C 
BRANCH  10  12
ATOM     12  O   UNL     1      -7.029  14.750  -8.676  0.00  0.00    +0.000 OA
ATOM     13  H   UNL     1      -7.888  14.703  -9.127  0.00  0.00    +0.000 HD
ENDBRANCH  10  12
ENDBRANCH   9  10
ENDBRANCH   1   9
BRANCH   1  14
ATOM     14  C   UNL     1      -4.364  15.722  -5.473  0.00  0.00    +0.000 C 
BRANCH  14  15
ATOM     15  C   UNL     1      -3.233  14.690  -5.700  0.00  0.00    +0.000 C 
ATOM     16  C   UNL     1      -1.955  15.313  -6.250  0.00  0.00    +0.000 C 
BRANCH  15  17
ATOM     17  O   UNL     1      -2.903  13.996  -4.498  0.00  0.00    +0.000 OA
ATOM     18  H   UNL     1      -1.931  14.068  -4.423  0.00  0.00    +0.000 HD
ENDBRANCH  15  17
ENDBRANCH  14  15
ENDBRANCH   1  14
TORSDOF 7
ENDMDL
MODEL 6
REMARK VINA RESULT:    -4.929      2.104      4.950
REMARK INTER + INTRA:          -7.309
REMARK INTER:                  -6.918
REMARK INTRA:                  -0.390
REMARK UNBOUND:                -0.650
REMARK  Name = 
REMARK  10 active torsions:
REMARK  status: ('A' for Active; 'I' for Inactive)
REMARK    1  A    between atoms: C_1  and  C_2
REMARK    2  A    between atoms: C_5  and  N_8
REMARK    3  A    between atoms: N_8  and  C_9
REMARK    4  A    between atoms: N_8  and  C_13
REMARK    5  A    between atoms: C_9  and  C_10
REMARK    6  A    between atoms: C_10  and  C_11
REMARK    7  A    between atoms: C_10  and  O_12
REMARK    8  A    between atoms: C_13  and  C_14
REMARK    9  A    between atoms: C_14  and  C_15
REMARK   10  A    between atoms: C_14  and  O_16
REMARK                            x       y       z     vdW  Elec       q    Type
REMARK                         _______ _______ _______ _____ _____    ______ ____
ROOT
ATOM      1  N   UNL     1      -5.015  16.120  -5.589  0.00  0.00    +0.000 N 
ENDROOT
BRANCH   1   6
ATOM      2  C   UNL     1      -7.165  16.893  -0.287  0.00  0.00    +0.000 C 
ATOM      3  C   UNL     1      -6.584  16.692  -1.653  0.00  0.00    +0.000 A 
ATOM      4  C   UNL     1      -6.265  17.779  -2.461  0.00  0.00    +0.000 A 
ATOM      5  C   UNL     1      -5.749  17.584  -3.752  0.00  0.00    +0.000 A 
ATOM      6  C   UNL     1      -5.548  16.307  -4.308  0.00  0.00    +0.000 A 
ATOM      7  C   UNL     1      -5.880  15.232  -3.462  0.00  0.00    +0.000 A 
ATOM      8  C   UNL     1      -6.395  15.413  -2.168  0.00  0.00    +0.000 A 
ENDBRANCH   1   6
BRANCH   1   9
ATOM      9  C   UNL     1      -3.592  16.442  -5.856  0.00  0.00    +0.000 C 
BRANCH   9  10
ATOM     10  C   UNL     1      -2.721  15.179  -6.065  0.00  0.00    +0.000 C 
ATOM     11  C   UNL     1      -1.313  15.556  -6.511  0.00  0.00    +0.000 C 
BRANCH  10  12
ATOM     12  O   UNL     1      -2.615  14.420  -4.853  0.00  0.00    +0.000 OA
ATOM     13  H   UNL     1      -2.938  14.973  -4.122  0.00  0.00    +0.000 HD
ENDBRANCH  10  12
ENDBRANCH   9  10
ENDBRANCH   1   9
BRANCH   1  14
ATOM     14  C   UNL     1      -5.888  16.105  -6.791  0.00  0.00    +0.000 C 
BRANCH  14  15
ATOM     15  C   UNL     1      -6.907  14.942  -6.758  0.00  0.00    +0.000 C 
ATOM     16  C   UNL     1      -7.971  15.045  -7.845  0.00  0.00    +0.000 C 
BRANCH  15  17
ATOM     17  O   UNL     1      -6.265  13.674  -6.888  0.00  0.00    +0.000 OA
ATOM     18  H   UNL     1      -5.387  13.874  -7.270  0.00  0.00    +0.000 HD
ENDBRANCH  15  17
ENDBRANCH  14  15
ENDBRANCH   1  14
TORSDOF 7
ENDMDL
MODEL 7
REMARK VINA RESULT:    -4.619      2.217      5.293
REMARK INTER + INTRA:          -6.890
REMARK INTER:                  -6.454
REMARK INTRA:                  -0.436
REMARK UNBOUND:                -0.650
REMARK  Name = 
REMARK  10 active torsions:
REMARK  status: ('A' for Active; 'I' for Inactive)
REMARK    1  A    between atoms: C_1  and  C_2
REMARK    2  A    between atoms: C_5  and  N_8
REMARK    3  A    between atoms: N_8  and  C_9
REMARK    4  A    between atoms: N_8  and  C_13
REMARK    5  A    between atoms: C_9  and  C_10
REMARK    6  A    between atoms: C_10  and  C_11
REMARK    7  A    between atoms: C_10  and  O_12
REMARK    8  A    between atoms: C_13  and  C_14
REMARK    9  A    between atoms: C_14  and  C_15
REMARK   10  A    between atoms: C_14  and  O_16
REMARK                            x       y       z     vdW  Elec       q    Type
REMARK                         _______ _______ _______ _____ _____    ______ ____
ROOT
ATOM      1  N   UNL     1      -5.141  15.828  -4.667  0.00  0.00    +0.000 N 
ENDROOT
BRANCH   1   6
ATOM      2  C   UNL     1      -8.337  13.672  -0.370  0.00  0.00    +0.000 C 
ATOM      3  C   UNL     1      -7.487  14.223  -1.474  0.00  0.00    +0.000 A 
ATOM      4  C   UNL     1      -7.002  15.525  -1.420  0.00  0.00    +0.000 A 
ATOM      5  C   UNL     1      -6.231  16.046  -2.472  0.00  0.00    +0.000 A 
ATOM      6  C   UNL     1      -5.927  15.309  -3.631  0.00  0.00    +0.000 A 
ATOM      7  C   UNL     1      -6.432  13.996  -3.650  0.00  0.00    +0.000 A 
ATOM      8  C   UNL     1      -7.203  13.462  -2.604  0.00  0.00    +0.000 A 
ENDBRANCH   1   6
BRANCH   1   9
ATOM      9  C   UNL     1      -5.080  17.293  -4.892  0.00  0.00    +0.000 C 
BRANCH   9  10
ATOM     10  C   UNL     1      -5.216  17.677  -6.386  0.00  0.00    +0.000 C 
ATOM     11  C   UNL     1      -6.465  18.518  -6.620  0.00  0.00    +0.000 C 
BRANCH  10  12
ATOM     12  O   UNL     1      -4.081  18.434  -6.828  0.00  0.00    +0.000 OA
ATOM     13  H   UNL     1      -3.624  18.778  -6.042  0.00  0.00    +0.000 HD
ENDBRANCH  10  12
ENDBRANCH   9  10
ENDBRANCH   1   9
BRANCH   1  14
ATOM     14  C   UNL     1      -4.778  15.000  -5.846  0.00  0.00    +0.000 C 
BRANCH  14  15
ATOM     15  C   UNL     1      -3.344  14.428  -5.738  0.00  0.00    +0.000 C 
ATOM     16  C   UNL     1      -2.272  15.404  -6.210  0.00  0.00    +0.000 C 
BRANCH  15  17
ATOM     17  O   UNL     1      -3.030  14.040  -4.402  0.00  0.00    +0.000 OA
ATOM     18  H   UNL     1      -3.529  13.211  -4.256  0.00  0.00    +0.000 HD
ENDBRANCH  15  17
ENDBRANCH  14  15
ENDBRANCH   1  14
TORSDOF 7
ENDMDL
MODEL 8
REMARK VINA RESULT:    -4.473      2.087      5.654
REMARK INTER + INTRA:          -6.692
REMARK INTER:                  -6.241
REMARK INTRA:                  -0.450
REMARK UNBOUND:                -0.650
REMARK  Name = 
REMARK  10 active torsions:
REMARK  status: ('A' for Active; 'I' for Inactive)
REMARK    1  A    between atoms: C_1  and  C_2
REMARK    2  A    between atoms: C_5  and  N_8
REMARK    3  A    between atoms: N_8  and  C_9
REMARK    4  A    between atoms: N_8  and  C_13
REMARK    5  A    between atoms: C_9  and  C_10
REMARK    6  A    between atoms: C_10  and  C_11
REMARK    7  A    between atoms: C_10  and  O_12
REMARK    8  A    between atoms: C_13  and  C_14
REMARK    9  A    between atoms: C_14  and  C_15
REMARK   10  A    between atoms: C_14  and  O_16
REMARK                            x       y       z     vdW  Elec       q    Type
REMARK                         _______ _______ _______ _____ _____    ______ ____
ROOT
ATOM      1  N   UNL     1      -6.431  14.414  -4.238  0.00  0.00    +0.000 N 
ENDROOT
BRANCH   1   6
ATOM      2  C   UNL     1      -8.123  14.609   1.278  0.00  0.00    +0.000 C 
ATOM      3  C   UNL     1      -7.707  14.565  -0.161  0.00  0.00    +0.000 A 
ATOM      4  C   UNL     1      -7.793  13.386  -0.894  0.00  0.00    +0.000 A 
ATOM      5  C   UNL     1      -7.373  13.343  -2.233  0.00  0.00    +0.000 A 
ATOM      6  C   UNL     1      -6.830  14.458  -2.897  0.00  0.00    +0.000 A 
ATOM      7  C   UNL     1      -6.759  15.633  -2.126  0.00  0.00    +0.000 A 
ATOM      8  C   UNL     1      -7.177  15.690  -0.786  0.00  0.00    +0.000 A 
ENDBRANCH   1   6
BRANCH   1   9
ATOM      9  C   UNL     1      -5.165  15.059  -4.660  0.00  0.00    +0.000 C 
BRANCH   9  10
ATOM     10  C   UNL     1      -4.216  14.089  -5.406  0.00  0.00    +0.000 C 
ATOM     11  C   UNL     1      -2.891  14.768  -5.735  0.00  0.00    +0.000 C 
BRANCH  10  12
ATOM     12  O   UNL     1      -3.935  12.929  -4.610  0.00  0.00    +0.000 OA
ATOM     13  H   UNL     1      -3.648  12.218  -5.205  0.00  0.00    +0.000 HD
ENDBRANCH  10  12
ENDBRANCH   9  10
ENDBRANCH   1   9
BRANCH   1  14
ATOM     14  C   UNL     1      -7.420  14.209  -5.328  0.00  0.00    +0.000 C 
BRANCH  14  15
ATOM     15  C   UNL     1      -7.619  15.484  -6.183  0.00  0.00    +0.000 C 
ATOM     16  C   UNL     1      -7.987  15.183  -7.631  0.00  0.00    +0.000 C 
BRANCH  15  17
ATOM     17  O   UNL     1      -8.628  16.332  -5.638  0.00  0.00    +0.000 OA
ATOM     18  H   UNL     1      -8.908  16.903  -6.382  0.00  0.00    +0.000 HD
ENDBRANCH  15  17
ENDBRANCH  14  15
ENDBRANCH   1  14
TORSDOF 7
ENDMDL
MODEL 9
REMARK VINA RESULT:    -4.455      1.920      2.768
REMARK INTER + INTRA:          -6.667
REMARK INTER:                  -6.175
REMARK INTRA:                  -0.493
REMARK UNBOUND:                -0.650
REMARK  Name = 
REMARK  10 active torsions:
REMARK  status: ('A' for Active; 'I' for Inactive)
REMARK    1  A    between atoms: C_1  and  C_2
REMARK    2  A    between atoms: C_5  and  N_8
REMARK    3  A    between atoms: N_8  and  C_9
REMARK    4  A    between atoms: N_8  and  C_13
REMARK    5  A    between atoms: C_9  and  C_10
REMARK    6  A    between atoms: C_10  and  C_11
REMARK    7  A    between atoms: C_10  and  O_12
REMARK    8  A    between atoms: C_13  and  C_14
REMARK    9  A    between atoms: C_14  and  C_15
REMARK   10  A    between atoms: C_14  and  O_16
REMARK                            x       y       z     vdW  Elec       q    Type
REMARK                         _______ _______ _______ _____ _____    ______ ____
ROOT
ATOM      1  N   UNL     1      -6.111  15.270  -5.003  0.00  0.00    +0.000 N 
ENDROOT
BRANCH   1   6
ATOM      2  C   UNL     1      -0.721  16.380  -6.748  0.00  0.00    +0.000 C 
ATOM      3  C   UNL     1      -2.114  16.101  -6.273  0.00  0.00    +0.000 A 
ATOM      4  C   UNL     1      -2.446  14.871  -5.715  0.00  0.00    +0.000 A 
ATOM      5  C   UNL     1      -3.761  14.605  -5.298  0.00  0.00    +0.000 A 
ATOM      6  C   UNL     1      -4.807  15.535  -5.438  0.00  0.00    +0.000 A 
ATOM      7  C   UNL     1      -4.435  16.768  -6.004  0.00  0.00    +0.000 A 
ATOM      8  C   UNL     1      -3.123  17.048  -6.423  0.00  0.00    +0.000 A 
ENDBRANCH   1   6
BRANCH   1   9
ATOM      9  C   UNL     1      -6.816  16.241  -4.131  0.00  0.00    +0.000 C 
BRANCH   9  10
ATOM     10  C   UNL     1      -5.906  16.820  -3.020  0.00  0.00    +0.000 C 
ATOM     11  C   UNL     1      -6.271  18.268  -2.716  0.00  0.00    +0.000 C 
BRANCH  10  12
ATOM     12  O   UNL     1      -6.032  16.066  -1.806  0.00  0.00    +0.000 OA
ATOM     13  H   UNL     1      -6.746  15.419  -1.927  0.00  0.00    +0.000 HD
ENDBRANCH  10  12
ENDBRANCH   9  10
ENDBRANCH   1   9
BRANCH   1  14
ATOM     14  C   UNL     1      -6.633  13.881  -4.940  0.00  0.00    +0.000 C 
BRANCH  14  15
ATOM     15  C   UNL     1      -7.326  13.578  -3.589  0.00  0.00    +0.000 C 
ATOM     16  C   UNL     1      -8.495  12.609  -3.720  0.00  0.00    +0.000 C 
BRANCH  15  17
ATOM     17  O   UNL     1      -6.411  13.040  -2.636  0.00  0.00    +0.000 OA
ATOM     18  H   UNL     1      -6.782  12.168  -2.394  0.00  0.00    +0.000 HD
ENDBRANCH  15  17
ENDBRANCH  14  15
ENDBRANCH   1  14
TORSDOF 7
ENDMDL
