MODEL 1
REMARK VINA RESULT:    -5.194      0.000      0.000
REMARK INTER + INTRA:          -7.670
REMARK INTER:                  -7.016
REMARK INTRA:                  -0.655
REMARK UNBOUND:                -0.655
REMARK  Name = 
REMARK  10 active torsions:
REMARK  status: ('A' for Active; 'I' for Inactive)
REMARK    1  A    between atoms: C_1  and  C_2
REMARK    2  A    between atoms: C_5  and  N_8
REMARK    3  A    between atoms: N_8  and  C_9
REMARK    4  A    between atoms: N_8  and  C_13
REMARK    5  A    between atoms: C_9  and  C_10
REMARK    6  A    between atoms: C_10  and  C_11
REMARK    7  A    between atoms: C_10  and  O_12
REMARK    8  A    between atoms: C_13  and  C_14
REMARK    9  A    between atoms: C_14  and  C_15
REMARK   10  A    between atoms: C_14  and  O_16
REMARK                            x       y       z     vdW  Elec       q    Type
REMARK                         _______ _______ _______ _____ _____    ______ ____
ROOT
ATOM      1  N   UNL     1      -6.005  15.449  -5.360  0.00  0.00    +0.000 N 
ENDROOT
BRANCH   1   6
ATOM      2  C   UNL     1      -0.541  16.634  -6.801  0.00  0.00    +0.000 C 
ATOM      3  C   UNL     1      -1.964  16.321  -6.451  0.00  0.00    +0.000 A 
ATOM      4  C   UNL     1      -2.936  17.316  -6.454  0.00  0.00    +0.000 A 
ATOM      5  C   UNL     1      -4.262  17.023  -6.095  0.00  0.00    +0.000 A 
ATOM      6  C   UNL     1      -4.677  15.739  -5.697  0.00  0.00    +0.000 A 
ATOM      7  C   UNL     1      -3.668  14.758  -5.708  0.00  0.00    +0.000 A 
ATOM      8  C   UNL     1      -2.339  15.037  -6.066  0.00  0.00    +0.000 A 
ENDBRANCH   1   6
BRANCH   1   9
ATOM      9  C   UNL     1      -7.110  15.899  -6.239  0.00  0.00    +0.000 C 
BRANCH   9  10
ATOM     10  C   UNL     1      -7.385  14.920  -7.406  0.00  0.00    +0.000 C 
ATOM     11  C   UNL     1      -7.037  15.556  -8.746  0.00  0.00    +0.000 C 
BRANCH  10  12
ATOM     12  O   UNL     1      -6.607  13.723  -7.268  0.00  0.00    +0.000 OA
ATOM     13  H   UNL     1      -6.103  13.594  -8.088  0.00  0.00    +0.000 HD
ENDBRANCH  10  12
ENDBRANCH   9  10
ENDBRANCH   1   9
BRANCH   1  14
ATOM     14  C   UNL     1      -6.398  15.173  -3.954  0.00  0.00    +0.000 C 
BRANCH  14  15
ATOM     15  C   UNL     1      -6.223  13.681  -3.581  0.00  0.00    +0.000 C 
ATOM     16  C   UNL     1      -7.013  13.276  -2.343  0.00  0.00    +0.000 C 
BRANCH  15  17
ATOM     17  O   UNL     1      -6.608  12.821  -4.652  0.00  0.00    +0.000 OA
ATOM     18  H   UNL     1      -6.341  11.925  -4.365  0.00  0.00    +0.000 HD
ENDBRANCH  15  17
ENDBRANCH  14  15
ENDBRANCH   1  14
TORSDOF 7
ENDMDL
MODEL 2
REMARK VINA RESULT:    -5.093      1.248      1.752
REMARK INTER + INTRA:          -7.534
REMARK INTER:                  -7.013
REMARK INTRA:                  -0.521
REMARK UNBOUND:                -0.655
REMARK  Name = 
REMARK  10 active torsions:
REMARK  status: ('A' for Active; 'I' for Inactive)
REMARK    1  A    between atoms: C_1  and  C_2
REMARK    2  A    between atoms: C_5  and  N_8
REMARK    3  A    between atoms: N_8  and  C_9
REMARK    4  A    between atoms: N_8  and  C_13
REMARK    5  A    between atoms: C_9  and  C_10
REMARK    6  A    between atoms: C_10  and  C_11
REMARK    7  A    between atoms: C_10  and  O_12
REMARK    8  A    between atoms: C_13  and  C_14
REMARK    9  A    between atoms: C_14  and  C_15
REMARK   10  A    between atoms: C_14  and  O_16
REMARK                            x       y       z     vdW  Elec       q    Type
REMARK                         _______ _______ _______ _____ _____    ______ ____
ROOT
ATOM      1  N   UNL     1      -5.388  15.102  -5.335  0.00  0.00    +0.000 N 
ENDROOT
BRANCH   1   6
ATOM      2  C   UNL     1      -0.312  17.215  -7.094  0.00  0.00    +0.000 C 
ATOM      3  C   UNL     1      -1.624  16.675  -6.614  0.00  0.00    +0.000 A 
ATOM      4  C   UNL     1      -1.736  15.362  -6.168  0.00  0.00    +0.000 A 
ATOM      5  C   UNL     1      -2.975  14.852  -5.748  0.00  0.00    +0.000 A 
ATOM      6  C   UNL     1      -4.159  15.611  -5.774  0.00  0.00    +0.000 A 
ATOM      7  C   UNL     1      -4.008  16.934  -6.228  0.00  0.00    +0.000 A 
ATOM      8  C   UNL     1      -2.775  17.457  -6.649  0.00  0.00    +0.000 A 
ENDBRANCH   1   6
BRANCH   1   9
ATOM      9  C   UNL     1      -6.655  15.644  -5.881  0.00  0.00    +0.000 C 
BRANCH   9  10
ATOM     10  C   UNL     1      -7.218  14.795  -7.047  0.00  0.00    +0.000 C 
ATOM     11  C   UNL     1      -7.075  15.529  -8.375  0.00  0.00    +0.000 C 
BRANCH  10  12
ATOM     12  O   UNL     1      -6.525  13.544  -7.154  0.00  0.00    +0.000 OA
ATOM     13  H   UNL     1      -6.619  13.074  -6.309  0.00  0.00    +0.000 HD
ENDBRANCH  10  12
ENDBRANCH   9  10
ENDBRANCH   1   9
BRANCH   1  14
ATOM     14  C   UNL     1      -5.515  14.427  -4.018  0.00  0.00    +0.000 C 
BRANCH  14  15
ATOM     15  C   UNL     1      -6.351  15.256  -3.014  0.00  0.00    +0.000 C 
ATOM     16  C   UNL     1      -7.140  14.395  -2.035  0.00  0.00    +0.000 C 
BRANCH  15  17
ATOM     17  O   UNL     1      -5.533  16.149  -2.258  0.00  0.00    +0.000 OA
ATOM     18  H   UNL     1      -4.629  15.781  -2.324  0.00  0.00    +0.000 HD
ENDBRANCH  15  17
ENDBRANCH  14  15
ENDBRANCH   1  14
TORSDOF 7
ENDMDL
MODEL 3
REMARK VINA RESULT:    -5.089      1.320      3.153
REMARK INTER + INTRA:          -7.528
REMARK INTER:                  -7.084
REMARK INTRA:                  -0.445
REMARK UNBOUND:                -0.655
REMARK  Name = 
REMARK  10 active torsions:
REMARK  status: ('A' for Active; 'I' for Inactive)
REMARK    1  A    between atoms: C_1  and  C_2
REMARK    2  A    between atoms: C_5  and  N_8
REMARK    3  A    between atoms: N_8  and  C_9
REMARK    4  A    between atoms: N_8  and  C_13
REMARK    5  A    between atoms: C_9  and  C_10
REMARK    6  A    between atoms: C_10  and  C_11
REMARK    7  A    between atoms: C_10  and  O_12
REMARK    8  A    between atoms: C_13  and  C_14
REMARK    9  A    between atoms: C_14  and  C_15
REMARK   10  A    between atoms: C_14  and  O_16
REMARK                            x       y       z     vdW  Elec       q    Type
REMARK                         _______ _______ _______ _____ _____    ______ ____
ROOT
ATOM      1  N   UNL     1      -4.885  15.406  -5.865  0.00  0.00    +0.000 N 
ENDROOT
BRANCH   1   6
ATOM      2  C   UNL     1       0.141  17.849  -7.315  0.00  0.00    +0.000 C 
ATOM      3  C   UNL     1      -1.166  17.207  -6.962  0.00  0.00    +0.000 A 
ATOM      4  C   UNL     1      -2.356  17.924  -7.031  0.00  0.00    +0.000 A 
ATOM      5  C   UNL     1      -3.574  17.326  -6.670  0.00  0.00    +0.000 A 
ATOM      6  C   UNL     1      -3.664  16.002  -6.205  0.00  0.00    +0.000 A 
ATOM      7  C   UNL     1      -2.442  15.306  -6.150  0.00  0.00    +0.000 A 
ATOM      8  C   UNL     1      -1.217  15.891  -6.510  0.00  0.00    +0.000 A 
ENDBRANCH   1   6
BRANCH   1   9
ATOM      9  C   UNL     1      -4.928  13.983  -5.450  0.00  0.00    +0.000 C 
BRANCH   9  10
ATOM     10  C   UNL     1      -4.753  13.798  -3.923  0.00  0.00    +0.000 C 
ATOM     11  C   UNL     1      -6.101  13.605  -3.239  0.00  0.00    +0.000 C 
BRANCH  10  12
ATOM     12  O   UNL     1      -3.940  12.652  -3.634  0.00  0.00    +0.000 OA
ATOM     13  H   UNL     1      -3.092  12.966  -3.277  0.00  0.00    +0.000 HD
ENDBRANCH  10  12
ENDBRANCH   9  10
ENDBRANCH   1   9
BRANCH   1  14
ATOM     14  C   UNL     1      -6.172  15.947  -6.372  0.00  0.00    +0.000 C 
BRANCH  14  15
ATOM     15  C   UNL     1      -7.112  14.832  -6.891  0.00  0.00    +0.000 C 
ATOM     16  C   UNL     1      -8.586  15.120  -6.631  0.00  0.00    +0.000 C 
BRANCH  15  17
ATOM     17  O   UNL     1      -6.945  14.610  -8.290  0.00  0.00    +0.000 OA
ATOM     18  H   UNL     1      -7.350  13.735  -8.458  0.00  0.00    +0.000 HD
ENDBRANCH  15  17
ENDBRANCH  14  15
ENDBRANCH   1  14
TORSDOF 7
ENDMDL
MODEL 4
REMARK VINA RESULT:    -5.078      2.068      4.809
REMARK INTER + INTRA:          -7.514
REMARK INTER:                  -7.101
REMARK INTRA:                  -0.413
REMARK UNBOUND:                -0.655
REMARK  Name = 
REMARK  10 active torsions:
REMARK  status: ('A' for Active; 'I' for Inactive)
REMARK    1  A    between atoms: C_1  and  C_2
REMARK    2  A    between atoms: C_5  and  N_8
REMARK    3  A    between atoms: N_8  and  C_9
REMARK    4  A    between atoms: N_8  and  C_13
REMARK    5  A    between atoms: C_9  and  C_10
REMARK    6  A    between atoms: C_10  and  C_11
REMARK    7  A    between atoms: C_10  and  O_12
REMARK    8  A    between atoms: C_13  and  C_14
REMARK    9  A    between atoms: C_14  and  C_15
REMARK   10  A    between atoms: C_14  and  O_16
REMARK                            x       y       z     vdW  Elec       q    Type
REMARK                         _______ _______ _______ _____ _____    ______ ____
ROOT
ATOM      1  N   UNL     1      -5.073  16.033  -5.574  0.00  0.00    +0.000 N 
ENDROOT
BRANCH   1   6
ATOM      2  C   UNL     1      -7.117  16.863  -0.239  0.00  0.00    +0.000 C 
ATOM      3  C   UNL     1      -6.563  16.646  -1.614  0.00  0.00    +0.000 A 
ATOM      4  C   UNL     1      -6.178  17.721  -2.407  0.00  0.00    +0.000 A 
ATOM      5  C   UNL     1      -5.688  17.513  -3.707  0.00  0.00    +0.000 A 
ATOM      6  C   UNL     1      -5.580  16.235  -4.285  0.00  0.00    +0.000 A 
ATOM      7  C   UNL     1      -5.977  15.171  -3.453  0.00  0.00    +0.000 A 
ATOM      8  C   UNL     1      -6.467  15.365  -2.151  0.00  0.00    +0.000 A 
ENDBRANCH   1   6
BRANCH   1   9
ATOM      9  C   UNL     1      -3.636  16.273  -5.853  0.00  0.00    +0.000 C 
BRANCH   9  10
ATOM     10  C   UNL     1      -2.827  14.961  -6.003  0.00  0.00    +0.000 C 
ATOM     11  C   UNL     1      -1.382  15.254  -6.389  0.00  0.00    +0.000 C 
BRANCH  10  12
ATOM     12  O   UNL     1      -2.818  14.219  -4.776  0.00  0.00    +0.000 OA
ATOM     13  H   UNL     1      -3.577  14.509  -4.243  0.00  0.00    +0.000 HD
ENDBRANCH  10  12
ENDBRANCH   9  10
ENDBRANCH   1   9
BRANCH   1  14
ATOM     14  C   UNL     1      -5.958  16.086  -6.766  0.00  0.00    +0.000 C 
BRANCH  14  15
ATOM     15  C   UNL     1      -6.924  14.880  -6.830  0.00  0.00    +0.000 C 
ATOM     16  C   UNL     1      -7.950  14.992  -7.952  0.00  0.00    +0.000 C 
BRANCH  15  17
ATOM     17  O   UNL     1      -6.222  13.649  -6.995  0.00  0.00    +0.000 OA
ATOM     18  H   UNL     1      -5.566  13.633  -6.269  0.00  0.00    +0.000 HD
ENDBRANCH  15  17
ENDBRANCH  14  15
ENDBRANCH   1  14
TORSDOF 7
ENDMDL
MODEL 5
REMARK VINA RESULT:    -4.913      1.558      4.847
REMARK INTER + INTRA:          -7.291
REMARK INTER:                  -6.950
REMARK INTRA:                  -0.341
REMARK UNBOUND:                -0.655
REMARK  Name = 
REMARK  10 active torsions:
REMARK  status: ('A' for Active; 'I' for Inactive)
REMARK    1  A    between atoms: C_1  and  C_2
REMARK    2  A    between atoms: C_5  and  N_8
REMARK    3  A    between atoms: N_8  and  C_9
REMARK    4  A    between atoms: N_8  and  C_13
REMARK    5  A    between atoms: C_9  and  C_10
REMARK    6  A    between atoms: C_10  and  C_11
REMARK    7  A    between atoms: C_10  and  O_12
REMARK    8  A    between atoms: C_13  and  C_14
REMARK    9  A    between atoms: C_14  and  C_15
REMARK   10  A    between atoms: C_14  and  O_16
REMARK                            x       y       z     vdW  Elec       q    Type
REMARK                         _______ _______ _______ _____ _____    ______ ____
ROOT
ATOM      1  N   UNL     1      -5.683  15.070  -5.327  0.00  0.00    +0.000 N 
ENDROOT
BRANCH   1   6
ATOM      2  C   UNL     1      -8.025  14.038  -0.152  0.00  0.00    +0.000 C 
ATOM      3  C   UNL     1      -7.395  14.296  -1.487  0.00  0.00    +0.000 A 
ATOM      4  C   UNL     1      -6.811  15.525  -1.775  0.00  0.00    +0.000 A 
ATOM      5  C   UNL     1      -6.249  15.772  -3.038  0.00  0.00    +0.000 A 
ATOM      6  C   UNL     1      -6.263  14.824  -4.076  0.00  0.00    +0.000 A 
ATOM      7  C   UNL     1      -6.860  13.592  -3.749  0.00  0.00    +0.000 A 
ATOM      8  C   UNL     1      -7.423  13.331  -2.489  0.00  0.00    +0.000 A 
ENDBRANCH   1   6
BRANCH   1   9
ATOM      9  C   UNL     1      -6.060  14.241  -6.498  0.00  0.00    +0.000 C 
BRANCH   9  10
ATOM     10  C   UNL     1      -7.224  14.853  -7.316  0.00  0.00    +0.000 C 
ATOM     11  C   UNL     1      -7.399  16.332  -6.994  0.00  0.00    +0.000 C 
BRANCH  10  12
ATOM     12  O   UNL     1      -6.983  14.730  -8.724  0.00  0.00    +0.000 OA
ATOM     13  H   UNL     1      -7.788  14.377  -9.138  0.00  0.00    +0.000 HD
ENDBRANCH  10  12
ENDBRANCH   9  10
ENDBRANCH   1   9
BRANCH   1  14
ATOM     14  C   UNL     1      -4.371  15.757  -5.445  0.00  0.00    +0.000 C 
BRANCH  14  15
ATOM     15  C   UNL     1      -3.207  14.759  -5.657  0.00  0.00    +0.000 C 
ATOM     16  C   UNL     1      -1.929  15.426  -6.153  0.00  0.00    +0.000 C 
BRANCH  15  17
ATOM     17  O   UNL     1      -2.898  14.047  -4.460  0.00  0.00    +0.000 OA
ATOM     18  H   UNL     1      -3.680  13.484  -4.292  0.00  0.00    +0.000 HD
ENDBRANCH  15  17
ENDBRANCH  14  15
ENDBRANCH   1  14
TORSDOF 7
ENDMDL
MODEL 6
REMARK VINA RESULT:    -4.693      1.536      3.454
REMARK INTER + INTRA:          -6.994
REMARK INTER:                  -6.591
REMARK INTRA:                  -0.403
REMARK UNBOUND:                -0.655
REMARK  Name = 
REMARK  10 active torsions:
REMARK  status: ('A' for Active; 'I' for Inactive)
REMARK    1  A    between atoms: C_1  and  C_2
REMARK    2  A    between atoms: C_5  and  N_8
REMARK    3  A    between atoms: N_8  and  C_9
REMARK    4  A    between atoms: N_8  and  C_13
REMARK    5  A    between atoms: C_9  and  C_10
REMARK    6  A    between atoms: C_10  and  C_11
REMARK    7  A    between atoms: C_10  and  O_12
REMARK    8  A    between atoms: C_13  and  C_14
REMARK    9  A    between atoms: C_14  and  C_15
REMARK   10  A    between atoms: C_14  and  O_16
REMARK                            x       y       z     vdW  Elec       q    Type
REMARK                         _______ _______ _______ _____ _____    ______ ____
ROOT
ATOM      1  N   UNL     1      -5.426  14.841  -5.479  0.00  0.00    +0.000 N 
ENDROOT
BRANCH   1   6
ATOM      2  C   UNL     1      -0.398  17.265  -6.951  0.00  0.00    +0.000 C 
ATOM      3  C   UNL     1      -1.699  16.644  -6.546  0.00  0.00    +0.000 A 
ATOM      4  C   UNL     1      -1.761  15.313  -6.145  0.00  0.00    +0.000 A 
ATOM      5  C   UNL     1      -2.989  14.727  -5.795  0.00  0.00    +0.000 A 
ATOM      6  C   UNL     1      -4.208  15.426  -5.848  0.00  0.00    +0.000 A 
ATOM      7  C   UNL     1      -4.108  16.769  -6.255  0.00  0.00    +0.000 A 
ATOM      8  C   UNL     1      -2.886  17.368  -6.606  0.00  0.00    +0.000 A 
ENDBRANCH   1   6
BRANCH   1   9
ATOM      9  C   UNL     1      -5.768  14.679  -4.045  0.00  0.00    +0.000 C 
BRANCH   9  10
ATOM     10  C   UNL     1      -6.316  15.979  -3.408  0.00  0.00    +0.000 C 
ATOM     11  C   UNL     1      -7.651  15.728  -2.718  0.00  0.00    +0.000 C 
BRANCH  10  12
ATOM     12  O   UNL     1      -5.402  16.499  -2.432  0.00  0.00    +0.000 OA
ATOM     13  H   UNL     1      -5.875  17.158  -1.897  0.00  0.00    +0.000 HD
ENDBRANCH  10  12
ENDBRANCH   9  10
ENDBRANCH   1   9
BRANCH   1  14
ATOM     14  C   UNL     1      -6.153  13.931  -6.401  0.00  0.00    +0.000 C 
BRANCH  14  15
ATOM     15  C   UNL     1      -7.161  14.691  -7.297  0.00  0.00    +0.000 C 
ATOM     16  C   UNL     1      -7.569  16.044  -6.727  0.00  0.00    +0.000 C 
BRANCH  15  17
ATOM     17  O   UNL     1      -6.643  14.902  -8.610  0.00  0.00    +0.000 OA
ATOM     18  H   UNL     1      -6.370  14.016  -8.920  0.00  0.00    +0.000 HD
ENDBRANCH  15  17
ENDBRANCH  14  15
ENDBRANCH   1  14
TORSDOF 7
ENDMDL
MODEL 7
REMARK VINA RESULT:    -4.568      1.827      5.415
REMARK INTER + INTRA:          -6.824
REMARK INTER:                  -6.251
REMARK INTRA:                  -0.573
REMARK UNBOUND:                -0.655
REMARK  Name = 
REMARK  10 active torsions:
REMARK  status: ('A' for Active; 'I' for Inactive)
REMARK    1  A    between atoms: C_1  and  C_2
REMARK    2  A    between atoms: C_5  and  N_8
REMARK    3  A    between atoms: N_8  and  C_9
REMARK    4  A    between atoms: N_8  and  C_13
REMARK    5  A    between atoms: C_9  and  C_10
REMARK    6  A    between atoms: C_10  and  C_11
REMARK    7  A    between atoms: C_10  and  O_12
REMARK    8  A    between atoms: C_13  and  C_14
REMARK    9  A    between atoms: C_14  and  C_15
REMARK   10  A    between atoms: C_14  and  O_16
REMARK                            x       y       z     vdW  Elec       q    Type
REMARK                         _______ _______ _______ _____ _____    ______ ____
ROOT
ATOM      1  N   UNL     1      -6.025  15.345  -5.197  0.00  0.00    +0.000 N 
ENDROOT
BRANCH   1   6
ATOM      2  C   UNL     1      -8.708  13.220  -0.548  0.00  0.00    +0.000 C 
ATOM      3  C   UNL     1      -7.991  13.760  -1.747  0.00  0.00    +0.000 A 
ATOM      4  C   UNL     1      -7.329  14.982  -1.695  0.00  0.00    +0.000 A 
ATOM      5  C   UNL     1      -6.684  15.496  -2.831  0.00  0.00    +0.000 A 
ATOM      6  C   UNL     1      -6.687  14.835  -4.073  0.00  0.00    +0.000 A 
ATOM      7  C   UNL     1      -7.364  13.602  -4.089  0.00  0.00    +0.000 A 
ATOM      8  C   UNL     1      -8.011  13.075  -2.959  0.00  0.00    +0.000 A 
ENDBRANCH   1   6
BRANCH   1   9
ATOM      9  C   UNL     1      -4.562  15.582  -5.154  0.00  0.00    +0.000 C 
BRANCH   9  10
ATOM     10  C   UNL     1      -3.738  14.280  -5.316  0.00  0.00    +0.000 C 
ATOM     11  C   UNL     1      -3.750  13.464  -4.028  0.00  0.00    +0.000 C 
BRANCH  10  12
ATOM     12  O   UNL     1      -4.272  13.461  -6.366  0.00  0.00    +0.000 OA
ATOM     13  H   UNL     1      -4.954  13.973  -6.830  0.00  0.00    +0.000 HD
ENDBRANCH  10  12
ENDBRANCH   9  10
ENDBRANCH   1   9
BRANCH   1  14
ATOM     14  C   UNL     1      -6.753  16.125  -6.230  0.00  0.00    +0.000 C 
BRANCH  14  15
ATOM     15  C   UNL     1      -7.379  15.215  -7.315  0.00  0.00    +0.000 C 
ATOM     16  C   UNL     1      -7.386  15.852  -8.700  0.00  0.00    +0.000 C 
BRANCH  15  17
ATOM     17  O   UNL     1      -6.701  13.963  -7.408  0.00  0.00    +0.000 OA
ATOM     18  H   UNL     1      -7.298  13.391  -7.932  0.00  0.00    +0.000 HD
ENDBRANCH  15  17
ENDBRANCH  14  15
ENDBRANCH   1  14
TORSDOF 7
ENDMDL
MODEL 8
REMARK VINA RESULT:    -4.537      2.908      5.378
REMARK INTER + INTRA:          -6.782
REMARK INTER:                  -6.207
REMARK INTRA:                  -0.575
REMARK UNBOUND:                -0.655
REMARK  Name = 
REMARK  10 active torsions:
REMARK  status: ('A' for Active; 'I' for Inactive)
REMARK    1  A    between atoms: C_1  and  C_2
REMARK    2  A    between atoms: C_5  and  N_8
REMARK    3  A    between atoms: N_8  and  C_9
REMARK    4  A    between atoms: N_8  and  C_13
REMARK    5  A    between atoms: C_9  and  C_10
REMARK    6  A    between atoms: C_10  and  C_11
REMARK    7  A    between atoms: C_10  and  O_12
REMARK    8  A    between atoms: C_13  and  C_14
REMARK    9  A    between atoms: C_14  and  C_15
REMARK   10  A    between atoms: C_14  and  O_16
REMARK                            x       y       z     vdW  Elec       q    Type
REMARK                         _______ _______ _______ _____ _____    ______ ____
ROOT
ATOM      1  N   UNL     1      -3.440  16.717  -6.015  0.00  0.00    +0.000 N 
ENDROOT
BRANCH   1   6
ATOM      2  C   UNL     1      -7.281  13.116  -3.648  0.00  0.00    +0.000 C 
ATOM      3  C   UNL     1      -6.294  14.045  -4.285  0.00  0.00    +0.000 A 
ATOM      4  C   UNL     1      -5.033  13.597  -4.665  0.00  0.00    +0.000 A 
ATOM      5  C   UNL     1      -4.101  14.479  -5.234  0.00  0.00    +0.000 A 
ATOM      6  C   UNL     1      -4.367  15.846  -5.429  0.00  0.00    +0.000 A 
ATOM      7  C   UNL     1      -5.652  16.264  -5.035  0.00  0.00    +0.000 A 
ATOM      8  C   UNL     1      -6.595  15.392  -4.467  0.00  0.00    +0.000 A 
ENDBRANCH   1   6
BRANCH   1   9
ATOM      9  C   UNL     1      -3.794  18.139  -6.241  0.00  0.00    +0.000 C 
BRANCH   9  10
ATOM     10  C   UNL     1      -3.961  18.484  -7.741  0.00  0.00    +0.000 C 
ATOM     11  C   UNL     1      -5.400  18.265  -8.194  0.00  0.00    +0.000 C 
BRANCH  10  12
ATOM     12  O   UNL     1      -3.619  19.854  -7.995  0.00  0.00    +0.000 OA
ATOM     13  H   UNL     1      -2.749  20.026  -7.599  0.00  0.00    +0.000 HD
ENDBRANCH  10  12
ENDBRANCH   9  10
ENDBRANCH   1   9
BRANCH   1  14
ATOM     14  C   UNL     1      -2.338  16.204  -6.870  0.00  0.00    +0.000 C 
BRANCH  14  15
ATOM     15  C   UNL     1      -0.944  16.520  -6.278  0.00  0.00    +0.000 C 
ATOM     16  C   UNL     1      -0.235  17.667  -6.989  0.00  0.00    +0.000 C 
BRANCH  15  17
ATOM     17  O   UNL     1      -1.021  16.841  -4.890  0.00  0.00    +0.000 OA
ATOM     18  H   UNL     1      -0.529  17.682  -4.798  0.00  0.00    +0.000 HD
ENDBRANCH  15  17
ENDBRANCH  14  15
ENDBRANCH   1  14
TORSDOF 7
ENDMDL
MODEL 9
REMARK VINA RESULT:    -4.446      2.591      5.597
REMARK INTER + INTRA:          -6.660
REMARK INTER:                  -6.347
REMARK INTRA:                  -0.314
REMARK UNBOUND:                -0.655
REMARK  Name = 
REMARK  10 active torsions:
REMARK  status: ('A' for Active; 'I' for Inactive)
REMARK    1  A    between atoms: C_1  and  C_2
REMARK    2  A    between atoms: C_5  and  N_8
REMARK    3  A    between atoms: N_8  and  C_9
REMARK    4  A    between atoms: N_8  and  C_13
REMARK    5  A    between atoms: C_9  and  C_10
REMARK    6  A    between atoms: C_10  and  C_11
REMARK    7  A    between atoms: C_10  and  O_12
REMARK    8  A    between atoms: C_13  and  C_14
REMARK    9  A    between atoms: C_14  and  C_15
REMARK   10  A    between atoms: C_14  and  O_16
REMARK                            x       y       z     vdW  Elec       q    Type
REMARK                         _______ _______ _______ _____ _____    ______ ____
ROOT
ATOM      1  N   UNL     1      -4.480  16.853  -6.136  0.00  0.00    +0.000 N 
ENDROOT
BRANCH   1   6
ATOM      2  C   UNL     1      -7.927  12.861  -3.789  0.00  0.00    +0.000 C 
ATOM      3  C   UNL     1      -7.013  13.882  -4.393  0.00  0.00    +0.000 A 
ATOM      4  C   UNL     1      -6.474  14.905  -3.621  0.00  0.00    +0.000 A 
ATOM      5  C   UNL     1      -5.641  15.877  -4.199  0.00  0.00    +0.000 A 
ATOM      6  C   UNL     1      -5.327  15.892  -5.570  0.00  0.00    +0.000 A 
ATOM      7  C   UNL     1      -5.887  14.842  -6.320  0.00  0.00    +0.000 A 
ATOM      8  C   UNL     1      -6.719  13.862  -5.754  0.00  0.00    +0.000 A 
ENDBRANCH   1   6
BRANCH   1   9
ATOM      9  C   UNL     1      -3.040  16.877  -5.782  0.00  0.00    +0.000 C 
BRANCH   9  10
ATOM     10  C   UNL     1      -2.313  15.558  -6.139  0.00  0.00    +0.000 C 
ATOM     11  C   UNL     1      -0.831  15.804  -6.395  0.00  0.00    +0.000 C 
BRANCH  10  12
ATOM     12  O   UNL     1      -2.427  14.603  -5.075  0.00  0.00    +0.000 OA
ATOM     13  H   UNL     1      -3.340  14.271  -5.065  0.00  0.00    +0.000 HD
ENDBRANCH  10  12
ENDBRANCH   9  10
ENDBRANCH   1   9
BRANCH   1  14
ATOM     14  C   UNL     1      -5.016  18.135  -6.661  0.00  0.00    +0.000 C 
BRANCH  14  15
ATOM     15  C   UNL     1      -4.342  18.549  -7.991  0.00  0.00    +0.000 C 
ATOM     16  C   UNL     1      -5.325  18.663  -9.151  0.00  0.00    +0.000 C 
BRANCH  15  17
ATOM     17  O   UNL     1      -3.655  19.794  -7.870  0.00  0.00    +0.000 OA
ATOM     18  H   UNL     1      -4.308  20.470  -8.142  0.00  0.00    +0.000 HD
ENDBRANCH  15  17
ENDBRANCH  14  15
ENDBRANCH   1  14
TORSDOF 7
ENDMDL
