MODEL 1
REMARK VINA RESULT:    -4.091      0.000      0.000
REMARK INTER + INTRA:          -4.489
REMARK INTER:                  -4.450
REMARK INTRA:                  -0.039
REMARK UNBOUND:                -0.039
REMARK  Name = 
REMARK  3 active torsions:
REMARK  status: ('A' for Active; 'I' for Inactive)
REMARK    1  A    between atoms: C_1  and  O_2
REMARK    2  A    between atoms: O_2  and  C_3
REMARK    3  A    between atoms: C_8  and  O_9
REMARK                            x       y       z     vdW  Elec       q    Type
REMARK                         _______ _______ _______ _____ _____    ______ ____
ROOT
ATOM      1  C   UNL     1      -2.579  17.510  -6.928  0.00  0.00    +0.000 A 
ATOM      2  C   UNL     1      -3.175  16.467  -6.220  0.00  0.00    +0.000 A 
ATOM      3  C   UNL     1      -2.409  15.363  -5.824  0.00  0.00    +0.000 A 
ATOM      4  C   UNL     1      -1.049  15.297  -6.133  0.00  0.00    +0.000 A 
ATOM      5  C   UNL     1      -0.447  16.335  -6.840  0.00  0.00    +0.000 A 
ATOM      6  C   UNL     1      -1.214  17.426  -7.229  0.00  0.00    +0.000 A 
ENDROOT
BRANCH   1   8
ATOM      7  C   UNL     1      -4.622  18.599  -7.461  0.00  0.00    +0.000 C 
ATOM      8  O   UNL     1      -3.203  18.645  -7.377  0.00  0.00    +0.000 OA
ENDBRANCH   1   8
BRANCH   6   9
ATOM      9  O   UNL     1      -0.599  18.434  -7.922  0.00  0.00    +0.000 OA
ATOM     10  H   UNL     1      -1.280  18.761  -8.541  0.00  0.00    +0.000 HD
ENDBRANCH   6   9
TORSDOF 2
ENDMDL
MODEL 2
REMARK VINA RESULT:    -4.048      2.132      2.817
REMARK INTER + INTRA:          -4.442
REMARK INTER:                  -4.391
REMARK INTRA:                  -0.051
REMARK UNBOUND:                -0.039
REMARK  Name = 
REMARK  3 active torsions:
REMARK  status: ('A' for Active; 'I' for Inactive)
REMARK    1  A    between atoms: C_1  and  O_2
REMARK    2  A    between atoms: O_2  and  C_3
REMARK    3  A    between atoms: C_8  and  O_9
REMARK                            x       y       z     vdW  Elec       q    Type
REMARK                         _______ _______ _______ _____ _____    ______ ____
ROOT
ATOM      1  C   UNL     1      -3.239  16.473  -6.123  0.00  0.00    +0.000 A 
ATOM      2  C   UNL     1      -2.844  17.567  -6.892  0.00  0.00    +0.000 A 
ATOM      3  C   UNL     1      -1.515  17.680  -7.316  0.00  0.00    +0.000 A 
ATOM      4  C   UNL     1      -0.577  16.704  -6.974  0.00  0.00    +0.000 A 
ATOM      5  C   UNL     1      -0.963  15.608  -6.206  0.00  0.00    +0.000 A 
ATOM      6  C   UNL     1      -2.284  15.504  -5.789  0.00  0.00    +0.000 A 
ENDROOT
BRANCH   1   8
ATOM      7  C   UNL     1      -5.489  15.875  -6.597  0.00  0.00    +0.000 C 
ATOM      8  O   UNL     1      -4.501  16.234  -5.639  0.00  0.00    +0.000 OA
ENDBRANCH   1   8
BRANCH   6   9
ATOM      9  O   UNL     1      -2.641  14.418  -5.035  0.00  0.00    +0.000 OA
ATOM     10  H   UNL     1      -2.745  14.768  -4.130  0.00  0.00    +0.000 HD
ENDBRANCH   6   9
TORSDOF 2
ENDMDL
MODEL 3
REMARK VINA RESULT:    -4.006      3.710      5.066
REMARK INTER + INTRA:          -4.396
REMARK INTER:                  -4.356
REMARK INTRA:                  -0.040
REMARK UNBOUND:                -0.039
REMARK  Name = 
REMARK  3 active torsions:
REMARK  status: ('A' for Active; 'I' for Inactive)
REMARK    1  A    between atoms: C_1  and  O_2
REMARK    2  A    between atoms: O_2  and  C_3
REMARK    3  A    between atoms: C_8  and  O_9
REMARK                            x       y       z     vdW  Elec       q    Type
REMARK                         _______ _______ _______ _____ _____    ______ ____
ROOT
ATOM      1  C   UNL     1      -3.884  14.649  -5.573  0.00  0.00    +0.000 A 
ATOM      2  C   UNL     1      -4.643  15.494  -6.381  0.00  0.00    +0.000 A 
ATOM      3  C   UNL     1      -6.029  15.315  -6.473  0.00  0.00    +0.000 A 
ATOM      4  C   UNL     1      -6.659  14.293  -5.760  0.00  0.00    +0.000 A 
ATOM      5  C   UNL     1      -5.908  13.445  -4.950  0.00  0.00    +0.000 A 
ATOM      6  C   UNL     1      -4.533  13.630  -4.865  0.00  0.00    +0.000 A 
ENDROOT
BRANCH   1   8
ATOM      7  C   UNL     1      -1.767  15.288  -6.443  0.00  0.00    +0.000 C 
ATOM      8  O   UNL     1      -2.525  14.707  -5.389  0.00  0.00    +0.000 OA
ENDBRANCH   1   8
BRANCH   6   9
ATOM      9  O   UNL     1      -3.816  12.784  -4.063  0.00  0.00    +0.000 OA
ATOM     10  H   UNL     1      -3.816  11.931  -4.538  0.00  0.00    +0.000 HD
ENDBRANCH   6   9
TORSDOF 2
ENDMDL
MODEL 4
REMARK VINA RESULT:    -3.989     11.115     11.844
REMARK INTER + INTRA:          -4.378
REMARK INTER:                  -4.326
REMARK INTRA:                  -0.052
REMARK UNBOUND:                -0.039
REMARK  Name = 
REMARK  3 active torsions:
REMARK  status: ('A' for Active; 'I' for Inactive)
REMARK    1  A    between atoms: C_1  and  O_2
REMARK    2  A    between atoms: O_2  and  C_3
REMARK    3  A    between atoms: C_8  and  O_9
REMARK                            x       y       z     vdW  Elec       q    Type
REMARK                         _______ _______ _______ _____ _____    ______ ____
ROOT
ATOM      1  C   UNL     1       8.312  21.764  -7.971  0.00  0.00    +0.000 A 
ATOM      2  C   UNL     1       7.980  22.704  -8.945  0.00  0.00    +0.000 A 
ATOM      3  C   UNL     1       7.646  22.283 -10.239  0.00  0.00    +0.000 A 
ATOM      4  C   UNL     1       7.644  20.925 -10.562  0.00  0.00    +0.000 A 
ATOM      5  C   UNL     1       7.975  19.980  -9.594  0.00  0.00    +0.000 A 
ATOM      6  C   UNL     1       8.305  20.407  -8.314  0.00  0.00    +0.000 A 
ENDROOT
BRANCH   1   8
ATOM      7  C   UNL     1       9.793  22.867  -6.475  0.00  0.00    +0.000 C 
ATOM      8  O   UNL     1       8.658  22.032  -6.670  0.00  0.00    +0.000 OA
ENDBRANCH   1   8
BRANCH   6   9
ATOM      9  O   UNL     1       8.626  19.459  -7.379  0.00  0.00    +0.000 OA
ATOM     10  H   UNL     1       7.793  18.976  -7.218  0.00  0.00    +0.000 HD
ENDBRANCH   6   9
TORSDOF 2
ENDMDL
MODEL 5
REMARK VINA RESULT:    -3.783      1.226      1.849
REMARK INTER + INTRA:          -4.153
REMARK INTER:                  -4.110
REMARK INTRA:                  -0.043
REMARK UNBOUND:                -0.039
REMARK  Name = 
REMARK  3 active torsions:
REMARK  status: ('A' for Active; 'I' for Inactive)
REMARK    1  A    between atoms: C_1  and  O_2
REMARK    2  A    between atoms: O_2  and  C_3
REMARK    3  A    between atoms: C_8  and  O_9
REMARK                            x       y       z     vdW  Elec       q    Type
REMARK                         _______ _______ _______ _____ _____    ______ ____
ROOT
ATOM      1  C   UNL     1      -3.083  16.920  -6.509  0.00  0.00    +0.000 A 
ATOM      2  C   UNL     1      -2.384  15.825  -6.002  0.00  0.00    +0.000 A 
ATOM      3  C   UNL     1      -1.002  15.725  -6.202  0.00  0.00    +0.000 A 
ATOM      4  C   UNL     1      -0.314  16.714  -6.907  0.00  0.00    +0.000 A 
ATOM      5  C   UNL     1      -1.006  17.811  -7.417  0.00  0.00    +0.000 A 
ATOM      6  C   UNL     1      -2.377  17.902  -7.214  0.00  0.00    +0.000 A 
ENDROOT
BRANCH   1   8
ATOM      7  C   UNL     1      -5.277  16.007  -6.480  0.00  0.00    +0.000 C 
ATOM      8  O   UNL     1      -4.431  17.147  -6.391  0.00  0.00    +0.000 OA
ENDBRANCH   1   8
BRANCH   6   9
ATOM      9  O   UNL     1      -3.035  18.990  -7.724  0.00  0.00    +0.000 OA
ATOM     10  H   UNL     1      -2.998  19.658  -7.014  0.00  0.00    +0.000 HD
ENDBRANCH   6   9
TORSDOF 2
ENDMDL
MODEL 6
REMARK VINA RESULT:    -3.702     11.254     11.681
REMARK INTER + INTRA:          -4.066
REMARK INTER:                  -4.025
REMARK INTRA:                  -0.040
REMARK UNBOUND:                -0.039
REMARK  Name = 
REMARK  3 active torsions:
REMARK  status: ('A' for Active; 'I' for Inactive)
REMARK    1  A    between atoms: C_1  and  O_2
REMARK    2  A    between atoms: O_2  and  C_3
REMARK    3  A    between atoms: C_8  and  O_9
REMARK                            x       y       z     vdW  Elec       q    Type
REMARK                         _______ _______ _______ _____ _____    ______ ____
ROOT
ATOM      1  C   UNL     1       7.944  21.357  -8.896  0.00  0.00    +0.000 A 
ATOM      2  C   UNL     1       7.589  22.700  -9.019  0.00  0.00    +0.000 A 
ATOM      3  C   UNL     1       7.718  23.561  -7.923  0.00  0.00    +0.000 A 
ATOM      4  C   UNL     1       8.200  23.086  -6.702  0.00  0.00    +0.000 A 
ATOM      5  C   UNL     1       8.557  21.745  -6.571  0.00  0.00    +0.000 A 
ATOM      6  C   UNL     1       8.425  20.898  -7.664  0.00  0.00    +0.000 A 
ENDROOT
BRANCH   1   8
ATOM      7  C   UNL     1       7.985  20.868 -11.221  0.00  0.00    +0.000 C 
ATOM      8  O   UNL     1       7.869  20.405  -9.881  0.00  0.00    +0.000 OA
ENDBRANCH   1   8
BRANCH   6   9
ATOM      9  O   UNL     1       8.782  19.585  -7.511  0.00  0.00    +0.000 OA
ATOM     10  H   UNL     1       9.678  19.525  -7.896  0.00  0.00    +0.000 HD
ENDBRANCH   6   9
TORSDOF 2
ENDMDL
MODEL 7
REMARK VINA RESULT:    -3.700      1.836      2.955
REMARK INTER + INTRA:          -4.063
REMARK INTER:                  -4.015
REMARK INTRA:                  -0.048
REMARK UNBOUND:                -0.039
REMARK  Name = 
REMARK  3 active torsions:
REMARK  status: ('A' for Active; 'I' for Inactive)
REMARK    1  A    between atoms: C_1  and  O_2
REMARK    2  A    between atoms: O_2  and  C_3
REMARK    3  A    between atoms: C_8  and  O_9
REMARK                            x       y       z     vdW  Elec       q    Type
REMARK                         _______ _______ _______ _____ _____    ______ ____
ROOT
ATOM      1  C   UNL     1      -2.314  16.743  -6.384  0.00  0.00    +0.000 A 
ATOM      2  C   UNL     1      -3.581  17.324  -6.407  0.00  0.00    +0.000 A 
ATOM      3  C   UNL     1      -4.717  16.537  -6.176  0.00  0.00    +0.000 A 
ATOM      4  C   UNL     1      -4.590  15.170  -5.923  0.00  0.00    +0.000 A 
ATOM      5  C   UNL     1      -3.328  14.582  -5.898  0.00  0.00    +0.000 A 
ATOM      6  C   UNL     1      -2.207  15.370  -6.129  0.00  0.00    +0.000 A 
ENDROOT
BRANCH   1   8
ATOM      7  C   UNL     1      -0.842  17.788  -7.929  0.00  0.00    +0.000 C 
ATOM      8  O   UNL     1      -1.122  17.388  -6.593  0.00  0.00    +0.000 OA
ENDBRANCH   1   8
BRANCH   6   9
ATOM      9  O   UNL     1      -0.977  14.769  -6.099  0.00  0.00    +0.000 OA
ATOM     10  H   UNL     1      -0.414  15.330  -6.667  0.00  0.00    +0.000 HD
ENDBRANCH   6   9
TORSDOF 2
ENDMDL
MODEL 8
REMARK VINA RESULT:    -3.630      4.654      5.635
REMARK INTER + INTRA:          -3.987
REMARK INTER:                  -3.950
REMARK INTRA:                  -0.038
REMARK UNBOUND:                -0.039
REMARK  Name = 
REMARK  3 active torsions:
REMARK  status: ('A' for Active; 'I' for Inactive)
REMARK    1  A    between atoms: C_1  and  O_2
REMARK    2  A    between atoms: O_2  and  C_3
REMARK    3  A    between atoms: C_8  and  O_9
REMARK                            x       y       z     vdW  Elec       q    Type
REMARK                         _______ _______ _______ _____ _____    ______ ____
ROOT
ATOM      1  C   UNL     1      -5.632  14.073  -3.998  0.00  0.00    +0.000 A 
ATOM      2  C   UNL     1      -6.243  15.081  -4.744  0.00  0.00    +0.000 A 
ATOM      3  C   UNL     1      -5.594  15.613  -5.865  0.00  0.00    +0.000 A 
ATOM      4  C   UNL     1      -4.335  15.142  -6.244  0.00  0.00    +0.000 A 
ATOM      5  C   UNL     1      -3.719  14.135  -5.505  0.00  0.00    +0.000 A 
ATOM      6  C   UNL     1      -4.370  13.613  -4.394  0.00  0.00    +0.000 A 
ENDROOT
BRANCH   1   8
ATOM      7  C   UNL     1      -7.304  14.064  -2.309  0.00  0.00    +0.000 C 
ATOM      8  O   UNL     1      -6.148  13.464  -2.883  0.00  0.00    +0.000 OA
ENDBRANCH   1   8
BRANCH   6   9
ATOM      9  O   UNL     1      -3.745  12.625  -3.683  0.00  0.00    +0.000 OA
ATOM     10  H   UNL     1      -4.460  12.186  -3.184  0.00  0.00    +0.000 HD
ENDBRANCH   6   9
TORSDOF 2
ENDMDL
MODEL 9
REMARK VINA RESULT:    -3.592      5.899      7.256
REMARK INTER + INTRA:          -3.946
REMARK INTER:                  -3.906
REMARK INTRA:                  -0.040
REMARK UNBOUND:                -0.039
REMARK  Name = 
REMARK  3 active torsions:
REMARK  status: ('A' for Active; 'I' for Inactive)
REMARK    1  A    between atoms: C_1  and  O_2
REMARK    2  A    between atoms: O_2  and  C_3
REMARK    3  A    between atoms: C_8  and  O_9
REMARK                            x       y       z     vdW  Elec       q    Type
REMARK                         _______ _______ _______ _____ _____    ______ ____
ROOT
ATOM      1  C   UNL     1      -6.260  14.343  -3.457  0.00  0.00    +0.000 A 
ATOM      2  C   UNL     1      -5.880  15.684  -3.438  0.00  0.00    +0.000 A 
ATOM      3  C   UNL     1      -6.228  16.495  -2.350  0.00  0.00    +0.000 A 
ATOM      4  C   UNL     1      -6.956  15.970  -1.280  0.00  0.00    +0.000 A 
ATOM      5  C   UNL     1      -7.339  14.630  -1.292  0.00  0.00    +0.000 A 
ATOM      6  C   UNL     1      -6.989  13.834  -2.375  0.00  0.00    +0.000 A 
ENDROOT
BRANCH   1   8
ATOM      7  C   UNL     1      -4.810  13.664  -5.213  0.00  0.00    +0.000 C 
ATOM      8  O   UNL     1      -5.990  13.437  -4.452  0.00  0.00    +0.000 OA
ENDBRANCH   1   8
BRANCH   6   9
ATOM      9  O   UNL     1      -7.377  12.521  -2.364  0.00  0.00    +0.000 OA
ATOM     10  H   UNL     1      -8.346  12.547  -2.479  0.00  0.00    +0.000 HD
ENDBRANCH   6   9
TORSDOF 2
ENDMDL
