MODEL 1
REMARK VINA RESULT:    -3.779      0.000      0.000
REMARK INTER + INTRA:          -5.077
REMARK INTER:                  -5.105
REMARK INTRA:                   0.028
REMARK UNBOUND:                 0.028
REMARK  Name = 
REMARK  10 active torsions:
REMARK  status: ('A' for Active; 'I' for Inactive)
REMARK    1  A    between atoms: C_1  and  C_2
REMARK    2  A    between atoms: C_5  and  N_8
REMARK    3  A    between atoms: N_8  and  C_9
REMARK    4  A    between atoms: N_8  and  C_13
REMARK    5  A    between atoms: C_9  and  C_10
REMARK    6  A    between atoms: C_10  and  C_11
REMARK    7  A    between atoms: C_10  and  O_12
REMARK    8  A    between atoms: C_13  and  C_14
REMARK    9  A    between atoms: C_14  and  C_15
REMARK   10  A    between atoms: C_14  and  O_16
REMARK                            x       y       z     vdW  Elec       q    Type
REMARK                         _______ _______ _______ _____ _____    ______ ____
ROOT
ATOM      1  N   UNL     1       9.931  13.859  -5.172  0.00  0.00    +0.000 N 
ENDROOT
BRANCH   1   6
ATOM      2  C   UNL     1      14.771  16.040  -2.902  0.00  0.00    +0.000 C 
ATOM      3  C   UNL     1      13.527  15.453  -3.497  0.00  0.00    +0.000 A 
ATOM      4  C   UNL     1      13.178  15.711  -4.819  0.00  0.00    +0.000 A 
ATOM      5  C   UNL     1      11.996  15.183  -5.363  0.00  0.00    +0.000 A 
ATOM      6  C   UNL     1      11.099  14.398  -4.617  0.00  0.00    +0.000 A 
ATOM      7  C   UNL     1      11.484  14.156  -3.286  0.00  0.00    +0.000 A 
ATOM      8  C   UNL     1      12.665  14.676  -2.729  0.00  0.00    +0.000 A 
ENDBRANCH   1   6
BRANCH   1   9
ATOM      9  C   UNL     1       9.023  14.716  -5.971  0.00  0.00    +0.000 C 
BRANCH   9  10
ATOM     10  C   UNL     1       8.398  15.865  -5.142  0.00  0.00    +0.000 C 
ATOM     11  C   UNL     1       6.954  16.116  -5.561  0.00  0.00    +0.000 C 
BRANCH  10  12
ATOM     12  O   UNL     1       8.407  15.554  -3.742  0.00  0.00    +0.000 OA
ATOM     13  H   UNL     1       9.151  14.951  -3.573  0.00  0.00    +0.000 HD
ENDBRANCH  10  12
ENDBRANCH   9  10
ENDBRANCH   1   9
BRANCH   1  14
ATOM     14  C   UNL     1       9.299  12.643  -4.599  0.00  0.00    +0.000 C 
BRANCH  14  15
ATOM     15  C   UNL     1       7.825  12.485  -5.046  0.00  0.00    +0.000 C 
ATOM     16  C   UNL     1       7.597  11.274  -5.943  0.00  0.00    +0.000 C 
BRANCH  15  17
ATOM     17  O   UNL     1       6.944  12.381  -3.929  0.00  0.00    +0.000 OA
ATOM     18  H   UNL     1       7.486  11.987  -3.216  0.00  0.00    +0.000 HD
ENDBRANCH  15  17
ENDBRANCH  14  15
ENDBRANCH   1  14
TORSDOF 7
ENDMDL
