MODEL 1
REMARK VINA RESULT:    -3.428      0.000      0.000
REMARK INTER + INTRA:          -4.934
REMARK INTER:                  -4.631
REMARK INTRA:                  -0.304
REMARK UNBOUND:                -0.304
REMARK  Name = 
REMARK  10 active torsions:
REMARK  status: ('A' for Active; 'I' for Inactive)
REMARK    1  A    between atoms: C_1  and  C_2
REMARK    2  A    between atoms: C_5  and  N_8
REMARK    3  A    between atoms: N_8  and  C_9
REMARK    4  A    between atoms: N_8  and  C_13
REMARK    5  A    between atoms: C_9  and  C_10
REMARK    6  A    between atoms: C_10  and  C_11
REMARK    7  A    between atoms: C_10  and  O_12
REMARK    8  A    between atoms: C_13  and  C_14
REMARK    9  A    between atoms: C_14  and  C_15
REMARK   10  A    between atoms: C_14  and  O_16
REMARK                            x       y       z     vdW  Elec       q    Type
REMARK                         _______ _______ _______ _____ _____    ______ ____
ROOT
ATOM      1  N   UNL     1       9.660  14.143  -4.977  0.00  0.00    +0.000 N 
ENDROOT
BRANCH   1   6
ATOM      2  C   UNL     1      14.873  15.822  -3.151  0.00  0.00    +0.000 C 
ATOM      3  C   UNL     1      13.509  15.402  -3.608  0.00  0.00    +0.000 A 
ATOM      4  C   UNL     1      12.884  14.288  -3.058  0.00  0.00    +0.000 A 
ATOM      5  C   UNL     1      11.619  13.880  -3.512  0.00  0.00    +0.000 A 
ATOM      6  C   UNL     1      10.930  14.544  -4.543  0.00  0.00    +0.000 A 
ATOM      7  C   UNL     1      11.591  15.666  -5.074  0.00  0.00    +0.000 A 
ATOM      8  C   UNL     1      12.855  16.086  -4.629  0.00  0.00    +0.000 A 
ENDBRANCH   1   6
BRANCH   1   9
ATOM      9  C   UNL     1       9.256  12.720  -4.883  0.00  0.00    +0.000 C 
BRANCH   9  10
ATOM     10  C   UNL     1       7.759  12.497  -5.207  0.00  0.00    +0.000 C 
ATOM     11  C   UNL     1       7.537  11.133  -5.850  0.00  0.00    +0.000 C 
BRANCH  10  12
ATOM     12  O   UNL     1       6.960  12.564  -4.018  0.00  0.00    +0.000 OA
ATOM     13  H   UNL     1       7.175  11.793  -3.467  0.00  0.00    +0.000 HD
ENDBRANCH  10  12
ENDBRANCH   9  10
ENDBRANCH   1   9
BRANCH   1  14
ATOM     14  C   UNL     1       8.899  14.943  -5.971  0.00  0.00    +0.000 C 
BRANCH  14  15
ATOM     15  C   UNL     1       8.131  16.115  -5.314  0.00  0.00    +0.000 C 
ATOM     16  C   UNL     1       6.643  16.115  -5.641  0.00  0.00    +0.000 C 
BRANCH  15  17
ATOM     17  O   UNL     1       8.271  16.107  -3.894  0.00  0.00    +0.000 OA
ATOM     18  H   UNL     1       9.141  16.522  -3.723  0.00  0.00    +0.000 HD
ENDBRANCH  15  17
ENDBRANCH  14  15
ENDBRANCH   1  14
TORSDOF 7
ENDMDL
MODEL 2
REMARK VINA RESULT:    -3.376      0.340      2.903
REMARK INTER + INTRA:          -4.864
REMARK INTER:                  -4.861
REMARK INTRA:                  -0.003
REMARK UNBOUND:                -0.304
REMARK  Name = 
REMARK  10 active torsions:
REMARK  status: ('A' for Active; 'I' for Inactive)
REMARK    1  A    between atoms: C_1  and  C_2
REMARK    2  A    between atoms: C_5  and  N_8
REMARK    3  A    between atoms: N_8  and  C_9
REMARK    4  A    between atoms: N_8  and  C_13
REMARK    5  A    between atoms: C_9  and  C_10
REMARK    6  A    between atoms: C_10  and  C_11
REMARK    7  A    between atoms: C_10  and  O_12
REMARK    8  A    between atoms: C_13  and  C_14
REMARK    9  A    between atoms: C_14  and  C_15
REMARK   10  A    between atoms: C_14  and  O_16
REMARK                            x       y       z     vdW  Elec       q    Type
REMARK                         _______ _______ _______ _____ _____    ______ ____
ROOT
ATOM      1  N   UNL     1       9.893  13.991  -5.120  0.00  0.00    +0.000 N 
ENDROOT
BRANCH   1   6
ATOM      2  C   UNL     1      14.754  16.113  -2.840  0.00  0.00    +0.000 C 
ATOM      3  C   UNL     1      13.505  15.543  -3.440  0.00  0.00    +0.000 A 
ATOM      4  C   UNL     1      13.102  15.900  -4.723  0.00  0.00    +0.000 A 
ATOM      5  C   UNL     1      11.915  15.385  -5.269  0.00  0.00    +0.000 A 
ATOM      6  C   UNL     1      11.066  14.516  -4.562  0.00  0.00    +0.000 A 
ATOM      7  C   UNL     1      11.505  14.175  -3.270  0.00  0.00    +0.000 A 
ATOM      8  C   UNL     1      12.691  14.681  -2.712  0.00  0.00    +0.000 A 
ENDBRANCH   1   6
BRANCH   1   9
ATOM      9  C   UNL     1       9.023  14.847  -5.963  0.00  0.00    +0.000 C 
BRANCH   9  10
ATOM     10  C   UNL     1       8.343  15.984  -5.161  0.00  0.00    +0.000 C 
ATOM     11  C   UNL     1       6.870  16.106  -5.532  0.00  0.00    +0.000 C 
BRANCH  10  12
ATOM     12  O   UNL     1       8.427  15.741  -3.750  0.00  0.00    +0.000 OA
ATOM     13  H   UNL     1       7.541  15.861  -3.371  0.00  0.00    +0.000 HD
ENDBRANCH  10  12
ENDBRANCH   9  10
ENDBRANCH   1   9
BRANCH   1  14
ATOM     14  C   UNL     1       9.217  12.812  -4.522  0.00  0.00    +0.000 C 
BRANCH  14  15
ATOM     15  C   UNL     1       7.783  12.619  -5.072  0.00  0.00    +0.000 C 
ATOM     16  C   UNL     1       7.545  11.228  -5.649  0.00  0.00    +0.000 C 
BRANCH  15  17
ATOM     17  O   UNL     1       6.797  12.856  -4.068  0.00  0.00    +0.000 OA
ATOM     18  H   UNL     1       6.754  13.829  -3.981  0.00  0.00    +0.000 HD
ENDBRANCH  15  17
ENDBRANCH  14  15
ENDBRANCH   1  14
TORSDOF 7
ENDMDL
MODEL 3
REMARK VINA RESULT:    -3.163      1.790      2.237
REMARK INTER + INTRA:          -4.576
REMARK INTER:                  -4.288
REMARK INTRA:                  -0.289
REMARK UNBOUND:                -0.304
REMARK  Name = 
REMARK  10 active torsions:
REMARK  status: ('A' for Active; 'I' for Inactive)
REMARK    1  A    between atoms: C_1  and  C_2
REMARK    2  A    between atoms: C_5  and  N_8
REMARK    3  A    between atoms: N_8  and  C_9
REMARK    4  A    between atoms: N_8  and  C_13
REMARK    5  A    between atoms: C_9  and  C_10
REMARK    6  A    between atoms: C_10  and  C_11
REMARK    7  A    between atoms: C_10  and  O_12
REMARK    8  A    between atoms: C_13  and  C_14
REMARK    9  A    between atoms: C_14  and  C_15
REMARK   10  A    between atoms: C_14  and  O_16
REMARK                            x       y       z     vdW  Elec       q    Type
REMARK                         _______ _______ _______ _____ _____    ______ ____
ROOT
ATOM      1  N   UNL     1      11.099  14.899  -4.596  0.00  0.00    +0.000 N 
ENDROOT
BRANCH   1   6
ATOM      2  C   UNL     1      15.104  15.873  -0.554  0.00  0.00    +0.000 C 
ATOM      3  C   UNL     1      14.057  15.599  -1.591  0.00  0.00    +0.000 A 
ATOM      4  C   UNL     1      14.358  14.865  -2.733  0.00  0.00    +0.000 A 
ATOM      5  C   UNL     1      13.381  14.637  -3.716  0.00  0.00    +0.000 A 
ATOM      6  C   UNL     1      12.073  15.146  -3.622  0.00  0.00    +0.000 A 
ATOM      7  C   UNL     1      11.804  15.882  -2.453  0.00  0.00    +0.000 A 
ATOM      8  C   UNL     1      12.771  16.115  -1.461  0.00  0.00    +0.000 A 
ENDBRANCH   1   6
BRANCH   1   9
ATOM      9  C   UNL     1      11.071  13.597  -5.307  0.00  0.00    +0.000 C 
BRANCH   9  10
ATOM     10  C   UNL     1      10.237  12.525  -4.563  0.00  0.00    +0.000 C 
ATOM     11  C   UNL     1       9.134  11.974  -5.460  0.00  0.00    +0.000 C 
BRANCH  10  12
ATOM     12  O   UNL     1      11.061  11.428  -4.147  0.00  0.00    +0.000 OA
ATOM     13  H   UNL     1      11.238  11.528  -3.196  0.00  0.00    +0.000 HD
ENDBRANCH  10  12
ENDBRANCH   9  10
ENDBRANCH   1   9
BRANCH   1  14
ATOM     14  C   UNL     1      10.424  16.013  -5.310  0.00  0.00    +0.000 C 
BRANCH  14  15
ATOM     15  C   UNL     1       8.923  16.116  -4.947  0.00  0.00    +0.000 C 
ATOM     16  C   UNL     1       8.042  15.188  -5.775  0.00  0.00    +0.000 C 
BRANCH  15  17
ATOM     17  O   UNL     1       8.693  15.829  -3.569  0.00  0.00    +0.000 OA
ATOM     18  H   UNL     1       7.786  16.152  -3.391  0.00  0.00    +0.000 HD
ENDBRANCH  15  17
ENDBRANCH  14  15
ENDBRANCH   1  14
TORSDOF 7
ENDMDL
MODEL 4
REMARK VINA RESULT:    -0.835      1.783      2.343
REMARK INTER + INTRA:          -1.431
REMARK INTER:                  -2.745
REMARK INTRA:                   1.314
REMARK UNBOUND:                -0.304
REMARK  Name = 
REMARK  10 active torsions:
REMARK  status: ('A' for Active; 'I' for Inactive)
REMARK    1  A    between atoms: C_1  and  C_2
REMARK    2  A    between atoms: C_5  and  N_8
REMARK    3  A    between atoms: N_8  and  C_9
REMARK    4  A    between atoms: N_8  and  C_13
REMARK    5  A    between atoms: C_9  and  C_10
REMARK    6  A    between atoms: C_10  and  C_11
REMARK    7  A    between atoms: C_10  and  O_12
REMARK    8  A    between atoms: C_13  and  C_14
REMARK    9  A    between atoms: C_14  and  C_15
REMARK   10  A    between atoms: C_14  and  O_16
REMARK                            x       y       z     vdW  Elec       q    Type
REMARK                         _______ _______ _______ _____ _____    ______ ____
ROOT
ATOM      1  N   UNL     1       8.002  14.671  -5.290  0.00  0.00    +0.000 N 
ENDROOT
BRANCH   1   6
ATOM      2  C   UNL     1      13.473  16.107  -4.136  0.00  0.00    +0.000 C 
ATOM      3  C   UNL     1      12.057  15.712  -4.425  0.00  0.00    +0.000 A 
ATOM      4  C   UNL     1      11.711  15.136  -5.643  0.00  0.00    +0.000 A 
ATOM      5  C   UNL     1      10.377  14.795  -5.920  0.00  0.00    +0.000 A 
ATOM      6  C   UNL     1       9.327  15.031  -5.014  0.00  0.00    +0.000 A 
ATOM      7  C   UNL     1       9.714  15.613  -3.793  0.00  0.00    +0.000 A 
ATOM      8  C   UNL     1      11.045  15.957  -3.502  0.00  0.00    +0.000 A 
ENDBRANCH   1   6
BRANCH   1   9
ATOM      9  C   UNL     1       7.702  13.360  -5.915  0.00  0.00    +0.000 C 
BRANCH   9  10
ATOM     10  C   UNL     1       8.022  12.165  -4.985  0.00  0.00    +0.000 C 
ATOM     11  C   UNL     1       7.503  10.860  -5.577  0.00  0.00    +0.000 C 
BRANCH  10  12
ATOM     12  O   UNL     1       9.436  12.031  -4.786  0.00  0.00    +0.000 OA
ATOM     13  H   UNL     1       9.871  12.805  -5.181  0.00  0.00    +0.000 HD
ENDBRANCH  10  12
ENDBRANCH   9  10
ENDBRANCH   1   9
BRANCH   1  14
ATOM     14  C   UNL     1       6.945  15.701  -5.461  0.00  0.00    +0.000 C 
BRANCH  14  15
ATOM     15  C   UNL     1       5.615  15.094  -5.970  0.00  0.00    +0.000 C 
ATOM     16  C   UNL     1       5.192  13.847  -5.202  0.00  0.00    +0.000 C 
BRANCH  15  17
ATOM     17  O   UNL     1       4.546  16.037  -5.905  0.00  0.00    +0.000 OA
ATOM     18  H   UNL     1       4.361  16.274  -6.836  0.00  0.00    +0.000 HD
ENDBRANCH  15  17
ENDBRANCH  14  15
ENDBRANCH   1  14
TORSDOF 7
ENDMDL
