MODEL 1
REMARK VINA RESULT:    -3.700      0.000      0.000
REMARK INTER + INTRA:          -5.021
REMARK INTER:                  -4.998
REMARK INTRA:                  -0.023
REMARK UNBOUND:                -0.023
REMARK  Name = 
REMARK  10 active torsions:
REMARK  status: ('A' for Active; 'I' for Inactive)
REMARK    1  A    between atoms: C_1  and  C_2
REMARK    2  A    between atoms: C_5  and  N_8
REMARK    3  A    between atoms: N_8  and  C_9
REMARK    4  A    between atoms: N_8  and  C_13
REMARK    5  A    between atoms: C_9  and  C_10
REMARK    6  A    between atoms: C_10  and  C_11
REMARK    7  A    between atoms: C_10  and  O_12
REMARK    8  A    between atoms: C_13  and  C_14
REMARK    9  A    between atoms: C_14  and  C_15
REMARK   10  A    between atoms: C_14  and  O_16
REMARK                            x       y       z     vdW  Elec       q    Type
REMARK                         _______ _______ _______ _____ _____    ______ ____
ROOT
ATOM      1  N   UNL     1       9.951  13.971  -5.189  0.00  0.00    +0.000 N 
ENDROOT
BRANCH   1   6
ATOM      2  C   UNL     1      14.752  16.062  -2.761  0.00  0.00    +0.000 C 
ATOM      3  C   UNL     1      13.519  15.500  -3.400  0.00  0.00    +0.000 A 
ATOM      4  C   UNL     1      13.148  15.874  -4.687  0.00  0.00    +0.000 A 
ATOM      5  C   UNL     1      11.975  15.367  -5.270  0.00  0.00    +0.000 A 
ATOM      6  C   UNL     1      11.109  14.488  -4.595  0.00  0.00    +0.000 A 
ATOM      7  C   UNL     1      11.516  14.130  -3.297  0.00  0.00    +0.000 A 
ATOM      8  C   UNL     1      12.688  14.628  -2.703  0.00  0.00    +0.000 A 
ENDBRANCH   1   6
BRANCH   1   9
ATOM      9  C   UNL     1       9.057  14.859  -5.971  0.00  0.00    +0.000 C 
BRANCH   9  10
ATOM     10  C   UNL     1       8.381  15.947  -5.101  0.00  0.00    +0.000 C 
ATOM     11  C   UNL     1       6.914  16.114  -5.479  0.00  0.00    +0.000 C 
BRANCH  10  12
ATOM     12  O   UNL     1       8.445  15.606  -3.709  0.00  0.00    +0.000 OA
ATOM     13  H   UNL     1       8.508  14.639  -3.638  0.00  0.00    +0.000 HD
ENDBRANCH  10  12
ENDBRANCH   9  10
ENDBRANCH   1   9
BRANCH   1  14
ATOM     14  C   UNL     1       9.308  12.735  -4.674  0.00  0.00    +0.000 C 
BRANCH  14  15
ATOM     15  C   UNL     1       7.848  12.586  -5.166  0.00  0.00    +0.000 C 
ATOM     16  C   UNL     1       7.585  11.260  -5.871  0.00  0.00    +0.000 C 
BRANCH  15  17
ATOM     17  O   UNL     1       6.915  12.710  -4.094  0.00  0.00    +0.000 OA
ATOM     18  H   UNL     1       6.837  11.808  -3.722  0.00  0.00    +0.000 HD
ENDBRANCH  15  17
ENDBRANCH  14  15
ENDBRANCH   1  14
TORSDOF 7
ENDMDL
