MODEL 1
REMARK VINA RESULT:    -3.855      0.000      0.000
REMARK INTER + INTRA:          -4.232
REMARK INTER:                  -4.193
REMARK INTRA:                  -0.039
REMARK UNBOUND:                -0.039
REMARK  Name = 
REMARK  3 active torsions:
REMARK  status: ('A' for Active; 'I' for Inactive)
REMARK    1  A    between atoms: C_1  and  O_2
REMARK    2  A    between atoms: O_2  and  C_3
REMARK    3  A    between atoms: C_8  and  O_9
REMARK                            x       y       z     vdW  Elec       q    Type
REMARK                         _______ _______ _______ _____ _____    ______ ____
ROOT
ATOM      1  C   UNL     1       7.995  -4.853  11.448  0.00  0.00    +0.000 A 
ATOM      2  C   UNL     1       7.565  -6.007  10.796  0.00  0.00    +0.000 A 
ATOM      3  C   UNL     1       6.603  -5.921   9.781  0.00  0.00    +0.000 A 
ATOM      4  C   UNL     1       6.069  -4.684   9.416  0.00  0.00    +0.000 A 
ATOM      5  C   UNL     1       6.494  -3.525  10.063  0.00  0.00    +0.000 A 
ATOM      6  C   UNL     1       7.448  -3.621  11.069  0.00  0.00    +0.000 A 
ENDROOT
BRANCH   1   8
ATOM      7  C   UNL     1       9.787  -5.911  12.595  0.00  0.00    +0.000 C 
ATOM      8  O   UNL     1       8.925  -4.788  12.455  0.00  0.00    +0.000 OA
ENDBRANCH   1   8
BRANCH   6   9
ATOM      9  O   UNL     1       7.850  -2.468  11.690  0.00  0.00    +0.000 OA
ATOM     10  H   UNL     1       7.859  -2.689  12.641  0.00  0.00    +0.000 HD
ENDBRANCH   6   9
TORSDOF 2
ENDMDL
MODEL 2
REMARK VINA RESULT:    -3.695     10.240     11.630
REMARK INTER + INTRA:          -4.058
REMARK INTER:                  -4.015
REMARK INTRA:                  -0.042
REMARK UNBOUND:                -0.039
REMARK  Name = 
REMARK  3 active torsions:
REMARK  status: ('A' for Active; 'I' for Inactive)
REMARK    1  A    between atoms: C_1  and  O_2
REMARK    2  A    between atoms: O_2  and  C_3
REMARK    3  A    between atoms: C_8  and  O_9
REMARK                            x       y       z     vdW  Elec       q    Type
REMARK                         _______ _______ _______ _____ _____    ______ ____
ROOT
ATOM      1  C   UNL     1       0.952   4.772  10.573  0.00  0.00    +0.000 A 
ATOM      2  C   UNL     1       1.928   3.812  10.313  0.00  0.00    +0.000 A 
ATOM      3  C   UNL     1       1.845   2.549  10.914  0.00  0.00    +0.000 A 
ATOM      4  C   UNL     1       0.790   2.243  11.774  0.00  0.00    +0.000 A 
ATOM      5  C   UNL     1      -0.190   3.197  12.039  0.00  0.00    +0.000 A 
ATOM      6  C   UNL     1      -0.100   4.447  11.439  0.00  0.00    +0.000 A 
ENDROOT
BRANCH   1   8
ATOM      7  C   UNL     1       2.157   6.688   9.849  0.00  0.00    +0.000 C 
ATOM      8  O   UNL     1       0.906   6.043  10.058  0.00  0.00    +0.000 OA
ENDBRANCH   1   8
BRANCH   6   9
ATOM      9  O   UNL     1      -1.075   5.368  11.714  0.00  0.00    +0.000 OA
ATOM     10  H   UNL     1      -0.685   6.226  11.458  0.00  0.00    +0.000 HD
ENDBRANCH   6   9
TORSDOF 2
ENDMDL
MODEL 3
REMARK VINA RESULT:    -3.595     23.830     24.597
REMARK INTER + INTRA:          -3.949
REMARK INTER:                  -3.908
REMARK INTRA:                  -0.041
REMARK UNBOUND:                -0.039
REMARK  Name = 
REMARK  3 active torsions:
REMARK  status: ('A' for Active; 'I' for Inactive)
REMARK    1  A    between atoms: C_1  and  O_2
REMARK    2  A    between atoms: O_2  and  C_3
REMARK    3  A    between atoms: C_8  and  O_9
REMARK                            x       y       z     vdW  Elec       q    Type
REMARK                         _______ _______ _______ _____ _____    ______ ____
ROOT
ATOM      1  C   UNL     1       7.566  13.443  -5.569  0.00  0.00    +0.000 A 
ATOM      2  C   UNL     1       8.157  12.186  -5.692  0.00  0.00    +0.000 A 
ATOM      3  C   UNL     1       9.465  11.981  -5.235  0.00  0.00    +0.000 A 
ATOM      4  C   UNL     1      10.185  13.027  -4.656  0.00  0.00    +0.000 A 
ATOM      5  C   UNL     1       9.601  14.286  -4.529  0.00  0.00    +0.000 A 
ATOM      6  C   UNL     1       8.303  14.480  -4.985  0.00  0.00    +0.000 A 
ENDROOT
BRANCH   1   8
ATOM      7  C   UNL     1       5.330  12.745  -5.971  0.00  0.00    +0.000 C 
ATOM      8  O   UNL     1       6.300  13.786  -5.971  0.00  0.00    +0.000 OA
ENDBRANCH   1   8
BRANCH   6   9
ATOM      9  O   UNL     1       7.751  15.726  -4.850  0.00  0.00    +0.000 OA
ATOM     10  H   UNL     1       7.478  15.976  -5.753  0.00  0.00    +0.000 HD
ENDBRANCH   6   9
TORSDOF 2
ENDMDL
MODEL 4
REMARK VINA RESULT:    -3.524     24.060     25.413
REMARK INTER + INTRA:          -3.872
REMARK INTER:                  -3.822
REMARK INTRA:                  -0.050
REMARK UNBOUND:                -0.039
REMARK  Name = 
REMARK  3 active torsions:
REMARK  status: ('A' for Active; 'I' for Inactive)
REMARK    1  A    between atoms: C_1  and  O_2
REMARK    2  A    between atoms: O_2  and  C_3
REMARK    3  A    between atoms: C_8  and  O_9
REMARK                            x       y       z     vdW  Elec       q    Type
REMARK                         _______ _______ _______ _____ _____    ______ ____
ROOT
ATOM      1  C   UNL     1      10.672  14.517  -5.225  0.00  0.00    +0.000 A 
ATOM      2  C   UNL     1      11.369  15.469  -5.968  0.00  0.00    +0.000 A 
ATOM      3  C   UNL     1      12.663  15.844  -5.587  0.00  0.00    +0.000 A 
ATOM      4  C   UNL     1      13.264  15.271  -4.465  0.00  0.00    +0.000 A 
ATOM      5  C   UNL     1      12.575  14.319  -3.717  0.00  0.00    +0.000 A 
ATOM      6  C   UNL     1      11.291  13.953  -4.103  0.00  0.00    +0.000 A 
ENDROOT
BRANCH   1   8
ATOM      7  C   UNL     1       8.339  14.968  -5.236  0.00  0.00    +0.000 C 
ATOM      8  O   UNL     1       9.405  14.058  -5.480  0.00  0.00    +0.000 OA
ENDBRANCH   1   8
BRANCH   6   9
ATOM      9  O   UNL     1      10.633  13.016  -3.352  0.00  0.00    +0.000 OA
ATOM     10  H   UNL     1      10.119  13.533  -2.704  0.00  0.00    +0.000 HD
ENDBRANCH   6   9
TORSDOF 2
ENDMDL
MODEL 5
REMARK VINA RESULT:    -3.514     23.763     24.297
REMARK INTER + INTRA:          -3.861
REMARK INTER:                  -3.823
REMARK INTRA:                  -0.038
REMARK UNBOUND:                -0.039
REMARK  Name = 
REMARK  3 active torsions:
REMARK  status: ('A' for Active; 'I' for Inactive)
REMARK    1  A    between atoms: C_1  and  O_2
REMARK    2  A    between atoms: O_2  and  C_3
REMARK    3  A    between atoms: C_8  and  O_9
REMARK                            x       y       z     vdW  Elec       q    Type
REMARK                         _______ _______ _______ _____ _____    ______ ____
ROOT
ATOM      1  C   UNL     1      10.004  13.522  -4.472  0.00  0.00    +0.000 A 
ATOM      2  C   UNL     1      10.021  12.350  -5.226  0.00  0.00    +0.000 A 
ATOM      3  C   UNL     1       8.894  11.980  -5.971  0.00  0.00    +0.000 A 
ATOM      4  C   UNL     1       7.749  12.778  -5.965  0.00  0.00    +0.000 A 
ATOM      5  C   UNL     1       7.723  13.951  -5.214  0.00  0.00    +0.000 A 
ATOM      6  C   UNL     1       8.845  14.309  -4.478  0.00  0.00    +0.000 A 
ENDROOT
BRANCH   1   8
ATOM      7  C   UNL     1      12.109  14.621  -4.389  0.00  0.00    +0.000 C 
ATOM      8  O   UNL     1      11.029  14.005  -3.699  0.00  0.00    +0.000 OA
ENDBRANCH   1   8
BRANCH   6   9
ATOM      9  O   UNL     1       8.797  15.467  -3.748  0.00  0.00    +0.000 OA
ATOM     10  H   UNL     1       9.006  16.174  -4.388  0.00  0.00    +0.000 HD
ENDBRANCH   6   9
TORSDOF 2
ENDMDL
MODEL 6
REMARK VINA RESULT:    -3.451     23.216     24.605
REMARK INTER + INTRA:          -3.793
REMARK INTER:                  -3.754
REMARK INTRA:                  -0.039
REMARK UNBOUND:                -0.039
REMARK  Name = 
REMARK  3 active torsions:
REMARK  status: ('A' for Active; 'I' for Inactive)
REMARK    1  A    between atoms: C_1  and  O_2
REMARK    2  A    between atoms: O_2  and  C_3
REMARK    3  A    between atoms: C_8  and  O_9
REMARK                            x       y       z     vdW  Elec       q    Type
REMARK                         _______ _______ _______ _____ _____    ______ ____
ROOT
ATOM      1  C   UNL     1       8.893  13.664  -4.554  0.00  0.00    +0.000 A 
ATOM      2  C   UNL     1      10.100  13.000  -4.342  0.00  0.00    +0.000 A 
ATOM      3  C   UNL     1      11.286  13.732  -4.203  0.00  0.00    +0.000 A 
ATOM      4  C   UNL     1      11.270  15.126  -4.276  0.00  0.00    +0.000 A 
ATOM      5  C   UNL     1      10.067  15.796  -4.487  0.00  0.00    +0.000 A 
ATOM      6  C   UNL     1       8.896  15.062  -4.624  0.00  0.00    +0.000 A 
ENDROOT
BRANCH   1   8
ATOM      7  C   UNL     1       7.654  11.700  -5.058  0.00  0.00    +0.000 C 
ATOM      8  O   UNL     1       7.662  13.078  -4.708  0.00  0.00    +0.000 OA
ENDBRANCH   1   8
BRANCH   6   9
ATOM      9  O   UNL     1       7.726  15.743  -4.831  0.00  0.00    +0.000 OA
ATOM     10  H   UNL     1       7.626  16.310  -4.043  0.00  0.00    +0.000 HD
ENDBRANCH   6   9
TORSDOF 2
ENDMDL
MODEL 7
REMARK VINA RESULT:    -3.427     24.198     25.276
REMARK INTER + INTRA:          -3.767
REMARK INTER:                  -3.722
REMARK INTRA:                  -0.044
REMARK UNBOUND:                -0.039
REMARK  Name = 
REMARK  3 active torsions:
REMARK  status: ('A' for Active; 'I' for Inactive)
REMARK    1  A    between atoms: C_1  and  O_2
REMARK    2  A    between atoms: O_2  and  C_3
REMARK    3  A    between atoms: C_8  and  O_9
REMARK                            x       y       z     vdW  Elec       q    Type
REMARK                         _______ _______ _______ _____ _____    ______ ____
ROOT
ATOM      1  C   UNL     1      12.612  14.701  -4.133  0.00  0.00    +0.000 A 
ATOM      2  C   UNL     1      12.898  15.704  -5.057  0.00  0.00    +0.000 A 
ATOM      3  C   UNL     1      11.919  16.113  -5.971  0.00  0.00    +0.000 A 
ATOM      4  C   UNL     1      10.654  15.523  -5.965  0.00  0.00    +0.000 A 
ATOM      5  C   UNL     1      10.360  14.520  -5.044  0.00  0.00    +0.000 A 
ATOM      6  C   UNL     1      11.338  14.120  -4.142  0.00  0.00    +0.000 A 
ENDROOT
BRANCH   1   8
ATOM      7  C   UNL     1      14.294  15.148  -2.515  0.00  0.00    +0.000 C 
ATOM      8  O   UNL     1      13.470  14.202  -3.185  0.00  0.00    +0.000 OA
ENDBRANCH   1   8
BRANCH   6   9
ATOM      9  O   UNL     1      11.025  13.132  -3.246  0.00  0.00    +0.000 OA
ATOM     10  H   UNL     1      11.069  13.566  -2.373  0.00  0.00    +0.000 HD
ENDBRANCH   6   9
TORSDOF 2
ENDMDL
