MODEL 1
REMARK VINA RESULT:    -3.566      0.000      0.000
REMARK INTER + INTRA:          -4.865
REMARK INTER:                  -4.817
REMARK INTRA:                  -0.048
REMARK UNBOUND:                -0.048
REMARK  Name = 
REMARK  10 active torsions:
REMARK  status: ('A' for Active; 'I' for Inactive)
REMARK    1  A    between atoms: C_1  and  C_2
REMARK    2  A    between atoms: C_5  and  N_8
REMARK    3  A    between atoms: N_8  and  C_9
REMARK    4  A    between atoms: N_8  and  C_13
REMARK    5  A    between atoms: C_9  and  C_10
REMARK    6  A    between atoms: C_10  and  C_11
REMARK    7  A    between atoms: C_10  and  O_12
REMARK    8  A    between atoms: C_13  and  C_14
REMARK    9  A    between atoms: C_14  and  C_15
REMARK   10  A    between atoms: C_14  and  O_16
REMARK                            x       y       z     vdW  Elec       q    Type
REMARK                         _______ _______ _______ _____ _____    ______ ____
ROOT
ATOM      1  N   UNL     1      10.015  14.016  -5.143  0.00  0.00    +0.000 N 
ENDROOT
BRANCH   1   6
ATOM      2  C   UNL     1      14.890  16.030  -2.797  0.00  0.00    +0.000 C 
ATOM      3  C   UNL     1      13.638  15.487  -3.414  0.00  0.00    +0.000 A 
ATOM      4  C   UNL     1      13.265  15.844  -4.706  0.00  0.00    +0.000 A 
ATOM      5  C   UNL     1      12.074  15.356  -5.268  0.00  0.00    +0.000 A 
ATOM      6  C   UNL     1      11.191  14.514  -4.569  0.00  0.00    +0.000 A 
ATOM      7  C   UNL     1      11.600  14.173  -3.266  0.00  0.00    +0.000 A 
ATOM      8  C   UNL     1      12.789  14.652  -2.693  0.00  0.00    +0.000 A 
ENDBRANCH   1   6
BRANCH   1   9
ATOM      9  C   UNL     1       9.159  14.899  -5.971  0.00  0.00    +0.000 C 
BRANCH   9  10
ATOM     10  C   UNL     1       8.409  15.965  -5.135  0.00  0.00    +0.000 C 
ATOM     11  C   UNL     1       6.969  16.116  -5.609  0.00  0.00    +0.000 C 
BRANCH  10  12
ATOM     12  O   UNL     1       8.384  15.605  -3.746  0.00  0.00    +0.000 OA
ATOM     13  H   UNL     1       9.270  15.288  -3.501  0.00  0.00    +0.000 HD
ENDBRANCH  10  12
ENDBRANCH   9  10
ENDBRANCH   1   9
BRANCH   1  14
ATOM     14  C   UNL     1       9.321  12.833  -4.571  0.00  0.00    +0.000 C 
BRANCH  14  15
ATOM     15  C   UNL     1       7.962  12.563  -5.259  0.00  0.00    +0.000 C 
ATOM     16  C   UNL     1       7.770  11.105  -5.658  0.00  0.00    +0.000 C 
BRANCH  15  17
ATOM     17  O   UNL     1       6.866  12.941  -4.428  0.00  0.00    +0.000 OA
ATOM     18  H   UNL     1       6.100  12.442  -4.777  0.00  0.00    +0.000 HD
ENDBRANCH  15  17
ENDBRANCH  14  15
ENDBRANCH   1  14
TORSDOF 7
ENDMDL
MODEL 2
REMARK VINA RESULT:    -1.025      2.266      5.565
REMARK INTER + INTRA:          -1.432
REMARK INTER:                  -1.707
REMARK INTRA:                   0.275
REMARK UNBOUND:                -0.048
REMARK  Name = 
REMARK  10 active torsions:
REMARK  status: ('A' for Active; 'I' for Inactive)
REMARK    1  A    between atoms: C_1  and  C_2
REMARK    2  A    between atoms: C_5  and  N_8
REMARK    3  A    between atoms: N_8  and  C_9
REMARK    4  A    between atoms: N_8  and  C_13
REMARK    5  A    between atoms: C_9  and  C_10
REMARK    6  A    between atoms: C_10  and  C_11
REMARK    7  A    between atoms: C_10  and  O_12
REMARK    8  A    between atoms: C_13  and  C_14
REMARK    9  A    between atoms: C_14  and  C_15
REMARK   10  A    between atoms: C_14  and  O_16
REMARK                            x       y       z     vdW  Elec       q    Type
REMARK                         _______ _______ _______ _____ _____    ______ ____
ROOT
ATOM      1  N   UNL     1      10.947  15.333  -4.313  0.00  0.00    +0.000 N 
ENDROOT
BRANCH   1   6
ATOM      2  C   UNL     1       6.489  12.021  -5.891  0.00  0.00    +0.000 C 
ATOM      3  C   UNL     1       7.638  12.880  -5.458  0.00  0.00    +0.000 A 
ATOM      4  C   UNL     1       7.540  14.267  -5.477  0.00  0.00    +0.000 A 
ATOM      5  C   UNL     1       8.630  15.067  -5.099  0.00  0.00    +0.000 A 
ATOM      6  C   UNL     1       9.870  14.529  -4.708  0.00  0.00    +0.000 A 
ATOM      7  C   UNL     1       9.932  13.123  -4.698  0.00  0.00    +0.000 A 
ATOM      8  C   UNL     1       8.848  12.312  -5.072  0.00  0.00    +0.000 A 
ENDBRANCH   1   6
BRANCH   1   9
ATOM      9  C   UNL     1      10.888  16.078  -3.033  0.00  0.00    +0.000 C 
BRANCH   9  10
ATOM     10  C   UNL     1      12.064  15.737  -2.085  0.00  0.00    +0.000 C 
ATOM     11  C   UNL     1      11.732  16.115  -0.646  0.00  0.00    +0.000 C 
BRANCH  10  12
ATOM     12  O   UNL     1      12.363  14.335  -2.119  0.00  0.00    +0.000 OA
ATOM     13  H   UNL     1      12.767  14.133  -2.979  0.00  0.00    +0.000 HD
ENDBRANCH  10  12
ENDBRANCH   9  10
ENDBRANCH   1   9
BRANCH   1  14
ATOM     14  C   UNL     1      11.906  15.876  -5.309  0.00  0.00    +0.000 C 
BRANCH  14  15
ATOM     15  C   UNL     1      13.329  15.296  -5.126  0.00  0.00    +0.000 C 
ATOM     16  C   UNL     1      14.190  16.110  -4.167  0.00  0.00    +0.000 C 
BRANCH  15  17
ATOM     17  O   UNL     1      13.293  13.951  -4.653  0.00  0.00    +0.000 OA
ATOM     18  H   UNL     1      13.264  14.026  -3.678  0.00  0.00    +0.000 HD
ENDBRANCH  15  17
ENDBRANCH  14  15
ENDBRANCH   1  14
TORSDOF 7
ENDMDL
