MODEL 1
REMARK VINA RESULT:    -3.266      0.000      0.000
REMARK INTER + INTRA:          -4.870
REMARK INTER:                  -4.412
REMARK INTRA:                  -0.458
REMARK UNBOUND:                -0.458
REMARK  Name = 
REMARK  10 active torsions:
REMARK  status: ('A' for Active; 'I' for Inactive)
REMARK    1  A    between atoms: C_1  and  C_2
REMARK    2  A    between atoms: C_5  and  N_8
REMARK    3  A    between atoms: N_8  and  C_9
REMARK    4  A    between atoms: N_8  and  C_13
REMARK    5  A    between atoms: C_9  and  C_10
REMARK    6  A    between atoms: C_10  and  C_11
REMARK    7  A    between atoms: C_10  and  O_12
REMARK    8  A    between atoms: C_13  and  C_14
REMARK    9  A    between atoms: C_14  and  C_15
REMARK   10  A    between atoms: C_14  and  O_16
REMARK                            x       y       z     vdW  Elec       q    Type
REMARK                         _______ _______ _______ _____ _____    ______ ____
ROOT
ATOM      1  N   UNL     1      11.037  14.999  -4.511  0.00  0.00    +0.000 N 
ENDROOT
BRANCH   1   6
ATOM      2  C   UNL     1      15.074  16.111  -0.537  0.00  0.00    +0.000 C 
ATOM      3  C   UNL     1      14.023  15.800  -1.558  0.00  0.00    +0.000 A 
ATOM      4  C   UNL     1      14.362  15.233  -2.782  0.00  0.00    +0.000 A 
ATOM      5  C   UNL     1      13.376  14.971  -3.748  0.00  0.00    +0.000 A 
ATOM      6  C   UNL     1      12.018  15.281  -3.552  0.00  0.00    +0.000 A 
ATOM      7  C   UNL     1      11.712  15.851  -2.303  0.00  0.00    +0.000 A 
ATOM      8  C   UNL     1      12.687  16.116  -1.328  0.00  0.00    +0.000 A 
ENDBRANCH   1   6
BRANCH   1   9
ATOM      9  C   UNL     1      11.074  13.719  -5.259  0.00  0.00    +0.000 C 
BRANCH   9  10
ATOM     10  C   UNL     1      10.298  12.585  -4.545  0.00  0.00    +0.000 C 
ATOM     11  C   UNL     1       9.352  11.881  -5.511  0.00  0.00    +0.000 C 
BRANCH  10  12
ATOM     12  O   UNL     1      11.197  11.604  -4.009  0.00  0.00    +0.000 OA
ATOM     13  H   UNL     1      12.104  11.937  -4.114  0.00  0.00    +0.000 HD
ENDBRANCH  10  12
ENDBRANCH   9  10
ENDBRANCH   1   9
BRANCH   1  14
ATOM     14  C   UNL     1      10.276  16.088  -5.176  0.00  0.00    +0.000 C 
BRANCH  14  15
ATOM     15  C   UNL     1       8.792  16.116  -4.738  0.00  0.00    +0.000 C 
ATOM     16  C   UNL     1       7.827  15.782  -5.869  0.00  0.00    +0.000 C 
BRANCH  15  17
ATOM     17  O   UNL     1       8.543  15.211  -3.663  0.00  0.00    +0.000 OA
ATOM     18  H   UNL     1       8.257  15.776  -2.918  0.00  0.00    +0.000 HD
ENDBRANCH  15  17
ENDBRANCH  14  15
ENDBRANCH   1  14
TORSDOF 7
ENDMDL
MODEL 2
REMARK VINA RESULT:    -3.103      1.613      2.140
REMARK INTER + INTRA:          -4.649
REMARK INTER:                  -4.230
REMARK INTRA:                  -0.419
REMARK UNBOUND:                -0.458
REMARK  Name = 
REMARK  10 active torsions:
REMARK  status: ('A' for Active; 'I' for Inactive)
REMARK    1  A    between atoms: C_1  and  C_2
REMARK    2  A    between atoms: C_5  and  N_8
REMARK    3  A    between atoms: N_8  and  C_9
REMARK    4  A    between atoms: N_8  and  C_13
REMARK    5  A    between atoms: C_9  and  C_10
REMARK    6  A    between atoms: C_10  and  C_11
REMARK    7  A    between atoms: C_10  and  O_12
REMARK    8  A    between atoms: C_13  and  C_14
REMARK    9  A    between atoms: C_14  and  C_15
REMARK   10  A    between atoms: C_14  and  O_16
REMARK                            x       y       z     vdW  Elec       q    Type
REMARK                         _______ _______ _______ _____ _____    ______ ____
ROOT
ATOM      1  N   UNL     1       9.914  14.270  -4.879  0.00  0.00    +0.000 N 
ENDROOT
BRANCH   1   6
ATOM      2  C   UNL     1      14.956  16.088  -2.736  0.00  0.00    +0.000 C 
ATOM      3  C   UNL     1      13.638  15.639  -3.288  0.00  0.00    +0.000 A 
ATOM      4  C   UNL     1      12.679  15.058  -2.465  0.00  0.00    +0.000 A 
ATOM      5  C   UNL     1      11.457  14.611  -2.994  0.00  0.00    +0.000 A 
ATOM      6  C   UNL     1      11.142  14.699  -4.362  0.00  0.00    +0.000 A 
ATOM      7  C   UNL     1      12.134  15.294  -5.164  0.00  0.00    +0.000 A 
ATOM      8  C   UNL     1      13.359  15.747  -4.647  0.00  0.00    +0.000 A 
ENDBRANCH   1   6
BRANCH   1   9
ATOM      9  C   UNL     1       9.544  12.835  -4.822  0.00  0.00    +0.000 C 
BRANCH   9  10
ATOM     10  C   UNL     1       8.043  12.589  -5.113  0.00  0.00    +0.000 C 
ATOM     11  C   UNL     1       7.807  11.162  -5.592  0.00  0.00    +0.000 C 
BRANCH  10  12
ATOM     12  O   UNL     1       7.251  12.800  -3.936  0.00  0.00    +0.000 OA
ATOM     13  H   UNL     1       6.324  12.901  -4.211  0.00  0.00    +0.000 HD
ENDBRANCH  10  12
ENDBRANCH   9  10
ENDBRANCH   1   9
BRANCH   1  14
ATOM     14  C   UNL     1       9.197  15.058  -5.914  0.00  0.00    +0.000 C 
BRANCH  14  15
ATOM     15  C   UNL     1       8.253  16.116  -5.292  0.00  0.00    +0.000 C 
ATOM     16  C   UNL     1       6.807  15.972  -5.751  0.00  0.00    +0.000 C 
BRANCH  15  17
ATOM     17  O   UNL     1       8.271  16.066  -3.866  0.00  0.00    +0.000 OA
ATOM     18  H   UNL     1       7.341  16.204  -3.596  0.00  0.00    +0.000 HD
ENDBRANCH  15  17
ENDBRANCH  14  15
ENDBRANCH   1  14
TORSDOF 7
ENDMDL
