MODEL 1
REMARK VINA RESULT:    -3.802      0.000      0.000
REMARK INTER + INTRA:          -4.175
REMARK INTER:                  -4.136
REMARK INTRA:                  -0.039
REMARK UNBOUND:                -0.039
REMARK  Name = 
REMARK  3 active torsions:
REMARK  status: ('A' for Active; 'I' for Inactive)
REMARK    1  A    between atoms: C_1  and  O_2
REMARK    2  A    between atoms: O_2  and  C_3
REMARK    3  A    between atoms: C_8  and  O_9
REMARK                            x       y       z     vdW  Elec       q    Type
REMARK                         _______ _______ _______ _____ _____    ______ ____
ROOT
ATOM      1  C   UNL     1       8.009  -4.878  11.429  0.00  0.00    +0.000 A 
ATOM      2  C   UNL     1       7.568  -6.007  10.740  0.00  0.00    +0.000 A 
ATOM      3  C   UNL     1       6.608  -5.879   9.729  0.00  0.00    +0.000 A 
ATOM      4  C   UNL     1       6.085  -4.627   9.404  0.00  0.00    +0.000 A 
ATOM      5  C   UNL     1       6.520  -3.493  10.087  0.00  0.00    +0.000 A 
ATOM      6  C   UNL     1       7.473  -3.630  11.089  0.00  0.00    +0.000 A 
ENDROOT
BRANCH   1   8
ATOM      7  C   UNL     1       9.815  -5.973  12.519  0.00  0.00    +0.000 C 
ATOM      8  O   UNL     1       8.939  -4.854  12.437  0.00  0.00    +0.000 OA
ENDBRANCH   1   8
BRANCH   6   9
ATOM      9  O   UNL     1       7.886  -2.501  11.746  0.00  0.00    +0.000 OA
ATOM     10  H   UNL     1       7.366  -2.492  12.573  0.00  0.00    +0.000 HD
ENDBRANCH   6   9
TORSDOF 2
ENDMDL
MODEL 2
REMARK VINA RESULT:    -3.701     10.257     11.643
REMARK INTER + INTRA:          -4.064
REMARK INTER:                  -4.022
REMARK INTRA:                  -0.042
REMARK UNBOUND:                -0.039
REMARK  Name = 
REMARK  3 active torsions:
REMARK  status: ('A' for Active; 'I' for Inactive)
REMARK    1  A    between atoms: C_1  and  O_2
REMARK    2  A    between atoms: O_2  and  C_3
REMARK    3  A    between atoms: C_8  and  O_9
REMARK                            x       y       z     vdW  Elec       q    Type
REMARK                         _______ _______ _______ _____ _____    ______ ____
ROOT
ATOM      1  C   UNL     1       0.952   4.769  10.563  0.00  0.00    +0.000 A 
ATOM      2  C   UNL     1       1.921   3.806  10.283  0.00  0.00    +0.000 A 
ATOM      3  C   UNL     1       1.837   2.538  10.872  0.00  0.00    +0.000 A 
ATOM      4  C   UNL     1       0.789   2.229  11.741  0.00  0.00    +0.000 A 
ATOM      5  C   UNL     1      -0.183   3.186  12.025  0.00  0.00    +0.000 A 
ATOM      6  C   UNL     1      -0.092   4.441  11.436  0.00  0.00    +0.000 A 
ENDROOT
BRANCH   1   8
ATOM      7  C   UNL     1       2.160   6.687   9.847  0.00  0.00    +0.000 C 
ATOM      8  O   UNL     1       0.908   6.045  10.061  0.00  0.00    +0.000 OA
ENDBRANCH   1   8
BRANCH   6   9
ATOM      9  O   UNL     1      -1.059   5.365  11.731  0.00  0.00    +0.000 OA
ATOM     10  H   UNL     1      -1.556   5.478  10.898  0.00  0.00    +0.000 HD
ENDBRANCH   6   9
TORSDOF 2
ENDMDL
MODEL 3
REMARK VINA RESULT:    -3.612     23.862     24.613
REMARK INTER + INTRA:          -3.967
REMARK INTER:                  -3.926
REMARK INTRA:                  -0.041
REMARK UNBOUND:                -0.039
REMARK  Name = 
REMARK  3 active torsions:
REMARK  status: ('A' for Active; 'I' for Inactive)
REMARK    1  A    between atoms: C_1  and  O_2
REMARK    2  A    between atoms: O_2  and  C_3
REMARK    3  A    between atoms: C_8  and  O_9
REMARK                            x       y       z     vdW  Elec       q    Type
REMARK                         _______ _______ _______ _____ _____    ______ ____
ROOT
ATOM      1  C   UNL     1       7.539  13.455  -5.588  0.00  0.00    +0.000 A 
ATOM      2  C   UNL     1       8.129  12.200  -5.733  0.00  0.00    +0.000 A 
ATOM      3  C   UNL     1       9.442  11.989  -5.293  0.00  0.00    +0.000 A 
ATOM      4  C   UNL     1      10.168  13.028  -4.710  0.00  0.00    +0.000 A 
ATOM      5  C   UNL     1       9.586  14.285  -4.561  0.00  0.00    +0.000 A 
ATOM      6  C   UNL     1       8.283  14.485  -5.000  0.00  0.00    +0.000 A 
ENDROOT
BRANCH   1   8
ATOM      7  C   UNL     1       5.298  12.763  -5.971  0.00  0.00    +0.000 C 
ATOM      8  O   UNL     1       6.269  13.803  -5.971  0.00  0.00    +0.000 OA
ENDBRANCH   1   8
BRANCH   6   9
ATOM      9  O   UNL     1       7.732  15.729  -4.843  0.00  0.00    +0.000 OA
ATOM     10  H   UNL     1       8.088  16.052  -3.993  0.00  0.00    +0.000 HD
ENDBRANCH   6   9
TORSDOF 2
ENDMDL
MODEL 4
REMARK VINA RESULT:    -3.522     23.716     24.266
REMARK INTER + INTRA:          -3.870
REMARK INTER:                  -3.832
REMARK INTRA:                  -0.038
REMARK UNBOUND:                -0.039
REMARK  Name = 
REMARK  3 active torsions:
REMARK  status: ('A' for Active; 'I' for Inactive)
REMARK    1  A    between atoms: C_1  and  O_2
REMARK    2  A    between atoms: O_2  and  C_3
REMARK    3  A    between atoms: C_8  and  O_9
REMARK                            x       y       z     vdW  Elec       q    Type
REMARK                         _______ _______ _______ _____ _____    ______ ____
ROOT
ATOM      1  C   UNL     1       9.925  13.478  -4.480  0.00  0.00    +0.000 A 
ATOM      2  C   UNL     1       9.903  12.307  -5.236  0.00  0.00    +0.000 A 
ATOM      3  C   UNL     1       8.760  11.970  -5.971  0.00  0.00    +0.000 A 
ATOM      4  C   UNL     1       7.637  12.800  -5.954  0.00  0.00    +0.000 A 
ATOM      5  C   UNL     1       7.652  13.972  -5.202  0.00  0.00    +0.000 A 
ATOM      6  C   UNL     1       8.790  14.298  -4.475  0.00  0.00    +0.000 A 
ENDROOT
BRANCH   1   8
ATOM      7  C   UNL     1      12.062  14.516  -4.415  0.00  0.00    +0.000 C 
ATOM      8  O   UNL     1      10.971  13.930  -3.716  0.00  0.00    +0.000 OA
ENDBRANCH   1   8
BRANCH   6   9
ATOM      9  O   UNL     1       8.781  15.455  -3.744  0.00  0.00    +0.000 OA
ATOM     10  H   UNL     1       9.355  16.068  -4.241  0.00  0.00    +0.000 HD
ENDBRANCH   6   9
TORSDOF 2
ENDMDL
MODEL 5
REMARK VINA RESULT:    -3.482     24.122     25.469
REMARK INTER + INTRA:          -3.826
REMARK INTER:                  -3.778
REMARK INTRA:                  -0.048
REMARK UNBOUND:                -0.039
REMARK  Name = 
REMARK  3 active torsions:
REMARK  status: ('A' for Active; 'I' for Inactive)
REMARK    1  A    between atoms: C_1  and  O_2
REMARK    2  A    between atoms: O_2  and  C_3
REMARK    3  A    between atoms: C_8  and  O_9
REMARK                            x       y       z     vdW  Elec       q    Type
REMARK                         _______ _______ _______ _____ _____    ______ ____
ROOT
ATOM      1  C   UNL     1      10.671  14.605  -5.224  0.00  0.00    +0.000 A 
ATOM      2  C   UNL     1      11.364  15.556  -5.971  0.00  0.00    +0.000 A 
ATOM      3  C   UNL     1      12.660  15.932  -5.597  0.00  0.00    +0.000 A 
ATOM      4  C   UNL     1      13.267  15.360  -4.477  0.00  0.00    +0.000 A 
ATOM      5  C   UNL     1      12.582  14.408  -3.726  0.00  0.00    +0.000 A 
ATOM      6  C   UNL     1      11.296  14.042  -4.105  0.00  0.00    +0.000 A 
ENDROOT
BRANCH   1   8
ATOM      7  C   UNL     1       8.336  15.043  -5.193  0.00  0.00    +0.000 C 
ATOM      8  O   UNL     1       9.403  14.145  -5.473  0.00  0.00    +0.000 OA
ENDBRANCH   1   8
BRANCH   6   9
ATOM      9  O   UNL     1      10.642  13.104  -3.350  0.00  0.00    +0.000 OA
ATOM     10  H   UNL     1       9.794  13.525  -3.112  0.00  0.00    +0.000 HD
ENDBRANCH   6   9
TORSDOF 2
ENDMDL
MODEL 6
REMARK VINA RESULT:    -3.445     23.215     24.569
REMARK INTER + INTRA:          -3.786
REMARK INTER:                  -3.743
REMARK INTRA:                  -0.043
REMARK UNBOUND:                -0.039
REMARK  Name = 
REMARK  3 active torsions:
REMARK  status: ('A' for Active; 'I' for Inactive)
REMARK    1  A    between atoms: C_1  and  O_2
REMARK    2  A    between atoms: O_2  and  C_3
REMARK    3  A    between atoms: C_8  and  O_9
REMARK                            x       y       z     vdW  Elec       q    Type
REMARK                         _______ _______ _______ _____ _____    ______ ____
ROOT
ATOM      1  C   UNL     1       8.979  13.576  -4.506  0.00  0.00    +0.000 A 
ATOM      2  C   UNL     1      10.214  12.960  -4.308  0.00  0.00    +0.000 A 
ATOM      3  C   UNL     1      11.379  13.735  -4.236  0.00  0.00    +0.000 A 
ATOM      4  C   UNL     1      11.314  15.124  -4.363  0.00  0.00    +0.000 A 
ATOM      5  C   UNL     1      10.084  15.746  -4.560  0.00  0.00    +0.000 A 
ATOM      6  C   UNL     1       8.934  14.970  -4.630  0.00  0.00    +0.000 A 
ENDROOT
BRANCH   1   8
ATOM      7  C   UNL     1       7.753  11.678  -5.242  0.00  0.00    +0.000 C 
ATOM      8  O   UNL     1       7.764  12.946  -4.596  0.00  0.00    +0.000 OA
ENDBRANCH   1   8
BRANCH   6   9
ATOM      9  O   UNL     1       7.736  15.605  -4.825  0.00  0.00    +0.000 OA
ATOM     10  H   UNL     1       7.668  15.714  -5.793  0.00  0.00    +0.000 HD
ENDBRANCH   6   9
TORSDOF 2
ENDMDL
MODEL 7
REMARK VINA RESULT:    -3.396     24.163     25.246
REMARK INTER + INTRA:          -3.733
REMARK INTER:                  -3.686
REMARK INTRA:                  -0.047
REMARK UNBOUND:                -0.039
REMARK  Name = 
REMARK  3 active torsions:
REMARK  status: ('A' for Active; 'I' for Inactive)
REMARK    1  A    between atoms: C_1  and  O_2
REMARK    2  A    between atoms: O_2  and  C_3
REMARK    3  A    between atoms: C_8  and  O_9
REMARK                            x       y       z     vdW  Elec       q    Type
REMARK                         _______ _______ _______ _____ _____    ______ ____
ROOT
ATOM      1  C   UNL     1      12.618  14.707  -4.112  0.00  0.00    +0.000 A 
ATOM      2  C   UNL     1      12.886  15.707  -5.045  0.00  0.00    +0.000 A 
ATOM      3  C   UNL     1      11.904  16.081  -5.971  0.00  0.00    +0.000 A 
ATOM      4  C   UNL     1      10.654  15.459  -5.968  0.00  0.00    +0.000 A 
ATOM      5  C   UNL     1      10.378  14.459  -5.038  0.00  0.00    +0.000 A 
ATOM      6  C   UNL     1      11.358  14.094  -4.124  0.00  0.00    +0.000 A 
ENDROOT
BRANCH   1   8
ATOM      7  C   UNL     1      14.187  15.223  -2.403  0.00  0.00    +0.000 C 
ATOM      8  O   UNL     1      13.480  14.241  -3.152  0.00  0.00    +0.000 OA
ENDBRANCH   1   8
BRANCH   6   9
ATOM      9  O   UNL     1      11.064  13.109  -3.219  0.00  0.00    +0.000 OA
ATOM     10  H   UNL     1      11.855  12.537  -3.209  0.00  0.00    +0.000 HD
ENDBRANCH   6   9
TORSDOF 2
ENDMDL
MODEL 8
REMARK VINA RESULT:    -3.376     22.982     24.383
REMARK INTER + INTRA:          -3.711
REMARK INTER:                  -3.680
REMARK INTRA:                  -0.031
REMARK UNBOUND:                -0.039
REMARK  Name = 
REMARK  3 active torsions:
REMARK  status: ('A' for Active; 'I' for Inactive)
REMARK    1  A    between atoms: C_1  and  O_2
REMARK    2  A    between atoms: O_2  and  C_3
REMARK    3  A    between atoms: C_8  and  O_9
REMARK                            x       y       z     vdW  Elec       q    Type
REMARK                         _______ _______ _______ _____ _____    ______ ____
ROOT
ATOM      1  C   UNL     1       8.416  14.112  -4.899  0.00  0.00    +0.000 A 
ATOM      2  C   UNL     1       7.219  14.011  -5.606  0.00  0.00    +0.000 A 
ATOM      3  C   UNL     1       6.725  12.753  -5.971  0.00  0.00    +0.000 A 
ATOM      4  C   UNL     1       7.424  11.593  -5.632  0.00  0.00    +0.000 A 
ATOM      5  C   UNL     1       8.621  11.685  -4.925  0.00  0.00    +0.000 A 
ATOM      6  C   UNL     1       9.104  12.938  -4.568  0.00  0.00    +0.000 A 
ENDROOT
BRANCH   1   8
ATOM      7  C   UNL     1       9.720  16.016  -5.467  0.00  0.00    +0.000 C 
ATOM      8  O   UNL     1       9.016  15.273  -4.480  0.00  0.00    +0.000 OA
ENDBRANCH   1   8
BRANCH   6   9
ATOM      9  O   UNL     1      10.282  13.003  -3.873  0.00  0.00    +0.000 OA
ATOM     10  H   UNL     1      10.771  12.200  -4.138  0.00  0.00    +0.000 HD
ENDBRANCH   6   9
TORSDOF 2
ENDMDL
MODEL 9
REMARK VINA RESULT:    -3.298     23.265     24.366
REMARK INTER + INTRA:          -3.626
REMARK INTER:                  -3.586
REMARK INTRA:                  -0.040
REMARK UNBOUND:                -0.039
REMARK  Name = 
REMARK  3 active torsions:
REMARK  status: ('A' for Active; 'I' for Inactive)
REMARK    1  A    between atoms: C_1  and  O_2
REMARK    2  A    between atoms: O_2  and  C_3
REMARK    3  A    between atoms: C_8  and  O_9
REMARK                            x       y       z     vdW  Elec       q    Type
REMARK                         _______ _______ _______ _____ _____    ______ ____
ROOT
ATOM      1  C   UNL     1       8.797  13.126  -4.821  0.00  0.00    +0.000 A 
ATOM      2  C   UNL     1       8.081  14.284  -5.121  0.00  0.00    +0.000 A 
ATOM      3  C   UNL     1       8.710  15.533  -5.046  0.00  0.00    +0.000 A 
ATOM      4  C   UNL     1      10.051  15.630  -4.673  0.00  0.00    +0.000 A 
ATOM      5  C   UNL     1      10.774  14.477  -4.373  0.00  0.00    +0.000 A 
ATOM      6  C   UNL     1      10.142  13.242  -4.449  0.00  0.00    +0.000 A 
ENDROOT
BRANCH   1   8
ATOM      7  C   UNL     1       7.230  11.593  -5.738  0.00  0.00    +0.000 C 
ATOM      8  O   UNL     1       8.313  11.842  -4.851  0.00  0.00    +0.000 OA
ENDBRANCH   1   8
BRANCH   6   9
ATOM      9  O   UNL     1      10.873  12.123  -4.149  0.00  0.00    +0.000 OA
ATOM     10  H   UNL     1      11.563  12.085  -4.839  0.00  0.00    +0.000 HD
ENDBRANCH   6   9
TORSDOF 2
ENDMDL
