MODEL 1
REMARK VINA RESULT:    -3.658      0.000      0.000
REMARK INTER + INTRA:          -4.933
REMARK INTER:                  -4.941
REMARK INTRA:                   0.008
REMARK UNBOUND:                 0.008
REMARK  Name = 
REMARK  10 active torsions:
REMARK  status: ('A' for Active; 'I' for Inactive)
REMARK    1  A    between atoms: C_1  and  C_2
REMARK    2  A    between atoms: C_5  and  N_8
REMARK    3  A    between atoms: N_8  and  C_9
REMARK    4  A    between atoms: N_8  and  C_13
REMARK    5  A    between atoms: C_9  and  C_10
REMARK    6  A    between atoms: C_10  and  C_11
REMARK    7  A    between atoms: C_10  and  O_12
REMARK    8  A    between atoms: C_13  and  C_14
REMARK    9  A    between atoms: C_14  and  C_15
REMARK   10  A    between atoms: C_14  and  O_16
REMARK                            x       y       z     vdW  Elec       q    Type
REMARK                         _______ _______ _______ _____ _____    ______ ____
ROOT
ATOM      1  N   UNL     1       9.958  14.054  -5.127  0.00  0.00    +0.000 N 
ENDROOT
BRANCH   1   6
ATOM      2  C   UNL     1      14.916  16.078  -2.969  0.00  0.00    +0.000 C 
ATOM      3  C   UNL     1      13.617  15.572  -3.519  0.00  0.00    +0.000 A 
ATOM      4  C   UNL     1      12.840  14.670  -2.800  0.00  0.00    +0.000 A 
ATOM      5  C   UNL     1      11.639  14.176  -3.334  0.00  0.00    +0.000 A 
ATOM      6  C   UNL     1      11.167  14.536  -4.609  0.00  0.00    +0.000 A 
ATOM      7  C   UNL     1      11.977  15.451  -5.306  0.00  0.00    +0.000 A 
ATOM      8  C   UNL     1      13.180  15.954  -4.784  0.00  0.00    +0.000 A 
ENDBRANCH   1   6
BRANCH   1   9
ATOM      9  C   UNL     1       9.110  14.930  -5.971  0.00  0.00    +0.000 C 
BRANCH   9  10
ATOM     10  C   UNL     1       8.382  16.027  -5.156  0.00  0.00    +0.000 C 
ATOM     11  C   UNL     1       6.913  16.115  -5.551  0.00  0.00    +0.000 C 
BRANCH  10  12
ATOM     12  O   UNL     1       8.448  15.752  -3.750  0.00  0.00    +0.000 OA
ATOM     13  H   UNL     1       9.347  15.956  -3.444  0.00  0.00    +0.000 HD
ENDBRANCH  10  12
ENDBRANCH   9  10
ENDBRANCH   1   9
BRANCH   1  14
ATOM     14  C   UNL     1       9.242  12.924  -4.483  0.00  0.00    +0.000 C 
BRANCH  14  15
ATOM     15  C   UNL     1       7.898  12.609  -5.183  0.00  0.00    +0.000 C 
ATOM     16  C   UNL     1       7.840  11.200  -5.763  0.00  0.00    +0.000 C 
BRANCH  15  17
ATOM     17  O   UNL     1       6.792  12.768  -4.297  0.00  0.00    +0.000 OA
ATOM     18  H   UNL     1       6.277  13.514  -4.666  0.00  0.00    +0.000 HD
ENDBRANCH  15  17
ENDBRANCH  14  15
ENDBRANCH   1  14
TORSDOF 7
ENDMDL
MODEL 2
REMARK VINA RESULT:    -3.625      0.318      2.644
REMARK INTER + INTRA:          -4.889
REMARK INTER:                  -4.463
REMARK INTRA:                  -0.426
REMARK UNBOUND:                 0.008
REMARK  Name = 
REMARK  10 active torsions:
REMARK  status: ('A' for Active; 'I' for Inactive)
REMARK    1  A    between atoms: C_1  and  C_2
REMARK    2  A    between atoms: C_5  and  N_8
REMARK    3  A    between atoms: N_8  and  C_9
REMARK    4  A    between atoms: N_8  and  C_13
REMARK    5  A    between atoms: C_9  and  C_10
REMARK    6  A    between atoms: C_10  and  C_11
REMARK    7  A    between atoms: C_10  and  O_12
REMARK    8  A    between atoms: C_13  and  C_14
REMARK    9  A    between atoms: C_14  and  C_15
REMARK   10  A    between atoms: C_14  and  O_16
REMARK                            x       y       z     vdW  Elec       q    Type
REMARK                         _______ _______ _______ _____ _____    ______ ____
ROOT
ATOM      1  N   UNL     1       9.837  14.202  -4.898  0.00  0.00    +0.000 N 
ENDROOT
BRANCH   1   6
ATOM      2  C   UNL     1      14.968  15.966  -2.926  0.00  0.00    +0.000 C 
ATOM      3  C   UNL     1      13.627  15.531  -3.432  0.00  0.00    +0.000 A 
ATOM      4  C   UNL     1      12.727  14.874  -2.598  0.00  0.00    +0.000 A 
ATOM      5  C   UNL     1      11.484  14.441  -3.086  0.00  0.00    +0.000 A 
ATOM      6  C   UNL     1      11.087  14.619  -4.423  0.00  0.00    +0.000 A 
ATOM      7  C   UNL     1      12.020  15.288  -5.237  0.00  0.00    +0.000 A 
ATOM      8  C   UNL     1      13.266  15.728  -4.761  0.00  0.00    +0.000 A 
ENDBRANCH   1   6
BRANCH   1   9
ATOM      9  C   UNL     1       9.419  12.787  -4.748  0.00  0.00    +0.000 C 
BRANCH   9  10
ATOM     10  C   UNL     1       7.904  12.580  -4.992  0.00  0.00    +0.000 C 
ATOM     11  C   UNL     1       7.637  11.232  -5.652  0.00  0.00    +0.000 C 
BRANCH  10  12
ATOM     12  O   UNL     1       7.173  12.623  -3.758  0.00  0.00    +0.000 OA
ATOM     13  H   UNL     1       6.251  12.381  -3.946  0.00  0.00    +0.000 HD
ENDBRANCH  10  12
ENDBRANCH   9  10
ENDBRANCH   1   9
BRANCH   1  14
ATOM     14  C   UNL     1       9.133  14.950  -5.971  0.00  0.00    +0.000 C 
BRANCH  14  15
ATOM     15  C   UNL     1       8.283  16.115  -5.410  0.00  0.00    +0.000 C 
ATOM     16  C   UNL     1       6.846  16.107  -5.917  0.00  0.00    +0.000 C 
BRANCH  15  17
ATOM     17  O   UNL     1       8.248  16.103  -3.984  0.00  0.00    +0.000 OA
ATOM     18  H   UNL     1       8.426  15.174  -3.735  0.00  0.00    +0.000 HD
ENDBRANCH  15  17
ENDBRANCH  14  15
ENDBRANCH   1  14
TORSDOF 7
ENDMDL
