MODEL 1
REMARK VINA RESULT:    -3.666      0.000      0.000
REMARK INTER + INTRA:          -4.030
REMARK INTER:                  -3.988
REMARK INTRA:                  -0.042
REMARK UNBOUND:                -0.042
REMARK  Name = 
REMARK  3 active torsions:
REMARK  status: ('A' for Active; 'I' for Inactive)
REMARK    1  A    between atoms: C_1  and  O_2
REMARK    2  A    between atoms: O_2  and  C_3
REMARK    3  A    between atoms: C_8  and  O_9
REMARK                            x       y       z     vdW  Elec       q    Type
REMARK                         _______ _______ _______ _____ _____    ______ ____
ROOT
ATOM      1  C   UNL     1       0.962   4.759  10.569  0.00  0.00    +0.000 A 
ATOM      2  C   UNL     1       1.965   3.838  10.270  0.00  0.00    +0.000 A 
ATOM      3  C   UNL     1       1.935   2.561  10.845  0.00  0.00    +0.000 A 
ATOM      4  C   UNL     1       0.906   2.201  11.718  0.00  0.00    +0.000 A 
ATOM      5  C   UNL     1      -0.099   3.116  12.020  0.00  0.00    +0.000 A 
ATOM      6  C   UNL     1      -0.061   4.380  11.446  0.00  0.00    +0.000 A 
ENDROOT
BRANCH   1   8
ATOM      7  C   UNL     1       2.090   6.726   9.857  0.00  0.00    +0.000 C 
ATOM      8  O   UNL     1       0.865   6.038  10.083  0.00  0.00    +0.000 OA
ENDBRANCH   1   8
BRANCH   6   9
ATOM      9  O   UNL     1      -1.061   5.263  11.759  0.00  0.00    +0.000 OA
ATOM     10  H   UNL     1      -1.803   5.015  11.175  0.00  0.00    +0.000 HD
ENDBRANCH   6   9
TORSDOF 2
ENDMDL
MODEL 2
REMARK VINA RESULT:    -3.577     19.718     20.190
REMARK INTER + INTRA:          -3.934
REMARK INTER:                  -3.893
REMARK INTRA:                  -0.041
REMARK UNBOUND:                -0.042
REMARK  Name = 
REMARK  3 active torsions:
REMARK  status: ('A' for Active; 'I' for Inactive)
REMARK    1  A    between atoms: C_1  and  O_2
REMARK    2  A    between atoms: O_2  and  C_3
REMARK    3  A    between atoms: C_8  and  O_9
REMARK                            x       y       z     vdW  Elec       q    Type
REMARK                         _______ _______ _______ _____ _____    ______ ____
ROOT
ATOM      1  C   UNL     1       7.637  13.473  -5.554  0.00  0.00    +0.000 A 
ATOM      2  C   UNL     1       8.218  12.212  -5.686  0.00  0.00    +0.000 A 
ATOM      3  C   UNL     1       9.524  11.991  -5.231  0.00  0.00    +0.000 A 
ATOM      4  C   UNL     1      10.253  13.027  -4.644  0.00  0.00    +0.000 A 
ATOM      5  C   UNL     1       9.680  14.289  -4.508  0.00  0.00    +0.000 A 
ATOM      6  C   UNL     1       8.384  14.499  -4.962  0.00  0.00    +0.000 A 
ENDROOT
BRANCH   1   8
ATOM      7  C   UNL     1       5.398  12.797  -5.971  0.00  0.00    +0.000 C 
ATOM      8  O   UNL     1       6.375  13.831  -5.953  0.00  0.00    +0.000 OA
ENDBRANCH   1   8
BRANCH   6   9
ATOM      9  O   UNL     1       7.843  15.748  -4.817  0.00  0.00    +0.000 OA
ATOM     10  H   UNL     1       8.149  16.052  -3.941  0.00  0.00    +0.000 HD
ENDBRANCH   6   9
TORSDOF 2
ENDMDL
MODEL 3
REMARK VINA RESULT:    -3.546     20.475     21.578
REMARK INTER + INTRA:          -3.899
REMARK INTER:                  -3.847
REMARK INTRA:                  -0.052
REMARK UNBOUND:                -0.042
REMARK  Name = 
REMARK  3 active torsions:
REMARK  status: ('A' for Active; 'I' for Inactive)
REMARK    1  A    between atoms: C_1  and  O_2
REMARK    2  A    between atoms: O_2  and  C_3
REMARK    3  A    between atoms: C_8  and  O_9
REMARK                            x       y       z     vdW  Elec       q    Type
REMARK                         _______ _______ _______ _____ _____    ______ ____
ROOT
ATOM      1  C   UNL     1      10.554  14.508  -5.224  0.00  0.00    +0.000 A 
ATOM      2  C   UNL     1      11.240  15.464  -5.971  0.00  0.00    +0.000 A 
ATOM      3  C   UNL     1      12.554  15.809  -5.629  0.00  0.00    +0.000 A 
ATOM      4  C   UNL     1      13.185  15.202  -4.542  0.00  0.00    +0.000 A 
ATOM      5  C   UNL     1      12.506  14.246  -3.791  0.00  0.00    +0.000 A 
ATOM      6  C   UNL     1      11.204  13.910  -4.137  0.00  0.00    +0.000 A 
ENDROOT
BRANCH   1   8
ATOM      7  C   UNL     1       8.231  15.006  -5.166  0.00  0.00    +0.000 C 
ATOM      8  O   UNL     1       9.271  14.075  -5.442  0.00  0.00    +0.000 OA
ENDBRANCH   1   8
BRANCH   6   9
ATOM      9  O   UNL     1      10.557  12.967  -3.383  0.00  0.00    +0.000 OA
ATOM     10  H   UNL     1      11.091  12.891  -2.569  0.00  0.00    +0.000 HD
ENDBRANCH   6   9
TORSDOF 2
ENDMDL
MODEL 4
REMARK VINA RESULT:    -3.509      9.788     11.001
REMARK INTER + INTRA:          -3.859
REMARK INTER:                  -3.821
REMARK INTRA:                  -0.038
REMARK UNBOUND:                -0.042
REMARK  Name = 
REMARK  3 active torsions:
REMARK  status: ('A' for Active; 'I' for Inactive)
REMARK    1  A    between atoms: C_1  and  O_2
REMARK    2  A    between atoms: O_2  and  C_3
REMARK    3  A    between atoms: C_8  and  O_9
REMARK                            x       y       z     vdW  Elec       q    Type
REMARK                         _______ _______ _______ _____ _____    ______ ____
ROOT
ATOM      1  C   UNL     1       7.470  -3.647  11.290  0.00  0.00    +0.000 A 
ATOM      2  C   UNL     1       6.583  -3.376  10.249  0.00  0.00    +0.000 A 
ATOM      3  C   UNL     1       6.123  -4.417   9.432  0.00  0.00    +0.000 A 
ATOM      4  C   UNL     1       6.548  -5.728   9.651  0.00  0.00    +0.000 A 
ATOM      5  C   UNL     1       7.434  -6.008  10.689  0.00  0.00    +0.000 A 
ATOM      6  C   UNL     1       7.884  -4.969  11.494  0.00  0.00    +0.000 A 
ENDROOT
BRANCH   1   8
ATOM      7  C   UNL     1       7.889  -1.363  11.793  0.00  0.00    +0.000 C 
ATOM      8  O   UNL     1       7.999  -2.732  12.164  0.00  0.00    +0.000 OA
ENDBRANCH   1   8
BRANCH   6   9
ATOM      9  O   UNL     1       8.755  -5.268  12.509  0.00  0.00    +0.000 OA
ATOM     10  H   UNL     1       8.314  -4.945  13.318  0.00  0.00    +0.000 HD
ENDBRANCH   6   9
TORSDOF 2
ENDMDL
MODEL 5
REMARK VINA RESULT:    -3.498     20.094     20.318
REMARK INTER + INTRA:          -3.847
REMARK INTER:                  -3.812
REMARK INTRA:                  -0.035
REMARK UNBOUND:                -0.042
REMARK  Name = 
REMARK  3 active torsions:
REMARK  status: ('A' for Active; 'I' for Inactive)
REMARK    1  A    between atoms: C_1  and  O_2
REMARK    2  A    between atoms: O_2  and  C_3
REMARK    3  A    between atoms: C_8  and  O_9
REMARK                            x       y       z     vdW  Elec       q    Type
REMARK                         _______ _______ _______ _____ _____    ______ ____
ROOT
ATOM      1  C   UNL     1       9.936  13.512  -4.483  0.00  0.00    +0.000 A 
ATOM      2  C   UNL     1       9.932  12.341  -5.239  0.00  0.00    +0.000 A 
ATOM      3  C   UNL     1       8.792  11.985  -5.971  0.00  0.00    +0.000 A 
ATOM      4  C   UNL     1       7.656  12.796  -5.950  0.00  0.00    +0.000 A 
ATOM      5  C   UNL     1       7.653  13.968  -5.198  0.00  0.00    +0.000 A 
ATOM      6  C   UNL     1       8.788  14.313  -4.474  0.00  0.00    +0.000 A 
ENDROOT
BRANCH   1   8
ATOM      7  C   UNL     1      12.046  14.604  -4.422  0.00  0.00    +0.000 C 
ATOM      8  O   UNL     1      10.976  13.981  -3.721  0.00  0.00    +0.000 OA
ENDBRANCH   1   8
BRANCH   6   9
ATOM      9  O   UNL     1       8.761  15.470  -3.742  0.00  0.00    +0.000 OA
ATOM     10  H   UNL     1       9.438  16.040  -4.153  0.00  0.00    +0.000 HD
ENDBRANCH   6   9
TORSDOF 2
ENDMDL
MODEL 6
REMARK VINA RESULT:    -3.427     19.092     20.377
REMARK INTER + INTRA:          -3.770
REMARK INTER:                  -3.731
REMARK INTRA:                  -0.039
REMARK UNBOUND:                -0.042
REMARK  Name = 
REMARK  3 active torsions:
REMARK  status: ('A' for Active; 'I' for Inactive)
REMARK    1  A    between atoms: C_1  and  O_2
REMARK    2  A    between atoms: O_2  and  C_3
REMARK    3  A    between atoms: C_8  and  O_9
REMARK                            x       y       z     vdW  Elec       q    Type
REMARK                         _______ _______ _______ _____ _____    ______ ____
ROOT
ATOM      1  C   UNL     1       8.952  13.566  -4.563  0.00  0.00    +0.000 A 
ATOM      2  C   UNL     1      10.130  12.860  -4.324  0.00  0.00    +0.000 A 
ATOM      3  C   UNL     1      11.335  13.550  -4.142  0.00  0.00    +0.000 A 
ATOM      4  C   UNL     1      11.367  14.945  -4.199  0.00  0.00    +0.000 A 
ATOM      5  C   UNL     1      10.194  15.657  -4.438  0.00  0.00    +0.000 A 
ATOM      6  C   UNL     1       9.004  14.964  -4.617  0.00  0.00    +0.000 A 
ENDROOT
BRANCH   1   8
ATOM      7  C   UNL     1       7.664  11.653  -5.135  0.00  0.00    +0.000 C 
ATOM      8  O   UNL     1       7.707  13.024  -4.759  0.00  0.00    +0.000 OA
ENDBRANCH   1   8
BRANCH   6   9
ATOM      9  O   UNL     1       7.864  15.687  -4.850  0.00  0.00    +0.000 OA
ATOM     10  H   UNL     1       7.247  15.051  -5.261  0.00  0.00    +0.000 HD
ENDBRANCH   6   9
TORSDOF 2
ENDMDL
MODEL 7
REMARK VINA RESULT:    -3.312     20.036     20.419
REMARK INTER + INTRA:          -3.644
REMARK INTER:                  -3.607
REMARK INTRA:                  -0.037
REMARK UNBOUND:                -0.042
REMARK  Name = 
REMARK  3 active torsions:
REMARK  status: ('A' for Active; 'I' for Inactive)
REMARK    1  A    between atoms: C_1  and  O_2
REMARK    2  A    between atoms: O_2  and  C_3
REMARK    3  A    between atoms: C_8  and  O_9
REMARK                            x       y       z     vdW  Elec       q    Type
REMARK                         _______ _______ _______ _____ _____    ______ ____
ROOT
ATOM      1  C   UNL     1       9.346  14.344  -4.796  0.00  0.00    +0.000 A 
ATOM      2  C   UNL     1      10.091  13.166  -4.760  0.00  0.00    +0.000 A 
ATOM      3  C   UNL     1       9.533  11.970  -5.229  0.00  0.00    +0.000 A 
ATOM      4  C   UNL     1       8.232  11.946  -5.733  0.00  0.00    +0.000 A 
ATOM      5  C   UNL     1       7.481  13.119  -5.773  0.00  0.00    +0.000 A 
ATOM      6  C   UNL     1       8.042  14.300  -5.306  0.00  0.00    +0.000 A 
ENDROOT
BRANCH   1   8
ATOM      7  C   UNL     1      11.125  15.692  -3.982  0.00  0.00    +0.000 C 
ATOM      8  O   UNL     1       9.762  15.581  -4.373  0.00  0.00    +0.000 OA
ENDBRANCH   1   8
BRANCH   6   9
ATOM      9  O   UNL     1       7.284  15.440  -5.355  0.00  0.00    +0.000 OA
ATOM     10  H   UNL     1       6.910  15.528  -4.457  0.00  0.00    +0.000 HD
ENDBRANCH   6   9
TORSDOF 2
ENDMDL
MODEL 8
REMARK VINA RESULT:    -3.309     19.398     20.486
REMARK INTER + INTRA:          -3.642
REMARK INTER:                  -3.594
REMARK INTRA:                  -0.048
REMARK UNBOUND:                -0.042
REMARK  Name = 
REMARK  3 active torsions:
REMARK  status: ('A' for Active; 'I' for Inactive)
REMARK    1  A    between atoms: C_1  and  O_2
REMARK    2  A    between atoms: O_2  and  C_3
REMARK    3  A    between atoms: C_8  and  O_9
REMARK                            x       y       z     vdW  Elec       q    Type
REMARK                         _______ _______ _______ _____ _____    ______ ____
ROOT
ATOM      1  C   UNL     1       8.823  13.458  -4.592  0.00  0.00    +0.000 A 
ATOM      2  C   UNL     1       8.340  14.738  -4.863  0.00  0.00    +0.000 A 
ATOM      3  C   UNL     1       9.229  15.818  -4.945  0.00  0.00    +0.000 A 
ATOM      4  C   UNL     1      10.598  15.624  -4.756  0.00  0.00    +0.000 A 
ATOM      5  C   UNL     1      11.088  14.348  -4.486  0.00  0.00    +0.000 A 
ATOM      6  C   UNL     1      10.200  13.283  -4.406  0.00  0.00    +0.000 A 
ENDROOT
BRANCH   1   8
ATOM      7  C   UNL     1       7.543  11.786  -5.693  0.00  0.00    +0.000 C 
ATOM      8  O   UNL     1       8.072  12.315  -4.483  0.00  0.00    +0.000 OA
ENDBRANCH   1   8
BRANCH   6   9
ATOM      9  O   UNL     1      10.705  12.038  -4.139  0.00  0.00    +0.000 OA
ATOM     10  H   UNL     1      11.673  12.162  -4.119  0.00  0.00    +0.000 HD
ENDBRANCH   6   9
TORSDOF 2
ENDMDL
