MODEL 1
REMARK VINA RESULT:    -3.865      0.000      0.000
REMARK INTER + INTRA:          -4.242
REMARK INTER:                  -4.204
REMARK INTRA:                  -0.039
REMARK UNBOUND:                -0.039
REMARK  Name = 
REMARK  3 active torsions:
REMARK  status: ('A' for Active; 'I' for Inactive)
REMARK    1  A    between atoms: C_1  and  O_2
REMARK    2  A    between atoms: O_2  and  C_3
REMARK    3  A    between atoms: C_8  and  O_9
REMARK                            x       y       z     vdW  Elec       q    Type
REMARK                         _______ _______ _______ _____ _____    ______ ____
ROOT
ATOM      1  C   UNL     1       7.983  -4.855  11.456  0.00  0.00    +0.000 A 
ATOM      2  C   UNL     1       7.557  -6.008  10.799  0.00  0.00    +0.000 A 
ATOM      3  C   UNL     1       6.609  -5.919   9.772  0.00  0.00    +0.000 A 
ATOM      4  C   UNL     1       6.083  -4.680   9.400  0.00  0.00    +0.000 A 
ATOM      5  C   UNL     1       6.503  -3.523  10.052  0.00  0.00    +0.000 A 
ATOM      6  C   UNL     1       7.444  -3.622  11.069  0.00  0.00    +0.000 A 
ENDROOT
BRANCH   1   8
ATOM      7  C   UNL     1       9.756  -5.919  12.626  0.00  0.00    +0.000 C 
ATOM      8  O   UNL     1       8.900  -4.793  12.474  0.00  0.00    +0.000 OA
ENDBRANCH   1   8
BRANCH   6   9
ATOM      9  O   UNL     1       7.842  -2.470  11.695  0.00  0.00    +0.000 OA
ATOM     10  H   UNL     1       7.051  -2.165  12.179  0.00  0.00    +0.000 HD
ENDBRANCH   6   9
TORSDOF 2
ENDMDL
MODEL 2
REMARK VINA RESULT:    -3.680     10.201     11.589
REMARK INTER + INTRA:          -4.041
REMARK INTER:                  -3.999
REMARK INTRA:                  -0.042
REMARK UNBOUND:                -0.039
REMARK  Name = 
REMARK  3 active torsions:
REMARK  status: ('A' for Active; 'I' for Inactive)
REMARK    1  A    between atoms: C_1  and  O_2
REMARK    2  A    between atoms: O_2  and  C_3
REMARK    3  A    between atoms: C_8  and  O_9
REMARK                            x       y       z     vdW  Elec       q    Type
REMARK                         _______ _______ _______ _____ _____    ______ ____
ROOT
ATOM      1  C   UNL     1       0.961   4.747  10.571  0.00  0.00    +0.000 A 
ATOM      2  C   UNL     1       1.963   3.827  10.268  0.00  0.00    +0.000 A 
ATOM      3  C   UNL     1       1.943   2.553  10.849  0.00  0.00    +0.000 A 
ATOM      4  C   UNL     1       0.924   2.195  11.735  0.00  0.00    +0.000 A 
ATOM      5  C   UNL     1      -0.081   3.109  12.043  0.00  0.00    +0.000 A 
ATOM      6  C   UNL     1      -0.052   4.371  11.461  0.00  0.00    +0.000 A 
ENDROOT
BRANCH   1   8
ATOM      7  C   UNL     1       2.077   6.716   9.845  0.00  0.00    +0.000 C 
ATOM      8  O   UNL     1       0.856   6.023  10.079  0.00  0.00    +0.000 OA
ENDBRANCH   1   8
BRANCH   6   9
ATOM      9  O   UNL     1      -1.051   5.252  11.780  0.00  0.00    +0.000 OA
ATOM     10  H   UNL     1      -1.686   4.729  12.305  0.00  0.00    +0.000 HD
ENDBRANCH   6   9
TORSDOF 2
ENDMDL
MODEL 3
REMARK VINA RESULT:    -3.515     23.724     24.281
REMARK INTER + INTRA:          -3.862
REMARK INTER:                  -3.834
REMARK INTRA:                  -0.029
REMARK UNBOUND:                -0.039
REMARK  Name = 
REMARK  3 active torsions:
REMARK  status: ('A' for Active; 'I' for Inactive)
REMARK    1  A    between atoms: C_1  and  O_2
REMARK    2  A    between atoms: O_2  and  C_3
REMARK    3  A    between atoms: C_8  and  O_9
REMARK                            x       y       z     vdW  Elec       q    Type
REMARK                         _______ _______ _______ _____ _____    ______ ____
ROOT
ATOM      1  C   UNL     1       9.924  13.482  -4.477  0.00  0.00    +0.000 A 
ATOM      2  C   UNL     1       9.905  12.309  -5.230  0.00  0.00    +0.000 A 
ATOM      3  C   UNL     1       8.765  11.972  -5.971  0.00  0.00    +0.000 A 
ATOM      4  C   UNL     1       7.643  12.802  -5.961  0.00  0.00    +0.000 A 
ATOM      5  C   UNL     1       7.654  13.976  -5.211  0.00  0.00    +0.000 A 
ATOM      6  C   UNL     1       8.789  14.302  -4.479  0.00  0.00    +0.000 A 
ENDROOT
BRANCH   1   8
ATOM      7  C   UNL     1      12.036  14.567  -4.397  0.00  0.00    +0.000 C 
ATOM      8  O   UNL     1      10.965  13.935  -3.707  0.00  0.00    +0.000 OA
ENDBRANCH   1   8
BRANCH   6   9
ATOM      9  O   UNL     1       8.776  15.461  -3.749  0.00  0.00    +0.000 OA
ATOM     10  H   UNL     1       9.593  15.427  -3.215  0.00  0.00    +0.000 HD
ENDBRANCH   6   9
TORSDOF 2
ENDMDL
MODEL 4
REMARK VINA RESULT:    -3.487     24.119     25.480
REMARK INTER + INTRA:          -3.831
REMARK INTER:                  -3.779
REMARK INTRA:                  -0.053
REMARK UNBOUND:                -0.039
REMARK  Name = 
REMARK  3 active torsions:
REMARK  status: ('A' for Active; 'I' for Inactive)
REMARK    1  A    between atoms: C_1  and  O_2
REMARK    2  A    between atoms: O_2  and  C_3
REMARK    3  A    between atoms: C_8  and  O_9
REMARK                            x       y       z     vdW  Elec       q    Type
REMARK                         _______ _______ _______ _____ _____    ______ ____
ROOT
ATOM      1  C   UNL     1      10.648  14.600  -5.211  0.00  0.00    +0.000 A 
ATOM      2  C   UNL     1      11.336  15.550  -5.965  0.00  0.00    +0.000 A 
ATOM      3  C   UNL     1      12.643  15.910  -5.612  0.00  0.00    +0.000 A 
ATOM      4  C   UNL     1      13.265  15.325  -4.508  0.00  0.00    +0.000 A 
ATOM      5  C   UNL     1      12.585  14.375  -3.750  0.00  0.00    +0.000 A 
ATOM      6  C   UNL     1      11.289  14.024  -4.107  0.00  0.00    +0.000 A 
ENDROOT
BRANCH   1   8
ATOM      7  C   UNL     1       8.327  15.106  -5.270  0.00  0.00    +0.000 C 
ATOM      8  O   UNL     1       9.371  14.154  -5.438  0.00  0.00    +0.000 OA
ENDBRANCH   1   8
BRANCH   6   9
ATOM      9  O   UNL     1      10.640  13.087  -3.346  0.00  0.00    +0.000 OA
ATOM     10  H   UNL     1      11.014  13.193  -2.451  0.00  0.00    +0.000 HD
ENDBRANCH   6   9
TORSDOF 2
ENDMDL
MODEL 5
REMARK VINA RESULT:    -3.384      9.345     10.485
REMARK INTER + INTRA:          -3.720
REMARK INTER:                  -3.680
REMARK INTRA:                  -0.040
REMARK UNBOUND:                -0.039
REMARK  Name = 
REMARK  3 active torsions:
REMARK  status: ('A' for Active; 'I' for Inactive)
REMARK    1  A    between atoms: C_1  and  O_2
REMARK    2  A    between atoms: O_2  and  C_3
REMARK    3  A    between atoms: C_8  and  O_9
REMARK                            x       y       z     vdW  Elec       q    Type
REMARK                         _______ _______ _______ _____ _____    ______ ____
ROOT
ATOM      1  C   UNL     1       2.116   3.845  10.250  0.00  0.00    +0.000 A 
ATOM      2  C   UNL     1       3.060   2.839  10.052  0.00  0.00    +0.000 A 
ATOM      3  C   UNL     1       4.319   3.155   9.524  0.00  0.00    +0.000 A 
ATOM      4  C   UNL     1       4.637   4.474   9.194  0.00  0.00    +0.000 A 
ATOM      5  C   UNL     1       3.699   5.485   9.391  0.00  0.00    +0.000 A 
ATOM      6  C   UNL     1       2.453   5.162   9.913  0.00  0.00    +0.000 A 
ENDROOT
BRANCH   1   8
ATOM      7  C   UNL     1       0.646   2.558  11.603  0.00  0.00    +0.000 C 
ATOM      8  O   UNL     1       0.851   3.682  10.755  0.00  0.00    +0.000 OA
ENDBRANCH   1   8
BRANCH   6   9
ATOM      9  O   UNL     1       1.547   6.172  10.097  0.00  0.00    +0.000 OA
ATOM     10  H   UNL     1       0.741   5.728  10.421  0.00  0.00    +0.000 HD
ENDBRANCH   6   9
TORSDOF 2
ENDMDL
MODEL 6
REMARK VINA RESULT:    -3.266     23.050     24.407
REMARK INTER + INTRA:          -3.592
REMARK INTER:                  -3.539
REMARK INTRA:                  -0.052
REMARK UNBOUND:                -0.039
REMARK  Name = 
REMARK  3 active torsions:
REMARK  status: ('A' for Active; 'I' for Inactive)
REMARK    1  A    between atoms: C_1  and  O_2
REMARK    2  A    between atoms: O_2  and  C_3
REMARK    3  A    between atoms: C_8  and  O_9
REMARK                            x       y       z     vdW  Elec       q    Type
REMARK                         _______ _______ _______ _____ _____    ______ ____
ROOT
ATOM      1  C   UNL     1       8.534  14.073  -4.899  0.00  0.00    +0.000 A 
ATOM      2  C   UNL     1       7.305  14.049  -5.558  0.00  0.00    +0.000 A 
ATOM      3  C   UNL     1       6.757  12.828  -5.971  0.00  0.00    +0.000 A 
ATOM      4  C   UNL     1       7.432  11.631  -5.730  0.00  0.00    +0.000 A 
ATOM      5  C   UNL     1       8.660  11.646  -5.071  0.00  0.00    +0.000 A 
ATOM      6  C   UNL     1       9.196  12.861  -4.665  0.00  0.00    +0.000 A 
ENDROOT
BRANCH   1   8
ATOM      7  C   UNL     1       9.695  16.077  -5.428  0.00  0.00    +0.000 C 
ATOM      8  O   UNL     1       9.187  15.189  -4.440  0.00  0.00    +0.000 OA
ENDBRANCH   1   8
BRANCH   6   9
ATOM      9  O   UNL     1      10.404  12.851  -4.020  0.00  0.00    +0.000 OA
ATOM     10  H   UNL     1      10.289  12.217  -3.287  0.00  0.00    +0.000 HD
ENDBRANCH   6   9
TORSDOF 2
ENDMDL
MODEL 7
REMARK VINA RESULT:    -1.422     23.833     24.605
REMARK INTER + INTRA:          -1.586
REMARK INTER:                  -1.546
REMARK INTRA:                  -0.039
REMARK UNBOUND:                -0.039
REMARK  Name = 
REMARK  3 active torsions:
REMARK  status: ('A' for Active; 'I' for Inactive)
REMARK    1  A    between atoms: C_1  and  O_2
REMARK    2  A    between atoms: O_2  and  C_3
REMARK    3  A    between atoms: C_8  and  O_9
REMARK                            x       y       z     vdW  Elec       q    Type
REMARK                         _______ _______ _______ _____ _____    ______ ____
ROOT
ATOM      1  C   UNL     1       7.614  13.468  -5.521  0.00  0.00    +0.000 A 
ATOM      2  C   UNL     1       8.193  12.207  -5.649  0.00  0.00    +0.000 A 
ATOM      3  C   UNL     1       9.513  11.997  -5.231  0.00  0.00    +0.000 A 
ATOM      4  C   UNL     1      10.258  13.044  -4.685  0.00  0.00    +0.000 A 
ATOM      5  C   UNL     1       9.687  14.308  -4.554  0.00  0.00    +0.000 A 
ATOM      6  C   UNL     1       8.377  14.507  -4.972  0.00  0.00    +0.000 A 
ENDROOT
BRANCH   1   8
ATOM      7  C   UNL     1       5.392  12.759  -5.971  0.00  0.00    +0.000 C 
ATOM      8  O   UNL     1       6.339  13.817  -5.887  0.00  0.00    +0.000 OA
ENDBRANCH   1   8
BRANCH   6   9
ATOM      9  O   UNL     1       7.837  15.758  -4.832  0.00  0.00    +0.000 OA
ATOM     10  H   UNL     1       8.007  15.999  -3.902  0.00  0.00    +0.000 HD
ENDBRANCH   6   9
TORSDOF 2
ENDMDL
