MODEL 1
REMARK VINA RESULT:    -3.841      0.000      0.000
REMARK INTER + INTRA:          -4.230
REMARK INTER:                  -4.178
REMARK INTRA:                  -0.052
REMARK UNBOUND:                -0.052
REMARK  Name = 
REMARK  3 active torsions:
REMARK  status: ('A' for Active; 'I' for Inactive)
REMARK    1  A    between atoms: C_1  and  O_2
REMARK    2  A    between atoms: O_2  and  C_3
REMARK    3  A    between atoms: C_8  and  O_9
REMARK                            x       y       z     vdW  Elec       q    Type
REMARK                         _______ _______ _______ _____ _____    ______ ____
ROOT
ATOM      1  C   UNL     1       6.947  16.322 -10.975  0.00  0.00    +0.000 A 
ATOM      2  C   UNL     1       6.206  16.664  -9.844  0.00  0.00    +0.000 A 
ATOM      3  C   UNL     1       5.397  15.706  -9.221  0.00  0.00    +0.000 A 
ATOM      4  C   UNL     1       5.324  14.406  -9.726  0.00  0.00    +0.000 A 
ATOM      5  C   UNL     1       6.061  14.056 -10.855  0.00  0.00    +0.000 A 
ATOM      6  C   UNL     1       6.861  15.014 -11.466  0.00  0.00    +0.000 A 
ENDROOT
BRANCH   1   8
ATOM      7  C   UNL     1       7.150  18.198 -12.419  0.00  0.00    +0.000 C 
ATOM      8  O   UNL     1       7.776  17.154 -11.683  0.00  0.00    +0.000 OA
ENDBRANCH   1   8
BRANCH   6   9
ATOM      9  O   UNL     1       7.576  14.647 -12.574  0.00  0.00    +0.000 OA
ATOM     10  H   UNL     1       6.977  14.822 -13.325  0.00  0.00    +0.000 HD
ENDBRANCH   6   9
TORSDOF 2
ENDMDL
MODEL 2
REMARK VINA RESULT:    -3.764      1.955      2.668
REMARK INTER + INTRA:          -4.146
REMARK INTER:                  -4.093
REMARK INTRA:                  -0.053
REMARK UNBOUND:                -0.052
REMARK  Name = 
REMARK  3 active torsions:
REMARK  status: ('A' for Active; 'I' for Inactive)
REMARK    1  A    between atoms: C_1  and  O_2
REMARK    2  A    between atoms: O_2  and  C_3
REMARK    3  A    between atoms: C_8  and  O_9
REMARK                            x       y       z     vdW  Elec       q    Type
REMARK                         _______ _______ _______ _____ _____    ______ ____
ROOT
ATOM      1  C   UNL     1       6.551  14.415 -10.363  0.00  0.00    +0.000 A 
ATOM      2  C   UNL     1       5.213  14.144 -10.082  0.00  0.00    +0.000 A 
ATOM      3  C   UNL     1       4.657  14.553  -8.863  0.00  0.00    +0.000 A 
ATOM      4  C   UNL     1       5.435  15.231  -7.923  0.00  0.00    +0.000 A 
ATOM      5  C   UNL     1       6.773  15.506  -8.196  0.00  0.00    +0.000 A 
ATOM      6  C   UNL     1       7.315  15.097  -9.408  0.00  0.00    +0.000 A 
ENDROOT
BRANCH   1   8
ATOM      7  C   UNL     1       6.787  14.700 -12.710  0.00  0.00    +0.000 C 
ATOM      8  O   UNL     1       7.224  14.075 -11.509  0.00  0.00    +0.000 OA
ENDBRANCH   1   8
BRANCH   6   9
ATOM      9  O   UNL     1       8.633  15.378  -9.654  0.00  0.00    +0.000 OA
ATOM     10  H   UNL     1       8.728  15.294 -10.622  0.00  0.00    +0.000 HD
ENDBRANCH   6   9
TORSDOF 2
ENDMDL
MODEL 3
REMARK VINA RESULT:    -3.575      2.015      3.152
REMARK INTER + INTRA:          -3.940
REMARK INTER:                  -3.902
REMARK INTRA:                  -0.039
REMARK UNBOUND:                -0.052
REMARK  Name = 
REMARK  3 active torsions:
REMARK  status: ('A' for Active; 'I' for Inactive)
REMARK    1  A    between atoms: C_1  and  O_2
REMARK    2  A    between atoms: O_2  and  C_3
REMARK    3  A    between atoms: C_8  and  O_9
REMARK                            x       y       z     vdW  Elec       q    Type
REMARK                         _______ _______ _______ _____ _____    ______ ____
ROOT
ATOM      1  C   UNL     1       5.954  15.016 -10.183  0.00  0.00    +0.000 A 
ATOM      2  C   UNL     1       6.689  16.201 -10.177  0.00  0.00    +0.000 A 
ATOM      3  C   UNL     1       6.380  17.211  -9.258  0.00  0.00    +0.000 A 
ATOM      4  C   UNL     1       5.338  17.042  -8.344  0.00  0.00    +0.000 A 
ATOM      5  C   UNL     1       4.600  15.861  -8.344  0.00  0.00    +0.000 A 
ATOM      6  C   UNL     1       4.913  14.865  -9.259  0.00  0.00    +0.000 A 
ENDROOT
BRANCH   1   8
ATOM      7  C   UNL     1       6.887  14.199 -12.210  0.00  0.00    +0.000 C 
ATOM      8  O   UNL     1       6.144  13.948 -11.023  0.00  0.00    +0.000 OA
ENDBRANCH   1   8
BRANCH   6   9
ATOM      9  O   UNL     1       4.173  13.713  -9.240  0.00  0.00    +0.000 OA
ATOM     10  H   UNL     1       3.998  13.546  -8.294  0.00  0.00    +0.000 HD
ENDBRANCH   6   9
TORSDOF 2
ENDMDL
MODEL 4
REMARK VINA RESULT:    -3.574      3.425      4.512
REMARK INTER + INTRA:          -3.940
REMARK INTER:                  -3.895
REMARK INTRA:                  -0.045
REMARK UNBOUND:                -0.052
REMARK  Name = 
REMARK  3 active torsions:
REMARK  status: ('A' for Active; 'I' for Inactive)
REMARK    1  A    between atoms: C_1  and  O_2
REMARK    2  A    between atoms: O_2  and  C_3
REMARK    3  A    between atoms: C_8  and  O_9
REMARK                            x       y       z     vdW  Elec       q    Type
REMARK                         _______ _______ _______ _____ _____    ______ ____
ROOT
ATOM      1  C   UNL     1       5.630  14.862  -7.444  0.00  0.00    +0.000 A 
ATOM      2  C   UNL     1       4.834  14.735  -8.581  0.00  0.00    +0.000 A 
ATOM      3  C   UNL     1       5.430  14.635  -9.845  0.00  0.00    +0.000 A 
ATOM      4  C   UNL     1       6.820  14.664  -9.976  0.00  0.00    +0.000 A 
ATOM      5  C   UNL     1       7.622  14.790  -8.844  0.00  0.00    +0.000 A 
ATOM      6  C   UNL     1       7.022  14.888  -7.595  0.00  0.00    +0.000 A 
ENDROOT
BRANCH   1   8
ATOM      7  C   UNL     1       4.609  16.215  -5.779  0.00  0.00    +0.000 C 
ATOM      8  O   UNL     1       5.185  14.969  -6.150  0.00  0.00    +0.000 OA
ENDBRANCH   1   8
BRANCH   6   9
ATOM      9  O   UNL     1       7.831  15.011  -6.497  0.00  0.00    +0.000 OA
ATOM     10  H   UNL     1       8.121  15.944  -6.505  0.00  0.00    +0.000 HD
ENDBRANCH   6   9
TORSDOF 2
ENDMDL
MODEL 5
REMARK VINA RESULT:    -3.527      1.338      2.123
REMARK INTER + INTRA:          -3.888
REMARK INTER:                  -3.848
REMARK INTRA:                  -0.041
REMARK UNBOUND:                -0.052
REMARK  Name = 
REMARK  3 active torsions:
REMARK  status: ('A' for Active; 'I' for Inactive)
REMARK    1  A    between atoms: C_1  and  O_2
REMARK    2  A    between atoms: O_2  and  C_3
REMARK    3  A    between atoms: C_8  and  O_9
REMARK                            x       y       z     vdW  Elec       q    Type
REMARK                         _______ _______ _______ _____ _____    ______ ____
ROOT
ATOM      1  C   UNL     1       6.197  16.682 -10.593  0.00  0.00    +0.000 A 
ATOM      2  C   UNL     1       5.756  15.654  -9.761  0.00  0.00    +0.000 A 
ATOM      3  C   UNL     1       5.854  14.322 -10.183  0.00  0.00    +0.000 A 
ATOM      4  C   UNL     1       6.391  14.013 -11.434  0.00  0.00    +0.000 A 
ATOM      5  C   UNL     1       6.834  15.035 -12.270  0.00  0.00    +0.000 A 
ATOM      6  C   UNL     1       6.733  16.353 -11.844  0.00  0.00    +0.000 A 
ENDROOT
BRANCH   1   8
ATOM      7  C   UNL     1       5.135  18.462  -9.430  0.00  0.00    +0.000 C 
ATOM      8  O   UNL     1       6.162  18.025 -10.313  0.00  0.00    +0.000 OA
ENDBRANCH   1   8
BRANCH   6   9
ATOM      9  O   UNL     1       7.176  17.340 -12.684  0.00  0.00    +0.000 OA
ATOM     10  H   UNL     1       6.402  17.921 -12.814  0.00  0.00    +0.000 HD
ENDBRANCH   6   9
TORSDOF 2
ENDMDL
MODEL 6
REMARK VINA RESULT:    -3.492      2.964      4.009
REMARK INTER + INTRA:          -3.850
REMARK INTER:                  -3.809
REMARK INTRA:                  -0.042
REMARK UNBOUND:                -0.052
REMARK  Name = 
REMARK  3 active torsions:
REMARK  status: ('A' for Active; 'I' for Inactive)
REMARK    1  A    between atoms: C_1  and  O_2
REMARK    2  A    between atoms: O_2  and  C_3
REMARK    3  A    between atoms: C_8  and  O_9
REMARK                            x       y       z     vdW  Elec       q    Type
REMARK                         _______ _______ _______ _____ _____    ______ ____
ROOT
ATOM      1  C   UNL     1       6.030  15.258  -8.360  0.00  0.00    +0.000 A 
ATOM      2  C   UNL     1       4.922  16.077  -8.570  0.00  0.00    +0.000 A 
ATOM      3  C   UNL     1       4.194  16.562  -7.476  0.00  0.00    +0.000 A 
ATOM      4  C   UNL     1       4.569  16.231  -6.173  0.00  0.00    +0.000 A 
ATOM      5  C   UNL     1       5.675  15.413  -5.955  0.00  0.00    +0.000 A 
ATOM      6  C   UNL     1       6.391  14.936  -7.046  0.00  0.00    +0.000 A 
ENDROOT
BRANCH   1   8
ATOM      7  C   UNL     1       6.204  14.396 -10.568  0.00  0.00    +0.000 C 
ATOM      8  O   UNL     1       6.832  14.713  -9.331  0.00  0.00    +0.000 OA
ENDBRANCH   1   8
BRANCH   6   9
ATOM      9  O   UNL     1       7.475  14.134  -6.807  0.00  0.00    +0.000 OA
ATOM     10  H   UNL     1       7.129  13.406  -6.256  0.00  0.00    +0.000 HD
ENDBRANCH   6   9
TORSDOF 2
ENDMDL
MODEL 7
REMARK VINA RESULT:    -3.456      2.325      3.188
REMARK INTER + INTRA:          -3.811
REMARK INTER:                  -3.758
REMARK INTRA:                  -0.052
REMARK UNBOUND:                -0.052
REMARK  Name = 
REMARK  3 active torsions:
REMARK  status: ('A' for Active; 'I' for Inactive)
REMARK    1  A    between atoms: C_1  and  O_2
REMARK    2  A    between atoms: O_2  and  C_3
REMARK    3  A    between atoms: C_8  and  O_9
REMARK                            x       y       z     vdW  Elec       q    Type
REMARK                         _______ _______ _______ _____ _____    ______ ____
ROOT
ATOM      1  C   UNL     1       6.629  15.428  -8.361  0.00  0.00    +0.000 A 
ATOM      2  C   UNL     1       5.325  15.077  -8.017  0.00  0.00    +0.000 A 
ATOM      3  C   UNL     1       4.525  14.375  -8.928  0.00  0.00    +0.000 A 
ATOM      4  C   UNL     1       5.024  14.024 -10.184  0.00  0.00    +0.000 A 
ATOM      5  C   UNL     1       6.327  14.372 -10.535  0.00  0.00    +0.000 A 
ATOM      6  C   UNL     1       7.113  15.068  -9.625  0.00  0.00    +0.000 A 
ENDROOT
BRANCH   1   8
ATOM      7  C   UNL     1       7.997  15.433  -6.418  0.00  0.00    +0.000 C 
ATOM      8  O   UNL     1       7.520  16.112  -7.573  0.00  0.00    +0.000 OA
ENDBRANCH   1   8
BRANCH   6   9
ATOM      9  O   UNL     1       8.389  15.398  -9.994  0.00  0.00    +0.000 OA
ATOM     10  H   UNL     1       8.281  16.095 -10.669  0.00  0.00    +0.000 HD
ENDBRANCH   6   9
TORSDOF 2
ENDMDL
MODEL 8
REMARK VINA RESULT:    -3.440      2.850      4.359
REMARK INTER + INTRA:          -3.794
REMARK INTER:                  -3.750
REMARK INTRA:                  -0.044
REMARK UNBOUND:                -0.052
REMARK  Name = 
REMARK  3 active torsions:
REMARK  status: ('A' for Active; 'I' for Inactive)
REMARK    1  A    between atoms: C_1  and  O_2
REMARK    2  A    between atoms: O_2  and  C_3
REMARK    3  A    between atoms: C_8  and  O_9
REMARK                            x       y       z     vdW  Elec       q    Type
REMARK                         _______ _______ _______ _____ _____    ______ ____
ROOT
ATOM      1  C   UNL     1       4.579  16.294  -8.273  0.00  0.00    +0.000 A 
ATOM      2  C   UNL     1       4.715  14.956  -8.638  0.00  0.00    +0.000 A 
ATOM      3  C   UNL     1       5.520  14.607  -9.730  0.00  0.00    +0.000 A 
ATOM      4  C   UNL     1       6.190  15.591 -10.458  0.00  0.00    +0.000 A 
ATOM      5  C   UNL     1       6.060  16.931 -10.099  0.00  0.00    +0.000 A 
ATOM      6  C   UNL     1       5.259  17.268  -9.015  0.00  0.00    +0.000 A 
ENDROOT
BRANCH   1   8
ATOM      7  C   UNL     1       4.350  16.578  -5.924  0.00  0.00    +0.000 C 
ATOM      8  O   UNL     1       3.827  16.779  -7.232  0.00  0.00    +0.000 OA
ENDBRANCH   1   8
BRANCH   6   9
ATOM      9  O   UNL     1       5.147  18.591  -8.681  0.00  0.00    +0.000 OA
ATOM     10  H   UNL     1       5.712  18.697  -7.892  0.00  0.00    +0.000 HD
ENDBRANCH   6   9
TORSDOF 2
ENDMDL
MODEL 9
REMARK VINA RESULT:    -3.391      3.833      4.735
REMARK INTER + INTRA:          -3.740
REMARK INTER:                  -3.703
REMARK INTRA:                  -0.037
REMARK UNBOUND:                -0.052
REMARK  Name = 
REMARK  3 active torsions:
REMARK  status: ('A' for Active; 'I' for Inactive)
REMARK    1  A    between atoms: C_1  and  O_2
REMARK    2  A    between atoms: O_2  and  C_3
REMARK    3  A    between atoms: C_8  and  O_9
REMARK                            x       y       z     vdW  Elec       q    Type
REMARK                         _______ _______ _______ _____ _____    ______ ____
ROOT
ATOM      1  C   UNL     1       6.942  15.097  -7.085  0.00  0.00    +0.000 A 
ATOM      2  C   UNL     1       7.536  15.043  -8.345  0.00  0.00    +0.000 A 
ATOM      3  C   UNL     1       6.740  14.886  -9.487  0.00  0.00    +0.000 A 
ATOM      4  C   UNL     1       5.352  14.782  -9.374  0.00  0.00    +0.000 A 
ATOM      5  C   UNL     1       4.752  14.835  -8.119  0.00  0.00    +0.000 A 
ATOM      6  C   UNL     1       5.549  14.991  -6.992  0.00  0.00    +0.000 A 
ENDROOT
BRANCH   1   8
ATOM      7  C   UNL     1       9.010  15.362  -5.946  0.00  0.00    +0.000 C 
ATOM      8  O   UNL     1       7.594  15.247  -5.887  0.00  0.00    +0.000 OA
ENDBRANCH   1   8
BRANCH   6   9
ATOM      9  O   UNL     1       4.936  15.041  -5.768  0.00  0.00    +0.000 OA
ATOM     10  H   UNL     1       4.302  15.780  -5.838  0.00  0.00    +0.000 HD
ENDBRANCH   6   9
TORSDOF 2
ENDMDL
