MODEL 1
REMARK VINA RESULT:    -4.722      0.000      0.000
REMARK INTER + INTRA:          -7.079
REMARK INTER:                  -6.378
REMARK INTRA:                  -0.701
REMARK UNBOUND:                -0.701
REMARK  Name = 
REMARK  10 active torsions:
REMARK  status: ('A' for Active; 'I' for Inactive)
REMARK    1  A    between atoms: C_1  and  C_2
REMARK    2  A    between atoms: C_5  and  N_8
REMARK    3  A    between atoms: N_8  and  C_9
REMARK    4  A    between atoms: N_8  and  C_13
REMARK    5  A    between atoms: C_9  and  C_10
REMARK    6  A    between atoms: C_10  and  C_11
REMARK    7  A    between atoms: C_10  and  O_12
REMARK    8  A    between atoms: C_13  and  C_14
REMARK    9  A    between atoms: C_14  and  C_15
REMARK   10  A    between atoms: C_14  and  O_16
REMARK                            x       y       z     vdW  Elec       q    Type
REMARK                         _______ _______ _______ _____ _____    ______ ____
ROOT
ATOM      1  N   UNL     1       6.675  16.301 -10.235  0.00  0.00    +0.000 N 
ENDROOT
BRANCH   1   6
ATOM      2  C   UNL     1       3.270  17.546  -5.742  0.00  0.00    +0.000 C 
ATOM      3  C   UNL     1       4.174  17.227  -6.893  0.00  0.00    +0.000 A 
ATOM      4  C   UNL     1       4.562  18.215  -7.792  0.00  0.00    +0.000 A 
ATOM      5  C   UNL     1       5.385  17.905  -8.887  0.00  0.00    +0.000 A 
ATOM      6  C   UNL     1       5.838  16.600  -9.152  0.00  0.00    +0.000 A 
ATOM      7  C   UNL     1       5.428  15.627  -8.222  0.00  0.00    +0.000 A 
ATOM      8  C   UNL     1       4.607  15.924  -7.122  0.00  0.00    +0.000 A 
ENDBRANCH   1   6
BRANCH   1   9
ATOM      9  C   UNL     1       7.586  15.133 -10.170  0.00  0.00    +0.000 C 
BRANCH   9  10
ATOM     10  C   UNL     1       7.242  14.044 -11.216  0.00  0.00    +0.000 C 
ATOM     11  C   UNL     1       5.733  13.864 -11.338  0.00  0.00    +0.000 C 
BRANCH  10  12
ATOM     12  O   UNL     1       7.754  14.393 -12.509  0.00  0.00    +0.000 OA
ATOM     13  H   UNL     1       8.416  15.095 -12.392  0.00  0.00    +0.000 HD
ENDBRANCH  10  12
ENDBRANCH   9  10
ENDBRANCH   1   9
BRANCH   1  14
ATOM     14  C   UNL     1       7.069  17.346 -11.214  0.00  0.00    +0.000 C 
BRANCH  14  15
ATOM     15  C   UNL     1       6.033  17.498 -12.354  0.00  0.00    +0.000 C 
ATOM     16  C   UNL     1       5.786  18.949 -12.750  0.00  0.00    +0.000 C 
BRANCH  15  17
ATOM     17  O   UNL     1       6.428  16.782 -13.523  0.00  0.00    +0.000 OA
ATOM     18  H   UNL     1       6.320  15.838 -13.290  0.00  0.00    +0.000 HD
ENDBRANCH  15  17
ENDBRANCH  14  15
ENDBRANCH   1  14
TORSDOF 7
ENDMDL
MODEL 2
REMARK VINA RESULT:    -4.617      3.069      6.094
REMARK INTER + INTRA:          -6.938
REMARK INTER:                  -6.490
REMARK INTRA:                  -0.447
REMARK UNBOUND:                -0.701
REMARK  Name = 
REMARK  10 active torsions:
REMARK  status: ('A' for Active; 'I' for Inactive)
REMARK    1  A    between atoms: C_1  and  C_2
REMARK    2  A    between atoms: C_5  and  N_8
REMARK    3  A    between atoms: N_8  and  C_9
REMARK    4  A    between atoms: N_8  and  C_13
REMARK    5  A    between atoms: C_9  and  C_10
REMARK    6  A    between atoms: C_10  and  C_11
REMARK    7  A    between atoms: C_10  and  O_12
REMARK    8  A    between atoms: C_13  and  C_14
REMARK    9  A    between atoms: C_14  and  C_15
REMARK   10  A    between atoms: C_14  and  O_16
REMARK                            x       y       z     vdW  Elec       q    Type
REMARK                         _______ _______ _______ _____ _____    ______ ____
ROOT
ATOM      1  N   UNL     1       5.399  16.391  -7.650  0.00  0.00    +0.000 N 
ENDROOT
BRANCH   1   6
ATOM      2  C   UNL     1       7.086  14.187 -12.712  0.00  0.00    +0.000 C 
ATOM      3  C   UNL     1       6.667  14.746 -11.387  0.00  0.00    +0.000 A 
ATOM      4  C   UNL     1       5.698  14.110 -10.618  0.00  0.00    +0.000 A 
ATOM      5  C   UNL     1       5.287  14.655  -9.390  0.00  0.00    +0.000 A 
ATOM      6  C   UNL     1       5.800  15.863  -8.884  0.00  0.00    +0.000 A 
ATOM      7  C   UNL     1       6.778  16.478  -9.687  0.00  0.00    +0.000 A 
ATOM      8  C   UNL     1       7.200  15.942 -10.915  0.00  0.00    +0.000 A 
ENDBRANCH   1   6
BRANCH   1   9
ATOM      9  C   UNL     1       4.216  17.281  -7.571  0.00  0.00    +0.000 C 
BRANCH   9  10
ATOM     10  C   UNL     1       3.986  17.847  -6.148  0.00  0.00    +0.000 C 
ATOM     11  C   UNL     1       4.255  19.347  -6.108  0.00  0.00    +0.000 C 
BRANCH  10  12
ATOM     12  O   UNL     1       2.635  17.627  -5.719  0.00  0.00    +0.000 OA
ATOM     13  H   UNL     1       2.300  18.456  -5.340  0.00  0.00    +0.000 HD
ENDBRANCH  10  12
ENDBRANCH   9  10
ENDBRANCH   1   9
BRANCH   1  14
ATOM     14  C   UNL     1       6.358  16.524  -6.523  0.00  0.00    +0.000 C 
BRANCH  14  15
ATOM     15  C   UNL     1       6.620  15.173  -5.816  0.00  0.00    +0.000 C 
ATOM     16  C   UNL     1       5.375  14.302  -5.708  0.00  0.00    +0.000 C 
BRANCH  15  17
ATOM     17  O   UNL     1       7.632  14.418  -6.479  0.00  0.00    +0.000 OA
ATOM     18  H   UNL     1       7.418  13.483  -6.285  0.00  0.00    +0.000 HD
ENDBRANCH  15  17
ENDBRANCH  14  15
ENDBRANCH   1  14
TORSDOF 7
ENDMDL
MODEL 3
REMARK VINA RESULT:    -4.608      1.660      2.692
REMARK INTER + INTRA:          -6.926
REMARK INTER:                  -6.504
REMARK INTRA:                  -0.422
REMARK UNBOUND:                -0.701
REMARK  Name = 
REMARK  10 active torsions:
REMARK  status: ('A' for Active; 'I' for Inactive)
REMARK    1  A    between atoms: C_1  and  C_2
REMARK    2  A    between atoms: C_5  and  N_8
REMARK    3  A    between atoms: N_8  and  C_9
REMARK    4  A    between atoms: N_8  and  C_13
REMARK    5  A    between atoms: C_9  and  C_10
REMARK    6  A    between atoms: C_10  and  C_11
REMARK    7  A    between atoms: C_10  and  O_12
REMARK    8  A    between atoms: C_13  and  C_14
REMARK    9  A    between atoms: C_14  and  C_15
REMARK   10  A    between atoms: C_14  and  O_16
REMARK                            x       y       z     vdW  Elec       q    Type
REMARK                         _______ _______ _______ _____ _____    ______ ____
ROOT
ATOM      1  N   UNL     1       6.767  15.279  -9.610  0.00  0.00    +0.000 N 
ENDROOT
BRANCH   1   6
ATOM      2  C   UNL     1       3.180  17.474  -5.655  0.00  0.00    +0.000 C 
ATOM      3  C   UNL     1       4.130  16.918  -6.671  0.00  0.00    +0.000 A 
ATOM      4  C   UNL     1       4.286  17.527  -7.912  0.00  0.00    +0.000 A 
ATOM      5  C   UNL     1       5.155  16.984  -8.872  0.00  0.00    +0.000 A 
ATOM      6  C   UNL     1       5.888  15.804  -8.655  0.00  0.00    +0.000 A 
ATOM      7  C   UNL     1       5.707  15.216  -7.390  0.00  0.00    +0.000 A 
ATOM      8  C   UNL     1       4.843  15.749  -6.419  0.00  0.00    +0.000 A 
ENDBRANCH   1   6
BRANCH   1   9
ATOM      9  C   UNL     1       6.262  14.368 -10.665  0.00  0.00    +0.000 C 
BRANCH   9  10
ATOM     10  C   UNL     1       6.567  14.878 -12.095  0.00  0.00    +0.000 C 
ATOM     11  C   UNL     1       6.689  16.397 -12.118  0.00  0.00    +0.000 C 
BRANCH  10  12
ATOM     12  O   UNL     1       7.797  14.326 -12.586  0.00  0.00    +0.000 OA
ATOM     13  H   UNL     1       8.505  14.570 -11.968  0.00  0.00    +0.000 HD
ENDBRANCH  10  12
ENDBRANCH   9  10
ENDBRANCH   1   9
BRANCH   1  14
ATOM     14  C   UNL     1       8.223  15.170  -9.337  0.00  0.00    +0.000 C 
BRANCH  14  15
ATOM     15  C   UNL     1       8.858  16.540  -8.998  0.00  0.00    +0.000 C 
ATOM     16  C   UNL     1       9.819  16.480  -7.816  0.00  0.00    +0.000 C 
BRANCH  15  17
ATOM     17  O   UNL     1       9.562  17.086 -10.112  0.00  0.00    +0.000 OA
ATOM     18  H   UNL     1       8.892  17.597 -10.609  0.00  0.00    +0.000 HD
ENDBRANCH  15  17
ENDBRANCH  14  15
ENDBRANCH   1  14
TORSDOF 7
ENDMDL
MODEL 4
REMARK VINA RESULT:    -4.557      1.834      3.258
REMARK INTER + INTRA:          -6.856
REMARK INTER:                  -6.271
REMARK INTRA:                  -0.585
REMARK UNBOUND:                -0.701
REMARK  Name = 
REMARK  10 active torsions:
REMARK  status: ('A' for Active; 'I' for Inactive)
REMARK    1  A    between atoms: C_1  and  C_2
REMARK    2  A    between atoms: C_5  and  N_8
REMARK    3  A    between atoms: N_8  and  C_9
REMARK    4  A    between atoms: N_8  and  C_13
REMARK    5  A    between atoms: C_9  and  C_10
REMARK    6  A    between atoms: C_10  and  C_11
REMARK    7  A    between atoms: C_10  and  O_12
REMARK    8  A    between atoms: C_13  and  C_14
REMARK    9  A    between atoms: C_14  and  C_15
REMARK   10  A    between atoms: C_14  and  O_16
REMARK                            x       y       z     vdW  Elec       q    Type
REMARK                         _______ _______ _______ _____ _____    ______ ____
ROOT
ATOM      1  N   UNL     1       7.477  16.631 -10.383  0.00  0.00    +0.000 N 
ENDROOT
BRANCH   1   6
ATOM      2  C   UNL     1       3.407  17.280  -6.339  0.00  0.00    +0.000 C 
ATOM      3  C   UNL     1       4.447  17.097  -7.402  0.00  0.00    +0.000 A 
ATOM      4  C   UNL     1       5.375  16.063  -7.324  0.00  0.00    +0.000 A 
ATOM      5  C   UNL     1       6.366  15.915  -8.307  0.00  0.00    +0.000 A 
ATOM      6  C   UNL     1       6.497  16.797  -9.395  0.00  0.00    +0.000 A 
ATOM      7  C   UNL     1       5.542  17.829  -9.443  0.00  0.00    +0.000 A 
ATOM      8  C   UNL     1       4.544  17.987  -8.468  0.00  0.00    +0.000 A 
ENDBRANCH   1   6
BRANCH   1   9
ATOM      9  C   UNL     1       8.584  17.610 -10.502  0.00  0.00    +0.000 C 
BRANCH   9  10
ATOM     10  C   UNL     1       9.748  17.321  -9.522  0.00  0.00    +0.000 C 
ATOM     11  C   UNL     1       9.558  18.078  -8.213  0.00  0.00    +0.000 C 
BRANCH  10  12
ATOM     12  O   UNL     1       9.830  15.922  -9.218  0.00  0.00    +0.000 OA
ATOM     13  H   UNL     1       9.600  15.803  -8.281  0.00  0.00    +0.000 HD
ENDBRANCH  10  12
ENDBRANCH   9  10
ENDBRANCH   1   9
BRANCH   1  14
ATOM     14  C   UNL     1       7.203  15.845 -11.613  0.00  0.00    +0.000 C 
BRANCH  14  15
ATOM     15  C   UNL     1       7.163  14.322 -11.336  0.00  0.00    +0.000 C 
ATOM     16  C   UNL     1       5.748  13.755 -11.308  0.00  0.00    +0.000 C 
BRANCH  15  17
ATOM     17  O   UNL     1       7.914  13.590 -12.303  0.00  0.00    +0.000 OA
ATOM     18  H   UNL     1       7.555  13.873 -13.168  0.00  0.00    +0.000 HD
ENDBRANCH  15  17
ENDBRANCH  14  15
ENDBRANCH   1  14
TORSDOF 7
ENDMDL
MODEL 5
REMARK VINA RESULT:    -4.395      1.990      4.166
REMARK INTER + INTRA:          -6.638
REMARK INTER:                  -6.084
REMARK INTRA:                  -0.553
REMARK UNBOUND:                -0.701
REMARK  Name = 
REMARK  10 active torsions:
REMARK  status: ('A' for Active; 'I' for Inactive)
REMARK    1  A    between atoms: C_1  and  C_2
REMARK    2  A    between atoms: C_5  and  N_8
REMARK    3  A    between atoms: N_8  and  C_9
REMARK    4  A    between atoms: N_8  and  C_13
REMARK    5  A    between atoms: C_9  and  C_10
REMARK    6  A    between atoms: C_10  and  C_11
REMARK    7  A    between atoms: C_10  and  O_12
REMARK    8  A    between atoms: C_13  and  C_14
REMARK    9  A    between atoms: C_14  and  C_15
REMARK   10  A    between atoms: C_14  and  O_16
REMARK                            x       y       z     vdW  Elec       q    Type
REMARK                         _______ _______ _______ _____ _____    ______ ____
ROOT
ATOM      1  N   UNL     1       6.562  16.067  -9.524  0.00  0.00    +0.000 N 
ENDROOT
BRANCH   1   6
ATOM      2  C   UNL     1       4.328  21.125 -11.183  0.00  0.00    +0.000 C 
ATOM      3  C   UNL     1       4.930  19.823 -10.749  0.00  0.00    +0.000 A 
ATOM      4  C   UNL     1       5.491  18.951 -11.676  0.00  0.00    +0.000 A 
ATOM      5  C   UNL     1       6.027  17.719 -11.267  0.00  0.00    +0.000 A 
ATOM      6  C   UNL     1       6.008  17.288  -9.928  0.00  0.00    +0.000 A 
ATOM      7  C   UNL     1       5.435  18.196  -9.018  0.00  0.00    +0.000 A 
ATOM      8  C   UNL     1       4.898  19.432  -9.414  0.00  0.00    +0.000 A 
ENDBRANCH   1   6
BRANCH   1   9
ATOM      9  C   UNL     1       7.638  15.437 -10.327  0.00  0.00    +0.000 C 
BRANCH   9  10
ATOM     10  C   UNL     1       7.217  14.074 -10.930  0.00  0.00    +0.000 C 
ATOM     11  C   UNL     1       6.751  14.237 -12.372  0.00  0.00    +0.000 C 
BRANCH  10  12
ATOM     12  O   UNL     1       8.311  13.146 -10.918  0.00  0.00    +0.000 OA
ATOM     13  H   UNL     1       8.744  13.180 -11.788  0.00  0.00    +0.000 HD
ENDBRANCH  10  12
ENDBRANCH   9  10
ENDBRANCH   1   9
BRANCH   1  14
ATOM     14  C   UNL     1       5.808  15.133  -8.648  0.00  0.00    +0.000 C 
BRANCH  14  15
ATOM     15  C   UNL     1       6.366  15.108  -7.205  0.00  0.00    +0.000 C 
ATOM     16  C   UNL     1       5.311  14.764  -6.160  0.00  0.00    +0.000 C 
BRANCH  15  17
ATOM     17  O   UNL     1       7.440  14.178  -7.071  0.00  0.00    +0.000 OA
ATOM     18  H   UNL     1       7.068  13.319  -7.357  0.00  0.00    +0.000 HD
ENDBRANCH  15  17
ENDBRANCH  14  15
ENDBRANCH   1  14
TORSDOF 7
ENDMDL
MODEL 6
REMARK VINA RESULT:    -4.360      1.138      2.827
REMARK INTER + INTRA:          -6.590
REMARK INTER:                  -6.235
REMARK INTRA:                  -0.355
REMARK UNBOUND:                -0.701
REMARK  Name = 
REMARK  10 active torsions:
REMARK  status: ('A' for Active; 'I' for Inactive)
REMARK    1  A    between atoms: C_1  and  C_2
REMARK    2  A    between atoms: C_5  and  N_8
REMARK    3  A    between atoms: N_8  and  C_9
REMARK    4  A    between atoms: N_8  and  C_13
REMARK    5  A    between atoms: C_9  and  C_10
REMARK    6  A    between atoms: C_10  and  C_11
REMARK    7  A    between atoms: C_10  and  O_12
REMARK    8  A    between atoms: C_13  and  C_14
REMARK    9  A    between atoms: C_14  and  C_15
REMARK   10  A    between atoms: C_14  and  O_16
REMARK                            x       y       z     vdW  Elec       q    Type
REMARK                         _______ _______ _______ _____ _____    ______ ____
ROOT
ATOM      1  N   UNL     1       7.024  16.091  -9.819  0.00  0.00    +0.000 N 
ENDROOT
BRANCH   1   6
ATOM      2  C   UNL     1       3.237  18.009  -5.907  0.00  0.00    +0.000 C 
ATOM      3  C   UNL     1       4.228  17.495  -6.905  0.00  0.00    +0.000 A 
ATOM      4  C   UNL     1       5.484  18.080  -7.032  0.00  0.00    +0.000 A 
ATOM      5  C   UNL     1       6.398  17.613  -7.990  0.00  0.00    +0.000 A 
ATOM      6  C   UNL     1       6.100  16.564  -8.879  0.00  0.00    +0.000 A 
ATOM      7  C   UNL     1       4.823  15.996  -8.721  0.00  0.00    +0.000 A 
ATOM      8  C   UNL     1       3.900  16.451  -7.766  0.00  0.00    +0.000 A 
ENDBRANCH   1   6
BRANCH   1   9
ATOM      9  C   UNL     1       7.563  17.003 -10.856  0.00  0.00    +0.000 C 
BRANCH   9  10
ATOM     10  C   UNL     1       6.455  17.633 -11.736  0.00  0.00    +0.000 C 
ATOM     11  C   UNL     1       6.344  19.132 -11.483  0.00  0.00    +0.000 C 
BRANCH  10  12
ATOM     12  O   UNL     1       6.731  17.437 -13.130  0.00  0.00    +0.000 OA
ATOM     13  H   UNL     1       7.030  18.284 -13.500  0.00  0.00    +0.000 HD
ENDBRANCH  10  12
ENDBRANCH   9  10
ENDBRANCH   1   9
BRANCH   1  14
ATOM     14  C   UNL     1       7.110  14.646 -10.153  0.00  0.00    +0.000 C 
BRANCH  14  15
ATOM     15  C   UNL     1       6.421  14.316 -11.499  0.00  0.00    +0.000 C 
ATOM     16  C   UNL     1       7.405  13.939 -12.600  0.00  0.00    +0.000 C 
BRANCH  15  17
ATOM     17  O   UNL     1       5.481  13.251 -11.363  0.00  0.00    +0.000 OA
ATOM     18  H   UNL     1       5.050  13.403 -10.498  0.00  0.00    +0.000 HD
ENDBRANCH  15  17
ENDBRANCH  14  15
ENDBRANCH   1  14
TORSDOF 7
ENDMDL
MODEL 7
REMARK VINA RESULT:    -4.314      1.962      4.819
REMARK INTER + INTRA:          -6.528
REMARK INTER:                  -6.009
REMARK INTRA:                  -0.519
REMARK UNBOUND:                -0.701
REMARK  Name = 
REMARK  10 active torsions:
REMARK  status: ('A' for Active; 'I' for Inactive)
REMARK    1  A    between atoms: C_1  and  C_2
REMARK    2  A    between atoms: C_5  and  N_8
REMARK    3  A    between atoms: N_8  and  C_9
REMARK    4  A    between atoms: N_8  and  C_13
REMARK    5  A    between atoms: C_9  and  C_10
REMARK    6  A    between atoms: C_10  and  C_11
REMARK    7  A    between atoms: C_10  and  O_12
REMARK    8  A    between atoms: C_13  and  C_14
REMARK    9  A    between atoms: C_14  and  C_15
REMARK   10  A    between atoms: C_14  and  O_16
REMARK                            x       y       z     vdW  Elec       q    Type
REMARK                         _______ _______ _______ _____ _____    ______ ____
ROOT
ATOM      1  N   UNL     1       6.390  16.627 -10.487  0.00  0.00    +0.000 N 
ENDROOT
BRANCH   1   6
ATOM      2  C   UNL     1       4.567  20.799 -14.036  0.00  0.00    +0.000 C 
ATOM      3  C   UNL     1       5.018  19.705 -13.118  0.00  0.00    +0.000 A 
ATOM      4  C   UNL     1       4.812  19.793 -11.746  0.00  0.00    +0.000 A 
ATOM      5  C   UNL     1       5.263  18.778 -10.887  0.00  0.00    +0.000 A 
ATOM      6  C   UNL     1       5.959  17.645 -11.347  0.00  0.00    +0.000 A 
ATOM      7  C   UNL     1       6.149  17.588 -12.740  0.00  0.00    +0.000 A 
ATOM      8  C   UNL     1       5.700  18.595 -13.610  0.00  0.00    +0.000 A 
ENDBRANCH   1   6
BRANCH   1   9
ATOM      9  C   UNL     1       6.102  16.710  -9.035  0.00  0.00    +0.000 C 
BRANCH   9  10
ATOM     10  C   UNL     1       4.873  15.866  -8.618  0.00  0.00    +0.000 C 
ATOM     11  C   UNL     1       5.260  14.808  -7.591  0.00  0.00    +0.000 C 
BRANCH  10  12
ATOM     12  O   UNL     1       3.852  16.692  -8.041  0.00  0.00    +0.000 OA
ATOM     13  H   UNL     1       3.892  17.564  -8.469  0.00  0.00    +0.000 HD
ENDBRANCH  10  12
ENDBRANCH   9  10
ENDBRANCH   1   9
BRANCH   1  14
ATOM     14  C   UNL     1       7.530  15.746 -10.848  0.00  0.00    +0.000 C 
BRANCH  14  15
ATOM     15  C   UNL     1       7.097  14.271 -11.021  0.00  0.00    +0.000 C 
ATOM     16  C   UNL     1       6.455  13.989 -12.374  0.00  0.00    +0.000 C 
BRANCH  15  17
ATOM     17  O   UNL     1       8.196  13.376 -10.858  0.00  0.00    +0.000 OA
ATOM     18  H   UNL     1       8.922  13.770 -11.383  0.00  0.00    +0.000 HD
ENDBRANCH  15  17
ENDBRANCH  14  15
ENDBRANCH   1  14
TORSDOF 7
ENDMDL
MODEL 8
REMARK VINA RESULT:    -4.312      1.971      4.859
REMARK INTER + INTRA:          -6.526
REMARK INTER:                  -5.991
REMARK INTRA:                  -0.535
REMARK UNBOUND:                -0.701
REMARK  Name = 
REMARK  10 active torsions:
REMARK  status: ('A' for Active; 'I' for Inactive)
REMARK    1  A    between atoms: C_1  and  C_2
REMARK    2  A    between atoms: C_5  and  N_8
REMARK    3  A    between atoms: N_8  and  C_9
REMARK    4  A    between atoms: N_8  and  C_13
REMARK    5  A    between atoms: C_9  and  C_10
REMARK    6  A    between atoms: C_10  and  C_11
REMARK    7  A    between atoms: C_10  and  O_12
REMARK    8  A    between atoms: C_13  and  C_14
REMARK    9  A    between atoms: C_14  and  C_15
REMARK   10  A    between atoms: C_14  and  O_16
REMARK                            x       y       z     vdW  Elec       q    Type
REMARK                         _______ _______ _______ _____ _____    ______ ____
ROOT
ATOM      1  N   UNL     1       6.358  16.627 -10.499  0.00  0.00    +0.000 N 
ENDROOT
BRANCH   1   6
ATOM      2  C   UNL     1       4.533  20.826 -14.015  0.00  0.00    +0.000 C 
ATOM      3  C   UNL     1       5.029  19.749 -13.100  0.00  0.00    +0.000 A 
ATOM      4  C   UNL     1       5.686  18.631 -13.602  0.00  0.00    +0.000 A 
ATOM      5  C   UNL     1       6.122  17.610 -12.742  0.00  0.00    +0.000 A 
ATOM      6  C   UNL     1       5.904  17.640 -11.353  0.00  0.00    +0.000 A 
ATOM      7  C   UNL     1       5.238  18.785 -10.880  0.00  0.00    +0.000 A 
ATOM      8  C   UNL     1       4.799  19.815 -11.728  0.00  0.00    +0.000 A 
ENDBRANCH   1   6
BRANCH   1   9
ATOM      9  C   UNL     1       6.095  16.709  -9.042  0.00  0.00    +0.000 C 
BRANCH   9  10
ATOM     10  C   UNL     1       4.859  15.883  -8.608  0.00  0.00    +0.000 C 
ATOM     11  C   UNL     1       5.249  14.808  -7.601  0.00  0.00    +0.000 C 
BRANCH  10  12
ATOM     12  O   UNL     1       3.867  16.723  -8.001  0.00  0.00    +0.000 OA
ATOM     13  H   UNL     1       4.208  17.017  -7.140  0.00  0.00    +0.000 HD
ENDBRANCH  10  12
ENDBRANCH   9  10
ENDBRANCH   1   9
BRANCH   1  14
ATOM     14  C   UNL     1       7.499  15.755 -10.879  0.00  0.00    +0.000 C 
BRANCH  14  15
ATOM     15  C   UNL     1       7.080  14.272 -11.020  0.00  0.00    +0.000 C 
ATOM     16  C   UNL     1       6.422  13.960 -12.359  0.00  0.00    +0.000 C 
BRANCH  15  17
ATOM     17  O   UNL     1       8.191  13.392 -10.858  0.00  0.00    +0.000 OA
ATOM     18  H   UNL     1       7.980  12.863 -10.062  0.00  0.00    +0.000 HD
ENDBRANCH  15  17
ENDBRANCH  14  15
ENDBRANCH   1  14
TORSDOF 7
ENDMDL
MODEL 9
REMARK VINA RESULT:    -3.744      3.268      5.496
REMARK INTER + INTRA:          -5.759
REMARK INTER:                  -5.208
REMARK INTRA:                  -0.551
REMARK UNBOUND:                -0.701
REMARK  Name = 
REMARK  10 active torsions:
REMARK  status: ('A' for Active; 'I' for Inactive)
REMARK    1  A    between atoms: C_1  and  C_2
REMARK    2  A    between atoms: C_5  and  N_8
REMARK    3  A    between atoms: N_8  and  C_9
REMARK    4  A    between atoms: N_8  and  C_13
REMARK    5  A    between atoms: C_9  and  C_10
REMARK    6  A    between atoms: C_10  and  C_11
REMARK    7  A    between atoms: C_10  and  O_12
REMARK    8  A    between atoms: C_13  and  C_14
REMARK    9  A    between atoms: C_14  and  C_15
REMARK   10  A    between atoms: C_14  and  O_16
REMARK                            x       y       z     vdW  Elec       q    Type
REMARK                         _______ _______ _______ _____ _____    ______ ____
ROOT
ATOM      1  N   UNL     1       4.938  16.041  -7.418  0.00  0.00    +0.000 N 
ENDROOT
BRANCH   1   6
ATOM      2  C   UNL     1       6.982  14.274 -12.519  0.00  0.00    +0.000 C 
ATOM      3  C   UNL     1       6.433  14.745 -11.207  0.00  0.00    +0.000 A 
ATOM      4  C   UNL     1       6.901  15.913 -10.616  0.00  0.00    +0.000 A 
ATOM      5  C   UNL     1       6.405  16.334  -9.371  0.00  0.00    +0.000 A 
ATOM      6  C   UNL     1       5.443  15.606  -8.649  0.00  0.00    +0.000 A 
ATOM      7  C   UNL     1       4.991  14.431  -9.278  0.00  0.00    +0.000 A 
ATOM      8  C   UNL     1       5.477  14.000 -10.524  0.00  0.00    +0.000 A 
ENDBRANCH   1   6
BRANCH   1   9
ATOM      9  C   UNL     1       5.278  15.310  -6.174  0.00  0.00    +0.000 C 
BRANCH   9  10
ATOM     10  C   UNL     1       6.699  15.639  -5.653  0.00  0.00    +0.000 C 
ATOM     11  C   UNL     1       7.726  14.664  -6.218  0.00  0.00    +0.000 C 
BRANCH  10  12
ATOM     12  O   UNL     1       7.091  16.966  -6.032  0.00  0.00    +0.000 OA
ATOM     13  H   UNL     1       8.059  17.022  -5.975  0.00  0.00    +0.000 HD
ENDBRANCH  10  12
ENDBRANCH   9  10
ENDBRANCH   1   9
BRANCH   1  14
ATOM     14  C   UNL     1       3.703  16.864  -7.340  0.00  0.00    +0.000 C 
BRANCH  14  15
ATOM     15  C   UNL     1       3.694  17.788  -6.099  0.00  0.00    +0.000 C 
ATOM     16  C   UNL     1       4.392  19.122  -6.339  0.00  0.00    +0.000 C 
BRANCH  15  17
ATOM     17  O   UNL     1       2.366  18.059  -5.654  0.00  0.00    +0.000 OA
ATOM     18  H   UNL     1       1.875  17.226  -5.802  0.00  0.00    +0.000 HD
ENDBRANCH  15  17
ENDBRANCH  14  15
ENDBRANCH   1  14
TORSDOF 7
ENDMDL
