MODEL 1
REMARK VINA RESULT:    -4.721      0.000      0.000
REMARK INTER + INTRA:          -7.065
REMARK INTER:                  -6.377
REMARK INTRA:                  -0.687
REMARK UNBOUND:                -0.687
REMARK  Name = 
REMARK  10 active torsions:
REMARK  status: ('A' for Active; 'I' for Inactive)
REMARK    1  A    between atoms: C_1  and  C_2
REMARK    2  A    between atoms: C_5  and  N_8
REMARK    3  A    between atoms: N_8  and  C_9
REMARK    4  A    between atoms: N_8  and  C_13
REMARK    5  A    between atoms: C_9  and  C_10
REMARK    6  A    between atoms: C_10  and  C_11
REMARK    7  A    between atoms: C_10  and  O_12
REMARK    8  A    between atoms: C_13  and  C_14
REMARK    9  A    between atoms: C_14  and  C_15
REMARK   10  A    between atoms: C_14  and  O_16
REMARK                            x       y       z     vdW  Elec       q    Type
REMARK                         _______ _______ _______ _____ _____    ______ ____
ROOT
ATOM      1  N   UNL     1       6.688  16.311 -10.204  0.00  0.00    +0.000 N 
ENDROOT
BRANCH   1   6
ATOM      2  C   UNL     1       3.254  17.553  -5.733  0.00  0.00    +0.000 C 
ATOM      3  C   UNL     1       4.165  17.235  -6.879  0.00  0.00    +0.000 A 
ATOM      4  C   UNL     1       4.572  18.226  -7.765  0.00  0.00    +0.000 A 
ATOM      5  C   UNL     1       5.402  17.916  -8.855  0.00  0.00    +0.000 A 
ATOM      6  C   UNL     1       5.845  16.609  -9.127  0.00  0.00    +0.000 A 
ATOM      7  C   UNL     1       5.416  15.633  -8.209  0.00  0.00    +0.000 A 
ATOM      8  C   UNL     1       4.588  15.929  -7.114  0.00  0.00    +0.000 A 
ENDBRANCH   1   6
BRANCH   1   9
ATOM      9  C   UNL     1       7.594  15.138 -10.137  0.00  0.00    +0.000 C 
BRANCH   9  10
ATOM     10  C   UNL     1       7.250  14.053 -11.186  0.00  0.00    +0.000 C 
ATOM     11  C   UNL     1       5.742  13.866 -11.301  0.00  0.00    +0.000 C 
BRANCH  10  12
ATOM     12  O   UNL     1       7.754  14.409 -12.480  0.00  0.00    +0.000 OA
ATOM     13  H   UNL     1       7.873  13.592 -12.992  0.00  0.00    +0.000 HD
ENDBRANCH  10  12
ENDBRANCH   9  10
ENDBRANCH   1   9
BRANCH   1  14
ATOM     14  C   UNL     1       7.094  17.358 -11.177  0.00  0.00    +0.000 C 
BRANCH  14  15
ATOM     15  C   UNL     1       6.064  17.525 -12.319  0.00  0.00    +0.000 C 
ATOM     16  C   UNL     1       5.861  18.977 -12.736  0.00  0.00    +0.000 C 
BRANCH  15  17
ATOM     17  O   UNL     1       6.435  16.781 -13.478  0.00  0.00    +0.000 OA
ATOM     18  H   UNL     1       7.089  16.127 -13.159  0.00  0.00    +0.000 HD
ENDBRANCH  15  17
ENDBRANCH  14  15
ENDBRANCH   1  14
TORSDOF 7
ENDMDL
MODEL 2
REMARK VINA RESULT:    -4.597      3.258      5.466
REMARK INTER + INTRA:          -6.897
REMARK INTER:                  -6.331
REMARK INTRA:                  -0.566
REMARK UNBOUND:                -0.687
REMARK  Name = 
REMARK  10 active torsions:
REMARK  status: ('A' for Active; 'I' for Inactive)
REMARK    1  A    between atoms: C_1  and  C_2
REMARK    2  A    between atoms: C_5  and  N_8
REMARK    3  A    between atoms: N_8  and  C_9
REMARK    4  A    between atoms: N_8  and  C_13
REMARK    5  A    between atoms: C_9  and  C_10
REMARK    6  A    between atoms: C_10  and  C_11
REMARK    7  A    between atoms: C_10  and  O_12
REMARK    8  A    between atoms: C_13  and  C_14
REMARK    9  A    between atoms: C_14  and  C_15
REMARK   10  A    between atoms: C_14  and  O_16
REMARK                            x       y       z     vdW  Elec       q    Type
REMARK                         _______ _______ _______ _____ _____    ______ ____
ROOT
ATOM      1  N   UNL     1       4.954  16.116  -7.456  0.00  0.00    +0.000 N 
ENDROOT
BRANCH   1   6
ATOM      2  C   UNL     1       6.987  14.295 -12.543  0.00  0.00    +0.000 C 
ATOM      3  C   UNL     1       6.440  14.779 -11.235  0.00  0.00    +0.000 A 
ATOM      4  C   UNL     1       6.849  15.993 -10.695  0.00  0.00    +0.000 A 
ATOM      5  C   UNL     1       6.356  16.427  -9.453  0.00  0.00    +0.000 A 
ATOM      6  C   UNL     1       5.457  15.668  -8.684  0.00  0.00    +0.000 A 
ATOM      7  C   UNL     1       5.063  14.447  -9.261  0.00  0.00    +0.000 A 
ATOM      8  C   UNL     1       5.547  14.002 -10.503  0.00  0.00    +0.000 A 
ENDBRANCH   1   6
BRANCH   1   9
ATOM      9  C   UNL     1       5.249  15.363  -6.213  0.00  0.00    +0.000 C 
BRANCH   9  10
ATOM     10  C   UNL     1       6.663  15.656  -5.655  0.00  0.00    +0.000 C 
ATOM     11  C   UNL     1       7.691  14.699  -6.247  0.00  0.00    +0.000 C 
BRANCH  10  12
ATOM     12  O   UNL     1       7.072  16.995  -5.966  0.00  0.00    +0.000 OA
ATOM     13  H   UNL     1       6.289  17.488  -6.263  0.00  0.00    +0.000 HD
ENDBRANCH  10  12
ENDBRANCH   9  10
ENDBRANCH   1   9
BRANCH   1  14
ATOM     14  C   UNL     1       3.753  16.987  -7.388  0.00  0.00    +0.000 C 
BRANCH  14  15
ATOM     15  C   UNL     1       3.772  17.914  -6.149  0.00  0.00    +0.000 C 
ATOM     16  C   UNL     1       4.433  19.260  -6.418  0.00  0.00    +0.000 C 
BRANCH  15  17
ATOM     17  O   UNL     1       2.456  18.159  -5.654  0.00  0.00    +0.000 OA
ATOM     18  H   UNL     1       2.540  18.109  -4.680  0.00  0.00    +0.000 HD
ENDBRANCH  15  17
ENDBRANCH  14  15
ENDBRANCH   1  14
TORSDOF 7
ENDMDL
MODEL 3
REMARK VINA RESULT:    -4.593      3.051      5.975
REMARK INTER + INTRA:          -6.891
REMARK INTER:                  -6.455
REMARK INTRA:                  -0.436
REMARK UNBOUND:                -0.687
REMARK  Name = 
REMARK  10 active torsions:
REMARK  status: ('A' for Active; 'I' for Inactive)
REMARK    1  A    between atoms: C_1  and  C_2
REMARK    2  A    between atoms: C_5  and  N_8
REMARK    3  A    between atoms: N_8  and  C_9
REMARK    4  A    between atoms: N_8  and  C_13
REMARK    5  A    between atoms: C_9  and  C_10
REMARK    6  A    between atoms: C_10  and  C_11
REMARK    7  A    between atoms: C_10  and  O_12
REMARK    8  A    between atoms: C_13  and  C_14
REMARK    9  A    between atoms: C_14  and  C_15
REMARK   10  A    between atoms: C_14  and  O_16
REMARK                            x       y       z     vdW  Elec       q    Type
REMARK                         _______ _______ _______ _____ _____    ______ ____
ROOT
ATOM      1  N   UNL     1       5.453  16.467  -7.651  0.00  0.00    +0.000 N 
ENDROOT
BRANCH   1   6
ATOM      2  C   UNL     1       6.991  14.249 -12.755  0.00  0.00    +0.000 C 
ATOM      3  C   UNL     1       6.572  14.836 -11.441  0.00  0.00    +0.000 A 
ATOM      4  C   UNL     1       7.074  16.060 -11.013  0.00  0.00    +0.000 A 
ATOM      5  C   UNL     1       6.702  16.591  -9.768  0.00  0.00    +0.000 A 
ATOM      6  C   UNL     1       5.836  15.922  -8.884  0.00  0.00    +0.000 A 
ATOM      7  C   UNL     1       5.346  14.688  -9.350  0.00  0.00    +0.000 A 
ATOM      8  C   UNL     1       5.709  14.147 -10.594  0.00  0.00    +0.000 A 
ENDBRANCH   1   6
BRANCH   1   9
ATOM      9  C   UNL     1       4.303  17.400  -7.576  0.00  0.00    +0.000 C 
BRANCH   9  10
ATOM     10  C   UNL     1       4.005  17.869  -6.131  0.00  0.00    +0.000 C 
ATOM     11  C   UNL     1       4.209  19.373  -5.993  0.00  0.00    +0.000 C 
BRANCH  10  12
ATOM     12  O   UNL     1       2.652  17.569  -5.761  0.00  0.00    +0.000 OA
ATOM     13  H   UNL     1       2.652  17.266  -4.837  0.00  0.00    +0.000 HD
ENDBRANCH  10  12
ENDBRANCH   9  10
ENDBRANCH   1   9
BRANCH   1  14
ATOM     14  C   UNL     1       6.414  16.568  -6.523  0.00  0.00    +0.000 C 
BRANCH  14  15
ATOM     15  C   UNL     1       6.663  15.200  -5.843  0.00  0.00    +0.000 C 
ATOM     16  C   UNL     1       5.400  14.355  -5.716  0.00  0.00    +0.000 C 
BRANCH  15  17
ATOM     17  O   UNL     1       7.639  14.432  -6.544  0.00  0.00    +0.000 OA
ATOM     18  H   UNL     1       7.135  13.711  -6.971  0.00  0.00    +0.000 HD
ENDBRANCH  15  17
ENDBRANCH  14  15
ENDBRANCH   1  14
TORSDOF 7
ENDMDL
MODEL 4
REMARK VINA RESULT:    -4.520      1.720      3.022
REMARK INTER + INTRA:          -6.793
REMARK INTER:                  -6.272
REMARK INTRA:                  -0.521
REMARK UNBOUND:                -0.687
REMARK  Name = 
REMARK  10 active torsions:
REMARK  status: ('A' for Active; 'I' for Inactive)
REMARK    1  A    between atoms: C_1  and  C_2
REMARK    2  A    between atoms: C_5  and  N_8
REMARK    3  A    between atoms: N_8  and  C_9
REMARK    4  A    between atoms: N_8  and  C_13
REMARK    5  A    between atoms: C_9  and  C_10
REMARK    6  A    between atoms: C_10  and  C_11
REMARK    7  A    between atoms: C_10  and  O_12
REMARK    8  A    between atoms: C_13  and  C_14
REMARK    9  A    between atoms: C_14  and  C_15
REMARK   10  A    between atoms: C_14  and  O_16
REMARK                            x       y       z     vdW  Elec       q    Type
REMARK                         _______ _______ _______ _____ _____    ______ ____
ROOT
ATOM      1  N   UNL     1       7.311  16.638 -10.612  0.00  0.00    +0.000 N 
ENDROOT
BRANCH   1   6
ATOM      2  C   UNL     1       3.371  17.328  -6.449  0.00  0.00    +0.000 C 
ATOM      3  C   UNL     1       4.410  17.160  -7.514  0.00  0.00    +0.000 A 
ATOM      4  C   UNL     1       4.599  18.134  -8.489  0.00  0.00    +0.000 A 
ATOM      5  C   UNL     1       5.555  17.957  -9.503  0.00  0.00    +0.000 A 
ATOM      6  C   UNL     1       6.346  16.799  -9.609  0.00  0.00    +0.000 A 
ATOM      7  C   UNL     1       6.130  15.836  -8.606  0.00  0.00    +0.000 A 
ATOM      8  C   UNL     1       5.180  16.002  -7.585  0.00  0.00    +0.000 A 
ENDBRANCH   1   6
BRANCH   1   9
ATOM      9  C   UNL     1       8.384  17.647 -10.780  0.00  0.00    +0.000 C 
BRANCH   9  10
ATOM     10  C   UNL     1       9.548  17.459  -9.776  0.00  0.00    +0.000 C 
ATOM     11  C   UNL     1       9.348  18.328  -8.541  0.00  0.00    +0.000 C 
BRANCH  10  12
ATOM     12  O   UNL     1       9.642  16.093  -9.348  0.00  0.00    +0.000 OA
ATOM     13  H   UNL     1      10.180  16.067  -8.539  0.00  0.00    +0.000 HD
ENDBRANCH  10  12
ENDBRANCH   9  10
ENDBRANCH   1   9
BRANCH   1  14
ATOM     14  C   UNL     1       7.039  15.809 -11.814  0.00  0.00    +0.000 C 
BRANCH  14  15
ATOM     15  C   UNL     1       7.111  14.294 -11.508  0.00  0.00    +0.000 C 
ATOM     16  C   UNL     1       5.746  13.616 -11.511  0.00  0.00    +0.000 C 
BRANCH  15  17
ATOM     17  O   UNL     1       7.948  13.607 -12.438  0.00  0.00    +0.000 OA
ATOM     18  H   UNL     1       8.433  14.313 -12.910  0.00  0.00    +0.000 HD
ENDBRANCH  15  17
ENDBRANCH  14  15
ENDBRANCH   1  14
TORSDOF 7
ENDMDL
MODEL 5
REMARK VINA RESULT:    -4.399      1.992      4.180
REMARK INTER + INTRA:          -6.630
REMARK INTER:                  -6.108
REMARK INTRA:                  -0.522
REMARK UNBOUND:                -0.687
REMARK  Name = 
REMARK  10 active torsions:
REMARK  status: ('A' for Active; 'I' for Inactive)
REMARK    1  A    between atoms: C_1  and  C_2
REMARK    2  A    between atoms: C_5  and  N_8
REMARK    3  A    between atoms: N_8  and  C_9
REMARK    4  A    between atoms: N_8  and  C_13
REMARK    5  A    between atoms: C_9  and  C_10
REMARK    6  A    between atoms: C_10  and  C_11
REMARK    7  A    between atoms: C_10  and  O_12
REMARK    8  A    between atoms: C_13  and  C_14
REMARK    9  A    between atoms: C_14  and  C_15
REMARK   10  A    between atoms: C_14  and  O_16
REMARK                            x       y       z     vdW  Elec       q    Type
REMARK                         _______ _______ _______ _____ _____    ______ ____
ROOT
ATOM      1  N   UNL     1       6.578  16.065  -9.476  0.00  0.00    +0.000 N 
ENDROOT
BRANCH   1   6
ATOM      2  C   UNL     1       4.374  21.114 -11.200  0.00  0.00    +0.000 C 
ATOM      3  C   UNL     1       4.968  19.815 -10.749  0.00  0.00    +0.000 A 
ATOM      4  C   UNL     1       5.532  18.932 -11.663  0.00  0.00    +0.000 A 
ATOM      5  C   UNL     1       6.060  17.702 -11.239  0.00  0.00    +0.000 A 
ATOM      6  C   UNL     1       6.031  17.284  -9.896  0.00  0.00    +0.000 A 
ATOM      7  C   UNL     1       5.456  18.203  -8.999  0.00  0.00    +0.000 A 
ATOM      8  C   UNL     1       4.926  19.437  -9.410  0.00  0.00    +0.000 A 
ENDBRANCH   1   6
BRANCH   1   9
ATOM      9  C   UNL     1       7.665  15.429 -10.259  0.00  0.00    +0.000 C 
BRANCH   9  10
ATOM     10  C   UNL     1       7.240  14.080 -10.890  0.00  0.00    +0.000 C 
ATOM     11  C   UNL     1       6.776  14.274 -12.329  0.00  0.00    +0.000 C 
BRANCH  10  12
ATOM     12  O   UNL     1       8.330  13.148 -10.897  0.00  0.00    +0.000 OA
ATOM     13  H   UNL     1       9.133  13.626 -11.164  0.00  0.00    +0.000 HD
ENDBRANCH  10  12
ENDBRANCH   9  10
ENDBRANCH   1   9
BRANCH   1  14
ATOM     14  C   UNL     1       5.810  15.137  -8.606  0.00  0.00    +0.000 C 
BRANCH  14  15
ATOM     15  C   UNL     1       6.356  15.110  -7.158  0.00  0.00    +0.000 C 
ATOM     16  C   UNL     1       5.316  14.671  -6.133  0.00  0.00    +0.000 C 
BRANCH  15  17
ATOM     17  O   UNL     1       7.486  14.248  -7.036  0.00  0.00    +0.000 OA
ATOM     18  H   UNL     1       7.190  13.524  -6.448  0.00  0.00    +0.000 HD
ENDBRANCH  15  17
ENDBRANCH  14  15
ENDBRANCH   1  14
TORSDOF 7
ENDMDL
MODEL 6
REMARK VINA RESULT:    -4.376      1.142      2.963
REMARK INTER + INTRA:          -6.598
REMARK INTER:                  -6.230
REMARK INTRA:                  -0.369
REMARK UNBOUND:                -0.687
REMARK  Name = 
REMARK  10 active torsions:
REMARK  status: ('A' for Active; 'I' for Inactive)
REMARK    1  A    between atoms: C_1  and  C_2
REMARK    2  A    between atoms: C_5  and  N_8
REMARK    3  A    between atoms: N_8  and  C_9
REMARK    4  A    between atoms: N_8  and  C_13
REMARK    5  A    between atoms: C_9  and  C_10
REMARK    6  A    between atoms: C_10  and  C_11
REMARK    7  A    between atoms: C_10  and  O_12
REMARK    8  A    between atoms: C_13  and  C_14
REMARK    9  A    between atoms: C_14  and  C_15
REMARK   10  A    between atoms: C_14  and  O_16
REMARK                            x       y       z     vdW  Elec       q    Type
REMARK                         _______ _______ _______ _____ _____    ______ ____
ROOT
ATOM      1  N   UNL     1       7.060  16.096  -9.812  0.00  0.00    +0.000 N 
ENDROOT
BRANCH   1   6
ATOM      2  C   UNL     1       3.259  18.042  -5.927  0.00  0.00    +0.000 C 
ATOM      3  C   UNL     1       4.237  17.554  -6.952  0.00  0.00    +0.000 A 
ATOM      4  C   UNL     1       3.912  16.506  -7.807  0.00  0.00    +0.000 A 
ATOM      5  C   UNL     1       4.844  16.033  -8.745  0.00  0.00    +0.000 A 
ATOM      6  C   UNL     1       6.142  16.560  -8.861  0.00  0.00    +0.000 A 
ATOM      7  C   UNL     1       6.435  17.620  -7.982  0.00  0.00    +0.000 A 
ATOM      8  C   UNL     1       5.512  18.104  -7.041  0.00  0.00    +0.000 A 
ENDBRANCH   1   6
BRANCH   1   9
ATOM      9  C   UNL     1       7.589  17.018 -10.846  0.00  0.00    +0.000 C 
BRANCH   9  10
ATOM     10  C   UNL     1       6.473  17.653 -11.712  0.00  0.00    +0.000 C 
ATOM     11  C   UNL     1       6.337  19.143 -11.420  0.00  0.00    +0.000 C 
BRANCH  10  12
ATOM     12  O   UNL     1       6.755  17.498 -13.110  0.00  0.00    +0.000 OA
ATOM     13  H   UNL     1       5.908  17.465 -13.586  0.00  0.00    +0.000 HD
ENDBRANCH  10  12
ENDBRANCH   9  10
ENDBRANCH   1   9
BRANCH   1  14
ATOM     14  C   UNL     1       7.145  14.655 -10.159  0.00  0.00    +0.000 C 
BRANCH  14  15
ATOM     15  C   UNL     1       6.452  14.335 -11.505  0.00  0.00    +0.000 C 
ATOM     16  C   UNL     1       7.432  13.950 -12.607  0.00  0.00    +0.000 C 
BRANCH  15  17
ATOM     17  O   UNL     1       5.501  13.280 -11.371  0.00  0.00    +0.000 OA
ATOM     18  H   UNL     1       5.270  13.030 -12.288  0.00  0.00    +0.000 HD
ENDBRANCH  15  17
ENDBRANCH  14  15
ENDBRANCH   1  14
TORSDOF 7
ENDMDL
MODEL 7
REMARK VINA RESULT:    -4.337      1.971      4.814
REMARK INTER + INTRA:          -6.546
REMARK INTER:                  -6.015
REMARK INTRA:                  -0.531
REMARK UNBOUND:                -0.687
REMARK  Name = 
REMARK  10 active torsions:
REMARK  status: ('A' for Active; 'I' for Inactive)
REMARK    1  A    between atoms: C_1  and  C_2
REMARK    2  A    between atoms: C_5  and  N_8
REMARK    3  A    between atoms: N_8  and  C_9
REMARK    4  A    between atoms: N_8  and  C_13
REMARK    5  A    between atoms: C_9  and  C_10
REMARK    6  A    between atoms: C_10  and  C_11
REMARK    7  A    between atoms: C_10  and  O_12
REMARK    8  A    between atoms: C_13  and  C_14
REMARK    9  A    between atoms: C_14  and  C_15
REMARK   10  A    between atoms: C_14  and  O_16
REMARK                            x       y       z     vdW  Elec       q    Type
REMARK                         _______ _______ _______ _____ _____    ______ ____
ROOT
ATOM      1  N   UNL     1       6.385  16.642 -10.511  0.00  0.00    +0.000 N 
ENDROOT
BRANCH   1   6
ATOM      2  C   UNL     1       4.544  20.865 -13.990  0.00  0.00    +0.000 C 
ATOM      3  C   UNL     1       5.000  19.757 -13.090  0.00  0.00    +0.000 A 
ATOM      4  C   UNL     1       4.809  19.830 -11.714  0.00  0.00    +0.000 A 
ATOM      5  C   UNL     1       5.265  18.803 -10.873  0.00  0.00    +0.000 A 
ATOM      6  C   UNL     1       5.950  17.672 -11.354  0.00  0.00    +0.000 A 
ATOM      7  C   UNL     1       6.123  17.631 -12.750  0.00  0.00    +0.000 A 
ATOM      8  C   UNL     1       5.670  18.651 -13.603  0.00  0.00    +0.000 A 
ENDBRANCH   1   6
BRANCH   1   9
ATOM      9  C   UNL     1       6.127  16.716  -9.053  0.00  0.00    +0.000 C 
BRANCH   9  10
ATOM     10  C   UNL     1       4.882  15.903  -8.622  0.00  0.00    +0.000 C 
ATOM     11  C   UNL     1       5.265  14.792  -7.651  0.00  0.00    +0.000 C 
BRANCH  10  12
ATOM     12  O   UNL     1       3.916  16.744  -7.975  0.00  0.00    +0.000 OA
ATOM     13  H   UNL     1       3.177  16.883  -8.591  0.00  0.00    +0.000 HD
ENDBRANCH  10  12
ENDBRANCH   9  10
ENDBRANCH   1   9
BRANCH   1  14
ATOM     14  C   UNL     1       7.507  15.750 -10.902  0.00  0.00    +0.000 C 
BRANCH  14  15
ATOM     15  C   UNL     1       7.059  14.276 -11.044  0.00  0.00    +0.000 C 
ATOM     16  C   UNL     1       6.394  13.977 -12.382  0.00  0.00    +0.000 C 
BRANCH  15  17
ATOM     17  O   UNL     1       8.154  13.375 -10.884  0.00  0.00    +0.000 OA
ATOM     18  H   UNL     1       8.738  13.548 -11.650  0.00  0.00    +0.000 HD
ENDBRANCH  15  17
ENDBRANCH  14  15
ENDBRANCH   1  14
TORSDOF 7
ENDMDL
MODEL 8
REMARK VINA RESULT:    -4.191      3.259      5.754
REMARK INTER + INTRA:          -6.348
REMARK INTER:                  -5.518
REMARK INTRA:                  -0.830
REMARK UNBOUND:                -0.687
REMARK  Name = 
REMARK  10 active torsions:
REMARK  status: ('A' for Active; 'I' for Inactive)
REMARK    1  A    between atoms: C_1  and  C_2
REMARK    2  A    between atoms: C_5  and  N_8
REMARK    3  A    between atoms: N_8  and  C_9
REMARK    4  A    between atoms: N_8  and  C_13
REMARK    5  A    between atoms: C_9  and  C_10
REMARK    6  A    between atoms: C_10  and  C_11
REMARK    7  A    between atoms: C_10  and  O_12
REMARK    8  A    between atoms: C_13  and  C_14
REMARK    9  A    between atoms: C_14  and  C_15
REMARK   10  A    between atoms: C_14  and  O_16
REMARK                            x       y       z     vdW  Elec       q    Type
REMARK                         _______ _______ _______ _____ _____    ______ ____
ROOT
ATOM      1  N   UNL     1       7.039  16.778  -7.596  0.00  0.00    +0.000 N 
ENDROOT
BRANCH   1   6
ATOM      2  C   UNL     1       6.613  14.473 -12.871  0.00  0.00    +0.000 C 
ATOM      3  C   UNL     1       6.745  15.059 -11.499  0.00  0.00    +0.000 A 
ATOM      4  C   UNL     1       6.163  14.438 -10.398  0.00  0.00    +0.000 A 
ATOM      5  C   UNL     1       6.265  15.008  -9.118  0.00  0.00    +0.000 A 
ATOM      6  C   UNL     1       6.925  16.226  -8.877  0.00  0.00    +0.000 A 
ATOM      7  C   UNL     1       7.503  16.824 -10.012  0.00  0.00    +0.000 A 
ATOM      8  C   UNL     1       7.411  16.264 -11.297  0.00  0.00    +0.000 A 
ENDBRANCH   1   6
BRANCH   1   9
ATOM      9  C   UNL     1       6.045  17.771  -7.123  0.00  0.00    +0.000 C 
BRANCH   9  10
ATOM     10  C   UNL     1       4.883  17.125  -6.329  0.00  0.00    +0.000 C 
ATOM     11  C   UNL     1       3.645  16.970  -7.204  0.00  0.00    +0.000 C 
BRANCH  10  12
ATOM     12  O   UNL     1       5.250  15.827  -5.843  0.00  0.00    +0.000 OA
ATOM     13  H   UNL     1       5.369  15.241  -6.610  0.00  0.00    +0.000 HD
ENDBRANCH  10  12
ENDBRANCH   9  10
ENDBRANCH   1   9
BRANCH   1  14
ATOM     14  C   UNL     1       8.345  16.817  -6.888  0.00  0.00    +0.000 C 
BRANCH  14  15
ATOM     15  C   UNL     1       8.900  15.400  -6.609  0.00  0.00    +0.000 C 
ATOM     16  C   UNL     1      10.155  15.407  -5.743  0.00  0.00    +0.000 C 
BRANCH  15  17
ATOM     17  O   UNL     1       7.930  14.569  -5.973  0.00  0.00    +0.000 OA
ATOM     18  H   UNL     1       7.125  14.656  -6.522  0.00  0.00    +0.000 HD
ENDBRANCH  15  17
ENDBRANCH  14  15
ENDBRANCH   1  14
TORSDOF 7
ENDMDL
MODEL 9
REMARK VINA RESULT:    -2.935      1.743      2.876
REMARK INTER + INTRA:          -4.652
REMARK INTER:                  -4.220
REMARK INTRA:                  -0.432
REMARK UNBOUND:                -0.687
REMARK  Name = 
REMARK  10 active torsions:
REMARK  status: ('A' for Active; 'I' for Inactive)
REMARK    1  A    between atoms: C_1  and  C_2
REMARK    2  A    between atoms: C_5  and  N_8
REMARK    3  A    between atoms: N_8  and  C_9
REMARK    4  A    between atoms: N_8  and  C_13
REMARK    5  A    between atoms: C_9  and  C_10
REMARK    6  A    between atoms: C_10  and  C_11
REMARK    7  A    between atoms: C_10  and  O_12
REMARK    8  A    between atoms: C_13  and  C_14
REMARK    9  A    between atoms: C_14  and  C_15
REMARK   10  A    between atoms: C_14  and  O_16
REMARK                            x       y       z     vdW  Elec       q    Type
REMARK                         _______ _______ _______ _____ _____    ______ ____
ROOT
ATOM      1  N   UNL     1       6.854  15.210  -9.478  0.00  0.00    +0.000 N 
ENDROOT
BRANCH   1   6
ATOM      2  C   UNL     1       3.239  17.583  -5.653  0.00  0.00    +0.000 C 
ATOM      3  C   UNL     1       4.196  16.981  -6.636  0.00  0.00    +0.000 A 
ATOM      4  C   UNL     1       4.390  17.555  -7.888  0.00  0.00    +0.000 A 
ATOM      5  C   UNL     1       5.266  16.969  -8.816  0.00  0.00    +0.000 A 
ATOM      6  C   UNL     1       5.967  15.778  -8.555  0.00  0.00    +0.000 A 
ATOM      7  C   UNL     1       5.748  15.226  -7.279  0.00  0.00    +0.000 A 
ATOM      8  C   UNL     1       4.877  15.803  -6.340  0.00  0.00    +0.000 A 
ENDBRANCH   1   6
BRANCH   1   9
ATOM      9  C   UNL     1       6.338  14.358 -10.577  0.00  0.00    +0.000 C 
BRANCH   9  10
ATOM     10  C   UNL     1       6.666  14.925 -11.980  0.00  0.00    +0.000 C 
ATOM     11  C   UNL     1       6.980  16.415 -11.906  0.00  0.00    +0.000 C 
BRANCH  10  12
ATOM     12  O   UNL     1       7.801  14.260 -12.552  0.00  0.00    +0.000 OA
ATOM     13  H   UNL     1       8.538  14.327 -11.922  0.00  0.00    +0.000 HD
ENDBRANCH  10  12
ENDBRANCH   9  10
ENDBRANCH   1   9
BRANCH   1  14
ATOM     14  C   UNL     1       8.283  14.992  -9.138  0.00  0.00    +0.000 C 
BRANCH  14  15
ATOM     15  C   UNL     1       8.990  16.303  -8.716  0.00  0.00    +0.000 C 
ATOM     16  C   UNL     1       9.385  16.324  -7.245  0.00  0.00    +0.000 C 
BRANCH  15  17
ATOM     17  O   UNL     1      10.163  16.542  -9.492  0.00  0.00    +0.000 OA
ATOM     18  H   UNL     1       9.858  17.079 -10.252  0.00  0.00    +0.000 HD
ENDBRANCH  15  17
ENDBRANCH  14  15
ENDBRANCH   1  14
TORSDOF 7
ENDMDL
