MODEL 1
REMARK VINA RESULT:    -3.841      0.000      0.000
REMARK INTER + INTRA:          -4.229
REMARK INTER:                  -4.178
REMARK INTRA:                  -0.052
REMARK UNBOUND:                -0.052
REMARK  Name = 
REMARK  3 active torsions:
REMARK  status: ('A' for Active; 'I' for Inactive)
REMARK    1  A    between atoms: C_1  and  O_2
REMARK    2  A    between atoms: O_2  and  C_3
REMARK    3  A    between atoms: C_8  and  O_9
REMARK                            x       y       z     vdW  Elec       q    Type
REMARK                         _______ _______ _______ _____ _____    ______ ____
ROOT
ATOM      1  C   UNL     1       6.888  16.307 -10.972  0.00  0.00    +0.000 A 
ATOM      2  C   UNL     1       6.149  16.641  -9.838  0.00  0.00    +0.000 A 
ATOM      3  C   UNL     1       5.349  15.675  -9.214  0.00  0.00    +0.000 A 
ATOM      4  C   UNL     1       5.285  14.376  -9.720  0.00  0.00    +0.000 A 
ATOM      5  C   UNL     1       6.022  14.034 -10.852  0.00  0.00    +0.000 A 
ATOM      6  C   UNL     1       6.812  14.998 -11.464  0.00  0.00    +0.000 A 
ENDROOT
BRANCH   1   8
ATOM      7  C   UNL     1       7.070  18.174 -12.431  0.00  0.00    +0.000 C 
ATOM      8  O   UNL     1       7.708  17.147 -11.682  0.00  0.00    +0.000 OA
ENDBRANCH   1   8
BRANCH   6   9
ATOM      9  O   UNL     1       7.526  14.639 -12.576  0.00  0.00    +0.000 OA
ATOM     10  H   UNL     1       7.895  13.761 -12.361  0.00  0.00    +0.000 HD
ENDBRANCH   6   9
TORSDOF 2
ENDMDL
MODEL 2
REMARK VINA RESULT:    -3.766      1.488      2.710
REMARK INTER + INTRA:          -4.148
REMARK INTER:                  -4.111
REMARK INTRA:                  -0.037
REMARK UNBOUND:                -0.052
REMARK  Name = 
REMARK  3 active torsions:
REMARK  status: ('A' for Active; 'I' for Inactive)
REMARK    1  A    between atoms: C_1  and  O_2
REMARK    2  A    between atoms: O_2  and  C_3
REMARK    3  A    between atoms: C_8  and  O_9
REMARK                            x       y       z     vdW  Elec       q    Type
REMARK                         _______ _______ _______ _____ _____    ______ ____
ROOT
ATOM      1  C   UNL     1       6.186  15.387 -10.570  0.00  0.00    +0.000 A 
ATOM      2  C   UNL     1       5.443  14.300 -10.112  0.00  0.00    +0.000 A 
ATOM      3  C   UNL     1       4.625  14.437  -8.984  0.00  0.00    +0.000 A 
ATOM      4  C   UNL     1       4.546  15.657  -8.310  0.00  0.00    +0.000 A 
ATOM      5  C   UNL     1       5.285  16.748  -8.762  0.00  0.00    +0.000 A 
ATOM      6  C   UNL     1       6.094  16.603  -9.882  0.00  0.00    +0.000 A 
ENDROOT
BRANCH   1   8
ATOM      7  C   UNL     1       7.111  14.189 -12.402  0.00  0.00    +0.000 C 
ATOM      8  O   UNL     1       7.025  15.397 -11.656  0.00  0.00    +0.000 OA
ENDBRANCH   1   8
BRANCH   6   9
ATOM      9  O   UNL     1       6.811  17.690 -10.307  0.00  0.00    +0.000 OA
ATOM     10  H   UNL     1       7.632  17.668  -9.779  0.00  0.00    +0.000 HD
ENDBRANCH   6   9
TORSDOF 2
ENDMDL
MODEL 3
REMARK VINA RESULT:    -3.576      3.362      4.449
REMARK INTER + INTRA:          -3.941
REMARK INTER:                  -3.902
REMARK INTRA:                  -0.039
REMARK UNBOUND:                -0.052
REMARK  Name = 
REMARK  3 active torsions:
REMARK  status: ('A' for Active; 'I' for Inactive)
REMARK    1  A    between atoms: C_1  and  O_2
REMARK    2  A    between atoms: O_2  and  C_3
REMARK    3  A    between atoms: C_8  and  O_9
REMARK                            x       y       z     vdW  Elec       q    Type
REMARK                         _______ _______ _______ _____ _____    ______ ____
ROOT
ATOM      1  C   UNL     1       5.599  14.836  -7.527  0.00  0.00    +0.000 A 
ATOM      2  C   UNL     1       4.794  14.692  -8.656  0.00  0.00    +0.000 A 
ATOM      3  C   UNL     1       5.378  14.606  -9.926  0.00  0.00    +0.000 A 
ATOM      4  C   UNL     1       6.766  14.664 -10.072  0.00  0.00    +0.000 A 
ATOM      5  C   UNL     1       7.577  14.807  -8.949  0.00  0.00    +0.000 A 
ATOM      6  C   UNL     1       6.989  14.892  -7.693  0.00  0.00    +0.000 A 
ENDROOT
BRANCH   1   8
ATOM      7  C   UNL     1       4.605  16.181  -5.839  0.00  0.00    +0.000 C 
ATOM      8  O   UNL     1       5.166  14.934  -6.229  0.00  0.00    +0.000 OA
ENDBRANCH   1   8
BRANCH   6   9
ATOM      9  O   UNL     1       7.807  15.033  -6.604  0.00  0.00    +0.000 OA
ATOM     10  H   UNL     1       8.265  15.883  -6.746  0.00  0.00    +0.000 HD
ENDBRANCH   6   9
TORSDOF 2
ENDMDL
MODEL 4
REMARK VINA RESULT:    -3.512      2.115      3.115
REMARK INTER + INTRA:          -3.871
REMARK INTER:                  -3.833
REMARK INTRA:                  -0.038
REMARK UNBOUND:                -0.052
REMARK  Name = 
REMARK  3 active torsions:
REMARK  status: ('A' for Active; 'I' for Inactive)
REMARK    1  A    between atoms: C_1  and  O_2
REMARK    2  A    between atoms: O_2  and  C_3
REMARK    3  A    between atoms: C_8  and  O_9
REMARK                            x       y       z     vdW  Elec       q    Type
REMARK                         _______ _______ _______ _____ _____    ______ ____
ROOT
ATOM      1  C   UNL     1       6.318  14.679 -10.144  0.00  0.00    +0.000 A 
ATOM      2  C   UNL     1       7.424  15.470  -9.836  0.00  0.00    +0.000 A 
ATOM      3  C   UNL     1       7.471  16.165  -8.620  0.00  0.00    +0.000 A 
ATOM      4  C   UNL     1       6.415  16.073  -7.712  0.00  0.00    +0.000 A 
ATOM      5  C   UNL     1       5.306  15.285  -8.013  0.00  0.00    +0.000 A 
ATOM      6  C   UNL     1       5.269  14.599  -9.220  0.00  0.00    +0.000 A 
ENDROOT
BRANCH   1   8
ATOM      7  C   UNL     1       7.006  14.248 -12.377  0.00  0.00    +0.000 C 
ATOM      8  O   UNL     1       6.138  13.948 -11.291  0.00  0.00    +0.000 OA
ENDBRANCH   1   8
BRANCH   6   9
ATOM      9  O   UNL     1       4.168  13.831  -9.494  0.00  0.00    +0.000 OA
ATOM     10  H   UNL     1       3.760  13.664  -8.623  0.00  0.00    +0.000 HD
ENDBRANCH   6   9
TORSDOF 2
ENDMDL
MODEL 5
REMARK VINA RESULT:    -3.494      1.353      1.973
REMARK INTER + INTRA:          -3.852
REMARK INTER:                  -3.800
REMARK INTRA:                  -0.052
REMARK UNBOUND:                -0.052
REMARK  Name = 
REMARK  3 active torsions:
REMARK  status: ('A' for Active; 'I' for Inactive)
REMARK    1  A    between atoms: C_1  and  O_2
REMARK    2  A    between atoms: O_2  and  C_3
REMARK    3  A    between atoms: C_8  and  O_9
REMARK                            x       y       z     vdW  Elec       q    Type
REMARK                         _______ _______ _______ _____ _____    ______ ____
ROOT
ATOM      1  C   UNL     1       6.246  16.980 -10.564  0.00  0.00    +0.000 A 
ATOM      2  C   UNL     1       5.795  16.051  -9.628  0.00  0.00    +0.000 A 
ATOM      3  C   UNL     1       5.851  14.682  -9.918  0.00  0.00    +0.000 A 
ATOM      4  C   UNL     1       6.356  14.238 -11.142  0.00  0.00    +0.000 A 
ATOM      5  C   UNL     1       6.809  15.160 -12.082  0.00  0.00    +0.000 A 
ATOM      6  C   UNL     1       6.749  16.516 -11.786  0.00  0.00    +0.000 A 
ENDROOT
BRANCH   1   8
ATOM      7  C   UNL     1       4.984  18.966 -10.233  0.00  0.00    +0.000 C 
ATOM      8  O   UNL     1       6.250  18.344 -10.416  0.00  0.00    +0.000 OA
ENDBRANCH   1   8
BRANCH   6   9
ATOM      9  O   UNL     1       7.200  17.404 -12.726  0.00  0.00    +0.000 OA
ATOM     10  H   UNL     1       7.151  16.917 -13.571  0.00  0.00    +0.000 HD
ENDBRANCH   6   9
TORSDOF 2
ENDMDL
MODEL 6
REMARK VINA RESULT:    -3.490      2.046      2.464
REMARK INTER + INTRA:          -3.848
REMARK INTER:                  -3.810
REMARK INTRA:                  -0.037
REMARK UNBOUND:                -0.052
REMARK  Name = 
REMARK  3 active torsions:
REMARK  status: ('A' for Active; 'I' for Inactive)
REMARK    1  A    between atoms: C_1  and  O_2
REMARK    2  A    between atoms: O_2  and  C_3
REMARK    3  A    between atoms: C_8  and  O_9
REMARK                            x       y       z     vdW  Elec       q    Type
REMARK                         _______ _______ _______ _____ _____    ______ ____
ROOT
ATOM      1  C   UNL     1       7.397  15.247  -9.049  0.00  0.00    +0.000 A 
ATOM      2  C   UNL     1       6.557  15.374  -7.943  0.00  0.00    +0.000 A 
ATOM      3  C   UNL     1       5.230  14.933  -8.019  0.00  0.00    +0.000 A 
ATOM      4  C   UNL     1       4.738  14.366  -9.196  0.00  0.00    +0.000 A 
ATOM      5  C   UNL     1       5.571  14.236 -10.305  0.00  0.00    +0.000 A 
ATOM      6  C   UNL     1       6.886  14.676 -10.221  0.00  0.00    +0.000 A 
ENDROOT
BRANCH   1   8
ATOM      7  C   UNL     1       9.235  16.309  -7.980  0.00  0.00    +0.000 C 
ATOM      8  O   UNL     1       8.711  15.634  -9.118  0.00  0.00    +0.000 OA
ENDBRANCH   1   8
BRANCH   6   9
ATOM      9  O   UNL     1       7.685  14.537 -11.324  0.00  0.00    +0.000 OA
ATOM     10  H   UNL     1       8.581  14.768 -11.012  0.00  0.00    +0.000 HD
ENDBRANCH   6   9
TORSDOF 2
ENDMDL
MODEL 7
REMARK VINA RESULT:    -3.431      1.819      3.160
REMARK INTER + INTRA:          -3.783
REMARK INTER:                  -3.746
REMARK INTRA:                  -0.037
REMARK UNBOUND:                -0.052
REMARK  Name = 
REMARK  3 active torsions:
REMARK  status: ('A' for Active; 'I' for Inactive)
REMARK    1  A    between atoms: C_1  and  O_2
REMARK    2  A    between atoms: O_2  and  C_3
REMARK    3  A    between atoms: C_8  and  O_9
REMARK                            x       y       z     vdW  Elec       q    Type
REMARK                         _______ _______ _______ _____ _____    ______ ____
ROOT
ATOM      1  C   UNL     1       5.932  15.446  -9.875  0.00  0.00    +0.000 A 
ATOM      2  C   UNL     1       5.894  16.833  -9.737  0.00  0.00    +0.000 A 
ATOM      3  C   UNL     1       6.325  17.652 -10.788  0.00  0.00    +0.000 A 
ATOM      4  C   UNL     1       6.795  17.091 -11.977  0.00  0.00    +0.000 A 
ATOM      5  C   UNL     1       6.835  15.706 -12.122  0.00  0.00    +0.000 A 
ATOM      6  C   UNL     1       6.407  14.901 -11.075  0.00  0.00    +0.000 A 
ENDROOT
BRANCH   1   8
ATOM      7  C   UNL     1       5.148  15.042  -7.669  0.00  0.00    +0.000 C 
ATOM      8  O   UNL     1       5.545  14.526  -8.934  0.00  0.00    +0.000 OA
ENDBRANCH   1   8
BRANCH   6   9
ATOM      9  O   UNL     1       6.456  13.543 -11.241  0.00  0.00    +0.000 OA
ATOM     10  H   UNL     1       5.608  13.217 -10.884  0.00  0.00    +0.000 HD
ENDBRANCH   6   9
TORSDOF 2
ENDMDL
MODEL 8
REMARK VINA RESULT:    -3.401      2.161      2.916
REMARK INTER + INTRA:          -3.750
REMARK INTER:                  -3.699
REMARK INTRA:                  -0.051
REMARK UNBOUND:                -0.052
REMARK  Name = 
REMARK  3 active torsions:
REMARK  status: ('A' for Active; 'I' for Inactive)
REMARK    1  A    between atoms: C_1  and  O_2
REMARK    2  A    between atoms: O_2  and  C_3
REMARK    3  A    between atoms: C_8  and  O_9
REMARK                            x       y       z     vdW  Elec       q    Type
REMARK                         _______ _______ _______ _____ _____    ______ ____
ROOT
ATOM      1  C   UNL     1       6.017  16.166  -9.821  0.00  0.00    +0.000 A 
ATOM      2  C   UNL     1       6.845  16.619 -10.847  0.00  0.00    +0.000 A 
ATOM      3  C   UNL     1       7.199  15.757 -11.893  0.00  0.00    +0.000 A 
ATOM      4  C   UNL     1       6.729  14.442 -11.916  0.00  0.00    +0.000 A 
ATOM      5  C   UNL     1       5.901  13.982 -10.895  0.00  0.00    +0.000 A 
ATOM      6  C   UNL     1       5.555  14.844  -9.862  0.00  0.00    +0.000 A 
ENDROOT
BRANCH   1   8
ATOM      7  C   UNL     1       4.878  18.093  -9.023  0.00  0.00    +0.000 C 
ATOM      8  O   UNL     1       5.592  16.895  -8.740  0.00  0.00    +0.000 OA
ENDBRANCH   1   8
BRANCH   6   9
ATOM      9  O   UNL     1       4.741  14.369  -8.869  0.00  0.00    +0.000 OA
ATOM     10  H   UNL     1       4.483  13.475  -9.166  0.00  0.00    +0.000 HD
ENDBRANCH   6   9
TORSDOF 2
ENDMDL
MODEL 9
REMARK VINA RESULT:    -3.367      3.815      4.727
REMARK INTER + INTRA:          -3.713
REMARK INTER:                  -3.676
REMARK INTRA:                  -0.037
REMARK UNBOUND:                -0.052
REMARK  Name = 
REMARK  3 active torsions:
REMARK  status: ('A' for Active; 'I' for Inactive)
REMARK    1  A    between atoms: C_1  and  O_2
REMARK    2  A    between atoms: O_2  and  C_3
REMARK    3  A    between atoms: C_8  and  O_9
REMARK                            x       y       z     vdW  Elec       q    Type
REMARK                         _______ _______ _______ _____ _____    ______ ____
ROOT
ATOM      1  C   UNL     1       6.920  15.178  -7.084  0.00  0.00    +0.000 A 
ATOM      2  C   UNL     1       7.511  15.095  -8.344  0.00  0.00    +0.000 A 
ATOM      3  C   UNL     1       6.714  14.906  -9.480  0.00  0.00    +0.000 A 
ATOM      4  C   UNL     1       5.327  14.798  -9.361  0.00  0.00    +0.000 A 
ATOM      5  C   UNL     1       4.729  14.880  -8.106  0.00  0.00    +0.000 A 
ATOM      6  C   UNL     1       5.527  15.067  -6.985  0.00  0.00    +0.000 A 
ENDROOT
BRANCH   1   8
ATOM      7  C   UNL     1       8.995  15.390  -5.945  0.00  0.00    +0.000 C 
ATOM      8  O   UNL     1       7.574  15.360  -5.892  0.00  0.00    +0.000 OA
ENDBRANCH   1   8
BRANCH   6   9
ATOM      9  O   UNL     1       4.917  15.144  -5.762  0.00  0.00    +0.000 OA
ATOM     10  H   UNL     1       5.534  14.703  -5.147  0.00  0.00    +0.000 HD
ENDBRANCH   6   9
TORSDOF 2
ENDMDL
