MODEL 1
REMARK VINA RESULT:    -3.803      0.000      0.000
REMARK INTER + INTRA:          -5.677
REMARK INTER:                  -5.137
REMARK INTRA:                  -0.541
REMARK UNBOUND:                -0.541
REMARK  Name = 
REMARK  10 active torsions:
REMARK  status: ('A' for Active; 'I' for Inactive)
REMARK    1  A    between atoms: C_1  and  C_2
REMARK    2  A    between atoms: C_5  and  N_8
REMARK    3  A    between atoms: N_8  and  C_9
REMARK    4  A    between atoms: N_8  and  C_13
REMARK    5  A    between atoms: C_9  and  C_10
REMARK    6  A    between atoms: C_10  and  C_11
REMARK    7  A    between atoms: C_10  and  O_12
REMARK    8  A    between atoms: C_13  and  C_14
REMARK    9  A    between atoms: C_14  and  C_15
REMARK   10  A    between atoms: C_14  and  O_16
REMARK                            x       y       z     vdW  Elec       q    Type
REMARK                         _______ _______ _______ _____ _____    ______ ____
ROOT
ATOM      1  N   UNL     1      23.642 -10.596  -4.586  0.00  0.00    +0.000 N 
ENDROOT
BRANCH   1   6
ATOM      2  C   UNL     1      23.343 -10.368 -10.347  0.00  0.00    +0.000 C 
ATOM      3  C   UNL     1      23.396 -10.423  -8.851  0.00  0.00    +0.000 A 
ATOM      4  C   UNL     1      23.660  -9.281  -8.103  0.00  0.00    +0.000 A 
ATOM      5  C   UNL     1      23.738  -9.344  -6.702  0.00  0.00    +0.000 A 
ATOM      6  C   UNL     1      23.582 -10.544  -5.985  0.00  0.00    +0.000 A 
ATOM      7  C   UNL     1      23.314 -11.678  -6.773  0.00  0.00    +0.000 A 
ATOM      8  C   UNL     1      23.231 -11.628  -8.174  0.00  0.00    +0.000 A 
ENDBRANCH   1   6
BRANCH   1   9
ATOM      9  C   UNL     1      24.478  -9.624  -3.841  0.00  0.00    +0.000 C 
BRANCH   9  10
ATOM     10  C   UNL     1      23.852  -9.207  -2.488  0.00  0.00    +0.000 C 
ATOM     11  C   UNL     1      24.746  -8.212  -1.758  0.00  0.00    +0.000 C 
BRANCH  10  12
ATOM     12  O   UNL     1      22.570  -8.595  -2.681  0.00  0.00    +0.000 OA
ATOM     13  H   UNL     1      22.158  -8.998  -3.463  0.00  0.00    +0.000 HD
ENDBRANCH  10  12
ENDBRANCH   9  10
ENDBRANCH   1   9
BRANCH   1  14
ATOM     14  C   UNL     1      23.334 -11.849  -3.850  0.00  0.00    +0.000 C 
BRANCH  14  15
ATOM     15  C   UNL     1      21.814 -12.134  -3.792  0.00  0.00    +0.000 C 
ATOM     16  C   UNL     1      21.489 -13.602  -3.542  0.00  0.00    +0.000 C 
BRANCH  15  17
ATOM     17  O   UNL     1      21.171 -11.360  -2.780  0.00  0.00    +0.000 OA
ATOM     18  H   UNL     1      20.343 -11.842  -2.581  0.00  0.00    +0.000 HD
ENDBRANCH  15  17
ENDBRANCH  14  15
ENDBRANCH   1  14
TORSDOF 7
ENDMDL
MODEL 2
REMARK VINA RESULT:    -3.744      8.117     11.689
REMARK INTER + INTRA:          -5.598
REMARK INTER:                  -5.137
REMARK INTRA:                  -0.461
REMARK UNBOUND:                -0.541
REMARK  Name = 
REMARK  10 active torsions:
REMARK  status: ('A' for Active; 'I' for Inactive)
REMARK    1  A    between atoms: C_1  and  C_2
REMARK    2  A    between atoms: C_5  and  N_8
REMARK    3  A    between atoms: N_8  and  C_9
REMARK    4  A    between atoms: N_8  and  C_13
REMARK    5  A    between atoms: C_9  and  C_10
REMARK    6  A    between atoms: C_10  and  C_11
REMARK    7  A    between atoms: C_10  and  O_12
REMARK    8  A    between atoms: C_13  and  C_14
REMARK    9  A    between atoms: C_14  and  C_15
REMARK   10  A    between atoms: C_14  and  O_16
REMARK                            x       y       z     vdW  Elec       q    Type
REMARK                         _______ _______ _______ _____ _____    ______ ____
ROOT
ATOM      1  N   UNL     1      25.560  -7.107   4.014  0.00  0.00    +0.000 N 
ENDROOT
BRANCH   1   6
ATOM      2  C   UNL     1      23.709  -3.384   8.020  0.00  0.00    +0.000 C 
ATOM      3  C   UNL     1      24.209  -4.336   6.976  0.00  0.00    +0.000 A 
ATOM      4  C   UNL     1      23.795  -4.226   5.653  0.00  0.00    +0.000 A 
ATOM      5  C   UNL     1      24.244  -5.139   4.684  0.00  0.00    +0.000 A 
ATOM      6  C   UNL     1      25.101  -6.212   4.989  0.00  0.00    +0.000 A 
ATOM      7  C   UNL     1      25.501  -6.290   6.335  0.00  0.00    +0.000 A 
ATOM      8  C   UNL     1      25.062  -5.383   7.313  0.00  0.00    +0.000 A 
ENDBRANCH   1   6
BRANCH   1   9
ATOM      9  C   UNL     1      25.134  -6.951   2.602  0.00  0.00    +0.000 C 
BRANCH   9  10
ATOM     10  C   UNL     1      26.263  -6.411   1.691  0.00  0.00    +0.000 C 
ATOM     11  C   UNL     1      26.014  -6.786   0.235  0.00  0.00    +0.000 C 
BRANCH  10  12
ATOM     12  O   UNL     1      26.351  -4.982   1.772  0.00  0.00    +0.000 OA
ATOM     13  H   UNL     1      25.949  -4.703   2.611  0.00  0.00    +0.000 HD
ENDBRANCH  10  12
ENDBRANCH   9  10
ENDBRANCH   1   9
BRANCH   1  14
ATOM     14  C   UNL     1      26.024  -8.470   4.379  0.00  0.00    +0.000 C 
BRANCH  14  15
ATOM     15  C   UNL     1      25.299  -9.571   3.570  0.00  0.00    +0.000 C 
ATOM     16  C   UNL     1      26.096 -10.866   3.471  0.00  0.00    +0.000 C 
BRANCH  15  17
ATOM     17  O   UNL     1      24.022  -9.880   4.127  0.00  0.00    +0.000 OA
ATOM     18  H   UNL     1      23.623  -9.012   4.341  0.00  0.00    +0.000 HD
ENDBRANCH  15  17
ENDBRANCH  14  15
ENDBRANCH   1  14
TORSDOF 7
ENDMDL
MODEL 3
REMARK VINA RESULT:    -3.718      2.452      5.849
REMARK INTER + INTRA:          -5.563
REMARK INTER:                  -5.143
REMARK INTRA:                  -0.420
REMARK UNBOUND:                -0.541
REMARK  Name = 
REMARK  10 active torsions:
REMARK  status: ('A' for Active; 'I' for Inactive)
REMARK    1  A    between atoms: C_1  and  C_2
REMARK    2  A    between atoms: C_5  and  N_8
REMARK    3  A    between atoms: N_8  and  C_9
REMARK    4  A    between atoms: N_8  and  C_13
REMARK    5  A    between atoms: C_9  and  C_10
REMARK    6  A    between atoms: C_10  and  C_11
REMARK    7  A    between atoms: C_10  and  O_12
REMARK    8  A    between atoms: C_13  and  C_14
REMARK    9  A    between atoms: C_14  and  C_15
REMARK   10  A    between atoms: C_14  and  O_16
REMARK                            x       y       z     vdW  Elec       q    Type
REMARK                         _______ _______ _______ _____ _____    ______ ____
ROOT
ATOM      1  N   UNL     1      23.369 -10.905  -6.313  0.00  0.00    +0.000 N 
ENDROOT
BRANCH   1   6
ATOM      2  C   UNL     1      26.232 -10.433  -1.322  0.00  0.00    +0.000 C 
ATOM      3  C   UNL     1      25.480 -10.578  -2.610  0.00  0.00    +0.000 A 
ATOM      4  C   UNL     1      26.085 -11.138  -3.730  0.00  0.00    +0.000 A 
ATOM      5  C   UNL     1      25.385 -11.244  -4.943  0.00  0.00    +0.000 A 
ATOM      6  C   UNL     1      24.068 -10.779  -5.106  0.00  0.00    +0.000 A 
ATOM      7  C   UNL     1      23.488 -10.220  -3.952  0.00  0.00    +0.000 A 
ATOM      8  C   UNL     1      24.175 -10.111  -2.732  0.00  0.00    +0.000 A 
ENDBRANCH   1   6
BRANCH   1   9
ATOM      9  C   UNL     1      22.597 -12.137  -6.600  0.00  0.00    +0.000 C 
BRANCH   9  10
ATOM     10  C   UNL     1      21.829 -12.066  -7.943  0.00  0.00    +0.000 C 
ATOM     11  C   UNL     1      22.147 -13.273  -8.817  0.00  0.00    +0.000 C 
BRANCH  10  12
ATOM     12  O   UNL     1      20.412 -12.036  -7.724  0.00  0.00    +0.000 OA
ATOM     13  H   UNL     1      20.256 -11.983  -6.767  0.00  0.00    +0.000 HD
ENDBRANCH  10  12
ENDBRANCH   9  10
ENDBRANCH   1   9
BRANCH   1  14
ATOM     14  C   UNL     1      23.759 -10.119  -7.512  0.00  0.00    +0.000 C 
BRANCH  14  15
ATOM     15  C   UNL     1      24.003  -8.627  -7.179  0.00  0.00    +0.000 C 
ATOM     16  C   UNL     1      25.099  -7.995  -8.029  0.00  0.00    +0.000 C 
BRANCH  15  17
ATOM     17  O   UNL     1      22.817  -7.850  -7.338  0.00  0.00    +0.000 OA
ATOM     18  H   UNL     1      22.271  -8.060  -6.553  0.00  0.00    +0.000 HD
ENDBRANCH  15  17
ENDBRANCH  14  15
ENDBRANCH   1  14
TORSDOF 7
ENDMDL
MODEL 4
REMARK VINA RESULT:    -3.647      9.128     11.866
REMARK INTER + INTRA:          -5.467
REMARK INTER:                  -4.762
REMARK INTRA:                  -0.705
REMARK UNBOUND:                -0.541
REMARK  Name = 
REMARK  10 active torsions:
REMARK  status: ('A' for Active; 'I' for Inactive)
REMARK    1  A    between atoms: C_1  and  C_2
REMARK    2  A    between atoms: C_5  and  N_8
REMARK    3  A    between atoms: N_8  and  C_9
REMARK    4  A    between atoms: N_8  and  C_13
REMARK    5  A    between atoms: C_9  and  C_10
REMARK    6  A    between atoms: C_10  and  C_11
REMARK    7  A    between atoms: C_10  and  O_12
REMARK    8  A    between atoms: C_13  and  C_14
REMARK    9  A    between atoms: C_14  and  C_15
REMARK   10  A    between atoms: C_14  and  O_16
REMARK                            x       y       z     vdW  Elec       q    Type
REMARK                         _______ _______ _______ _____ _____    ______ ____
ROOT
ATOM      1  N   UNL     1      25.105  -7.486   5.042  0.00  0.00    +0.000 N 
ENDROOT
BRANCH   1   6
ATOM      2  C   UNL     1      22.806 -12.570   6.527  0.00  0.00    +0.000 C 
ATOM      3  C   UNL     1      23.422 -11.263   6.131  0.00  0.00    +0.000 A 
ATOM      4  C   UNL     1      24.246 -10.567   7.010  0.00  0.00    +0.000 A 
ATOM      5  C   UNL     1      24.796  -9.327   6.645  0.00  0.00    +0.000 A 
ATOM      6  C   UNL     1      24.537  -8.714   5.407  0.00  0.00    +0.000 A 
ATOM      7  C   UNL     1      23.702  -9.446   4.543  0.00  0.00    +0.000 A 
ATOM      8  C   UNL     1      23.146 -10.688   4.894  0.00  0.00    +0.000 A 
ENDBRANCH   1   6
BRANCH   1   9
ATOM      9  C   UNL     1      25.779  -6.647   6.062  0.00  0.00    +0.000 C 
BRANCH   9  10
ATOM     10  C   UNL     1      24.935  -5.418   6.480  0.00  0.00    +0.000 C 
ATOM     11  C   UNL     1      24.867  -5.294   7.998  0.00  0.00    +0.000 C 
BRANCH  10  12
ATOM     12  O   UNL     1      25.499  -4.206   5.960  0.00  0.00    +0.000 OA
ATOM     13  H   UNL     1      25.761  -4.367   5.039  0.00  0.00    +0.000 HD
ENDBRANCH  10  12
ENDBRANCH   9  10
ENDBRANCH   1   9
BRANCH   1  14
ATOM     14  C   UNL     1      24.642  -6.753   3.836  0.00  0.00    +0.000 C 
BRANCH  14  15
ATOM     15  C   UNL     1      25.821  -6.208   2.995  0.00  0.00    +0.000 C 
ATOM     16  C   UNL     1      25.821  -6.721   1.560  0.00  0.00    +0.000 C 
BRANCH  15  17
ATOM     17  O   UNL     1      25.826  -4.782   2.955  0.00  0.00    +0.000 OA
ATOM     18  H   UNL     1      24.885  -4.524   3.031  0.00  0.00    +0.000 HD
ENDBRANCH  15  17
ENDBRANCH  14  15
ENDBRANCH   1  14
TORSDOF 7
ENDMDL
MODEL 5
REMARK VINA RESULT:    -3.629      1.835      3.984
REMARK INTER + INTRA:          -5.443
REMARK INTER:                  -4.944
REMARK INTRA:                  -0.499
REMARK UNBOUND:                -0.541
REMARK  Name = 
REMARK  10 active torsions:
REMARK  status: ('A' for Active; 'I' for Inactive)
REMARK    1  A    between atoms: C_1  and  C_2
REMARK    2  A    between atoms: C_5  and  N_8
REMARK    3  A    between atoms: N_8  and  C_9
REMARK    4  A    between atoms: N_8  and  C_13
REMARK    5  A    between atoms: C_9  and  C_10
REMARK    6  A    between atoms: C_10  and  C_11
REMARK    7  A    between atoms: C_10  and  O_12
REMARK    8  A    between atoms: C_13  and  C_14
REMARK    9  A    between atoms: C_14  and  C_15
REMARK   10  A    between atoms: C_14  and  O_16
REMARK                            x       y       z     vdW  Elec       q    Type
REMARK                         _______ _______ _______ _____ _____    ______ ____
ROOT
ATOM      1  N   UNL     1      23.866 -10.535  -3.208  0.00  0.00    +0.000 N 
ENDROOT
BRANCH   1   6
ATOM      2  C   UNL     1      26.351  -9.977  -8.389  0.00  0.00    +0.000 C 
ATOM      3  C   UNL     1      25.718 -10.101  -7.037  0.00  0.00    +0.000 A 
ATOM      4  C   UNL     1      26.327 -10.838  -6.027  0.00  0.00    +0.000 A 
ATOM      5  C   UNL     1      25.714 -10.976  -4.771  0.00  0.00    +0.000 A 
ATOM      6  C   UNL     1      24.462 -10.410  -4.469  0.00  0.00    +0.000 A 
ATOM      7  C   UNL     1      23.876  -9.671  -5.513  0.00  0.00    +0.000 A 
ATOM      8  C   UNL     1      24.479  -9.523  -6.773  0.00  0.00    +0.000 A 
ENDBRANCH   1   6
BRANCH   1   9
ATOM      9  C   UNL     1      23.184 -11.797  -2.830  0.00  0.00    +0.000 C 
BRANCH   9  10
ATOM     10  C   UNL     1      21.870 -12.028  -3.616  0.00  0.00    +0.000 C 
ATOM     11  C   UNL     1      21.755 -13.478  -4.071  0.00  0.00    +0.000 C 
BRANCH  10  12
ATOM     12  O   UNL     1      20.726 -11.724  -2.807  0.00  0.00    +0.000 OA
ATOM     13  H   UNL     1      21.040 -11.464  -1.925  0.00  0.00    +0.000 HD
ENDBRANCH  10  12
ENDBRANCH   9  10
ENDBRANCH   1   9
BRANCH   1  14
ATOM     14  C   UNL     1      23.438  -9.339  -2.438  0.00  0.00    +0.000 C 
BRANCH  14  15
ATOM     15  C   UNL     1      24.637  -8.456  -2.017  0.00  0.00    +0.000 C 
ATOM     16  C   UNL     1      24.217  -7.168  -1.319  0.00  0.00    +0.000 C 
BRANCH  15  17
ATOM     17  O   UNL     1      25.530  -9.156  -1.153  0.00  0.00    +0.000 OA
ATOM     18  H   UNL     1      25.184 -10.070  -1.119  0.00  0.00    +0.000 HD
ENDBRANCH  15  17
ENDBRANCH  14  15
ENDBRANCH   1  14
TORSDOF 7
ENDMDL
MODEL 6
REMARK VINA RESULT:    -3.570      7.948     11.466
REMARK INTER + INTRA:          -5.363
REMARK INTER:                  -4.741
REMARK INTRA:                  -0.622
REMARK UNBOUND:                -0.541
REMARK  Name = 
REMARK  10 active torsions:
REMARK  status: ('A' for Active; 'I' for Inactive)
REMARK    1  A    between atoms: C_1  and  C_2
REMARK    2  A    between atoms: C_5  and  N_8
REMARK    3  A    between atoms: N_8  and  C_9
REMARK    4  A    between atoms: N_8  and  C_13
REMARK    5  A    between atoms: C_9  and  C_10
REMARK    6  A    between atoms: C_10  and  C_11
REMARK    7  A    between atoms: C_10  and  O_12
REMARK    8  A    between atoms: C_13  and  C_14
REMARK    9  A    between atoms: C_14  and  C_15
REMARK   10  A    between atoms: C_14  and  O_16
REMARK                            x       y       z     vdW  Elec       q    Type
REMARK                         _______ _______ _______ _____ _____    ______ ____
ROOT
ATOM      1  N   UNL     1      25.453  -7.126   4.007  0.00  0.00    +0.000 N 
ENDROOT
BRANCH   1   6
ATOM      2  C   UNL     1      23.678 -11.480   7.357  0.00  0.00    +0.000 C 
ATOM      3  C   UNL     1      24.160 -10.363   6.483  0.00  0.00    +0.000 A 
ATOM      4  C   UNL     1      24.845  -9.279   7.023  0.00  0.00    +0.000 A 
ATOM      5  C   UNL     1      25.268  -8.220   6.204  0.00  0.00    +0.000 A 
ATOM      6  C   UNL     1      25.011  -8.176   4.822  0.00  0.00    +0.000 A 
ATOM      7  C   UNL     1      24.318  -9.289   4.310  0.00  0.00    +0.000 A 
ATOM      8  C   UNL     1      23.891 -10.356   5.118  0.00  0.00    +0.000 A 
ENDBRANCH   1   6
BRANCH   1   9
ATOM      9  C   UNL     1      26.351  -7.402   2.860  0.00  0.00    +0.000 C 
BRANCH   9  10
ATOM     10  C   UNL     1      25.920  -6.662   1.570  0.00  0.00    +0.000 C 
ATOM     11  C   UNL     1      26.351  -7.434   0.329  0.00  0.00    +0.000 C 
BRANCH  10  12
ATOM     12  O   UNL     1      24.495  -6.502   1.520  0.00  0.00    +0.000 OA
ATOM     13  H   UNL     1      24.300  -5.705   0.999  0.00  0.00    +0.000 HD
ENDBRANCH  10  12
ENDBRANCH   9  10
ENDBRANCH   1   9
BRANCH   1  14
ATOM     14  C   UNL     1      25.493  -5.728   4.510  0.00  0.00    +0.000 C 
BRANCH  14  15
ATOM     15  C   UNL     1      24.077  -5.157   4.761  0.00  0.00    +0.000 C 
ATOM     16  C   UNL     1      24.032  -4.147   5.901  0.00  0.00    +0.000 C 
BRANCH  15  17
ATOM     17  O   UNL     1      23.546  -4.531   3.594  0.00  0.00    +0.000 OA
ATOM     18  H   UNL     1      23.879  -3.611   3.628  0.00  0.00    +0.000 HD
ENDBRANCH  15  17
ENDBRANCH  14  15
ENDBRANCH   1  14
TORSDOF 7
ENDMDL
MODEL 7
REMARK VINA RESULT:    -3.525      9.679     13.688
REMARK INTER + INTRA:          -5.302
REMARK INTER:                  -4.717
REMARK INTRA:                  -0.584
REMARK UNBOUND:                -0.541
REMARK  Name = 
REMARK  10 active torsions:
REMARK  status: ('A' for Active; 'I' for Inactive)
REMARK    1  A    between atoms: C_1  and  C_2
REMARK    2  A    between atoms: C_5  and  N_8
REMARK    3  A    between atoms: N_8  and  C_9
REMARK    4  A    between atoms: N_8  and  C_13
REMARK    5  A    between atoms: C_9  and  C_10
REMARK    6  A    between atoms: C_10  and  C_11
REMARK    7  A    between atoms: C_10  and  O_12
REMARK    8  A    between atoms: C_13  and  C_14
REMARK    9  A    between atoms: C_14  and  C_15
REMARK   10  A    between atoms: C_14  and  O_16
REMARK                            x       y       z     vdW  Elec       q    Type
REMARK                         _______ _______ _______ _____ _____    ______ ____
ROOT
ATOM      1  N   UNL     1      25.379  -5.996   6.109  0.00  0.00    +0.000 N 
ENDROOT
BRANCH   1   6
ATOM      2  C   UNL     1      25.094 -10.307   9.938  0.00  0.00    +0.000 C 
ATOM      3  C   UNL     1      25.193  -9.190   8.944  0.00  0.00    +0.000 A 
ATOM      4  C   UNL     1      25.278  -7.867   9.363  0.00  0.00    +0.000 A 
ATOM      5  C   UNL     1      25.340  -6.822   8.426  0.00  0.00    +0.000 A 
ATOM      6  C   UNL     1      25.297  -7.041   7.038  0.00  0.00    +0.000 A 
ATOM      7  C   UNL     1      25.213  -8.391   6.650  0.00  0.00    +0.000 A 
ATOM      8  C   UNL     1      25.153  -9.446   7.576  0.00  0.00    +0.000 A 
ENDBRANCH   1   6
BRANCH   1   9
ATOM      9  C   UNL     1      26.061  -6.207   4.810  0.00  0.00    +0.000 C 
BRANCH   9  10
ATOM     10  C   UNL     1      25.162  -5.862   3.597  0.00  0.00    +0.000 C 
ATOM     11  C   UNL     1      25.409  -6.827   2.443  0.00  0.00    +0.000 C 
BRANCH  10  12
ATOM     12  O   UNL     1      23.773  -5.936   3.948  0.00  0.00    +0.000 OA
ATOM     13  H   UNL     1      23.712  -6.113   4.902  0.00  0.00    +0.000 HD
ENDBRANCH  10  12
ENDBRANCH   9  10
ENDBRANCH   1   9
BRANCH   1  14
ATOM     14  C   UNL     1      25.278  -4.577   6.538  0.00  0.00    +0.000 C 
BRANCH  14  15
ATOM     15  C   UNL     1      23.817  -4.154   6.821  0.00  0.00    +0.000 C 
ATOM     16  C   UNL     1      23.685  -3.212   8.012  0.00  0.00    +0.000 C 
BRANCH  15  17
ATOM     17  O   UNL     1      23.222  -3.521   5.690  0.00  0.00    +0.000 OA
ATOM     18  H   UNL     1      22.573  -2.892   6.064  0.00  0.00    +0.000 HD
ENDBRANCH  15  17
ENDBRANCH  14  15
ENDBRANCH   1  14
TORSDOF 7
ENDMDL
MODEL 8
REMARK VINA RESULT:    -3.506      9.472     11.964
REMARK INTER + INTRA:          -5.277
REMARK INTER:                  -4.678
REMARK INTRA:                  -0.599
REMARK UNBOUND:                -0.541
REMARK  Name = 
REMARK  10 active torsions:
REMARK  status: ('A' for Active; 'I' for Inactive)
REMARK    1  A    between atoms: C_1  and  C_2
REMARK    2  A    between atoms: C_5  and  N_8
REMARK    3  A    between atoms: N_8  and  C_9
REMARK    4  A    between atoms: N_8  and  C_13
REMARK    5  A    between atoms: C_9  and  C_10
REMARK    6  A    between atoms: C_10  and  C_11
REMARK    7  A    between atoms: C_10  and  O_12
REMARK    8  A    between atoms: C_13  and  C_14
REMARK    9  A    between atoms: C_14  and  C_15
REMARK   10  A    between atoms: C_14  and  O_16
REMARK                            x       y       z     vdW  Elec       q    Type
REMARK                         _______ _______ _______ _____ _____    ______ ____
ROOT
ATOM      1  N   UNL     1      25.030  -6.877   5.480  0.00  0.00    +0.000 N 
ENDROOT
BRANCH   1   6
ATOM      2  C   UNL     1      24.618 -12.608   4.918  0.00  0.00    +0.000 C 
ATOM      3  C   UNL     1      24.712 -11.122   5.085  0.00  0.00    +0.000 A 
ATOM      4  C   UNL     1      23.762 -10.278   4.519  0.00  0.00    +0.000 A 
ATOM      5  C   UNL     1      23.872  -8.885   4.654  0.00  0.00    +0.000 A 
ATOM      6  C   UNL     1      24.937  -8.267   5.333  0.00  0.00    +0.000 A 
ATOM      7  C   UNL     1      25.877  -9.151   5.894  0.00  0.00    +0.000 A 
ATOM      8  C   UNL     1      25.778 -10.546   5.769  0.00  0.00    +0.000 A 
ENDBRANCH   1   6
BRANCH   1   9
ATOM      9  C   UNL     1      24.644  -5.984   4.361  0.00  0.00    +0.000 C 
BRANCH   9  10
ATOM     10  C   UNL     1      25.773  -5.809   3.316  0.00  0.00    +0.000 C 
ATOM     11  C   UNL     1      25.506  -6.657   2.078  0.00  0.00    +0.000 C 
BRANCH  10  12
ATOM     12  O   UNL     1      25.883  -4.440   2.902  0.00  0.00    +0.000 OA
ATOM     13  H   UNL     1      26.475  -3.984   3.522  0.00  0.00    +0.000 HD
ENDBRANCH  10  12
ENDBRANCH   9  10
ENDBRANCH   1   9
BRANCH   1  14
ATOM     14  C   UNL     1      25.949  -6.269   6.476  0.00  0.00    +0.000 C 
BRANCH  14  15
ATOM     15  C   UNL     1      25.226  -5.916   7.799  0.00  0.00    +0.000 C 
ATOM     16  C   UNL     1      25.333  -7.013   8.851  0.00  0.00    +0.000 C 
BRANCH  15  17
ATOM     17  O   UNL     1      25.728  -4.708   8.367  0.00  0.00    +0.000 OA
ATOM     18  H   UNL     1      25.012  -4.053   8.242  0.00  0.00    +0.000 HD
ENDBRANCH  15  17
ENDBRANCH  14  15
ENDBRANCH   1  14
TORSDOF 7
ENDMDL
MODEL 9
REMARK VINA RESULT:    -3.449      1.054      3.464
REMARK INTER + INTRA:          -5.199
REMARK INTER:                  -4.634
REMARK INTRA:                  -0.566
REMARK UNBOUND:                -0.541
REMARK  Name = 
REMARK  10 active torsions:
REMARK  status: ('A' for Active; 'I' for Inactive)
REMARK    1  A    between atoms: C_1  and  C_2
REMARK    2  A    between atoms: C_5  and  N_8
REMARK    3  A    between atoms: N_8  and  C_9
REMARK    4  A    between atoms: N_8  and  C_13
REMARK    5  A    between atoms: C_9  and  C_10
REMARK    6  A    between atoms: C_10  and  C_11
REMARK    7  A    between atoms: C_10  and  O_12
REMARK    8  A    between atoms: C_13  and  C_14
REMARK    9  A    between atoms: C_14  and  C_15
REMARK   10  A    between atoms: C_14  and  O_16
REMARK                            x       y       z     vdW  Elec       q    Type
REMARK                         _______ _______ _______ _____ _____    ______ ____
ROOT
ATOM      1  N   UNL     1      23.858 -10.987  -4.361  0.00  0.00    +0.000 N 
ENDROOT
BRANCH   1   6
ATOM      2  C   UNL     1      24.274 -12.873  -9.801  0.00  0.00    +0.000 C 
ATOM      3  C   UNL     1      24.189 -12.373  -8.391  0.00  0.00    +0.000 A 
ATOM      4  C   UNL     1      24.600 -13.168  -7.326  0.00  0.00    +0.000 A 
ATOM      5  C   UNL     1      24.489 -12.706  -6.004  0.00  0.00    +0.000 A 
ATOM      6  C   UNL     1      23.947 -11.449  -5.680  0.00  0.00    +0.000 A 
ATOM      7  C   UNL     1      23.544 -10.672  -6.782  0.00  0.00    +0.000 A 
ATOM      8  C   UNL     1      23.651 -11.121  -8.108  0.00  0.00    +0.000 A 
ENDBRANCH   1   6
BRANCH   1   9
ATOM      9  C   UNL     1      23.130 -11.781  -3.342  0.00  0.00    +0.000 C 
BRANCH   9  10
ATOM     10  C   UNL     1      21.675 -12.105  -3.761  0.00  0.00    +0.000 C 
ATOM     11  C   UNL     1      21.484 -13.605  -3.952  0.00  0.00    +0.000 C 
BRANCH  10  12
ATOM     12  O   UNL     1      20.742 -11.661  -2.766  0.00  0.00    +0.000 OA
ATOM     13  H   UNL     1      21.072 -11.942  -1.896  0.00  0.00    +0.000 HD
ENDBRANCH  10  12
ENDBRANCH   9  10
ENDBRANCH   1   9
BRANCH   1  14
ATOM     14  C   UNL     1      24.003  -9.544  -4.040  0.00  0.00    +0.000 C 
BRANCH  14  15
ATOM     15  C   UNL     1      23.682  -9.239  -2.557  0.00  0.00    +0.000 C 
ATOM     16  C   UNL     1      24.858  -8.630  -1.802  0.00  0.00    +0.000 C 
BRANCH  15  17
ATOM     17  O   UNL     1      22.569  -8.356  -2.429  0.00  0.00    +0.000 OA
ATOM     18  H   UNL     1      22.611  -7.781  -3.220  0.00  0.00    +0.000 HD
ENDBRANCH  15  17
ENDBRANCH  14  15
ENDBRANCH   1  14
TORSDOF 7
ENDMDL
