MODEL 1
REMARK VINA RESULT:    -3.411      0.000      0.000
REMARK INTER + INTRA:          -3.748
REMARK INTER:                  -3.710
REMARK INTRA:                  -0.038
REMARK UNBOUND:                -0.038
REMARK  Name = 
REMARK  3 active torsions:
REMARK  status: ('A' for Active; 'I' for Inactive)
REMARK    1  A    between atoms: C_1  and  O_2
REMARK    2  A    between atoms: O_2  and  C_3
REMARK    3  A    between atoms: C_8  and  O_9
REMARK                            x       y       z     vdW  Elec       q    Type
REMARK                         _______ _______ _______ _____ _____    ______ ____
ROOT
ATOM      1  C   UNL     1      24.363  -4.719   5.500  0.00  0.00    +0.000 A 
ATOM      2  C   UNL     1      25.464  -5.386   6.035  0.00  0.00    +0.000 A 
ATOM      3  C   UNL     1      26.148  -6.335   5.265  0.00  0.00    +0.000 A 
ATOM      4  C   UNL     1      25.736  -6.621   3.962  0.00  0.00    +0.000 A 
ATOM      5  C   UNL     1      24.637  -5.958   3.420  0.00  0.00    +0.000 A 
ATOM      6  C   UNL     1      23.964  -5.018   4.191  0.00  0.00    +0.000 A 
ENDROOT
BRANCH   1   8
ATOM      7  C   UNL     1      23.721  -3.706   7.551  0.00  0.00    +0.000 C 
ATOM      8  O   UNL     1      23.601  -3.772   6.135  0.00  0.00    +0.000 OA
ENDBRANCH   1   8
BRANCH   6   9
ATOM      9  O   UNL     1      22.887  -4.380   3.637  0.00  0.00    +0.000 OA
ATOM     10  H   UNL     1      22.654  -4.918   2.856  0.00  0.00    +0.000 HD
ENDBRANCH   6   9
TORSDOF 2
ENDMDL
MODEL 2
REMARK VINA RESULT:    -3.361      1.311      3.102
REMARK INTER + INTRA:          -3.694
REMARK INTER:                  -3.642
REMARK INTRA:                  -0.052
REMARK UNBOUND:                -0.038
REMARK  Name = 
REMARK  3 active torsions:
REMARK  status: ('A' for Active; 'I' for Inactive)
REMARK    1  A    between atoms: C_1  and  O_2
REMARK    2  A    between atoms: O_2  and  C_3
REMARK    3  A    between atoms: C_8  and  O_9
REMARK                            x       y       z     vdW  Elec       q    Type
REMARK                         _______ _______ _______ _____ _____    ______ ____
ROOT
ATOM      1  C   UNL     1      24.515  -5.782   4.513  0.00  0.00    +0.000 A 
ATOM      2  C   UNL     1      25.240  -6.134   5.651  0.00  0.00    +0.000 A 
ATOM      3  C   UNL     1      25.115  -5.375   6.821  0.00  0.00    +0.000 A 
ATOM      4  C   UNL     1      24.268  -4.266   6.859  0.00  0.00    +0.000 A 
ATOM      5  C   UNL     1      23.541  -3.909   5.727  0.00  0.00    +0.000 A 
ATOM      6  C   UNL     1      23.671  -4.666   4.569  0.00  0.00    +0.000 A 
ENDROOT
BRANCH   1   8
ATOM      7  C   UNL     1      25.789  -6.459   2.624  0.00  0.00    +0.000 C 
ATOM      8  O   UNL     1      24.540  -6.429   3.303  0.00  0.00    +0.000 OA
ENDBRANCH   1   8
BRANCH   6   9
ATOM      9  O   UNL     1      22.946  -4.295   3.469  0.00  0.00    +0.000 OA
ATOM     10  H   UNL     1      22.132  -3.894   3.831  0.00  0.00    +0.000 HD
ENDBRANCH   6   9
TORSDOF 2
ENDMDL
MODEL 3
REMARK VINA RESULT:    -3.133      2.146      3.189
REMARK INTER + INTRA:          -3.446
REMARK INTER:                  -3.394
REMARK INTRA:                  -0.053
REMARK UNBOUND:                -0.038
REMARK  Name = 
REMARK  3 active torsions:
REMARK  status: ('A' for Active; 'I' for Inactive)
REMARK    1  A    between atoms: C_1  and  O_2
REMARK    2  A    between atoms: O_2  and  C_3
REMARK    3  A    between atoms: C_8  and  O_9
REMARK                            x       y       z     vdW  Elec       q    Type
REMARK                         _______ _______ _______ _____ _____    ______ ____
ROOT
ATOM      1  C   UNL     1      25.417  -5.921   7.082  0.00  0.00    +0.000 A 
ATOM      2  C   UNL     1      25.400  -6.733   5.949  0.00  0.00    +0.000 A 
ATOM      3  C   UNL     1      24.730  -6.309   4.795  0.00  0.00    +0.000 A 
ATOM      4  C   UNL     1      24.076  -5.076   4.768  0.00  0.00    +0.000 A 
ATOM      5  C   UNL     1      24.088  -4.259   5.896  0.00  0.00    +0.000 A 
ATOM      6  C   UNL     1      24.755  -4.687   7.037  0.00  0.00    +0.000 A 
ENDROOT
BRANCH   1   8
ATOM      7  C   UNL     1      25.483  -7.283   9.028  0.00  0.00    +0.000 C 
ATOM      8  O   UNL     1      26.030  -6.206   8.276  0.00  0.00    +0.000 OA
ENDBRANCH   1   8
BRANCH   6   9
ATOM      9  O   UNL     1      24.754  -3.867   8.133  0.00  0.00    +0.000 OA
ATOM     10  H   UNL     1      24.746  -2.962   7.766  0.00  0.00    +0.000 HD
ENDBRANCH   6   9
TORSDOF 2
ENDMDL
MODEL 4
REMARK VINA RESULT:    -2.981      1.790      3.313
REMARK INTER + INTRA:          -3.280
REMARK INTER:                  -3.243
REMARK INTRA:                  -0.038
REMARK UNBOUND:                -0.038
REMARK  Name = 
REMARK  3 active torsions:
REMARK  status: ('A' for Active; 'I' for Inactive)
REMARK    1  A    between atoms: C_1  and  O_2
REMARK    2  A    between atoms: O_2  and  C_3
REMARK    3  A    between atoms: C_8  and  O_9
REMARK                            x       y       z     vdW  Elec       q    Type
REMARK                         _______ _______ _______ _____ _____    ______ ____
ROOT
ATOM      1  C   UNL     1      24.826  -5.328   6.302  0.00  0.00    +0.000 A 
ATOM      2  C   UNL     1      25.146  -6.570   5.754  0.00  0.00    +0.000 A 
ATOM      3  C   UNL     1      25.735  -7.556   6.555  0.00  0.00    +0.000 A 
ATOM      4  C   UNL     1      26.006  -7.306   7.902  0.00  0.00    +0.000 A 
ATOM      5  C   UNL     1      25.689  -6.068   8.456  0.00  0.00    +0.000 A 
ATOM      6  C   UNL     1      25.105  -5.096   7.654  0.00  0.00    +0.000 A 
ENDROOT
BRANCH   1   8
ATOM      7  C   UNL     1      23.705  -4.553   4.355  0.00  0.00    +0.000 C 
ATOM      8  O   UNL     1      24.250  -4.274   5.639  0.00  0.00    +0.000 OA
ENDBRANCH   1   8
BRANCH   6   9
ATOM      9  O   UNL     1      24.803  -3.886   8.221  0.00  0.00    +0.000 OA
ATOM     10  H   UNL     1      23.834  -3.806   8.133  0.00  0.00    +0.000 HD
ENDBRANCH   6   9
TORSDOF 2
ENDMDL
MODEL 5
REMARK VINA RESULT:    -2.947      2.085      3.962
REMARK INTER + INTRA:          -3.244
REMARK INTER:                  -3.207
REMARK INTRA:                  -0.038
REMARK UNBOUND:                -0.038
REMARK  Name = 
REMARK  3 active torsions:
REMARK  status: ('A' for Active; 'I' for Inactive)
REMARK    1  A    between atoms: C_1  and  O_2
REMARK    2  A    between atoms: O_2  and  C_3
REMARK    3  A    between atoms: C_8  and  O_9
REMARK                            x       y       z     vdW  Elec       q    Type
REMARK                         _______ _______ _______ _____ _____    ______ ____
ROOT
ATOM      1  C   UNL     1      24.956  -5.775   5.538  0.00  0.00    +0.000 A 
ATOM      2  C   UNL     1      24.175  -4.626   5.417  0.00  0.00    +0.000 A 
ATOM      3  C   UNL     1      23.830  -3.892   6.559  0.00  0.00    +0.000 A 
ATOM      4  C   UNL     1      24.261  -4.302   7.822  0.00  0.00    +0.000 A 
ATOM      5  C   UNL     1      25.041  -5.449   7.950  0.00  0.00    +0.000 A 
ATOM      6  C   UNL     1      25.379  -6.171   6.813  0.00  0.00    +0.000 A 
ENDROOT
BRANCH   1   8
ATOM      7  C   UNL     1      24.798  -6.332   3.233  0.00  0.00    +0.000 C 
ATOM      8  O   UNL     1      25.367  -6.588   4.512  0.00  0.00    +0.000 OA
ENDBRANCH   1   8
BRANCH   6   9
ATOM      9  O   UNL     1      26.146  -7.295   6.964  0.00  0.00    +0.000 OA
ATOM     10  H   UNL     1      26.363  -7.321   7.916  0.00  0.00    +0.000 HD
ENDBRANCH   6   9
TORSDOF 2
ENDMDL
MODEL 6
REMARK VINA RESULT:    -2.880      2.693      3.505
REMARK INTER + INTRA:          -3.171
REMARK INTER:                  -3.118
REMARK INTRA:                  -0.053
REMARK UNBOUND:                -0.038
REMARK  Name = 
REMARK  3 active torsions:
REMARK  status: ('A' for Active; 'I' for Inactive)
REMARK    1  A    between atoms: C_1  and  O_2
REMARK    2  A    between atoms: O_2  and  C_3
REMARK    3  A    between atoms: C_8  and  O_9
REMARK                            x       y       z     vdW  Elec       q    Type
REMARK                         _______ _______ _______ _____ _____    ______ ____
ROOT
ATOM      1  C   UNL     1      25.353  -6.100   7.518  0.00  0.00    +0.000 A 
ATOM      2  C   UNL     1      24.759  -4.908   7.929  0.00  0.00    +0.000 A 
ATOM      3  C   UNL     1      24.140  -4.074   6.989  0.00  0.00    +0.000 A 
ATOM      4  C   UNL     1      24.115  -4.427   5.638  0.00  0.00    +0.000 A 
ATOM      5  C   UNL     1      24.706  -5.617   5.220  0.00  0.00    +0.000 A 
ATOM      6  C   UNL     1      25.318  -6.437   6.159  0.00  0.00    +0.000 A 
ENDROOT
BRANCH   1   8
ATOM      7  C   UNL     1      25.180  -7.708   9.259  0.00  0.00    +0.000 C 
ATOM      8  O   UNL     1      25.992  -7.008   8.324  0.00  0.00    +0.000 OA
ENDBRANCH   1   8
BRANCH   6   9
ATOM      9  O   UNL     1      25.892  -7.602   5.724  0.00  0.00    +0.000 OA
ATOM     10  H   UNL     1      26.853  -7.428   5.745  0.00  0.00    +0.000 HD
ENDBRANCH   6   9
TORSDOF 2
ENDMDL
MODEL 7
REMARK VINA RESULT:    -2.854     13.303     14.493
REMARK INTER + INTRA:          -3.143
REMARK INTER:                  -3.090
REMARK INTRA:                  -0.052
REMARK UNBOUND:                -0.038
REMARK  Name = 
REMARK  3 active torsions:
REMARK  status: ('A' for Active; 'I' for Inactive)
REMARK    1  A    between atoms: C_1  and  O_2
REMARK    2  A    between atoms: O_2  and  C_3
REMARK    3  A    between atoms: C_8  and  O_9
REMARK                            x       y       z     vdW  Elec       q    Type
REMARK                         _______ _______ _______ _____ _____    ______ ____
ROOT
ATOM      1  C   UNL     1      23.689  -9.551  -8.842  0.00  0.00    +0.000 A 
ATOM      2  C   UNL     1      24.786  -9.998  -9.577  0.00  0.00    +0.000 A 
ATOM      3  C   UNL     1      26.004  -9.312  -9.503  0.00  0.00    +0.000 A 
ATOM      4  C   UNL     1      26.131  -8.179  -8.697  0.00  0.00    +0.000 A 
ATOM      5  C   UNL     1      25.040  -7.726  -7.959  0.00  0.00    +0.000 A 
ATOM      6  C   UNL     1      23.835  -8.413  -8.039  0.00  0.00    +0.000 A 
ENDROOT
BRANCH   1   8
ATOM      7  C   UNL     1      22.362 -11.455  -8.330  0.00  0.00    +0.000 C 
ATOM      8  O   UNL     1      22.441 -10.121  -8.818  0.00  0.00    +0.000 OA
ENDBRANCH   1   8
BRANCH   6   9
ATOM      9  O   UNL     1      22.776  -7.949  -7.304  0.00  0.00    +0.000 OA
ATOM     10  H   UNL     1      22.058  -8.588  -7.473  0.00  0.00    +0.000 HD
ENDBRANCH   6   9
TORSDOF 2
ENDMDL
MODEL 8
REMARK VINA RESULT:    -2.841      9.793     11.348
REMARK INTER + INTRA:          -3.128
REMARK INTER:                  -3.090
REMARK INTRA:                  -0.038
REMARK UNBOUND:                -0.038
REMARK  Name = 
REMARK  3 active torsions:
REMARK  status: ('A' for Active; 'I' for Inactive)
REMARK    1  A    between atoms: C_1  and  O_2
REMARK    2  A    between atoms: O_2  and  C_3
REMARK    3  A    between atoms: C_8  and  O_9
REMARK                            x       y       z     vdW  Elec       q    Type
REMARK                         _______ _______ _______ _____ _____    ______ ____
ROOT
ATOM      1  C   UNL     1      22.915 -11.287  -3.516  0.00  0.00    +0.000 A 
ATOM      2  C   UNL     1      23.979 -11.689  -4.323  0.00  0.00    +0.000 A 
ATOM      3  C   UNL     1      23.867 -12.847  -5.103  0.00  0.00    +0.000 A 
ATOM      4  C   UNL     1      22.695 -13.605  -5.080  0.00  0.00    +0.000 A 
ATOM      5  C   UNL     1      21.628 -13.209  -4.278  0.00  0.00    +0.000 A 
ATOM      6  C   UNL     1      21.748 -12.060  -3.507  0.00  0.00    +0.000 A 
ENDROOT
BRANCH   1   8
ATOM      7  C   UNL     1      24.117  -9.490  -2.528  0.00  0.00    +0.000 C 
ATOM      8  O   UNL     1      22.886 -10.182  -2.704  0.00  0.00    +0.000 OA
ENDBRANCH   1   8
BRANCH   6   9
ATOM      9  O   UNL     1      20.685 -11.691  -2.726  0.00  0.00    +0.000 OA
ATOM     10  H   UNL     1      20.936 -10.822  -2.359  0.00  0.00    +0.000 HD
ENDBRANCH   6   9
TORSDOF 2
ENDMDL
MODEL 9
REMARK VINA RESULT:    -2.773      2.338      3.460
REMARK INTER + INTRA:          -3.054
REMARK INTER:                  -3.001
REMARK INTRA:                  -0.052
REMARK UNBOUND:                -0.038
REMARK  Name = 
REMARK  3 active torsions:
REMARK  status: ('A' for Active; 'I' for Inactive)
REMARK    1  A    between atoms: C_1  and  O_2
REMARK    2  A    between atoms: O_2  and  C_3
REMARK    3  A    between atoms: C_8  and  O_9
REMARK                            x       y       z     vdW  Elec       q    Type
REMARK                         _______ _______ _______ _____ _____    ______ ____
ROOT
ATOM      1  C   UNL     1      25.307  -6.693   6.350  0.00  0.00    +0.000 A 
ATOM      2  C   UNL     1      25.302  -6.236   7.668  0.00  0.00    +0.000 A 
ATOM      3  C   UNL     1      24.793  -4.966   7.966  0.00  0.00    +0.000 A 
ATOM      4  C   UNL     1      24.288  -4.150   6.952  0.00  0.00    +0.000 A 
ATOM      5  C   UNL     1      24.289  -4.600   5.633  0.00  0.00    +0.000 A 
ATOM      6  C   UNL     1      24.796  -5.861   5.347  0.00  0.00    +0.000 A 
ENDROOT
BRANCH   1   8
ATOM      7  C   UNL     1      25.028  -9.053   6.313  0.00  0.00    +0.000 C 
ATOM      8  O   UNL     1      25.773  -7.908   5.915  0.00  0.00    +0.000 OA
ENDBRANCH   1   8
BRANCH   6   9
ATOM      9  O   UNL     1      24.786  -6.281   4.043  0.00  0.00    +0.000 OA
ATOM     10  H   UNL     1      25.296  -5.603   3.560  0.00  0.00    +0.000 HD
ENDBRANCH   6   9
TORSDOF 2
ENDMDL
