MODEL 1
REMARK VINA RESULT:    -3.356      0.000      0.000
REMARK INTER + INTRA:          -3.703
REMARK INTER:                  -3.650
REMARK INTRA:                  -0.052
REMARK UNBOUND:                -0.052
REMARK  Name = 
REMARK  3 active torsions:
REMARK  status: ('A' for Active; 'I' for Inactive)
REMARK    1  A    between atoms: C_1  and  O_2
REMARK    2  A    between atoms: O_2  and  C_3
REMARK    3  A    between atoms: C_8  and  O_9
REMARK                            x       y       z     vdW  Elec       q    Type
REMARK                         _______ _______ _______ _____ _____    ______ ____
ROOT
ATOM      1  C   UNL     1      24.516  -5.786   4.511  0.00  0.00    +0.000 A 
ATOM      2  C   UNL     1      25.235  -6.122   5.657  0.00  0.00    +0.000 A 
ATOM      3  C   UNL     1      25.099  -5.352   6.819  0.00  0.00    +0.000 A 
ATOM      4  C   UNL     1      24.245  -4.248   6.840  0.00  0.00    +0.000 A 
ATOM      5  C   UNL     1      23.522  -3.906   5.700  0.00  0.00    +0.000 A 
ATOM      6  C   UNL     1      23.665  -4.675   4.551  0.00  0.00    +0.000 A 
ENDROOT
BRANCH   1   8
ATOM      7  C   UNL     1      25.801  -6.456   2.628  0.00  0.00    +0.000 C 
ATOM      8  O   UNL     1      24.552  -6.446   3.308  0.00  0.00    +0.000 OA
ENDBRANCH   1   8
BRANCH   6   9
ATOM      9  O   UNL     1      22.944  -4.320   3.442  0.00  0.00    +0.000 OA
ATOM     10  H   UNL     1      22.059  -4.705   3.587  0.00  0.00    +0.000 HD
ENDBRANCH   6   9
TORSDOF 2
ENDMDL
MODEL 2
REMARK VINA RESULT:    -3.341      1.333      3.106
REMARK INTER + INTRA:          -3.687
REMARK INTER:                  -3.648
REMARK INTRA:                  -0.039
REMARK UNBOUND:                -0.052
REMARK  Name = 
REMARK  3 active torsions:
REMARK  status: ('A' for Active; 'I' for Inactive)
REMARK    1  A    between atoms: C_1  and  O_2
REMARK    2  A    between atoms: O_2  and  C_3
REMARK    3  A    between atoms: C_8  and  O_9
REMARK                            x       y       z     vdW  Elec       q    Type
REMARK                         _______ _______ _______ _____ _____    ______ ____
ROOT
ATOM      1  C   UNL     1      24.488  -4.759   5.442  0.00  0.00    +0.000 A 
ATOM      2  C   UNL     1      25.620  -5.373   5.976  0.00  0.00    +0.000 A 
ATOM      3  C   UNL     1      26.325  -6.319   5.221  0.00  0.00    +0.000 A 
ATOM      4  C   UNL     1      25.903  -6.654   3.934  0.00  0.00    +0.000 A 
ATOM      5  C   UNL     1      24.773  -6.045   3.393  0.00  0.00    +0.000 A 
ATOM      6  C   UNL     1      24.080  -5.108   4.149  0.00  0.00    +0.000 A 
ENDROOT
BRANCH   1   8
ATOM      7  C   UNL     1      23.773  -3.778   7.485  0.00  0.00    +0.000 C 
ATOM      8  O   UNL     1      23.704  -3.821   6.064  0.00  0.00    +0.000 OA
ENDBRANCH   1   8
BRANCH   6   9
ATOM      9  O   UNL     1      22.972  -4.523   3.596  0.00  0.00    +0.000 OA
ATOM     10  H   UNL     1      22.225  -5.077   3.891  0.00  0.00    +0.000 HD
ENDBRANCH   6   9
TORSDOF 2
ENDMDL
MODEL 3
REMARK VINA RESULT:    -3.174      2.648      3.643
REMARK INTER + INTRA:          -3.505
REMARK INTER:                  -3.455
REMARK INTRA:                  -0.050
REMARK UNBOUND:                -0.052
REMARK  Name = 
REMARK  3 active torsions:
REMARK  status: ('A' for Active; 'I' for Inactive)
REMARK    1  A    between atoms: C_1  and  O_2
REMARK    2  A    between atoms: O_2  and  C_3
REMARK    3  A    between atoms: C_8  and  O_9
REMARK                            x       y       z     vdW  Elec       q    Type
REMARK                         _______ _______ _______ _____ _____    ______ ____
ROOT
ATOM      1  C   UNL     1      25.253  -5.838   7.154  0.00  0.00    +0.000 A 
ATOM      2  C   UNL     1      25.288  -6.683   6.046  0.00  0.00    +0.000 A 
ATOM      3  C   UNL     1      24.691  -6.284   4.843  0.00  0.00    +0.000 A 
ATOM      4  C   UNL     1      24.059  -5.044   4.744  0.00  0.00    +0.000 A 
ATOM      5  C   UNL     1      24.020  -4.194   5.847  0.00  0.00    +0.000 A 
ATOM      6  C   UNL     1      24.614  -4.597   7.036  0.00  0.00    +0.000 A 
ENDROOT
BRANCH   1   8
ATOM      7  C   UNL     1      25.372  -7.298   9.026  0.00  0.00    +0.000 C 
ATOM      8  O   UNL     1      25.791  -6.097   8.389  0.00  0.00    +0.000 OA
ENDBRANCH   1   8
BRANCH   6   9
ATOM      9  O   UNL     1      24.562  -3.745   8.106  0.00  0.00    +0.000 OA
ATOM     10  H   UNL     1      24.050  -2.977   7.788  0.00  0.00    +0.000 HD
ENDBRANCH   6   9
TORSDOF 2
ENDMDL
MODEL 4
REMARK VINA RESULT:    -2.987      2.275      3.283
REMARK INTER + INTRA:          -3.302
REMARK INTER:                  -3.262
REMARK INTRA:                  -0.039
REMARK UNBOUND:                -0.052
REMARK  Name = 
REMARK  3 active torsions:
REMARK  status: ('A' for Active; 'I' for Inactive)
REMARK    1  A    between atoms: C_1  and  O_2
REMARK    2  A    between atoms: O_2  and  C_3
REMARK    3  A    between atoms: C_8  and  O_9
REMARK                            x       y       z     vdW  Elec       q    Type
REMARK                         _______ _______ _______ _____ _____    ______ ____
ROOT
ATOM      1  C   UNL     1      24.865  -5.412   6.226  0.00  0.00    +0.000 A 
ATOM      2  C   UNL     1      25.146  -6.671   5.697  0.00  0.00    +0.000 A 
ATOM      3  C   UNL     1      25.598  -7.697   6.537  0.00  0.00    +0.000 A 
ATOM      4  C   UNL     1      25.770  -7.470   7.903  0.00  0.00    +0.000 A 
ATOM      5  C   UNL     1      25.491  -6.215   8.439  0.00  0.00    +0.000 A 
ATOM      6  C   UNL     1      25.044  -5.202   7.599  0.00  0.00    +0.000 A 
ENDROOT
BRANCH   1   8
ATOM      7  C   UNL     1      23.743  -4.582   4.303  0.00  0.00    +0.000 C 
ATOM      8  O   UNL     1      24.419  -4.319   5.526  0.00  0.00    +0.000 OA
ENDBRANCH   1   8
BRANCH   6   9
ATOM      9  O   UNL     1      24.776  -3.977   8.149  0.00  0.00    +0.000 OA
ATOM     10  H   UNL     1      24.893  -4.105   9.110  0.00  0.00    +0.000 HD
ENDBRANCH   6   9
TORSDOF 2
ENDMDL
MODEL 5
REMARK VINA RESULT:    -2.953      1.661      2.687
REMARK INTER + INTRA:          -3.264
REMARK INTER:                  -3.226
REMARK INTRA:                  -0.038
REMARK UNBOUND:                -0.052
REMARK  Name = 
REMARK  3 active torsions:
REMARK  status: ('A' for Active; 'I' for Inactive)
REMARK    1  A    between atoms: C_1  and  O_2
REMARK    2  A    between atoms: O_2  and  C_3
REMARK    3  A    between atoms: C_8  and  O_9
REMARK                            x       y       z     vdW  Elec       q    Type
REMARK                         _______ _______ _______ _____ _____    ______ ____
ROOT
ATOM      1  C   UNL     1      25.013  -5.697   5.540  0.00  0.00    +0.000 A 
ATOM      2  C   UNL     1      24.212  -4.559   5.453  0.00  0.00    +0.000 A 
ATOM      3  C   UNL     1      23.821  -3.888   6.618  0.00  0.00    +0.000 A 
ATOM      4  C   UNL     1      24.228  -4.350   7.871  0.00  0.00    +0.000 A 
ATOM      5  C   UNL     1      25.029  -5.486   7.966  0.00  0.00    +0.000 A 
ATOM      6  C   UNL     1      25.411  -6.145   6.805  0.00  0.00    +0.000 A 
ENDROOT
BRANCH   1   8
ATOM      7  C   UNL     1      24.788  -6.288   3.249  0.00  0.00    +0.000 C 
ATOM      8  O   UNL     1      25.468  -6.451   4.488  0.00  0.00    +0.000 OA
ENDBRANCH   1   8
BRANCH   6   9
ATOM      9  O   UNL     1      26.198  -7.260   6.924  0.00  0.00    +0.000 OA
ATOM     10  H   UNL     1      27.113  -6.927   6.847  0.00  0.00    +0.000 HD
ENDBRANCH   6   9
TORSDOF 2
ENDMDL
MODEL 6
REMARK VINA RESULT:    -2.916      6.372      8.535
REMARK INTER + INTRA:          -3.224
REMARK INTER:                  -3.180
REMARK INTRA:                  -0.044
REMARK UNBOUND:                -0.052
REMARK  Name = 
REMARK  3 active torsions:
REMARK  status: ('A' for Active; 'I' for Inactive)
REMARK    1  A    between atoms: C_1  and  O_2
REMARK    2  A    between atoms: O_2  and  C_3
REMARK    3  A    between atoms: C_8  and  O_9
REMARK                            x       y       z     vdW  Elec       q    Type
REMARK                         _______ _______ _______ _____ _____    ______ ____
ROOT
ATOM      1  C   UNL     1      24.395  -8.764  -2.037  0.00  0.00    +0.000 A 
ATOM      2  C   UNL     1      25.255  -9.838  -2.264  0.00  0.00    +0.000 A 
ATOM      3  C   UNL     1      24.749 -11.049  -2.750  0.00  0.00    +0.000 A 
ATOM      4  C   UNL     1      23.384 -11.193  -3.009  0.00  0.00    +0.000 A 
ATOM      5  C   UNL     1      22.519 -10.124  -2.786  0.00  0.00    +0.000 A 
ATOM      6  C   UNL     1      23.030  -8.926  -2.303  0.00  0.00    +0.000 A 
ENDROOT
BRANCH   1   8
ATOM      7  C   UNL     1      25.726  -7.497  -0.529  0.00  0.00    +0.000 C 
ATOM      8  O   UNL     1      24.751  -7.526  -1.565  0.00  0.00    +0.000 OA
ENDBRANCH   1   8
BRANCH   6   9
ATOM      9  O   UNL     1      22.160  -7.890  -2.091  0.00  0.00    +0.000 OA
ATOM     10  H   UNL     1      22.316  -7.278  -2.835  0.00  0.00    +0.000 HD
ENDBRANCH   6   9
TORSDOF 2
ENDMDL
MODEL 7
REMARK VINA RESULT:    -2.881      2.290      4.071
REMARK INTER + INTRA:          -3.186
REMARK INTER:                  -3.148
REMARK INTRA:                  -0.038
REMARK UNBOUND:                -0.052
REMARK  Name = 
REMARK  3 active torsions:
REMARK  status: ('A' for Active; 'I' for Inactive)
REMARK    1  A    between atoms: C_1  and  O_2
REMARK    2  A    between atoms: O_2  and  C_3
REMARK    3  A    between atoms: C_8  and  O_9
REMARK                            x       y       z     vdW  Elec       q    Type
REMARK                         _______ _______ _______ _____ _____    ______ ____
ROOT
ATOM      1  C   UNL     1      24.540  -4.613   6.470  0.00  0.00    +0.000 A 
ATOM      2  C   UNL     1      23.774  -4.333   5.339  0.00  0.00    +0.000 A 
ATOM      3  C   UNL     1      24.048  -4.985   4.130  0.00  0.00    +0.000 A 
ATOM      4  C   UNL     1      25.085  -5.915   4.046  0.00  0.00    +0.000 A 
ATOM      5  C   UNL     1      25.854  -6.201   5.172  0.00  0.00    +0.000 A 
ATOM      6  C   UNL     1      25.576  -5.550   6.367  0.00  0.00    +0.000 A 
ENDROOT
BRANCH   1   8
ATOM      7  C   UNL     1      23.144  -3.409   7.970  0.00  0.00    +0.000 C 
ATOM      8  O   UNL     1      24.386  -4.053   7.713  0.00  0.00    +0.000 OA
ENDBRANCH   1   8
BRANCH   6   9
ATOM      9  O   UNL     1      26.346  -5.847   7.459  0.00  0.00    +0.000 OA
ATOM     10  H   UNL     1      25.804  -5.579   8.226  0.00  0.00    +0.000 HD
ENDBRANCH   6   9
TORSDOF 2
ENDMDL
MODEL 8
REMARK VINA RESULT:    -2.833      1.509      1.646
REMARK INTER + INTRA:          -3.134
REMARK INTER:                  -3.095
REMARK INTRA:                  -0.039
REMARK UNBOUND:                -0.052
REMARK  Name = 
REMARK  3 active torsions:
REMARK  status: ('A' for Active; 'I' for Inactive)
REMARK    1  A    between atoms: C_1  and  O_2
REMARK    2  A    between atoms: O_2  and  C_3
REMARK    3  A    between atoms: C_8  and  O_9
REMARK                            x       y       z     vdW  Elec       q    Type
REMARK                         _______ _______ _______ _____ _____    ______ ____
ROOT
ATOM      1  C   UNL     1      25.314  -6.078   5.762  0.00  0.00    +0.000 A 
ATOM      2  C   UNL     1      25.494  -6.314   7.125  0.00  0.00    +0.000 A 
ATOM      3  C   UNL     1      24.949  -5.431   8.066  0.00  0.00    +0.000 A 
ATOM      4  C   UNL     1      24.226  -4.312   7.650  0.00  0.00    +0.000 A 
ATOM      5  C   UNL     1      24.042  -4.069   6.291  0.00  0.00    +0.000 A 
ATOM      6  C   UNL     1      24.585  -4.950   5.364  0.00  0.00    +0.000 A 
ENDROOT
BRANCH   1   8
ATOM      7  C   UNL     1      26.119  -8.199   5.057  0.00  0.00    +0.000 C 
ATOM      8  O   UNL     1      25.789  -6.854   4.735  0.00  0.00    +0.000 OA
ENDBRANCH   1   8
BRANCH   6   9
ATOM      9  O   UNL     1      24.391  -4.691   4.034  0.00  0.00    +0.000 OA
ATOM     10  H   UNL     1      25.066  -5.226   3.575  0.00  0.00    +0.000 HD
ENDBRANCH   6   9
TORSDOF 2
ENDMDL
MODEL 9
REMARK VINA RESULT:    -2.789      9.100     11.415
REMARK INTER + INTRA:          -3.086
REMARK INTER:                  -3.048
REMARK INTRA:                  -0.037
REMARK UNBOUND:                -0.052
REMARK  Name = 
REMARK  3 active torsions:
REMARK  status: ('A' for Active; 'I' for Inactive)
REMARK    1  A    between atoms: C_1  and  O_2
REMARK    2  A    between atoms: O_2  and  C_3
REMARK    3  A    between atoms: C_8  and  O_9
REMARK                            x       y       z     vdW  Elec       q    Type
REMARK                         _______ _______ _______ _____ _____    ______ ____
ROOT
ATOM      1  C   UNL     1      22.961 -11.304  -3.565  0.00  0.00    +0.000 A 
ATOM      2  C   UNL     1      24.037 -11.695  -4.361  0.00  0.00    +0.000 A 
ATOM      3  C   UNL     1      23.938 -12.844  -5.156  0.00  0.00    +0.000 A 
ATOM      4  C   UNL     1      22.767 -13.605  -5.158  0.00  0.00    +0.000 A 
ATOM      5  C   UNL     1      21.688 -13.220  -4.365  0.00  0.00    +0.000 A 
ATOM      6  C   UNL     1      21.796 -12.080  -3.580  0.00  0.00    +0.000 A 
ENDROOT
BRANCH   1   8
ATOM      7  C   UNL     1      24.130  -9.477  -2.594  0.00  0.00    +0.000 C 
ATOM      8  O   UNL     1      22.919 -10.208  -2.741  0.00  0.00    +0.000 OA
ENDBRANCH   1   8
BRANCH   6   9
ATOM      9  O   UNL     1      20.722 -11.722  -2.809  0.00  0.00    +0.000 OA
ATOM     10  H   UNL     1      20.241 -12.557  -2.651  0.00  0.00    +0.000 HD
ENDBRANCH   6   9
TORSDOF 2
ENDMDL
