MODEL 1
REMARK VINA RESULT:    -3.394      0.000      0.000
REMARK INTER + INTRA:          -3.730
REMARK INTER:                  -3.691
REMARK INTRA:                  -0.038
REMARK UNBOUND:                -0.038
REMARK  Name = 
REMARK  3 active torsions:
REMARK  status: ('A' for Active; 'I' for Inactive)
REMARK    1  A    between atoms: C_1  and  O_2
REMARK    2  A    between atoms: O_2  and  C_3
REMARK    3  A    between atoms: C_8  and  O_9
REMARK                            x       y       z     vdW  Elec       q    Type
REMARK                         _______ _______ _______ _____ _____    ______ ____
ROOT
ATOM      1  C   UNL     1      24.409  -4.752   5.491  0.00  0.00    +0.000 A 
ATOM      2  C   UNL     1      25.503  -5.412   6.049  0.00  0.00    +0.000 A 
ATOM      3  C   UNL     1      26.210  -6.357   5.294  0.00  0.00    +0.000 A 
ATOM      4  C   UNL     1      25.826  -6.646   3.983  0.00  0.00    +0.000 A 
ATOM      5  C   UNL     1      24.734  -5.991   3.419  0.00  0.00    +0.000 A 
ATOM      6  C   UNL     1      24.039  -5.055   4.175  0.00  0.00    +0.000 A 
ENDROOT
BRANCH   1   8
ATOM      7  C   UNL     1      23.733  -3.729   7.526  0.00  0.00    +0.000 C 
ATOM      8  O   UNL     1      23.629  -3.809   6.110  0.00  0.00    +0.000 OA
ENDBRANCH   1   8
BRANCH   6   9
ATOM      9  O   UNL     1      22.969  -4.424   3.598  0.00  0.00    +0.000 OA
ATOM     10  H   UNL     1      22.239  -4.539   4.236  0.00  0.00    +0.000 HD
ENDBRANCH   6   9
TORSDOF 2
ENDMDL
MODEL 2
REMARK VINA RESULT:    -3.350      1.322      3.097
REMARK INTER + INTRA:          -3.682
REMARK INTER:                  -3.629
REMARK INTRA:                  -0.053
REMARK UNBOUND:                -0.038
REMARK  Name = 
REMARK  3 active torsions:
REMARK  status: ('A' for Active; 'I' for Inactive)
REMARK    1  A    between atoms: C_1  and  O_2
REMARK    2  A    between atoms: O_2  and  C_3
REMARK    3  A    between atoms: C_8  and  O_9
REMARK                            x       y       z     vdW  Elec       q    Type
REMARK                         _______ _______ _______ _____ _____    ______ ____
ROOT
ATOM      1  C   UNL     1      24.566  -5.698   4.526  0.00  0.00    +0.000 A 
ATOM      2  C   UNL     1      25.284  -6.004   5.682  0.00  0.00    +0.000 A 
ATOM      3  C   UNL     1      25.093  -5.247   6.845  0.00  0.00    +0.000 A 
ATOM      4  C   UNL     1      24.187  -4.185   6.857  0.00  0.00    +0.000 A 
ATOM      5  C   UNL     1      23.466  -3.873   5.707  0.00  0.00    +0.000 A 
ATOM      6  C   UNL     1      23.662  -4.629   4.558  0.00  0.00    +0.000 A 
ENDROOT
BRANCH   1   8
ATOM      7  C   UNL     1      25.879  -6.219   2.616  0.00  0.00    +0.000 C 
ATOM      8  O   UNL     1      24.651  -6.349   3.322  0.00  0.00    +0.000 OA
ENDBRANCH   1   8
BRANCH   6   9
ATOM      9  O   UNL     1      22.941  -4.304   3.440  0.00  0.00    +0.000 OA
ATOM     10  H   UNL     1      22.721  -3.359   3.552  0.00  0.00    +0.000 HD
ENDBRANCH   6   9
TORSDOF 2
ENDMDL
MODEL 3
REMARK VINA RESULT:    -3.192      2.102      3.154
REMARK INTER + INTRA:          -3.510
REMARK INTER:                  -3.462
REMARK INTRA:                  -0.048
REMARK UNBOUND:                -0.038
REMARK  Name = 
REMARK  3 active torsions:
REMARK  status: ('A' for Active; 'I' for Inactive)
REMARK    1  A    between atoms: C_1  and  O_2
REMARK    2  A    between atoms: O_2  and  C_3
REMARK    3  A    between atoms: C_8  and  O_9
REMARK                            x       y       z     vdW  Elec       q    Type
REMARK                         _______ _______ _______ _____ _____    ______ ____
ROOT
ATOM      1  C   UNL     1      25.285  -5.777   7.185  0.00  0.00    +0.000 A 
ATOM      2  C   UNL     1      25.338  -6.646   6.096  0.00  0.00    +0.000 A 
ATOM      3  C   UNL     1      24.729  -6.289   4.887  0.00  0.00    +0.000 A 
ATOM      4  C   UNL     1      24.066  -5.067   4.761  0.00  0.00    +0.000 A 
ATOM      5  C   UNL     1      24.009  -4.193   5.845  0.00  0.00    +0.000 A 
ATOM      6  C   UNL     1      24.616  -4.555   7.041  0.00  0.00    +0.000 A 
ENDROOT
BRANCH   1   8
ATOM      7  C   UNL     1      25.571  -7.258   9.021  0.00  0.00    +0.000 C 
ATOM      8  O   UNL     1      25.834  -5.994   8.424  0.00  0.00    +0.000 OA
ENDBRANCH   1   8
BRANCH   6   9
ATOM      9  O   UNL     1      24.547  -3.680   8.091  0.00  0.00    +0.000 OA
ATOM     10  H   UNL     1      25.055  -2.900   7.798  0.00  0.00    +0.000 HD
ENDBRANCH   6   9
TORSDOF 2
ENDMDL
MODEL 4
REMARK VINA RESULT:    -3.042      1.751      2.781
REMARK INTER + INTRA:          -3.347
REMARK INTER:                  -3.297
REMARK INTRA:                  -0.050
REMARK UNBOUND:                -0.038
REMARK  Name = 
REMARK  3 active torsions:
REMARK  status: ('A' for Active; 'I' for Inactive)
REMARK    1  A    between atoms: C_1  and  O_2
REMARK    2  A    between atoms: O_2  and  C_3
REMARK    3  A    between atoms: C_8  and  O_9
REMARK                            x       y       z     vdW  Elec       q    Type
REMARK                         _______ _______ _______ _____ _____    ______ ____
ROOT
ATOM      1  C   UNL     1      24.461  -4.338   6.678  0.00  0.00    +0.000 A 
ATOM      2  C   UNL     1      23.970  -4.635   5.408  0.00  0.00    +0.000 A 
ATOM      3  C   UNL     1      24.474  -5.736   4.703  0.00  0.00    +0.000 A 
ATOM      4  C   UNL     1      25.468  -6.540   5.263  0.00  0.00    +0.000 A 
ATOM      5  C   UNL     1      25.964  -6.249   6.532  0.00  0.00    +0.000 A 
ATOM      6  C   UNL     1      25.458  -5.156   7.224  0.00  0.00    +0.000 A 
ENDROOT
BRANCH   1   8
ATOM      7  C   UNL     1      22.762  -3.395   8.047  0.00  0.00    +0.000 C 
ATOM      8  O   UNL     1      24.063  -3.297   7.478  0.00  0.00    +0.000 OA
ENDBRANCH   1   8
BRANCH   6   9
ATOM      9  O   UNL     1      25.961  -4.890   8.469  0.00  0.00    +0.000 OA
ATOM     10  H   UNL     1      25.995  -3.915   8.521  0.00  0.00    +0.000 HD
ENDBRANCH   6   9
TORSDOF 2
ENDMDL
MODEL 5
REMARK VINA RESULT:    -3.004      2.096      3.478
REMARK INTER + INTRA:          -3.305
REMARK INTER:                  -3.256
REMARK INTRA:                  -0.050
REMARK UNBOUND:                -0.038
REMARK  Name = 
REMARK  3 active torsions:
REMARK  status: ('A' for Active; 'I' for Inactive)
REMARK    1  A    between atoms: C_1  and  O_2
REMARK    2  A    between atoms: O_2  and  C_3
REMARK    3  A    between atoms: C_8  and  O_9
REMARK                            x       y       z     vdW  Elec       q    Type
REMARK                         _______ _______ _______ _____ _____    ______ ____
ROOT
ATOM      1  C   UNL     1      25.172  -5.653   6.390  0.00  0.00    +0.000 A 
ATOM      2  C   UNL     1      25.225  -6.936   5.845  0.00  0.00    +0.000 A 
ATOM      3  C   UNL     1      25.425  -8.043   6.679  0.00  0.00    +0.000 A 
ATOM      4  C   UNL     1      25.573  -7.873   8.057  0.00  0.00    +0.000 A 
ATOM      5  C   UNL     1      25.520  -6.595   8.609  0.00  0.00    +0.000 A 
ATOM      6  C   UNL     1      25.322  -5.503   7.774  0.00  0.00    +0.000 A 
ENDROOT
BRANCH   1   8
ATOM      7  C   UNL     1      23.845  -4.427   4.846  0.00  0.00    +0.000 C 
ATOM      8  O   UNL     1      24.984  -4.485   5.696  0.00  0.00    +0.000 OA
ENDBRANCH   1   8
BRANCH   6   9
ATOM      9  O   UNL     1      25.274  -4.257   8.340  0.00  0.00    +0.000 OA
ATOM     10  H   UNL     1      26.208  -4.016   8.490  0.00  0.00    +0.000 HD
ENDBRANCH   6   9
TORSDOF 2
ENDMDL
MODEL 6
REMARK VINA RESULT:    -2.960      2.035      3.941
REMARK INTER + INTRA:          -3.258
REMARK INTER:                  -3.220
REMARK INTRA:                  -0.038
REMARK UNBOUND:                -0.038
REMARK  Name = 
REMARK  3 active torsions:
REMARK  status: ('A' for Active; 'I' for Inactive)
REMARK    1  A    between atoms: C_1  and  O_2
REMARK    2  A    between atoms: O_2  and  C_3
REMARK    3  A    between atoms: C_8  and  O_9
REMARK                            x       y       z     vdW  Elec       q    Type
REMARK                         _______ _______ _______ _____ _____    ______ ____
ROOT
ATOM      1  C   UNL     1      24.963  -5.719   5.520  0.00  0.00    +0.000 A 
ATOM      2  C   UNL     1      24.158  -4.586   5.408  0.00  0.00    +0.000 A 
ATOM      3  C   UNL     1      23.788  -3.875   6.556  0.00  0.00    +0.000 A 
ATOM      4  C   UNL     1      24.218  -4.292   7.817  0.00  0.00    +0.000 A 
ATOM      5  C   UNL     1      25.023  -5.423   7.937  0.00  0.00    +0.000 A 
ATOM      6  C   UNL     1      25.385  -6.122   6.793  0.00  0.00    +0.000 A 
ENDROOT
BRANCH   1   8
ATOM      7  C   UNL     1      24.819  -6.265   3.212  0.00  0.00    +0.000 C 
ATOM      8  O   UNL     1      25.401  -6.508   4.487  0.00  0.00    +0.000 OA
ENDBRANCH   1   8
BRANCH   6   9
ATOM      9  O   UNL     1      26.177  -7.230   6.936  0.00  0.00    +0.000 OA
ATOM     10  H   UNL     1      25.777  -7.727   7.676  0.00  0.00    +0.000 HD
ENDBRANCH   6   9
TORSDOF 2
ENDMDL
MODEL 7
REMARK VINA RESULT:    -2.845     13.293     14.471
REMARK INTER + INTRA:          -3.133
REMARK INTER:                  -3.081
REMARK INTRA:                  -0.052
REMARK UNBOUND:                -0.038
REMARK  Name = 
REMARK  3 active torsions:
REMARK  status: ('A' for Active; 'I' for Inactive)
REMARK    1  A    between atoms: C_1  and  O_2
REMARK    2  A    between atoms: O_2  and  C_3
REMARK    3  A    between atoms: C_8  and  O_9
REMARK                            x       y       z     vdW  Elec       q    Type
REMARK                         _______ _______ _______ _____ _____    ______ ____
ROOT
ATOM      1  C   UNL     1      23.697  -9.549  -8.824  0.00  0.00    +0.000 A 
ATOM      2  C   UNL     1      24.790 -10.021  -9.549  0.00  0.00    +0.000 A 
ATOM      3  C   UNL     1      26.017  -9.350  -9.480  0.00  0.00    +0.000 A 
ATOM      4  C   UNL     1      26.156  -8.207  -8.690  0.00  0.00    +0.000 A 
ATOM      5  C   UNL     1      25.069  -7.730  -7.962  0.00  0.00    +0.000 A 
ATOM      6  C   UNL     1      23.855  -8.401  -8.036  0.00  0.00    +0.000 A 
ENDROOT
BRANCH   1   8
ATOM      7  C   UNL     1      22.350 -11.447  -8.343  0.00  0.00    +0.000 C 
ATOM      8  O   UNL     1      22.442 -10.102  -8.797  0.00  0.00    +0.000 OA
ENDBRANCH   1   8
BRANCH   6   9
ATOM      9  O   UNL     1      22.801  -7.913  -7.312  0.00  0.00    +0.000 OA
ATOM     10  H   UNL     1      22.105  -7.737  -7.974  0.00  0.00    +0.000 HD
ENDBRANCH   6   9
TORSDOF 2
ENDMDL
MODEL 8
REMARK VINA RESULT:    -2.837      2.238      3.440
REMARK INTER + INTRA:          -3.124
REMARK INTER:                  -3.073
REMARK INTRA:                  -0.051
REMARK UNBOUND:                -0.038
REMARK  Name = 
REMARK  3 active torsions:
REMARK  status: ('A' for Active; 'I' for Inactive)
REMARK    1  A    between atoms: C_1  and  O_2
REMARK    2  A    between atoms: O_2  and  C_3
REMARK    3  A    between atoms: C_8  and  O_9
REMARK                            x       y       z     vdW  Elec       q    Type
REMARK                         _______ _______ _______ _____ _____    ______ ____
ROOT
ATOM      1  C   UNL     1      25.382  -6.120   6.847  0.00  0.00    +0.000 A 
ATOM      2  C   UNL     1      24.995  -5.400   7.976  0.00  0.00    +0.000 A 
ATOM      3  C   UNL     1      24.191  -4.262   7.839  0.00  0.00    +0.000 A 
ATOM      4  C   UNL     1      23.772  -3.840   6.576  0.00  0.00    +0.000 A 
ATOM      5  C   UNL     1      24.154  -4.554   5.443  0.00  0.00    +0.000 A 
ATOM      6  C   UNL     1      24.952  -5.681   5.588  0.00  0.00    +0.000 A 
ENDROOT
BRANCH   1   8
ATOM      7  C   UNL     1      25.576  -8.435   7.349  0.00  0.00    +0.000 C 
ATOM      8  O   UNL     1      26.164  -7.247   6.832  0.00  0.00    +0.000 OA
ENDBRANCH   1   8
BRANCH   6   9
ATOM      9  O   UNL     1      25.315  -6.367   4.460  0.00  0.00    +0.000 OA
ATOM     10  H   UNL     1      26.266  -6.552   4.577  0.00  0.00    +0.000 HD
ENDBRANCH   6   9
TORSDOF 2
ENDMDL
