MODEL 1
REMARK VINA RESULT:    -3.388      0.000      0.000
REMARK INTER + INTRA:          -3.724
REMARK INTER:                  -3.685
REMARK INTRA:                  -0.039
REMARK UNBOUND:                -0.039
REMARK  Name = 
REMARK  3 active torsions:
REMARK  status: ('A' for Active; 'I' for Inactive)
REMARK    1  A    between atoms: C_1  and  O_2
REMARK    2  A    between atoms: O_2  and  C_3
REMARK    3  A    between atoms: C_8  and  O_9
REMARK                            x       y       z     vdW  Elec       q    Type
REMARK                         _______ _______ _______ _____ _____    ______ ____
ROOT
ATOM      1  C   UNL     1      24.450  -4.742   5.428  0.00  0.00    +0.000 A 
ATOM      2  C   UNL     1      25.586  -5.372   5.933  0.00  0.00    +0.000 A 
ATOM      3  C   UNL     1      26.271  -6.311   5.152  0.00  0.00    +0.000 A 
ATOM      4  C   UNL     1      25.824  -6.624   3.867  0.00  0.00    +0.000 A 
ATOM      5  C   UNL     1      24.690  -5.998   3.355  0.00  0.00    +0.000 A 
ATOM      6  C   UNL     1      24.016  -5.069   4.137  0.00  0.00    +0.000 A 
ENDROOT
BRANCH   1   8
ATOM      7  C   UNL     1      23.813  -3.756   7.494  0.00  0.00    +0.000 C 
ATOM      8  O   UNL     1      23.683  -3.808   6.078  0.00  0.00    +0.000 OA
ENDBRANCH   1   8
BRANCH   6   9
ATOM      9  O   UNL     1      22.904  -4.467   3.612  0.00  0.00    +0.000 OA
ATOM     10  H   UNL     1      22.239  -4.509   4.326  0.00  0.00    +0.000 HD
ENDBRANCH   6   9
TORSDOF 2
ENDMDL
MODEL 2
REMARK VINA RESULT:    -3.361      1.309      3.103
REMARK INTER + INTRA:          -3.695
REMARK INTER:                  -3.643
REMARK INTRA:                  -0.052
REMARK UNBOUND:                -0.039
REMARK  Name = 
REMARK  3 active torsions:
REMARK  status: ('A' for Active; 'I' for Inactive)
REMARK    1  A    between atoms: C_1  and  O_2
REMARK    2  A    between atoms: O_2  and  C_3
REMARK    3  A    between atoms: C_8  and  O_9
REMARK                            x       y       z     vdW  Elec       q    Type
REMARK                         _______ _______ _______ _____ _____    ______ ____
ROOT
ATOM      1  C   UNL     1      24.520  -5.769   4.496  0.00  0.00    +0.000 A 
ATOM      2  C   UNL     1      25.262  -6.112   5.625  0.00  0.00    +0.000 A 
ATOM      3  C   UNL     1      25.140  -5.359   6.799  0.00  0.00    +0.000 A 
ATOM      4  C   UNL     1      24.277  -4.262   6.850  0.00  0.00    +0.000 A 
ATOM      5  C   UNL     1      23.531  -3.913   5.726  0.00  0.00    +0.000 A 
ATOM      6  C   UNL     1      23.660  -4.666   4.566  0.00  0.00    +0.000 A 
ENDROOT
BRANCH   1   8
ATOM      7  C   UNL     1      25.792  -6.456   2.611  0.00  0.00    +0.000 C 
ATOM      8  O   UNL     1      24.540  -6.413   3.285  0.00  0.00    +0.000 OA
ENDBRANCH   1   8
BRANCH   6   9
ATOM      9  O   UNL     1      22.916  -4.303   3.474  0.00  0.00    +0.000 OA
ATOM     10  H   UNL     1      22.327  -5.064   3.311  0.00  0.00    +0.000 HD
ENDBRANCH   6   9
TORSDOF 2
ENDMDL
MODEL 3
REMARK VINA RESULT:    -3.127      2.016      3.106
REMARK INTER + INTRA:          -3.440
REMARK INTER:                  -3.387
REMARK INTRA:                  -0.053
REMARK UNBOUND:                -0.039
REMARK  Name = 
REMARK  3 active torsions:
REMARK  status: ('A' for Active; 'I' for Inactive)
REMARK    1  A    between atoms: C_1  and  O_2
REMARK    2  A    between atoms: O_2  and  C_3
REMARK    3  A    between atoms: C_8  and  O_9
REMARK                            x       y       z     vdW  Elec       q    Type
REMARK                         _______ _______ _______ _____ _____    ______ ____
ROOT
ATOM      1  C   UNL     1      25.267  -5.485   6.889  0.00  0.00    +0.000 A 
ATOM      2  C   UNL     1      25.311  -6.229   5.710  0.00  0.00    +0.000 A 
ATOM      3  C   UNL     1      24.557  -5.826   4.600  0.00  0.00    +0.000 A 
ATOM      4  C   UNL     1      23.757  -4.684   4.665  0.00  0.00    +0.000 A 
ATOM      5  C   UNL     1      23.707  -3.936   5.839  0.00  0.00    +0.000 A 
ATOM      6  C   UNL     1      24.459  -4.342   6.934  0.00  0.00    +0.000 A 
ENDROOT
BRANCH   1   8
ATOM      7  C   UNL     1      25.563  -6.938   8.746  0.00  0.00    +0.000 C 
ATOM      8  O   UNL     1      25.948  -5.760   8.047  0.00  0.00    +0.000 OA
ENDBRANCH   1   8
BRANCH   6   9
ATOM      9  O   UNL     1      24.394  -3.591   8.077  0.00  0.00    +0.000 OA
ATOM     10  H   UNL     1      24.831  -2.749   7.847  0.00  0.00    +0.000 HD
ENDBRANCH   6   9
TORSDOF 2
ENDMDL
MODEL 4
REMARK VINA RESULT:    -3.028      1.995      3.391
REMARK INTER + INTRA:          -3.332
REMARK INTER:                  -3.284
REMARK INTRA:                  -0.048
REMARK UNBOUND:                -0.039
REMARK  Name = 
REMARK  3 active torsions:
REMARK  status: ('A' for Active; 'I' for Inactive)
REMARK    1  A    between atoms: C_1  and  O_2
REMARK    2  A    between atoms: O_2  and  C_3
REMARK    3  A    between atoms: C_8  and  O_9
REMARK                            x       y       z     vdW  Elec       q    Type
REMARK                         _______ _______ _______ _____ _____    ______ ____
ROOT
ATOM      1  C   UNL     1      25.017  -5.568   6.202  0.00  0.00    +0.000 A 
ATOM      2  C   UNL     1      25.209  -6.863   5.723  0.00  0.00    +0.000 A 
ATOM      3  C   UNL     1      25.435  -7.915   6.620  0.00  0.00    +0.000 A 
ATOM      4  C   UNL     1      25.472  -7.676   7.995  0.00  0.00    +0.000 A 
ATOM      5  C   UNL     1      25.282  -6.385   8.482  0.00  0.00    +0.000 A 
ATOM      6  C   UNL     1      25.058  -5.348   7.585  0.00  0.00    +0.000 A 
ENDROOT
BRANCH   1   8
ATOM      7  C   UNL     1      23.769  -4.549   4.455  0.00  0.00    +0.000 C 
ATOM      8  O   UNL     1      24.787  -4.448   5.444  0.00  0.00    +0.000 OA
ENDBRANCH   1   8
BRANCH   6   9
ATOM      9  O   UNL     1      24.873  -4.088   8.087  0.00  0.00    +0.000 OA
ATOM     10  H   UNL     1      23.928  -3.896   7.935  0.00  0.00    +0.000 HD
ENDBRANCH   6   9
TORSDOF 2
ENDMDL
MODEL 5
REMARK VINA RESULT:    -2.994      1.737      2.673
REMARK INTER + INTRA:          -3.296
REMARK INTER:                  -3.244
REMARK INTRA:                  -0.051
REMARK UNBOUND:                -0.039
REMARK  Name = 
REMARK  3 active torsions:
REMARK  status: ('A' for Active; 'I' for Inactive)
REMARK    1  A    between atoms: C_1  and  O_2
REMARK    2  A    between atoms: O_2  and  C_3
REMARK    3  A    between atoms: C_8  and  O_9
REMARK                            x       y       z     vdW  Elec       q    Type
REMARK                         _______ _______ _______ _____ _____    ______ ____
ROOT
ATOM      1  C   UNL     1      24.315  -4.229   6.522  0.00  0.00    +0.000 A 
ATOM      2  C   UNL     1      23.679  -4.297   5.283  0.00  0.00    +0.000 A 
ATOM      3  C   UNL     1      24.085  -5.249   4.340  0.00  0.00    +0.000 A 
ATOM      4  C   UNL     1      25.125  -6.134   4.630  0.00  0.00    +0.000 A 
ATOM      5  C   UNL     1      25.765  -6.073   5.866  0.00  0.00    +0.000 A 
ATOM      6  C   UNL     1      25.356  -5.126   6.795  0.00  0.00    +0.000 A 
ENDROOT
BRANCH   1   8
ATOM      7  C   UNL     1      22.694  -3.382   8.040  0.00  0.00    +0.000 C 
ATOM      8  O   UNL     1      24.025  -3.352   7.536  0.00  0.00    +0.000 OA
ENDBRANCH   1   8
BRANCH   6   9
ATOM      9  O   UNL     1      26.000  -5.085   8.003  0.00  0.00    +0.000 OA
ATOM     10  H   UNL     1      25.346  -5.421   8.645  0.00  0.00    +0.000 HD
ENDBRANCH   6   9
TORSDOF 2
ENDMDL
MODEL 6
REMARK VINA RESULT:    -2.960      2.044      3.949
REMARK INTER + INTRA:          -3.258
REMARK INTER:                  -3.220
REMARK INTRA:                  -0.038
REMARK UNBOUND:                -0.039
REMARK  Name = 
REMARK  3 active torsions:
REMARK  status: ('A' for Active; 'I' for Inactive)
REMARK    1  A    between atoms: C_1  and  O_2
REMARK    2  A    between atoms: O_2  and  C_3
REMARK    3  A    between atoms: C_8  and  O_9
REMARK                            x       y       z     vdW  Elec       q    Type
REMARK                         _______ _______ _______ _____ _____    ______ ____
ROOT
ATOM      1  C   UNL     1      24.964  -5.714   5.483  0.00  0.00    +0.000 A 
ATOM      2  C   UNL     1      24.171  -4.573   5.369  0.00  0.00    +0.000 A 
ATOM      3  C   UNL     1      23.795  -3.864   6.517  0.00  0.00    +0.000 A 
ATOM      4  C   UNL     1      24.208  -4.293   7.780  0.00  0.00    +0.000 A 
ATOM      5  C   UNL     1      25.001  -5.432   7.902  0.00  0.00    +0.000 A 
ATOM      6  C   UNL     1      25.369  -6.128   6.758  0.00  0.00    +0.000 A 
ENDROOT
BRANCH   1   8
ATOM      7  C   UNL     1      24.810  -6.273   3.179  0.00  0.00    +0.000 C 
ATOM      8  O   UNL     1      25.405  -6.502   4.450  0.00  0.00    +0.000 OA
ENDBRANCH   1   8
BRANCH   6   9
ATOM      9  O   UNL     1      26.148  -7.245   6.904  0.00  0.00    +0.000 OA
ATOM     10  H   UNL     1      25.515  -7.987   6.937  0.00  0.00    +0.000 HD
ENDBRANCH   6   9
TORSDOF 2
ENDMDL
MODEL 7
REMARK VINA RESULT:    -2.849      6.951      8.485
REMARK INTER + INTRA:          -3.138
REMARK INTER:                  -3.095
REMARK INTRA:                  -0.043
REMARK UNBOUND:                -0.039
REMARK  Name = 
REMARK  3 active torsions:
REMARK  status: ('A' for Active; 'I' for Inactive)
REMARK    1  A    between atoms: C_1  and  O_2
REMARK    2  A    between atoms: O_2  and  C_3
REMARK    3  A    between atoms: C_8  and  O_9
REMARK                            x       y       z     vdW  Elec       q    Type
REMARK                         _______ _______ _______ _____ _____    ______ ____
ROOT
ATOM      1  C   UNL     1      24.579  -8.958  -2.025  0.00  0.00    +0.000 A 
ATOM      2  C   UNL     1      25.509  -9.997  -2.024  0.00  0.00    +0.000 A 
ATOM      3  C   UNL     1      25.131 -11.275  -2.454  0.00  0.00    +0.000 A 
ATOM      4  C   UNL     1      23.825 -11.519  -2.884  0.00  0.00    +0.000 A 
ATOM      5  C   UNL     1      22.890 -10.486  -2.888  0.00  0.00    +0.000 A 
ATOM      6  C   UNL     1      23.274  -9.222  -2.460  0.00  0.00    +0.000 A 
ENDROOT
BRANCH   1   8
ATOM      7  C   UNL     1      25.693  -7.481  -0.533  0.00  0.00    +0.000 C 
ATOM      8  O   UNL     1      24.808  -7.664  -1.632  0.00  0.00    +0.000 OA
ENDBRANCH   1   8
BRANCH   6   9
ATOM      9  O   UNL     1      22.338  -8.223  -2.472  0.00  0.00    +0.000 OA
ATOM     10  H   UNL     1      21.990  -8.221  -3.384  0.00  0.00    +0.000 HD
ENDBRANCH   6   9
TORSDOF 2
ENDMDL
MODEL 8
REMARK VINA RESULT:    -2.848     13.215     14.390
REMARK INTER + INTRA:          -3.137
REMARK INTER:                  -3.086
REMARK INTRA:                  -0.051
REMARK UNBOUND:                -0.039
REMARK  Name = 
REMARK  3 active torsions:
REMARK  status: ('A' for Active; 'I' for Inactive)
REMARK    1  A    between atoms: C_1  and  O_2
REMARK    2  A    between atoms: O_2  and  C_3
REMARK    3  A    between atoms: C_8  and  O_9
REMARK                            x       y       z     vdW  Elec       q    Type
REMARK                         _______ _______ _______ _____ _____    ______ ____
ROOT
ATOM      1  C   UNL     1      23.682  -9.546  -8.804  0.00  0.00    +0.000 A 
ATOM      2  C   UNL     1      24.785 -10.023  -9.510  0.00  0.00    +0.000 A 
ATOM      3  C   UNL     1      26.010  -9.348  -9.433  0.00  0.00    +0.000 A 
ATOM      4  C   UNL     1      26.136  -8.196  -8.654  0.00  0.00    +0.000 A 
ATOM      5  C   UNL     1      25.038  -7.713  -7.946  0.00  0.00    +0.000 A 
ATOM      6  C   UNL     1      23.827  -8.390  -8.028  0.00  0.00    +0.000 A 
ENDROOT
BRANCH   1   8
ATOM      7  C   UNL     1      22.338 -11.450  -8.342  0.00  0.00    +0.000 C 
ATOM      8  O   UNL     1      22.428 -10.102  -8.787  0.00  0.00    +0.000 OA
ENDBRANCH   1   8
BRANCH   6   9
ATOM      9  O   UNL     1      22.762  -7.896  -7.323  0.00  0.00    +0.000 OA
ATOM     10  H   UNL     1      22.352  -8.680  -6.910  0.00  0.00    +0.000 HD
ENDBRANCH   6   9
TORSDOF 2
ENDMDL
MODEL 9
REMARK VINA RESULT:    -2.803      9.728     11.280
REMARK INTER + INTRA:          -3.088
REMARK INTER:                  -3.051
REMARK INTRA:                  -0.037
REMARK UNBOUND:                -0.039
REMARK  Name = 
REMARK  3 active torsions:
REMARK  status: ('A' for Active; 'I' for Inactive)
REMARK    1  A    between atoms: C_1  and  O_2
REMARK    2  A    between atoms: O_2  and  C_3
REMARK    3  A    between atoms: C_8  and  O_9
REMARK                            x       y       z     vdW  Elec       q    Type
REMARK                         _______ _______ _______ _____ _____    ______ ____
ROOT
ATOM      1  C   UNL     1      22.981 -11.303  -3.510  0.00  0.00    +0.000 A 
ATOM      2  C   UNL     1      24.078 -11.688  -4.279  0.00  0.00    +0.000 A 
ATOM      3  C   UNL     1      24.005 -12.838  -5.076  0.00  0.00    +0.000 A 
ATOM      4  C   UNL     1      22.839 -13.604  -5.107  0.00  0.00    +0.000 A 
ATOM      5  C   UNL     1      21.738 -13.226  -4.341  0.00  0.00    +0.000 A 
ATOM      6  C   UNL     1      21.820 -12.085  -3.554  0.00  0.00    +0.000 A 
ENDROOT
BRANCH   1   8
ATOM      7  C   UNL     1      24.119  -9.480  -2.496  0.00  0.00    +0.000 C 
ATOM      8  O   UNL     1      22.912 -10.208  -2.687  0.00  0.00    +0.000 OA
ENDBRANCH   1   8
BRANCH   6   9
ATOM      9  O   UNL     1      20.725 -11.733  -2.810  0.00  0.00    +0.000 OA
ATOM     10  H   UNL     1      20.757 -10.758  -2.767  0.00  0.00    +0.000 HD
ENDBRANCH   6   9
TORSDOF 2
ENDMDL
