MODEL 1
REMARK VINA RESULT:    -3.807      0.000      0.000
REMARK INTER + INTRA:          -5.612
REMARK INTER:                  -5.143
REMARK INTRA:                  -0.470
REMARK UNBOUND:                -0.470
REMARK  Name = 
REMARK  10 active torsions:
REMARK  status: ('A' for Active; 'I' for Inactive)
REMARK    1  A    between atoms: C_1  and  C_2
REMARK    2  A    between atoms: C_5  and  N_8
REMARK    3  A    between atoms: N_8  and  C_9
REMARK    4  A    between atoms: N_8  and  C_13
REMARK    5  A    between atoms: C_9  and  C_10
REMARK    6  A    between atoms: C_10  and  C_11
REMARK    7  A    between atoms: C_10  and  O_12
REMARK    8  A    between atoms: C_13  and  C_14
REMARK    9  A    between atoms: C_14  and  C_15
REMARK   10  A    between atoms: C_14  and  O_16
REMARK                            x       y       z     vdW  Elec       q    Type
REMARK                         _______ _______ _______ _____ _____    ______ ____
ROOT
ATOM      1  N   UNL     1      23.682 -10.620  -4.568  0.00  0.00    +0.000 N 
ENDROOT
BRANCH   1   6
ATOM      2  C   UNL     1      23.421 -10.252 -10.324  0.00  0.00    +0.000 C 
ATOM      3  C   UNL     1      23.466 -10.337  -8.829  0.00  0.00    +0.000 A 
ATOM      4  C   UNL     1      24.009  -9.306  -8.070  0.00  0.00    +0.000 A 
ATOM      5  C   UNL     1      24.076  -9.404  -6.671  0.00  0.00    +0.000 A 
ATOM      6  C   UNL     1      23.630 -10.536  -5.965  0.00  0.00    +0.000 A 
ATOM      7  C   UNL     1      23.085 -11.559  -6.764  0.00  0.00    +0.000 A 
ATOM      8  C   UNL     1      23.011 -11.472  -8.164  0.00  0.00    +0.000 A 
ENDBRANCH   1   6
BRANCH   1   9
ATOM      9  C   UNL     1      24.525  -9.673  -3.798  0.00  0.00    +0.000 C 
BRANCH   9  10
ATOM     10  C   UNL     1      23.878  -9.249  -2.456  0.00  0.00    +0.000 C 
ATOM     11  C   UNL     1      24.763  -8.254  -1.715  0.00  0.00    +0.000 C 
BRANCH  10  12
ATOM     12  O   UNL     1      22.601  -8.633  -2.673  0.00  0.00    +0.000 OA
ATOM     13  H   UNL     1      22.311  -8.237  -1.834  0.00  0.00    +0.000 HD
ENDBRANCH  10  12
ENDBRANCH   9  10
ENDBRANCH   1   9
BRANCH   1  14
ATOM     14  C   UNL     1      23.358 -11.885  -3.861  0.00  0.00    +0.000 C 
BRANCH  14  15
ATOM     15  C   UNL     1      21.833 -12.137  -3.783  0.00  0.00    +0.000 C 
ATOM     16  C   UNL     1      21.478 -13.605  -3.579  0.00  0.00    +0.000 C 
BRANCH  15  17
ATOM     17  O   UNL     1      21.227 -11.385  -2.733  0.00  0.00    +0.000 OA
ATOM     18  H   UNL     1      21.929 -10.780  -2.419  0.00  0.00    +0.000 HD
ENDBRANCH  15  17
ENDBRANCH  14  15
ENDBRANCH   1  14
TORSDOF 7
ENDMDL
MODEL 2
REMARK VINA RESULT:    -3.770      2.452      5.821
REMARK INTER + INTRA:          -5.563
REMARK INTER:                  -5.138
REMARK INTRA:                  -0.424
REMARK UNBOUND:                -0.470
REMARK  Name = 
REMARK  10 active torsions:
REMARK  status: ('A' for Active; 'I' for Inactive)
REMARK    1  A    between atoms: C_1  and  C_2
REMARK    2  A    between atoms: C_5  and  N_8
REMARK    3  A    between atoms: N_8  and  C_9
REMARK    4  A    between atoms: N_8  and  C_13
REMARK    5  A    between atoms: C_9  and  C_10
REMARK    6  A    between atoms: C_10  and  C_11
REMARK    7  A    between atoms: C_10  and  O_12
REMARK    8  A    between atoms: C_13  and  C_14
REMARK    9  A    between atoms: C_14  and  C_15
REMARK   10  A    between atoms: C_14  and  O_16
REMARK                            x       y       z     vdW  Elec       q    Type
REMARK                         _______ _______ _______ _____ _____    ______ ____
ROOT
ATOM      1  N   UNL     1      23.370 -10.888  -6.327  0.00  0.00    +0.000 N 
ENDROOT
BRANCH   1   6
ATOM      2  C   UNL     1      26.324 -10.461  -1.385  0.00  0.00    +0.000 C 
ATOM      3  C   UNL     1      25.549 -10.595  -2.660  0.00  0.00    +0.000 A 
ATOM      4  C   UNL     1      26.134 -11.141  -3.798  0.00  0.00    +0.000 A 
ATOM      5  C   UNL     1      25.412 -11.236  -4.999  0.00  0.00    +0.000 A 
ATOM      6  C   UNL     1      24.091 -10.773  -5.132  0.00  0.00    +0.000 A 
ATOM      7  C   UNL     1      23.531 -10.228  -3.961  0.00  0.00    +0.000 A 
ATOM      8  C   UNL     1      24.241 -10.130  -2.753  0.00  0.00    +0.000 A 
ENDBRANCH   1   6
BRANCH   1   9
ATOM      9  C   UNL     1      22.588 -12.116  -6.608  0.00  0.00    +0.000 C 
BRANCH   9  10
ATOM     10  C   UNL     1      21.823 -12.046  -7.953  0.00  0.00    +0.000 C 
ATOM     11  C   UNL     1      22.134 -13.259  -8.821  0.00  0.00    +0.000 C 
BRANCH  10  12
ATOM     12  O   UNL     1      20.406 -12.006  -7.736  0.00  0.00    +0.000 OA
ATOM     13  H   UNL     1      19.987 -11.667  -8.545  0.00  0.00    +0.000 HD
ENDBRANCH  10  12
ENDBRANCH   9  10
ENDBRANCH   1   9
BRANCH   1  14
ATOM     14  C   UNL     1      23.740 -10.095  -7.527  0.00  0.00    +0.000 C 
BRANCH  14  15
ATOM     15  C   UNL     1      23.974  -8.602  -7.192  0.00  0.00    +0.000 C 
ATOM     16  C   UNL     1      25.075  -7.965  -8.031  0.00  0.00    +0.000 C 
BRANCH  15  17
ATOM     17  O   UNL     1      22.786  -7.831  -7.364  0.00  0.00    +0.000 OA
ATOM     18  H   UNL     1      22.273  -8.306  -8.049  0.00  0.00    +0.000 HD
ENDBRANCH  15  17
ENDBRANCH  14  15
ENDBRANCH   1  14
TORSDOF 7
ENDMDL
MODEL 3
REMARK VINA RESULT:    -3.766      8.703     12.743
REMARK INTER + INTRA:          -5.556
REMARK INTER:                  -5.081
REMARK INTRA:                  -0.476
REMARK UNBOUND:                -0.470
REMARK  Name = 
REMARK  10 active torsions:
REMARK  status: ('A' for Active; 'I' for Inactive)
REMARK    1  A    between atoms: C_1  and  C_2
REMARK    2  A    between atoms: C_5  and  N_8
REMARK    3  A    between atoms: N_8  and  C_9
REMARK    4  A    between atoms: N_8  and  C_13
REMARK    5  A    between atoms: C_9  and  C_10
REMARK    6  A    between atoms: C_10  and  C_11
REMARK    7  A    between atoms: C_10  and  O_12
REMARK    8  A    between atoms: C_13  and  C_14
REMARK    9  A    between atoms: C_14  and  C_15
REMARK   10  A    between atoms: C_14  and  O_16
REMARK                            x       y       z     vdW  Elec       q    Type
REMARK                         _______ _______ _______ _____ _____    ______ ____
ROOT
ATOM      1  N   UNL     1      25.385  -5.997   4.586  0.00  0.00    +0.000 N 
ENDROOT
BRANCH   1   6
ATOM      2  C   UNL     1      25.198  -8.400   9.831  0.00  0.00    +0.000 C 
ATOM      3  C   UNL     1      25.222  -7.774   8.471  0.00  0.00    +0.000 A 
ATOM      4  C   UNL     1      25.141  -8.555   7.323  0.00  0.00    +0.000 A 
ATOM      5  C   UNL     1      25.194  -7.965   6.050  0.00  0.00    +0.000 A 
ATOM      6  C   UNL     1      25.352  -6.581   5.858  0.00  0.00    +0.000 A 
ATOM      7  C   UNL     1      25.429  -5.821   7.040  0.00  0.00    +0.000 A 
ATOM      8  C   UNL     1      25.375  -6.399   8.320  0.00  0.00    +0.000 A 
ENDBRANCH   1   6
BRANCH   1   9
ATOM      9  C   UNL     1      26.350  -6.481   3.570  0.00  0.00    +0.000 C 
BRANCH   9  10
ATOM     10  C   UNL     1      25.662  -7.204   2.385  0.00  0.00    +0.000 C 
ATOM     11  C   UNL     1      26.224  -6.724   1.053  0.00  0.00    +0.000 C 
BRANCH  10  12
ATOM     12  O   UNL     1      25.858  -8.623   2.464  0.00  0.00    +0.000 OA
ATOM     13  H   UNL     1      26.236  -8.827   3.336  0.00  0.00    +0.000 HD
ENDBRANCH  10  12
ENDBRANCH   9  10
ENDBRANCH   1   9
BRANCH   1  14
ATOM     14  C   UNL     1      24.879  -4.618   4.359  0.00  0.00    +0.000 C 
BRANCH  14  15
ATOM     15  C   UNL     1      23.337  -4.538   4.459  0.00  0.00    +0.000 C 
ATOM     16  C   UNL     1      22.856  -3.557   5.522  0.00  0.00    +0.000 C 
BRANCH  15  17
ATOM     17  O   UNL     1      22.746  -4.166   3.215  0.00  0.00    +0.000 OA
ATOM     18  H   UNL     1      22.347  -4.989   2.868  0.00  0.00    +0.000 HD
ENDBRANCH  15  17
ENDBRANCH  14  15
ENDBRANCH   1  14
TORSDOF 7
ENDMDL
MODEL 4
REMARK VINA RESULT:    -3.701      3.059      5.741
REMARK INTER + INTRA:          -5.469
REMARK INTER:                  -4.954
REMARK INTRA:                  -0.515
REMARK UNBOUND:                -0.470
REMARK  Name = 
REMARK  10 active torsions:
REMARK  status: ('A' for Active; 'I' for Inactive)
REMARK    1  A    between atoms: C_1  and  C_2
REMARK    2  A    between atoms: C_5  and  N_8
REMARK    3  A    between atoms: N_8  and  C_9
REMARK    4  A    between atoms: N_8  and  C_13
REMARK    5  A    between atoms: C_9  and  C_10
REMARK    6  A    between atoms: C_10  and  C_11
REMARK    7  A    between atoms: C_10  and  O_12
REMARK    8  A    between atoms: C_13  and  C_14
REMARK    9  A    between atoms: C_14  and  C_15
REMARK   10  A    between atoms: C_14  and  O_16
REMARK                            x       y       z     vdW  Elec       q    Type
REMARK                         _______ _______ _______ _____ _____    ______ ____
ROOT
ATOM      1  N   UNL     1      23.579 -10.540  -8.227  0.00  0.00    +0.000 N 
ENDROOT
BRANCH   1   6
ATOM      2  C   UNL     1      21.626 -13.605  -3.742  0.00  0.00    +0.000 C 
ATOM      3  C   UNL     1      22.118 -12.790  -4.899  0.00  0.00    +0.000 A 
ATOM      4  C   UNL     1      21.491 -12.858  -6.138  0.00  0.00    +0.000 A 
ATOM      5  C   UNL     1      21.975 -12.115  -7.227  0.00  0.00    +0.000 A 
ATOM      6  C   UNL     1      23.114 -11.293  -7.142  0.00  0.00    +0.000 A 
ATOM      7  C   UNL     1      23.721 -11.248  -5.874  0.00  0.00    +0.000 A 
ATOM      8  C   UNL     1      23.246 -11.984  -4.776  0.00  0.00    +0.000 A 
ENDBRANCH   1   6
BRANCH   1   9
ATOM      9  C   UNL     1      23.030  -9.187  -8.484  0.00  0.00    +0.000 C 
BRANCH   9  10
ATOM     10  C   UNL     1      23.706  -8.092  -7.622  0.00  0.00    +0.000 C 
ATOM     11  C   UNL     1      25.134  -7.835  -8.089  0.00  0.00    +0.000 C 
BRANCH  10  12
ATOM     12  O   UNL     1      22.983  -6.856  -7.702  0.00  0.00    +0.000 OA
ATOM     13  H   UNL     1      23.534  -6.215  -8.182  0.00  0.00    +0.000 HD
ENDBRANCH  10  12
ENDBRANCH   9  10
ENDBRANCH   1   9
BRANCH   1  14
ATOM     14  C   UNL     1      24.203 -11.194  -9.406  0.00  0.00    +0.000 C 
BRANCH  14  15
ATOM     15  C   UNL     1      24.075 -10.335 -10.687  0.00  0.00    +0.000 C 
ATOM     16  C   UNL     1      25.421  -9.987 -11.313  0.00  0.00    +0.000 C 
BRANCH  15  17
ATOM     17  O   UNL     1      23.281 -10.983 -11.679  0.00  0.00    +0.000 OA
ATOM     18  H   UNL     1      23.671 -10.709 -12.534  0.00  0.00    +0.000 HD
ENDBRANCH  15  17
ENDBRANCH  14  15
ENDBRANCH   1  14
TORSDOF 7
ENDMDL
MODEL 5
REMARK VINA RESULT:    -3.678      9.031     11.825
REMARK INTER + INTRA:          -5.438
REMARK INTER:                  -4.725
REMARK INTRA:                  -0.713
REMARK UNBOUND:                -0.470
REMARK  Name = 
REMARK  10 active torsions:
REMARK  status: ('A' for Active; 'I' for Inactive)
REMARK    1  A    between atoms: C_1  and  C_2
REMARK    2  A    between atoms: C_5  and  N_8
REMARK    3  A    between atoms: N_8  and  C_9
REMARK    4  A    between atoms: N_8  and  C_13
REMARK    5  A    between atoms: C_9  and  C_10
REMARK    6  A    between atoms: C_10  and  C_11
REMARK    7  A    between atoms: C_10  and  O_12
REMARK    8  A    between atoms: C_13  and  C_14
REMARK    9  A    between atoms: C_14  and  C_15
REMARK   10  A    between atoms: C_14  and  O_16
REMARK                            x       y       z     vdW  Elec       q    Type
REMARK                         _______ _______ _______ _____ _____    ______ ____
ROOT
ATOM      1  N   UNL     1      25.155  -7.515   4.961  0.00  0.00    +0.000 N 
ENDROOT
BRANCH   1   6
ATOM      2  C   UNL     1      22.815 -12.550   6.541  0.00  0.00    +0.000 C 
ATOM      3  C   UNL     1      23.402 -11.232   6.141  0.00  0.00    +0.000 A 
ATOM      4  C   UNL     1      23.145 -10.686   4.888  0.00  0.00    +0.000 A 
ATOM      5  C   UNL     1      23.723  -9.464   4.507  0.00  0.00    +0.000 A 
ATOM      6  C   UNL     1      24.598  -8.743   5.340  0.00  0.00    +0.000 A 
ATOM      7  C   UNL     1      24.833  -9.323   6.599  0.00  0.00    +0.000 A 
ATOM      8  C   UNL     1      24.260 -10.543   6.994  0.00  0.00    +0.000 A 
ENDBRANCH   1   6
BRANCH   1   9
ATOM      9  C   UNL     1      25.833  -6.664   5.968  0.00  0.00    +0.000 C 
BRANCH   9  10
ATOM     10  C   UNL     1      24.960  -5.473   6.433  0.00  0.00    +0.000 C 
ATOM     11  C   UNL     1      24.928  -5.382   7.954  0.00  0.00    +0.000 C 
BRANCH  10  12
ATOM     12  O   UNL     1      25.469  -4.232   5.925  0.00  0.00    +0.000 OA
ATOM     13  H   UNL     1      26.439  -4.284   5.919  0.00  0.00    +0.000 HD
ENDBRANCH  10  12
ENDBRANCH   9  10
ENDBRANCH   1   9
BRANCH   1  14
ATOM     14  C   UNL     1      24.677  -6.793   3.754  0.00  0.00    +0.000 C 
BRANCH  14  15
ATOM     15  C   UNL     1      25.845  -6.231   2.908  0.00  0.00    +0.000 C 
ATOM     16  C   UNL     1      25.833  -6.725   1.467  0.00  0.00    +0.000 C 
BRANCH  15  17
ATOM     17  O   UNL     1      25.840  -4.804   2.886  0.00  0.00    +0.000 OA
ATOM     18  H   UNL     1      25.415  -4.540   3.727  0.00  0.00    +0.000 HD
ENDBRANCH  15  17
ENDBRANCH  14  15
ENDBRANCH   1  14
TORSDOF 7
ENDMDL
MODEL 6
REMARK VINA RESULT:    -3.622      1.400      3.225
REMARK INTER + INTRA:          -5.362
REMARK INTER:                  -5.020
REMARK INTRA:                  -0.342
REMARK UNBOUND:                -0.470
REMARK  Name = 
REMARK  10 active torsions:
REMARK  status: ('A' for Active; 'I' for Inactive)
REMARK    1  A    between atoms: C_1  and  C_2
REMARK    2  A    between atoms: C_5  and  N_8
REMARK    3  A    between atoms: N_8  and  C_9
REMARK    4  A    between atoms: N_8  and  C_13
REMARK    5  A    between atoms: C_9  and  C_10
REMARK    6  A    between atoms: C_10  and  C_11
REMARK    7  A    between atoms: C_10  and  O_12
REMARK    8  A    between atoms: C_13  and  C_14
REMARK    9  A    between atoms: C_14  and  C_15
REMARK   10  A    between atoms: C_14  and  O_16
REMARK                            x       y       z     vdW  Elec       q    Type
REMARK                         _______ _______ _______ _____ _____    ______ ____
ROOT
ATOM      1  N   UNL     1      23.896 -10.917  -4.091  0.00  0.00    +0.000 N 
ENDROOT
BRANCH   1   6
ATOM      2  C   UNL     1      23.231 -10.227  -9.784  0.00  0.00    +0.000 C 
ATOM      3  C   UNL     1      23.427 -10.414  -8.311  0.00  0.00    +0.000 A 
ATOM      4  C   UNL     1      23.106 -11.618  -7.694  0.00  0.00    +0.000 A 
ATOM      5  C   UNL     1      23.264 -11.777  -6.307  0.00  0.00    +0.000 A 
ATOM      6  C   UNL     1      23.723 -10.745  -5.470  0.00  0.00    +0.000 A 
ATOM      7  C   UNL     1      24.040  -9.542  -6.128  0.00  0.00    +0.000 A 
ATOM      8  C   UNL     1      23.889  -9.370  -7.514  0.00  0.00    +0.000 A 
ENDBRANCH   1   6
BRANCH   1   9
ATOM      9  C   UNL     1      22.727 -10.851  -3.181  0.00  0.00    +0.000 C 
BRANCH   9  10
ATOM     10  C   UNL     1      21.804 -12.089  -3.299  0.00  0.00    +0.000 C 
ATOM     11  C   UNL     1      22.429 -13.301  -2.619  0.00  0.00    +0.000 C 
BRANCH  10  12
ATOM     12  O   UNL     1      20.531 -11.842  -2.686  0.00  0.00    +0.000 OA
ATOM     13  H   UNL     1      20.598 -11.019  -2.174  0.00  0.00    +0.000 HD
ENDBRANCH  10  12
ENDBRANCH   9  10
ENDBRANCH   1   9
BRANCH   1  14
ATOM     14  C   UNL     1      25.207 -10.658  -3.442  0.00  0.00    +0.000 C 
BRANCH  14  15
ATOM     15  C   UNL     1      25.075 -10.472  -1.912  0.00  0.00    +0.000 C 
ATOM     16  C   UNL     1      26.070 -11.310  -1.118  0.00  0.00    +0.000 C 
BRANCH  15  17
ATOM     17  O   UNL     1      25.244  -9.107  -1.530  0.00  0.00    +0.000 OA
ATOM     18  H   UNL     1      24.837  -8.590  -2.255  0.00  0.00    +0.000 HD
ENDBRANCH  15  17
ENDBRANCH  14  15
ENDBRANCH   1  14
TORSDOF 7
ENDMDL
MODEL 7
REMARK VINA RESULT:    -3.614      8.284     12.031
REMARK INTER + INTRA:          -5.351
REMARK INTER:                  -4.928
REMARK INTRA:                  -0.424
REMARK UNBOUND:                -0.470
REMARK  Name = 
REMARK  10 active torsions:
REMARK  status: ('A' for Active; 'I' for Inactive)
REMARK    1  A    between atoms: C_1  and  C_2
REMARK    2  A    between atoms: C_5  and  N_8
REMARK    3  A    between atoms: N_8  and  C_9
REMARK    4  A    between atoms: N_8  and  C_13
REMARK    5  A    between atoms: C_9  and  C_10
REMARK    6  A    between atoms: C_10  and  C_11
REMARK    7  A    between atoms: C_10  and  O_12
REMARK    8  A    between atoms: C_13  and  C_14
REMARK    9  A    between atoms: C_14  and  C_15
REMARK   10  A    between atoms: C_14  and  O_16
REMARK                            x       y       z     vdW  Elec       q    Type
REMARK                         _______ _______ _______ _____ _____    ______ ____
ROOT
ATOM      1  N   UNL     1      25.769  -6.868   4.156  0.00  0.00    +0.000 N 
ENDROOT
BRANCH   1   6
ATOM      2  C   UNL     1      23.532  -3.259   8.067  0.00  0.00    +0.000 C 
ATOM      3  C   UNL     1      24.094  -4.212   7.058  0.00  0.00    +0.000 A 
ATOM      4  C   UNL     1      25.090  -5.118   7.408  0.00  0.00    +0.000 A 
ATOM      5  C   UNL     1      25.635  -5.989   6.450  0.00  0.00    +0.000 A 
ATOM      6  C   UNL     1      25.235  -5.983   5.101  0.00  0.00    +0.000 A 
ATOM      7  C   UNL     1      24.226  -5.056   4.784  0.00  0.00    +0.000 A 
ATOM      8  C   UNL     1      23.670  -4.181   5.732  0.00  0.00    +0.000 A 
ENDBRANCH   1   6
BRANCH   1   9
ATOM      9  C   UNL     1      26.240  -8.210   4.576  0.00  0.00    +0.000 C 
BRANCH   9  10
ATOM     10  C   UNL     1      25.094  -9.247   4.663  0.00  0.00    +0.000 C 
ATOM     11  C   UNL     1      24.679  -9.480   6.111  0.00  0.00    +0.000 C 
BRANCH  10  12
ATOM     12  O   UNL     1      23.940  -8.802   3.937  0.00  0.00    +0.000 OA
ATOM     13  H   UNL     1      24.123  -7.911   3.597  0.00  0.00    +0.000 HD
ENDBRANCH  10  12
ENDBRANCH   9  10
ENDBRANCH   1   9
BRANCH   1  14
ATOM     14  C   UNL     1      26.351  -6.372   2.882  0.00  0.00    +0.000 C 
BRANCH  14  15
ATOM     15  C   UNL     1      25.651  -6.980   1.644  0.00  0.00    +0.000 C 
ATOM     16  C   UNL     1      25.999  -6.263   0.345  0.00  0.00    +0.000 C 
BRANCH  15  17
ATOM     17  O   UNL     1      25.968  -8.362   1.484  0.00  0.00    +0.000 OA
ATOM     18  H   UNL     1      25.194  -8.842   1.840  0.00  0.00    +0.000 HD
ENDBRANCH  15  17
ENDBRANCH  14  15
ENDBRANCH   1  14
TORSDOF 7
ENDMDL
MODEL 8
REMARK VINA RESULT:    -3.578      8.037     11.536
REMARK INTER + INTRA:          -5.303
REMARK INTER:                  -4.657
REMARK INTRA:                  -0.646
REMARK UNBOUND:                -0.470
REMARK  Name = 
REMARK  10 active torsions:
REMARK  status: ('A' for Active; 'I' for Inactive)
REMARK    1  A    between atoms: C_1  and  C_2
REMARK    2  A    between atoms: C_5  and  N_8
REMARK    3  A    between atoms: N_8  and  C_9
REMARK    4  A    between atoms: N_8  and  C_13
REMARK    5  A    between atoms: C_9  and  C_10
REMARK    6  A    between atoms: C_10  and  C_11
REMARK    7  A    between atoms: C_10  and  O_12
REMARK    8  A    between atoms: C_13  and  C_14
REMARK    9  A    between atoms: C_14  and  C_15
REMARK   10  A    between atoms: C_14  and  O_16
REMARK                            x       y       z     vdW  Elec       q    Type
REMARK                         _______ _______ _______ _____ _____    ______ ____
ROOT
ATOM      1  N   UNL     1      25.455  -7.311   4.145  0.00  0.00    +0.000 N 
ENDROOT
BRANCH   1   6
ATOM      2  C   UNL     1      23.620 -11.736   7.368  0.00  0.00    +0.000 C 
ATOM      3  C   UNL     1      24.076 -10.574   6.539  0.00  0.00    +0.000 A 
ATOM      4  C   UNL     1      23.680 -10.443   5.212  0.00  0.00    +0.000 A 
ATOM      5  C   UNL     1      24.136  -9.368   4.432  0.00  0.00    +0.000 A 
ATOM      6  C   UNL     1      25.020  -8.391   4.924  0.00  0.00    +0.000 A 
ATOM      7  C   UNL     1      25.398  -8.554   6.269  0.00  0.00    +0.000 A 
ATOM      8  C   UNL     1      24.948  -9.623   7.062  0.00  0.00    +0.000 A 
ENDBRANCH   1   6
BRANCH   1   9
ATOM      9  C   UNL     1      26.300  -7.548   2.950  0.00  0.00    +0.000 C 
BRANCH   9  10
ATOM     10  C   UNL     1      25.891  -6.671   1.742  0.00  0.00    +0.000 C 
ATOM     11  C   UNL     1      26.351  -7.299   0.432  0.00  0.00    +0.000 C 
BRANCH  10  12
ATOM     12  O   UNL     1      24.467  -6.510   1.682  0.00  0.00    +0.000 OA
ATOM     13  H   UNL     1      24.136  -6.415   2.590  0.00  0.00    +0.000 HD
ENDBRANCH  10  12
ENDBRANCH   9  10
ENDBRANCH   1   9
BRANCH   1  14
ATOM     14  C   UNL     1      25.548  -5.942   4.714  0.00  0.00    +0.000 C 
BRANCH  14  15
ATOM     15  C   UNL     1      24.154  -5.328   4.990  0.00  0.00    +0.000 C 
ATOM     16  C   UNL     1      24.187  -4.205   6.020  0.00  0.00    +0.000 C 
BRANCH  15  17
ATOM     17  O   UNL     1      23.557  -4.818   3.799  0.00  0.00    +0.000 OA
ATOM     18  H   UNL     1      23.210  -5.606   3.333  0.00  0.00    +0.000 HD
ENDBRANCH  15  17
ENDBRANCH  14  15
ENDBRANCH   1  14
TORSDOF 7
ENDMDL
MODEL 9
REMARK VINA RESULT:    -3.572      2.406      4.851
REMARK INTER + INTRA:          -5.295
REMARK INTER:                  -5.020
REMARK INTRA:                  -0.275
REMARK UNBOUND:                -0.470
REMARK  Name = 
REMARK  10 active torsions:
REMARK  status: ('A' for Active; 'I' for Inactive)
REMARK    1  A    between atoms: C_1  and  C_2
REMARK    2  A    between atoms: C_5  and  N_8
REMARK    3  A    between atoms: N_8  and  C_9
REMARK    4  A    between atoms: N_8  and  C_13
REMARK    5  A    between atoms: C_9  and  C_10
REMARK    6  A    between atoms: C_10  and  C_11
REMARK    7  A    between atoms: C_10  and  O_12
REMARK    8  A    between atoms: C_13  and  C_14
REMARK    9  A    between atoms: C_14  and  C_15
REMARK   10  A    between atoms: C_14  and  O_16
REMARK                            x       y       z     vdW  Elec       q    Type
REMARK                         _______ _______ _______ _____ _____    ______ ____
ROOT
ATOM      1  N   UNL     1      23.386 -11.351  -6.335  0.00  0.00    +0.000 N 
ENDROOT
BRANCH   1   6
ATOM      2  C   UNL     1      26.111 -10.185  -1.380  0.00  0.00    +0.000 C 
ATOM      3  C   UNL     1      25.410 -10.464  -2.674  0.00  0.00    +0.000 A 
ATOM      4  C   UNL     1      24.051 -10.206  -2.821  0.00  0.00    +0.000 A 
ATOM      5  C   UNL     1      23.393 -10.498  -4.026  0.00  0.00    +0.000 A 
ATOM      6  C   UNL     1      24.045 -11.080  -5.129  0.00  0.00    +0.000 A 
ATOM      7  C   UNL     1      25.418 -11.325  -4.946  0.00  0.00    +0.000 A 
ATOM      8  C   UNL     1      26.089 -11.036  -3.746  0.00  0.00    +0.000 A 
ENDBRANCH   1   6
BRANCH   1   9
ATOM      9  C   UNL     1      23.432 -10.367  -7.444  0.00  0.00    +0.000 C 
BRANCH   9  10
ATOM     10  C   UNL     1      23.907  -8.967  -6.985  0.00  0.00    +0.000 C 
ATOM     11  C   UNL     1      25.187  -8.562  -7.706  0.00  0.00    +0.000 C 
BRANCH  10  12
ATOM     12  O   UNL     1      22.910  -7.971  -7.255  0.00  0.00    +0.000 OA
ATOM     13  H   UNL     1      22.227  -8.034  -6.567  0.00  0.00    +0.000 HD
ENDBRANCH  10  12
ENDBRANCH   9  10
ENDBRANCH   1   9
BRANCH   1  14
ATOM     14  C   UNL     1      22.249 -12.305  -6.392  0.00  0.00    +0.000 C 
BRANCH  14  15
ATOM     15  C   UNL     1      21.534 -12.279  -7.765  0.00  0.00    +0.000 C 
ATOM     16  C   UNL     1      21.754 -13.549  -8.579  0.00  0.00    +0.000 C 
BRANCH  15  17
ATOM     17  O   UNL     1      20.128 -12.083  -7.623  0.00  0.00    +0.000 OA
ATOM     18  H   UNL     1      19.756 -12.983  -7.528  0.00  0.00    +0.000 HD
ENDBRANCH  15  17
ENDBRANCH  14  15
ENDBRANCH   1  14
TORSDOF 7
ENDMDL
