MODEL 1
REMARK VINA RESULT:    -3.368      0.000      0.000
REMARK INTER + INTRA:          -3.702
REMARK INTER:                  -3.664
REMARK INTRA:                  -0.039
REMARK UNBOUND:                -0.039
REMARK  Name = 
REMARK  3 active torsions:
REMARK  status: ('A' for Active; 'I' for Inactive)
REMARK    1  A    between atoms: C_1  and  O_2
REMARK    2  A    between atoms: O_2  and  C_3
REMARK    3  A    between atoms: C_8  and  O_9
REMARK                            x       y       z     vdW  Elec       q    Type
REMARK                         _______ _______ _______ _____ _____    ______ ____
ROOT
ATOM      1  C   UNL     1      24.428  -4.738   5.407  0.00  0.00    +0.000 A 
ATOM      2  C   UNL     1      25.556  -5.366   5.933  0.00  0.00    +0.000 A 
ATOM      3  C   UNL     1      26.272  -6.284   5.154  0.00  0.00    +0.000 A 
ATOM      4  C   UNL     1      25.865  -6.577   3.851  0.00  0.00    +0.000 A 
ATOM      5  C   UNL     1      24.739  -5.953   3.319  0.00  0.00    +0.000 A 
ATOM      6  C   UNL     1      24.034  -5.044   4.099  0.00  0.00    +0.000 A 
ENDROOT
BRANCH   1   8
ATOM      7  C   UNL     1      23.732  -3.787   7.471  0.00  0.00    +0.000 C 
ATOM      8  O   UNL     1      23.634  -3.824   6.052  0.00  0.00    +0.000 OA
ENDBRANCH   1   8
BRANCH   6   9
ATOM      9  O   UNL     1      22.930  -4.444   3.554  0.00  0.00    +0.000 OA
ATOM     10  H   UNL     1      23.228  -3.545   3.318  0.00  0.00    +0.000 HD
ENDBRANCH   6   9
TORSDOF 2
ENDMDL
MODEL 2
REMARK VINA RESULT:    -3.367      1.307      3.101
REMARK INTER + INTRA:          -3.701
REMARK INTER:                  -3.648
REMARK INTRA:                  -0.052
REMARK UNBOUND:                -0.039
REMARK  Name = 
REMARK  3 active torsions:
REMARK  status: ('A' for Active; 'I' for Inactive)
REMARK    1  A    between atoms: C_1  and  O_2
REMARK    2  A    between atoms: O_2  and  C_3
REMARK    3  A    between atoms: C_8  and  O_9
REMARK                            x       y       z     vdW  Elec       q    Type
REMARK                         _______ _______ _______ _____ _____    ______ ____
ROOT
ATOM      1  C   UNL     1      24.494  -5.764   4.515  0.00  0.00    +0.000 A 
ATOM      2  C   UNL     1      25.228  -6.098   5.652  0.00  0.00    +0.000 A 
ATOM      3  C   UNL     1      25.104  -5.328   6.816  0.00  0.00    +0.000 A 
ATOM      4  C   UNL     1      24.248  -4.225   6.846  0.00  0.00    +0.000 A 
ATOM      5  C   UNL     1      23.511  -3.886   5.714  0.00  0.00    +0.000 A 
ATOM      6  C   UNL     1      23.641  -4.655   4.564  0.00  0.00    +0.000 A 
ENDROOT
BRANCH   1   8
ATOM      7  C   UNL     1      25.759  -6.435   2.618  0.00  0.00    +0.000 C 
ATOM      8  O   UNL     1      24.517  -6.425   3.312  0.00  0.00    +0.000 OA
ENDBRANCH   1   8
BRANCH   6   9
ATOM      9  O   UNL     1      22.907  -4.302   3.464  0.00  0.00    +0.000 OA
ATOM     10  H   UNL     1      23.039  -5.034   2.832  0.00  0.00    +0.000 HD
ENDBRANCH   6   9
TORSDOF 2
ENDMDL
MODEL 3
REMARK VINA RESULT:    -3.161      2.257      3.231
REMARK INTER + INTRA:          -3.477
REMARK INTER:                  -3.428
REMARK INTRA:                  -0.049
REMARK UNBOUND:                -0.039
REMARK  Name = 
REMARK  3 active torsions:
REMARK  status: ('A' for Active; 'I' for Inactive)
REMARK    1  A    between atoms: C_1  and  O_2
REMARK    2  A    between atoms: O_2  and  C_3
REMARK    3  A    between atoms: C_8  and  O_9
REMARK                            x       y       z     vdW  Elec       q    Type
REMARK                         _______ _______ _______ _____ _____    ______ ____
ROOT
ATOM      1  C   UNL     1      25.287  -5.983   7.237  0.00  0.00    +0.000 A 
ATOM      2  C   UNL     1      25.312  -6.855   6.149  0.00  0.00    +0.000 A 
ATOM      3  C   UNL     1      24.776  -6.454   4.919  0.00  0.00    +0.000 A 
ATOM      4  C   UNL     1      24.213  -5.185   4.772  0.00  0.00    +0.000 A 
ATOM      5  C   UNL     1      24.185  -4.308   5.854  0.00  0.00    +0.000 A 
ATOM      6  C   UNL     1      24.719  -4.714   7.071  0.00  0.00    +0.000 A 
ENDROOT
BRANCH   1   8
ATOM      7  C   UNL     1      25.338  -7.449   9.107  0.00  0.00    +0.000 C 
ATOM      8  O   UNL     1      25.772  -6.240   8.494  0.00  0.00    +0.000 OA
ENDBRANCH   1   8
BRANCH   6   9
ATOM      9  O   UNL     1      24.679  -3.834   8.120  0.00  0.00    +0.000 OA
ATOM     10  H   UNL     1      24.218  -3.049   7.768  0.00  0.00    +0.000 HD
ENDBRANCH   6   9
TORSDOF 2
ENDMDL
MODEL 4
REMARK VINA RESULT:    -3.102      1.948      2.946
REMARK INTER + INTRA:          -3.413
REMARK INTER:                  -3.370
REMARK INTRA:                  -0.044
REMARK UNBOUND:                -0.039
REMARK  Name = 
REMARK  3 active torsions:
REMARK  status: ('A' for Active; 'I' for Inactive)
REMARK    1  A    between atoms: C_1  and  O_2
REMARK    2  A    between atoms: O_2  and  C_3
REMARK    3  A    between atoms: C_8  and  O_9
REMARK                            x       y       z     vdW  Elec       q    Type
REMARK                         _______ _______ _______ _____ _____    ______ ____
ROOT
ATOM      1  C   UNL     1      24.338  -4.179   6.972  0.00  0.00    +0.000 A 
ATOM      2  C   UNL     1      23.777  -4.263   5.699  0.00  0.00    +0.000 A 
ATOM      3  C   UNL     1      24.337  -5.121   4.743  0.00  0.00    +0.000 A 
ATOM      4  C   UNL     1      25.456  -5.894   5.056  0.00  0.00    +0.000 A 
ATOM      5  C   UNL     1      26.022  -5.816   6.326  0.00  0.00    +0.000 A 
ATOM      6  C   UNL     1      25.460  -4.963   7.268  0.00  0.00    +0.000 A 
ENDROOT
BRANCH   1   8
ATOM      7  C   UNL     1      22.488  -3.250   8.139  0.00  0.00    +0.000 C 
ATOM      8  O   UNL     1      23.897  -3.386   8.002  0.00  0.00    +0.000 OA
ENDBRANCH   1   8
BRANCH   6   9
ATOM      9  O   UNL     1      26.034  -4.903   8.510  0.00  0.00    +0.000 OA
ATOM     10  H   UNL     1      25.674  -4.088   8.910  0.00  0.00    +0.000 HD
ENDBRANCH   6   9
TORSDOF 2
ENDMDL
MODEL 5
REMARK VINA RESULT:    -3.030      2.013      3.417
REMARK INTER + INTRA:          -3.335
REMARK INTER:                  -3.286
REMARK INTRA:                  -0.049
REMARK UNBOUND:                -0.039
REMARK  Name = 
REMARK  3 active torsions:
REMARK  status: ('A' for Active; 'I' for Inactive)
REMARK    1  A    between atoms: C_1  and  O_2
REMARK    2  A    between atoms: O_2  and  C_3
REMARK    3  A    between atoms: C_8  and  O_9
REMARK                            x       y       z     vdW  Elec       q    Type
REMARK                         _______ _______ _______ _____ _____    ______ ____
ROOT
ATOM      1  C   UNL     1      25.032  -5.589   6.202  0.00  0.00    +0.000 A 
ATOM      2  C   UNL     1      25.227  -6.885   5.726  0.00  0.00    +0.000 A 
ATOM      3  C   UNL     1      25.442  -7.936   6.627  0.00  0.00    +0.000 A 
ATOM      4  C   UNL     1      25.463  -7.696   8.002  0.00  0.00    +0.000 A 
ATOM      5  C   UNL     1      25.268  -6.404   8.485  0.00  0.00    +0.000 A 
ATOM      6  C   UNL     1      25.056  -5.368   7.584  0.00  0.00    +0.000 A 
ENDROOT
BRANCH   1   8
ATOM      7  C   UNL     1      23.784  -4.560   4.461  0.00  0.00    +0.000 C 
ATOM      8  O   UNL     1      24.813  -4.470   5.439  0.00  0.00    +0.000 OA
ENDBRANCH   1   8
BRANCH   6   9
ATOM      9  O   UNL     1      24.867  -4.106   8.083  0.00  0.00    +0.000 OA
ATOM     10  H   UNL     1      25.005  -4.196   9.045  0.00  0.00    +0.000 HD
ENDBRANCH   6   9
TORSDOF 2
ENDMDL
MODEL 6
REMARK VINA RESULT:    -2.905      2.122      4.029
REMARK INTER + INTRA:          -3.199
REMARK INTER:                  -3.146
REMARK INTRA:                  -0.053
REMARK UNBOUND:                -0.039
REMARK  Name = 
REMARK  3 active torsions:
REMARK  status: ('A' for Active; 'I' for Inactive)
REMARK    1  A    between atoms: C_1  and  O_2
REMARK    2  A    between atoms: O_2  and  C_3
REMARK    3  A    between atoms: C_8  and  O_9
REMARK                            x       y       z     vdW  Elec       q    Type
REMARK                         _______ _______ _______ _____ _____    ______ ____
ROOT
ATOM      1  C   UNL     1      25.098  -5.668   5.625  0.00  0.00    +0.000 A 
ATOM      2  C   UNL     1      24.235  -4.594   5.406  0.00  0.00    +0.000 A 
ATOM      3  C   UNL     1      23.769  -3.839   6.489  0.00  0.00    +0.000 A 
ATOM      4  C   UNL     1      24.162  -4.153   7.792  0.00  0.00    +0.000 A 
ATOM      5  C   UNL     1      25.023  -5.224   8.019  0.00  0.00    +0.000 A 
ATOM      6  C   UNL     1      25.480  -5.968   6.938  0.00  0.00    +0.000 A 
ENDROOT
BRANCH   1   8
ATOM      7  C   UNL     1      24.708  -7.296   3.938  0.00  0.00    +0.000 C 
ATOM      8  O   UNL     1      25.629  -6.490   4.664  0.00  0.00    +0.000 OA
ENDBRANCH   1   8
BRANCH   6   9
ATOM      9  O   UNL     1      26.326  -7.015   7.186  0.00  0.00    +0.000 OA
ATOM     10  H   UNL     1      26.109  -7.301   8.094  0.00  0.00    +0.000 HD
ENDBRANCH   6   9
TORSDOF 2
ENDMDL
MODEL 7
REMARK VINA RESULT:    -2.894      2.706      3.562
REMARK INTER + INTRA:          -3.187
REMARK INTER:                  -3.134
REMARK INTRA:                  -0.053
REMARK UNBOUND:                -0.039
REMARK  Name = 
REMARK  3 active torsions:
REMARK  status: ('A' for Active; 'I' for Inactive)
REMARK    1  A    between atoms: C_1  and  O_2
REMARK    2  A    between atoms: O_2  and  C_3
REMARK    3  A    between atoms: C_8  and  O_9
REMARK                            x       y       z     vdW  Elec       q    Type
REMARK                         _______ _______ _______ _____ _____    ______ ____
ROOT
ATOM      1  C   UNL     1      25.395  -6.064   7.566  0.00  0.00    +0.000 A 
ATOM      2  C   UNL     1      24.764  -4.887   7.968  0.00  0.00    +0.000 A 
ATOM      3  C   UNL     1      24.120  -4.080   7.021  0.00  0.00    +0.000 A 
ATOM      4  C   UNL     1      24.105  -4.444   5.674  0.00  0.00    +0.000 A 
ATOM      5  C   UNL     1      24.733  -5.618   5.264  0.00  0.00    +0.000 A 
ATOM      6  C   UNL     1      25.369  -6.412   6.210  0.00  0.00    +0.000 A 
ENDROOT
BRANCH   1   8
ATOM      7  C   UNL     1      25.269  -7.670   9.313  0.00  0.00    +0.000 C 
ATOM      8  O   UNL     1      26.061  -6.945   8.379  0.00  0.00    +0.000 OA
ENDBRANCH   1   8
BRANCH   6   9
ATOM      9  O   UNL     1      25.980  -7.562   5.784  0.00  0.00    +0.000 OA
ATOM     10  H   UNL     1      26.896  -7.294   5.577  0.00  0.00    +0.000 HD
ENDBRANCH   6   9
TORSDOF 2
ENDMDL
MODEL 8
REMARK VINA RESULT:    -2.802      9.734     11.290
REMARK INTER + INTRA:          -3.086
REMARK INTER:                  -3.048
REMARK INTRA:                  -0.039
REMARK UNBOUND:                -0.039
REMARK  Name = 
REMARK  3 active torsions:
REMARK  status: ('A' for Active; 'I' for Inactive)
REMARK    1  A    between atoms: C_1  and  O_2
REMARK    2  A    between atoms: O_2  and  C_3
REMARK    3  A    between atoms: C_8  and  O_9
REMARK                            x       y       z     vdW  Elec       q    Type
REMARK                         _______ _______ _______ _____ _____    ______ ____
ROOT
ATOM      1  C   UNL     1      22.917 -11.247  -3.577  0.00  0.00    +0.000 A 
ATOM      2  C   UNL     1      23.962 -11.622  -4.421  0.00  0.00    +0.000 A 
ATOM      3  C   UNL     1      23.865 -12.800  -5.174  0.00  0.00    +0.000 A 
ATOM      4  C   UNL     1      22.727 -13.605  -5.085  0.00  0.00    +0.000 A 
ATOM      5  C   UNL     1      21.680 -13.236  -4.244  0.00  0.00    +0.000 A 
ATOM      6  C   UNL     1      21.785 -12.067  -3.501  0.00  0.00    +0.000 A 
ENDROOT
BRANCH   1   8
ATOM      7  C   UNL     1      24.127  -9.522  -2.479  0.00  0.00    +0.000 C 
ATOM      8  O   UNL     1      22.877 -10.128  -2.785  0.00  0.00    +0.000 OA
ENDBRANCH   1   8
BRANCH   6   9
ATOM      9  O   UNL     1      20.742 -11.727  -2.682  0.00  0.00    +0.000 OA
ATOM     10  H   UNL     1      21.164 -11.436  -1.851  0.00  0.00    +0.000 HD
ENDBRANCH   6   9
TORSDOF 2
ENDMDL
MODEL 9
REMARK VINA RESULT:    -2.744      2.365      3.347
REMARK INTER + INTRA:          -3.023
REMARK INTER:                  -2.976
REMARK INTRA:                  -0.047
REMARK UNBOUND:                -0.039
REMARK  Name = 
REMARK  3 active torsions:
REMARK  status: ('A' for Active; 'I' for Inactive)
REMARK    1  A    between atoms: C_1  and  O_2
REMARK    2  A    between atoms: O_2  and  C_3
REMARK    3  A    between atoms: C_8  and  O_9
REMARK                            x       y       z     vdW  Elec       q    Type
REMARK                         _______ _______ _______ _____ _____    ______ ____
ROOT
ATOM      1  C   UNL     1      24.885  -7.381   4.445  0.00  0.00    +0.000 A 
ATOM      2  C   UNL     1      25.136  -7.081   5.783  0.00  0.00    +0.000 A 
ATOM      3  C   UNL     1      25.383  -5.757   6.169  0.00  0.00    +0.000 A 
ATOM      4  C   UNL     1      25.380  -4.732   5.222  0.00  0.00    +0.000 A 
ATOM      5  C   UNL     1      25.129  -5.024   3.883  0.00  0.00    +0.000 A 
ATOM      6  C   UNL     1      24.886  -6.339   3.509  0.00  0.00    +0.000 A 
ENDROOT
BRANCH   1   8
ATOM      7  C   UNL     1      23.681  -9.422   4.626  0.00  0.00    +0.000 C 
ATOM      8  O   UNL     1      24.630  -8.626   3.927  0.00  0.00    +0.000 OA
ENDBRANCH   1   8
BRANCH   6   9
ATOM      9  O   UNL     1      24.642  -6.601   2.187  0.00  0.00    +0.000 OA
ATOM     10  H   UNL     1      23.756  -6.228   2.019  0.00  0.00    +0.000 HD
ENDBRANCH   6   9
TORSDOF 2
ENDMDL
