MODEL 1
REMARK VINA RESULT:    -3.813      0.000      0.000
REMARK INTER + INTRA:          -5.574
REMARK INTER:                  -5.151
REMARK INTRA:                  -0.424
REMARK UNBOUND:                -0.424
REMARK  Name = 
REMARK  10 active torsions:
REMARK  status: ('A' for Active; 'I' for Inactive)
REMARK    1  A    between atoms: C_1  and  C_2
REMARK    2  A    between atoms: C_5  and  N_8
REMARK    3  A    between atoms: N_8  and  C_9
REMARK    4  A    between atoms: N_8  and  C_13
REMARK    5  A    between atoms: C_9  and  C_10
REMARK    6  A    between atoms: C_10  and  C_11
REMARK    7  A    between atoms: C_10  and  O_12
REMARK    8  A    between atoms: C_13  and  C_14
REMARK    9  A    between atoms: C_14  and  C_15
REMARK   10  A    between atoms: C_14  and  O_16
REMARK                            x       y       z     vdW  Elec       q    Type
REMARK                         _______ _______ _______ _____ _____    ______ ____
ROOT
ATOM      1  N   UNL     1      23.373 -10.892  -6.317  0.00  0.00    +0.000 N 
ENDROOT
BRANCH   1   6
ATOM      2  C   UNL     1      26.235 -10.436  -1.324  0.00  0.00    +0.000 C 
ATOM      3  C   UNL     1      25.483 -10.577  -2.612  0.00  0.00    +0.000 A 
ATOM      4  C   UNL     1      26.091 -11.125  -3.737  0.00  0.00    +0.000 A 
ATOM      5  C   UNL     1      25.392 -11.226  -4.951  0.00  0.00    +0.000 A 
ATOM      6  C   UNL     1      24.071 -10.769  -5.109  0.00  0.00    +0.000 A 
ATOM      7  C   UNL     1      23.487 -10.223  -3.951  0.00  0.00    +0.000 A 
ATOM      8  C   UNL     1      24.175 -10.118  -2.730  0.00  0.00    +0.000 A 
ENDBRANCH   1   6
BRANCH   1   9
ATOM      9  C   UNL     1      22.599 -12.123  -6.607  0.00  0.00    +0.000 C 
BRANCH   9  10
ATOM     10  C   UNL     1      21.825 -12.044  -7.946  0.00  0.00    +0.000 C 
ATOM     11  C   UNL     1      22.135 -13.248  -8.827  0.00  0.00    +0.000 C 
BRANCH  10  12
ATOM     12  O   UNL     1      20.409 -12.011  -7.721  0.00  0.00    +0.000 OA
ATOM     13  H   UNL     1      20.024 -11.350  -8.320  0.00  0.00    +0.000 HD
ENDBRANCH  10  12
ENDBRANCH   9  10
ENDBRANCH   1   9
BRANCH   1  14
ATOM     14  C   UNL     1      23.763 -10.103  -7.514  0.00  0.00    +0.000 C 
BRANCH  14  15
ATOM     15  C   UNL     1      23.990  -8.609  -7.180  0.00  0.00    +0.000 C 
ATOM     16  C   UNL     1      25.080  -7.964  -8.028  0.00  0.00    +0.000 C 
BRANCH  15  17
ATOM     17  O   UNL     1      22.795  -7.845  -7.342  0.00  0.00    +0.000 OA
ATOM     18  H   UNL     1      22.067  -8.491  -7.242  0.00  0.00    +0.000 HD
ENDBRANCH  15  17
ENDBRANCH  14  15
ENDBRANCH   1  14
TORSDOF 7
ENDMDL
MODEL 2
REMARK VINA RESULT:    -3.806      9.212     12.104
REMARK INTER + INTRA:          -5.565
REMARK INTER:                  -5.101
REMARK INTRA:                  -0.464
REMARK UNBOUND:                -0.424
REMARK  Name = 
REMARK  10 active torsions:
REMARK  status: ('A' for Active; 'I' for Inactive)
REMARK    1  A    between atoms: C_1  and  C_2
REMARK    2  A    between atoms: C_5  and  N_8
REMARK    3  A    between atoms: N_8  and  C_9
REMARK    4  A    between atoms: N_8  and  C_13
REMARK    5  A    between atoms: C_9  and  C_10
REMARK    6  A    between atoms: C_10  and  C_11
REMARK    7  A    between atoms: C_10  and  O_12
REMARK    8  A    between atoms: C_13  and  C_14
REMARK    9  A    between atoms: C_14  and  C_15
REMARK   10  A    between atoms: C_14  and  O_16
REMARK                            x       y       z     vdW  Elec       q    Type
REMARK                         _______ _______ _______ _____ _____    ______ ____
ROOT
ATOM      1  N   UNL     1      25.380  -6.006   4.584  0.00  0.00    +0.000 N 
ENDROOT
BRANCH   1   6
ATOM      2  C   UNL     1      25.097  -8.348   9.853  0.00  0.00    +0.000 C 
ATOM      3  C   UNL     1      25.146  -7.737   8.486  0.00  0.00    +0.000 A 
ATOM      4  C   UNL     1      25.074  -8.531   7.346  0.00  0.00    +0.000 A 
ATOM      5  C   UNL     1      25.150  -7.956   6.067  0.00  0.00    +0.000 A 
ATOM      6  C   UNL     1      25.324  -6.575   5.863  0.00  0.00    +0.000 A 
ATOM      7  C   UNL     1      25.391  -5.803   7.037  0.00  0.00    +0.000 A 
ATOM      8  C   UNL     1      25.314  -6.365   8.322  0.00  0.00    +0.000 A 
ENDBRANCH   1   6
BRANCH   1   9
ATOM      9  C   UNL     1      26.351  -6.514   3.586  0.00  0.00    +0.000 C 
BRANCH   9  10
ATOM     10  C   UNL     1      25.669  -7.236   2.398  0.00  0.00    +0.000 C 
ATOM     11  C   UNL     1      26.167  -6.685   1.067  0.00  0.00    +0.000 C 
BRANCH  10  12
ATOM     12  O   UNL     1      25.940  -8.644   2.426  0.00  0.00    +0.000 OA
ATOM     13  H   UNL     1      25.116  -9.105   2.655  0.00  0.00    +0.000 HD
ENDBRANCH  10  12
ENDBRANCH   9  10
ENDBRANCH   1   9
BRANCH   1  14
ATOM     14  C   UNL     1      24.895  -4.624   4.336  0.00  0.00    +0.000 C 
BRANCH  14  15
ATOM     15  C   UNL     1      23.355  -4.518   4.438  0.00  0.00    +0.000 C 
ATOM     16  C   UNL     1      22.891  -3.508   5.481  0.00  0.00    +0.000 C 
BRANCH  15  17
ATOM     17  O   UNL     1      22.767  -4.163   3.187  0.00  0.00    +0.000 OA
ATOM     18  H   UNL     1      23.523  -4.014   2.586  0.00  0.00    +0.000 HD
ENDBRANCH  15  17
ENDBRANCH  14  15
ENDBRANCH   1  14
TORSDOF 7
ENDMDL
MODEL 3
REMARK VINA RESULT:    -3.740      2.525      4.324
REMARK INTER + INTRA:          -5.475
REMARK INTER:                  -4.977
REMARK INTRA:                  -0.498
REMARK UNBOUND:                -0.424
REMARK  Name = 
REMARK  10 active torsions:
REMARK  status: ('A' for Active; 'I' for Inactive)
REMARK    1  A    between atoms: C_1  and  C_2
REMARK    2  A    between atoms: C_5  and  N_8
REMARK    3  A    between atoms: N_8  and  C_9
REMARK    4  A    between atoms: N_8  and  C_13
REMARK    5  A    between atoms: C_9  and  C_10
REMARK    6  A    between atoms: C_10  and  C_11
REMARK    7  A    between atoms: C_10  and  O_12
REMARK    8  A    between atoms: C_13  and  C_14
REMARK    9  A    between atoms: C_14  and  C_15
REMARK   10  A    between atoms: C_14  and  O_16
REMARK                            x       y       z     vdW  Elec       q    Type
REMARK                         _______ _______ _______ _____ _____    ______ ____
ROOT
ATOM      1  N   UNL     1      23.582 -10.537  -8.250  0.00  0.00    +0.000 N 
ENDROOT
BRANCH   1   6
ATOM      2  C   UNL     1      21.529 -13.596  -3.805  0.00  0.00    +0.000 C 
ATOM      3  C   UNL     1      22.047 -12.783  -4.952  0.00  0.00    +0.000 A 
ATOM      4  C   UNL     1      21.469 -12.880  -6.214  0.00  0.00    +0.000 A 
ATOM      5  C   UNL     1      21.978 -12.138  -7.293  0.00  0.00    +0.000 A 
ATOM      6  C   UNL     1      23.093 -11.289  -7.174  0.00  0.00    +0.000 A 
ATOM      7  C   UNL     1      23.650 -11.214  -5.884  0.00  0.00    +0.000 A 
ATOM      8  C   UNL     1      23.150 -11.949  -4.796  0.00  0.00    +0.000 A 
ENDBRANCH   1   6
BRANCH   1   9
ATOM      9  C   UNL     1      23.028  -9.190  -8.529  0.00  0.00    +0.000 C 
BRANCH   9  10
ATOM     10  C   UNL     1      23.667  -8.085  -7.653  0.00  0.00    +0.000 C 
ATOM     11  C   UNL     1      25.101  -7.806  -8.087  0.00  0.00    +0.000 C 
BRANCH  10  12
ATOM     12  O   UNL     1      22.927  -6.860  -7.750  0.00  0.00    +0.000 OA
ATOM     13  H   UNL     1      22.374  -6.778  -6.955  0.00  0.00    +0.000 HD
ENDBRANCH  10  12
ENDBRANCH   9  10
ENDBRANCH   1   9
BRANCH   1  14
ATOM     14  C   UNL     1      24.245 -11.192  -9.407  0.00  0.00    +0.000 C 
BRANCH  14  15
ATOM     15  C   UNL     1      24.204 -10.311 -10.679  0.00  0.00    +0.000 C 
ATOM     16  C   UNL     1      25.579 -10.089 -11.299  0.00  0.00    +0.000 C 
BRANCH  15  17
ATOM     17  O   UNL     1      23.353 -10.869 -11.679  0.00  0.00    +0.000 OA
ATOM     18  H   UNL     1      22.488 -10.430 -11.548  0.00  0.00    +0.000 HD
ENDBRANCH  15  17
ENDBRANCH  14  15
ENDBRANCH   1  14
TORSDOF 7
ENDMDL
MODEL 4
REMARK VINA RESULT:    -3.720      2.486      5.645
REMARK INTER + INTRA:          -5.448
REMARK INTER:                  -4.992
REMARK INTRA:                  -0.456
REMARK UNBOUND:                -0.424
REMARK  Name = 
REMARK  10 active torsions:
REMARK  status: ('A' for Active; 'I' for Inactive)
REMARK    1  A    between atoms: C_1  and  C_2
REMARK    2  A    between atoms: C_5  and  N_8
REMARK    3  A    between atoms: N_8  and  C_9
REMARK    4  A    between atoms: N_8  and  C_13
REMARK    5  A    between atoms: C_9  and  C_10
REMARK    6  A    between atoms: C_10  and  C_11
REMARK    7  A    between atoms: C_10  and  O_12
REMARK    8  A    between atoms: C_13  and  C_14
REMARK    9  A    between atoms: C_14  and  C_15
REMARK   10  A    between atoms: C_14  and  O_16
REMARK                            x       y       z     vdW  Elec       q    Type
REMARK                         _______ _______ _______ _____ _____    ______ ____
ROOT
ATOM      1  N   UNL     1      23.810 -10.691  -3.811  0.00  0.00    +0.000 N 
ENDROOT
BRANCH   1   6
ATOM      2  C   UNL     1      24.623 -10.684  -9.526  0.00  0.00    +0.000 C 
ATOM      3  C   UNL     1      24.436 -10.682  -8.040  0.00  0.00    +0.000 A 
ATOM      4  C   UNL     1      24.465 -11.869  -7.315  0.00  0.00    +0.000 A 
ATOM      5  C   UNL     1      24.260 -11.865  -5.926  0.00  0.00    +0.000 A 
ATOM      6  C   UNL     1      23.994 -10.690  -5.199  0.00  0.00    +0.000 A 
ATOM      7  C   UNL     1      23.974  -9.509  -5.964  0.00  0.00    +0.000 A 
ATOM      8  C   UNL     1      24.180  -9.499  -7.353  0.00  0.00    +0.000 A 
ENDBRANCH   1   6
BRANCH   1   9
ATOM      9  C   UNL     1      24.659  -9.835  -2.948  0.00  0.00    +0.000 C 
BRANCH   9  10
ATOM     10  C   UNL     1      23.833  -8.883  -2.049  0.00  0.00    +0.000 C 
ATOM     11  C   UNL     1      24.644  -7.648  -1.673  0.00  0.00    +0.000 C 
BRANCH  10  12
ATOM     12  O   UNL     1      22.643  -8.445  -2.720  0.00  0.00    +0.000 OA
ATOM     13  H   UNL     1      22.874  -7.682  -3.276  0.00  0.00    +0.000 HD
ENDBRANCH  10  12
ENDBRANCH   9  10
ENDBRANCH   1   9
BRANCH   1  14
ATOM     14  C   UNL     1      23.180 -11.845  -3.120  0.00  0.00    +0.000 C 
BRANCH  14  15
ATOM     15  C   UNL     1      21.749 -12.126  -3.637  0.00  0.00    +0.000 C 
ATOM     16  C   UNL     1      21.491 -13.603  -3.915  0.00  0.00    +0.000 C 
BRANCH  15  17
ATOM     17  O   UNL     1      20.757 -11.669  -2.719  0.00  0.00    +0.000 OA
ATOM     18  H   UNL     1      21.078 -11.951  -1.839  0.00  0.00    +0.000 HD
ENDBRANCH  15  17
ENDBRANCH  14  15
ENDBRANCH   1  14
TORSDOF 7
ENDMDL
MODEL 5
REMARK VINA RESULT:    -3.715      3.006      4.680
REMARK INTER + INTRA:          -5.442
REMARK INTER:                  -4.958
REMARK INTRA:                  -0.485
REMARK UNBOUND:                -0.424
REMARK  Name = 
REMARK  10 active torsions:
REMARK  status: ('A' for Active; 'I' for Inactive)
REMARK    1  A    between atoms: C_1  and  C_2
REMARK    2  A    between atoms: C_5  and  N_8
REMARK    3  A    between atoms: N_8  and  C_9
REMARK    4  A    between atoms: N_8  and  C_13
REMARK    5  A    between atoms: C_9  and  C_10
REMARK    6  A    between atoms: C_10  and  C_11
REMARK    7  A    between atoms: C_10  and  O_12
REMARK    8  A    between atoms: C_13  and  C_14
REMARK    9  A    between atoms: C_14  and  C_15
REMARK   10  A    between atoms: C_14  and  O_16
REMARK                            x       y       z     vdW  Elec       q    Type
REMARK                         _______ _______ _______ _____ _____    ______ ____
ROOT
ATOM      1  N   UNL     1      23.848 -10.408  -3.172  0.00  0.00    +0.000 N 
ENDROOT
BRANCH   1   6
ATOM      2  C   UNL     1      26.351 -10.037  -8.360  0.00  0.00    +0.000 C 
ATOM      3  C   UNL     1      25.691 -10.155  -7.021  0.00  0.00    +0.000 A 
ATOM      4  C   UNL     1      24.438  -9.598  -6.790  0.00  0.00    +0.000 A 
ATOM      5  C   UNL     1      23.837  -9.686  -5.524  0.00  0.00    +0.000 A 
ATOM      6  C   UNL     1      24.461 -10.307  -4.427  0.00  0.00    +0.000 A 
ATOM      7  C   UNL     1      25.726 -10.860  -4.696  0.00  0.00    +0.000 A 
ATOM      8  C   UNL     1      26.337 -10.781  -5.959  0.00  0.00    +0.000 A 
ENDBRANCH   1   6
BRANCH   1   9
ATOM      9  C   UNL     1      23.184 -11.671  -2.768  0.00  0.00    +0.000 C 
BRANCH   9  10
ATOM     10  C   UNL     1      21.905 -11.965  -3.590  0.00  0.00    +0.000 C 
ATOM     11  C   UNL     1      21.879 -13.416  -4.056  0.00  0.00    +0.000 C 
BRANCH  10  12
ATOM     12  O   UNL     1      20.725 -11.729  -2.809  0.00  0.00    +0.000 OA
ATOM     13  H   UNL     1      20.122 -11.178  -3.335  0.00  0.00    +0.000 HD
ENDBRANCH  10  12
ENDBRANCH   9  10
ENDBRANCH   1   9
BRANCH   1  14
ATOM     14  C   UNL     1      23.387  -9.199  -2.442  0.00  0.00    +0.000 C 
BRANCH  14  15
ATOM     15  C   UNL     1      24.564  -8.289  -2.016  0.00  0.00    +0.000 C 
ATOM     16  C   UNL     1      24.113  -7.018  -1.306  0.00  0.00    +0.000 C 
BRANCH  15  17
ATOM     17  O   UNL     1      25.476  -8.974  -1.158  0.00  0.00    +0.000 OA
ATOM     18  H   UNL     1      25.224  -9.917  -1.222  0.00  0.00    +0.000 HD
ENDBRANCH  15  17
ENDBRANCH  14  15
ENDBRANCH   1  14
TORSDOF 7
ENDMDL
MODEL 6
REMARK VINA RESULT:    -3.715      9.495     12.131
REMARK INTER + INTRA:          -5.441
REMARK INTER:                  -4.729
REMARK INTRA:                  -0.713
REMARK UNBOUND:                -0.424
REMARK  Name = 
REMARK  10 active torsions:
REMARK  status: ('A' for Active; 'I' for Inactive)
REMARK    1  A    between atoms: C_1  and  C_2
REMARK    2  A    between atoms: C_5  and  N_8
REMARK    3  A    between atoms: N_8  and  C_9
REMARK    4  A    between atoms: N_8  and  C_13
REMARK    5  A    between atoms: C_9  and  C_10
REMARK    6  A    between atoms: C_10  and  C_11
REMARK    7  A    between atoms: C_10  and  O_12
REMARK    8  A    between atoms: C_13  and  C_14
REMARK    9  A    between atoms: C_14  and  C_15
REMARK   10  A    between atoms: C_14  and  O_16
REMARK                            x       y       z     vdW  Elec       q    Type
REMARK                         _______ _______ _______ _____ _____    ______ ____
ROOT
ATOM      1  N   UNL     1      25.143  -7.513   4.984  0.00  0.00    +0.000 N 
ENDROOT
BRANCH   1   6
ATOM      2  C   UNL     1      22.817 -12.567   6.523  0.00  0.00    +0.000 C 
ATOM      3  C   UNL     1      23.401 -11.244   6.134  0.00  0.00    +0.000 A 
ATOM      4  C   UNL     1      23.142 -10.688   4.885  0.00  0.00    +0.000 A 
ATOM      5  C   UNL     1      23.717  -9.461   4.514  0.00  0.00    +0.000 A 
ATOM      6  C   UNL     1      24.589  -8.745   5.353  0.00  0.00    +0.000 A 
ATOM      7  C   UNL     1      24.827  -9.335   6.608  0.00  0.00    +0.000 A 
ATOM      8  C   UNL     1      24.257 -10.560   6.992  0.00  0.00    +0.000 A 
ENDBRANCH   1   6
BRANCH   1   9
ATOM      9  C   UNL     1      25.818  -6.667   5.999  0.00  0.00    +0.000 C 
BRANCH   9  10
ATOM     10  C   UNL     1      24.952  -5.465   6.450  0.00  0.00    +0.000 C 
ATOM     11  C   UNL     1      24.893  -5.376   7.970  0.00  0.00    +0.000 C 
BRANCH  10  12
ATOM     12  O   UNL     1      25.486  -4.231   5.953  0.00  0.00    +0.000 OA
ATOM     13  H   UNL     1      25.917  -4.410   5.100  0.00  0.00    +0.000 HD
ENDBRANCH  10  12
ENDBRANCH   9  10
ENDBRANCH   1   9
BRANCH   1  14
ATOM     14  C   UNL     1      24.664  -6.783   3.782  0.00  0.00    +0.000 C 
BRANCH  14  15
ATOM     15  C   UNL     1      25.832  -6.209   2.943  0.00  0.00    +0.000 C 
ATOM     16  C   UNL     1      25.835  -6.705   1.502  0.00  0.00    +0.000 C 
BRANCH  15  17
ATOM     17  O   UNL     1      25.811  -4.783   2.919  0.00  0.00    +0.000 OA
ATOM     18  H   UNL     1      25.747  -4.547   1.972  0.00  0.00    +0.000 HD
ENDBRANCH  15  17
ENDBRANCH  14  15
ENDBRANCH   1  14
TORSDOF 7
ENDMDL
MODEL 7
REMARK VINA RESULT:    -3.643      2.512      5.182
REMARK INTER + INTRA:          -5.345
REMARK INTER:                  -5.090
REMARK INTRA:                  -0.255
REMARK UNBOUND:                -0.424
REMARK  Name = 
REMARK  10 active torsions:
REMARK  status: ('A' for Active; 'I' for Inactive)
REMARK    1  A    between atoms: C_1  and  C_2
REMARK    2  A    between atoms: C_5  and  N_8
REMARK    3  A    between atoms: N_8  and  C_9
REMARK    4  A    between atoms: N_8  and  C_13
REMARK    5  A    between atoms: C_9  and  C_10
REMARK    6  A    between atoms: C_10  and  C_11
REMARK    7  A    between atoms: C_10  and  O_12
REMARK    8  A    between atoms: C_13  and  C_14
REMARK    9  A    between atoms: C_14  and  C_15
REMARK   10  A    between atoms: C_14  and  O_16
REMARK                            x       y       z     vdW  Elec       q    Type
REMARK                         _______ _______ _______ _____ _____    ______ ____
ROOT
ATOM      1  N   UNL     1      23.928 -10.859  -4.178  0.00  0.00    +0.000 N 
ENDROOT
BRANCH   1   6
ATOM      2  C   UNL     1      23.200 -10.142  -9.860  0.00  0.00    +0.000 C 
ATOM      3  C   UNL     1      23.412 -10.336  -8.390  0.00  0.00    +0.000 A 
ATOM      4  C   UNL     1      23.079 -11.536  -7.772  0.00  0.00    +0.000 A 
ATOM      5  C   UNL     1      23.252 -11.702  -6.388  0.00  0.00    +0.000 A 
ATOM      6  C   UNL     1      23.739 -10.680  -5.554  0.00  0.00    +0.000 A 
ATOM      7  C   UNL     1      24.068  -9.481  -6.213  0.00  0.00    +0.000 A 
ATOM      8  C   UNL     1      23.901  -9.302  -7.596  0.00  0.00    +0.000 A 
ENDBRANCH   1   6
BRANCH   1   9
ATOM      9  C   UNL     1      22.763 -10.850  -3.261  0.00  0.00    +0.000 C 
BRANCH   9  10
ATOM     10  C   UNL     1      21.925 -12.150  -3.342  0.00  0.00    +0.000 C 
ATOM     11  C   UNL     1      22.588 -13.275  -2.557  0.00  0.00    +0.000 C 
BRANCH  10  12
ATOM     12  O   UNL     1      20.610 -11.949  -2.806  0.00  0.00    +0.000 OA
ATOM     13  H   UNL     1      19.975 -12.396  -3.390  0.00  0.00    +0.000 HD
ENDBRANCH  10  12
ENDBRANCH   9  10
ENDBRANCH   1   9
BRANCH   1  14
ATOM     14  C   UNL     1      25.231 -10.554  -3.534  0.00  0.00    +0.000 C 
BRANCH  14  15
ATOM     15  C   UNL     1      25.094 -10.343  -2.007  0.00  0.00    +0.000 C 
ATOM     16  C   UNL     1      26.255 -10.931  -1.214  0.00  0.00    +0.000 C 
BRANCH  15  17
ATOM     17  O   UNL     1      24.985  -8.960  -1.673  0.00  0.00    +0.000 OA
ATOM     18  H   UNL     1      24.053  -8.728  -1.857  0.00  0.00    +0.000 HD
ENDBRANCH  15  17
ENDBRANCH  14  15
ENDBRANCH   1  14
TORSDOF 7
ENDMDL
MODEL 8
REMARK VINA RESULT:    -3.632      0.370      3.265
REMARK INTER + INTRA:          -5.329
REMARK INTER:                  -5.001
REMARK INTRA:                  -0.328
REMARK UNBOUND:                -0.424
REMARK  Name = 
REMARK  10 active torsions:
REMARK  status: ('A' for Active; 'I' for Inactive)
REMARK    1  A    between atoms: C_1  and  C_2
REMARK    2  A    between atoms: C_5  and  N_8
REMARK    3  A    between atoms: N_8  and  C_9
REMARK    4  A    between atoms: N_8  and  C_13
REMARK    5  A    between atoms: C_9  and  C_10
REMARK    6  A    between atoms: C_10  and  C_11
REMARK    7  A    between atoms: C_10  and  O_12
REMARK    8  A    between atoms: C_13  and  C_14
REMARK    9  A    between atoms: C_14  and  C_15
REMARK   10  A    between atoms: C_14  and  O_16
REMARK                            x       y       z     vdW  Elec       q    Type
REMARK                         _______ _______ _______ _____ _____    ______ ____
ROOT
ATOM      1  N   UNL     1      23.391 -11.352  -6.351  0.00  0.00    +0.000 N 
ENDROOT
BRANCH   1   6
ATOM      2  C   UNL     1      26.184 -10.375  -1.394  0.00  0.00    +0.000 C 
ATOM      3  C   UNL     1      25.455 -10.652  -2.673  0.00  0.00    +0.000 A 
ATOM      4  C   UNL     1      26.134 -11.105  -3.799  0.00  0.00    +0.000 A 
ATOM      5  C   UNL     1      25.450 -11.334  -5.004  0.00  0.00    +0.000 A 
ATOM      6  C   UNL     1      24.070 -11.102  -5.152  0.00  0.00    +0.000 A 
ATOM      7  C   UNL     1      23.416 -10.647  -3.993  0.00  0.00    +0.000 A 
ATOM      8  C   UNL     1      24.087 -10.416  -2.781  0.00  0.00    +0.000 A 
ENDBRANCH   1   6
BRANCH   1   9
ATOM      9  C   UNL     1      23.452 -10.367  -7.458  0.00  0.00    +0.000 C 
BRANCH   9  10
ATOM     10  C   UNL     1      23.886  -8.958  -6.985  0.00  0.00    +0.000 C 
ATOM     11  C   UNL     1      25.143  -8.501  -7.716  0.00  0.00    +0.000 C 
BRANCH  10  12
ATOM     12  O   UNL     1      22.854  -7.992  -7.230  0.00  0.00    +0.000 OA
ATOM     13  H   UNL     1      23.279  -7.142  -7.434  0.00  0.00    +0.000 HD
ENDBRANCH  10  12
ENDBRANCH   9  10
ENDBRANCH   1   9
BRANCH   1  14
ATOM     14  C   UNL     1      22.227 -12.274  -6.398  0.00  0.00    +0.000 C 
BRANCH  14  15
ATOM     15  C   UNL     1      21.526 -12.259  -7.778  0.00  0.00    +0.000 C 
ATOM     16  C   UNL     1      21.741 -13.540  -8.574  0.00  0.00    +0.000 C 
BRANCH  15  17
ATOM     17  O   UNL     1      20.120 -12.048  -7.652  0.00  0.00    +0.000 OA
ATOM     18  H   UNL     1      19.853 -12.581  -6.877  0.00  0.00    +0.000 HD
ENDBRANCH  15  17
ENDBRANCH  14  15
ENDBRANCH   1  14
TORSDOF 7
ENDMDL
