MODEL 1
REMARK VINA RESULT:    -3.915      0.000      0.000
REMARK INTER + INTRA:          -5.745
REMARK INTER:                  -5.288
REMARK INTRA:                  -0.457
REMARK UNBOUND:                -0.457
REMARK  Name = 
REMARK  10 active torsions:
REMARK  status: ('A' for Active; 'I' for Inactive)
REMARK    1  A    between atoms: C_1  and  C_2
REMARK    2  A    between atoms: C_5  and  N_8
REMARK    3  A    between atoms: N_8  and  C_9
REMARK    4  A    between atoms: N_8  and  C_13
REMARK    5  A    between atoms: C_9  and  C_10
REMARK    6  A    between atoms: C_10  and  C_11
REMARK    7  A    between atoms: C_10  and  O_12
REMARK    8  A    between atoms: C_13  and  C_14
REMARK    9  A    between atoms: C_14  and  C_15
REMARK   10  A    between atoms: C_14  and  O_16
REMARK                            x       y       z     vdW  Elec       q    Type
REMARK                         _______ _______ _______ _____ _____    ______ ____
ROOT
ATOM      1  N   UNL     1      25.128  -7.180   3.797  0.00  0.00    +0.000 N 
ENDROOT
BRANCH   1   6
ATOM      2  C   UNL     1      23.950  -3.445   8.039  0.00  0.00    +0.000 C 
ATOM      3  C   UNL     1      24.277  -4.402   6.933  0.00  0.00    +0.000 A 
ATOM      4  C   UNL     1      23.801  -4.191   5.643  0.00  0.00    +0.000 A 
ATOM      5  C   UNL     1      24.086  -5.107   4.617  0.00  0.00    +0.000 A 
ATOM      6  C   UNL     1      24.832  -6.281   4.829  0.00  0.00    +0.000 A 
ATOM      7  C   UNL     1      25.298  -6.460   6.144  0.00  0.00    +0.000 A 
ATOM      8  C   UNL     1      25.023  -5.551   7.179  0.00  0.00    +0.000 A 
ENDBRANCH   1   6
BRANCH   1   9
ATOM      9  C   UNL     1      26.172  -8.215   3.989  0.00  0.00    +0.000 C 
BRANCH   9  10
ATOM     10  C   UNL     1      25.589  -9.646   4.076  0.00  0.00    +0.000 C 
ATOM     11  C   UNL     1      24.124  -9.614   4.498  0.00  0.00    +0.000 C 
BRANCH  10  12
ATOM     12  O   UNL     1      25.671 -10.314   2.809  0.00  0.00    +0.000 OA
ATOM     13  H   UNL     1      26.512 -10.800   2.779  0.00  0.00    +0.000 HD
ENDBRANCH  10  12
ENDBRANCH   9  10
ENDBRANCH   1   9
BRANCH   1  14
ATOM     14  C   UNL     1      24.832  -6.848   2.380  0.00  0.00    +0.000 C 
BRANCH  14  15
ATOM     15  C   UNL     1      26.100  -6.420   1.602  0.00  0.00    +0.000 C 
ATOM     16  C   UNL     1      26.032  -6.749   0.116  0.00  0.00    +0.000 C 
BRANCH  15  17
ATOM     17  O   UNL     1      26.351  -5.021   1.734  0.00  0.00    +0.000 OA
ATOM     18  H   UNL     1      26.560  -4.890   2.681  0.00  0.00    +0.000 HD
ENDBRANCH  15  17
ENDBRANCH  14  15
ENDBRANCH   1  14
TORSDOF 7
ENDMDL
MODEL 2
REMARK VINA RESULT:    -3.788      8.503     11.272
REMARK INTER + INTRA:          -5.573
REMARK INTER:                  -5.147
REMARK INTRA:                  -0.426
REMARK UNBOUND:                -0.457
REMARK  Name = 
REMARK  10 active torsions:
REMARK  status: ('A' for Active; 'I' for Inactive)
REMARK    1  A    between atoms: C_1  and  C_2
REMARK    2  A    between atoms: C_5  and  N_8
REMARK    3  A    between atoms: N_8  and  C_9
REMARK    4  A    between atoms: N_8  and  C_13
REMARK    5  A    between atoms: C_9  and  C_10
REMARK    6  A    between atoms: C_10  and  C_11
REMARK    7  A    between atoms: C_10  and  O_12
REMARK    8  A    between atoms: C_13  and  C_14
REMARK    9  A    between atoms: C_14  and  C_15
REMARK   10  A    between atoms: C_14  and  O_16
REMARK                            x       y       z     vdW  Elec       q    Type
REMARK                         _______ _______ _______ _____ _____    ______ ____
ROOT
ATOM      1  N   UNL     1      23.377 -10.899  -6.313  0.00  0.00    +0.000 N 
ENDROOT
BRANCH   1   6
ATOM      2  C   UNL     1      26.281 -10.456  -1.343  0.00  0.00    +0.000 C 
ATOM      3  C   UNL     1      25.519 -10.593  -2.626  0.00  0.00    +0.000 A 
ATOM      4  C   UNL     1      26.118 -11.137  -3.757  0.00  0.00    +0.000 A 
ATOM      5  C   UNL     1      25.408 -11.236  -4.965  0.00  0.00    +0.000 A 
ATOM      6  C   UNL     1      24.085 -10.780  -5.110  0.00  0.00    +0.000 A 
ATOM      7  C   UNL     1      23.511 -10.238  -3.946  0.00  0.00    +0.000 A 
ATOM      8  C   UNL     1      24.209 -10.135  -2.731  0.00  0.00    +0.000 A 
ENDBRANCH   1   6
BRANCH   1   9
ATOM      9  C   UNL     1      22.592 -12.125  -6.595  0.00  0.00    +0.000 C 
BRANCH   9  10
ATOM     10  C   UNL     1      21.824 -12.051  -7.937  0.00  0.00    +0.000 C 
ATOM     11  C   UNL     1      22.118 -13.272  -8.801  0.00  0.00    +0.000 C 
BRANCH  10  12
ATOM     12  O   UNL     1      20.408 -11.992  -7.718  0.00  0.00    +0.000 OA
ATOM     13  H   UNL     1      19.990 -11.665  -8.532  0.00  0.00    +0.000 HD
ENDBRANCH  10  12
ENDBRANCH   9  10
ENDBRANCH   1   9
BRANCH   1  14
ATOM     14  C   UNL     1      23.763 -10.115  -7.514  0.00  0.00    +0.000 C 
BRANCH  14  15
ATOM     15  C   UNL     1      23.998  -8.621  -7.186  0.00  0.00    +0.000 C 
ATOM     16  C   UNL     1      25.092  -7.986  -8.035  0.00  0.00    +0.000 C 
BRANCH  15  17
ATOM     17  O   UNL     1      22.807  -7.852  -7.352  0.00  0.00    +0.000 OA
ATOM     18  H   UNL     1      22.701  -7.366  -6.509  0.00  0.00    +0.000 HD
ENDBRANCH  15  17
ENDBRANCH  14  15
ENDBRANCH   1  14
TORSDOF 7
ENDMDL
MODEL 3
REMARK VINA RESULT:    -3.762      0.955      3.359
REMARK INTER + INTRA:          -5.538
REMARK INTER:                  -5.051
REMARK INTRA:                  -0.487
REMARK UNBOUND:                -0.457
REMARK  Name = 
REMARK  10 active torsions:
REMARK  status: ('A' for Active; 'I' for Inactive)
REMARK    1  A    between atoms: C_1  and  C_2
REMARK    2  A    between atoms: C_5  and  N_8
REMARK    3  A    between atoms: N_8  and  C_9
REMARK    4  A    between atoms: N_8  and  C_13
REMARK    5  A    between atoms: C_9  and  C_10
REMARK    6  A    between atoms: C_10  and  C_11
REMARK    7  A    between atoms: C_10  and  O_12
REMARK    8  A    between atoms: C_13  and  C_14
REMARK    9  A    between atoms: C_14  and  C_15
REMARK   10  A    between atoms: C_14  and  O_16
REMARK                            x       y       z     vdW  Elec       q    Type
REMARK                         _______ _______ _______ _____ _____    ______ ____
ROOT
ATOM      1  N   UNL     1      25.496  -7.219   4.052  0.00  0.00    +0.000 N 
ENDROOT
BRANCH   1   6
ATOM      2  C   UNL     1      23.788  -3.457   8.084  0.00  0.00    +0.000 C 
ATOM      3  C   UNL     1      24.252  -4.420   7.034  0.00  0.00    +0.000 A 
ATOM      4  C   UNL     1      23.894  -4.251   5.701  0.00  0.00    +0.000 A 
ATOM      5  C   UNL     1      24.307  -5.173   4.726  0.00  0.00    +0.000 A 
ATOM      6  C   UNL     1      25.071  -6.314   5.032  0.00  0.00    +0.000 A 
ATOM      7  C   UNL     1      25.417  -6.452   6.389  0.00  0.00    +0.000 A 
ATOM      8  C   UNL     1      25.012  -5.535   7.374  0.00  0.00    +0.000 A 
ENDBRANCH   1   6
BRANCH   1   9
ATOM      9  C   UNL     1      25.103  -7.020   2.636  0.00  0.00    +0.000 C 
BRANCH   9  10
ATOM     10  C   UNL     1      26.268  -6.502   1.757  0.00  0.00    +0.000 C 
ATOM     11  C   UNL     1      26.160  -7.042   0.336  0.00  0.00    +0.000 C 
BRANCH  10  12
ATOM     12  O   UNL     1      26.264  -5.070   1.690  0.00  0.00    +0.000 OA
ATOM     13  H   UNL     1      25.627  -4.802   1.007  0.00  0.00    +0.000 HD
ENDBRANCH  10  12
ENDBRANCH   9  10
ENDBRANCH   1   9
BRANCH   1  14
ATOM     14  C   UNL     1      25.878  -8.611   4.404  0.00  0.00    +0.000 C 
BRANCH  14  15
ATOM     15  C   UNL     1      24.685  -9.590   4.292  0.00  0.00    +0.000 C 
ATOM     16  C   UNL     1      25.110 -11.018   3.968  0.00  0.00    +0.000 C 
BRANCH  15  17
ATOM     17  O   UNL     1      23.914  -9.621   5.492  0.00  0.00    +0.000 OA
ATOM     18  H   UNL     1      24.367 -10.270   6.067  0.00  0.00    +0.000 HD
ENDBRANCH  15  17
ENDBRANCH  14  15
ENDBRANCH   1  14
TORSDOF 7
ENDMDL
MODEL 4
REMARK VINA RESULT:    -3.752      6.207      8.556
REMARK INTER + INTRA:          -5.524
REMARK INTER:                  -5.069
REMARK INTRA:                  -0.455
REMARK UNBOUND:                -0.457
REMARK  Name = 
REMARK  10 active torsions:
REMARK  status: ('A' for Active; 'I' for Inactive)
REMARK    1  A    between atoms: C_1  and  C_2
REMARK    2  A    between atoms: C_5  and  N_8
REMARK    3  A    between atoms: N_8  and  C_9
REMARK    4  A    between atoms: N_8  and  C_13
REMARK    5  A    between atoms: C_9  and  C_10
REMARK    6  A    between atoms: C_10  and  C_11
REMARK    7  A    between atoms: C_10  and  O_12
REMARK    8  A    between atoms: C_13  and  C_14
REMARK    9  A    between atoms: C_14  and  C_15
REMARK   10  A    between atoms: C_14  and  O_16
REMARK                            x       y       z     vdW  Elec       q    Type
REMARK                         _______ _______ _______ _____ _____    ______ ____
ROOT
ATOM      1  N   UNL     1      24.058 -10.909  -3.312  0.00  0.00    +0.000 N 
ENDROOT
BRANCH   1   6
ATOM      2  C   UNL     1      26.319  -6.928   0.206  0.00  0.00    +0.000 C 
ATOM      3  C   UNL     1      25.747  -7.953  -0.726  0.00  0.00    +0.000 A 
ATOM      4  C   UNL     1      24.610  -7.679  -1.479  0.00  0.00    +0.000 A 
ATOM      5  C   UNL     1      24.061  -8.654  -2.327  0.00  0.00    +0.000 A 
ATOM      6  C   UNL     1      24.600  -9.948  -2.449  0.00  0.00    +0.000 A 
ATOM      7  C   UNL     1      25.749 -10.189  -1.674  0.00  0.00    +0.000 A 
ATOM      8  C   UNL     1      26.310  -9.222  -0.823  0.00  0.00    +0.000 A 
ENDBRANCH   1   6
BRANCH   1   9
ATOM      9  C   UNL     1      23.171 -11.971  -2.779  0.00  0.00    +0.000 C 
BRANCH   9  10
ATOM     10  C   UNL     1      21.838 -12.087  -3.558  0.00  0.00    +0.000 C 
ATOM     11  C   UNL     1      21.602 -13.519  -4.025  0.00  0.00    +0.000 C 
BRANCH  10  12
ATOM     12  O   UNL     1      20.727 -11.698  -2.739  0.00  0.00    +0.000 OA
ATOM     13  H   UNL     1      21.026 -10.990  -2.143  0.00  0.00    +0.000 HD
ENDBRANCH  10  12
ENDBRANCH   9  10
ENDBRANCH   1   9
BRANCH   1  14
ATOM     14  C   UNL     1      24.707 -11.230  -4.609  0.00  0.00    +0.000 C 
BRANCH  14  15
ATOM     15  C   UNL     1      24.230 -10.296  -5.747  0.00  0.00    +0.000 C 
ATOM     16  C   UNL     1      25.374  -9.756  -6.598  0.00  0.00    +0.000 C 
BRANCH  15  17
ATOM     17  O   UNL     1      23.306 -10.951  -6.615  0.00  0.00    +0.000 OA
ATOM     18  H   UNL     1      22.436 -10.851  -6.179  0.00  0.00    +0.000 HD
ENDBRANCH  15  17
ENDBRANCH  14  15
ENDBRANCH   1  14
TORSDOF 7
ENDMDL
MODEL 5
REMARK VINA RESULT:    -3.748      1.969      3.734
REMARK INTER + INTRA:          -5.520
REMARK INTER:                  -5.058
REMARK INTRA:                  -0.462
REMARK UNBOUND:                -0.457
REMARK  Name = 
REMARK  10 active torsions:
REMARK  status: ('A' for Active; 'I' for Inactive)
REMARK    1  A    between atoms: C_1  and  C_2
REMARK    2  A    between atoms: C_5  and  N_8
REMARK    3  A    between atoms: N_8  and  C_9
REMARK    4  A    between atoms: N_8  and  C_13
REMARK    5  A    between atoms: C_9  and  C_10
REMARK    6  A    between atoms: C_10  and  C_11
REMARK    7  A    between atoms: C_10  and  O_12
REMARK    8  A    between atoms: C_13  and  C_14
REMARK    9  A    between atoms: C_14  and  C_15
REMARK   10  A    between atoms: C_14  and  O_16
REMARK                            x       y       z     vdW  Elec       q    Type
REMARK                         _______ _______ _______ _____ _____    ______ ____
ROOT
ATOM      1  N   UNL     1      25.406  -6.117   4.665  0.00  0.00    +0.000 N 
ENDROOT
BRANCH   1   6
ATOM      2  C   UNL     1      25.144  -8.459   9.935  0.00  0.00    +0.000 C 
ATOM      3  C   UNL     1      25.187  -7.850   8.567  0.00  0.00    +0.000 A 
ATOM      4  C   UNL     1      25.172  -8.648   7.428  0.00  0.00    +0.000 A 
ATOM      5  C   UNL     1      25.242  -8.073   6.149  0.00  0.00    +0.000 A 
ATOM      6  C   UNL     1      25.355  -6.686   5.944  0.00  0.00    +0.000 A 
ATOM      7  C   UNL     1      25.366  -5.909   7.117  0.00  0.00    +0.000 A 
ATOM      8  C   UNL     1      25.293  -6.472   8.402  0.00  0.00    +0.000 A 
ENDBRANCH   1   6
BRANCH   1   9
ATOM      9  C   UNL     1      26.351  -6.647   3.653  0.00  0.00    +0.000 C 
BRANCH   9  10
ATOM     10  C   UNL     1      25.648  -7.081   2.343  0.00  0.00    +0.000 C 
ATOM     11  C   UNL     1      26.337  -6.473   1.127  0.00  0.00    +0.000 C 
BRANCH  10  12
ATOM     12  O   UNL     1      25.667  -8.508   2.198  0.00  0.00    +0.000 OA
ATOM     13  H   UNL     1      26.505  -8.756   1.775  0.00  0.00    +0.000 HD
ENDBRANCH  10  12
ENDBRANCH   9  10
ENDBRANCH   1   9
BRANCH   1  14
ATOM     14  C   UNL     1      24.948  -4.725   4.423  0.00  0.00    +0.000 C 
BRANCH  14  15
ATOM     15  C   UNL     1      23.406  -4.601   4.464  0.00  0.00    +0.000 C 
ATOM     16  C   UNL     1      22.913  -3.590   5.493  0.00  0.00    +0.000 C 
BRANCH  15  17
ATOM     17  O   UNL     1      22.873  -4.234   3.193  0.00  0.00    +0.000 OA
ATOM     18  H   UNL     1      23.448  -4.680   2.539  0.00  0.00    +0.000 HD
ENDBRANCH  15  17
ENDBRANCH  14  15
ENDBRANCH   1  14
TORSDOF 7
ENDMDL
MODEL 6
REMARK VINA RESULT:    -3.727      8.022     11.855
REMARK INTER + INTRA:          -5.491
REMARK INTER:                  -4.996
REMARK INTRA:                  -0.495
REMARK UNBOUND:                -0.457
REMARK  Name = 
REMARK  10 active torsions:
REMARK  status: ('A' for Active; 'I' for Inactive)
REMARK    1  A    between atoms: C_1  and  C_2
REMARK    2  A    between atoms: C_5  and  N_8
REMARK    3  A    between atoms: N_8  and  C_9
REMARK    4  A    between atoms: N_8  and  C_13
REMARK    5  A    between atoms: C_9  and  C_10
REMARK    6  A    between atoms: C_10  and  C_11
REMARK    7  A    between atoms: C_10  and  O_12
REMARK    8  A    between atoms: C_13  and  C_14
REMARK    9  A    between atoms: C_14  and  C_15
REMARK   10  A    between atoms: C_14  and  O_16
REMARK                            x       y       z     vdW  Elec       q    Type
REMARK                         _______ _______ _______ _____ _____    ______ ____
ROOT
ATOM      1  N   UNL     1      23.760 -10.730  -4.533  0.00  0.00    +0.000 N 
ENDROOT
BRANCH   1   6
ATOM      2  C   UNL     1      23.820 -10.321 -10.292  0.00  0.00    +0.000 C 
ATOM      3  C   UNL     1      23.780 -10.429  -8.798  0.00  0.00    +0.000 A 
ATOM      4  C   UNL     1      23.696  -9.292  -8.001  0.00  0.00    +0.000 A 
ATOM      5  C   UNL     1      23.689  -9.398  -6.601  0.00  0.00    +0.000 A 
ATOM      6  C   UNL     1      23.788 -10.630  -5.930  0.00  0.00    +0.000 A 
ATOM      7  C   UNL     1      23.869 -11.759  -6.767  0.00  0.00    +0.000 A 
ATOM      8  C   UNL     1      23.875 -11.667  -8.169  0.00  0.00    +0.000 A 
ENDBRANCH   1   6
BRANCH   1   9
ATOM      9  C   UNL     1      24.611  -9.839  -3.708  0.00  0.00    +0.000 C 
BRANCH   9  10
ATOM     10  C   UNL     1      23.870  -9.283  -2.467  0.00  0.00    +0.000 C 
ATOM     11  C   UNL     1      24.702  -8.213  -1.769  0.00  0.00    +0.000 C 
BRANCH  10  12
ATOM     12  O   UNL     1      22.614  -8.698  -2.837  0.00  0.00    +0.000 OA
ATOM     13  H   UNL     1      22.132  -8.478  -2.022  0.00  0.00    +0.000 HD
ENDBRANCH  10  12
ENDBRANCH   9  10
ENDBRANCH   1   9
BRANCH   1  14
ATOM     14  C   UNL     1      23.330 -11.982  -3.860  0.00  0.00    +0.000 C 
BRANCH  14  15
ATOM     15  C   UNL     1      21.809 -12.230  -4.005  0.00  0.00    +0.000 C 
ATOM     16  C   UNL     1      21.478 -13.604  -4.576  0.00  0.00    +0.000 C 
BRANCH  15  17
ATOM     17  O   UNL     1      21.132 -12.096  -2.757  0.00  0.00    +0.000 OA
ATOM     18  H   UNL     1      21.840 -11.932  -2.101  0.00  0.00    +0.000 HD
ENDBRANCH  15  17
ENDBRANCH  14  15
ENDBRANCH   1  14
TORSDOF 7
ENDMDL
MODEL 7
REMARK VINA RESULT:    -3.713     11.462     13.371
REMARK INTER + INTRA:          -5.473
REMARK INTER:                  -4.967
REMARK INTRA:                  -0.505
REMARK UNBOUND:                -0.457
REMARK  Name = 
REMARK  10 active torsions:
REMARK  status: ('A' for Active; 'I' for Inactive)
REMARK    1  A    between atoms: C_1  and  C_2
REMARK    2  A    between atoms: C_5  and  N_8
REMARK    3  A    between atoms: N_8  and  C_9
REMARK    4  A    between atoms: N_8  and  C_13
REMARK    5  A    between atoms: C_9  and  C_10
REMARK    6  A    between atoms: C_10  and  C_11
REMARK    7  A    between atoms: C_10  and  O_12
REMARK    8  A    between atoms: C_13  and  C_14
REMARK    9  A    between atoms: C_14  and  C_15
REMARK   10  A    between atoms: C_14  and  O_16
REMARK                            x       y       z     vdW  Elec       q    Type
REMARK                         _______ _______ _______ _____ _____    ______ ____
ROOT
ATOM      1  N   UNL     1      23.588 -10.577  -8.240  0.00  0.00    +0.000 N 
ENDROOT
BRANCH   1   6
ATOM      2  C   UNL     1      21.647 -13.605  -3.723  0.00  0.00    +0.000 C 
ATOM      3  C   UNL     1      22.137 -12.800  -4.888  0.00  0.00    +0.000 A 
ATOM      4  C   UNL     1      21.499 -12.868  -6.122  0.00  0.00    +0.000 A 
ATOM      5  C   UNL     1      21.980 -12.135  -7.219  0.00  0.00    +0.000 A 
ATOM      6  C   UNL     1      23.125 -11.321  -7.147  0.00  0.00    +0.000 A 
ATOM      7  C   UNL     1      23.743 -11.275  -5.884  0.00  0.00    +0.000 A 
ATOM      8  C   UNL     1      23.271 -12.001  -4.779  0.00  0.00    +0.000 A 
ENDBRANCH   1   6
BRANCH   1   9
ATOM      9  C   UNL     1      23.055  -9.217  -8.492  0.00  0.00    +0.000 C 
BRANCH   9  10
ATOM     10  C   UNL     1      23.763  -8.129  -7.646  0.00  0.00    +0.000 C 
ATOM     11  C   UNL     1      25.219  -7.973  -8.067  0.00  0.00    +0.000 C 
BRANCH  10  12
ATOM     12  O   UNL     1      23.117  -6.858  -7.799  0.00  0.00    +0.000 OA
ATOM     13  H   UNL     1      22.288  -6.997  -8.286  0.00  0.00    +0.000 HD
ENDBRANCH  10  12
ENDBRANCH   9  10
ENDBRANCH   1   9
BRANCH   1  14
ATOM     14  C   UNL     1      24.186 -11.243  -9.425  0.00  0.00    +0.000 C 
BRANCH  14  15
ATOM     15  C   UNL     1      24.136 -10.347 -10.686  0.00  0.00    +0.000 C 
ATOM     16  C   UNL     1      25.511 -10.074 -11.283  0.00  0.00    +0.000 C 
BRANCH  15  17
ATOM     17  O   UNL     1      23.316 -10.916 -11.705  0.00  0.00    +0.000 OA
ATOM     18  H   UNL     1      23.470 -10.358 -12.494  0.00  0.00    +0.000 HD
ENDBRANCH  15  17
ENDBRANCH  14  15
ENDBRANCH   1  14
TORSDOF 7
ENDMDL
MODEL 8
REMARK VINA RESULT:    -3.677      1.983      4.668
REMARK INTER + INTRA:          -5.423
REMARK INTER:                  -4.696
REMARK INTRA:                  -0.727
REMARK UNBOUND:                -0.457
REMARK  Name = 
REMARK  10 active torsions:
REMARK  status: ('A' for Active; 'I' for Inactive)
REMARK    1  A    between atoms: C_1  and  C_2
REMARK    2  A    between atoms: C_5  and  N_8
REMARK    3  A    between atoms: N_8  and  C_9
REMARK    4  A    between atoms: N_8  and  C_13
REMARK    5  A    between atoms: C_9  and  C_10
REMARK    6  A    between atoms: C_10  and  C_11
REMARK    7  A    between atoms: C_10  and  O_12
REMARK    8  A    between atoms: C_13  and  C_14
REMARK    9  A    between atoms: C_14  and  C_15
REMARK   10  A    between atoms: C_14  and  O_16
REMARK                            x       y       z     vdW  Elec       q    Type
REMARK                         _______ _______ _______ _____ _____    ______ ____
ROOT
ATOM      1  N   UNL     1      25.170  -7.535   4.889  0.00  0.00    +0.000 N 
ENDROOT
BRANCH   1   6
ATOM      2  C   UNL     1      22.746 -12.505   6.550  0.00  0.00    +0.000 C 
ATOM      3  C   UNL     1      23.356 -11.203   6.129  0.00  0.00    +0.000 A 
ATOM      4  C   UNL     1      23.096 -10.665   4.873  0.00  0.00    +0.000 A 
ATOM      5  C   UNL     1      23.695  -9.460   4.472  0.00  0.00    +0.000 A 
ATOM      6  C   UNL     1      24.592  -8.747   5.288  0.00  0.00    +0.000 A 
ATOM      7  C   UNL     1      24.830  -9.319   6.552  0.00  0.00    +0.000 A 
ATOM      8  C   UNL     1      24.236 -10.523   6.966  0.00  0.00    +0.000 A 
ENDBRANCH   1   6
BRANCH   1   9
ATOM      9  C   UNL     1      25.856  -6.676   5.884  0.00  0.00    +0.000 C 
BRANCH   9  10
ATOM     10  C   UNL     1      24.967  -5.514   6.388  0.00  0.00    +0.000 C 
ATOM     11  C   UNL     1      24.948  -5.463   7.911  0.00  0.00    +0.000 C 
BRANCH  10  12
ATOM     12  O   UNL     1      25.449  -4.251   5.908  0.00  0.00    +0.000 OA
ATOM     13  H   UNL     1      25.574  -4.322   4.947  0.00  0.00    +0.000 HD
ENDBRANCH  10  12
ENDBRANCH   9  10
ENDBRANCH   1   9
BRANCH   1  14
ATOM     14  C   UNL     1      24.709  -6.829   3.667  0.00  0.00    +0.000 C 
BRANCH  14  15
ATOM     15  C   UNL     1      25.884  -6.223   2.863  0.00  0.00    +0.000 C 
ATOM     16  C   UNL     1      25.917  -6.683   1.411  0.00  0.00    +0.000 C 
BRANCH  15  17
ATOM     17  O   UNL     1      25.851  -4.797   2.874  0.00  0.00    +0.000 OA
ATOM     18  H   UNL     1      26.592  -4.522   2.297  0.00  0.00    +0.000 HD
ENDBRANCH  15  17
ENDBRANCH  14  15
ENDBRANCH   1  14
TORSDOF 7
ENDMDL
MODEL 9
REMARK VINA RESULT:    -3.588      1.786      4.526
REMARK INTER + INTRA:          -5.303
REMARK INTER:                  -4.589
REMARK INTRA:                  -0.714
REMARK UNBOUND:                -0.457
REMARK  Name = 
REMARK  10 active torsions:
REMARK  status: ('A' for Active; 'I' for Inactive)
REMARK    1  A    between atoms: C_1  and  C_2
REMARK    2  A    between atoms: C_5  and  N_8
REMARK    3  A    between atoms: N_8  and  C_9
REMARK    4  A    between atoms: N_8  and  C_13
REMARK    5  A    between atoms: C_9  and  C_10
REMARK    6  A    between atoms: C_10  and  C_11
REMARK    7  A    between atoms: C_10  and  O_12
REMARK    8  A    between atoms: C_13  and  C_14
REMARK    9  A    between atoms: C_14  and  C_15
REMARK   10  A    between atoms: C_14  and  O_16
REMARK                            x       y       z     vdW  Elec       q    Type
REMARK                         _______ _______ _______ _____ _____    ______ ____
ROOT
ATOM      1  N   UNL     1      25.535  -7.298   4.071  0.00  0.00    +0.000 N 
ENDROOT
BRANCH   1   6
ATOM      2  C   UNL     1      23.503 -11.694   7.213  0.00  0.00    +0.000 C 
ATOM      3  C   UNL     1      24.012 -10.539   6.406  0.00  0.00    +0.000 A 
ATOM      4  C   UNL     1      23.628 -10.371   5.080  0.00  0.00    +0.000 A 
ATOM      5  C   UNL     1      24.131  -9.304   4.318  0.00  0.00    +0.000 A 
ATOM      6  C   UNL     1      25.053  -8.372   4.830  0.00  0.00    +0.000 A 
ATOM      7  C   UNL     1      25.416  -8.571   6.174  0.00  0.00    +0.000 A 
ATOM      8  C   UNL     1      24.919  -9.633   6.947  0.00  0.00    +0.000 A 
ENDBRANCH   1   6
BRANCH   1   9
ATOM      9  C   UNL     1      26.329  -7.552   2.844  0.00  0.00    +0.000 C 
BRANCH   9  10
ATOM     10  C   UNL     1      25.902  -6.655   1.657  0.00  0.00    +0.000 C 
ATOM     11  C   UNL     1      26.351  -7.257   0.330  0.00  0.00    +0.000 C 
BRANCH  10  12
ATOM     12  O   UNL     1      24.476  -6.501   1.615  0.00  0.00    +0.000 OA
ATOM     13  H   UNL     1      24.277  -5.550   1.596  0.00  0.00    +0.000 HD
ENDBRANCH  10  12
ENDBRANCH   9  10
ENDBRANCH   1   9
BRANCH   1  14
ATOM     14  C   UNL     1      25.735  -5.957   4.676  0.00  0.00    +0.000 C 
BRANCH  14  15
ATOM     15  C   UNL     1      24.395  -5.221   4.920  0.00  0.00    +0.000 C 
ATOM     16  C   UNL     1      24.449  -4.249   6.093  0.00  0.00    +0.000 C 
BRANCH  15  17
ATOM     17  O   UNL     1      23.974  -4.496   3.765  0.00  0.00    +0.000 OA
ATOM     18  H   UNL     1      23.268  -3.898   4.086  0.00  0.00    +0.000 HD
ENDBRANCH  15  17
ENDBRANCH  14  15
ENDBRANCH   1  14
TORSDOF 7
ENDMDL
