MODEL 1
REMARK VINA RESULT:    -4.972      0.000      0.000
REMARK INTER + INTRA:          -5.445
REMARK INTER:                  -5.408
REMARK INTRA:                  -0.037
REMARK UNBOUND:                -0.037
REMARK  Name = 
REMARK  3 active torsions:
REMARK  status: ('A' for Active; 'I' for Inactive)
REMARK    1  A    between atoms: C_1  and  O_2
REMARK    2  A    between atoms: O_2  and  C_3
REMARK    3  A    between atoms: C_8  and  O_9
REMARK                            x       y       z     vdW  Elec       q    Type
REMARK                         _______ _______ _______ _____ _____    ______ ____
ROOT
ATOM      1  C   UNL     1       1.153  -4.628   3.255  0.00  0.00    +0.000 A 
ATOM      2  C   UNL     1       0.557  -4.005   2.159  0.00  0.00    +0.000 A 
ATOM      3  C   UNL     1      -0.787  -4.257   1.857  0.00  0.00    +0.000 A 
ATOM      4  C   UNL     1      -1.539  -5.129   2.646  0.00  0.00    +0.000 A 
ATOM      5  C   UNL     1      -0.951  -5.755   3.743  0.00  0.00    +0.000 A 
ATOM      6  C   UNL     1       0.383  -5.500   4.035  0.00  0.00    +0.000 A 
ENDROOT
BRANCH   1   8
ATOM      7  C   UNL     1       3.442  -5.162   2.908  0.00  0.00    +0.000 C 
ATOM      8  O   UNL     1       2.453  -4.476   3.666  0.00  0.00    +0.000 OA
ENDBRANCH   1   8
BRANCH   6   9
ATOM      9  O   UNL     1       0.939  -6.127   5.118  0.00  0.00    +0.000 OA
ATOM     10  H   UNL     1       1.847  -5.772   5.171  0.00  0.00    +0.000 HD
ENDBRANCH   6   9
TORSDOF 2
ENDMDL
MODEL 2
REMARK VINA RESULT:    -4.589      1.757      2.368
REMARK INTER + INTRA:          -5.028
REMARK INTER:                  -4.980
REMARK INTRA:                  -0.048
REMARK UNBOUND:                -0.037
REMARK  Name = 
REMARK  3 active torsions:
REMARK  status: ('A' for Active; 'I' for Inactive)
REMARK    1  A    between atoms: C_1  and  O_2
REMARK    2  A    between atoms: O_2  and  C_3
REMARK    3  A    between atoms: C_8  and  O_9
REMARK                            x       y       z     vdW  Elec       q    Type
REMARK                         _______ _______ _______ _____ _____    ______ ____
ROOT
ATOM      1  C   UNL     1       2.169  -5.369   3.305  0.00  0.00    +0.000 A 
ATOM      2  C   UNL     1       1.357  -5.122   4.411  0.00  0.00    +0.000 A 
ATOM      3  C   UNL     1      -0.018  -5.378   4.341  0.00  0.00    +0.000 A 
ATOM      4  C   UNL     1      -0.586  -5.878   3.168  0.00  0.00    +0.000 A 
ATOM      5  C   UNL     1       0.218  -6.127   2.058  0.00  0.00    +0.000 A 
ATOM      6  C   UNL     1       1.581  -5.870   2.137  0.00  0.00    +0.000 A 
ENDROOT
BRANCH   1   8
ATOM      7  C   UNL     1       3.961  -3.814   3.168  0.00  0.00    +0.000 C 
ATOM      8  O   UNL     1       3.524  -5.166   3.232  0.00  0.00    +0.000 OA
ENDBRANCH   1   8
BRANCH   6   9
ATOM      9  O   UNL     1       2.352  -6.123   1.033  0.00  0.00    +0.000 OA
ATOM     10  H   UNL     1       2.266  -5.322   0.482  0.00  0.00    +0.000 HD
ENDBRANCH   6   9
TORSDOF 2
ENDMDL
MODEL 3
REMARK VINA RESULT:    -4.565      0.971      2.186
REMARK INTER + INTRA:          -5.003
REMARK INTER:                  -4.968
REMARK INTRA:                  -0.035
REMARK UNBOUND:                -0.037
REMARK  Name = 
REMARK  3 active torsions:
REMARK  status: ('A' for Active; 'I' for Inactive)
REMARK    1  A    between atoms: C_1  and  O_2
REMARK    2  A    between atoms: O_2  and  C_3
REMARK    3  A    between atoms: C_8  and  O_9
REMARK                            x       y       z     vdW  Elec       q    Type
REMARK                         _______ _______ _______ _____ _____    ______ ____
ROOT
ATOM      1  C   UNL     1       1.280  -4.829   3.341  0.00  0.00    +0.000 A 
ATOM      2  C   UNL     1       0.562  -5.959   3.731  0.00  0.00    +0.000 A 
ATOM      3  C   UNL     1      -0.773  -6.111   3.334  0.00  0.00    +0.000 A 
ATOM      4  C   UNL     1      -1.393  -5.138   2.549  0.00  0.00    +0.000 A 
ATOM      5  C   UNL     1      -0.683  -4.007   2.155  0.00  0.00    +0.000 A 
ATOM      6  C   UNL     1       0.640  -3.864   2.553  0.00  0.00    +0.000 A 
ENDROOT
BRANCH   1   8
ATOM      7  C   UNL     1       3.580  -5.257   2.924  0.00  0.00    +0.000 C 
ATOM      8  O   UNL     1       2.585  -4.549   3.655  0.00  0.00    +0.000 OA
ENDBRANCH   1   8
BRANCH   6   9
ATOM      9  O   UNL     1       1.318  -2.743   2.154  0.00  0.00    +0.000 OA
ATOM     10  H   UNL     1       1.575  -2.924   1.229  0.00  0.00    +0.000 HD
ENDBRANCH   6   9
TORSDOF 2
ENDMDL
MODEL 4
REMARK VINA RESULT:    -4.545      2.148      3.910
REMARK INTER + INTRA:          -4.980
REMARK INTER:                  -4.942
REMARK INTRA:                  -0.038
REMARK UNBOUND:                -0.037
REMARK  Name = 
REMARK  3 active torsions:
REMARK  status: ('A' for Active; 'I' for Inactive)
REMARK    1  A    between atoms: C_1  and  O_2
REMARK    2  A    between atoms: O_2  and  C_3
REMARK    3  A    between atoms: C_8  and  O_9
REMARK                            x       y       z     vdW  Elec       q    Type
REMARK                         _______ _______ _______ _____ _____    ______ ____
ROOT
ATOM      1  C   UNL     1      -0.783  -5.124   2.807  0.00  0.00    +0.000 A 
ATOM      2  C   UNL     1      -0.039  -6.124   3.432  0.00  0.00    +0.000 A 
ATOM      3  C   UNL     1       1.338  -5.955   3.626  0.00  0.00    +0.000 A 
ATOM      4  C   UNL     1       1.975  -4.789   3.197  0.00  0.00    +0.000 A 
ATOM      5  C   UNL     1       1.238  -3.785   2.572  0.00  0.00    +0.000 A 
ATOM      6  C   UNL     1      -0.127  -3.962   2.383  0.00  0.00    +0.000 A 
ENDROOT
BRANCH   1   8
ATOM      7  C   UNL     1      -2.889  -6.127   3.263  0.00  0.00    +0.000 C 
ATOM      8  O   UNL     1      -2.130  -5.155   2.552  0.00  0.00    +0.000 OA
ENDBRANCH   1   8
BRANCH   6   9
ATOM      9  O   UNL     1      -0.829  -2.961   1.767  0.00  0.00    +0.000 OA
ATOM     10  H   UNL     1      -1.757  -3.110   2.031  0.00  0.00    +0.000 HD
ENDBRANCH   6   9
TORSDOF 2
ENDMDL
MODEL 5
REMARK VINA RESULT:    -4.145     24.468     25.511
REMARK INTER + INTRA:          -4.546
REMARK INTER:                  -4.496
REMARK INTRA:                  -0.050
REMARK UNBOUND:                -0.037
REMARK  Name = 
REMARK  3 active torsions:
REMARK  status: ('A' for Active; 'I' for Inactive)
REMARK    1  A    between atoms: C_1  and  O_2
REMARK    2  A    between atoms: O_2  and  C_3
REMARK    3  A    between atoms: C_8  and  O_9
REMARK                            x       y       z     vdW  Elec       q    Type
REMARK                         _______ _______ _______ _____ _____    ______ ____
ROOT
ATOM      1  C   UNL     1      -1.544  11.660 -15.924  0.00  0.00    +0.000 A 
ATOM      2  C   UNL     1      -1.057  10.877 -16.970  0.00  0.00    +0.000 A 
ATOM      3  C   UNL     1       0.232  10.334 -16.896  0.00  0.00    +0.000 A 
ATOM      4  C   UNL     1       1.038  10.572 -15.781  0.00  0.00    +0.000 A 
ATOM      5  C   UNL     1       0.558  11.353 -14.732  0.00  0.00    +0.000 A 
ATOM      6  C   UNL     1      -0.722  11.887 -14.814  0.00  0.00    +0.000 A 
ENDROOT
BRANCH   1   8
ATOM      7  C   UNL     1      -3.137  13.089 -16.956  0.00  0.00    +0.000 C 
ATOM      8  O   UNL     1      -2.779  12.252 -15.862  0.00  0.00    +0.000 OA
ENDBRANCH   1   8
BRANCH   6   9
ATOM      9  O   UNL     1      -1.171  12.652 -13.770  0.00  0.00    +0.000 OA
ATOM     10  H   UNL     1      -1.630  12.023 -13.181  0.00  0.00    +0.000 HD
ENDBRANCH   6   9
TORSDOF 2
ENDMDL
MODEL 6
REMARK VINA RESULT:    -4.098     25.448     26.681
REMARK INTER + INTRA:          -4.495
REMARK INTER:                  -4.457
REMARK INTRA:                  -0.038
REMARK UNBOUND:                -0.037
REMARK  Name = 
REMARK  3 active torsions:
REMARK  status: ('A' for Active; 'I' for Inactive)
REMARK    1  A    between atoms: C_1  and  O_2
REMARK    2  A    between atoms: O_2  and  C_3
REMARK    3  A    between atoms: C_8  and  O_9
REMARK                            x       y       z     vdW  Elec       q    Type
REMARK                         _______ _______ _______ _____ _____    ______ ____
ROOT
ATOM      1  C   UNL     1      11.593   9.716 -15.524  0.00  0.00    +0.000 A 
ATOM      2  C   UNL     1      12.550  10.727 -15.457  0.00  0.00    +0.000 A 
ATOM      3  C   UNL     1      12.257  12.002 -15.959  0.00  0.00    +0.000 A 
ATOM      4  C   UNL     1      11.011  12.269 -16.528  0.00  0.00    +0.000 A 
ATOM      5  C   UNL     1      10.049  11.263 -16.598  0.00  0.00    +0.000 A 
ATOM      6  C   UNL     1      10.349  10.002 -16.098  0.00  0.00    +0.000 A 
ENDROOT
BRANCH   1   8
ATOM      7  C   UNL     1      12.870   8.170 -14.247  0.00  0.00    +0.000 C 
ATOM      8  O   UNL     1      11.742   8.428 -15.075  0.00  0.00    +0.000 OA
ENDBRANCH   1   8
BRANCH   6   9
ATOM      9  O   UNL     1       9.387   9.030 -16.178  0.00  0.00    +0.000 OA
ATOM     10  H   UNL     1       8.699   9.309 -15.544  0.00  0.00    +0.000 HD
ENDBRANCH   6   9
TORSDOF 2
ENDMDL
MODEL 7
REMARK VINA RESULT:    -4.005     26.174     27.223
REMARK INTER + INTRA:          -4.393
REMARK INTER:                  -4.345
REMARK INTRA:                  -0.048
REMARK UNBOUND:                -0.037
REMARK  Name = 
REMARK  3 active torsions:
REMARK  status: ('A' for Active; 'I' for Inactive)
REMARK    1  A    between atoms: C_1  and  O_2
REMARK    2  A    between atoms: O_2  and  C_3
REMARK    3  A    between atoms: C_8  and  O_9
REMARK                            x       y       z     vdW  Elec       q    Type
REMARK                         _______ _______ _______ _____ _____    ______ ____
ROOT
ATOM      1  C   UNL     1      10.242  11.207 -16.434  0.00  0.00    +0.000 A 
ATOM      2  C   UNL     1      11.061  12.335 -16.447  0.00  0.00    +0.000 A 
ATOM      3  C   UNL     1      12.330  12.285 -15.858  0.00  0.00    +0.000 A 
ATOM      4  C   UNL     1      12.785  11.111 -15.254  0.00  0.00    +0.000 A 
ATOM      5  C   UNL     1      11.973   9.980 -15.237  0.00  0.00    +0.000 A 
ATOM      6  C   UNL     1      10.715  10.038 -15.824  0.00  0.00    +0.000 A 
ENDROOT
BRANCH   1   8
ATOM      7  C   UNL     1       8.071  12.152 -16.635  0.00  0.00    +0.000 C 
ATOM      8  O   UNL     1       8.983  11.112 -16.970  0.00  0.00    +0.000 OA
ENDBRANCH   1   8
BRANCH   6   9
ATOM      9  O   UNL     1       9.935   8.913 -15.795  0.00  0.00    +0.000 OA
ATOM     10  H   UNL     1       9.451   8.968 -14.949  0.00  0.00    +0.000 HD
ENDBRANCH   6   9
TORSDOF 2
ENDMDL
MODEL 8
REMARK VINA RESULT:    -3.794     24.378     24.969
REMARK INTER + INTRA:          -4.164
REMARK INTER:                  -4.200
REMARK INTRA:                   0.036
REMARK UNBOUND:                -0.037
REMARK  Name = 
REMARK  3 active torsions:
REMARK  status: ('A' for Active; 'I' for Inactive)
REMARK    1  A    between atoms: C_1  and  O_2
REMARK    2  A    between atoms: O_2  and  C_3
REMARK    3  A    between atoms: C_8  and  O_9
REMARK                            x       y       z     vdW  Elec       q    Type
REMARK                         _______ _______ _______ _____ _____    ______ ____
ROOT
ATOM      1  C   UNL     1       0.265  10.787 -15.866  0.00  0.00    +0.000 A 
ATOM      2  C   UNL     1      -0.564  10.590 -16.970  0.00  0.00    +0.000 A 
ATOM      3  C   UNL     1      -1.866  11.108 -16.969  0.00  0.00    +0.000 A 
ATOM      4  C   UNL     1      -2.343  11.822 -15.868  0.00  0.00    +0.000 A 
ATOM      5  C   UNL     1      -1.520  12.023 -14.762  0.00  0.00    +0.000 A 
ATOM      6  C   UNL     1      -0.231  11.506 -14.771  0.00  0.00    +0.000 A 
ENDROOT
BRANCH   1   8
ATOM      7  C   UNL     1       2.579  11.195 -16.221  0.00  0.00    +0.000 C 
ATOM      8  O   UNL     1       1.554  10.339 -15.730  0.00  0.00    +0.000 OA
ENDBRANCH   1   8
BRANCH   6   9
ATOM      9  O   UNL     1       0.558  11.717 -13.673  0.00  0.00    +0.000 OA
ATOM     10  H   UNL     1       0.246  11.067 -13.014  0.00  0.00    +0.000 HD
ENDBRANCH   6   9
TORSDOF 2
ENDMDL
