MODEL 1
REMARK VINA RESULT:    -4.457      0.000      0.000
REMARK INTER + INTRA:          -6.661
REMARK INTER:                  -6.020
REMARK INTRA:                  -0.641
REMARK UNBOUND:                -0.641
REMARK  Name = 
REMARK  10 active torsions:
REMARK  status: ('A' for Active; 'I' for Inactive)
REMARK    1  A    between atoms: C_1  and  C_2
REMARK    2  A    between atoms: C_5  and  N_8
REMARK    3  A    between atoms: N_8  and  C_9
REMARK    4  A    between atoms: N_8  and  C_13
REMARK    5  A    between atoms: C_9  and  C_10
REMARK    6  A    between atoms: C_10  and  C_11
REMARK    7  A    between atoms: C_10  and  O_12
REMARK    8  A    between atoms: C_13  and  C_14
REMARK    9  A    between atoms: C_14  and  C_15
REMARK   10  A    between atoms: C_14  and  O_16
REMARK                            x       y       z     vdW  Elec       q    Type
REMARK                         _______ _______ _______ _____ _____    ______ ____
ROOT
ATOM      1  N   UNL     1      12.251  12.190 -15.219  0.00  0.00    +0.000 N 
ENDROOT
BRANCH   1   6
ATOM      2  C   UNL     1      16.733  15.100 -13.037  0.00  0.00    +0.000 C 
ATOM      3  C   UNL     1      15.581  14.323 -13.596  0.00  0.00    +0.000 A 
ATOM      4  C   UNL     1      15.574  13.913 -14.925  0.00  0.00    +0.000 A 
ATOM      5  C   UNL     1      14.477  13.211 -15.452  0.00  0.00    +0.000 A 
ATOM      6  C   UNL     1      13.332  12.907 -14.693  0.00  0.00    +0.000 A 
ATOM      7  C   UNL     1      13.375  13.335 -13.353  0.00  0.00    +0.000 A 
ATOM      8  C   UNL     1      14.466  14.036 -12.813  0.00  0.00    +0.000 A 
ENDBRANCH   1   6
BRANCH   1   9
ATOM      9  C   UNL     1      11.284  12.859 -16.123  0.00  0.00    +0.000 C 
BRANCH   9  10
ATOM     10  C   UNL     1       9.952  13.215 -15.419  0.00  0.00    +0.000 C 
ATOM     11  C   UNL     1       9.585  14.676 -15.653  0.00  0.00    +0.000 C 
BRANCH  10  12
ATOM     12  O   UNL     1       8.877  12.403 -15.910  0.00  0.00    +0.000 OA
ATOM     13  H   UNL     1       9.176  11.479 -15.916  0.00  0.00    +0.000 HD
ENDBRANCH  10  12
ENDBRANCH   9  10
ENDBRANCH   1   9
BRANCH   1  14
ATOM     14  C   UNL     1      11.734  10.972 -14.543  0.00  0.00    +0.000 C 
BRANCH  14  15
ATOM     15  C   UNL     1      11.455   9.823 -15.542  0.00  0.00    +0.000 C 
ATOM     16  C   UNL     1      12.204   8.540 -15.204  0.00  0.00    +0.000 C 
BRANCH  15  17
ATOM     17  O   UNL     1      10.063   9.515 -15.616  0.00  0.00    +0.000 OA
ATOM     18  H   UNL     1      10.017   8.539 -15.567  0.00  0.00    +0.000 HD
ENDBRANCH  15  17
ENDBRANCH  14  15
ENDBRANCH   1  14
TORSDOF 7
ENDMDL
MODEL 2
REMARK VINA RESULT:    -4.435      0.624      3.308
REMARK INTER + INTRA:          -6.631
REMARK INTER:                  -6.001
REMARK INTRA:                  -0.630
REMARK UNBOUND:                -0.641
REMARK  Name = 
REMARK  10 active torsions:
REMARK  status: ('A' for Active; 'I' for Inactive)
REMARK    1  A    between atoms: C_1  and  C_2
REMARK    2  A    between atoms: C_5  and  N_8
REMARK    3  A    between atoms: N_8  and  C_9
REMARK    4  A    between atoms: N_8  and  C_13
REMARK    5  A    between atoms: C_9  and  C_10
REMARK    6  A    between atoms: C_10  and  C_11
REMARK    7  A    between atoms: C_10  and  O_12
REMARK    8  A    between atoms: C_13  and  C_14
REMARK    9  A    between atoms: C_14  and  C_15
REMARK   10  A    between atoms: C_14  and  O_16
REMARK                            x       y       z     vdW  Elec       q    Type
REMARK                         _______ _______ _______ _____ _____    ______ ____
ROOT
ATOM      1  N   UNL     1      11.736  12.109 -15.101  0.00  0.00    +0.000 N 
ENDROOT
BRANCH   1   6
ATOM      2  C   UNL     1      16.741  14.715 -13.880  0.00  0.00    +0.000 C 
ATOM      3  C   UNL     1      15.433  14.061 -14.205  0.00  0.00    +0.000 A 
ATOM      4  C   UNL     1      14.415  13.988 -13.260  0.00  0.00    +0.000 A 
ATOM      5  C   UNL     1      13.203  13.347 -13.561  0.00  0.00    +0.000 A 
ATOM      6  C   UNL     1      12.955  12.730 -14.801  0.00  0.00    +0.000 A 
ATOM      7  C   UNL     1      14.005  12.824 -15.732  0.00  0.00    +0.000 A 
ATOM      8  C   UNL     1      15.222  13.464 -15.445  0.00  0.00    +0.000 A 
ENDBRANCH   1   6
BRANCH   1   9
ATOM      9  C   UNL     1      11.435  10.762 -14.558  0.00  0.00    +0.000 C 
BRANCH   9  10
ATOM     10  C   UNL     1      11.276   9.691 -15.665  0.00  0.00    +0.000 C 
ATOM     11  C   UNL     1      12.150   8.476 -15.378  0.00  0.00    +0.000 C 
BRANCH  10  12
ATOM     12  O   UNL     1       9.915   9.247 -15.760  0.00  0.00    +0.000 OA
ATOM     13  H   UNL     1       9.342  10.031 -15.759  0.00  0.00    +0.000 HD
ENDBRANCH  10  12
ENDBRANCH   9  10
ENDBRANCH   1   9
BRANCH   1  14
ATOM     14  C   UNL     1      10.960  12.482 -16.311  0.00  0.00    +0.000 C 
BRANCH  14  15
ATOM     15  C   UNL     1       9.535  12.974 -15.962  0.00  0.00    +0.000 C 
ATOM     16  C   UNL     1       9.128  14.226 -16.730  0.00  0.00    +0.000 C 
BRANCH  15  17
ATOM     17  O   UNL     1       8.555  11.966 -16.208  0.00  0.00    +0.000 OA
ATOM     18  H   UNL     1       8.614  11.363 -15.440  0.00  0.00    +0.000 HD
ENDBRANCH  15  17
ENDBRANCH  14  15
ENDBRANCH   1  14
TORSDOF 7
ENDMDL
MODEL 3
REMARK VINA RESULT:    -4.298     10.442     13.339
REMARK INTER + INTRA:          -6.446
REMARK INTER:                  -5.964
REMARK INTRA:                  -0.482
REMARK UNBOUND:                -0.641
REMARK  Name = 
REMARK  10 active torsions:
REMARK  status: ('A' for Active; 'I' for Inactive)
REMARK    1  A    between atoms: C_1  and  C_2
REMARK    2  A    between atoms: C_5  and  N_8
REMARK    3  A    between atoms: N_8  and  C_9
REMARK    4  A    between atoms: N_8  and  C_13
REMARK    5  A    between atoms: C_9  and  C_10
REMARK    6  A    between atoms: C_10  and  C_11
REMARK    7  A    between atoms: C_10  and  O_12
REMARK    8  A    between atoms: C_13  and  C_14
REMARK    9  A    between atoms: C_14  and  C_15
REMARK   10  A    between atoms: C_14  and  O_16
REMARK                            x       y       z     vdW  Elec       q    Type
REMARK                         _______ _______ _______ _____ _____    ______ ____
ROOT
ATOM      1  N   UNL     1      -0.753  13.226 -16.141  0.00  0.00    +0.000 N 
ENDROOT
BRANCH   1   6
ATOM      2  C   UNL     1       4.747  11.493 -16.428  0.00  0.00    +0.000 C 
ATOM      3  C   UNL     1       3.322  11.945 -16.328  0.00  0.00    +0.000 A 
ATOM      4  C   UNL     1       2.287  11.023 -16.215  0.00  0.00    +0.000 A 
ATOM      5  C   UNL     1       0.950  11.450 -16.153  0.00  0.00    +0.000 A 
ATOM      6  C   UNL     1       0.581  12.806 -16.224  0.00  0.00    +0.000 A 
ATOM      7  C   UNL     1       1.653  13.710 -16.336  0.00  0.00    +0.000 A 
ATOM      8  C   UNL     1       2.994  13.295 -16.397  0.00  0.00    +0.000 A 
ENDBRANCH   1   6
BRANCH   1   9
ATOM      9  C   UNL     1      -1.800  12.289 -15.670  0.00  0.00    +0.000 C 
BRANCH   9  10
ATOM     10  C   UNL     1      -2.650  11.707 -16.827  0.00  0.00    +0.000 C 
ATOM     11  C   UNL     1      -2.422  10.207 -16.970  0.00  0.00    +0.000 C 
BRANCH  10  12
ATOM     12  O   UNL     1      -4.049  11.925 -16.598  0.00  0.00    +0.000 OA
ATOM     13  H   UNL     1      -4.534  11.613 -17.380  0.00  0.00    +0.000 HD
ENDBRANCH  10  12
ENDBRANCH   9  10
ENDBRANCH   1   9
BRANCH   1  14
ATOM     14  C   UNL     1      -1.253  14.362 -16.958  0.00  0.00    +0.000 C 
BRANCH  14  15
ATOM     15  C   UNL     1      -1.652  15.577 -16.088  0.00  0.00    +0.000 C 
ATOM     16  C   UNL     1      -3.137  15.910 -16.167  0.00  0.00    +0.000 C 
BRANCH  15  17
ATOM     17  O   UNL     1      -1.317  15.375 -14.715  0.00  0.00    +0.000 OA
ATOM     18  H   UNL     1      -0.403  15.713 -14.626  0.00  0.00    +0.000 HD
ENDBRANCH  15  17
ENDBRANCH  14  15
ENDBRANCH   1  14
TORSDOF 7
ENDMDL
MODEL 4
REMARK VINA RESULT:    -4.076      2.193      5.876
REMARK INTER + INTRA:          -6.147
REMARK INTER:                  -6.358
REMARK INTRA:                   0.211
REMARK UNBOUND:                -0.641
REMARK  Name = 
REMARK  10 active torsions:
REMARK  status: ('A' for Active; 'I' for Inactive)
REMARK    1  A    between atoms: C_1  and  C_2
REMARK    2  A    between atoms: C_5  and  N_8
REMARK    3  A    between atoms: N_8  and  C_9
REMARK    4  A    between atoms: N_8  and  C_13
REMARK    5  A    between atoms: C_9  and  C_10
REMARK    6  A    between atoms: C_10  and  C_11
REMARK    7  A    between atoms: C_10  and  O_12
REMARK    8  A    between atoms: C_13  and  C_14
REMARK    9  A    between atoms: C_14  and  C_15
REMARK   10  A    between atoms: C_14  and  O_16
REMARK                            x       y       z     vdW  Elec       q    Type
REMARK                         _______ _______ _______ _____ _____    ______ ____
ROOT
ATOM      1  N   UNL     1      12.032  12.028 -16.239  0.00  0.00    +0.000 N 
ENDROOT
BRANCH   1   6
ATOM      2  C   UNL     1       6.293  12.581 -16.538  0.00  0.00    +0.000 C 
ATOM      3  C   UNL     1       7.784  12.449 -16.483  0.00  0.00    +0.000 A 
ATOM      4  C   UNL     1       8.419  11.312 -16.970  0.00  0.00    +0.000 A 
ATOM      5  C   UNL     1       9.815  11.180 -16.888  0.00  0.00    +0.000 A 
ATOM      6  C   UNL     1      10.639  12.157 -16.300  0.00  0.00    +0.000 A 
ATOM      7  C   UNL     1       9.963  13.294 -15.819  0.00  0.00    +0.000 A 
ATOM      8  C   UNL     1       8.568  13.439 -15.897  0.00  0.00    +0.000 A 
ENDBRANCH   1   6
BRANCH   1   9
ATOM      9  C   UNL     1      12.644  10.960 -15.412  0.00  0.00    +0.000 C 
BRANCH   9  10
ATOM     10  C   UNL     1      11.694   9.760 -15.183  0.00  0.00    +0.000 C 
ATOM     11  C   UNL     1      12.465   8.445 -15.185  0.00  0.00    +0.000 C 
BRANCH  10  12
ATOM     12  O   UNL     1      11.014   9.874 -13.925  0.00  0.00    +0.000 OA
ATOM     13  H   UNL     1      10.627   9.008 -13.711  0.00  0.00    +0.000 HD
ENDBRANCH  10  12
ENDBRANCH   9  10
ENDBRANCH   1   9
BRANCH   1  14
ATOM     14  C   UNL     1      12.924  13.179 -16.533  0.00  0.00    +0.000 C 
BRANCH  14  15
ATOM     15  C   UNL     1      13.953  13.424 -15.403  0.00  0.00    +0.000 C 
ATOM     16  C   UNL     1      15.298  13.925 -15.915  0.00  0.00    +0.000 C 
BRANCH  15  17
ATOM     17  O   UNL     1      13.468  14.363 -14.444  0.00  0.00    +0.000 OA
ATOM     18  H   UNL     1      13.569  13.916 -13.579  0.00  0.00    +0.000 HD
ENDBRANCH  15  17
ENDBRANCH  14  15
ENDBRANCH   1  14
TORSDOF 7
ENDMDL
MODEL 5
REMARK VINA RESULT:    -3.867      2.814      5.179
REMARK INTER + INTRA:          -5.865
REMARK INTER:                  -5.363
REMARK INTRA:                  -0.502
REMARK UNBOUND:                -0.641
REMARK  Name = 
REMARK  10 active torsions:
REMARK  status: ('A' for Active; 'I' for Inactive)
REMARK    1  A    between atoms: C_1  and  C_2
REMARK    2  A    between atoms: C_5  and  N_8
REMARK    3  A    between atoms: N_8  and  C_9
REMARK    4  A    between atoms: N_8  and  C_13
REMARK    5  A    between atoms: C_9  and  C_10
REMARK    6  A    between atoms: C_10  and  C_11
REMARK    7  A    between atoms: C_10  and  O_12
REMARK    8  A    between atoms: C_13  and  C_14
REMARK    9  A    between atoms: C_14  and  C_15
REMARK   10  A    between atoms: C_14  and  O_16
REMARK                            x       y       z     vdW  Elec       q    Type
REMARK                         _______ _______ _______ _____ _____    ______ ____
ROOT
ATOM      1  N   UNL     1       9.767  13.583 -16.097  0.00  0.00    +0.000 N 
ENDROOT
BRANCH   1   6
ATOM      2  C   UNL     1      12.203   8.406 -15.332  0.00  0.00    +0.000 C 
ATOM      3  C   UNL     1      11.559   9.747 -15.509  0.00  0.00    +0.000 A 
ATOM      4  C   UNL     1      10.367   9.879 -16.214  0.00  0.00    +0.000 A 
ATOM      5  C   UNL     1       9.783  11.142 -16.402  0.00  0.00    +0.000 A 
ATOM      6  C   UNL     1      10.365  12.329 -15.922  0.00  0.00    +0.000 A 
ATOM      7  C   UNL     1      11.568  12.158 -15.213  0.00  0.00    +0.000 A 
ATOM      8  C   UNL     1      12.161  10.900 -15.015  0.00  0.00    +0.000 A 
ENDBRANCH   1   6
BRANCH   1   9
ATOM      9  C   UNL     1      10.022  14.671 -15.122  0.00  0.00    +0.000 C 
BRANCH   9  10
ATOM     10  C   UNL     1      11.063  15.700 -15.630  0.00  0.00    +0.000 C 
ATOM     11  C   UNL     1      12.236  15.810 -14.664  0.00  0.00    +0.000 C 
BRANCH  10  12
ATOM     12  O   UNL     1      11.578  15.320 -16.914  0.00  0.00    +0.000 OA
ATOM     13  H   UNL     1      12.044  14.473 -16.813  0.00  0.00    +0.000 HD
ENDBRANCH  10  12
ENDBRANCH   9  10
ENDBRANCH   1   9
BRANCH   1  14
ATOM     14  C   UNL     1       8.521  13.737 -16.892  0.00  0.00    +0.000 C 
BRANCH  14  15
ATOM     15  C   UNL     1       7.270  13.894 -15.994  0.00  0.00    +0.000 C 
ATOM     16  C   UNL     1       6.348  15.021 -16.443  0.00  0.00    +0.000 C 
BRANCH  15  17
ATOM     17  O   UNL     1       6.505  12.691 -15.940  0.00  0.00    +0.000 OA
ATOM     18  H   UNL     1       7.034  12.080 -15.390  0.00  0.00    +0.000 HD
ENDBRANCH  15  17
ENDBRANCH  14  15
ENDBRANCH   1  14
TORSDOF 7
ENDMDL
MODEL 6
REMARK VINA RESULT:    -3.843      1.328      1.813
REMARK INTER + INTRA:          -5.833
REMARK INTER:                  -5.551
REMARK INTRA:                  -0.282
REMARK UNBOUND:                -0.641
REMARK  Name = 
REMARK  10 active torsions:
REMARK  status: ('A' for Active; 'I' for Inactive)
REMARK    1  A    between atoms: C_1  and  C_2
REMARK    2  A    between atoms: C_5  and  N_8
REMARK    3  A    between atoms: N_8  and  C_9
REMARK    4  A    between atoms: N_8  and  C_13
REMARK    5  A    between atoms: C_9  and  C_10
REMARK    6  A    between atoms: C_10  and  C_11
REMARK    7  A    between atoms: C_10  and  O_12
REMARK    8  A    between atoms: C_13  and  C_14
REMARK    9  A    between atoms: C_14  and  C_15
REMARK   10  A    between atoms: C_14  and  O_16
REMARK                            x       y       z     vdW  Elec       q    Type
REMARK                         _______ _______ _______ _____ _____    ______ ____
ROOT
ATOM      1  N   UNL     1      11.967  12.642 -14.911  0.00  0.00    +0.000 N 
ENDROOT
BRANCH   1   6
ATOM      2  C   UNL     1      17.144  14.635 -13.312  0.00  0.00    +0.000 C 
ATOM      3  C   UNL     1      15.794  14.141 -13.732  0.00  0.00    +0.000 A 
ATOM      4  C   UNL     1      14.763  14.007 -12.808  0.00  0.00    +0.000 A 
ATOM      5  C   UNL     1      13.508  13.515 -13.203  0.00  0.00    +0.000 A 
ATOM      6  C   UNL     1      13.227  13.113 -14.521  0.00  0.00    +0.000 A 
ATOM      7  C   UNL     1      14.292  13.265 -15.428  0.00  0.00    +0.000 A 
ATOM      8  C   UNL     1      15.551  13.758 -15.048  0.00  0.00    +0.000 A 
ENDBRANCH   1   6
BRANCH   1   9
ATOM      9  C   UNL     1      10.970  13.575 -15.487  0.00  0.00    +0.000 C 
BRANCH   9  10
ATOM     10  C   UNL     1      11.360  15.062 -15.298  0.00  0.00    +0.000 C 
ATOM     11  C   UNL     1      11.681  15.716 -16.637  0.00  0.00    +0.000 C 
BRANCH  10  12
ATOM     12  O   UNL     1      10.293  15.800 -14.687  0.00  0.00    +0.000 OA
ATOM     13  H   UNL     1      10.000  16.482 -15.315  0.00  0.00    +0.000 HD
ENDBRANCH  10  12
ENDBRANCH   9  10
ENDBRANCH   1   9
BRANCH   1  14
ATOM     14  C   UNL     1      11.397  11.400 -14.329  0.00  0.00    +0.000 C 
BRANCH  14  15
ATOM     15  C   UNL     1      11.479  10.204 -15.309  0.00  0.00    +0.000 C 
ATOM     16  C   UNL     1      12.306   9.043 -14.770  0.00  0.00    +0.000 C 
BRANCH  15  17
ATOM     17  O   UNL     1      10.184   9.707 -15.643  0.00  0.00    +0.000 OA
ATOM     18  H   UNL     1      10.115   9.813 -16.613  0.00  0.00    +0.000 HD
ENDBRANCH  15  17
ENDBRANCH  14  15
ENDBRANCH   1  14
TORSDOF 7
ENDMDL
MODEL 7
REMARK VINA RESULT:    -3.795     10.783     13.636
REMARK INTER + INTRA:          -5.767
REMARK INTER:                  -5.288
REMARK INTRA:                  -0.479
REMARK UNBOUND:                -0.641
REMARK  Name = 
REMARK  10 active torsions:
REMARK  status: ('A' for Active; 'I' for Inactive)
REMARK    1  A    between atoms: C_1  and  C_2
REMARK    2  A    between atoms: C_5  and  N_8
REMARK    3  A    between atoms: N_8  and  C_9
REMARK    4  A    between atoms: N_8  and  C_13
REMARK    5  A    between atoms: C_9  and  C_10
REMARK    6  A    between atoms: C_10  and  C_11
REMARK    7  A    between atoms: C_10  and  O_12
REMARK    8  A    between atoms: C_13  and  C_14
REMARK    9  A    between atoms: C_14  and  C_15
REMARK   10  A    between atoms: C_14  and  O_16
REMARK                            x       y       z     vdW  Elec       q    Type
REMARK                         _______ _______ _______ _____ _____    ______ ____
ROOT
ATOM      1  N   UNL     1      -1.336  12.580 -15.778  0.00  0.00    +0.000 N 
ENDROOT
BRANCH   1   6
ATOM      2  C   UNL     1       4.229  11.143 -16.318  0.00  0.00    +0.000 C 
ATOM      3  C   UNL     1       2.787  11.514 -16.153  0.00  0.00    +0.000 A 
ATOM      4  C   UNL     1       1.790  10.546 -16.214  0.00  0.00    +0.000 A 
ATOM      5  C   UNL     1       0.437  10.903 -16.089  0.00  0.00    +0.000 A 
ATOM      6  C   UNL     1       0.013  12.234 -15.922  0.00  0.00    +0.000 A 
ATOM      7  C   UNL     1       1.049  13.185 -15.863  0.00  0.00    +0.000 A 
ATOM      8  C   UNL     1       2.405  12.841 -15.984  0.00  0.00    +0.000 A 
ENDBRANCH   1   6
BRANCH   1   9
ATOM      9  C   UNL     1      -2.118  12.064 -14.629  0.00  0.00    +0.000 C 
BRANCH   9  10
ATOM     10  C   UNL     1      -2.688  13.193 -13.735  0.00  0.00    +0.000 C 
ATOM     11  C   UNL     1      -3.186  12.637 -12.406  0.00  0.00    +0.000 C 
BRANCH  10  12
ATOM     12  O   UNL     1      -1.688  14.183 -13.456  0.00  0.00    +0.000 OA
ATOM     13  H   UNL     1      -2.132  14.961 -13.080  0.00  0.00    +0.000 HD
ENDBRANCH  10  12
ENDBRANCH   9  10
ENDBRANCH   1   9
BRANCH   1  14
ATOM     14  C   UNL     1      -2.149  13.005 -16.946  0.00  0.00    +0.000 C 
BRANCH  14  15
ATOM     15  C   UNL     1      -2.384  14.535 -16.970  0.00  0.00    +0.000 C 
ATOM     16  C   UNL     1      -3.821  14.926 -16.647  0.00  0.00    +0.000 C 
BRANCH  15  17
ATOM     17  O   UNL     1      -1.525  15.214 -16.055  0.00  0.00    +0.000 OA
ATOM     18  H   UNL     1      -2.053  15.968 -15.725  0.00  0.00    +0.000 HD
ENDBRANCH  15  17
ENDBRANCH  14  15
ENDBRANCH   1  14
TORSDOF 7
ENDMDL
MODEL 8
REMARK VINA RESULT:    -3.683      2.692      5.625
REMARK INTER + INTRA:          -5.616
REMARK INTER:                  -5.162
REMARK INTRA:                  -0.455
REMARK UNBOUND:                -0.641
REMARK  Name = 
REMARK  10 active torsions:
REMARK  status: ('A' for Active; 'I' for Inactive)
REMARK    1  A    between atoms: C_1  and  C_2
REMARK    2  A    between atoms: C_5  and  N_8
REMARK    3  A    between atoms: N_8  and  C_9
REMARK    4  A    between atoms: N_8  and  C_13
REMARK    5  A    between atoms: C_9  and  C_10
REMARK    6  A    between atoms: C_10  and  C_11
REMARK    7  A    between atoms: C_10  and  O_12
REMARK    8  A    between atoms: C_13  and  C_14
REMARK    9  A    between atoms: C_14  and  C_15
REMARK   10  A    between atoms: C_14  and  O_16
REMARK                            x       y       z     vdW  Elec       q    Type
REMARK                         _______ _______ _______ _____ _____    ______ ____
ROOT
ATOM      1  N   UNL     1      13.241  13.896 -15.385  0.00  0.00    +0.000 N 
ENDROOT
BRANCH   1   6
ATOM      2  C   UNL     1       9.936   9.224 -16.143  0.00  0.00    +0.000 C 
ATOM      3  C   UNL     1      10.804  10.432 -15.969  0.00  0.00    +0.000 A 
ATOM      4  C   UNL     1      12.029  10.343 -15.316  0.00  0.00    +0.000 A 
ATOM      5  C   UNL     1      12.826  11.485 -15.129  0.00  0.00    +0.000 A 
ATOM      6  C   UNL     1      12.433  12.766 -15.558  0.00  0.00    +0.000 A 
ATOM      7  C   UNL     1      11.190  12.818 -16.215  0.00  0.00    +0.000 A 
ATOM      8  C   UNL     1      10.385  11.684 -16.411  0.00  0.00    +0.000 A 
ENDBRANCH   1   6
BRANCH   1   9
ATOM      9  C   UNL     1      13.251  14.612 -14.086  0.00  0.00    +0.000 C 
BRANCH   9  10
ATOM     10  C   UNL     1      14.020  13.843 -12.983  0.00  0.00    +0.000 C 
ATOM     11  C   UNL     1      15.358  14.512 -12.686  0.00  0.00    +0.000 C 
BRANCH  10  12
ATOM     12  O   UNL     1      13.265  13.798 -11.765  0.00  0.00    +0.000 OA
ATOM     13  H   UNL     1      12.683  13.021 -11.800  0.00  0.00    +0.000 HD
ENDBRANCH  10  12
ENDBRANCH   9  10
ENDBRANCH   1   9
BRANCH   1  14
ATOM     14  C   UNL     1      13.690  14.706 -16.546  0.00  0.00    +0.000 C 
BRANCH  14  15
ATOM     15  C   UNL     1      15.194  14.508 -16.851  0.00  0.00    +0.000 C 
ATOM     16  C   UNL     1      16.063  15.657 -16.352  0.00  0.00    +0.000 C 
BRANCH  15  17
ATOM     17  O   UNL     1      15.692  13.298 -16.282  0.00  0.00    +0.000 OA
ATOM     18  H   UNL     1      14.899  12.825 -15.959  0.00  0.00    +0.000 HD
ENDBRANCH  15  17
ENDBRANCH  14  15
ENDBRANCH   1  14
TORSDOF 7
ENDMDL
