MODEL 1
REMARK VINA RESULT:    -5.051      0.000      0.000
REMARK INTER + INTRA:          -5.535
REMARK INTER:                  -5.494
REMARK INTRA:                  -0.040
REMARK UNBOUND:                -0.040
REMARK  Name = 
REMARK  3 active torsions:
REMARK  status: ('A' for Active; 'I' for Inactive)
REMARK    1  A    between atoms: C_1  and  O_2
REMARK    2  A    between atoms: O_2  and  C_3
REMARK    3  A    between atoms: C_8  and  O_9
REMARK                            x       y       z     vdW  Elec       q    Type
REMARK                         _______ _______ _______ _____ _____    ______ ____
ROOT
ATOM      1  C   UNL     1       1.153  -4.643   3.262  0.00  0.00    +0.000 A 
ATOM      2  C   UNL     1       0.557  -4.029   2.162  0.00  0.00    +0.000 A 
ATOM      3  C   UNL     1      -0.789  -4.279   1.865  0.00  0.00    +0.000 A 
ATOM      4  C   UNL     1      -1.541  -5.143   2.663  0.00  0.00    +0.000 A 
ATOM      5  C   UNL     1      -0.952  -5.761   3.764  0.00  0.00    +0.000 A 
ATOM      6  C   UNL     1       0.383  -5.507   4.051  0.00  0.00    +0.000 A 
ENDROOT
BRANCH   1   8
ATOM      7  C   UNL     1       3.442  -5.170   2.903  0.00  0.00    +0.000 C 
ATOM      8  O   UNL     1       2.454  -4.492   3.669  0.00  0.00    +0.000 OA
ENDBRANCH   1   8
BRANCH   6   9
ATOM      9  O   UNL     1       0.939  -6.126   5.138  0.00  0.00    +0.000 OA
ATOM     10  H   UNL     1       1.804  -6.451   4.823  0.00  0.00    +0.000 HD
ENDBRANCH   6   9
TORSDOF 2
ENDMDL
MODEL 2
REMARK VINA RESULT:    -4.629      1.130      2.267
REMARK INTER + INTRA:          -5.075
REMARK INTER:                  -5.023
REMARK INTRA:                  -0.052
REMARK UNBOUND:                -0.040
REMARK  Name = 
REMARK  3 active torsions:
REMARK  status: ('A' for Active; 'I' for Inactive)
REMARK    1  A    between atoms: C_1  and  O_2
REMARK    2  A    between atoms: O_2  and  C_3
REMARK    3  A    between atoms: C_8  and  O_9
REMARK                            x       y       z     vdW  Elec       q    Type
REMARK                         _______ _______ _______ _____ _____    ______ ____
ROOT
ATOM      1  C   UNL     1       0.824  -4.691   3.232  0.00  0.00    +0.000 A 
ATOM      2  C   UNL     1       0.240  -5.813   3.819  0.00  0.00    +0.000 A 
ATOM      3  C   UNL     1      -1.099  -6.126   3.551  0.00  0.00    +0.000 A 
ATOM      4  C   UNL     1      -1.857  -5.322   2.697  0.00  0.00    +0.000 A 
ATOM      5  C   UNL     1      -1.280  -4.200   2.106  0.00  0.00    +0.000 A 
ATOM      6  C   UNL     1       0.048  -3.897   2.378  0.00  0.00    +0.000 A 
ENDROOT
BRANCH   1   8
ATOM      7  C   UNL     1       3.141  -5.177   3.023  0.00  0.00    +0.000 C 
ATOM      8  O   UNL     1       2.117  -4.266   3.404  0.00  0.00    +0.000 OA
ENDBRANCH   1   8
BRANCH   6   9
ATOM      9  O   UNL     1       0.593  -2.789   1.785  0.00  0.00    +0.000 OA
ATOM     10  H   UNL     1       0.451  -2.924   0.829  0.00  0.00    +0.000 HD
ENDBRANCH   6   9
TORSDOF 2
ENDMDL
MODEL 3
REMARK VINA RESULT:    -4.575      1.746      2.370
REMARK INTER + INTRA:          -5.016
REMARK INTER:                  -4.972
REMARK INTRA:                  -0.045
REMARK UNBOUND:                -0.040
REMARK  Name = 
REMARK  3 active torsions:
REMARK  status: ('A' for Active; 'I' for Inactive)
REMARK    1  A    between atoms: C_1  and  O_2
REMARK    2  A    between atoms: O_2  and  C_3
REMARK    3  A    between atoms: C_8  and  O_9
REMARK                            x       y       z     vdW  Elec       q    Type
REMARK                         _______ _______ _______ _____ _____    ______ ____
ROOT
ATOM      1  C   UNL     1       2.153  -5.396   3.311  0.00  0.00    +0.000 A 
ATOM      2  C   UNL     1       1.366  -5.167   4.439  0.00  0.00    +0.000 A 
ATOM      3  C   UNL     1      -0.014  -5.403   4.389  0.00  0.00    +0.000 A 
ATOM      4  C   UNL     1      -0.610  -5.867   3.215  0.00  0.00    +0.000 A 
ATOM      5  C   UNL     1       0.169  -6.099   2.084  0.00  0.00    +0.000 A 
ATOM      6  C   UNL     1       1.537  -5.862   2.143  0.00  0.00    +0.000 A 
ENDROOT
BRANCH   1   8
ATOM      7  C   UNL     1       3.959  -3.861   3.142  0.00  0.00    +0.000 C 
ATOM      8  O   UNL     1       3.509  -5.209   3.216  0.00  0.00    +0.000 OA
ENDBRANCH   1   8
BRANCH   6   9
ATOM      9  O   UNL     1       2.283  -6.097   1.018  0.00  0.00    +0.000 OA
ATOM     10  H   UNL     1       1.863  -5.554   0.324  0.00  0.00    +0.000 HD
ENDBRANCH   6   9
TORSDOF 2
ENDMDL
MODEL 4
REMARK VINA RESULT:    -4.316      2.174      3.877
REMARK INTER + INTRA:          -4.735
REMARK INTER:                  -4.686
REMARK INTRA:                  -0.049
REMARK UNBOUND:                -0.040
REMARK  Name = 
REMARK  3 active torsions:
REMARK  status: ('A' for Active; 'I' for Inactive)
REMARK    1  A    between atoms: C_1  and  O_2
REMARK    2  A    between atoms: O_2  and  C_3
REMARK    3  A    between atoms: C_8  and  O_9
REMARK                            x       y       z     vdW  Elec       q    Type
REMARK                         _______ _______ _______ _____ _____    ______ ____
ROOT
ATOM      1  C   UNL     1      -0.705  -5.276   2.796  0.00  0.00    +0.000 A 
ATOM      2  C   UNL     1       0.255  -6.127   3.343  0.00  0.00    +0.000 A 
ATOM      3  C   UNL     1       1.574  -5.684   3.501  0.00  0.00    +0.000 A 
ATOM      4  C   UNL     1       1.939  -4.394   3.113  0.00  0.00    +0.000 A 
ATOM      5  C   UNL     1       0.986  -3.537   2.566  0.00  0.00    +0.000 A 
ATOM      6  C   UNL     1      -0.320  -3.985   2.413  0.00  0.00    +0.000 A 
ENDROOT
BRANCH   1   8
ATOM      7  C   UNL     1      -2.741  -6.116   3.689  0.00  0.00    +0.000 C 
ATOM      8  O   UNL     1      -2.027  -5.574   2.584  0.00  0.00    +0.000 OA
ENDBRANCH   1   8
BRANCH   6   9
ATOM      9  O   UNL     1      -1.239  -3.125   1.873  0.00  0.00    +0.000 OA
ATOM     10  H   UNL     1      -1.598  -3.599   1.098  0.00  0.00    +0.000 HD
ENDBRANCH   6   9
TORSDOF 2
ENDMDL
MODEL 5
REMARK VINA RESULT:    -4.201     24.453     25.189
REMARK INTER + INTRA:          -4.610
REMARK INTER:                  -4.567
REMARK INTRA:                  -0.042
REMARK UNBOUND:                -0.040
REMARK  Name = 
REMARK  3 active torsions:
REMARK  status: ('A' for Active; 'I' for Inactive)
REMARK    1  A    between atoms: C_1  and  O_2
REMARK    2  A    between atoms: O_2  and  C_3
REMARK    3  A    between atoms: C_8  and  O_9
REMARK                            x       y       z     vdW  Elec       q    Type
REMARK                         _______ _______ _______ _____ _____    ______ ____
ROOT
ATOM      1  C   UNL     1      -1.337  11.655 -14.949  0.00  0.00    +0.000 A 
ATOM      2  C   UNL     1      -0.061  11.505 -14.406  0.00  0.00    +0.000 A 
ATOM      3  C   UNL     1       0.941  10.862 -15.143  0.00  0.00    +0.000 A 
ATOM      4  C   UNL     1       0.674  10.367 -16.420  0.00  0.00    +0.000 A 
ATOM      5  C   UNL     1      -0.597  10.514 -16.970  0.00  0.00    +0.000 A 
ATOM      6  C   UNL     1      -1.586  11.153 -16.233  0.00  0.00    +0.000 A 
ENDROOT
BRANCH   1   8
ATOM      7  C   UNL     1      -2.124  13.380 -13.517  0.00  0.00    +0.000 C 
ATOM      8  O   UNL     1      -2.410  12.260 -14.345  0.00  0.00    +0.000 OA
ENDBRANCH   1   8
BRANCH   6   9
ATOM      9  O   UNL     1      -2.828  11.284 -16.794  0.00  0.00    +0.000 OA
ATOM     10  H   UNL     1      -2.656  11.465 -17.738  0.00  0.00    +0.000 HD
ENDBRANCH   6   9
TORSDOF 2
ENDMDL
MODEL 6
REMARK VINA RESULT:    -4.124     24.522     25.533
REMARK INTER + INTRA:          -4.525
REMARK INTER:                  -4.473
REMARK INTRA:                  -0.052
REMARK UNBOUND:                -0.040
REMARK  Name = 
REMARK  3 active torsions:
REMARK  status: ('A' for Active; 'I' for Inactive)
REMARK    1  A    between atoms: C_1  and  O_2
REMARK    2  A    between atoms: O_2  and  C_3
REMARK    3  A    between atoms: C_8  and  O_9
REMARK                            x       y       z     vdW  Elec       q    Type
REMARK                         _______ _______ _______ _____ _____    ______ ____
ROOT
ATOM      1  C   UNL     1      -1.514  11.614 -15.958  0.00  0.00    +0.000 A 
ATOM      2  C   UNL     1      -0.950  10.838 -16.970  0.00  0.00    +0.000 A 
ATOM      3  C   UNL     1       0.363  10.369 -16.842  0.00  0.00    +0.000 A 
ATOM      4  C   UNL     1       1.116  10.673 -15.707  0.00  0.00    +0.000 A 
ATOM      5  C   UNL     1       0.559  11.446 -14.691  0.00  0.00    +0.000 A 
ATOM      6  C   UNL     1      -0.744  11.908 -14.826  0.00  0.00    +0.000 A 
ENDROOT
BRANCH   1   8
ATOM      7  C   UNL     1      -3.085  13.081 -16.970  0.00  0.00    +0.000 C 
ATOM      8  O   UNL     1      -2.782  12.139 -15.949  0.00  0.00    +0.000 OA
ENDBRANCH   1   8
BRANCH   6   9
ATOM      9  O   UNL     1      -1.269  12.667 -13.814  0.00  0.00    +0.000 OA
ATOM     10  H   UNL     1      -2.117  12.997 -14.167  0.00  0.00    +0.000 HD
ENDBRANCH   6   9
TORSDOF 2
ENDMDL
MODEL 7
REMARK VINA RESULT:    -4.093     25.491     26.727
REMARK INTER + INTRA:          -4.492
REMARK INTER:                  -4.454
REMARK INTRA:                  -0.038
REMARK UNBOUND:                -0.040
REMARK  Name = 
REMARK  3 active torsions:
REMARK  status: ('A' for Active; 'I' for Inactive)
REMARK    1  A    between atoms: C_1  and  O_2
REMARK    2  A    between atoms: O_2  and  C_3
REMARK    3  A    between atoms: C_8  and  O_9
REMARK                            x       y       z     vdW  Elec       q    Type
REMARK                         _______ _______ _______ _____ _____    ______ ____
ROOT
ATOM      1  C   UNL     1      11.607   9.752 -15.513  0.00  0.00    +0.000 A 
ATOM      2  C   UNL     1      12.574  10.754 -15.449  0.00  0.00    +0.000 A 
ATOM      3  C   UNL     1      12.299  12.025 -15.971  0.00  0.00    +0.000 A 
ATOM      4  C   UNL     1      11.062  12.297 -16.557  0.00  0.00    +0.000 A 
ATOM      5  C   UNL     1      10.091  11.300 -16.624  0.00  0.00    +0.000 A 
ATOM      6  C   UNL     1      10.372  10.043 -16.104  0.00  0.00    +0.000 A 
ENDROOT
BRANCH   1   8
ATOM      7  C   UNL     1      12.872   8.203 -14.228  0.00  0.00    +0.000 C 
ATOM      8  O   UNL     1      11.738   8.468 -15.045  0.00  0.00    +0.000 OA
ENDBRANCH   1   8
BRANCH   6   9
ATOM      9  O   UNL     1       9.402   9.080 -16.182  0.00  0.00    +0.000 OA
ATOM     10  H   UNL     1       9.793   8.377 -16.736  0.00  0.00    +0.000 HD
ENDBRANCH   6   9
TORSDOF 2
ENDMDL
MODEL 8
REMARK VINA RESULT:    -3.929     26.390     27.494
REMARK INTER + INTRA:          -4.314
REMARK INTER:                  -4.264
REMARK INTRA:                  -0.050
REMARK UNBOUND:                -0.040
REMARK  Name = 
REMARK  3 active torsions:
REMARK  status: ('A' for Active; 'I' for Inactive)
REMARK    1  A    between atoms: C_1  and  O_2
REMARK    2  A    between atoms: O_2  and  C_3
REMARK    3  A    between atoms: C_8  and  O_9
REMARK                            x       y       z     vdW  Elec       q    Type
REMARK                         _______ _______ _______ _____ _____    ______ ____
ROOT
ATOM      1  C   UNL     1      10.304  11.426 -16.535  0.00  0.00    +0.000 A 
ATOM      2  C   UNL     1      11.097  12.555 -16.730  0.00  0.00    +0.000 A 
ATOM      3  C   UNL     1      12.403  12.589 -16.226  0.00  0.00    +0.000 A 
ATOM      4  C   UNL     1      12.919  11.497 -15.525  0.00  0.00    +0.000 A 
ATOM      5  C   UNL     1      12.133  10.365 -15.326  0.00  0.00    +0.000 A 
ATOM      6  C   UNL     1      10.839  10.340 -15.830  0.00  0.00    +0.000 A 
ENDROOT
BRANCH   1   8
ATOM      7  C   UNL     1       8.080  12.261 -16.596  0.00  0.00    +0.000 C 
ATOM      8  O   UNL     1       9.014  11.255 -16.970  0.00  0.00    +0.000 OA
ENDBRANCH   1   8
BRANCH   6   9
ATOM      9  O   UNL     1      10.085   9.216 -15.621  0.00  0.00    +0.000 OA
ATOM     10  H   UNL     1       9.535   9.134 -16.423  0.00  0.00    +0.000 HD
ENDBRANCH   6   9
TORSDOF 2
ENDMDL
