MODEL 1
REMARK VINA RESULT:    -4.439      0.000      0.000
REMARK INTER + INTRA:          -6.638
REMARK INTER:                  -5.997
REMARK INTRA:                  -0.641
REMARK UNBOUND:                -0.641
REMARK  Name = 
REMARK  10 active torsions:
REMARK  status: ('A' for Active; 'I' for Inactive)
REMARK    1  A    between atoms: C_1  and  C_2
REMARK    2  A    between atoms: C_5  and  N_8
REMARK    3  A    between atoms: N_8  and  C_9
REMARK    4  A    between atoms: N_8  and  C_13
REMARK    5  A    between atoms: C_9  and  C_10
REMARK    6  A    between atoms: C_10  and  C_11
REMARK    7  A    between atoms: C_10  and  O_12
REMARK    8  A    between atoms: C_13  and  C_14
REMARK    9  A    between atoms: C_14  and  C_15
REMARK   10  A    between atoms: C_14  and  O_16
REMARK                            x       y       z     vdW  Elec       q    Type
REMARK                         _______ _______ _______ _____ _____    ______ ____
ROOT
ATOM      1  N   UNL     1      12.112  12.057 -15.348  0.00  0.00    +0.000 N 
ENDROOT
BRANCH   1   6
ATOM      2  C   UNL     1      16.317  15.267 -13.036  0.00  0.00    +0.000 C 
ATOM      3  C   UNL     1      15.236  14.414 -13.625  0.00  0.00    +0.000 A 
ATOM      4  C   UNL     1      15.377  13.855 -14.890  0.00  0.00    +0.000 A 
ATOM      5  C   UNL     1      14.348  13.080 -15.450  0.00  0.00    +0.000 A 
ATOM      6  C   UNL     1      13.127  12.846 -14.792  0.00  0.00    +0.000 A 
ATOM      7  C   UNL     1      13.020  13.425 -13.514  0.00  0.00    +0.000 A 
ATOM      8  C   UNL     1      14.042  14.200 -12.941  0.00  0.00    +0.000 A 
ENDBRANCH   1   6
BRANCH   1   9
ATOM      9  C   UNL     1      11.163  12.645 -16.323  0.00  0.00    +0.000 C 
BRANCH   9  10
ATOM     10  C   UNL     1       9.813  13.047 -15.680  0.00  0.00    +0.000 C 
ATOM     11  C   UNL     1       9.426  14.469 -16.068  0.00  0.00    +0.000 C 
BRANCH  10  12
ATOM     12  O   UNL     1       8.761  12.169 -16.103  0.00  0.00    +0.000 OA
ATOM     13  H   UNL     1       8.982  11.838 -16.989  0.00  0.00    +0.000 HD
ENDBRANCH  10  12
ENDBRANCH   9  10
ENDBRANCH   1   9
BRANCH   1  14
ATOM     14  C   UNL     1      11.621  10.837 -14.657  0.00  0.00    +0.000 C 
BRANCH  14  15
ATOM     15  C   UNL     1      11.349   9.676 -15.644  0.00  0.00    +0.000 C 
ATOM     16  C   UNL     1      12.182   8.434 -15.352  0.00  0.00    +0.000 C 
BRANCH  15  17
ATOM     17  O   UNL     1       9.974   9.297 -15.645  0.00  0.00    +0.000 OA
ATOM     18  H   UNL     1       9.531   9.952 -15.069  0.00  0.00    +0.000 HD
ENDBRANCH  15  17
ENDBRANCH  14  15
ENDBRANCH   1  14
TORSDOF 7
ENDMDL
MODEL 2
REMARK VINA RESULT:    -4.217      9.976     12.883
REMARK INTER + INTRA:          -6.337
REMARK INTER:                  -5.981
REMARK INTRA:                  -0.357
REMARK UNBOUND:                -0.641
REMARK  Name = 
REMARK  10 active torsions:
REMARK  status: ('A' for Active; 'I' for Inactive)
REMARK    1  A    between atoms: C_1  and  C_2
REMARK    2  A    between atoms: C_5  and  N_8
REMARK    3  A    between atoms: N_8  and  C_9
REMARK    4  A    between atoms: N_8  and  C_13
REMARK    5  A    between atoms: C_9  and  C_10
REMARK    6  A    between atoms: C_10  and  C_11
REMARK    7  A    between atoms: C_10  and  O_12
REMARK    8  A    between atoms: C_13  and  C_14
REMARK    9  A    between atoms: C_14  and  C_15
REMARK   10  A    between atoms: C_14  and  O_16
REMARK                            x       y       z     vdW  Elec       q    Type
REMARK                         _______ _______ _______ _____ _____    ______ ____
ROOT
ATOM      1  N   UNL     1      -0.411  13.520 -16.153  0.00  0.00    +0.000 N 
ENDROOT
BRANCH   1   6
ATOM      2  C   UNL     1       5.062  11.762 -16.693  0.00  0.00    +0.000 C 
ATOM      3  C   UNL     1       3.637  12.210 -16.576  0.00  0.00    +0.000 A 
ATOM      4  C   UNL     1       3.261  13.499 -16.937  0.00  0.00    +0.000 A 
ATOM      5  C   UNL     1       1.930  13.923 -16.797  0.00  0.00    +0.000 A 
ATOM      6  C   UNL     1       0.919  13.097 -16.272  0.00  0.00    +0.000 A 
ATOM      7  C   UNL     1       1.335  11.800 -15.918  0.00  0.00    +0.000 A 
ATOM      8  C   UNL     1       2.663  11.363 -16.056  0.00  0.00    +0.000 A 
ENDBRANCH   1   6
BRANCH   1   9
ATOM      9  C   UNL     1      -1.446  12.584 -15.651  0.00  0.00    +0.000 C 
BRANCH   9  10
ATOM     10  C   UNL     1      -2.254  11.916 -16.791  0.00  0.00    +0.000 C 
ATOM     11  C   UNL     1      -1.841  10.460 -16.970  0.00  0.00    +0.000 C 
BRANCH  10  12
ATOM     12  O   UNL     1      -3.660  11.948 -16.512  0.00  0.00    +0.000 OA
ATOM     13  H   UNL     1      -4.120  11.481 -17.229  0.00  0.00    +0.000 HD
ENDBRANCH  10  12
ENDBRANCH   9  10
ENDBRANCH   1   9
BRANCH   1  14
ATOM     14  C   UNL     1      -0.932  14.654 -16.957  0.00  0.00    +0.000 C 
BRANCH  14  15
ATOM     15  C   UNL     1      -1.661  15.704 -16.084  0.00  0.00    +0.000 C 
ATOM     16  C   UNL     1      -3.179  15.594 -16.158  0.00  0.00    +0.000 C 
BRANCH  15  17
ATOM     17  O   UNL     1      -1.277  15.607 -14.713  0.00  0.00    +0.000 OA
ATOM     18  H   UNL     1      -0.451  16.127 -14.645  0.00  0.00    +0.000 HD
ENDBRANCH  15  17
ENDBRANCH  14  15
ENDBRANCH   1  14
TORSDOF 7
ENDMDL
MODEL 3
REMARK VINA RESULT:    -3.811     10.040     13.464
REMARK INTER + INTRA:          -5.789
REMARK INTER:                  -5.522
REMARK INTRA:                  -0.267
REMARK UNBOUND:                -0.641
REMARK  Name = 
REMARK  10 active torsions:
REMARK  status: ('A' for Active; 'I' for Inactive)
REMARK    1  A    between atoms: C_1  and  C_2
REMARK    2  A    between atoms: C_5  and  N_8
REMARK    3  A    between atoms: N_8  and  C_9
REMARK    4  A    between atoms: N_8  and  C_13
REMARK    5  A    between atoms: C_9  and  C_10
REMARK    6  A    between atoms: C_10  and  C_11
REMARK    7  A    between atoms: C_10  and  O_12
REMARK    8  A    between atoms: C_13  and  C_14
REMARK    9  A    between atoms: C_14  and  C_15
REMARK   10  A    between atoms: C_14  and  O_16
REMARK                            x       y       z     vdW  Elec       q    Type
REMARK                         _______ _______ _______ _____ _____    ______ ____
ROOT
ATOM      1  N   UNL     1       0.482  12.958 -16.270  0.00  0.00    +0.000 N 
ENDROOT
BRANCH   1   6
ATOM      2  C   UNL     1      -4.418  15.992 -16.596  0.00  0.00    +0.000 C 
ATOM      3  C   UNL     1      -3.149  15.203 -16.487  0.00  0.00    +0.000 A 
ATOM      4  C   UNL     1      -1.922  15.841 -16.336  0.00  0.00    +0.000 A 
ATOM      5  C   UNL     1      -0.733  15.097 -16.264  0.00  0.00    +0.000 A 
ATOM      6  C   UNL     1      -0.705  13.694 -16.362  0.00  0.00    +0.000 A 
ATOM      7  C   UNL     1      -1.964  13.083 -16.512  0.00  0.00    +0.000 A 
ATOM      8  C   UNL     1      -3.161  13.815 -16.583  0.00  0.00    +0.000 A 
ENDBRANCH   1   6
BRANCH   1   9
ATOM      9  C   UNL     1       0.708  12.052 -15.117  0.00  0.00    +0.000 C 
BRANCH   9  10
ATOM     10  C   UNL     1       0.709  10.557 -15.520  0.00  0.00    +0.000 C 
ATOM     11  C   UNL     1       0.205  10.377 -16.947  0.00  0.00    +0.000 C 
BRANCH  10  12
ATOM     12  O   UNL     1       2.031  10.004 -15.443  0.00  0.00    +0.000 OA
ATOM     13  H   UNL     1       2.570  10.413 -16.140  0.00  0.00    +0.000 HD
ENDBRANCH  10  12
ENDBRANCH   9  10
ENDBRANCH   1   9
BRANCH   1  14
ATOM     14  C   UNL     1       1.717  13.399 -16.968  0.00  0.00    +0.000 C 
BRANCH  14  15
ATOM     15  C   UNL     1       2.979  13.228 -16.089  0.00  0.00    +0.000 C 
ATOM     16  C   UNL     1       4.099  12.468 -16.789  0.00  0.00    +0.000 C 
BRANCH  15  17
ATOM     17  O   UNL     1       3.498  14.486 -15.662  0.00  0.00    +0.000 OA
ATOM     18  H   UNL     1       3.384  14.491 -14.690  0.00  0.00    +0.000 HD
ENDBRANCH  15  17
ENDBRANCH  14  15
ENDBRANCH   1  14
TORSDOF 7
ENDMDL
MODEL 4
REMARK VINA RESULT:    -3.667     10.502     13.377
REMARK INTER + INTRA:          -5.595
REMARK INTER:                  -5.165
REMARK INTRA:                  -0.430
REMARK UNBOUND:                -0.641
REMARK  Name = 
REMARK  10 active torsions:
REMARK  status: ('A' for Active; 'I' for Inactive)
REMARK    1  A    between atoms: C_1  and  C_2
REMARK    2  A    between atoms: C_5  and  N_8
REMARK    3  A    between atoms: N_8  and  C_9
REMARK    4  A    between atoms: N_8  and  C_13
REMARK    5  A    between atoms: C_9  and  C_10
REMARK    6  A    between atoms: C_10  and  C_11
REMARK    7  A    between atoms: C_10  and  O_12
REMARK    8  A    between atoms: C_13  and  C_14
REMARK    9  A    between atoms: C_14  and  C_15
REMARK   10  A    between atoms: C_14  and  O_16
REMARK                            x       y       z     vdW  Elec       q    Type
REMARK                         _______ _______ _______ _____ _____    ______ ____
ROOT
ATOM      1  N   UNL     1      -1.215  12.734 -15.805  0.00  0.00    +0.000 N 
ENDROOT
BRANCH   1   6
ATOM      2  C   UNL     1       4.315  11.164 -16.329  0.00  0.00    +0.000 C 
ATOM      3  C   UNL     1       2.878  11.570 -16.218  0.00  0.00    +0.000 A 
ATOM      4  C   UNL     1       2.509  12.911 -16.246  0.00  0.00    +0.000 A 
ATOM      5  C   UNL     1       1.163  13.286 -16.111  0.00  0.00    +0.000 A 
ATOM      6  C   UNL     1       0.128  12.353 -15.919  0.00  0.00    +0.000 A 
ATOM      7  C   UNL     1       0.536  11.007 -15.898  0.00  0.00    +0.000 A 
ATOM      8  C   UNL     1       1.879  10.618 -16.034  0.00  0.00    +0.000 A 
ENDBRANCH   1   6
BRANCH   1   9
ATOM      9  C   UNL     1      -2.062  12.161 -14.731  0.00  0.00    +0.000 C 
BRANCH   9  10
ATOM     10  C   UNL     1      -2.666  13.242 -13.802  0.00  0.00    +0.000 C 
ATOM     11  C   UNL     1      -3.177  12.624 -12.506  0.00  0.00    +0.000 C 
BRANCH  10  12
ATOM     12  O   UNL     1      -1.689  14.236 -13.464  0.00  0.00    +0.000 OA
ATOM     13  H   UNL     1      -1.295  14.563 -14.290  0.00  0.00    +0.000 HD
ENDBRANCH  10  12
ENDBRANCH   9  10
ENDBRANCH   1   9
BRANCH   1  14
ATOM     14  C   UNL     1      -1.964  13.271 -16.970  0.00  0.00    +0.000 C 
BRANCH  14  15
ATOM     15  C   UNL     1      -2.072  14.814 -16.934  0.00  0.00    +0.000 C 
ATOM     16  C   UNL     1      -3.500  15.311 -16.735  0.00  0.00    +0.000 C 
BRANCH  15  17
ATOM     17  O   UNL     1      -1.262  15.376 -15.903  0.00  0.00    +0.000 OA
ATOM     18  H   UNL     1      -0.478  14.792 -15.852  0.00  0.00    +0.000 HD
ENDBRANCH  15  17
ENDBRANCH  14  15
ENDBRANCH   1  14
TORSDOF 7
ENDMDL
MODEL 5
REMARK VINA RESULT:    -3.472      9.994     13.368
REMARK INTER + INTRA:          -5.331
REMARK INTER:                  -5.119
REMARK INTRA:                  -0.212
REMARK UNBOUND:                -0.641
REMARK  Name = 
REMARK  10 active torsions:
REMARK  status: ('A' for Active; 'I' for Inactive)
REMARK    1  A    between atoms: C_1  and  C_2
REMARK    2  A    between atoms: C_5  and  N_8
REMARK    3  A    between atoms: N_8  and  C_9
REMARK    4  A    between atoms: N_8  and  C_13
REMARK    5  A    between atoms: C_9  and  C_10
REMARK    6  A    between atoms: C_10  and  C_11
REMARK    7  A    between atoms: C_10  and  O_12
REMARK    8  A    between atoms: C_13  and  C_14
REMARK    9  A    between atoms: C_14  and  C_15
REMARK   10  A    between atoms: C_14  and  O_16
REMARK                            x       y       z     vdW  Elec       q    Type
REMARK                         _______ _______ _______ _____ _____    ______ ____
ROOT
ATOM      1  N   UNL     1       0.679  13.352 -16.604  0.00  0.00    +0.000 N 
ENDROOT
BRANCH   1   6
ATOM      2  C   UNL     1      -4.490  15.920 -16.664  0.00  0.00    +0.000 C 
ATOM      3  C   UNL     1      -3.151  15.251 -16.624  0.00  0.00    +0.000 A 
ATOM      4  C   UNL     1      -1.985  15.993 -16.469  0.00  0.00    +0.000 A 
ATOM      5  C   UNL     1      -0.730  15.363 -16.462  0.00  0.00    +0.000 A 
ATOM      6  C   UNL     1      -0.574  13.976 -16.631  0.00  0.00    +0.000 A 
ATOM      7  C   UNL     1      -1.774  13.256 -16.784  0.00  0.00    +0.000 A 
ATOM      8  C   UNL     1      -3.035  13.874 -16.790  0.00  0.00    +0.000 A 
ENDBRANCH   1   6
BRANCH   1   9
ATOM      9  C   UNL     1       1.897  14.114 -16.970  0.00  0.00    +0.000 C 
BRANCH   9  10
ATOM     10  C   UNL     1       3.131  13.716 -16.123  0.00  0.00    +0.000 C 
ATOM     11  C   UNL     1       4.097  12.861 -16.934  0.00  0.00    +0.000 C 
BRANCH  10  12
ATOM     12  O   UNL     1       3.840  14.878 -15.670  0.00  0.00    +0.000 OA
ATOM     13  H   UNL     1       4.084  15.405 -16.449  0.00  0.00    +0.000 HD
ENDBRANCH  10  12
ENDBRANCH   9  10
ENDBRANCH   1   9
BRANCH   1  14
ATOM     14  C   UNL     1       0.807  11.877 -16.723  0.00  0.00    +0.000 C 
BRANCH  14  15
ATOM     15  C   UNL     1       0.957  11.190 -15.345  0.00  0.00    +0.000 C 
ATOM     16  C   UNL     1      -0.374  10.751 -14.745  0.00  0.00    +0.000 C 
BRANCH  15  17
ATOM     17  O   UNL     1       1.808  10.047 -15.415  0.00  0.00    +0.000 OA
ATOM     18  H   UNL     1       1.540   9.485 -14.660  0.00  0.00    +0.000 HD
ENDBRANCH  15  17
ENDBRANCH  14  15
ENDBRANCH   1  14
TORSDOF 7
ENDMDL
MODEL 6
REMARK VINA RESULT:    -3.266      9.359     11.910
REMARK INTER + INTRA:          -5.052
REMARK INTER:                  -4.684
REMARK INTRA:                  -0.368
REMARK UNBOUND:                -0.641
REMARK  Name = 
REMARK  10 active torsions:
REMARK  status: ('A' for Active; 'I' for Inactive)
REMARK    1  A    between atoms: C_1  and  C_2
REMARK    2  A    between atoms: C_5  and  N_8
REMARK    3  A    between atoms: N_8  and  C_9
REMARK    4  A    between atoms: N_8  and  C_13
REMARK    5  A    between atoms: C_9  and  C_10
REMARK    6  A    between atoms: C_10  and  C_11
REMARK    7  A    between atoms: C_10  and  O_12
REMARK    8  A    between atoms: C_13  and  C_14
REMARK    9  A    between atoms: C_14  and  C_15
REMARK   10  A    between atoms: C_14  and  O_16
REMARK                            x       y       z     vdW  Elec       q    Type
REMARK                         _______ _______ _______ _____ _____    ______ ____
ROOT
ATOM      1  N   UNL     1       0.085  12.884 -16.258  0.00  0.00    +0.000 N 
ENDROOT
BRANCH   1   6
ATOM      2  C   UNL     1       5.761  12.000 -16.836  0.00  0.00    +0.000 C 
ATOM      3  C   UNL     1       4.292  12.237 -16.663  0.00  0.00    +0.000 A 
ATOM      4  C   UNL     1       3.448  11.215 -16.238  0.00  0.00    +0.000 A 
ATOM      5  C   UNL     1       2.068  11.435 -16.106  0.00  0.00    +0.000 A 
ATOM      6  C   UNL     1       1.460  12.666 -16.411  0.00  0.00    +0.000 A 
ATOM      7  C   UNL     1       2.343  13.676 -16.835  0.00  0.00    +0.000 A 
ATOM      8  C   UNL     1       3.726  13.471 -16.970  0.00  0.00    +0.000 A 
ENDBRANCH   1   6
BRANCH   1   9
ATOM      9  C   UNL     1      -0.574  14.006 -16.970  0.00  0.00    +0.000 C 
BRANCH   9  10
ATOM     10  C   UNL     1      -1.559  14.791 -16.070  0.00  0.00    +0.000 C 
ATOM     11  C   UNL     1      -0.871  15.985 -15.420  0.00  0.00    +0.000 C 
BRANCH  10  12
ATOM     12  O   UNL     1      -2.672  15.280 -16.831  0.00  0.00    +0.000 OA
ATOM     13  H   UNL     1      -3.482  14.879 -16.473  0.00  0.00    +0.000 HD
ENDBRANCH  10  12
ENDBRANCH   9  10
ENDBRANCH   1   9
BRANCH   1  14
ATOM     14  C   UNL     1      -0.644  12.390 -15.062  0.00  0.00    +0.000 C 
BRANCH  14  15
ATOM     15  C   UNL     1      -1.481  11.125 -15.368  0.00  0.00    +0.000 C 
ATOM     16  C   UNL     1      -1.632  10.853 -16.860  0.00  0.00    +0.000 C 
BRANCH  15  17
ATOM     17  O   UNL     1      -0.919   9.962 -14.762  0.00  0.00    +0.000 OA
ATOM     18  H   UNL     1      -0.656  10.247 -13.864  0.00  0.00    +0.000 HD
ENDBRANCH  15  17
ENDBRANCH  14  15
ENDBRANCH   1  14
TORSDOF 7
ENDMDL
MODEL 7
REMARK VINA RESULT:    -2.989     10.004     12.530
REMARK INTER + INTRA:          -4.678
REMARK INTER:                  -5.556
REMARK INTRA:                   0.878
REMARK UNBOUND:                -0.641
REMARK  Name = 
REMARK  10 active torsions:
REMARK  status: ('A' for Active; 'I' for Inactive)
REMARK    1  A    between atoms: C_1  and  C_2
REMARK    2  A    between atoms: C_5  and  N_8
REMARK    3  A    between atoms: N_8  and  C_9
REMARK    4  A    between atoms: N_8  and  C_13
REMARK    5  A    between atoms: C_9  and  C_10
REMARK    6  A    between atoms: C_10  and  C_11
REMARK    7  A    between atoms: C_10  and  O_12
REMARK    8  A    between atoms: C_13  and  C_14
REMARK    9  A    between atoms: C_14  and  C_15
REMARK   10  A    between atoms: C_14  and  O_16
REMARK                            x       y       z     vdW  Elec       q    Type
REMARK                         _______ _______ _______ _____ _____    ______ ____
ROOT
ATOM      1  N   UNL     1      -0.377  12.676 -15.824  0.00  0.00    +0.000 N 
ENDROOT
BRANCH   1   6
ATOM      2  C   UNL     1       5.275  11.845 -16.654  0.00  0.00    +0.000 C 
ATOM      3  C   UNL     1       3.805  12.058 -16.464  0.00  0.00    +0.000 A 
ATOM      4  C   UNL     1       3.264  13.340 -16.455  0.00  0.00    +0.000 A 
ATOM      5  C   UNL     1       1.890  13.535 -16.246  0.00  0.00    +0.000 A 
ATOM      6  C   UNL     1       0.996  12.474 -16.013  0.00  0.00    +0.000 A 
ATOM      7  C   UNL     1       1.577  11.193 -16.030  0.00  0.00    +0.000 A 
ATOM      8  C   UNL     1       2.950  10.983 -16.241  0.00  0.00    +0.000 A 
ENDBRANCH   1   6
BRANCH   1   9
ATOM      9  C   UNL     1      -0.990  12.423 -14.498  0.00  0.00    +0.000 C 
BRANCH   9  10
ATOM     10  C   UNL     1      -2.133  13.414 -14.167  0.00  0.00    +0.000 C 
ATOM     11  C   UNL     1      -2.697  13.150 -12.776  0.00  0.00    +0.000 C 
BRANCH  10  12
ATOM     12  O   UNL     1      -1.668  14.770 -14.209  0.00  0.00    +0.000 OA
ATOM     13  H   UNL     1      -1.583  15.087 -13.294  0.00  0.00    +0.000 HD
ENDBRANCH  10  12
ENDBRANCH   9  10
ENDBRANCH   1   9
BRANCH   1  14
ATOM     14  C   UNL     1      -1.324  12.635 -16.968  0.00  0.00    +0.000 C 
BRANCH  14  15
ATOM     15  C   UNL     1      -2.184  11.348 -16.969  0.00  0.00    +0.000 C 
ATOM     16  C   UNL     1      -1.670  10.283 -16.007  0.00  0.00    +0.000 C 
BRANCH  15  17
ATOM     17  O   UNL     1      -3.544  11.622 -16.639  0.00  0.00    +0.000 OA
ATOM     18  H   UNL     1      -4.003  10.762 -16.720  0.00  0.00    +0.000 HD
ENDBRANCH  15  17
ENDBRANCH  14  15
ENDBRANCH   1  14
TORSDOF 7
ENDMDL
MODEL 8
REMARK VINA RESULT:    -2.443      8.533     12.015
REMARK INTER + INTRA:          -3.940
REMARK INTER:                  -4.687
REMARK INTRA:                   0.747
REMARK UNBOUND:                -0.641
REMARK  Name = 
REMARK  10 active torsions:
REMARK  status: ('A' for Active; 'I' for Inactive)
REMARK    1  A    between atoms: C_1  and  C_2
REMARK    2  A    between atoms: C_5  and  N_8
REMARK    3  A    between atoms: N_8  and  C_9
REMARK    4  A    between atoms: N_8  and  C_13
REMARK    5  A    between atoms: C_9  and  C_10
REMARK    6  A    between atoms: C_10  and  C_11
REMARK    7  A    between atoms: C_10  and  O_12
REMARK    8  A    between atoms: C_13  and  C_14
REMARK    9  A    between atoms: C_14  and  C_15
REMARK   10  A    between atoms: C_14  and  O_16
REMARK                            x       y       z     vdW  Elec       q    Type
REMARK                         _______ _______ _______ _____ _____    ______ ____
ROOT
ATOM      1  N   UNL     1       2.287  13.944 -16.565  0.00  0.00    +0.000 N 
ENDROOT
BRANCH   1   6
ATOM      2  C   UNL     1      -3.409  14.748 -16.088  0.00  0.00    +0.000 C 
ATOM      3  C   UNL     1      -1.934  14.538 -16.236  0.00  0.00    +0.000 A 
ATOM      4  C   UNL     1      -1.383  13.263 -16.159  0.00  0.00    +0.000 A 
ATOM      5  C   UNL     1       0.005  13.075 -16.269  0.00  0.00    +0.000 A 
ATOM      6  C   UNL     1       0.907  14.141 -16.437  0.00  0.00    +0.000 A 
ATOM      7  C   UNL     1       0.315  15.415 -16.513  0.00  0.00    +0.000 A 
ATOM      8  C   UNL     1      -1.071  15.617 -16.406  0.00  0.00    +0.000 A 
ENDBRANCH   1   6
BRANCH   1   9
ATOM      9  C   UNL     1       3.183  15.100 -16.812  0.00  0.00    +0.000 C 
BRANCH   9  10
ATOM     10  C   UNL     1       4.668  14.686 -16.966  0.00  0.00    +0.000 C 
ATOM     11  C   UNL     1       5.582  15.903 -16.897  0.00  0.00    +0.000 C 
BRANCH  10  12
ATOM     12  O   UNL     1       5.059  13.777 -15.928  0.00  0.00    +0.000 OA
ATOM     13  H   UNL     1       4.648  12.916 -16.111  0.00  0.00    +0.000 HD
ENDBRANCH  10  12
ENDBRANCH   9  10
ENDBRANCH   1   9
BRANCH   1  14
ATOM     14  C   UNL     1       2.842  12.627 -16.970  0.00  0.00    +0.000 C 
BRANCH  14  15
ATOM     15  C   UNL     1       2.737  11.576 -15.838  0.00  0.00    +0.000 C 
ATOM     16  C   UNL     1       1.845  10.394 -16.198  0.00  0.00    +0.000 C 
BRANCH  15  17
ATOM     17  O   UNL     1       4.018  11.067 -15.471  0.00  0.00    +0.000 OA
ATOM     18  H   UNL     1       4.561  11.860 -15.285  0.00  0.00    +0.000 HD
ENDBRANCH  15  17
ENDBRANCH  14  15
ENDBRANCH   1  14
TORSDOF 7
ENDMDL
