MODEL 1
REMARK VINA RESULT:    -5.050      0.000      0.000
REMARK INTER + INTRA:          -5.536
REMARK INTER:                  -5.493
REMARK INTRA:                  -0.043
REMARK UNBOUND:                -0.043
REMARK  Name = 
REMARK  3 active torsions:
REMARK  status: ('A' for Active; 'I' for Inactive)
REMARK    1  A    between atoms: C_1  and  O_2
REMARK    2  A    between atoms: O_2  and  C_3
REMARK    3  A    between atoms: C_8  and  O_9
REMARK                            x       y       z     vdW  Elec       q    Type
REMARK                         _______ _______ _______ _____ _____    ______ ____
ROOT
ATOM      1  C   UNL     1       1.158  -4.626   3.266  0.00  0.00    +0.000 A 
ATOM      2  C   UNL     1       0.565  -4.003   2.168  0.00  0.00    +0.000 A 
ATOM      3  C   UNL     1      -0.777  -4.257   1.861  0.00  0.00    +0.000 A 
ATOM      4  C   UNL     1      -1.530  -5.132   2.646  0.00  0.00    +0.000 A 
ATOM      5  C   UNL     1      -0.945  -5.757   3.745  0.00  0.00    +0.000 A 
ATOM      6  C   UNL     1       0.387  -5.500   4.042  0.00  0.00    +0.000 A 
ENDROOT
BRANCH   1   8
ATOM      7  C   UNL     1       3.453  -5.125   2.905  0.00  0.00    +0.000 C 
ATOM      8  O   UNL     1       2.456  -4.472   3.682  0.00  0.00    +0.000 OA
ENDBRANCH   1   8
BRANCH   6   9
ATOM      9  O   UNL     1       0.940  -6.127   5.127  0.00  0.00    +0.000 OA
ATOM     10  H   UNL     1       0.651  -7.056   5.051  0.00  0.00    +0.000 HD
ENDBRANCH   6   9
TORSDOF 2
ENDMDL
MODEL 2
REMARK VINA RESULT:    -4.646      1.786      2.446
REMARK INTER + INTRA:          -5.096
REMARK INTER:                  -5.067
REMARK INTRA:                  -0.029
REMARK UNBOUND:                -0.043
REMARK  Name = 
REMARK  3 active torsions:
REMARK  status: ('A' for Active; 'I' for Inactive)
REMARK    1  A    between atoms: C_1  and  O_2
REMARK    2  A    between atoms: O_2  and  C_3
REMARK    3  A    between atoms: C_8  and  O_9
REMARK                            x       y       z     vdW  Elec       q    Type
REMARK                         _______ _______ _______ _____ _____    ______ ____
ROOT
ATOM      1  C   UNL     1       2.308  -5.319   3.235  0.00  0.00    +0.000 A 
ATOM      2  C   UNL     1       1.443  -5.114   4.309  0.00  0.00    +0.000 A 
ATOM      3  C   UNL     1       0.081  -5.415   4.178  0.00  0.00    +0.000 A 
ATOM      4  C   UNL     1      -0.420  -5.918   2.976  0.00  0.00    +0.000 A 
ATOM      5  C   UNL     1       0.438  -6.126   1.898  0.00  0.00    +0.000 A 
ATOM      6  C   UNL     1       1.787  -5.825   2.037  0.00  0.00    +0.000 A 
ENDROOT
BRANCH   1   8
ATOM      7  C   UNL     1       4.050  -3.713   3.058  0.00  0.00    +0.000 C 
ATOM      8  O   UNL     1       3.657  -5.070   3.221  0.00  0.00    +0.000 OA
ENDBRANCH   1   8
BRANCH   6   9
ATOM      9  O   UNL     1       2.611  -6.037   0.964  0.00  0.00    +0.000 OA
ATOM     10  H   UNL     1       2.055  -5.850   0.184  0.00  0.00    +0.000 HD
ENDBRANCH   6   9
TORSDOF 2
ENDMDL
MODEL 3
REMARK VINA RESULT:    -4.614      2.184      3.889
REMARK INTER + INTRA:          -5.062
REMARK INTER:                  -5.020
REMARK INTRA:                  -0.042
REMARK UNBOUND:                -0.043
REMARK  Name = 
REMARK  3 active torsions:
REMARK  status: ('A' for Active; 'I' for Inactive)
REMARK    1  A    between atoms: C_1  and  O_2
REMARK    2  A    between atoms: O_2  and  C_3
REMARK    3  A    between atoms: C_8  and  O_9
REMARK                            x       y       z     vdW  Elec       q    Type
REMARK                         _______ _______ _______ _____ _____    ______ ____
ROOT
ATOM      1  C   UNL     1      -0.723  -5.142   2.712  0.00  0.00    +0.000 A 
ATOM      2  C   UNL     1       0.136  -6.127   3.199  0.00  0.00    +0.000 A 
ATOM      3  C   UNL     1       1.501  -5.853   3.346  0.00  0.00    +0.000 A 
ATOM      4  C   UNL     1       2.012  -4.599   3.008  0.00  0.00    +0.000 A 
ATOM      5  C   UNL     1       1.161  -3.610   2.521  0.00  0.00    +0.000 A 
ATOM      6  C   UNL     1      -0.192  -3.890   2.378  0.00  0.00    +0.000 A 
ENDROOT
BRANCH   1   8
ATOM      7  C   UNL     1      -2.769  -6.126   3.416  0.00  0.00    +0.000 C 
ATOM      8  O   UNL     1      -2.075  -5.270   2.516  0.00  0.00    +0.000 OA
ENDBRANCH   1   8
BRANCH   6   9
ATOM      9  O   UNL     1      -1.010  -2.902   1.898  0.00  0.00    +0.000 OA
ATOM     10  H   UNL     1      -1.101  -2.273   2.638  0.00  0.00    +0.000 HD
ENDBRANCH   6   9
TORSDOF 2
ENDMDL
MODEL 4
REMARK VINA RESULT:    -4.254     24.413     25.153
REMARK INTER + INTRA:          -4.670
REMARK INTER:                  -4.618
REMARK INTRA:                  -0.053
REMARK UNBOUND:                -0.043
REMARK  Name = 
REMARK  3 active torsions:
REMARK  status: ('A' for Active; 'I' for Inactive)
REMARK    1  A    between atoms: C_1  and  O_2
REMARK    2  A    between atoms: O_2  and  C_3
REMARK    3  A    between atoms: C_8  and  O_9
REMARK                            x       y       z     vdW  Elec       q    Type
REMARK                         _______ _______ _______ _____ _____    ______ ____
ROOT
ATOM      1  C   UNL     1      -1.085  11.505 -14.963  0.00  0.00    +0.000 A 
ATOM      2  C   UNL     1       0.211  11.496 -14.450  0.00  0.00    +0.000 A 
ATOM      3  C   UNL     1       1.254  10.930 -15.195  0.00  0.00    +0.000 A 
ATOM      4  C   UNL     1       1.006  10.373 -16.451  0.00  0.00    +0.000 A 
ATOM      5  C   UNL     1      -0.287  10.380 -16.970  0.00  0.00    +0.000 A 
ATOM      6  C   UNL     1      -1.315  10.942 -16.224  0.00  0.00    +0.000 A 
ENDROOT
BRANCH   1   8
ATOM      7  C   UNL     1      -2.220  13.431 -14.157  0.00  0.00    +0.000 C 
ATOM      8  O   UNL     1      -2.197  12.021 -14.347  0.00  0.00    +0.000 OA
ENDBRANCH   1   8
BRANCH   6   9
ATOM      9  O   UNL     1      -2.577  10.936 -16.756  0.00  0.00    +0.000 OA
ATOM     10  H   UNL     1      -2.485  11.381 -17.620  0.00  0.00    +0.000 HD
ENDBRANCH   6   9
TORSDOF 2
ENDMDL
MODEL 5
REMARK VINA RESULT:    -4.127     24.458     25.508
REMARK INTER + INTRA:          -4.532
REMARK INTER:                  -4.480
REMARK INTRA:                  -0.052
REMARK UNBOUND:                -0.043
REMARK  Name = 
REMARK  3 active torsions:
REMARK  status: ('A' for Active; 'I' for Inactive)
REMARK    1  A    between atoms: C_1  and  O_2
REMARK    2  A    between atoms: O_2  and  C_3
REMARK    3  A    between atoms: C_8  and  O_9
REMARK                            x       y       z     vdW  Elec       q    Type
REMARK                         _______ _______ _______ _____ _____    ______ ____
ROOT
ATOM      1  C   UNL     1      -1.547  11.659 -15.921  0.00  0.00    +0.000 A 
ATOM      2  C   UNL     1      -1.062  10.877 -16.969  0.00  0.00    +0.000 A 
ATOM      3  C   UNL     1       0.224  10.329 -16.896  0.00  0.00    +0.000 A 
ATOM      4  C   UNL     1       1.030  10.561 -15.779  0.00  0.00    +0.000 A 
ATOM      5  C   UNL     1       0.552  11.340 -14.728  0.00  0.00    +0.000 A 
ATOM      6  C   UNL     1      -0.725  11.880 -14.809  0.00  0.00    +0.000 A 
ENDROOT
BRANCH   1   8
ATOM      7  C   UNL     1      -3.077  13.208 -16.873  0.00  0.00    +0.000 C 
ATOM      8  O   UNL     1      -2.781  12.256 -15.858  0.00  0.00    +0.000 OA
ENDBRANCH   1   8
BRANCH   6   9
ATOM      9  O   UNL     1      -1.173  12.643 -13.764  0.00  0.00    +0.000 OA
ATOM     10  H   UNL     1      -0.881  12.165 -12.964  0.00  0.00    +0.000 HD
ENDBRANCH   6   9
TORSDOF 2
ENDMDL
MODEL 6
REMARK VINA RESULT:    -4.093     25.440     26.673
REMARK INTER + INTRA:          -4.495
REMARK INTER:                  -4.457
REMARK INTRA:                  -0.038
REMARK UNBOUND:                -0.043
REMARK  Name = 
REMARK  3 active torsions:
REMARK  status: ('A' for Active; 'I' for Inactive)
REMARK    1  A    between atoms: C_1  and  O_2
REMARK    2  A    between atoms: O_2  and  C_3
REMARK    3  A    between atoms: C_8  and  O_9
REMARK                            x       y       z     vdW  Elec       q    Type
REMARK                         _______ _______ _______ _____ _____    ______ ____
ROOT
ATOM      1  C   UNL     1      11.594   9.713 -15.519  0.00  0.00    +0.000 A 
ATOM      2  C   UNL     1      12.540  10.734 -15.446  0.00  0.00    +0.000 A 
ATOM      3  C   UNL     1      12.237  12.007 -15.946  0.00  0.00    +0.000 A 
ATOM      4  C   UNL     1      10.991  12.263 -16.521  0.00  0.00    +0.000 A 
ATOM      5  C   UNL     1      10.039  11.248 -16.597  0.00  0.00    +0.000 A 
ATOM      6  C   UNL     1      10.349   9.989 -16.098  0.00  0.00    +0.000 A 
ENDROOT
BRANCH   1   8
ATOM      7  C   UNL     1      12.876   8.179 -14.235  0.00  0.00    +0.000 C 
ATOM      8  O   UNL     1      11.753   8.426 -15.072  0.00  0.00    +0.000 OA
ENDBRANCH   1   8
BRANCH   6   9
ATOM      9  O   UNL     1       9.398   9.008 -16.184  0.00  0.00    +0.000 OA
ATOM     10  H   UNL     1       9.424   8.717 -17.116  0.00  0.00    +0.000 HD
ENDBRANCH   6   9
TORSDOF 2
ENDMDL
MODEL 7
REMARK VINA RESULT:    -4.029     26.164     27.232
REMARK INTER + INTRA:          -4.426
REMARK INTER:                  -4.378
REMARK INTRA:                  -0.047
REMARK UNBOUND:                -0.043
REMARK  Name = 
REMARK  3 active torsions:
REMARK  status: ('A' for Active; 'I' for Inactive)
REMARK    1  A    between atoms: C_1  and  O_2
REMARK    2  A    between atoms: O_2  and  C_3
REMARK    3  A    between atoms: C_8  and  O_9
REMARK                            x       y       z     vdW  Elec       q    Type
REMARK                         _______ _______ _______ _____ _____    ______ ____
ROOT
ATOM      1  C   UNL     1      10.244  11.199 -16.458  0.00  0.00    +0.000 A 
ATOM      2  C   UNL     1      11.109  12.292 -16.486  0.00  0.00    +0.000 A 
ATOM      3  C   UNL     1      12.386  12.188 -15.919  0.00  0.00    +0.000 A 
ATOM      4  C   UNL     1      12.801  10.996 -15.323  0.00  0.00    +0.000 A 
ATOM      5  C   UNL     1      11.943   9.900 -15.291  0.00  0.00    +0.000 A 
ATOM      6  C   UNL     1      10.678  10.011 -15.855  0.00  0.00    +0.000 A 
ENDROOT
BRANCH   1   8
ATOM      7  C   UNL     1       8.121  12.249 -16.643  0.00  0.00    +0.000 C 
ATOM      8  O   UNL     1       8.972  11.158 -16.970  0.00  0.00    +0.000 OA
ENDBRANCH   1   8
BRANCH   6   9
ATOM      9  O   UNL     1       9.852   8.920 -15.811  0.00  0.00    +0.000 OA
ATOM     10  H   UNL     1       9.053   9.193 -16.302  0.00  0.00    +0.000 HD
ENDBRANCH   6   9
TORSDOF 2
ENDMDL
MODEL 8
REMARK VINA RESULT:    -3.807     25.598     26.067
REMARK INTER + INTRA:          -4.183
REMARK INTER:                  -4.143
REMARK INTRA:                  -0.040
REMARK UNBOUND:                -0.043
REMARK  Name = 
REMARK  3 active torsions:
REMARK  status: ('A' for Active; 'I' for Inactive)
REMARK    1  A    between atoms: C_1  and  O_2
REMARK    2  A    between atoms: O_2  and  C_3
REMARK    3  A    between atoms: C_8  and  O_9
REMARK                            x       y       z     vdW  Elec       q    Type
REMARK                         _______ _______ _______ _____ _____    ______ ____
ROOT
ATOM      1  C   UNL     1      -1.293  12.621 -15.512  0.00  0.00    +0.000 A 
ATOM      2  C   UNL     1       0.051  12.251 -15.529  0.00  0.00    +0.000 A 
ATOM      3  C   UNL     1       0.459  11.127 -16.257  0.00  0.00    +0.000 A 
ATOM      4  C   UNL     1      -0.473  10.369 -16.970  0.00  0.00    +0.000 A 
ATOM      5  C   UNL     1      -1.817  10.733 -16.959  0.00  0.00    +0.000 A 
ATOM      6  C   UNL     1      -2.213  11.849 -16.233  0.00  0.00    +0.000 A 
ENDROOT
BRANCH   1   8
ATOM      7  C   UNL     1      -1.607  14.974 -15.417  0.00  0.00    +0.000 C 
ATOM      8  O   UNL     1      -1.832  13.692 -14.845  0.00  0.00    +0.000 OA
ENDBRANCH   1   8
BRANCH   6   9
ATOM      9  O   UNL     1      -3.540  12.186 -16.237  0.00  0.00    +0.000 OA
ATOM     10  H   UNL     1      -4.010  11.342 -16.378  0.00  0.00    +0.000 HD
ENDBRANCH   6   9
TORSDOF 2
ENDMDL
MODEL 9
REMARK VINA RESULT:    -3.483      0.963      2.181
REMARK INTER + INTRA:          -3.832
REMARK INTER:                  -3.785
REMARK INTRA:                  -0.047
REMARK UNBOUND:                -0.043
REMARK  Name = 
REMARK  3 active torsions:
REMARK  status: ('A' for Active; 'I' for Inactive)
REMARK    1  A    between atoms: C_1  and  O_2
REMARK    2  A    between atoms: O_2  and  C_3
REMARK    3  A    between atoms: C_8  and  O_9
REMARK                            x       y       z     vdW  Elec       q    Type
REMARK                         _______ _______ _______ _____ _____    ______ ____
ROOT
ATOM      1  C   UNL     1       1.057  -4.882   3.293  0.00  0.00    +0.000 A 
ATOM      2  C   UNL     1       0.324  -6.006   3.671  0.00  0.00    +0.000 A 
ATOM      3  C   UNL     1      -1.018  -6.127   3.288  0.00  0.00    +0.000 A 
ATOM      4  C   UNL     1      -1.630  -5.128   2.529  0.00  0.00    +0.000 A 
ATOM      5  C   UNL     1      -0.904  -4.002   2.147  0.00  0.00    +0.000 A 
ATOM      6  C   UNL     1       0.426  -3.891   2.532  0.00  0.00    +0.000 A 
ENDROOT
BRANCH   1   8
ATOM      7  C   UNL     1       3.342  -5.406   2.900  0.00  0.00    +0.000 C 
ATOM      8  O   UNL     1       2.372  -4.632   3.596  0.00  0.00    +0.000 OA
ENDBRANCH   1   8
BRANCH   6   9
ATOM      9  O   UNL     1       1.120  -2.775   2.145  0.00  0.00    +0.000 OA
ATOM     10  H   UNL     1       1.632  -2.515   2.934  0.00  0.00    +0.000 HD
ENDBRANCH   6   9
TORSDOF 2
ENDMDL
