MODEL 1
REMARK VINA RESULT:    -4.438      0.000      0.000
REMARK INTER + INTRA:          -6.437
REMARK INTER:                  -5.995
REMARK INTRA:                  -0.442
REMARK UNBOUND:                -0.442
REMARK  Name = 
REMARK  10 active torsions:
REMARK  status: ('A' for Active; 'I' for Inactive)
REMARK    1  A    between atoms: C_1  and  C_2
REMARK    2  A    between atoms: C_5  and  N_8
REMARK    3  A    between atoms: N_8  and  C_9
REMARK    4  A    between atoms: N_8  and  C_13
REMARK    5  A    between atoms: C_9  and  C_10
REMARK    6  A    between atoms: C_10  and  C_11
REMARK    7  A    between atoms: C_10  and  O_12
REMARK    8  A    between atoms: C_13  and  C_14
REMARK    9  A    between atoms: C_14  and  C_15
REMARK   10  A    between atoms: C_14  and  O_16
REMARK                            x       y       z     vdW  Elec       q    Type
REMARK                         _______ _______ _______ _____ _____    ______ ____
ROOT
ATOM      1  N   UNL     1      11.736  12.112 -15.179  0.00  0.00    +0.000 N 
ENDROOT
BRANCH   1   6
ATOM      2  C   UNL     1      16.609  14.839 -13.713  0.00  0.00    +0.000 C 
ATOM      3  C   UNL     1      15.335  14.153 -14.102  0.00  0.00    +0.000 A 
ATOM      4  C   UNL     1      14.289  14.021 -13.195  0.00  0.00    +0.000 A 
ATOM      5  C   UNL     1      13.108  13.351 -13.556  0.00  0.00    +0.000 A 
ATOM      6  C   UNL     1      12.923  12.762 -14.820  0.00  0.00    +0.000 A 
ATOM      7  C   UNL     1      14.001  12.916 -15.711  0.00  0.00    +0.000 A 
ATOM      8  C   UNL     1      15.186  13.586 -15.364  0.00  0.00    +0.000 A 
ENDBRANCH   1   6
BRANCH   1   9
ATOM      9  C   UNL     1      11.435  10.763 -14.642  0.00  0.00    +0.000 C 
BRANCH   9  10
ATOM     10  C   UNL     1      11.293   9.693 -15.752  0.00  0.00    +0.000 C 
ATOM     11  C   UNL     1      12.190   8.493 -15.470  0.00  0.00    +0.000 C 
BRANCH  10  12
ATOM     12  O   UNL     1       9.941   9.224 -15.845  0.00  0.00    +0.000 OA
ATOM     13  H   UNL     1       9.409   9.922 -16.262  0.00  0.00    +0.000 HD
ENDBRANCH  10  12
ENDBRANCH   9  10
ENDBRANCH   1   9
BRANCH   1  14
ATOM     14  C   UNL     1      11.018  12.459 -16.432  0.00  0.00    +0.000 C 
BRANCH  14  15
ATOM     15  C   UNL     1       9.650  13.127 -16.156  0.00  0.00    +0.000 C 
ATOM     16  C   UNL     1       8.469  12.305 -16.659  0.00  0.00    +0.000 C 
BRANCH  15  17
ATOM     17  O   UNL     1       9.455  13.373 -14.764  0.00  0.00    +0.000 OA
ATOM     18  H   UNL     1       8.562  13.025 -14.568  0.00  0.00    +0.000 HD
ENDBRANCH  15  17
ENDBRANCH  14  15
ENDBRANCH   1  14
TORSDOF 7
ENDMDL
MODEL 2
REMARK VINA RESULT:    -4.437      9.100     12.281
REMARK INTER + INTRA:          -6.435
REMARK INTER:                  -6.052
REMARK INTRA:                  -0.383
REMARK UNBOUND:                -0.442
REMARK  Name = 
REMARK  10 active torsions:
REMARK  status: ('A' for Active; 'I' for Inactive)
REMARK    1  A    between atoms: C_1  and  C_2
REMARK    2  A    between atoms: C_5  and  N_8
REMARK    3  A    between atoms: N_8  and  C_9
REMARK    4  A    between atoms: N_8  and  C_13
REMARK    5  A    between atoms: C_9  and  C_10
REMARK    6  A    between atoms: C_10  and  C_11
REMARK    7  A    between atoms: C_10  and  O_12
REMARK    8  A    between atoms: C_13  and  C_14
REMARK    9  A    between atoms: C_14  and  C_15
REMARK   10  A    between atoms: C_14  and  O_16
REMARK                            x       y       z     vdW  Elec       q    Type
REMARK                         _______ _______ _______ _____ _____    ______ ____
ROOT
ATOM      1  N   UNL     1      -0.175  13.504 -16.128  0.00  0.00    +0.000 N 
ENDROOT
BRANCH   1   6
ATOM      2  C   UNL     1       5.338  11.925 -16.789  0.00  0.00    +0.000 C 
ATOM      3  C   UNL     1       3.903  12.328 -16.642  0.00  0.00    +0.000 A 
ATOM      4  C   UNL     1       3.501  13.639 -16.878  0.00  0.00    +0.000 A 
ATOM      5  C   UNL     1       2.160  14.018 -16.709  0.00  0.00    +0.000 A 
ATOM      6  C   UNL     1       1.164  13.123 -16.276  0.00  0.00    +0.000 A 
ATOM      7  C   UNL     1       1.606  11.807 -16.048  0.00  0.00    +0.000 A 
ATOM      8  C   UNL     1       2.944  11.414 -16.216  0.00  0.00    +0.000 A 
ENDBRANCH   1   6
BRANCH   1   9
ATOM      9  C   UNL     1      -1.164  12.546 -15.577  0.00  0.00    +0.000 C 
BRANCH   9  10
ATOM     10  C   UNL     1      -2.113  11.974 -16.658  0.00  0.00    +0.000 C 
ATOM     11  C   UNL     1      -1.776  10.520 -16.965  0.00  0.00    +0.000 C 
BRANCH  10  12
ATOM     12  O   UNL     1      -3.479  12.032 -16.226  0.00  0.00    +0.000 OA
ATOM     13  H   UNL     1      -3.725  11.155 -15.886  0.00  0.00    +0.000 HD
ENDBRANCH  10  12
ENDBRANCH   9  10
ENDBRANCH   1   9
BRANCH   1  14
ATOM     14  C   UNL     1      -0.757  14.602 -16.942  0.00  0.00    +0.000 C 
BRANCH  14  15
ATOM     15  C   UNL     1      -1.462  15.667 -16.068  0.00  0.00    +0.000 C 
ATOM     16  C   UNL     1      -2.974  15.690 -16.253  0.00  0.00    +0.000 C 
BRANCH  15  17
ATOM     17  O   UNL     1      -1.190  15.474 -14.680  0.00  0.00    +0.000 OA
ATOM     18  H   UNL     1      -1.811  14.773 -14.396  0.00  0.00    +0.000 HD
ENDBRANCH  15  17
ENDBRANCH  14  15
ENDBRANCH   1  14
TORSDOF 7
ENDMDL
MODEL 3
REMARK VINA RESULT:    -4.151      2.660      4.848
REMARK INTER + INTRA:          -6.048
REMARK INTER:                  -5.545
REMARK INTRA:                  -0.503
REMARK UNBOUND:                -0.442
REMARK  Name = 
REMARK  10 active torsions:
REMARK  status: ('A' for Active; 'I' for Inactive)
REMARK    1  A    between atoms: C_1  and  C_2
REMARK    2  A    between atoms: C_5  and  N_8
REMARK    3  A    between atoms: N_8  and  C_9
REMARK    4  A    between atoms: N_8  and  C_13
REMARK    5  A    between atoms: C_9  and  C_10
REMARK    6  A    between atoms: C_10  and  C_11
REMARK    7  A    between atoms: C_10  and  O_12
REMARK    8  A    between atoms: C_13  and  C_14
REMARK    9  A    between atoms: C_14  and  C_15
REMARK   10  A    between atoms: C_14  and  O_16
REMARK                            x       y       z     vdW  Elec       q    Type
REMARK                         _______ _______ _______ _____ _____    ______ ____
ROOT
ATOM      1  N   UNL     1      10.097  13.068 -16.248  0.00  0.00    +0.000 N 
ENDROOT
BRANCH   1   6
ATOM      2  C   UNL     1      12.723   8.147 -14.758  0.00  0.00    +0.000 C 
ATOM      3  C   UNL     1      12.030   9.424 -15.123  0.00  0.00    +0.000 A 
ATOM      4  C   UNL     1      10.811   9.410 -15.792  0.00  0.00    +0.000 A 
ATOM      5  C   UNL     1      10.180  10.610 -16.157  0.00  0.00    +0.000 A 
ATOM      6  C   UNL     1      10.741  11.874 -15.898  0.00  0.00    +0.000 A 
ATOM      7  C   UNL     1      11.972  11.851 -15.218  0.00  0.00    +0.000 A 
ATOM      8  C   UNL     1      12.612  10.657 -14.845  0.00  0.00    +0.000 A 
ENDBRANCH   1   6
BRANCH   1   9
ATOM      9  C   UNL     1       8.796  13.030 -16.957  0.00  0.00    +0.000 C 
BRANCH   9  10
ATOM     10  C   UNL     1       7.731  13.948 -16.308  0.00  0.00    +0.000 C 
ATOM     11  C   UNL     1       6.334  13.599 -16.805  0.00  0.00    +0.000 C 
BRANCH  10  12
ATOM     12  O   UNL     1       7.741  13.816 -14.879  0.00  0.00    +0.000 OA
ATOM     13  H   UNL     1       6.886  14.132 -14.542  0.00  0.00    +0.000 HD
ENDBRANCH  10  12
ENDBRANCH   9  10
ENDBRANCH   1   9
BRANCH   1  14
ATOM     14  C   UNL     1      10.858  14.334 -16.406  0.00  0.00    +0.000 C 
BRANCH  14  15
ATOM     15  C   UNL     1      10.996  15.103 -15.070  0.00  0.00    +0.000 C 
ATOM     16  C   UNL     1      12.270  15.935 -14.987  0.00  0.00    +0.000 C 
BRANCH  15  17
ATOM     17  O   UNL     1       9.886  15.970 -14.843  0.00  0.00    +0.000 OA
ATOM     18  H   UNL     1       9.132  15.373 -14.662  0.00  0.00    +0.000 HD
ENDBRANCH  15  17
ENDBRANCH  14  15
ENDBRANCH   1  14
TORSDOF 7
ENDMDL
MODEL 4
REMARK VINA RESULT:    -4.101      0.744      3.218
REMARK INTER + INTRA:          -5.981
REMARK INTER:                  -5.763
REMARK INTRA:                  -0.218
REMARK UNBOUND:                -0.442
REMARK  Name = 
REMARK  10 active torsions:
REMARK  status: ('A' for Active; 'I' for Inactive)
REMARK    1  A    between atoms: C_1  and  C_2
REMARK    2  A    between atoms: C_5  and  N_8
REMARK    3  A    between atoms: N_8  and  C_9
REMARK    4  A    between atoms: N_8  and  C_13
REMARK    5  A    between atoms: C_9  and  C_10
REMARK    6  A    between atoms: C_10  and  C_11
REMARK    7  A    between atoms: C_10  and  O_12
REMARK    8  A    between atoms: C_13  and  C_14
REMARK    9  A    between atoms: C_14  and  C_15
REMARK   10  A    between atoms: C_14  and  O_16
REMARK                            x       y       z     vdW  Elec       q    Type
REMARK                         _______ _______ _______ _____ _____    ______ ____
ROOT
ATOM      1  N   UNL     1      12.308  11.748 -15.586  0.00  0.00    +0.000 N 
ENDROOT
BRANCH   1   6
ATOM      2  C   UNL     1      16.739  15.101 -14.022  0.00  0.00    +0.000 C 
ATOM      3  C   UNL     1      15.576  14.251 -14.433  0.00  0.00    +0.000 A 
ATOM      4  C   UNL     1      14.649  13.808 -13.495  0.00  0.00    +0.000 A 
ATOM      5  C   UNL     1      13.577  12.986 -13.881  0.00  0.00    +0.000 A 
ATOM      6  C   UNL     1      13.390  12.551 -15.205  0.00  0.00    +0.000 A 
ATOM      7  C   UNL     1      14.344  13.020 -16.126  0.00  0.00    +0.000 A 
ATOM      8  C   UNL     1      15.420  13.844 -15.754  0.00  0.00    +0.000 A 
ENDBRANCH   1   6
BRANCH   1   9
ATOM      9  C   UNL     1      11.322  12.249 -16.575  0.00  0.00    +0.000 C 
BRANCH   9  10
ATOM     10  C   UNL     1      10.481  13.432 -16.037  0.00  0.00    +0.000 C 
ATOM     11  C   UNL     1       9.316  13.740 -16.970  0.00  0.00    +0.000 C 
BRANCH  10  12
ATOM     12  O   UNL     1       9.944  13.134 -14.740  0.00  0.00    +0.000 OA
ATOM     13  H   UNL     1      10.185  13.860 -14.141  0.00  0.00    +0.000 HD
ENDBRANCH  10  12
ENDBRANCH   9  10
ENDBRANCH   1   9
BRANCH   1  14
ATOM     14  C   UNL     1      11.811  10.658 -14.707  0.00  0.00    +0.000 C 
BRANCH  14  15
ATOM     15  C   UNL     1      11.834   9.281 -15.413  0.00  0.00    +0.000 C 
ATOM     16  C   UNL     1      12.599   8.220 -14.632  0.00  0.00    +0.000 C 
BRANCH  15  17
ATOM     17  O   UNL     1      10.517   8.790 -15.653  0.00  0.00    +0.000 OA
ATOM     18  H   UNL     1      10.576   7.825 -15.502  0.00  0.00    +0.000 HD
ENDBRANCH  15  17
ENDBRANCH  14  15
ENDBRANCH   1  14
TORSDOF 7
ENDMDL
MODEL 5
REMARK VINA RESULT:    -3.972      2.718      4.886
REMARK INTER + INTRA:          -5.807
REMARK INTER:                  -5.299
REMARK INTRA:                  -0.508
REMARK UNBOUND:                -0.442
REMARK  Name = 
REMARK  10 active torsions:
REMARK  status: ('A' for Active; 'I' for Inactive)
REMARK    1  A    between atoms: C_1  and  C_2
REMARK    2  A    between atoms: C_5  and  N_8
REMARK    3  A    between atoms: N_8  and  C_9
REMARK    4  A    between atoms: N_8  and  C_13
REMARK    5  A    between atoms: C_9  and  C_10
REMARK    6  A    between atoms: C_10  and  C_11
REMARK    7  A    between atoms: C_10  and  O_12
REMARK    8  A    between atoms: C_13  and  C_14
REMARK    9  A    between atoms: C_14  and  C_15
REMARK   10  A    between atoms: C_14  and  O_16
REMARK                            x       y       z     vdW  Elec       q    Type
REMARK                         _______ _______ _______ _____ _____    ______ ____
ROOT
ATOM      1  N   UNL     1       9.798  13.489 -16.087  0.00  0.00    +0.000 N 
ENDROOT
BRANCH   1   6
ATOM      2  C   UNL     1      12.197   8.294 -15.320  0.00  0.00    +0.000 C 
ATOM      3  C   UNL     1      11.587   9.645 -15.541  0.00  0.00    +0.000 A 
ATOM      4  C   UNL     1      12.197  10.794 -15.049  0.00  0.00    +0.000 A 
ATOM      5  C   UNL     1      11.605  12.054 -15.233  0.00  0.00    +0.000 A 
ATOM      6  C   UNL     1      10.374  12.227 -15.890  0.00  0.00    +0.000 A 
ATOM      7  C   UNL     1       9.786  11.045 -16.375  0.00  0.00    +0.000 A 
ATOM      8  C   UNL     1      10.368   9.778 -16.200  0.00  0.00    +0.000 A 
ENDBRANCH   1   6
BRANCH   1   9
ATOM      9  C   UNL     1      10.087  14.594 -15.141  0.00  0.00    +0.000 C 
BRANCH   9  10
ATOM     10  C   UNL     1      11.105  15.615 -15.704  0.00  0.00    +0.000 C 
ATOM     11  C   UNL     1      12.281  15.794 -14.751  0.00  0.00    +0.000 C 
BRANCH  10  12
ATOM     12  O   UNL     1      11.621  15.183 -16.970  0.00  0.00    +0.000 OA
ATOM     13  H   UNL     1      10.982  14.565 -17.361  0.00  0.00    +0.000 HD
ENDBRANCH  10  12
ENDBRANCH   9  10
ENDBRANCH   1   9
BRANCH   1  14
ATOM     14  C   UNL     1       8.547  13.650 -16.872  0.00  0.00    +0.000 C 
BRANCH  14  15
ATOM     15  C   UNL     1       7.312  13.863 -15.964  0.00  0.00    +0.000 C 
ATOM     16  C   UNL     1       6.436  15.029 -16.407  0.00  0.00    +0.000 C 
BRANCH  15  17
ATOM     17  O   UNL     1       6.495  12.695 -15.903  0.00  0.00    +0.000 OA
ATOM     18  H   UNL     1       6.256  12.505 -16.833  0.00  0.00    +0.000 HD
ENDBRANCH  15  17
ENDBRANCH  14  15
ENDBRANCH   1  14
TORSDOF 7
ENDMDL
MODEL 6
REMARK VINA RESULT:    -3.871     10.075     13.406
REMARK INTER + INTRA:          -5.671
REMARK INTER:                  -5.269
REMARK INTRA:                  -0.402
REMARK UNBOUND:                -0.442
REMARK  Name = 
REMARK  10 active torsions:
REMARK  status: ('A' for Active; 'I' for Inactive)
REMARK    1  A    between atoms: C_1  and  C_2
REMARK    2  A    between atoms: C_5  and  N_8
REMARK    3  A    between atoms: N_8  and  C_9
REMARK    4  A    between atoms: N_8  and  C_13
REMARK    5  A    between atoms: C_9  and  C_10
REMARK    6  A    between atoms: C_10  and  C_11
REMARK    7  A    between atoms: C_10  and  O_12
REMARK    8  A    between atoms: C_13  and  C_14
REMARK    9  A    between atoms: C_14  and  C_15
REMARK   10  A    between atoms: C_14  and  O_16
REMARK                            x       y       z     vdW  Elec       q    Type
REMARK                         _______ _______ _______ _____ _____    ______ ____
ROOT
ATOM      1  N   UNL     1      -1.536  12.794 -15.508  0.00  0.00    +0.000 N 
ENDROOT
BRANCH   1   6
ATOM      2  C   UNL     1       4.005  11.364 -16.271  0.00  0.00    +0.000 C 
ATOM      3  C   UNL     1       2.562  11.730 -16.097  0.00  0.00    +0.000 A 
ATOM      4  C   UNL     1       2.134  13.043 -16.261  0.00  0.00    +0.000 A 
ATOM      5  C   UNL     1       0.786  13.385 -16.067  0.00  0.00    +0.000 A 
ATOM      6  C   UNL     1      -0.190  12.449 -15.681  0.00  0.00    +0.000 A 
ATOM      7  C   UNL     1       0.279  11.131 -15.526  0.00  0.00    +0.000 A 
ATOM      8  C   UNL     1       1.624  10.775 -15.719  0.00  0.00    +0.000 A 
ENDBRANCH   1   6
BRANCH   1   9
ATOM      9  C   UNL     1      -2.321  12.194 -14.402  0.00  0.00    +0.000 C 
BRANCH   9  10
ATOM     10  C   UNL     1      -2.787  13.241 -13.361  0.00  0.00    +0.000 C 
ATOM     11  C   UNL     1      -3.480  12.566 -12.183  0.00  0.00    +0.000 C 
BRANCH  10  12
ATOM     12  O   UNL     1      -1.676  13.991 -12.852  0.00  0.00    +0.000 OA
ATOM     13  H   UNL     1      -2.023  14.794 -12.428  0.00  0.00    +0.000 HD
ENDBRANCH  10  12
ENDBRANCH   9  10
ENDBRANCH   1   9
BRANCH   1  14
ATOM     14  C   UNL     1      -2.347  13.317 -16.638  0.00  0.00    +0.000 C 
BRANCH  14  15
ATOM     15  C   UNL     1      -2.518  14.853 -16.572  0.00  0.00    +0.000 C 
ATOM     16  C   UNL     1      -3.976  15.296 -16.596  0.00  0.00    +0.000 C 
BRANCH  15  17
ATOM     17  O   UNL     1      -1.909  15.402 -15.404  0.00  0.00    +0.000 OA
ATOM     18  H   UNL     1      -2.274  14.881 -14.660  0.00  0.00    +0.000 HD
ENDBRANCH  15  17
ENDBRANCH  14  15
ENDBRANCH   1  14
TORSDOF 7
ENDMDL
MODEL 7
REMARK VINA RESULT:    -3.818      2.657      5.641
REMARK INTER + INTRA:          -5.600
REMARK INTER:                  -5.136
REMARK INTRA:                  -0.464
REMARK UNBOUND:                -0.442
REMARK  Name = 
REMARK  10 active torsions:
REMARK  status: ('A' for Active; 'I' for Inactive)
REMARK    1  A    between atoms: C_1  and  C_2
REMARK    2  A    between atoms: C_5  and  N_8
REMARK    3  A    between atoms: N_8  and  C_9
REMARK    4  A    between atoms: N_8  and  C_13
REMARK    5  A    between atoms: C_9  and  C_10
REMARK    6  A    between atoms: C_10  and  C_11
REMARK    7  A    between atoms: C_10  and  O_12
REMARK    8  A    between atoms: C_13  and  C_14
REMARK    9  A    between atoms: C_14  and  C_15
REMARK   10  A    between atoms: C_14  and  O_16
REMARK                            x       y       z     vdW  Elec       q    Type
REMARK                         _______ _______ _______ _____ _____    ______ ____
ROOT
ATOM      1  N   UNL     1      13.453  14.155 -15.436  0.00  0.00    +0.000 N 
ENDROOT
BRANCH   1   6
ATOM      2  C   UNL     1       9.949   9.638 -16.240  0.00  0.00    +0.000 C 
ATOM      3  C   UNL     1      10.868  10.806 -16.055  0.00  0.00    +0.000 A 
ATOM      4  C   UNL     1      12.121  10.644 -15.475  0.00  0.00    +0.000 A 
ATOM      5  C   UNL     1      12.967  11.748 -15.275  0.00  0.00    +0.000 A 
ATOM      6  C   UNL     1      12.598  13.061 -15.619  0.00  0.00    +0.000 A 
ATOM      7  C   UNL     1      11.325  13.187 -16.205  0.00  0.00    +0.000 A 
ATOM      8  C   UNL     1      10.470  12.092 -16.412  0.00  0.00    +0.000 A 
ENDBRANCH   1   6
BRANCH   1   9
ATOM      9  C   UNL     1      13.402  14.935 -14.176  0.00  0.00    +0.000 C 
BRANCH   9  10
ATOM     10  C   UNL     1      13.725  14.080 -12.926  0.00  0.00    +0.000 C 
ATOM     11  C   UNL     1      15.209  13.736 -12.871  0.00  0.00    +0.000 C 
BRANCH  10  12
ATOM     12  O   UNL     1      13.386  14.781 -11.722  0.00  0.00    +0.000 OA
ATOM     13  H   UNL     1      12.470  15.094 -11.803  0.00  0.00    +0.000 HD
ENDBRANCH  10  12
ENDBRANCH   9  10
ENDBRANCH   1   9
BRANCH   1  14
ATOM     14  C   UNL     1      14.037  14.877 -16.595  0.00  0.00    +0.000 C 
BRANCH  14  15
ATOM     15  C   UNL     1      15.551  14.598 -16.754  0.00  0.00    +0.000 C 
ATOM     16  C   UNL     1      16.427  15.596 -16.006  0.00  0.00    +0.000 C 
BRANCH  15  17
ATOM     17  O   UNL     1      15.896  13.287 -16.309  0.00  0.00    +0.000 OA
ATOM     18  H   UNL     1      16.838  13.347 -16.053  0.00  0.00    +0.000 HD
ENDBRANCH  15  17
ENDBRANCH  14  15
ENDBRANCH   1  14
TORSDOF 7
ENDMDL
MODEL 8
REMARK VINA RESULT:    -3.799      8.384     11.763
REMARK INTER + INTRA:          -5.573
REMARK INTER:                  -5.332
REMARK INTRA:                  -0.241
REMARK UNBOUND:                -0.442
REMARK  Name = 
REMARK  10 active torsions:
REMARK  status: ('A' for Active; 'I' for Inactive)
REMARK    1  A    between atoms: C_1  and  C_2
REMARK    2  A    between atoms: C_5  and  N_8
REMARK    3  A    between atoms: N_8  and  C_9
REMARK    4  A    between atoms: N_8  and  C_13
REMARK    5  A    between atoms: C_9  and  C_10
REMARK    6  A    between atoms: C_10  and  C_11
REMARK    7  A    between atoms: C_10  and  O_12
REMARK    8  A    between atoms: C_13  and  C_14
REMARK    9  A    between atoms: C_14  and  C_15
REMARK   10  A    between atoms: C_14  and  O_16
REMARK                            x       y       z     vdW  Elec       q    Type
REMARK                         _______ _______ _______ _____ _____    ______ ____
ROOT
ATOM      1  N   UNL     1       0.494  12.734 -16.401  0.00  0.00    +0.000 N 
ENDROOT
BRANCH   1   6
ATOM      2  C   UNL     1       6.237  12.273 -16.768  0.00  0.00    +0.000 C 
ATOM      3  C   UNL     1       4.749  12.400 -16.649  0.00  0.00    +0.000 A 
ATOM      4  C   UNL     1       3.968  11.316 -16.262  0.00  0.00    +0.000 A 
ATOM      5  C   UNL     1       2.571  11.433 -16.182  0.00  0.00    +0.000 A 
ATOM      6  C   UNL     1       1.887  12.619 -16.503  0.00  0.00    +0.000 A 
ATOM      7  C   UNL     1       2.708  13.695 -16.887  0.00  0.00    +0.000 A 
ATOM      8  C   UNL     1       4.106  13.592 -16.970  0.00  0.00    +0.000 A 
ENDBRANCH   1   6
BRANCH   1   9
ATOM      9  C   UNL     1      -0.190  13.947 -16.909  0.00  0.00    +0.000 C 
BRANCH   9  10
ATOM     10  C   UNL     1      -1.192  14.542 -15.889  0.00  0.00    +0.000 C 
ATOM     11  C   UNL     1      -0.853  15.994 -15.575  0.00  0.00    +0.000 C 
BRANCH  10  12
ATOM     12  O   UNL     1      -2.532  14.499 -16.399  0.00  0.00    +0.000 OA
ATOM     13  H   UNL     1      -3.100  14.100 -15.720  0.00  0.00    +0.000 HD
ENDBRANCH  10  12
ENDBRANCH   9  10
ENDBRANCH   1   9
BRANCH   1  14
ATOM     14  C   UNL     1      -0.268  11.966 -15.384  0.00  0.00    +0.000 C 
BRANCH  14  15
ATOM     15  C   UNL     1      -1.032  10.772 -16.005  0.00  0.00    +0.000 C 
ATOM     16  C   UNL     1      -2.340  11.178 -16.672  0.00  0.00    +0.000 C 
BRANCH  15  17
ATOM     17  O   UNL     1      -0.238  10.083 -16.970  0.00  0.00    +0.000 OA
ATOM     18  H   UNL     1      -0.618   9.183 -17.013  0.00  0.00    +0.000 HD
ENDBRANCH  15  17
ENDBRANCH  14  15
ENDBRANCH   1  14
TORSDOF 7
ENDMDL
