MODEL 1
REMARK VINA RESULT:    -4.435      0.000      0.000
REMARK INTER + INTRA:          -6.626
REMARK INTER:                  -5.991
REMARK INTRA:                  -0.635
REMARK UNBOUND:                -0.635
REMARK  Name = 
REMARK  10 active torsions:
REMARK  status: ('A' for Active; 'I' for Inactive)
REMARK    1  A    between atoms: C_1  and  C_2
REMARK    2  A    between atoms: C_5  and  N_8
REMARK    3  A    between atoms: N_8  and  C_9
REMARK    4  A    between atoms: N_8  and  C_13
REMARK    5  A    between atoms: C_9  and  C_10
REMARK    6  A    between atoms: C_10  and  C_11
REMARK    7  A    between atoms: C_10  and  O_12
REMARK    8  A    between atoms: C_13  and  C_14
REMARK    9  A    between atoms: C_14  and  C_15
REMARK   10  A    between atoms: C_14  and  O_16
REMARK                            x       y       z     vdW  Elec       q    Type
REMARK                         _______ _______ _______ _____ _____    ______ ____
ROOT
ATOM      1  N   UNL     1      12.303  12.155 -15.385  0.00  0.00    +0.000 N 
ENDROOT
BRANCH   1   6
ATOM      2  C   UNL     1      17.054  14.907 -13.598  0.00  0.00    +0.000 C 
ATOM      3  C   UNL     1      15.832  14.171 -14.057  0.00  0.00    +0.000 A 
ATOM      4  C   UNL     1      15.672  13.814 -15.391  0.00  0.00    +0.000 A 
ATOM      5  C   UNL     1      14.511  13.151 -15.821  0.00  0.00    +0.000 A 
ATOM      6  C   UNL     1      13.450  12.834 -14.953  0.00  0.00    +0.000 A 
ATOM      7  C   UNL     1      13.647  13.209 -13.611  0.00  0.00    +0.000 A 
ATOM      8  C   UNL     1      14.804  13.870 -13.168  0.00  0.00    +0.000 A 
ENDBRANCH   1   6
BRANCH   1   9
ATOM      9  C   UNL     1      11.301  12.850 -16.229  0.00  0.00    +0.000 C 
BRANCH   9  10
ATOM     10  C   UNL     1       9.999  13.186 -15.461  0.00  0.00    +0.000 C 
ATOM     11  C   UNL     1       9.620  14.650 -15.645  0.00  0.00    +0.000 C 
BRANCH  10  12
ATOM     12  O   UNL     1       8.906  12.382 -15.926  0.00  0.00    +0.000 OA
ATOM     13  H   UNL     1       8.849  12.480 -16.891  0.00  0.00    +0.000 HD
ENDBRANCH  10  12
ENDBRANCH   9  10
ENDBRANCH   1   9
BRANCH   1  14
ATOM     14  C   UNL     1      11.787  10.973 -14.649  0.00  0.00    +0.000 C 
BRANCH  14  15
ATOM     15  C   UNL     1      11.453   9.796 -15.596  0.00  0.00    +0.000 C 
ATOM     16  C   UNL     1      12.190   8.510 -15.239  0.00  0.00    +0.000 C 
BRANCH  15  17
ATOM     17  O   UNL     1      10.055   9.513 -15.612  0.00  0.00    +0.000 OA
ATOM     18  H   UNL     1       9.619  10.386 -15.544  0.00  0.00    +0.000 HD
ENDBRANCH  15  17
ENDBRANCH  14  15
ENDBRANCH   1  14
TORSDOF 7
ENDMDL
MODEL 2
REMARK VINA RESULT:    -4.416      0.902      3.196
REMARK INTER + INTRA:          -6.599
REMARK INTER:                  -6.072
REMARK INTRA:                  -0.527
REMARK UNBOUND:                -0.635
REMARK  Name = 
REMARK  10 active torsions:
REMARK  status: ('A' for Active; 'I' for Inactive)
REMARK    1  A    between atoms: C_1  and  C_2
REMARK    2  A    between atoms: C_5  and  N_8
REMARK    3  A    between atoms: N_8  and  C_9
REMARK    4  A    between atoms: N_8  and  C_13
REMARK    5  A    between atoms: C_9  and  C_10
REMARK    6  A    between atoms: C_10  and  C_11
REMARK    7  A    between atoms: C_10  and  O_12
REMARK    8  A    between atoms: C_13  and  C_14
REMARK    9  A    between atoms: C_14  and  C_15
REMARK   10  A    between atoms: C_14  and  O_16
REMARK                            x       y       z     vdW  Elec       q    Type
REMARK                         _______ _______ _______ _____ _____    ______ ____
ROOT
ATOM      1  N   UNL     1      12.221  12.338 -15.392  0.00  0.00    +0.000 N 
ENDROOT
BRANCH   1   6
ATOM      2  C   UNL     1      16.139  15.159 -12.227  0.00  0.00    +0.000 C 
ATOM      3  C   UNL     1      15.131  14.405 -13.039  0.00  0.00    +0.000 A 
ATOM      4  C   UNL     1      15.416  14.006 -14.340  0.00  0.00    +0.000 A 
ATOM      5  C   UNL     1      14.457  13.325 -15.107  0.00  0.00    +0.000 A 
ATOM      6  C   UNL     1      13.167  13.033 -14.628  0.00  0.00    +0.000 A 
ATOM      7  C   UNL     1      12.914  13.450 -13.308  0.00  0.00    +0.000 A 
ATOM      8  C   UNL     1      13.866  14.129 -12.530  0.00  0.00    +0.000 A 
ENDBRANCH   1   6
BRANCH   1   9
ATOM      9  C   UNL     1      12.516  10.966 -15.871  0.00  0.00    +0.000 C 
BRANCH   9  10
ATOM     10  C   UNL     1      11.528   9.911 -15.316  0.00  0.00    +0.000 C 
ATOM     11  C   UNL     1      12.178   8.534 -15.256  0.00  0.00    +0.000 C 
BRANCH  10  12
ATOM     12  O   UNL     1      11.096  10.256 -13.993  0.00  0.00    +0.000 OA
ATOM     13  H   UNL     1      10.918  11.211 -13.974  0.00  0.00    +0.000 HD
ENDBRANCH  10  12
ENDBRANCH   9  10
ENDBRANCH   1   9
BRANCH   1  14
ATOM     14  C   UNL     1      11.177  13.058 -16.164  0.00  0.00    +0.000 C 
BRANCH  14  15
ATOM     15  C   UNL     1       9.908  13.328 -15.321  0.00  0.00    +0.000 C 
ATOM     16  C   UNL     1       9.497  14.796 -15.310  0.00  0.00    +0.000 C 
BRANCH  15  17
ATOM     17  O   UNL     1       8.796  12.561 -15.780  0.00  0.00    +0.000 OA
ATOM     18  H   UNL     1       8.929  11.670 -15.399  0.00  0.00    +0.000 HD
ENDBRANCH  15  17
ENDBRANCH  14  15
ENDBRANCH   1  14
TORSDOF 7
ENDMDL
MODEL 3
REMARK VINA RESULT:    -4.154      9.830     12.685
REMARK INTER + INTRA:          -6.246
REMARK INTER:                  -5.904
REMARK INTRA:                  -0.342
REMARK UNBOUND:                -0.635
REMARK  Name = 
REMARK  10 active torsions:
REMARK  status: ('A' for Active; 'I' for Inactive)
REMARK    1  A    between atoms: C_1  and  C_2
REMARK    2  A    between atoms: C_5  and  N_8
REMARK    3  A    between atoms: N_8  and  C_9
REMARK    4  A    between atoms: N_8  and  C_13
REMARK    5  A    between atoms: C_9  and  C_10
REMARK    6  A    between atoms: C_10  and  C_11
REMARK    7  A    between atoms: C_10  and  O_12
REMARK    8  A    between atoms: C_13  and  C_14
REMARK    9  A    between atoms: C_14  and  C_15
REMARK   10  A    between atoms: C_14  and  O_16
REMARK                            x       y       z     vdW  Elec       q    Type
REMARK                         _______ _______ _______ _____ _____    ______ ____
ROOT
ATOM      1  N   UNL     1       0.060  12.918 -16.154  0.00  0.00    +0.000 N 
ENDROOT
BRANCH   1   6
ATOM      2  C   UNL     1       5.719  11.973 -16.787  0.00  0.00    +0.000 C 
ATOM      3  C   UNL     1       4.255  12.225 -16.599  0.00  0.00    +0.000 A 
ATOM      4  C   UNL     1       3.399  11.202 -16.204  0.00  0.00    +0.000 A 
ATOM      5  C   UNL     1       2.022  11.437 -16.059  0.00  0.00    +0.000 A 
ATOM      6  C   UNL     1       1.431  12.686 -16.320  0.00  0.00    +0.000 A 
ATOM      7  C   UNL     1       2.326  13.697 -16.715  0.00  0.00    +0.000 A 
ATOM      8  C   UNL     1       3.705  13.477 -16.862  0.00  0.00    +0.000 A 
ENDBRANCH   1   6
BRANCH   1   9
ATOM      9  C   UNL     1      -0.841  11.805 -15.769  0.00  0.00    +0.000 C 
BRANCH   9  10
ATOM     10  C   UNL     1      -2.146  11.774 -16.601  0.00  0.00    +0.000 C 
ATOM     11  C   UNL     1      -2.524  10.345 -16.970  0.00  0.00    +0.000 C 
BRANCH  10  12
ATOM     12  O   UNL     1      -3.238  12.347 -15.869  0.00  0.00    +0.000 OA
ATOM     13  H   UNL     1      -3.568  11.677 -15.247  0.00  0.00    +0.000 HD
ENDBRANCH  10  12
ENDBRANCH   9  10
ENDBRANCH   1   9
BRANCH   1  14
ATOM     14  C   UNL     1      -0.612  14.064 -16.818  0.00  0.00    +0.000 C 
BRANCH  14  15
ATOM     15  C   UNL     1      -1.083  15.134 -15.804  0.00  0.00    +0.000 C 
ATOM     16  C   UNL     1      -2.228  15.994 -16.326  0.00  0.00    +0.000 C 
BRANCH  15  17
ATOM     17  O   UNL     1      -1.499  14.546 -14.572  0.00  0.00    +0.000 OA
ATOM     18  H   UNL     1      -2.304  14.036 -14.794  0.00  0.00    +0.000 HD
ENDBRANCH  15  17
ENDBRANCH  14  15
ENDBRANCH   1  14
TORSDOF 7
ENDMDL
MODEL 4
REMARK VINA RESULT:    -4.009      2.554      4.832
REMARK INTER + INTRA:          -6.051
REMARK INTER:                  -5.421
REMARK INTRA:                  -0.630
REMARK UNBOUND:                -0.635
REMARK  Name = 
REMARK  10 active torsions:
REMARK  status: ('A' for Active; 'I' for Inactive)
REMARK    1  A    between atoms: C_1  and  C_2
REMARK    2  A    between atoms: C_5  and  N_8
REMARK    3  A    between atoms: N_8  and  C_9
REMARK    4  A    between atoms: N_8  and  C_13
REMARK    5  A    between atoms: C_9  and  C_10
REMARK    6  A    between atoms: C_10  and  C_11
REMARK    7  A    between atoms: C_10  and  O_12
REMARK    8  A    between atoms: C_13  and  C_14
REMARK    9  A    between atoms: C_14  and  C_15
REMARK   10  A    between atoms: C_14  and  O_16
REMARK                            x       y       z     vdW  Elec       q    Type
REMARK                         _______ _______ _______ _____ _____    ______ ____
ROOT
ATOM      1  N   UNL     1      10.722  13.287 -16.152  0.00  0.00    +0.000 N 
ENDROOT
BRANCH   1   6
ATOM      2  C   UNL     1      12.576   8.007 -14.735  0.00  0.00    +0.000 C 
ATOM      3  C   UNL     1      12.108   9.376 -15.124  0.00  0.00    +0.000 A 
ATOM      4  C   UNL     1      12.810  10.510 -14.729  0.00  0.00    +0.000 A 
ATOM      5  C   UNL     1      12.350  11.792 -15.071  0.00  0.00    +0.000 A 
ATOM      6  C   UNL     1      11.165  12.006 -15.798  0.00  0.00    +0.000 A 
ATOM      7  C   UNL     1      10.482  10.837 -16.182  0.00  0.00    +0.000 A 
ATOM      8  C   UNL     1      10.932   9.549 -15.848  0.00  0.00    +0.000 A 
ENDBRANCH   1   6
BRANCH   1   9
ATOM      9  C   UNL     1       9.485  13.451 -16.953  0.00  0.00    +0.000 C 
BRANCH   9  10
ATOM     10  C   UNL     1       8.258  13.834 -16.091  0.00  0.00    +0.000 C 
ATOM     11  C   UNL     1       7.079  12.913 -16.381  0.00  0.00    +0.000 C 
BRANCH  10  12
ATOM     12  O   UNL     1       8.562  13.740 -14.692  0.00  0.00    +0.000 OA
ATOM     13  H   UNL     1       9.058  12.917 -14.546  0.00  0.00    +0.000 HD
ENDBRANCH  10  12
ENDBRANCH   9  10
ENDBRANCH   1   9
BRANCH   1  14
ATOM     14  C   UNL     1      11.662  14.436 -16.213  0.00  0.00    +0.000 C 
BRANCH  14  15
ATOM     15  C   UNL     1      11.796  15.154 -14.848  0.00  0.00    +0.000 C 
ATOM     16  C   UNL     1      13.059  15.998 -14.736  0.00  0.00    +0.000 C 
BRANCH  15  17
ATOM     17  O   UNL     1      10.676  15.997 -14.584  0.00  0.00    +0.000 OA
ATOM     18  H   UNL     1      10.945  16.882 -14.904  0.00  0.00    +0.000 HD
ENDBRANCH  15  17
ENDBRANCH  14  15
ENDBRANCH   1  14
TORSDOF 7
ENDMDL
MODEL 5
REMARK VINA RESULT:    -3.975      2.318      5.579
REMARK INTER + INTRA:          -6.004
REMARK INTER:                  -5.984
REMARK INTRA:                  -0.021
REMARK UNBOUND:                -0.635
REMARK  Name = 
REMARK  10 active torsions:
REMARK  status: ('A' for Active; 'I' for Inactive)
REMARK    1  A    between atoms: C_1  and  C_2
REMARK    2  A    between atoms: C_5  and  N_8
REMARK    3  A    between atoms: N_8  and  C_9
REMARK    4  A    between atoms: N_8  and  C_13
REMARK    5  A    between atoms: C_9  and  C_10
REMARK    6  A    between atoms: C_10  and  C_11
REMARK    7  A    between atoms: C_10  and  O_12
REMARK    8  A    between atoms: C_13  and  C_14
REMARK    9  A    between atoms: C_14  and  C_15
REMARK   10  A    between atoms: C_14  and  O_16
REMARK                            x       y       z     vdW  Elec       q    Type
REMARK                         _______ _______ _______ _____ _____    ______ ____
ROOT
ATOM      1  N   UNL     1      11.315  12.087 -15.785  0.00  0.00    +0.000 N 
ENDROOT
BRANCH   1   6
ATOM      2  C   UNL     1       5.664  12.716 -16.784  0.00  0.00    +0.000 C 
ATOM      3  C   UNL     1       7.125  12.541 -16.503  0.00  0.00    +0.000 A 
ATOM      4  C   UNL     1       7.842  13.513 -15.814  0.00  0.00    +0.000 A 
ATOM      5  C   UNL     1       9.218  13.357 -15.580  0.00  0.00    +0.000 A 
ATOM      6  C   UNL     1       9.947  12.245 -16.038  0.00  0.00    +0.000 A 
ATOM      7  C   UNL     1       9.189  11.281 -16.729  0.00  0.00    +0.000 A 
ATOM      8  C   UNL     1       7.813  11.423 -16.968  0.00  0.00    +0.000 A 
ENDBRANCH   1   6
BRANCH   1   9
ATOM      9  C   UNL     1      12.199  13.274 -15.710  0.00  0.00    +0.000 C 
BRANCH   9  10
ATOM     10  C   UNL     1      12.498  13.709 -14.254  0.00  0.00    +0.000 C 
ATOM     11  C   UNL     1      13.936  13.379 -13.871  0.00  0.00    +0.000 C 
BRANCH  10  12
ATOM     12  O   UNL     1      12.308  15.121 -14.089  0.00  0.00    +0.000 OA
ATOM     13  H   UNL     1      13.162  15.559 -14.236  0.00  0.00    +0.000 HD
ENDBRANCH  10  12
ENDBRANCH   9  10
ENDBRANCH   1   9
BRANCH   1  14
ATOM     14  C   UNL     1      12.010  10.809 -16.085  0.00  0.00    +0.000 C 
BRANCH  14  15
ATOM     15  C   UNL     1      11.472   9.636 -15.231  0.00  0.00    +0.000 C 
ATOM     16  C   UNL     1      12.474   8.499 -15.074  0.00  0.00    +0.000 C 
BRANCH  15  17
ATOM     17  O   UNL     1      11.086  10.067 -13.927  0.00  0.00    +0.000 OA
ATOM     18  H   UNL     1      11.656   9.561 -13.314  0.00  0.00    +0.000 HD
ENDBRANCH  15  17
ENDBRANCH  14  15
ENDBRANCH   1  14
TORSDOF 7
ENDMDL
MODEL 6
REMARK VINA RESULT:    -3.966      2.262      5.996
REMARK INTER + INTRA:          -5.992
REMARK INTER:                  -6.488
REMARK INTRA:                   0.496
REMARK UNBOUND:                -0.635
REMARK  Name = 
REMARK  10 active torsions:
REMARK  status: ('A' for Active; 'I' for Inactive)
REMARK    1  A    between atoms: C_1  and  C_2
REMARK    2  A    between atoms: C_5  and  N_8
REMARK    3  A    between atoms: N_8  and  C_9
REMARK    4  A    between atoms: N_8  and  C_13
REMARK    5  A    between atoms: C_9  and  C_10
REMARK    6  A    between atoms: C_10  and  C_11
REMARK    7  A    between atoms: C_10  and  O_12
REMARK    8  A    between atoms: C_13  and  C_14
REMARK    9  A    between atoms: C_14  and  C_15
REMARK   10  A    between atoms: C_14  and  O_16
REMARK                            x       y       z     vdW  Elec       q    Type
REMARK                         _______ _______ _______ _____ _____    ______ ____
ROOT
ATOM      1  N   UNL     1      11.737  12.216 -16.140  0.00  0.00    +0.000 N 
ENDROOT
BRANCH   1   6
ATOM      2  C   UNL     1       5.986  12.171 -16.643  0.00  0.00    +0.000 C 
ATOM      3  C   UNL     1       7.480  12.194 -16.535  0.00  0.00    +0.000 A 
ATOM      4  C   UNL     1       8.244  11.116 -16.969  0.00  0.00    +0.000 A 
ATOM      5  C   UNL     1       9.642  11.130 -16.838  0.00  0.00    +0.000 A 
ATOM      6  C   UNL     1      10.341  12.200 -16.250  0.00  0.00    +0.000 A 
ATOM      7  C   UNL     1       9.537  13.273 -15.824  0.00  0.00    +0.000 A 
ATOM      8  C   UNL     1       8.138  13.273 -15.951  0.00  0.00    +0.000 A 
ENDBRANCH   1   6
BRANCH   1   9
ATOM      9  C   UNL     1      12.461  11.002 -15.694  0.00  0.00    +0.000 C 
BRANCH   9  10
ATOM     10  C   UNL     1      11.510   9.877 -15.218  0.00  0.00    +0.000 C 
ATOM     11  C   UNL     1      12.181   8.513 -15.327  0.00  0.00    +0.000 C 
BRANCH  10  12
ATOM     12  O   UNL     1      11.124  10.073 -13.850  0.00  0.00    +0.000 OA
ATOM     13  H   UNL     1      11.826  10.581 -13.409  0.00  0.00    +0.000 HD
ENDBRANCH  10  12
ENDBRANCH   9  10
ENDBRANCH   1   9
BRANCH   1  14
ATOM     14  C   UNL     1      12.479  13.490 -15.953  0.00  0.00    +0.000 C 
BRANCH  14  15
ATOM     15  C   UNL     1      12.747  13.796 -14.460  0.00  0.00    +0.000 C 
ATOM     16  C   UNL     1      14.218  13.682 -14.079  0.00  0.00    +0.000 C 
BRANCH  15  17
ATOM     17  O   UNL     1      12.298  15.103 -14.102  0.00  0.00    +0.000 OA
ATOM     18  H   UNL     1      12.785  15.321 -13.281  0.00  0.00    +0.000 HD
ENDBRANCH  15  17
ENDBRANCH  14  15
ENDBRANCH   1  14
TORSDOF 7
ENDMDL
MODEL 7
REMARK VINA RESULT:    -3.842      2.901      5.171
REMARK INTER + INTRA:          -5.825
REMARK INTER:                  -5.305
REMARK INTRA:                  -0.520
REMARK UNBOUND:                -0.635
REMARK  Name = 
REMARK  10 active torsions:
REMARK  status: ('A' for Active; 'I' for Inactive)
REMARK    1  A    between atoms: C_1  and  C_2
REMARK    2  A    between atoms: C_5  and  N_8
REMARK    3  A    between atoms: N_8  and  C_9
REMARK    4  A    between atoms: N_8  and  C_13
REMARK    5  A    between atoms: C_9  and  C_10
REMARK    6  A    between atoms: C_10  and  C_11
REMARK    7  A    between atoms: C_10  and  O_12
REMARK    8  A    between atoms: C_13  and  C_14
REMARK    9  A    between atoms: C_14  and  C_15
REMARK   10  A    between atoms: C_14  and  O_16
REMARK                            x       y       z     vdW  Elec       q    Type
REMARK                         _______ _______ _______ _____ _____    ______ ____
ROOT
ATOM      1  N   UNL     1       9.793  13.671 -16.117  0.00  0.00    +0.000 N 
ENDROOT
BRANCH   1   6
ATOM      2  C   UNL     1      12.156   8.466 -15.309  0.00  0.00    +0.000 C 
ATOM      3  C   UNL     1      11.530   9.814 -15.497  0.00  0.00    +0.000 A 
ATOM      4  C   UNL     1      10.350   9.959 -16.218  0.00  0.00    +0.000 A 
ATOM      5  C   UNL     1       9.784  11.229 -16.417  0.00  0.00    +0.000 A 
ATOM      6  C   UNL     1      10.374  12.410 -15.932  0.00  0.00    +0.000 A 
ATOM      7  C   UNL     1      11.565  12.225 -15.206  0.00  0.00    +0.000 A 
ATOM      8  C   UNL     1      12.140  10.961 -14.998  0.00  0.00    +0.000 A 
ENDBRANCH   1   6
BRANCH   1   9
ATOM      9  C   UNL     1      10.060  14.762 -15.149  0.00  0.00    +0.000 C 
BRANCH   9  10
ATOM     10  C   UNL     1      11.071  15.805 -15.685  0.00  0.00    +0.000 C 
ATOM     11  C   UNL     1      12.254  15.955 -14.736  0.00  0.00    +0.000 C 
BRANCH  10  12
ATOM     12  O   UNL     1      11.577  15.419 -16.970  0.00  0.00    +0.000 OA
ATOM     13  H   UNL     1      10.972  15.762 -17.648  0.00  0.00    +0.000 HD
ENDBRANCH  10  12
ENDBRANCH   9  10
ENDBRANCH   1   9
BRANCH   1  14
ATOM     14  C   UNL     1       8.553  13.836 -16.918  0.00  0.00    +0.000 C 
BRANCH  14  15
ATOM     15  C   UNL     1       7.303  14.028 -16.026  0.00  0.00    +0.000 C 
ATOM     16  C   UNL     1       6.367  15.119 -16.532  0.00  0.00    +0.000 C 
BRANCH  15  17
ATOM     17  O   UNL     1       6.551  12.821 -15.906  0.00  0.00    +0.000 OA
ATOM     18  H   UNL     1       5.682  13.099 -15.551  0.00  0.00    +0.000 HD
ENDBRANCH  15  17
ENDBRANCH  14  15
ENDBRANCH   1  14
TORSDOF 7
ENDMDL
MODEL 8
REMARK VINA RESULT:    -3.749     11.068     13.976
REMARK INTER + INTRA:          -5.699
REMARK INTER:                  -5.304
REMARK INTRA:                  -0.395
REMARK UNBOUND:                -0.635
REMARK  Name = 
REMARK  10 active torsions:
REMARK  status: ('A' for Active; 'I' for Inactive)
REMARK    1  A    between atoms: C_1  and  C_2
REMARK    2  A    between atoms: C_5  and  N_8
REMARK    3  A    between atoms: N_8  and  C_9
REMARK    4  A    between atoms: N_8  and  C_13
REMARK    5  A    between atoms: C_9  and  C_10
REMARK    6  A    between atoms: C_10  and  C_11
REMARK    7  A    between atoms: C_10  and  O_12
REMARK    8  A    between atoms: C_13  and  C_14
REMARK    9  A    between atoms: C_14  and  C_15
REMARK   10  A    between atoms: C_14  and  O_16
REMARK                            x       y       z     vdW  Elec       q    Type
REMARK                         _______ _______ _______ _____ _____    ______ ____
ROOT
ATOM      1  N   UNL     1      -1.611  12.701 -15.494  0.00  0.00    +0.000 N 
ENDROOT
BRANCH   1   6
ATOM      2  C   UNL     1       3.907  11.196 -16.279  0.00  0.00    +0.000 C 
ATOM      3  C   UNL     1       2.479  11.588 -16.051  0.00  0.00    +0.000 A 
ATOM      4  C   UNL     1       1.493  10.623 -15.879  0.00  0.00    +0.000 A 
ATOM      5  C   UNL     1       0.151  10.995 -15.695  0.00  0.00    +0.000 A 
ATOM      6  C   UNL     1      -0.274  12.336 -15.697  0.00  0.00    +0.000 A 
ATOM      7  C   UNL     1       0.750  13.284 -15.872  0.00  0.00    +0.000 A 
ATOM      8  C   UNL     1       2.096  12.926 -16.054  0.00  0.00    +0.000 A 
ENDBRANCH   1   6
BRANCH   1   9
ATOM      9  C   UNL     1      -2.366  12.148 -14.344  0.00  0.00    +0.000 C 
BRANCH   9  10
ATOM     10  C   UNL     1      -2.800  13.236 -13.332  0.00  0.00    +0.000 C 
ATOM     11  C   UNL     1      -3.498  12.614 -12.128  0.00  0.00    +0.000 C 
BRANCH  10  12
ATOM     12  O   UNL     1      -1.668  13.977 -12.856  0.00  0.00    +0.000 OA
ATOM     13  H   UNL     1      -1.013  14.019 -13.572  0.00  0.00    +0.000 HD
ENDBRANCH  10  12
ENDBRANCH   9  10
ENDBRANCH   1   9
BRANCH   1  14
ATOM     14  C   UNL     1      -2.453  13.192 -16.615  0.00  0.00    +0.000 C 
BRANCH  14  15
ATOM     15  C   UNL     1      -2.600  14.733 -16.603  0.00  0.00    +0.000 C 
ATOM     16  C   UNL     1      -4.052  15.196 -16.642  0.00  0.00    +0.000 C 
BRANCH  15  17
ATOM     17  O   UNL     1      -1.983  15.312 -15.455  0.00  0.00    +0.000 OA
ATOM     18  H   UNL     1      -2.530  15.020 -14.698  0.00  0.00    +0.000 HD
ENDBRANCH  15  17
ENDBRANCH  14  15
ENDBRANCH   1  14
TORSDOF 7
ENDMDL
MODEL 9
REMARK VINA RESULT:    -3.564      2.467      4.608
REMARK INTER + INTRA:          -5.450
REMARK INTER:                  -4.912
REMARK INTRA:                  -0.538
REMARK UNBOUND:                -0.635
REMARK  Name = 
REMARK  10 active torsions:
REMARK  status: ('A' for Active; 'I' for Inactive)
REMARK    1  A    between atoms: C_1  and  C_2
REMARK    2  A    between atoms: C_5  and  N_8
REMARK    3  A    between atoms: N_8  and  C_9
REMARK    4  A    between atoms: N_8  and  C_13
REMARK    5  A    between atoms: C_9  and  C_10
REMARK    6  A    between atoms: C_10  and  C_11
REMARK    7  A    between atoms: C_10  and  O_12
REMARK    8  A    between atoms: C_13  and  C_14
REMARK    9  A    between atoms: C_14  and  C_15
REMARK   10  A    between atoms: C_14  and  O_16
REMARK                            x       y       z     vdW  Elec       q    Type
REMARK                         _______ _______ _______ _____ _____    ______ ____
ROOT
ATOM      1  N   UNL     1      12.400  14.699 -14.922  0.00  0.00    +0.000 N 
ENDROOT
BRANCH   1   6
ATOM      2  C   UNL     1      12.129   8.939 -15.196  0.00  0.00    +0.000 C 
ATOM      3  C   UNL     1      12.185  10.435 -15.145  0.00  0.00    +0.000 A 
ATOM      4  C   UNL     1      13.201  11.134 -15.787  0.00  0.00    +0.000 A 
ATOM      5  C   UNL     1      13.266  12.535 -15.711  0.00  0.00    +0.000 A 
ATOM      6  C   UNL     1      12.341  13.301 -14.978  0.00  0.00    +0.000 A 
ATOM      7  C   UNL     1      11.326  12.561 -14.344  0.00  0.00    +0.000 A 
ATOM      8  C   UNL     1      11.249  11.160 -14.414  0.00  0.00    +0.000 A 
ENDBRANCH   1   6
BRANCH   1   9
ATOM      9  C   UNL     1      11.948  15.509 -16.080  0.00  0.00    +0.000 C 
BRANCH   9  10
ATOM     10  C   UNL     1      10.459  15.919 -15.980  0.00  0.00    +0.000 C 
ATOM     11  C   UNL     1       9.568  14.919 -16.708  0.00  0.00    +0.000 C 
BRANCH  10  12
ATOM     12  O   UNL     1      10.032  15.980 -14.612  0.00  0.00    +0.000 OA
ATOM     13  H   UNL     1       9.843  16.908 -14.396  0.00  0.00    +0.000 HD
ENDBRANCH  10  12
ENDBRANCH   9  10
ENDBRANCH   1   9
BRANCH   1  14
ATOM     14  C   UNL     1      13.337  15.393 -14.002  0.00  0.00    +0.000 C 
BRANCH  14  15
ATOM     15  C   UNL     1      13.620  14.568 -12.724  0.00  0.00    +0.000 C 
ATOM     16  C   UNL     1      15.050  14.047 -12.650  0.00  0.00    +0.000 C 
BRANCH  15  17
ATOM     17  O   UNL     1      13.363  15.324 -11.541  0.00  0.00    +0.000 OA
ATOM     18  H   UNL     1      13.900  14.894 -10.845  0.00  0.00    +0.000 HD
ENDBRANCH  15  17
ENDBRANCH  14  15
ENDBRANCH   1  14
TORSDOF 7
ENDMDL
