MODEL 1
REMARK VINA RESULT:    -5.030      0.000      0.000
REMARK INTER + INTRA:          -5.517
REMARK INTER:                  -5.471
REMARK INTRA:                  -0.047
REMARK UNBOUND:                -0.047
REMARK  Name = 
REMARK  3 active torsions:
REMARK  status: ('A' for Active; 'I' for Inactive)
REMARK    1  A    between atoms: C_1  and  O_2
REMARK    2  A    between atoms: O_2  and  C_3
REMARK    3  A    between atoms: C_8  and  O_9
REMARK                            x       y       z     vdW  Elec       q    Type
REMARK                         _______ _______ _______ _____ _____    ______ ____
ROOT
ATOM      1  C   UNL     1       1.177  -4.629   3.272  0.00  0.00    +0.000 A 
ATOM      2  C   UNL     1       0.595  -4.004   2.170  0.00  0.00    +0.000 A 
ATOM      3  C   UNL     1      -0.747  -4.252   1.854  0.00  0.00    +0.000 A 
ATOM      4  C   UNL     1      -1.509  -5.122   2.635  0.00  0.00    +0.000 A 
ATOM      5  C   UNL     1      -0.934  -5.749   3.738  0.00  0.00    +0.000 A 
ATOM      6  C   UNL     1       0.397  -5.498   4.044  0.00  0.00    +0.000 A 
ENDROOT
BRANCH   1   8
ATOM      7  C   UNL     1       3.476  -5.109   2.907  0.00  0.00    +0.000 C 
ATOM      8  O   UNL     1       2.473  -4.481   3.697  0.00  0.00    +0.000 OA
ENDBRANCH   1   8
BRANCH   6   9
ATOM      9  O   UNL     1       0.940  -6.127   5.133  0.00  0.00    +0.000 OA
ATOM     10  H   UNL     1       1.881  -6.249   4.906  0.00  0.00    +0.000 HD
ENDBRANCH   6   9
TORSDOF 2
ENDMDL
MODEL 2
REMARK VINA RESULT:    -4.636      1.067      2.230
REMARK INTER + INTRA:          -5.089
REMARK INTER:                  -5.037
REMARK INTRA:                  -0.052
REMARK UNBOUND:                -0.047
REMARK  Name = 
REMARK  3 active torsions:
REMARK  status: ('A' for Active; 'I' for Inactive)
REMARK    1  A    between atoms: C_1  and  O_2
REMARK    2  A    between atoms: O_2  and  C_3
REMARK    3  A    between atoms: C_8  and  O_9
REMARK                            x       y       z     vdW  Elec       q    Type
REMARK                         _______ _______ _______ _____ _____    ______ ____
ROOT
ATOM      1  C   UNL     1       1.269  -4.673   3.291  0.00  0.00    +0.000 A 
ATOM      2  C   UNL     1       0.717  -5.821   3.859  0.00  0.00    +0.000 A 
ATOM      3  C   UNL     1      -0.633  -6.127   3.647  0.00  0.00    +0.000 A 
ATOM      4  C   UNL     1      -1.435  -5.289   2.870  0.00  0.00    +0.000 A 
ATOM      5  C   UNL     1      -0.891  -4.140   2.299  0.00  0.00    +0.000 A 
ATOM      6  C   UNL     1       0.449  -3.845   2.515  0.00  0.00    +0.000 A 
ENDROOT
BRANCH   1   8
ATOM      7  C   UNL     1       3.571  -5.130   2.918  0.00  0.00    +0.000 C 
ATOM      8  O   UNL     1       2.568  -4.251   3.414  0.00  0.00    +0.000 OA
ENDBRANCH   1   8
BRANCH   6   9
ATOM      9  O   UNL     1       0.960  -2.710   1.943  0.00  0.00    +0.000 OA
ATOM     10  H   UNL     1       0.213  -2.082   1.925  0.00  0.00    +0.000 HD
ENDBRANCH   6   9
TORSDOF 2
ENDMDL
MODEL 3
REMARK VINA RESULT:    -4.625      1.759      2.393
REMARK INTER + INTRA:          -5.078
REMARK INTER:                  -5.043
REMARK INTRA:                  -0.035
REMARK UNBOUND:                -0.047
REMARK  Name = 
REMARK  3 active torsions:
REMARK  status: ('A' for Active; 'I' for Inactive)
REMARK    1  A    between atoms: C_1  and  O_2
REMARK    2  A    between atoms: O_2  and  C_3
REMARK    3  A    between atoms: C_8  and  O_9
REMARK                            x       y       z     vdW  Elec       q    Type
REMARK                         _______ _______ _______ _____ _____    ______ ____
ROOT
ATOM      1  C   UNL     1       2.208  -5.385   3.271  0.00  0.00    +0.000 A 
ATOM      2  C   UNL     1       1.352  -5.169   4.350  0.00  0.00    +0.000 A 
ATOM      3  C   UNL     1      -0.017  -5.430   4.221  0.00  0.00    +0.000 A 
ATOM      4  C   UNL     1      -0.536  -5.907   3.015  0.00  0.00    +0.000 A 
ATOM      5  C   UNL     1       0.313  -6.126   1.933  0.00  0.00    +0.000 A 
ATOM      6  C   UNL     1       1.670  -5.864   2.070  0.00  0.00    +0.000 A 
ENDROOT
BRANCH   1   8
ATOM      7  C   UNL     1       3.993  -3.822   3.139  0.00  0.00    +0.000 C 
ATOM      8  O   UNL     1       3.563  -5.173   3.255  0.00  0.00    +0.000 OA
ENDBRANCH   1   8
BRANCH   6   9
ATOM      9  O   UNL     1       2.484  -6.087   0.992  0.00  0.00    +0.000 OA
ATOM     10  H   UNL     1       3.090  -5.322   0.976  0.00  0.00    +0.000 HD
ENDBRANCH   6   9
TORSDOF 2
ENDMDL
MODEL 4
REMARK VINA RESULT:    -4.490      2.114      3.920
REMARK INTER + INTRA:          -4.930
REMARK INTER:                  -4.892
REMARK INTRA:                  -0.038
REMARK UNBOUND:                -0.047
REMARK  Name = 
REMARK  3 active torsions:
REMARK  status: ('A' for Active; 'I' for Inactive)
REMARK    1  A    between atoms: C_1  and  O_2
REMARK    2  A    between atoms: O_2  and  C_3
REMARK    3  A    between atoms: C_8  and  O_9
REMARK                            x       y       z     vdW  Elec       q    Type
REMARK                         _______ _______ _______ _____ _____    ______ ____
ROOT
ATOM      1  C   UNL     1      -0.703  -5.217   2.848  0.00  0.00    +0.000 A 
ATOM      2  C   UNL     1      -0.015  -6.127   3.650  0.00  0.00    +0.000 A 
ATOM      3  C   UNL     1       1.354  -5.951   3.892  0.00  0.00    +0.000 A 
ATOM      4  C   UNL     1       2.037  -4.869   3.334  0.00  0.00    +0.000 A 
ATOM      5  C   UNL     1       1.357  -3.955   2.532  0.00  0.00    +0.000 A 
ATOM      6  C   UNL     1      -0.000  -4.138   2.297  0.00  0.00    +0.000 A 
ENDROOT
BRANCH   1   8
ATOM      7  C   UNL     1      -2.848  -6.127   3.316  0.00  0.00    +0.000 C 
ATOM      8  O   UNL     1      -2.036  -5.265   2.527  0.00  0.00    +0.000 OA
ENDBRANCH   1   8
BRANCH   6   9
ATOM      9  O   UNL     1      -0.648  -3.228   1.505  0.00  0.00    +0.000 OA
ATOM     10  H   UNL     1      -0.378  -3.454   0.595  0.00  0.00    +0.000 HD
ENDBRANCH   6   9
TORSDOF 2
ENDMDL
MODEL 5
REMARK VINA RESULT:    -4.143     24.621     25.221
REMARK INTER + INTRA:          -4.553
REMARK INTER:                  -4.515
REMARK INTRA:                  -0.038
REMARK UNBOUND:                -0.047
REMARK  Name = 
REMARK  3 active torsions:
REMARK  status: ('A' for Active; 'I' for Inactive)
REMARK    1  A    between atoms: C_1  and  O_2
REMARK    2  A    between atoms: O_2  and  C_3
REMARK    3  A    between atoms: C_8  and  O_9
REMARK                            x       y       z     vdW  Elec       q    Type
REMARK                         _______ _______ _______ _____ _____    ______ ____
ROOT
ATOM      1  C   UNL     1      -1.349  11.725 -15.059  0.00  0.00    +0.000 A 
ATOM      2  C   UNL     1      -0.066  11.671 -14.516  0.00  0.00    +0.000 A 
ATOM      3  C   UNL     1       0.955  10.996 -15.197  0.00  0.00    +0.000 A 
ATOM      4  C   UNL     1       0.698  10.373 -16.420  0.00  0.00    +0.000 A 
ATOM      5  C   UNL     1      -0.581  10.424 -16.970  0.00  0.00    +0.000 A 
ATOM      6  C   UNL     1      -1.587  11.095 -16.287  0.00  0.00    +0.000 A 
ENDROOT
BRANCH   1   8
ATOM      7  C   UNL     1      -2.174  13.296 -13.479  0.00  0.00    +0.000 C 
ATOM      8  O   UNL     1      -2.439  12.347 -14.505  0.00  0.00    +0.000 OA
ENDBRANCH   1   8
BRANCH   6   9
ATOM      9  O   UNL     1      -2.836  11.131 -16.847  0.00  0.00    +0.000 OA
ATOM     10  H   UNL     1      -3.156  12.039 -16.685  0.00  0.00    +0.000 HD
ENDBRANCH   6   9
TORSDOF 2
ENDMDL
MODEL 6
REMARK VINA RESULT:    -4.110     24.511     25.520
REMARK INTER + INTRA:          -4.517
REMARK INTER:                  -4.464
REMARK INTRA:                  -0.052
REMARK UNBOUND:                -0.047
REMARK  Name = 
REMARK  3 active torsions:
REMARK  status: ('A' for Active; 'I' for Inactive)
REMARK    1  A    between atoms: C_1  and  O_2
REMARK    2  A    between atoms: O_2  and  C_3
REMARK    3  A    between atoms: C_8  and  O_9
REMARK                            x       y       z     vdW  Elec       q    Type
REMARK                         _______ _______ _______ _____ _____    ______ ____
ROOT
ATOM      1  C   UNL     1      -1.558  11.611 -15.954  0.00  0.00    +0.000 A 
ATOM      2  C   UNL     1      -0.998  10.835 -16.967  0.00  0.00    +0.000 A 
ATOM      3  C   UNL     1       0.317  10.367 -16.845  0.00  0.00    +0.000 A 
ATOM      4  C   UNL     1       1.075  10.674 -15.712  0.00  0.00    +0.000 A 
ATOM      5  C   UNL     1       0.521  11.448 -14.696  0.00  0.00    +0.000 A 
ATOM      6  C   UNL     1      -0.783  11.908 -14.826  0.00  0.00    +0.000 A 
ENDROOT
BRANCH   1   8
ATOM      7  C   UNL     1      -3.140  13.064 -16.970  0.00  0.00    +0.000 C 
ATOM      8  O   UNL     1      -2.826  12.134 -15.940  0.00  0.00    +0.000 OA
ENDBRANCH   1   8
BRANCH   6   9
ATOM      9  O   UNL     1      -1.305  12.668 -13.813  0.00  0.00    +0.000 OA
ATOM     10  H   UNL     1      -0.804  13.505 -13.847  0.00  0.00    +0.000 HD
ENDBRANCH   6   9
TORSDOF 2
ENDMDL
MODEL 7
REMARK VINA RESULT:    -4.109      1.960      3.353
REMARK INTER + INTRA:          -4.517
REMARK INTER:                  -4.924
REMARK INTRA:                   0.407
REMARK UNBOUND:                -0.047
REMARK  Name = 
REMARK  3 active torsions:
REMARK  status: ('A' for Active; 'I' for Inactive)
REMARK    1  A    between atoms: C_1  and  O_2
REMARK    2  A    between atoms: O_2  and  C_3
REMARK    3  A    between atoms: C_8  and  O_9
REMARK                            x       y       z     vdW  Elec       q    Type
REMARK                         _______ _______ _______ _____ _____    ______ ____
ROOT
ATOM      1  C   UNL     1      -0.633  -5.337   2.838  0.00  0.00    +0.000 A 
ATOM      2  C   UNL     1       0.378  -5.429   1.883  0.00  0.00    +0.000 A 
ATOM      3  C   UNL     1       1.692  -5.713   2.279  0.00  0.00    +0.000 A 
ATOM      4  C   UNL     1       1.999  -5.903   3.627  0.00  0.00    +0.000 A 
ATOM      5  C   UNL     1       0.994  -5.812   4.588  0.00  0.00    +0.000 A 
ATOM      6  C   UNL     1      -0.306  -5.531   4.186  0.00  0.00    +0.000 A 
ENDROOT
BRANCH   1   8
ATOM      7  C   UNL     1      -2.876  -6.122   2.847  0.00  0.00    +0.000 C 
ATOM      8  O   UNL     1      -1.956  -5.066   2.595  0.00  0.00    +0.000 OA
ENDBRANCH   1   8
BRANCH   6   9
ATOM      9  O   UNL     1      -1.276  -5.446   5.148  0.00  0.00    +0.000 OA
ATOM     10  H   UNL     1      -0.937  -5.982   5.891  0.00  0.00    +0.000 HD
ENDBRANCH   6   9
TORSDOF 2
ENDMDL
MODEL 8
REMARK VINA RESULT:    -4.084     25.425     26.657
REMARK INTER + INTRA:          -4.489
REMARK INTER:                  -4.451
REMARK INTRA:                  -0.038
REMARK UNBOUND:                -0.047
REMARK  Name = 
REMARK  3 active torsions:
REMARK  status: ('A' for Active; 'I' for Inactive)
REMARK    1  A    between atoms: C_1  and  O_2
REMARK    2  A    between atoms: O_2  and  C_3
REMARK    3  A    between atoms: C_8  and  O_9
REMARK                            x       y       z     vdW  Elec       q    Type
REMARK                         _______ _______ _______ _____ _____    ______ ____
ROOT
ATOM      1  C   UNL     1      11.642   9.683 -15.514  0.00  0.00    +0.000 A 
ATOM      2  C   UNL     1      12.565  10.721 -15.393  0.00  0.00    +0.000 A 
ATOM      3  C   UNL     1      12.248  11.998 -15.874  0.00  0.00    +0.000 A 
ATOM      4  C   UNL     1      11.012  12.242 -16.475  0.00  0.00    +0.000 A 
ATOM      5  C   UNL     1      10.085  11.210 -16.599  0.00  0.00    +0.000 A 
ATOM      6  C   UNL     1      10.407   9.947 -16.121  0.00  0.00    +0.000 A 
ENDROOT
BRANCH   1   8
ATOM      7  C   UNL     1      12.897   8.154 -14.198  0.00  0.00    +0.000 C 
ATOM      8  O   UNL     1      11.816   8.390 -15.092  0.00  0.00    +0.000 OA
ENDBRANCH   1   8
BRANCH   6   9
ATOM      9  O   UNL     1       9.479   8.948 -16.254  0.00  0.00    +0.000 OA
ATOM     10  H   UNL     1       8.720   9.242 -15.716  0.00  0.00    +0.000 HD
ENDBRANCH   6   9
TORSDOF 2
ENDMDL
MODEL 9
REMARK VINA RESULT:    -4.022     26.139     27.194
REMARK INTER + INTRA:          -4.421
REMARK INTER:                  -4.375
REMARK INTRA:                  -0.046
REMARK UNBOUND:                -0.047
REMARK  Name = 
REMARK  3 active torsions:
REMARK  status: ('A' for Active; 'I' for Inactive)
REMARK    1  A    between atoms: C_1  and  O_2
REMARK    2  A    between atoms: O_2  and  C_3
REMARK    3  A    between atoms: C_8  and  O_9
REMARK                            x       y       z     vdW  Elec       q    Type
REMARK                         _______ _______ _______ _____ _____    ______ ____
ROOT
ATOM      1  C   UNL     1      10.019  11.161 -16.506  0.00  0.00    +0.000 A 
ATOM      2  C   UNL     1      10.834  12.290 -16.566  0.00  0.00    +0.000 A 
ATOM      3  C   UNL     1      12.135  12.242 -16.048  0.00  0.00    +0.000 A 
ATOM      4  C   UNL     1      12.624  11.070 -15.469  0.00  0.00    +0.000 A 
ATOM      5  C   UNL     1      11.816   9.937 -15.406  0.00  0.00    +0.000 A 
ATOM      6  C   UNL     1      10.527   9.994 -15.921  0.00  0.00    +0.000 A 
ENDROOT
BRANCH   1   8
ATOM      7  C   UNL     1       7.866  12.153 -16.671  0.00  0.00    +0.000 C 
ATOM      8  O   UNL     1       8.732  11.064 -16.970  0.00  0.00    +0.000 OA
ENDBRANCH   1   8
BRANCH   6   9
ATOM      9  O   UNL     1       9.751   8.868 -15.848  0.00  0.00    +0.000 OA
ATOM     10  H   UNL     1       8.866   9.192 -15.594  0.00  0.00    +0.000 HD
ENDBRANCH   6   9
TORSDOF 2
ENDMDL
