MODEL 1
REMARK VINA RESULT:    -4.577      0.000      0.000
REMARK INTER + INTRA:          -6.621
REMARK INTER:                  -6.182
REMARK INTRA:                  -0.439
REMARK UNBOUND:                -0.439
REMARK  Name = 
REMARK  10 active torsions:
REMARK  status: ('A' for Active; 'I' for Inactive)
REMARK    1  A    between atoms: C_1  and  C_2
REMARK    2  A    between atoms: C_5  and  N_8
REMARK    3  A    between atoms: N_8  and  C_9
REMARK    4  A    between atoms: N_8  and  C_13
REMARK    5  A    between atoms: C_9  and  C_10
REMARK    6  A    between atoms: C_10  and  C_11
REMARK    7  A    between atoms: C_10  and  O_12
REMARK    8  A    between atoms: C_13  and  C_14
REMARK    9  A    between atoms: C_14  and  C_15
REMARK   10  A    between atoms: C_14  and  O_16
REMARK                            x       y       z     vdW  Elec       q    Type
REMARK                         _______ _______ _______ _____ _____    ______ ____
ROOT
ATOM      1  N   UNL     1      11.734  12.055 -15.061  0.00  0.00    +0.000 N 
ENDROOT
BRANCH   1   6
ATOM      2  C   UNL     1      16.383  14.933 -13.209  0.00  0.00    +0.000 C 
ATOM      3  C   UNL     1      15.168  14.207 -13.699  0.00  0.00    +0.000 A 
ATOM      4  C   UNL     1      14.051  14.052 -12.884  0.00  0.00    +0.000 A 
ATOM      5  C   UNL     1      12.926  13.345 -13.338  0.00  0.00    +0.000 A 
ATOM      6  C   UNL     1      12.867  12.742 -14.608  0.00  0.00    +0.000 A 
ATOM      7  C   UNL     1      14.012  12.922 -15.405  0.00  0.00    +0.000 A 
ATOM      8  C   UNL     1      15.143  13.628 -14.964  0.00  0.00    +0.000 A 
ENDBRANCH   1   6
BRANCH   1   9
ATOM      9  C   UNL     1      11.427  10.702 -14.540  0.00  0.00    +0.000 C 
BRANCH   9  10
ATOM     10  C   UNL     1      11.269   9.648 -15.663  0.00  0.00    +0.000 C 
ATOM     11  C   UNL     1      12.166   8.442 -15.410  0.00  0.00    +0.000 C 
BRANCH  10  12
ATOM     12  O   UNL     1       9.914   9.184 -15.747  0.00  0.00    +0.000 OA
ATOM     13  H   UNL     1       9.435   9.762 -16.364  0.00  0.00    +0.000 HD
ENDBRANCH  10  12
ENDBRANCH   9  10
ENDBRANCH   1   9
BRANCH   1  14
ATOM     14  C   UNL     1      11.116  12.374 -16.374  0.00  0.00    +0.000 C 
BRANCH  14  15
ATOM     15  C   UNL     1       9.728  13.041 -16.221  0.00  0.00    +0.000 C 
ATOM     16  C   UNL     1       8.603  12.240 -16.865  0.00  0.00    +0.000 C 
BRANCH  15  17
ATOM     17  O   UNL     1       9.393  13.250 -14.850  0.00  0.00    +0.000 OA
ATOM     18  H   UNL     1       8.541  13.731 -14.869  0.00  0.00    +0.000 HD
ENDBRANCH  15  17
ENDBRANCH  14  15
ENDBRANCH   1  14
TORSDOF 7
ENDMDL
MODEL 2
REMARK VINA RESULT:    -4.447      1.008      3.040
REMARK INTER + INTRA:          -6.445
REMARK INTER:                  -5.844
REMARK INTRA:                  -0.601
REMARK UNBOUND:                -0.439
REMARK  Name = 
REMARK  10 active torsions:
REMARK  status: ('A' for Active; 'I' for Inactive)
REMARK    1  A    between atoms: C_1  and  C_2
REMARK    2  A    between atoms: C_5  and  N_8
REMARK    3  A    between atoms: N_8  and  C_9
REMARK    4  A    between atoms: N_8  and  C_13
REMARK    5  A    between atoms: C_9  and  C_10
REMARK    6  A    between atoms: C_10  and  C_11
REMARK    7  A    between atoms: C_10  and  O_12
REMARK    8  A    between atoms: C_13  and  C_14
REMARK    9  A    between atoms: C_14  and  C_15
REMARK   10  A    between atoms: C_14  and  O_16
REMARK                            x       y       z     vdW  Elec       q    Type
REMARK                         _______ _______ _______ _____ _____    ______ ____
ROOT
ATOM      1  N   UNL     1      12.537  12.012 -15.519  0.00  0.00    +0.000 N 
ENDROOT
BRANCH   1   6
ATOM      2  C   UNL     1      17.092  14.995 -13.601  0.00  0.00    +0.000 C 
ATOM      3  C   UNL     1      15.898  14.242 -14.104  0.00  0.00    +0.000 A 
ATOM      4  C   UNL     1      14.882  13.855 -13.238  0.00  0.00    +0.000 A 
ATOM      5  C   UNL     1      13.779  13.123 -13.709  0.00  0.00    +0.000 A 
ATOM      6  C   UNL     1      13.648  12.725 -15.052  0.00  0.00    +0.000 A 
ATOM      7  C   UNL     1      14.693  13.135 -15.899  0.00  0.00    +0.000 A 
ATOM      8  C   UNL     1      15.800  13.869 -15.441  0.00  0.00    +0.000 A 
ENDBRANCH   1   6
BRANCH   1   9
ATOM      9  C   UNL     1      11.709  12.563 -16.619  0.00  0.00    +0.000 C 
BRANCH   9  10
ATOM     10  C   UNL     1      10.278  12.940 -16.163  0.00  0.00    +0.000 C 
ATOM     11  C   UNL     1       9.911  14.344 -16.628  0.00  0.00    +0.000 C 
BRANCH  10  12
ATOM     12  O   UNL     1       9.310  12.027 -16.697  0.00  0.00    +0.000 OA
ATOM     13  H   UNL     1       8.441  12.262 -16.332  0.00  0.00    +0.000 HD
ENDBRANCH  10  12
ENDBRANCH   9  10
ENDBRANCH   1   9
BRANCH   1  14
ATOM     14  C   UNL     1      11.851  11.010 -14.663  0.00  0.00    +0.000 C 
BRANCH  14  15
ATOM     15  C   UNL     1      11.657   9.657 -15.389  0.00  0.00    +0.000 C 
ATOM     16  C   UNL     1      12.391   8.504 -14.714  0.00  0.00    +0.000 C 
BRANCH  15  17
ATOM     17  O   UNL     1      10.278   9.304 -15.488  0.00  0.00    +0.000 OA
ATOM     18  H   UNL     1       9.907   9.920 -16.152  0.00  0.00    +0.000 HD
ENDBRANCH  15  17
ENDBRANCH  14  15
ENDBRANCH   1  14
TORSDOF 7
ENDMDL
MODEL 3
REMARK VINA RESULT:    -4.161      1.783      5.758
REMARK INTER + INTRA:          -6.059
REMARK INTER:                  -5.963
REMARK INTRA:                  -0.096
REMARK UNBOUND:                -0.439
REMARK  Name = 
REMARK  10 active torsions:
REMARK  status: ('A' for Active; 'I' for Inactive)
REMARK    1  A    between atoms: C_1  and  C_2
REMARK    2  A    between atoms: C_5  and  N_8
REMARK    3  A    between atoms: N_8  and  C_9
REMARK    4  A    between atoms: N_8  and  C_13
REMARK    5  A    between atoms: C_9  and  C_10
REMARK    6  A    between atoms: C_10  and  C_11
REMARK    7  A    between atoms: C_10  and  O_12
REMARK    8  A    between atoms: C_13  and  C_14
REMARK    9  A    between atoms: C_14  and  C_15
REMARK   10  A    between atoms: C_14  and  O_16
REMARK                            x       y       z     vdW  Elec       q    Type
REMARK                         _______ _______ _______ _____ _____    ______ ____
ROOT
ATOM      1  N   UNL     1      11.153  12.301 -15.590  0.00  0.00    +0.000 N 
ENDROOT
BRANCH   1   6
ATOM      2  C   UNL     1       5.585  13.195 -16.828  0.00  0.00    +0.000 C 
ATOM      3  C   UNL     1       7.023  12.950 -16.486  0.00  0.00    +0.000 A 
ATOM      4  C   UNL     1       7.740  13.862 -15.718  0.00  0.00    +0.000 A 
ATOM      5  C   UNL     1       9.096  13.642 -15.426  0.00  0.00    +0.000 A 
ATOM      6  C   UNL     1       9.805  12.524 -15.901  0.00  0.00    +0.000 A 
ATOM      7  C   UNL     1       9.049  11.623 -16.673  0.00  0.00    +0.000 A 
ATOM      8  C   UNL     1       7.691  11.830 -16.970  0.00  0.00    +0.000 A 
ENDBRANCH   1   6
BRANCH   1   9
ATOM      9  C   UNL     1      12.044  13.445 -15.282  0.00  0.00    +0.000 C 
BRANCH   9  10
ATOM     10  C   UNL     1      13.328  13.020 -14.528  0.00  0.00    +0.000 C 
ATOM     11  C   UNL     1      14.574  13.407 -15.314  0.00  0.00    +0.000 C 
BRANCH  10  12
ATOM     12  O   UNL     1      13.401  13.649 -13.241  0.00  0.00    +0.000 OA
ATOM     13  H   UNL     1      14.113  13.221 -12.737  0.00  0.00    +0.000 HD
ENDBRANCH  10  12
ENDBRANCH   9  10
ENDBRANCH   1   9
BRANCH   1  14
ATOM     14  C   UNL     1      11.851  11.069 -16.037  0.00  0.00    +0.000 C 
BRANCH  14  15
ATOM     15  C   UNL     1      11.292   9.799 -15.353  0.00  0.00    +0.000 C 
ATOM     16  C   UNL     1      12.200   8.585 -15.507  0.00  0.00    +0.000 C 
BRANCH  15  17
ATOM     17  O   UNL     1      11.066  10.007 -13.959  0.00  0.00    +0.000 OA
ATOM     18  H   UNL     1      10.363   9.370 -13.719  0.00  0.00    +0.000 HD
ENDBRANCH  15  17
ENDBRANCH  14  15
ENDBRANCH   1  14
TORSDOF 7
ENDMDL
MODEL 4
REMARK VINA RESULT:    -4.002      2.735      4.969
REMARK INTER + INTRA:          -5.844
REMARK INTER:                  -5.321
REMARK INTRA:                  -0.523
REMARK UNBOUND:                -0.439
REMARK  Name = 
REMARK  10 active torsions:
REMARK  status: ('A' for Active; 'I' for Inactive)
REMARK    1  A    between atoms: C_1  and  C_2
REMARK    2  A    between atoms: C_5  and  N_8
REMARK    3  A    between atoms: N_8  and  C_9
REMARK    4  A    between atoms: N_8  and  C_13
REMARK    5  A    between atoms: C_9  and  C_10
REMARK    6  A    between atoms: C_10  and  C_11
REMARK    7  A    between atoms: C_10  and  O_12
REMARK    8  A    between atoms: C_13  and  C_14
REMARK    9  A    between atoms: C_14  and  C_15
REMARK   10  A    between atoms: C_14  and  O_16
REMARK                            x       y       z     vdW  Elec       q    Type
REMARK                         _______ _______ _______ _____ _____    ______ ____
ROOT
ATOM      1  N   UNL     1       9.804  13.622 -16.080  0.00  0.00    +0.000 N 
ENDROOT
BRANCH   1   6
ATOM      2  C   UNL     1      12.233   8.448 -15.269  0.00  0.00    +0.000 C 
ATOM      3  C   UNL     1      11.589   9.787 -15.458  0.00  0.00    +0.000 A 
ATOM      4  C   UNL     1      10.418   9.920 -16.196  0.00  0.00    +0.000 A 
ATOM      5  C   UNL     1       9.835  11.182 -16.395  0.00  0.00    +0.000 A 
ATOM      6  C   UNL     1      10.400  12.369 -15.894  0.00  0.00    +0.000 A 
ATOM      7  C   UNL     1      11.583  12.197 -15.152  0.00  0.00    +0.000 A 
ATOM      8  C   UNL     1      12.175  10.940 -14.943  0.00  0.00    +0.000 A 
ENDBRANCH   1   6
BRANCH   1   9
ATOM      9  C   UNL     1      10.045  14.712 -15.105  0.00  0.00    +0.000 C 
BRANCH   9  10
ATOM     10  C   UNL     1      11.042  15.775 -15.627  0.00  0.00    +0.000 C 
ATOM     11  C   UNL     1      12.174  15.998 -14.631  0.00  0.00    +0.000 C 
BRANCH  10  12
ATOM     12  O   UNL     1      11.623  15.368 -16.874  0.00  0.00    +0.000 OA
ATOM     13  H   UNL     1      10.901  15.121 -17.476  0.00  0.00    +0.000 HD
ENDBRANCH  10  12
ENDBRANCH   9  10
ENDBRANCH   1   9
BRANCH   1  14
ATOM     14  C   UNL     1       8.570  13.773 -16.893  0.00  0.00    +0.000 C 
BRANCH  14  15
ATOM     15  C   UNL     1       7.317  14.005 -16.015  0.00  0.00    +0.000 C 
ATOM     16  C   UNL     1       6.376  15.063 -16.580  0.00  0.00    +0.000 C 
BRANCH  15  17
ATOM     17  O   UNL     1       6.571  12.803 -15.832  0.00  0.00    +0.000 OA
ATOM     18  H   UNL     1       6.633  12.610 -14.875  0.00  0.00    +0.000 HD
ENDBRANCH  15  17
ENDBRANCH  14  15
ENDBRANCH   1  14
TORSDOF 7
ENDMDL
MODEL 5
REMARK VINA RESULT:    -3.933      9.999     13.218
REMARK INTER + INTRA:          -5.751
REMARK INTER:                  -5.302
REMARK INTRA:                  -0.449
REMARK UNBOUND:                -0.439
REMARK  Name = 
REMARK  10 active torsions:
REMARK  status: ('A' for Active; 'I' for Inactive)
REMARK    1  A    between atoms: C_1  and  C_2
REMARK    2  A    between atoms: C_5  and  N_8
REMARK    3  A    between atoms: N_8  and  C_9
REMARK    4  A    between atoms: N_8  and  C_13
REMARK    5  A    between atoms: C_9  and  C_10
REMARK    6  A    between atoms: C_10  and  C_11
REMARK    7  A    between atoms: C_10  and  O_12
REMARK    8  A    between atoms: C_13  and  C_14
REMARK    9  A    between atoms: C_14  and  C_15
REMARK   10  A    between atoms: C_14  and  O_16
REMARK                            x       y       z     vdW  Elec       q    Type
REMARK                         _______ _______ _______ _____ _____    ______ ____
ROOT
ATOM      1  N   UNL     1      -1.332  12.390 -15.617  0.00  0.00    +0.000 N 
ENDROOT
BRANCH   1   6
ATOM      2  C   UNL     1       4.251  11.141 -16.388  0.00  0.00    +0.000 C 
ATOM      3  C   UNL     1       2.805  11.463 -16.163  0.00  0.00    +0.000 A 
ATOM      4  C   UNL     1       1.841  10.461 -16.172  0.00  0.00    +0.000 A 
ATOM      5  C   UNL     1       0.483  10.772 -15.990  0.00  0.00    +0.000 A 
ATOM      6  C   UNL     1       0.021  12.089 -15.817  0.00  0.00    +0.000 A 
ATOM      7  C   UNL     1       1.024  13.076 -15.811  0.00  0.00    +0.000 A 
ATOM      8  C   UNL     1       2.385  12.778 -15.990  0.00  0.00    +0.000 A 
ENDBRANCH   1   6
BRANCH   1   9
ATOM      9  C   UNL     1      -2.020  11.939 -14.383  0.00  0.00    +0.000 C 
BRANCH   9  10
ATOM     10  C   UNL     1      -2.690  13.101 -13.611  0.00  0.00    +0.000 C 
ATOM     11  C   UNL     1      -3.309  12.606 -12.309  0.00  0.00    +0.000 C 
BRANCH  10  12
ATOM     12  O   UNL     1      -1.737  14.123 -13.288  0.00  0.00    +0.000 OA
ATOM     13  H   UNL     1      -2.217  14.961 -13.185  0.00  0.00    +0.000 HD
ENDBRANCH  10  12
ENDBRANCH   9  10
ENDBRANCH   1   9
BRANCH   1  14
ATOM     14  C   UNL     1      -2.232  12.682 -16.762  0.00  0.00    +0.000 C 
BRANCH  14  15
ATOM     15  C   UNL     1      -2.438  14.202 -16.970  0.00  0.00    +0.000 C 
ATOM     16  C   UNL     1      -3.904  14.619 -16.930  0.00  0.00    +0.000 C 
BRANCH  15  17
ATOM     17  O   UNL     1      -1.734  14.968 -15.994  0.00  0.00    +0.000 OA
ATOM     18  H   UNL     1      -2.394  15.156 -15.296  0.00  0.00    +0.000 HD
ENDBRANCH  15  17
ENDBRANCH  14  15
ENDBRANCH   1  14
TORSDOF 7
ENDMDL
MODEL 6
REMARK VINA RESULT:    -3.904      8.602     11.672
REMARK INTER + INTRA:          -5.712
REMARK INTER:                  -5.473
REMARK INTRA:                  -0.239
REMARK UNBOUND:                -0.439
REMARK  Name = 
REMARK  10 active torsions:
REMARK  status: ('A' for Active; 'I' for Inactive)
REMARK    1  A    between atoms: C_1  and  C_2
REMARK    2  A    between atoms: C_5  and  N_8
REMARK    3  A    between atoms: N_8  and  C_9
REMARK    4  A    between atoms: N_8  and  C_13
REMARK    5  A    between atoms: C_9  and  C_10
REMARK    6  A    between atoms: C_10  and  C_11
REMARK    7  A    between atoms: C_10  and  O_12
REMARK    8  A    between atoms: C_13  and  C_14
REMARK    9  A    between atoms: C_14  and  C_15
REMARK   10  A    between atoms: C_14  and  O_16
REMARK                            x       y       z     vdW  Elec       q    Type
REMARK                         _______ _______ _______ _____ _____    ______ ____
ROOT
ATOM      1  N   UNL     1       0.478  12.980 -16.103  0.00  0.00    +0.000 N 
ENDROOT
BRANCH   1   6
ATOM      2  C   UNL     1       6.093  11.884 -16.879  0.00  0.00    +0.000 C 
ATOM      3  C   UNL     1       4.641  12.176 -16.655  0.00  0.00    +0.000 A 
ATOM      4  C   UNL     1       3.781  11.195 -16.172  0.00  0.00    +0.000 A 
ATOM      5  C   UNL     1       2.414  11.466 -15.992  0.00  0.00    +0.000 A 
ATOM      6  C   UNL     1       1.838  12.710 -16.303  0.00  0.00    +0.000 A 
ATOM      7  C   UNL     1       2.737  13.679 -16.786  0.00  0.00    +0.000 A 
ATOM      8  C   UNL     1       4.106  13.422 -16.969  0.00  0.00    +0.000 A 
ENDBRANCH   1   6
BRANCH   1   9
ATOM      9  C   UNL     1      -0.381  11.991 -15.406  0.00  0.00    +0.000 C 
BRANCH   9  10
ATOM     10  C   UNL     1      -1.843  12.002 -15.917  0.00  0.00    +0.000 C 
ATOM     11  C   UNL     1      -2.150  10.741 -16.716  0.00  0.00    +0.000 C 
BRANCH  10  12
ATOM     12  O   UNL     1      -2.769  12.072 -14.824  0.00  0.00    +0.000 OA
ATOM     13  H   UNL     1      -2.362  11.637 -14.056  0.00  0.00    +0.000 HD
ENDBRANCH  10  12
ENDBRANCH   9  10
ENDBRANCH   1   9
BRANCH   1  14
ATOM     14  C   UNL     1      -0.252  13.940 -16.970  0.00  0.00    +0.000 C 
BRANCH  14  15
ATOM     15  C   UNL     1      -0.575  15.262 -16.235  0.00  0.00    +0.000 C 
ATOM     16  C   UNL     1      -1.805  15.972 -16.789  0.00  0.00    +0.000 C 
BRANCH  15  17
ATOM     17  O   UNL     1      -0.778  15.053 -14.838  0.00  0.00    +0.000 OA
ATOM     18  H   UNL     1      -0.695  14.087 -14.713  0.00  0.00    +0.000 HD
ENDBRANCH  15  17
ENDBRANCH  14  15
ENDBRANCH   1  14
TORSDOF 7
ENDMDL
MODEL 7
REMARK VINA RESULT:    -3.860      1.629      2.123
REMARK INTER + INTRA:          -5.652
REMARK INTER:                  -5.138
REMARK INTRA:                  -0.515
REMARK UNBOUND:                -0.439
REMARK  Name = 
REMARK  10 active torsions:
REMARK  status: ('A' for Active; 'I' for Inactive)
REMARK    1  A    between atoms: C_1  and  C_2
REMARK    2  A    between atoms: C_5  and  N_8
REMARK    3  A    between atoms: N_8  and  C_9
REMARK    4  A    between atoms: N_8  and  C_13
REMARK    5  A    between atoms: C_9  and  C_10
REMARK    6  A    between atoms: C_10  and  C_11
REMARK    7  A    between atoms: C_10  and  O_12
REMARK    8  A    between atoms: C_13  and  C_14
REMARK    9  A    between atoms: C_14  and  C_15
REMARK   10  A    between atoms: C_14  and  O_16
REMARK                            x       y       z     vdW  Elec       q    Type
REMARK                         _______ _______ _______ _____ _____    ______ ____
ROOT
ATOM      1  N   UNL     1      12.051  13.718 -14.626  0.00  0.00    +0.000 N 
ENDROOT
BRANCH   1   6
ATOM      2  C   UNL     1      16.709  15.497 -11.717  0.00  0.00    +0.000 C 
ATOM      3  C   UNL     1      15.492  15.024 -12.451  0.00  0.00    +0.000 A 
ATOM      4  C   UNL     1      15.504  13.826 -13.157  0.00  0.00    +0.000 A 
ATOM      5  C   UNL     1      14.370  13.402 -13.869  0.00  0.00    +0.000 A 
ATOM      6  C   UNL     1      13.185  14.156 -13.931  0.00  0.00    +0.000 A 
ATOM      7  C   UNL     1      13.207  15.361 -13.204  0.00  0.00    +0.000 A 
ATOM      8  C   UNL     1      14.334  15.795 -12.487  0.00  0.00    +0.000 A 
ENDBRANCH   1   6
BRANCH   1   9
ATOM      9  C   UNL     1      11.432  12.412 -14.292  0.00  0.00    +0.000 C 
BRANCH   9  10
ATOM     10  C   UNL     1      11.434  11.425 -15.485  0.00  0.00    +0.000 C 
ATOM     11  C   UNL     1      12.173  10.141 -15.128  0.00  0.00    +0.000 C 
BRANCH  10  12
ATOM     12  O   UNL     1      10.096  11.076 -15.866  0.00  0.00    +0.000 OA
ATOM     13  H   UNL     1       9.699  10.567 -15.140  0.00  0.00    +0.000 HD
ENDBRANCH  10  12
ENDBRANCH   9  10
ENDBRANCH   1   9
BRANCH   1  14
ATOM     14  C   UNL     1      11.738  14.227 -15.986  0.00  0.00    +0.000 C 
BRANCH  14  15
ATOM     15  C   UNL     1      10.493  15.145 -15.995  0.00  0.00    +0.000 C 
ATOM     16  C   UNL     1       9.224  14.431 -16.446  0.00  0.00    +0.000 C 
BRANCH  15  17
ATOM     17  O   UNL     1      10.247  15.712 -14.709  0.00  0.00    +0.000 OA
ATOM     18  H   UNL     1      10.145  14.945 -14.110  0.00  0.00    +0.000 HD
ENDBRANCH  15  17
ENDBRANCH  14  15
ENDBRANCH   1  14
TORSDOF 7
ENDMDL
MODEL 8
REMARK VINA RESULT:    -3.786      2.722      5.797
REMARK INTER + INTRA:          -5.552
REMARK INTER:                  -5.057
REMARK INTRA:                  -0.495
REMARK UNBOUND:                -0.439
REMARK  Name = 
REMARK  10 active torsions:
REMARK  status: ('A' for Active; 'I' for Inactive)
REMARK    1  A    between atoms: C_1  and  C_2
REMARK    2  A    between atoms: C_5  and  N_8
REMARK    3  A    between atoms: N_8  and  C_9
REMARK    4  A    between atoms: N_8  and  C_13
REMARK    5  A    between atoms: C_9  and  C_10
REMARK    6  A    between atoms: C_10  and  C_11
REMARK    7  A    between atoms: C_10  and  O_12
REMARK    8  A    between atoms: C_13  and  C_14
REMARK    9  A    between atoms: C_14  and  C_15
REMARK   10  A    between atoms: C_14  and  O_16
REMARK                            x       y       z     vdW  Elec       q    Type
REMARK                         _______ _______ _______ _____ _____    ______ ____
ROOT
ATOM      1  N   UNL     1      13.810  14.049 -15.669  0.00  0.00    +0.000 N 
ENDROOT
BRANCH   1   6
ATOM      2  C   UNL     1       9.591  10.220 -16.602  0.00  0.00    +0.000 C 
ATOM      3  C   UNL     1      10.675  11.220 -16.338  0.00  0.00    +0.000 A 
ATOM      4  C   UNL     1      10.571  12.526 -16.804  0.00  0.00    +0.000 A 
ATOM      5  C   UNL     1      11.604  13.451 -16.580  0.00  0.00    +0.000 A 
ATOM      6  C   UNL     1      12.792  13.116 -15.906  0.00  0.00    +0.000 A 
ATOM      7  C   UNL     1      12.862  11.788 -15.447  0.00  0.00    +0.000 A 
ATOM      8  C   UNL     1      11.836  10.854 -15.663  0.00  0.00    +0.000 A 
ENDBRANCH   1   6
BRANCH   1   9
ATOM      9  C   UNL     1      13.911  14.720 -14.351  0.00  0.00    +0.000 C 
BRANCH   9  10
ATOM     10  C   UNL     1      14.568  13.826 -13.271  0.00  0.00    +0.000 C 
ATOM     11  C   UNL     1      15.931  14.375 -12.864  0.00  0.00    +0.000 C 
BRANCH  10  12
ATOM     12  O   UNL     1      13.750  13.752 -12.096  0.00  0.00    +0.000 OA
ATOM     13  H   UNL     1      14.187  13.160 -11.461  0.00  0.00    +0.000 HD
ENDBRANCH  10  12
ENDBRANCH   9  10
ENDBRANCH   1   9
BRANCH   1  14
ATOM     14  C   UNL     1      14.468  14.770 -16.789  0.00  0.00    +0.000 C 
BRANCH  14  15
ATOM     15  C   UNL     1      15.945  14.344 -16.970  0.00  0.00    +0.000 C 
ATOM     16  C   UNL     1      16.935  15.360 -16.413  0.00  0.00    +0.000 C 
BRANCH  15  17
ATOM     17  O   UNL     1      16.210  13.085 -16.353  0.00  0.00    +0.000 OA
ATOM     18  H   UNL     1      16.801  13.291 -15.602  0.00  0.00    +0.000 HD
ENDBRANCH  15  17
ENDBRANCH  14  15
ENDBRANCH   1  14
TORSDOF 7
ENDMDL
