MODEL 1
REMARK VINA RESULT:    -4.610      0.000      0.000
REMARK INTER + INTRA:          -5.059
REMARK INTER:                  -5.014
REMARK INTRA:                  -0.045
REMARK UNBOUND:                -0.045
REMARK  Name = 
REMARK  3 active torsions:
REMARK  status: ('A' for Active; 'I' for Inactive)
REMARK    1  A    between atoms: C_1  and  O_2
REMARK    2  A    between atoms: O_2  and  C_3
REMARK    3  A    between atoms: C_8  and  O_9
REMARK                            x       y       z     vdW  Elec       q    Type
REMARK                         _______ _______ _______ _____ _____    ______ ____
ROOT
ATOM      1  C   UNL     1       2.185  -5.388   3.275  0.00  0.00    +0.000 A 
ATOM      2  C   UNL     1       1.330  -5.171   4.354  0.00  0.00    +0.000 A 
ATOM      3  C   UNL     1      -0.040  -5.431   4.225  0.00  0.00    +0.000 A 
ATOM      4  C   UNL     1      -0.560  -5.907   3.020  0.00  0.00    +0.000 A 
ATOM      5  C   UNL     1       0.288  -6.127   1.936  0.00  0.00    +0.000 A 
ATOM      6  C   UNL     1       1.646  -5.866   2.074  0.00  0.00    +0.000 A 
ENDROOT
BRANCH   1   8
ATOM      7  C   UNL     1       3.971  -3.822   3.212  0.00  0.00    +0.000 C 
ATOM      8  O   UNL     1       3.540  -5.177   3.259  0.00  0.00    +0.000 OA
ENDBRANCH   1   8
BRANCH   6   9
ATOM      9  O   UNL     1       2.459  -6.089   0.995  0.00  0.00    +0.000 OA
ATOM     10  H   UNL     1       1.874  -6.483   0.320  0.00  0.00    +0.000 HD
ENDBRANCH   6   9
TORSDOF 2
ENDMDL
MODEL 2
REMARK VINA RESULT:    -4.589      1.900      2.120
REMARK INTER + INTRA:          -5.036
REMARK INTER:                  -4.985
REMARK INTRA:                  -0.051
REMARK UNBOUND:                -0.045
REMARK  Name = 
REMARK  3 active torsions:
REMARK  status: ('A' for Active; 'I' for Inactive)
REMARK    1  A    between atoms: C_1  and  O_2
REMARK    2  A    between atoms: O_2  and  C_3
REMARK    3  A    between atoms: C_8  and  O_9
REMARK                            x       y       z     vdW  Elec       q    Type
REMARK                         _______ _______ _______ _____ _____    ______ ____
ROOT
ATOM      1  C   UNL     1       0.855  -4.656   3.270  0.00  0.00    +0.000 A 
ATOM      2  C   UNL     1       0.305  -5.774   3.894  0.00  0.00    +0.000 A 
ATOM      3  C   UNL     1      -1.028  -6.127   3.650  0.00  0.00    +0.000 A 
ATOM      4  C   UNL     1      -1.815  -5.364   2.785  0.00  0.00    +0.000 A 
ATOM      5  C   UNL     1      -1.272  -4.245   2.158  0.00  0.00    +0.000 A 
ATOM      6  C   UNL     1       0.051  -3.903   2.405  0.00  0.00    +0.000 A 
ENDROOT
BRANCH   1   8
ATOM      7  C   UNL     1       3.181  -5.107   3.090  0.00  0.00    +0.000 C 
ATOM      8  O   UNL     1       2.140  -4.195   3.415  0.00  0.00    +0.000 OA
ENDBRANCH   1   8
BRANCH   6   9
ATOM      9  O   UNL     1       0.562  -2.799   1.777  0.00  0.00    +0.000 OA
ATOM     10  H   UNL     1       1.484  -2.737   2.093  0.00  0.00    +0.000 HD
ENDBRANCH   6   9
TORSDOF 2
ENDMDL
MODEL 3
REMARK VINA RESULT:    -4.576      2.674      4.024
REMARK INTER + INTRA:          -5.022
REMARK INTER:                  -4.983
REMARK INTRA:                  -0.039
REMARK UNBOUND:                -0.045
REMARK  Name = 
REMARK  3 active torsions:
REMARK  status: ('A' for Active; 'I' for Inactive)
REMARK    1  A    between atoms: C_1  and  O_2
REMARK    2  A    between atoms: O_2  and  C_3
REMARK    3  A    between atoms: C_8  and  O_9
REMARK                            x       y       z     vdW  Elec       q    Type
REMARK                         _______ _______ _______ _____ _____    ______ ____
ROOT
ATOM      1  C   UNL     1      -0.764  -5.087   2.731  0.00  0.00    +0.000 A 
ATOM      2  C   UNL     1       0.040  -6.119   3.214  0.00  0.00    +0.000 A 
ATOM      3  C   UNL     1       1.420  -5.924   3.353  0.00  0.00    +0.000 A 
ATOM      4  C   UNL     1       2.000  -4.701   3.010  0.00  0.00    +0.000 A 
ATOM      5  C   UNL     1       1.203  -3.665   2.528  0.00  0.00    +0.000 A 
ATOM      6  C   UNL     1      -0.165  -3.868   2.393  0.00  0.00    +0.000 A 
ENDROOT
BRANCH   1   8
ATOM      7  C   UNL     1      -2.829  -6.127   3.282  0.00  0.00    +0.000 C 
ATOM      8  O   UNL     1      -2.122  -5.137   2.544  0.00  0.00    +0.000 OA
ENDBRANCH   1   8
BRANCH   6   9
ATOM      9  O   UNL     1      -0.927  -2.835   1.916  0.00  0.00    +0.000 OA
ATOM     10  H   UNL     1      -0.907  -2.938   0.946  0.00  0.00    +0.000 HD
ENDBRANCH   6   9
TORSDOF 2
ENDMDL
MODEL 4
REMARK VINA RESULT:    -4.257     24.539     25.199
REMARK INTER + INTRA:          -4.675
REMARK INTER:                  -4.628
REMARK INTRA:                  -0.047
REMARK UNBOUND:                -0.045
REMARK  Name = 
REMARK  3 active torsions:
REMARK  status: ('A' for Active; 'I' for Inactive)
REMARK    1  A    between atoms: C_1  and  O_2
REMARK    2  A    between atoms: O_2  and  C_3
REMARK    3  A    between atoms: C_8  and  O_9
REMARK                            x       y       z     vdW  Elec       q    Type
REMARK                         _______ _______ _______ _____ _____    ______ ____
ROOT
ATOM      1  C   UNL     1      -1.239  11.552 -14.947  0.00  0.00    +0.000 A 
ATOM      2  C   UNL     1       0.050  11.483 -14.421  0.00  0.00    +0.000 A 
ATOM      3  C   UNL     1       1.079  10.894 -15.168  0.00  0.00    +0.000 A 
ATOM      4  C   UNL     1       0.824  10.374 -16.438  0.00  0.00    +0.000 A 
ATOM      5  C   UNL     1      -0.462  10.441 -16.970  0.00  0.00    +0.000 A 
ATOM      6  C   UNL     1      -1.476  11.026 -16.223  0.00  0.00    +0.000 A 
ENDROOT
BRANCH   1   8
ATOM      7  C   UNL     1      -2.165  13.381 -13.744  0.00  0.00    +0.000 C 
ATOM      8  O   UNL     1      -2.338  12.097 -14.332  0.00  0.00    +0.000 OA
ENDBRANCH   1   8
BRANCH   6   9
ATOM      9  O   UNL     1      -2.732  11.079 -16.767  0.00  0.00    +0.000 OA
ATOM     10  H   UNL     1      -3.320  10.737 -16.067  0.00  0.00    +0.000 HD
ENDBRANCH   6   9
TORSDOF 2
ENDMDL
MODEL 5
REMARK VINA RESULT:    -4.098     25.030     25.741
REMARK INTER + INTRA:          -4.502
REMARK INTER:                  -4.461
REMARK INTRA:                  -0.041
REMARK UNBOUND:                -0.045
REMARK  Name = 
REMARK  3 active torsions:
REMARK  status: ('A' for Active; 'I' for Inactive)
REMARK    1  A    between atoms: C_1  and  O_2
REMARK    2  A    between atoms: O_2  and  C_3
REMARK    3  A    between atoms: C_8  and  O_9
REMARK                            x       y       z     vdW  Elec       q    Type
REMARK                         _______ _______ _______ _____ _____    ______ ____
ROOT
ATOM      1  C   UNL     1      -1.595  11.758 -15.958  0.00  0.00    +0.000 A 
ATOM      2  C   UNL     1      -1.127  10.921 -16.970  0.00  0.00    +0.000 A 
ATOM      3  C   UNL     1       0.128  10.311 -16.848  0.00  0.00    +0.000 A 
ATOM      4  C   UNL     1       0.917  10.534 -15.718  0.00  0.00    +0.000 A 
ATOM      5  C   UNL     1       0.455  11.368 -14.702  0.00  0.00    +0.000 A 
ATOM      6  C   UNL     1      -0.790  11.969 -14.832  0.00  0.00    +0.000 A 
ENDROOT
BRANCH   1   8
ATOM      7  C   UNL     1      -2.903  13.561 -16.784  0.00  0.00    +0.000 C 
ATOM      8  O   UNL     1      -2.797  12.419 -15.943  0.00  0.00    +0.000 OA
ENDBRANCH   1   8
BRANCH   6   9
ATOM      9  O   UNL     1      -1.222  12.785 -13.820  0.00  0.00    +0.000 OA
ATOM     10  H   UNL     1      -2.009  12.335 -13.458  0.00  0.00    +0.000 HD
ENDBRANCH   6   9
TORSDOF 2
ENDMDL
MODEL 6
REMARK VINA RESULT:    -4.094     24.775     26.318
REMARK INTER + INTRA:          -4.498
REMARK INTER:                  -4.460
REMARK INTRA:                  -0.038
REMARK UNBOUND:                -0.045
REMARK  Name = 
REMARK  3 active torsions:
REMARK  status: ('A' for Active; 'I' for Inactive)
REMARK    1  A    between atoms: C_1  and  O_2
REMARK    2  A    between atoms: O_2  and  C_3
REMARK    3  A    between atoms: C_8  and  O_9
REMARK                            x       y       z     vdW  Elec       q    Type
REMARK                         _______ _______ _______ _____ _____    ______ ____
ROOT
ATOM      1  C   UNL     1      11.596   9.712 -15.518  0.00  0.00    +0.000 A 
ATOM      2  C   UNL     1      12.549  10.727 -15.438  0.00  0.00    +0.000 A 
ATOM      3  C   UNL     1      12.255  12.004 -15.933  0.00  0.00    +0.000 A 
ATOM      4  C   UNL     1      11.011  12.270 -16.508  0.00  0.00    +0.000 A 
ATOM      5  C   UNL     1      10.053  11.262 -16.590  0.00  0.00    +0.000 A 
ATOM      6  C   UNL     1      10.354   9.999 -16.097  0.00  0.00    +0.000 A 
ENDROOT
BRANCH   1   8
ATOM      7  C   UNL     1      12.868   8.164 -14.241  0.00  0.00    +0.000 C 
ATOM      8  O   UNL     1      11.746   8.422 -15.077  0.00  0.00    +0.000 OA
ENDBRANCH   1   8
BRANCH   6   9
ATOM      9  O   UNL     1       9.397   9.024 -16.190  0.00  0.00    +0.000 OA
ATOM     10  H   UNL     1       9.332   8.654 -15.289  0.00  0.00    +0.000 HD
ENDBRANCH   6   9
TORSDOF 2
ENDMDL
MODEL 7
REMARK VINA RESULT:    -4.028     25.799     26.895
REMARK INTER + INTRA:          -4.426
REMARK INTER:                  -4.379
REMARK INTRA:                  -0.047
REMARK UNBOUND:                -0.045
REMARK  Name = 
REMARK  3 active torsions:
REMARK  status: ('A' for Active; 'I' for Inactive)
REMARK    1  A    between atoms: C_1  and  O_2
REMARK    2  A    between atoms: O_2  and  C_3
REMARK    3  A    between atoms: C_8  and  O_9
REMARK                            x       y       z     vdW  Elec       q    Type
REMARK                         _______ _______ _______ _____ _____    ______ ____
ROOT
ATOM      1  C   UNL     1      10.053  11.175 -16.507  0.00  0.00    +0.000 A 
ATOM      2  C   UNL     1      10.889  12.289 -16.568  0.00  0.00    +0.000 A 
ATOM      3  C   UNL     1      12.188  12.218 -16.051  0.00  0.00    +0.000 A 
ATOM      4  C   UNL     1      12.656  11.037 -15.472  0.00  0.00    +0.000 A 
ATOM      5  C   UNL     1      11.827   9.919 -15.407  0.00  0.00    +0.000 A 
ATOM      6  C   UNL     1      10.540   9.999 -15.922  0.00  0.00    +0.000 A 
ENDROOT
BRANCH   1   8
ATOM      7  C   UNL     1       7.898  12.172 -16.611  0.00  0.00    +0.000 C 
ATOM      8  O   UNL     1       8.764  11.101 -16.970  0.00  0.00    +0.000 OA
ENDBRANCH   1   8
BRANCH   6   9
ATOM      9  O   UNL     1       9.743   8.887 -15.847  0.00  0.00    +0.000 OA
ATOM     10  H   UNL     1       9.538   8.793 -14.897  0.00  0.00    +0.000 HD
ENDBRANCH   6   9
TORSDOF 2
ENDMDL
MODEL 8
REMARK VINA RESULT:    -3.907     25.425     25.807
REMARK INTER + INTRA:          -4.294
REMARK INTER:                  -4.265
REMARK INTRA:                  -0.029
REMARK UNBOUND:                -0.045
REMARK  Name = 
REMARK  3 active torsions:
REMARK  status: ('A' for Active; 'I' for Inactive)
REMARK    1  A    between atoms: C_1  and  O_2
REMARK    2  A    between atoms: O_2  and  C_3
REMARK    3  A    between atoms: C_8  and  O_9
REMARK                            x       y       z     vdW  Elec       q    Type
REMARK                         _______ _______ _______ _____ _____    ______ ____
ROOT
ATOM      1  C   UNL     1      -1.431  12.489 -15.401  0.00  0.00    +0.000 A 
ATOM      2  C   UNL     1      -0.069  12.212 -15.297  0.00  0.00    +0.000 A 
ATOM      3  C   UNL     1       0.488  11.153 -16.026  0.00  0.00    +0.000 A 
ATOM      4  C   UNL     1      -0.312  10.370 -16.860  0.00  0.00    +0.000 A 
ATOM      5  C   UNL     1      -1.674  10.642 -16.970  0.00  0.00    +0.000 A 
ATOM      6  C   UNL     1      -2.218  11.693 -16.243  0.00  0.00    +0.000 A 
ENDROOT
BRANCH   1   8
ATOM      7  C   UNL     1      -2.436  13.246 -13.386  0.00  0.00    +0.000 C 
ATOM      8  O   UNL     1      -2.108  13.488 -14.749  0.00  0.00    +0.000 OA
ENDBRANCH   1   8
BRANCH   6   9
ATOM      9  O   UNL     1      -3.559  11.940 -16.367  0.00  0.00    +0.000 OA
ATOM     10  H   UNL     1      -3.709  12.759 -15.857  0.00  0.00    +0.000 HD
ENDBRANCH   6   9
TORSDOF 2
ENDMDL
