MODEL 1
REMARK VINA RESULT:    -5.034      0.000      0.000
REMARK INTER + INTRA:          -7.306
REMARK INTER:                  -6.799
REMARK INTRA:                  -0.507
REMARK UNBOUND:                -0.507
REMARK  Name = 
REMARK  10 active torsions:
REMARK  status: ('A' for Active; 'I' for Inactive)
REMARK    1  A    between atoms: C_1  and  C_2
REMARK    2  A    between atoms: C_5  and  N_8
REMARK    3  A    between atoms: N_8  and  C_9
REMARK    4  A    between atoms: N_8  and  C_13
REMARK    5  A    between atoms: C_9  and  C_10
REMARK    6  A    between atoms: C_10  and  C_11
REMARK    7  A    between atoms: C_10  and  O_12
REMARK    8  A    between atoms: C_13  and  C_14
REMARK    9  A    between atoms: C_14  and  C_15
REMARK   10  A    between atoms: C_14  and  O_16
REMARK                            x       y       z     vdW  Elec       q    Type
REMARK                         _______ _______ _______ _____ _____    ______ ____
ROOT
ATOM      1  N   UNL     1      14.539  -3.354  11.206  0.00  0.00    +0.000 N 
ENDROOT
BRANCH   1   6
ATOM      2  C   UNL     1       9.062  -3.835  12.966  0.00  0.00    +0.000 C 
ATOM      3  C   UNL     1      10.481  -3.685  12.510  0.00  0.00    +0.000 A 
ATOM      4  C   UNL     1      10.793  -3.611  11.157  0.00  0.00    +0.000 A 
ATOM      5  C   UNL     1      12.128  -3.501  10.735  0.00  0.00    +0.000 A 
ATOM      6  C   UNL     1      13.211  -3.483  11.632  0.00  0.00    +0.000 A 
ATOM      7  C   UNL     1      12.858  -3.558  12.992  0.00  0.00    +0.000 A 
ATOM      8  C   UNL     1      11.527  -3.666  13.428  0.00  0.00    +0.000 A 
ENDBRANCH   1   6
BRANCH   1   9
ATOM      9  C   UNL     1      14.835  -2.929   9.816  0.00  0.00    +0.000 C 
BRANCH   9  10
ATOM     10  C   UNL     1      14.995  -1.395   9.679  0.00  0.00    +0.000 C 
ATOM     11  C   UNL     1      16.464  -0.992   9.745  0.00  0.00    +0.000 C 
BRANCH  10  12
ATOM     12  O   UNL     1      14.462  -0.931   8.431  0.00  0.00    +0.000 OA
ATOM     13  H   UNL     1      15.035  -1.261   7.718  0.00  0.00    +0.000 HD
ENDBRANCH  10  12
ENDBRANCH   9  10
ENDBRANCH   1   9
BRANCH   1  14
ATOM     14  C   UNL     1      15.639  -4.088  11.882  0.00  0.00    +0.000 C 
BRANCH  14  15
ATOM     15  C   UNL     1      16.592  -4.772  10.872  0.00  0.00    +0.000 C 
ATOM     16  C   UNL     1      18.064  -4.500  11.158  0.00  0.00    +0.000 C 
BRANCH  15  17
ATOM     17  O   UNL     1      16.402  -6.186  10.842  0.00  0.00    +0.000 OA
ATOM     18  H   UNL     1      16.879  -6.488  10.043  0.00  0.00    +0.000 HD
ENDBRANCH  15  17
ENDBRANCH  14  15
ENDBRANCH   1  14
TORSDOF 7
ENDMDL
MODEL 2
REMARK VINA RESULT:    -4.966      2.313      3.231
REMARK INTER + INTRA:          -7.215
REMARK INTER:                  -6.964
REMARK INTRA:                  -0.251
REMARK UNBOUND:                -0.507
REMARK  Name = 
REMARK  10 active torsions:
REMARK  status: ('A' for Active; 'I' for Inactive)
REMARK    1  A    between atoms: C_1  and  C_2
REMARK    2  A    between atoms: C_5  and  N_8
REMARK    3  A    between atoms: N_8  and  C_9
REMARK    4  A    between atoms: N_8  and  C_13
REMARK    5  A    between atoms: C_9  and  C_10
REMARK    6  A    between atoms: C_10  and  C_11
REMARK    7  A    between atoms: C_10  and  O_12
REMARK    8  A    between atoms: C_13  and  C_14
REMARK    9  A    between atoms: C_14  and  C_15
REMARK   10  A    between atoms: C_14  and  O_16
REMARK                            x       y       z     vdW  Elec       q    Type
REMARK                         _______ _______ _______ _____ _____    ______ ____
ROOT
ATOM      1  N   UNL     1      14.012  -3.204  12.278  0.00  0.00    +0.000 N 
ENDROOT
BRANCH   1   6
ATOM      2  C   UNL     1       8.952  -5.885  13.014  0.00  0.00    +0.000 C 
ATOM      3  C   UNL     1      10.270  -5.205  12.804  0.00  0.00    +0.000 A 
ATOM      4  C   UNL     1      11.408  -5.626  13.484  0.00  0.00    +0.000 A 
ATOM      5  C   UNL     1      12.635  -4.965  13.306  0.00  0.00    +0.000 A 
ATOM      6  C   UNL     1      12.781  -3.846  12.466  0.00  0.00    +0.000 A 
ATOM      7  C   UNL     1      11.611  -3.449  11.794  0.00  0.00    +0.000 A 
ATOM      8  C   UNL     1      10.379  -4.103  11.961  0.00  0.00    +0.000 A 
ENDBRANCH   1   6
BRANCH   1   9
ATOM      9  C   UNL     1      14.774  -3.411  11.024  0.00  0.00    +0.000 C 
BRANCH   9  10
ATOM     10  C   UNL     1      14.365  -2.424   9.903  0.00  0.00    +0.000 C 
ATOM     11  C   UNL     1      15.587  -1.722   9.322  0.00  0.00    +0.000 C 
BRANCH  10  12
ATOM     12  O   UNL     1      13.696  -3.107   8.834  0.00  0.00    +0.000 OA
ATOM     13  H   UNL     1      14.329  -3.223   8.107  0.00  0.00    +0.000 HD
ENDBRANCH  10  12
ENDBRANCH   9  10
ENDBRANCH   1   9
BRANCH   1  14
ATOM     14  C   UNL     1      14.824  -2.745  13.434  0.00  0.00    +0.000 C 
BRANCH  14  15
ATOM     15  C   UNL     1      13.946  -2.185  14.579  0.00  0.00    +0.000 C 
ATOM     16  C   UNL     1      14.194  -2.874  15.916  0.00  0.00    +0.000 C 
BRANCH  15  17
ATOM     17  O   UNL     1      14.147  -0.784  14.761  0.00  0.00    +0.000 OA
ATOM     18  H   UNL     1      13.307  -0.455  15.140  0.00  0.00    +0.000 HD
ENDBRANCH  15  17
ENDBRANCH  14  15
ENDBRANCH   1  14
TORSDOF 7
ENDMDL
MODEL 3
REMARK VINA RESULT:    -4.951      2.291      3.060
REMARK INTER + INTRA:          -7.195
REMARK INTER:                  -6.891
REMARK INTRA:                  -0.304
REMARK UNBOUND:                -0.507
REMARK  Name = 
REMARK  10 active torsions:
REMARK  status: ('A' for Active; 'I' for Inactive)
REMARK    1  A    between atoms: C_1  and  C_2
REMARK    2  A    between atoms: C_5  and  N_8
REMARK    3  A    between atoms: N_8  and  C_9
REMARK    4  A    between atoms: N_8  and  C_13
REMARK    5  A    between atoms: C_9  and  C_10
REMARK    6  A    between atoms: C_10  and  C_11
REMARK    7  A    between atoms: C_10  and  O_12
REMARK    8  A    between atoms: C_13  and  C_14
REMARK    9  A    between atoms: C_14  and  C_15
REMARK   10  A    between atoms: C_14  and  O_16
REMARK                            x       y       z     vdW  Elec       q    Type
REMARK                         _______ _______ _______ _____ _____    ______ ____
ROOT
ATOM      1  N   UNL     1      13.978  -3.264  12.244  0.00  0.00    +0.000 N 
ENDROOT
BRANCH   1   6
ATOM      2  C   UNL     1       8.882  -5.893  12.910  0.00  0.00    +0.000 C 
ATOM      3  C   UNL     1      10.199  -5.196  12.757  0.00  0.00    +0.000 A 
ATOM      4  C   UNL     1      10.327  -4.084  11.933  0.00  0.00    +0.000 A 
ATOM      5  C   UNL     1      11.572  -3.453  11.769  0.00  0.00    +0.000 A 
ATOM      6  C   UNL     1      12.745  -3.910  12.396  0.00  0.00    +0.000 A 
ATOM      7  C   UNL     1      12.578  -5.035  13.224  0.00  0.00    +0.000 A 
ATOM      8  C   UNL     1      11.339  -5.674  13.398  0.00  0.00    +0.000 A 
ENDBRANCH   1   6
BRANCH   1   9
ATOM      9  C   UNL     1      14.749  -3.419  10.987  0.00  0.00    +0.000 C 
BRANCH   9  10
ATOM     10  C   UNL     1      14.295  -2.436   9.880  0.00  0.00    +0.000 C 
ATOM     11  C   UNL     1      15.488  -1.699   9.283  0.00  0.00    +0.000 C 
BRANCH  10  12
ATOM     12  O   UNL     1      13.625  -3.131   8.818  0.00  0.00    +0.000 OA
ATOM     13  H   UNL     1      13.891  -2.723   7.977  0.00  0.00    +0.000 HD
ENDBRANCH  10  12
ENDBRANCH   9  10
ENDBRANCH   1   9
BRANCH   1  14
ATOM     14  C   UNL     1      14.784  -2.859  13.424  0.00  0.00    +0.000 C 
BRANCH  14  15
ATOM     15  C   UNL     1      13.924  -2.169  14.510  0.00  0.00    +0.000 C 
ATOM     16  C   UNL     1      13.984  -2.874  15.860  0.00  0.00    +0.000 C 
BRANCH  15  17
ATOM     17  O   UNL     1      14.311  -0.809  14.705  0.00  0.00    +0.000 OA
ATOM     18  H   UNL     1      13.806  -0.513  15.489  0.00  0.00    +0.000 HD
ENDBRANCH  15  17
ENDBRANCH  14  15
ENDBRANCH   1  14
TORSDOF 7
ENDMDL
MODEL 4
REMARK VINA RESULT:    -4.880      1.487      3.608
REMARK INTER + INTRA:          -7.099
REMARK INTER:                  -6.636
REMARK INTRA:                  -0.464
REMARK UNBOUND:                -0.507
REMARK  Name = 
REMARK  10 active torsions:
REMARK  status: ('A' for Active; 'I' for Inactive)
REMARK    1  A    between atoms: C_1  and  C_2
REMARK    2  A    between atoms: C_5  and  N_8
REMARK    3  A    between atoms: N_8  and  C_9
REMARK    4  A    between atoms: N_8  and  C_13
REMARK    5  A    between atoms: C_9  and  C_10
REMARK    6  A    between atoms: C_10  and  C_11
REMARK    7  A    between atoms: C_10  and  O_12
REMARK    8  A    between atoms: C_13  and  C_14
REMARK    9  A    between atoms: C_14  and  C_15
REMARK   10  A    between atoms: C_14  and  O_16
REMARK                            x       y       z     vdW  Elec       q    Type
REMARK                         _______ _______ _______ _____ _____    ______ ____
ROOT
ATOM      1  N   UNL     1      15.918  -3.406  10.528  0.00  0.00    +0.000 N 
ENDROOT
BRANCH   1   6
ATOM      2  C   UNL     1      10.576  -3.592  12.710  0.00  0.00    +0.000 C 
ATOM      3  C   UNL     1      11.960  -3.568  12.137  0.00  0.00    +0.000 A 
ATOM      4  C   UNL     1      13.067  -3.854  12.929  0.00  0.00    +0.000 A 
ATOM      5  C   UNL     1      14.364  -3.801  12.394  0.00  0.00    +0.000 A 
ATOM      6  C   UNL     1      14.623  -3.439  11.060  0.00  0.00    +0.000 A 
ATOM      7  C   UNL     1      13.481  -3.158  10.287  0.00  0.00    +0.000 A 
ATOM      8  C   UNL     1      12.178  -3.210  10.809  0.00  0.00    +0.000 A 
ENDBRANCH   1   6
BRANCH   1   9
ATOM      9  C   UNL     1      16.983  -4.257  11.111  0.00  0.00    +0.000 C 
BRANCH   9  10
ATOM     10  C   UNL     1      17.657  -5.177  10.063  0.00  0.00    +0.000 C 
ATOM     11  C   UNL     1      18.421  -6.307  10.742  0.00  0.00    +0.000 C 
BRANCH  10  12
ATOM     12  O   UNL     1      16.682  -5.762   9.189  0.00  0.00    +0.000 OA
ATOM     13  H   UNL     1      16.134  -5.046   8.827  0.00  0.00    +0.000 HD
ENDBRANCH  10  12
ENDBRANCH   9  10
ENDBRANCH   1   9
BRANCH   1  14
ATOM     14  C   UNL     1      16.407  -2.228   9.766  0.00  0.00    +0.000 C 
BRANCH  14  15
ATOM     15  C   UNL     1      17.045  -1.161  10.687  0.00  0.00    +0.000 C 
ATOM     16  C   UNL     1      18.293  -0.522  10.090  0.00  0.00    +0.000 C 
BRANCH  15  17
ATOM     17  O   UNL     1      16.123  -0.119  11.004  0.00  0.00    +0.000 OA
ATOM     18  H   UNL     1      16.176  -0.022  11.976  0.00  0.00    +0.000 HD
ENDBRANCH  15  17
ENDBRANCH  14  15
ENDBRANCH   1  14
TORSDOF 7
ENDMDL
MODEL 5
REMARK VINA RESULT:    -4.860      2.393      3.451
REMARK INTER + INTRA:          -7.072
REMARK INTER:                  -6.742
REMARK INTRA:                  -0.330
REMARK UNBOUND:                -0.507
REMARK  Name = 
REMARK  10 active torsions:
REMARK  status: ('A' for Active; 'I' for Inactive)
REMARK    1  A    between atoms: C_1  and  C_2
REMARK    2  A    between atoms: C_5  and  N_8
REMARK    3  A    between atoms: N_8  and  C_9
REMARK    4  A    between atoms: N_8  and  C_13
REMARK    5  A    between atoms: C_9  and  C_10
REMARK    6  A    between atoms: C_10  and  C_11
REMARK    7  A    between atoms: C_10  and  O_12
REMARK    8  A    between atoms: C_13  and  C_14
REMARK    9  A    between atoms: C_14  and  C_15
REMARK   10  A    between atoms: C_14  and  O_16
REMARK                            x       y       z     vdW  Elec       q    Type
REMARK                         _______ _______ _______ _____ _____    ______ ____
ROOT
ATOM      1  N   UNL     1      14.494  -3.578  12.607  0.00  0.00    +0.000 N 
ENDROOT
BRANCH   1   6
ATOM      2  C   UNL     1       9.103  -5.575  13.133  0.00  0.00    +0.000 C 
ATOM      3  C   UNL     1      10.506  -5.073  12.978  0.00  0.00    +0.000 A 
ATOM      4  C   UNL     1      11.545  -5.616  13.725  0.00  0.00    +0.000 A 
ATOM      5  C   UNL     1      12.853  -5.121  13.598  0.00  0.00    +0.000 A 
ATOM      6  C   UNL     1      13.184  -4.054  12.744  0.00  0.00    +0.000 A 
ATOM      7  C   UNL     1      12.108  -3.530  12.002  0.00  0.00    +0.000 A 
ATOM      8  C   UNL     1      10.796  -4.017  12.119  0.00  0.00    +0.000 A 
ENDBRANCH   1   6
BRANCH   1   9
ATOM      9  C   UNL     1      14.935  -2.386  13.369  0.00  0.00    +0.000 C 
BRANCH   9  10
ATOM     10  C   UNL     1      14.135  -2.180  14.679  0.00  0.00    +0.000 C 
ATOM     11  C   UNL     1      14.946  -2.627  15.889  0.00  0.00    +0.000 C 
BRANCH  10  12
ATOM     12  O   UNL     1      13.790  -0.800  14.860  0.00  0.00    +0.000 OA
ATOM     13  H   UNL     1      12.952  -0.761  15.352  0.00  0.00    +0.000 HD
ENDBRANCH  10  12
ENDBRANCH   9  10
ENDBRANCH   1   9
BRANCH   1  14
ATOM     14  C   UNL     1      15.297  -3.876  11.394  0.00  0.00    +0.000 C 
BRANCH  14  15
ATOM     15  C   UNL     1      15.175  -2.764  10.324  0.00  0.00    +0.000 C 
ATOM     16  C   UNL     1      16.524  -2.271   9.814  0.00  0.00    +0.000 C 
BRANCH  15  17
ATOM     17  O   UNL     1      14.408  -3.195   9.201  0.00  0.00    +0.000 OA
ATOM     18  H   UNL     1      13.807  -3.881   9.553  0.00  0.00    +0.000 HD
ENDBRANCH  15  17
ENDBRANCH  14  15
ENDBRANCH   1  14
TORSDOF 7
ENDMDL
MODEL 6
REMARK VINA RESULT:    -4.799      2.711      3.776
REMARK INTER + INTRA:          -6.990
REMARK INTER:                  -6.486
REMARK INTRA:                  -0.503
REMARK UNBOUND:                -0.507
REMARK  Name = 
REMARK  10 active torsions:
REMARK  status: ('A' for Active; 'I' for Inactive)
REMARK    1  A    between atoms: C_1  and  C_2
REMARK    2  A    between atoms: C_5  and  N_8
REMARK    3  A    between atoms: N_8  and  C_9
REMARK    4  A    between atoms: N_8  and  C_13
REMARK    5  A    between atoms: C_9  and  C_10
REMARK    6  A    between atoms: C_10  and  C_11
REMARK    7  A    between atoms: C_10  and  O_12
REMARK    8  A    between atoms: C_13  and  C_14
REMARK    9  A    between atoms: C_14  and  C_15
REMARK   10  A    between atoms: C_14  and  O_16
REMARK                            x       y       z     vdW  Elec       q    Type
REMARK                         _______ _______ _______ _____ _____    ______ ____
ROOT
ATOM      1  N   UNL     1      12.950  -3.558  13.197  0.00  0.00    +0.000 N 
ENDROOT
BRANCH   1   6
ATOM      2  C   UNL     1       8.178  -6.226  11.342  0.00  0.00    +0.000 C 
ATOM      3  C   UNL     1       9.430  -5.550  11.811  0.00  0.00    +0.000 A 
ATOM      4  C   UNL     1      10.014  -5.892  13.026  0.00  0.00    +0.000 A 
ATOM      5  C   UNL     1      11.171  -5.235  13.475  0.00  0.00    +0.000 A 
ATOM      6  C   UNL     1      11.785  -4.196  12.752  0.00  0.00    +0.000 A 
ATOM      7  C   UNL     1      11.169  -3.878  11.528  0.00  0.00    +0.000 A 
ATOM      8  C   UNL     1      10.014  -4.529  11.066  0.00  0.00    +0.000 A 
ENDBRANCH   1   6
BRANCH   1   9
ATOM      9  C   UNL     1      14.278  -4.023  12.727  0.00  0.00    +0.000 C 
BRANCH   9  10
ATOM     10  C   UNL     1      14.845  -3.155  11.577  0.00  0.00    +0.000 C 
ATOM     11  C   UNL     1      15.822  -2.114  12.110  0.00  0.00    +0.000 C 
BRANCH  10  12
ATOM     12  O   UNL     1      15.538  -3.964  10.616  0.00  0.00    +0.000 OA
ATOM     13  H   UNL     1      16.240  -4.448  11.081  0.00  0.00    +0.000 HD
ENDBRANCH  10  12
ENDBRANCH   9  10
ENDBRANCH   1   9
BRANCH   1  14
ATOM     14  C   UNL     1      12.971  -2.795  14.471  0.00  0.00    +0.000 C 
BRANCH  14  15
ATOM     15  C   UNL     1      13.998  -3.367  15.478  0.00  0.00    +0.000 C 
ATOM     16  C   UNL     1      15.060  -2.355  15.891  0.00  0.00    +0.000 C 
BRANCH  15  17
ATOM     17  O   UNL     1      13.364  -3.850  16.661  0.00  0.00    +0.000 OA
ATOM     18  H   UNL     1      13.900  -4.620  16.939  0.00  0.00    +0.000 HD
ENDBRANCH  15  17
ENDBRANCH  14  15
ENDBRANCH   1  14
TORSDOF 7
ENDMDL
MODEL 7
REMARK VINA RESULT:    -4.780      3.090      5.984
REMARK INTER + INTRA:          -6.964
REMARK INTER:                  -6.360
REMARK INTRA:                  -0.603
REMARK UNBOUND:                -0.507
REMARK  Name = 
REMARK  10 active torsions:
REMARK  status: ('A' for Active; 'I' for Inactive)
REMARK    1  A    between atoms: C_1  and  C_2
REMARK    2  A    between atoms: C_5  and  N_8
REMARK    3  A    between atoms: N_8  and  C_9
REMARK    4  A    between atoms: N_8  and  C_13
REMARK    5  A    between atoms: C_9  and  C_10
REMARK    6  A    between atoms: C_10  and  C_11
REMARK    7  A    between atoms: C_10  and  O_12
REMARK    8  A    between atoms: C_13  and  C_14
REMARK    9  A    between atoms: C_14  and  C_15
REMARK   10  A    between atoms: C_14  and  O_16
REMARK                            x       y       z     vdW  Elec       q    Type
REMARK                         _______ _______ _______ _____ _____    ______ ____
ROOT
ATOM      1  N   UNL     1      16.760  -2.972  11.207  0.00  0.00    +0.000 N 
ENDROOT
BRANCH   1   6
ATOM      2  C   UNL     1      21.284   0.605  11.477  0.00  0.00    +0.000 C 
ATOM      3  C   UNL     1      20.125  -0.343  11.403  0.00  0.00    +0.000 A 
ATOM      4  C   UNL     1      19.461  -0.565  10.201  0.00  0.00    +0.000 A 
ATOM      5  C   UNL     1      18.357  -1.431  10.144  0.00  0.00    +0.000 A 
ATOM      6  C   UNL     1      17.849  -2.094  11.276  0.00  0.00    +0.000 A 
ATOM      7  C   UNL     1      18.547  -1.847  12.472  0.00  0.00    +0.000 A 
ATOM      8  C   UNL     1      19.654  -0.985  12.544  0.00  0.00    +0.000 A 
ENDBRANCH   1   6
BRANCH   1   9
ATOM      9  C   UNL     1      15.379  -2.457  11.371  0.00  0.00    +0.000 C 
BRANCH   9  10
ATOM     10  C   UNL     1      14.597  -2.402  10.036  0.00  0.00    +0.000 C 
ATOM     11  C   UNL     1      14.981  -1.167   9.229  0.00  0.00    +0.000 C 
BRANCH  10  12
ATOM     12  O   UNL     1      14.868  -3.559   9.233  0.00  0.00    +0.000 OA
ATOM     13  H   UNL     1      15.829  -3.701   9.223  0.00  0.00    +0.000 HD
ENDBRANCH  10  12
ENDBRANCH   9  10
ENDBRANCH   1   9
BRANCH   1  14
ATOM     14  C   UNL     1      16.922  -4.422  11.484  0.00  0.00    +0.000 C 
BRANCH  14  15
ATOM     15  C   UNL     1      17.860  -5.110  10.463  0.00  0.00    +0.000 C 
ATOM     16  C   UNL     1      17.881  -6.628  10.596  0.00  0.00    +0.000 C 
BRANCH  15  17
ATOM     17  O   UNL     1      17.504  -4.789   9.120  0.00  0.00    +0.000 OA
ATOM     18  H   UNL     1      17.784  -5.564   8.592  0.00  0.00    +0.000 HD
ENDBRANCH  15  17
ENDBRANCH  14  15
ENDBRANCH   1  14
TORSDOF 7
ENDMDL
MODEL 8
REMARK VINA RESULT:    -4.725      3.622      6.160
REMARK INTER + INTRA:          -6.889
REMARK INTER:                  -6.293
REMARK INTRA:                  -0.596
REMARK UNBOUND:                -0.507
REMARK  Name = 
REMARK  10 active torsions:
REMARK  status: ('A' for Active; 'I' for Inactive)
REMARK    1  A    between atoms: C_1  and  C_2
REMARK    2  A    between atoms: C_5  and  N_8
REMARK    3  A    between atoms: N_8  and  C_9
REMARK    4  A    between atoms: N_8  and  C_13
REMARK    5  A    between atoms: C_9  and  C_10
REMARK    6  A    between atoms: C_10  and  C_11
REMARK    7  A    between atoms: C_10  and  O_12
REMARK    8  A    between atoms: C_13  and  C_14
REMARK    9  A    between atoms: C_14  and  C_15
REMARK   10  A    between atoms: C_14  and  O_16
REMARK                            x       y       z     vdW  Elec       q    Type
REMARK                         _______ _______ _______ _____ _____    ______ ____
ROOT
ATOM      1  N   UNL     1      16.740  -3.030  11.797  0.00  0.00    +0.000 N 
ENDROOT
BRANCH   1   6
ATOM      2  C   UNL     1      19.458  -7.730   9.834  0.00  0.00    +0.000 C 
ATOM      3  C   UNL     1      18.755  -6.499  10.321  0.00  0.00    +0.000 A 
ATOM      4  C   UNL     1      19.459  -5.474  10.944  0.00  0.00    +0.000 A 
ATOM      5  C   UNL     1      18.791  -4.336  11.425  0.00  0.00    +0.000 A 
ATOM      6  C   UNL     1      17.397  -4.176  11.332  0.00  0.00    +0.000 A 
ATOM      7  C   UNL     1      16.718  -5.231  10.695  0.00  0.00    +0.000 A 
ATOM      8  C   UNL     1      17.374  -6.373  10.207  0.00  0.00    +0.000 A 
ENDBRANCH   1   6
BRANCH   1   9
ATOM      9  C   UNL     1      16.851  -2.636  13.222  0.00  0.00    +0.000 C 
BRANCH   9  10
ATOM     10  C   UNL     1      15.728  -1.667  13.666  0.00  0.00    +0.000 C 
ATOM     11  C   UNL     1      15.314  -1.936  15.108  0.00  0.00    +0.000 C 
BRANCH  10  12
ATOM     12  O   UNL     1      16.160  -0.302  13.575  0.00  0.00    +0.000 OA
ATOM     13  H   UNL     1      15.374   0.255  13.452  0.00  0.00    +0.000 HD
ENDBRANCH  10  12
ENDBRANCH   9  10
ENDBRANCH   1   9
BRANCH   1  14
ATOM     14  C   UNL     1      15.555  -2.482  11.088  0.00  0.00    +0.000 C 
BRANCH  14  15
ATOM     15  C   UNL     1      15.946  -1.434  10.020  0.00  0.00    +0.000 C 
ATOM     16  C   UNL     1      14.878  -1.242   8.949  0.00  0.00    +0.000 C 
BRANCH  15  17
ATOM     17  O   UNL     1      16.218  -0.161  10.605  0.00  0.00    +0.000 OA
ATOM     18  H   UNL     1      15.384   0.099  11.044  0.00  0.00    +0.000 HD
ENDBRANCH  15  17
ENDBRANCH  14  15
ENDBRANCH   1  14
TORSDOF 7
ENDMDL
MODEL 9
REMARK VINA RESULT:    -4.715      2.208      4.081
REMARK INTER + INTRA:          -6.876
REMARK INTER:                  -6.343
REMARK INTRA:                  -0.534
REMARK UNBOUND:                -0.507
REMARK  Name = 
REMARK  10 active torsions:
REMARK  status: ('A' for Active; 'I' for Inactive)
REMARK    1  A    between atoms: C_1  and  C_2
REMARK    2  A    between atoms: C_5  and  N_8
REMARK    3  A    between atoms: N_8  and  C_9
REMARK    4  A    between atoms: N_8  and  C_13
REMARK    5  A    between atoms: C_9  and  C_10
REMARK    6  A    between atoms: C_10  and  C_11
REMARK    7  A    between atoms: C_10  and  O_12
REMARK    8  A    between atoms: C_13  and  C_14
REMARK    9  A    between atoms: C_14  and  C_15
REMARK   10  A    between atoms: C_14  and  O_16
REMARK                            x       y       z     vdW  Elec       q    Type
REMARK                         _______ _______ _______ _____ _____    ______ ____
ROOT
ATOM      1  N   UNL     1      16.653  -3.599  10.744  0.00  0.00    +0.000 N 
ENDROOT
BRANCH   1   6
ATOM      2  C   UNL     1      12.860  -4.558  14.990  0.00  0.00    +0.000 C 
ATOM      3  C   UNL     1      13.851  -4.288  13.899  0.00  0.00    +0.000 A 
ATOM      4  C   UNL     1      13.468  -3.636  12.732  0.00  0.00    +0.000 A 
ATOM      5  C   UNL     1      14.393  -3.411  11.700  0.00  0.00    +0.000 A 
ATOM      6  C   UNL     1      15.730  -3.843  11.769  0.00  0.00    +0.000 A 
ATOM      7  C   UNL     1      16.083  -4.497  12.964  0.00  0.00    +0.000 A 
ATOM      8  C   UNL     1      15.168  -4.726  14.005  0.00  0.00    +0.000 A 
ENDBRANCH   1   6
BRANCH   1   9
ATOM      9  C   UNL     1      17.966  -4.288  10.747  0.00  0.00    +0.000 C 
BRANCH   9  10
ATOM     10  C   UNL     1      17.958  -5.599   9.923  0.00  0.00    +0.000 C 
ATOM     11  C   UNL     1      18.065  -6.816  10.834  0.00  0.00    +0.000 C 
BRANCH  10  12
ATOM     12  O   UNL     1      16.750  -5.720   9.160  0.00  0.00    +0.000 OA
ATOM     13  H   UNL     1      16.024  -5.919   9.774  0.00  0.00    +0.000 HD
ENDBRANCH  10  12
ENDBRANCH   9  10
ENDBRANCH   1   9
BRANCH   1  14
ATOM     14  C   UNL     1      16.608  -2.343   9.952  0.00  0.00    +0.000 C 
BRANCH  14  15
ATOM     15  C   UNL     1      17.146  -1.131  10.749  0.00  0.00    +0.000 C 
ATOM     16  C   UNL     1      18.377  -0.495  10.114  0.00  0.00    +0.000 C 
BRANCH  15  17
ATOM     17  O   UNL     1      16.154  -0.117  10.900  0.00  0.00    +0.000 OA
ATOM     18  H   UNL     1      15.971  -0.082  11.860  0.00  0.00    +0.000 HD
ENDBRANCH  15  17
ENDBRANCH  14  15
ENDBRANCH   1  14
TORSDOF 7
ENDMDL
