MODEL 1
REMARK VINA RESULT:    -4.264      0.000      0.000
REMARK INTER + INTRA:          -4.689
REMARK INTER:                  -4.638
REMARK INTRA:                  -0.050
REMARK UNBOUND:                -0.050
REMARK  Name = 
REMARK  3 active torsions:
REMARK  status: ('A' for Active; 'I' for Inactive)
REMARK    1  A    between atoms: C_1  and  O_2
REMARK    2  A    between atoms: O_2  and  C_3
REMARK    3  A    between atoms: C_8  and  O_9
REMARK                            x       y       z     vdW  Elec       q    Type
REMARK                         _______ _______ _______ _____ _____    ______ ____
ROOT
ATOM      1  C   UNL     1       8.767  -5.215  11.035  0.00  0.00    +0.000 A 
ATOM      2  C   UNL     1      10.007  -4.698  10.662  0.00  0.00    +0.000 A 
ATOM      3  C   UNL     1      10.728  -3.898  11.557  0.00  0.00    +0.000 A 
ATOM      4  C   UNL     1      10.214  -3.611  12.823  0.00  0.00    +0.000 A 
ATOM      5  C   UNL     1       8.976  -4.124  13.202  0.00  0.00    +0.000 A 
ATOM      6  C   UNL     1       8.268  -4.917  12.308  0.00  0.00    +0.000 A 
ENDROOT
BRANCH   1   8
ATOM      7  C   UNL     1       7.314  -5.380   9.162  0.00  0.00    +0.000 C 
ATOM      8  O   UNL     1       7.955  -6.009  10.265  0.00  0.00    +0.000 OA
ENDBRANCH   1   8
BRANCH   6   9
ATOM      9  O   UNL     1       7.053  -5.410  12.704  0.00  0.00    +0.000 OA
ATOM     10  H   UNL     1       6.521  -4.619  12.915  0.00  0.00    +0.000 HD
ENDBRANCH   6   9
TORSDOF 2
ENDMDL
MODEL 2
REMARK VINA RESULT:    -4.212      2.379      3.636
REMARK INTER + INTRA:          -4.631
REMARK INTER:                  -4.590
REMARK INTRA:                  -0.041
REMARK UNBOUND:                -0.050
REMARK  Name = 
REMARK  3 active torsions:
REMARK  status: ('A' for Active; 'I' for Inactive)
REMARK    1  A    between atoms: C_1  and  O_2
REMARK    2  A    between atoms: O_2  and  C_3
REMARK    3  A    between atoms: C_8  and  O_9
REMARK                            x       y       z     vdW  Elec       q    Type
REMARK                         _______ _______ _______ _____ _____    ______ ____
ROOT
ATOM      1  C   UNL     1      10.492  -4.616  12.858  0.00  0.00    +0.000 A 
ATOM      2  C   UNL     1      10.729  -5.937  12.480  0.00  0.00    +0.000 A 
ATOM      3  C   UNL     1       9.675  -6.727  12.003  0.00  0.00    +0.000 A 
ATOM      4  C   UNL     1       8.385  -6.202  11.904  0.00  0.00    +0.000 A 
ATOM      5  C   UNL     1       8.141  -4.883  12.279  0.00  0.00    +0.000 A 
ATOM      6  C   UNL     1       9.192  -4.107  12.751  0.00  0.00    +0.000 A 
ENDROOT
BRANCH   1   8
ATOM      7  C   UNL     1      12.762  -3.913  12.895  0.00  0.00    +0.000 C 
ATOM      8  O   UNL     1      11.423  -3.731  13.341  0.00  0.00    +0.000 OA
ENDBRANCH   1   8
BRANCH   6   9
ATOM      9  O   UNL     1       8.928  -2.813  13.115  0.00  0.00    +0.000 OA
ATOM     10  H   UNL     1       8.611  -2.874  14.036  0.00  0.00    +0.000 HD
ENDBRANCH   6   9
TORSDOF 2
ENDMDL
MODEL 3
REMARK VINA RESULT:    -4.161      2.059      3.798
REMARK INTER + INTRA:          -4.576
REMARK INTER:                  -4.526
REMARK INTRA:                  -0.050
REMARK UNBOUND:                -0.050
REMARK  Name = 
REMARK  3 active torsions:
REMARK  status: ('A' for Active; 'I' for Inactive)
REMARK    1  A    between atoms: C_1  and  O_2
REMARK    2  A    between atoms: O_2  and  C_3
REMARK    3  A    between atoms: C_8  and  O_9
REMARK                            x       y       z     vdW  Elec       q    Type
REMARK                         _______ _______ _______ _____ _____    ______ ____
ROOT
ATOM      1  C   UNL     1      10.110  -4.241  11.907  0.00  0.00    +0.000 A 
ATOM      2  C   UNL     1       9.261  -4.441  12.994  0.00  0.00    +0.000 A 
ATOM      3  C   UNL     1       8.124  -5.247  12.855  0.00  0.00    +0.000 A 
ATOM      4  C   UNL     1       7.831  -5.853  11.632  0.00  0.00    +0.000 A 
ATOM      5  C   UNL     1       8.675  -5.658  10.541  0.00  0.00    +0.000 A 
ATOM      6  C   UNL     1       9.801  -4.858  10.688  0.00  0.00    +0.000 A 
ENDROOT
BRANCH   1   8
ATOM      7  C   UNL     1      12.235  -3.802  12.877  0.00  0.00    +0.000 C 
ATOM      8  O   UNL     1      11.252  -3.481  11.899  0.00  0.00    +0.000 OA
ENDBRANCH   1   8
BRANCH   6   9
ATOM      9  O   UNL     1      10.616  -4.681   9.602  0.00  0.00    +0.000 OA
ATOM     10  H   UNL     1      11.511  -4.894   9.926  0.00  0.00    +0.000 HD
ENDBRANCH   6   9
TORSDOF 2
ENDMDL
MODEL 4
REMARK VINA RESULT:    -4.109      2.864      3.980
REMARK INTER + INTRA:          -4.519
REMARK INTER:                  -4.481
REMARK INTRA:                  -0.038
REMARK UNBOUND:                -0.050
REMARK  Name = 
REMARK  3 active torsions:
REMARK  status: ('A' for Active; 'I' for Inactive)
REMARK    1  A    between atoms: C_1  and  O_2
REMARK    2  A    between atoms: O_2  and  C_3
REMARK    3  A    between atoms: C_8  and  O_9
REMARK                            x       y       z     vdW  Elec       q    Type
REMARK                         _______ _______ _______ _____ _____    ______ ____
ROOT
ATOM      1  C   UNL     1      11.366  -4.549  13.127  0.00  0.00    +0.000 A 
ATOM      2  C   UNL     1      10.765  -3.296  13.024  0.00  0.00    +0.000 A 
ATOM      3  C   UNL     1       9.368  -3.190  12.995  0.00  0.00    +0.000 A 
ATOM      4  C   UNL     1       8.570  -4.333  13.067  0.00  0.00    +0.000 A 
ATOM      5  C   UNL     1       9.163  -5.589  13.171  0.00  0.00    +0.000 A 
ATOM      6  C   UNL     1      10.549  -5.684  13.199  0.00  0.00    +0.000 A 
ENDROOT
BRANCH   1   8
ATOM      7  C   UNL     1      13.570  -3.742  12.756  0.00  0.00    +0.000 C 
ATOM      8  O   UNL     1      12.714  -4.802  13.166  0.00  0.00    +0.000 OA
ENDBRANCH   1   8
BRANCH   6   9
ATOM      9  O   UNL     1      11.109  -6.930  13.302  0.00  0.00    +0.000 OA
ATOM     10  H   UNL     1      11.506  -6.951  14.193  0.00  0.00    +0.000 HD
ENDBRANCH   6   9
TORSDOF 2
ENDMDL
MODEL 5
REMARK VINA RESULT:    -4.010      1.895      2.646
REMARK INTER + INTRA:          -4.411
REMARK INTER:                  -4.361
REMARK INTRA:                  -0.051
REMARK UNBOUND:                -0.050
REMARK  Name = 
REMARK  3 active torsions:
REMARK  status: ('A' for Active; 'I' for Inactive)
REMARK    1  A    between atoms: C_1  and  O_2
REMARK    2  A    between atoms: O_2  and  C_3
REMARK    3  A    between atoms: C_8  and  O_9
REMARK                            x       y       z     vdW  Elec       q    Type
REMARK                         _______ _______ _______ _____ _____    ______ ____
ROOT
ATOM      1  C   UNL     1      10.014  -5.304  11.428  0.00  0.00    +0.000 A 
ATOM      2  C   UNL     1      10.334  -5.965  12.613  0.00  0.00    +0.000 A 
ATOM      3  C   UNL     1      11.342  -5.462  13.445  0.00  0.00    +0.000 A 
ATOM      4  C   UNL     1      12.033  -4.300  13.097  0.00  0.00    +0.000 A 
ATOM      5  C   UNL     1      11.719  -3.633  11.914  0.00  0.00    +0.000 A 
ATOM      6  C   UNL     1      10.718  -4.140  11.095  0.00  0.00    +0.000 A 
ENDROOT
BRANCH   1   8
ATOM      7  C   UNL     1       7.732  -5.824  11.021  0.00  0.00    +0.000 C 
ATOM      8  O   UNL     1       9.056  -5.681  10.522  0.00  0.00    +0.000 OA
ENDBRANCH   1   8
BRANCH   6   9
ATOM      9  O   UNL     1      10.428  -3.467   9.938  0.00  0.00    +0.000 OA
ATOM     10  H   UNL     1       9.890  -4.092   9.416  0.00  0.00    +0.000 HD
ENDBRANCH   6   9
TORSDOF 2
ENDMDL
MODEL 6
REMARK VINA RESULT:    -3.938      5.608      7.149
REMARK INTER + INTRA:          -4.333
REMARK INTER:                  -4.290
REMARK INTRA:                  -0.043
REMARK UNBOUND:                -0.050
REMARK  Name = 
REMARK  3 active torsions:
REMARK  status: ('A' for Active; 'I' for Inactive)
REMARK    1  A    between atoms: C_1  and  O_2
REMARK    2  A    between atoms: O_2  and  C_3
REMARK    3  A    between atoms: C_8  and  O_9
REMARK                            x       y       z     vdW  Elec       q    Type
REMARK                         _______ _______ _______ _____ _____    ______ ____
ROOT
ATOM      1  C   UNL     1      14.808  -2.772  11.140  0.00  0.00    +0.000 A 
ATOM      2  C   UNL     1      15.852  -2.161  11.834  0.00  0.00    +0.000 A 
ATOM      3  C   UNL     1      16.654  -1.207  11.194  0.00  0.00    +0.000 A 
ATOM      4  C   UNL     1      16.417  -0.863   9.862  0.00  0.00    +0.000 A 
ATOM      5  C   UNL     1      15.376  -1.469   9.162  0.00  0.00    +0.000 A 
ATOM      6  C   UNL     1      14.586  -2.413   9.805  0.00  0.00    +0.000 A 
ENDROOT
BRANCH   1   8
ATOM      7  C   UNL     1      13.569  -3.576  13.002  0.00  0.00    +0.000 C 
ATOM      8  O   UNL     1      13.948  -3.718  11.638  0.00  0.00    +0.000 OA
ENDBRANCH   1   8
BRANCH   6   9
ATOM      9  O   UNL     1      13.568  -2.995   9.097  0.00  0.00    +0.000 OA
ATOM     10  H   UNL     1      13.777  -3.949   9.101  0.00  0.00    +0.000 HD
ENDBRANCH   6   9
TORSDOF 2
ENDMDL
MODEL 7
REMARK VINA RESULT:    -3.842      2.102      2.586
REMARK INTER + INTRA:          -4.229
REMARK INTER:                  -4.183
REMARK INTRA:                  -0.046
REMARK UNBOUND:                -0.050
REMARK  Name = 
REMARK  3 active torsions:
REMARK  status: ('A' for Active; 'I' for Inactive)
REMARK    1  A    between atoms: C_1  and  O_2
REMARK    2  A    between atoms: O_2  and  C_3
REMARK    3  A    between atoms: C_8  and  O_9
REMARK                            x       y       z     vdW  Elec       q    Type
REMARK                         _______ _______ _______ _____ _____    ______ ____
ROOT
ATOM      1  C   UNL     1       9.592  -5.320  12.685  0.00  0.00    +0.000 A 
ATOM      2  C   UNL     1       9.457  -3.932  12.693  0.00  0.00    +0.000 A 
ATOM      3  C   UNL     1      10.545  -3.126  13.051  0.00  0.00    +0.000 A 
ATOM      4  C   UNL     1      11.768  -3.702  13.401  0.00  0.00    +0.000 A 
ATOM      5  C   UNL     1      11.910  -5.087  13.394  0.00  0.00    +0.000 A 
ATOM      6  C   UNL     1      10.826  -5.879  13.039  0.00  0.00    +0.000 A 
ENDROOT
BRANCH   1   8
ATOM      7  C   UNL     1       7.845  -5.940  11.198  0.00  0.00    +0.000 C 
ATOM      8  O   UNL     1       8.616  -6.228  12.358  0.00  0.00    +0.000 OA
ENDBRANCH   1   8
BRANCH   6   9
ATOM      9  O   UNL     1      10.990  -7.239  13.040  0.00  0.00    +0.000 OA
ATOM     10  H   UNL     1      11.957  -7.372  13.052  0.00  0.00    +0.000 HD
ENDBRANCH   6   9
TORSDOF 2
ENDMDL
MODEL 8
REMARK VINA RESULT:    -3.690      7.177      8.655
REMARK INTER + INTRA:          -4.063
REMARK INTER:                  -4.011
REMARK INTRA:                  -0.053
REMARK UNBOUND:                -0.050
REMARK  Name = 
REMARK  3 active torsions:
REMARK  status: ('A' for Active; 'I' for Inactive)
REMARK    1  A    between atoms: C_1  and  O_2
REMARK    2  A    between atoms: O_2  and  C_3
REMARK    3  A    between atoms: C_8  and  O_9
REMARK                            x       y       z     vdW  Elec       q    Type
REMARK                         _______ _______ _______ _____ _____    ______ ____
ROOT
ATOM      1  C   UNL     1      16.256  -1.772  11.521  0.00  0.00    +0.000 A 
ATOM      2  C   UNL     1      15.277  -2.750  11.690  0.00  0.00    +0.000 A 
ATOM      3  C   UNL     1      14.359  -3.005  10.664  0.00  0.00    +0.000 A 
ATOM      4  C   UNL     1      14.414  -2.284   9.469  0.00  0.00    +0.000 A 
ATOM      5  C   UNL     1      15.388  -1.305   9.294  0.00  0.00    +0.000 A 
ATOM      6  C   UNL     1      16.295  -1.059  10.317  0.00  0.00    +0.000 A 
ENDROOT
BRANCH   1   8
ATOM      7  C   UNL     1      16.752  -0.815  13.639  0.00  0.00    +0.000 C 
ATOM      8  O   UNL     1      17.215  -1.417  12.436  0.00  0.00    +0.000 OA
ENDBRANCH   1   8
BRANCH   6   9
ATOM      9  O   UNL     1      17.244  -0.091  10.121  0.00  0.00    +0.000 OA
ATOM     10  H   UNL     1      18.036  -0.421  10.588  0.00  0.00    +0.000 HD
ENDBRANCH   6   9
TORSDOF 2
ENDMDL
MODEL 9
REMARK VINA RESULT:    -3.624      7.445      8.497
REMARK INTER + INTRA:          -3.992
REMARK INTER:                  -3.944
REMARK INTRA:                  -0.048
REMARK UNBOUND:                -0.050
REMARK  Name = 
REMARK  3 active torsions:
REMARK  status: ('A' for Active; 'I' for Inactive)
REMARK    1  A    between atoms: C_1  and  O_2
REMARK    2  A    between atoms: O_2  and  C_3
REMARK    3  A    between atoms: C_8  and  O_9
REMARK                            x       y       z     vdW  Elec       q    Type
REMARK                         _______ _______ _______ _____ _____    ______ ____
ROOT
ATOM      1  C   UNL     1      16.793  -3.380  10.320  0.00  0.00    +0.000 A 
ATOM      2  C   UNL     1      17.923  -2.698  10.768  0.00  0.00    +0.000 A 
ATOM      3  C   UNL     1      17.997  -1.306  10.639  0.00  0.00    +0.000 A 
ATOM      4  C   UNL     1      16.945  -0.591  10.063  0.00  0.00    +0.000 A 
ATOM      5  C   UNL     1      15.812  -1.266   9.614  0.00  0.00    +0.000 A 
ATOM      6  C   UNL     1      15.747  -2.647   9.745  0.00  0.00    +0.000 A 
ENDROOT
BRANCH   1   8
ATOM      7  C   UNL     1      17.647  -5.561   9.919  0.00  0.00    +0.000 C 
ATOM      8  O   UNL     1      16.585  -4.735  10.381  0.00  0.00    +0.000 OA
ENDBRANCH   1   8
BRANCH   6   9
ATOM      9  O   UNL     1      14.624  -3.287   9.296  0.00  0.00    +0.000 OA
ATOM     10  H   UNL     1      14.029  -3.318  10.069  0.00  0.00    +0.000 HD
ENDBRANCH   6   9
TORSDOF 2
ENDMDL
