MODEL 1
REMARK VINA RESULT:    -3.973      0.000      0.000
REMARK INTER + INTRA:          -4.360
REMARK INTER:                  -4.321
REMARK INTRA:                  -0.039
REMARK UNBOUND:                -0.039
REMARK  Name = 
REMARK  3 active torsions:
REMARK  status: ('A' for Active; 'I' for Inactive)
REMARK    1  A    between atoms: C_1  and  O_2
REMARK    2  A    between atoms: O_2  and  C_3
REMARK    3  A    between atoms: C_8  and  O_9
REMARK                            x       y       z     vdW  Elec       q    Type
REMARK                         _______ _______ _______ _____ _____    ______ ____
ROOT
ATOM      1  C   UNL     1      16.059  10.664   8.352  0.00  0.00    +0.000 A 
ATOM      2  C   UNL     1      17.337  11.164   8.597  0.00  0.00    +0.000 A 
ATOM      3  C   UNL     1      18.165  10.537   9.537  0.00  0.00    +0.000 A 
ATOM      4  C   UNL     1      17.720   9.411  10.233  0.00  0.00    +0.000 A 
ATOM      5  C   UNL     1      16.445   8.906   9.993  0.00  0.00    +0.000 A 
ATOM      6  C   UNL     1      15.630   9.534   9.060  0.00  0.00    +0.000 A 
ENDROOT
BRANCH   1   8
ATOM      7  C   UNL     1      15.662  11.985   6.417  0.00  0.00    +0.000 C 
ATOM      8  O   UNL     1      15.145  11.175   7.466  0.00  0.00    +0.000 OA
ENDBRANCH   1   8
BRANCH   6   9
ATOM      9  O   UNL     1      14.380   9.019   8.841  0.00  0.00    +0.000 OA
ATOM     10  H   UNL     1      13.962   8.999   9.723  0.00  0.00    +0.000 HD
ENDBRANCH   6   9
TORSDOF 2
ENDMDL
MODEL 2
REMARK VINA RESULT:    -3.740      3.829      4.799
REMARK INTER + INTRA:          -4.107
REMARK INTER:                  -4.062
REMARK INTRA:                  -0.045
REMARK UNBOUND:                -0.039
REMARK  Name = 
REMARK  3 active torsions:
REMARK  status: ('A' for Active; 'I' for Inactive)
REMARK    1  A    between atoms: C_1  and  O_2
REMARK    2  A    between atoms: O_2  and  C_3
REMARK    3  A    between atoms: C_8  and  O_9
REMARK                            x       y       z     vdW  Elec       q    Type
REMARK                         _______ _______ _______ _____ _____    ______ ____
ROOT
ATOM      1  C   UNL     1      17.898  11.656   4.673  0.00  0.00    +0.000 A 
ATOM      2  C   UNL     1      18.462  12.055   5.884  0.00  0.00    +0.000 A 
ATOM      3  C   UNL     1      17.635  12.434   6.949  0.00  0.00    +0.000 A 
ATOM      4  C   UNL     1      16.246  12.417   6.808  0.00  0.00    +0.000 A 
ATOM      5  C   UNL     1      15.676  12.019   5.601  0.00  0.00    +0.000 A 
ATOM      6  C   UNL     1      16.503  11.645   4.550  0.00  0.00    +0.000 A 
ENDROOT
BRANCH   1   8
ATOM      7  C   UNL     1      19.740  12.018   3.216  0.00  0.00    +0.000 C 
ATOM      8  O   UNL     1      18.583  11.262   3.551  0.00  0.00    +0.000 OA
ENDBRANCH   1   8
BRANCH   6   9
ATOM      9  O   UNL     1      15.920  11.258   3.373  0.00  0.00    +0.000 OA
ATOM     10  H   UNL     1      15.431  12.046   3.067  0.00  0.00    +0.000 HD
ENDBRANCH   6   9
TORSDOF 2
ENDMDL
MODEL 3
REMARK VINA RESULT:    -3.719     14.177     14.947
REMARK INTER + INTRA:          -4.084
REMARK INTER:                  -4.033
REMARK INTRA:                  -0.051
REMARK UNBOUND:                -0.039
REMARK  Name = 
REMARK  3 active torsions:
REMARK  status: ('A' for Active; 'I' for Inactive)
REMARK    1  A    between atoms: C_1  and  O_2
REMARK    2  A    between atoms: O_2  and  C_3
REMARK    3  A    between atoms: C_8  and  O_9
REMARK                            x       y       z     vdW  Elec       q    Type
REMARK                         _______ _______ _______ _____ _____    ______ ____
ROOT
ATOM      1  C   UNL     1      18.409   2.024  -3.421  0.00  0.00    +0.000 A 
ATOM      2  C   UNL     1      17.972   2.370  -4.699  0.00  0.00    +0.000 A 
ATOM      3  C   UNL     1      16.671   2.854  -4.887  0.00  0.00    +0.000 A 
ATOM      4  C   UNL     1      15.805   2.994  -3.801  0.00  0.00    +0.000 A 
ATOM      5  C   UNL     1      16.234   2.651  -2.521  0.00  0.00    +0.000 A 
ATOM      6  C   UNL     1      17.526   2.171  -2.345  0.00  0.00    +0.000 A 
ENDROOT
BRANCH   1   8
ATOM      7  C   UNL     1      19.944   0.212  -3.513  0.00  0.00    +0.000 C 
ATOM      8  O   UNL     1      19.649   1.538  -3.092  0.00  0.00    +0.000 OA
ENDBRANCH   1   8
BRANCH   6   9
ATOM      9  O   UNL     1      17.925   1.840  -1.077  0.00  0.00    +0.000 OA
ATOM     10  H   UNL     1      18.889   1.700  -1.149  0.00  0.00    +0.000 HD
ENDBRANCH   6   9
TORSDOF 2
ENDMDL
MODEL 4
REMARK VINA RESULT:    -3.705     14.040     14.742
REMARK INTER + INTRA:          -4.068
REMARK INTER:                  -4.017
REMARK INTRA:                  -0.052
REMARK UNBOUND:                -0.039
REMARK  Name = 
REMARK  3 active torsions:
REMARK  status: ('A' for Active; 'I' for Inactive)
REMARK    1  A    between atoms: C_1  and  O_2
REMARK    2  A    between atoms: O_2  and  C_3
REMARK    3  A    between atoms: C_8  and  O_9
REMARK                            x       y       z     vdW  Elec       q    Type
REMARK                         _______ _______ _______ _____ _____    ______ ____
ROOT
ATOM      1  C   UNL     1      17.007   2.132  -3.413  0.00  0.00    +0.000 A 
ATOM      2  C   UNL     1      17.264   2.361  -4.764  0.00  0.00    +0.000 A 
ATOM      3  C   UNL     1      18.582   2.518  -5.209  0.00  0.00    +0.000 A 
ATOM      4  C   UNL     1      19.647   2.447  -4.308  0.00  0.00    +0.000 A 
ATOM      5  C   UNL     1      19.399   2.217  -2.957  0.00  0.00    +0.000 A 
ATOM      6  C   UNL     1      18.087   2.063  -2.524  0.00  0.00    +0.000 A 
ENDROOT
BRANCH   1   8
ATOM      7  C   UNL     1      14.852   3.035  -2.983  0.00  0.00    +0.000 C 
ATOM      8  O   UNL     1      15.773   1.961  -2.839  0.00  0.00    +0.000 OA
ENDBRANCH   1   8
BRANCH   6   9
ATOM      9  O   UNL     1      17.869   1.838  -1.191  0.00  0.00    +0.000 OA
ATOM     10  H   UNL     1      16.899   1.757  -1.109  0.00  0.00    +0.000 HD
ENDBRANCH   6   9
TORSDOF 2
ENDMDL
MODEL 5
REMARK VINA RESULT:    -3.670      2.326      4.030
REMARK INTER + INTRA:          -4.031
REMARK INTER:                  -3.982
REMARK INTRA:                  -0.049
REMARK UNBOUND:                -0.039
REMARK  Name = 
REMARK  3 active torsions:
REMARK  status: ('A' for Active; 'I' for Inactive)
REMARK    1  A    between atoms: C_1  and  O_2
REMARK    2  A    between atoms: O_2  and  C_3
REMARK    3  A    between atoms: C_8  and  O_9
REMARK                            x       y       z     vdW  Elec       q    Type
REMARK                         _______ _______ _______ _____ _____    ______ ____
ROOT
ATOM      1  C   UNL     1      17.051  10.406   7.491  0.00  0.00    +0.000 A 
ATOM      2  C   UNL     1      16.129  11.424   7.252  0.00  0.00    +0.000 A 
ATOM      3  C   UNL     1      16.064  12.028   5.990  0.00  0.00    +0.000 A 
ATOM      4  C   UNL     1      16.920  11.620   4.965  0.00  0.00    +0.000 A 
ATOM      5  C   UNL     1      17.844  10.603   5.196  0.00  0.00    +0.000 A 
ATOM      6  C   UNL     1      17.901  10.010   6.451  0.00  0.00    +0.000 A 
ENDROOT
BRANCH   1   8
ATOM      7  C   UNL     1      16.060   9.151   9.248  0.00  0.00    +0.000 C 
ATOM      8  O   UNL     1      17.225   9.729   8.671  0.00  0.00    +0.000 OA
ENDBRANCH   1   8
BRANCH   6   9
ATOM      9  O   UNL     1      18.818   9.013   6.653  0.00  0.00    +0.000 OA
ATOM     10  H   UNL     1      19.655   9.479   6.841  0.00  0.00    +0.000 HD
ENDBRANCH   6   9
TORSDOF 2
ENDMDL
MODEL 6
REMARK VINA RESULT:    -3.654      1.432      3.173
REMARK INTER + INTRA:          -4.013
REMARK INTER:                  -3.962
REMARK INTRA:                  -0.051
REMARK UNBOUND:                -0.039
REMARK  Name = 
REMARK  3 active torsions:
REMARK  status: ('A' for Active; 'I' for Inactive)
REMARK    1  A    between atoms: C_1  and  O_2
REMARK    2  A    between atoms: O_2  and  C_3
REMARK    3  A    between atoms: C_8  and  O_9
REMARK                            x       y       z     vdW  Elec       q    Type
REMARK                         _______ _______ _______ _____ _____    ______ ____
ROOT
ATOM      1  C   UNL     1      16.706   9.678   8.989  0.00  0.00    +0.000 A 
ATOM      2  C   UNL     1      17.737   9.953   8.092  0.00  0.00    +0.000 A 
ATOM      3  C   UNL     1      17.519  10.831   7.023  0.00  0.00    +0.000 A 
ATOM      4  C   UNL     1      16.272  11.436   6.847  0.00  0.00    +0.000 A 
ATOM      5  C   UNL     1      15.237  11.166   7.739  0.00  0.00    +0.000 A 
ATOM      6  C   UNL     1      15.463  10.293   8.796  0.00  0.00    +0.000 A 
ENDROOT
BRANCH   1   8
ATOM      7  C   UNL     1      17.563   9.291  11.171  0.00  0.00    +0.000 C 
ATOM      8  O   UNL     1      16.777   8.842  10.074  0.00  0.00    +0.000 OA
ENDBRANCH   1   8
BRANCH   6   9
ATOM      9  O   UNL     1      14.430  10.044   9.660  0.00  0.00    +0.000 OA
ATOM     10  H   UNL     1      13.827   9.458   9.163  0.00  0.00    +0.000 HD
ENDBRANCH   6   9
TORSDOF 2
ENDMDL
MODEL 7
REMARK VINA RESULT:    -3.628      1.695      3.555
REMARK INTER + INTRA:          -3.985
REMARK INTER:                  -3.942
REMARK INTRA:                  -0.043
REMARK UNBOUND:                -0.039
REMARK  Name = 
REMARK  3 active torsions:
REMARK  status: ('A' for Active; 'I' for Inactive)
REMARK    1  A    between atoms: C_1  and  O_2
REMARK    2  A    between atoms: O_2  and  C_3
REMARK    3  A    between atoms: C_8  and  O_9
REMARK                            x       y       z     vdW  Elec       q    Type
REMARK                         _______ _______ _______ _____ _____    ______ ____
ROOT
ATOM      1  C   UNL     1      16.255  10.856   7.431  0.00  0.00    +0.000 A 
ATOM      2  C   UNL     1      17.461  10.163   7.527  0.00  0.00    +0.000 A 
ATOM      3  C   UNL     1      18.359  10.168   6.452  0.00  0.00    +0.000 A 
ATOM      4  C   UNL     1      18.055  10.864   5.280  0.00  0.00    +0.000 A 
ATOM      5  C   UNL     1      16.853  11.559   5.177  0.00  0.00    +0.000 A 
ATOM      6  C   UNL     1      15.968  11.548   6.248  0.00  0.00    +0.000 A 
ENDROOT
BRANCH   1   8
ATOM      7  C   UNL     1      15.068   9.766   9.178  0.00  0.00    +0.000 C 
ATOM      8  O   UNL     1      15.286  10.936   8.399  0.00  0.00    +0.000 OA
ENDBRANCH   1   8
BRANCH   6   9
ATOM      9  O   UNL     1      14.792  12.238   6.122  0.00  0.00    +0.000 OA
ATOM     10  H   UNL     1      14.939  13.069   6.613  0.00  0.00    +0.000 HD
ENDBRANCH   6   9
TORSDOF 2
ENDMDL
MODEL 8
REMARK VINA RESULT:    -3.583     13.825     14.354
REMARK INTER + INTRA:          -3.937
REMARK INTER:                  -3.888
REMARK INTRA:                  -0.049
REMARK UNBOUND:                -0.039
REMARK  Name = 
REMARK  3 active torsions:
REMARK  status: ('A' for Active; 'I' for Inactive)
REMARK    1  A    between atoms: C_1  and  O_2
REMARK    2  A    between atoms: O_2  and  C_3
REMARK    3  A    between atoms: C_8  and  O_9
REMARK                            x       y       z     vdW  Elec       q    Type
REMARK                         _______ _______ _______ _____ _____    ______ ____
ROOT
ATOM      1  C   UNL     1      17.106   2.148  -2.568  0.00  0.00    +0.000 A 
ATOM      2  C   UNL     1      17.761   2.889  -1.585  0.00  0.00    +0.000 A 
ATOM      3  C   UNL     1      19.150   3.063  -1.651  0.00  0.00    +0.000 A 
ATOM      4  C   UNL     1      19.886   2.499  -2.694  0.00  0.00    +0.000 A 
ATOM      5  C   UNL     1      19.238   1.757  -3.679  0.00  0.00    +0.000 A 
ATOM      6  C   UNL     1      17.861   1.589  -3.606  0.00  0.00    +0.000 A 
ENDROOT
BRANCH   1   8
ATOM      7  C   UNL     1      14.923   2.994  -2.979  0.00  0.00    +0.000 C 
ATOM      8  O   UNL     1      15.758   1.896  -2.630  0.00  0.00    +0.000 OA
ENDBRANCH   1   8
BRANCH   6   9
ATOM      9  O   UNL     1      17.246   0.857  -4.586  0.00  0.00    +0.000 OA
ATOM     10  H   UNL     1      17.345   1.393  -5.396  0.00  0.00    +0.000 HD
ENDBRANCH   6   9
TORSDOF 2
ENDMDL
MODEL 9
REMARK VINA RESULT:    -3.529      2.170      3.181
REMARK INTER + INTRA:          -3.877
REMARK INTER:                  -3.838
REMARK INTRA:                  -0.039
REMARK UNBOUND:                -0.039
REMARK  Name = 
REMARK  3 active torsions:
REMARK  status: ('A' for Active; 'I' for Inactive)
REMARK    1  A    between atoms: C_1  and  O_2
REMARK    2  A    between atoms: O_2  and  C_3
REMARK    3  A    between atoms: C_8  and  O_9
REMARK                            x       y       z     vdW  Elec       q    Type
REMARK                         _______ _______ _______ _____ _____    ______ ____
ROOT
ATOM      1  C   UNL     1      17.016  11.195   5.834  0.00  0.00    +0.000 A 
ATOM      2  C   UNL     1      17.910  10.359   6.501  0.00  0.00    +0.000 A 
ATOM      3  C   UNL     1      17.622   9.921   7.800  0.00  0.00    +0.000 A 
ATOM      4  C   UNL     1      16.443  10.317   8.435  0.00  0.00    +0.000 A 
ATOM      5  C   UNL     1      15.545  11.152   7.775  0.00  0.00    +0.000 A 
ATOM      6  C   UNL     1      15.840  11.582   6.487  0.00  0.00    +0.000 A 
ENDROOT
BRANCH   1   8
ATOM      7  C   UNL     1      18.488  11.692   4.036  0.00  0.00    +0.000 C 
ATOM      8  O   UNL     1      17.169  11.699   4.567  0.00  0.00    +0.000 OA
ENDBRANCH   1   8
BRANCH   6   9
ATOM      9  O   UNL     1      14.941  12.402   5.859  0.00  0.00    +0.000 OA
ATOM     10  H   UNL     1      15.359  12.619   5.003  0.00  0.00    +0.000 HD
ENDBRANCH   6   9
TORSDOF 2
ENDMDL
