MODEL 1
REMARK VINA RESULT:    -4.892      0.000      0.000
REMARK INTER + INTRA:          -6.969
REMARK INTER:                  -6.608
REMARK INTRA:                  -0.361
REMARK UNBOUND:                -0.361
REMARK  Name = 
REMARK  10 active torsions:
REMARK  status: ('A' for Active; 'I' for Inactive)
REMARK    1  A    between atoms: C_1  and  C_2
REMARK    2  A    between atoms: C_5  and  N_8
REMARK    3  A    between atoms: N_8  and  C_9
REMARK    4  A    between atoms: N_8  and  C_13
REMARK    5  A    between atoms: C_9  and  C_10
REMARK    6  A    between atoms: C_10  and  C_11
REMARK    7  A    between atoms: C_10  and  O_12
REMARK    8  A    between atoms: C_13  and  C_14
REMARK    9  A    between atoms: C_14  and  C_15
REMARK   10  A    between atoms: C_14  and  O_16
REMARK                            x       y       z     vdW  Elec       q    Type
REMARK                         _______ _______ _______ _____ _____    ______ ____
ROOT
ATOM      1  N   UNL     1      18.142  -0.407  -5.843  0.00  0.00    +0.000 N 
ENDROOT
BRANCH   1   6
ATOM      2  C   UNL     1      18.311   3.131  -1.284  0.00  0.00    +0.000 C 
ATOM      3  C   UNL     1      18.262   2.194  -2.452  0.00  0.00    +0.000 A 
ATOM      4  C   UNL     1      19.414   1.564  -2.912  0.00  0.00    +0.000 A 
ATOM      5  C   UNL     1      19.368   0.710  -4.025  0.00  0.00    +0.000 A 
ATOM      6  C   UNL     1      18.185   0.461  -4.745  0.00  0.00    +0.000 A 
ATOM      7  C   UNL     1      17.040   1.112  -4.251  0.00  0.00    +0.000 A 
ATOM      8  C   UNL     1      17.072   1.967  -3.137  0.00  0.00    +0.000 A 
ENDBRANCH   1   6
BRANCH   1   9
ATOM      9  C   UNL     1      18.311  -1.867  -5.644  0.00  0.00    +0.000 C 
BRANCH   9  10
ATOM     10  C   UNL     1      16.986  -2.652  -5.806  0.00  0.00    +0.000 C 
ATOM     11  C   UNL     1      17.257  -4.111  -6.154  0.00  0.00    +0.000 C 
BRANCH  10  12
ATOM     12  O   UNL     1      16.216  -2.619  -4.597  0.00  0.00    +0.000 OA
ATOM     13  H   UNL     1      16.439  -1.802  -4.120  0.00  0.00    +0.000 HD
ENDBRANCH  10  12
ENDBRANCH   9  10
ENDBRANCH   1   9
BRANCH   1  14
ATOM     14  C   UNL     1      18.442   0.074  -7.216  0.00  0.00    +0.000 C 
BRANCH  14  15
ATOM     15  C   UNL     1      17.805   1.455  -7.503  0.00  0.00    +0.000 C 
ATOM     16  C   UNL     1      18.833   2.568  -7.665  0.00  0.00    +0.000 C 
BRANCH  15  17
ATOM     17  O   UNL     1      16.995   1.428  -8.678  0.00  0.00    +0.000 OA
ATOM     18  H   UNL     1      16.426   0.639  -8.574  0.00  0.00    +0.000 HD
ENDBRANCH  15  17
ENDBRANCH  14  15
ENDBRANCH   1  14
TORSDOF 7
ENDMDL
MODEL 2
REMARK VINA RESULT:    -4.880      2.664      5.400
REMARK INTER + INTRA:          -6.952
REMARK INTER:                  -6.276
REMARK INTRA:                  -0.677
REMARK UNBOUND:                -0.361
REMARK  Name = 
REMARK  10 active torsions:
REMARK  status: ('A' for Active; 'I' for Inactive)
REMARK    1  A    between atoms: C_1  and  C_2
REMARK    2  A    between atoms: C_5  and  N_8
REMARK    3  A    between atoms: N_8  and  C_9
REMARK    4  A    between atoms: N_8  and  C_13
REMARK    5  A    between atoms: C_9  and  C_10
REMARK    6  A    between atoms: C_10  and  C_11
REMARK    7  A    between atoms: C_10  and  O_12
REMARK    8  A    between atoms: C_13  and  C_14
REMARK    9  A    between atoms: C_14  and  C_15
REMARK   10  A    between atoms: C_14  and  O_16
REMARK                            x       y       z     vdW  Elec       q    Type
REMARK                         _______ _______ _______ _____ _____    ______ ____
ROOT
ATOM      1  N   UNL     1      17.497   1.920  -3.956  0.00  0.00    +0.000 N 
ENDROOT
BRANCH   1   6
ATOM      2  C   UNL     1      18.444  -3.116  -6.616  0.00  0.00    +0.000 C 
ATOM      3  C   UNL     1      18.190  -1.800  -5.947  0.00  0.00    +0.000 A 
ATOM      4  C   UNL     1      19.187  -0.833  -5.871  0.00  0.00    +0.000 A 
ATOM      5  C   UNL     1      18.952   0.388  -5.217  0.00  0.00    +0.000 A 
ATOM      6  C   UNL     1      17.730   0.693  -4.590  0.00  0.00    +0.000 A 
ATOM      7  C   UNL     1      16.745  -0.306  -4.689  0.00  0.00    +0.000 A 
ATOM      8  C   UNL     1      16.966  -1.530  -5.342  0.00  0.00    +0.000 A 
ENDBRANCH   1   6
BRANCH   1   9
ATOM      9  C   UNL     1      16.273   2.697  -4.268  0.00  0.00    +0.000 C 
BRANCH   9  10
ATOM     10  C   UNL     1      15.391   2.953  -3.022  0.00  0.00    +0.000 C 
ATOM     11  C   UNL     1      14.079   3.623  -3.411  0.00  0.00    +0.000 C 
BRANCH  10  12
ATOM     12  O   UNL     1      15.080   1.724  -2.351  0.00  0.00    +0.000 OA
ATOM     13  H   UNL     1      14.527   1.188  -2.944  0.00  0.00    +0.000 HD
ENDBRANCH  10  12
ENDBRANCH   9  10
ENDBRANCH   1   9
BRANCH   1  14
ATOM     14  C   UNL     1      18.615   2.717  -3.388  0.00  0.00    +0.000 C 
BRANCH  14  15
ATOM     15  C   UNL     1      19.048   2.204  -1.994  0.00  0.00    +0.000 C 
ATOM     16  C   UNL     1      19.883   3.214  -1.216  0.00  0.00    +0.000 C 
BRANCH  15  17
ATOM     17  O   UNL     1      17.924   1.848  -1.190  0.00  0.00    +0.000 OA
ATOM     18  H   UNL     1      18.268   1.815  -0.275  0.00  0.00    +0.000 HD
ENDBRANCH  15  17
ENDBRANCH  14  15
ENDBRANCH   1  14
TORSDOF 7
ENDMDL
MODEL 3
REMARK VINA RESULT:    -4.813     14.823     17.550
REMARK INTER + INTRA:          -6.862
REMARK INTER:                  -6.292
REMARK INTRA:                  -0.570
REMARK UNBOUND:                -0.361
REMARK  Name = 
REMARK  10 active torsions:
REMARK  status: ('A' for Active; 'I' for Inactive)
REMARK    1  A    between atoms: C_1  and  C_2
REMARK    2  A    between atoms: C_5  and  N_8
REMARK    3  A    between atoms: N_8  and  C_9
REMARK    4  A    between atoms: N_8  and  C_13
REMARK    5  A    between atoms: C_9  and  C_10
REMARK    6  A    between atoms: C_10  and  C_11
REMARK    7  A    between atoms: C_10  and  O_12
REMARK    8  A    between atoms: C_13  and  C_14
REMARK    9  A    between atoms: C_14  and  C_15
REMARK   10  A    between atoms: C_14  and  O_16
REMARK                            x       y       z     vdW  Elec       q    Type
REMARK                         _______ _______ _______ _____ _____    ______ ____
ROOT
ATOM      1  N   UNL     1      16.755  11.245   7.047  0.00  0.00    +0.000 N 
ENDROOT
BRANCH   1   6
ATOM      2  C   UNL     1      19.806  15.919   8.521  0.00  0.00    +0.000 C 
ATOM      3  C   UNL     1      19.021  14.709   8.115  0.00  0.00    +0.000 A 
ATOM      4  C   UNL     1      17.674  14.810   7.783  0.00  0.00    +0.000 A 
ATOM      5  C   UNL     1      16.936  13.668   7.432  0.00  0.00    +0.000 A 
ATOM      6  C   UNL     1      17.493  12.377   7.417  0.00  0.00    +0.000 A 
ATOM      7  C   UNL     1      18.857  12.313   7.755  0.00  0.00    +0.000 A 
ATOM      8  C   UNL     1      19.607  13.447   8.106  0.00  0.00    +0.000 A 
ENDBRANCH   1   6
BRANCH   1   9
ATOM      9  C   UNL     1      17.021  10.576   5.750  0.00  0.00    +0.000 C 
BRANCH   9  10
ATOM     10  C   UNL     1      17.024  11.562   4.556  0.00  0.00    +0.000 C 
ATOM     11  C   UNL     1      18.398  11.616   3.898  0.00  0.00    +0.000 C 
BRANCH  10  12
ATOM     12  O   UNL     1      16.070  11.168   3.560  0.00  0.00    +0.000 OA
ATOM     13  H   UNL     1      15.821  11.958   3.053  0.00  0.00    +0.000 HD
ENDBRANCH  10  12
ENDBRANCH   9  10
ENDBRANCH   1   9
BRANCH   1  14
ATOM     14  C   UNL     1      15.411  10.981   7.622  0.00  0.00    +0.000 C 
BRANCH  14  15
ATOM     15  C   UNL     1      15.475  10.034   8.845  0.00  0.00    +0.000 C 
ATOM     16  C   UNL     1      15.499  10.776  10.176  0.00  0.00    +0.000 C 
BRANCH  15  17
ATOM     17  O   UNL     1      14.376   9.125   8.866  0.00  0.00    +0.000 OA
ATOM     18  H   UNL     1      13.579   9.690   8.803  0.00  0.00    +0.000 HD
ENDBRANCH  15  17
ENDBRANCH  14  15
ENDBRANCH   1  14
TORSDOF 7
ENDMDL
MODEL 4
REMARK VINA RESULT:    -4.761      0.684      3.652
REMARK INTER + INTRA:          -6.791
REMARK INTER:                  -6.301
REMARK INTRA:                  -0.490
REMARK UNBOUND:                -0.361
REMARK  Name = 
REMARK  10 active torsions:
REMARK  status: ('A' for Active; 'I' for Inactive)
REMARK    1  A    between atoms: C_1  and  C_2
REMARK    2  A    between atoms: C_5  and  N_8
REMARK    3  A    between atoms: N_8  and  C_9
REMARK    4  A    between atoms: N_8  and  C_13
REMARK    5  A    between atoms: C_9  and  C_10
REMARK    6  A    between atoms: C_10  and  C_11
REMARK    7  A    between atoms: C_10  and  O_12
REMARK    8  A    between atoms: C_13  and  C_14
REMARK    9  A    between atoms: C_14  and  C_15
REMARK   10  A    between atoms: C_14  and  O_16
REMARK                            x       y       z     vdW  Elec       q    Type
REMARK                         _______ _______ _______ _____ _____    ______ ____
ROOT
ATOM      1  N   UNL     1      17.811  -0.352  -5.529  0.00  0.00    +0.000 N 
ENDROOT
BRANCH   1   6
ATOM      2  C   UNL     1      18.584   3.353  -1.169  0.00  0.00    +0.000 C 
ATOM      3  C   UNL     1      18.377   2.374  -2.284  0.00  0.00    +0.000 A 
ATOM      4  C   UNL     1      19.437   1.620  -2.778  0.00  0.00    +0.000 A 
ATOM      5  C   UNL     1      19.244   0.725  -3.844  0.00  0.00    +0.000 A 
ATOM      6  C   UNL     1      18.000   0.556  -4.480  0.00  0.00    +0.000 A 
ATOM      7  C   UNL     1      16.952   1.333  -3.953  0.00  0.00    +0.000 A 
ATOM      8  C   UNL     1      17.131   2.229  -2.887  0.00  0.00    +0.000 A 
ENDBRANCH   1   6
BRANCH   1   9
ATOM      9  C   UNL     1      18.222   0.008  -6.907  0.00  0.00    +0.000 C 
BRANCH   9  10
ATOM     10  C   UNL     1      17.790   1.440  -7.308  0.00  0.00    +0.000 C 
ATOM     11  C   UNL     1      19.003   2.345  -7.490  0.00  0.00    +0.000 C 
BRANCH  10  12
ATOM     12  O   UNL     1      17.055   1.430  -8.540  0.00  0.00    +0.000 OA
ATOM     13  H   UNL     1      17.688   1.534  -9.269  0.00  0.00    +0.000 HD
ENDBRANCH  10  12
ENDBRANCH   9  10
ENDBRANCH   1   9
BRANCH   1  14
ATOM     14  C   UNL     1      16.784  -1.422  -5.443  0.00  0.00    +0.000 C 
BRANCH  14  15
ATOM     15  C   UNL     1      17.381  -2.826  -5.703  0.00  0.00    +0.000 C 
ATOM     16  C   UNL     1      18.653  -3.094  -4.908  0.00  0.00    +0.000 C 
BRANCH  15  17
ATOM     17  O   UNL     1      16.445  -3.860  -5.402  0.00  0.00    +0.000 OA
ATOM     18  H   UNL     1      16.232  -3.740  -4.454  0.00  0.00    +0.000 HD
ENDBRANCH  15  17
ENDBRANCH  14  15
ENDBRANCH   1  14
TORSDOF 7
ENDMDL
MODEL 5
REMARK VINA RESULT:    -4.741      2.142      4.976
REMARK INTER + INTRA:          -6.764
REMARK INTER:                  -5.984
REMARK INTRA:                  -0.780
REMARK UNBOUND:                -0.361
REMARK  Name = 
REMARK  10 active torsions:
REMARK  status: ('A' for Active; 'I' for Inactive)
REMARK    1  A    between atoms: C_1  and  C_2
REMARK    2  A    between atoms: C_5  and  N_8
REMARK    3  A    between atoms: N_8  and  C_9
REMARK    4  A    between atoms: N_8  and  C_13
REMARK    5  A    between atoms: C_9  and  C_10
REMARK    6  A    between atoms: C_10  and  C_11
REMARK    7  A    between atoms: C_10  and  O_12
REMARK    8  A    between atoms: C_13  and  C_14
REMARK    9  A    between atoms: C_14  and  C_15
REMARK   10  A    between atoms: C_14  and  O_16
REMARK                            x       y       z     vdW  Elec       q    Type
REMARK                         _______ _______ _______ _____ _____    ______ ____
ROOT
ATOM      1  N   UNL     1      18.202   1.494  -4.723  0.00  0.00    +0.000 N 
ENDROOT
BRANCH   1   6
ATOM      2  C   UNL     1      18.294  -4.262  -5.152  0.00  0.00    +0.000 C 
ATOM      3  C   UNL     1      18.265  -2.771  -5.016  0.00  0.00    +0.000 A 
ATOM      4  C   UNL     1      17.093  -2.056  -5.241  0.00  0.00    +0.000 A 
ATOM      5  C   UNL     1      17.079  -0.655  -5.142  0.00  0.00    +0.000 A 
ATOM      6  C   UNL     1      18.228   0.099  -4.839  0.00  0.00    +0.000 A 
ATOM      7  C   UNL     1      19.393  -0.657  -4.617  0.00  0.00    +0.000 A 
ATOM      8  C   UNL     1      19.421  -2.059  -4.711  0.00  0.00    +0.000 A 
ENDBRANCH   1   6
BRANCH   1   9
ATOM      9  C   UNL     1      19.226   2.316  -5.411  0.00  0.00    +0.000 C 
BRANCH   9  10
ATOM     10  C   UNL     1      18.830   2.675  -6.865  0.00  0.00    +0.000 C 
ATOM     11  C   UNL     1      19.425   1.679  -7.853  0.00  0.00    +0.000 C 
BRANCH  10  12
ATOM     12  O   UNL     1      17.405   2.666  -7.027  0.00  0.00    +0.000 OA
ATOM     13  H   UNL     1      17.017   3.201  -6.315  0.00  0.00    +0.000 HD
ENDBRANCH  10  12
ENDBRANCH   9  10
ENDBRANCH   1   9
BRANCH   1  14
ATOM     14  C   UNL     1      17.540   2.157  -3.571  0.00  0.00    +0.000 C 
BRANCH  14  15
ATOM     15  C   UNL     1      16.078   2.555  -3.887  0.00  0.00    +0.000 C 
ATOM     16  C   UNL     1      15.206   2.675  -2.642  0.00  0.00    +0.000 C 
BRANCH  15  17
ATOM     17  O   UNL     1      16.010   3.792  -4.594  0.00  0.00    +0.000 OA
ATOM     18  H   UNL     1      15.600   3.569  -5.454  0.00  0.00    +0.000 HD
ENDBRANCH  15  17
ENDBRANCH  14  15
ENDBRANCH   1  14
TORSDOF 7
ENDMDL
MODEL 6
REMARK VINA RESULT:    -4.568     15.667     17.725
REMARK INTER + INTRA:          -6.532
REMARK INTER:                  -6.076
REMARK INTRA:                  -0.456
REMARK UNBOUND:                -0.361
REMARK  Name = 
REMARK  10 active torsions:
REMARK  status: ('A' for Active; 'I' for Inactive)
REMARK    1  A    between atoms: C_1  and  C_2
REMARK    2  A    between atoms: C_5  and  N_8
REMARK    3  A    between atoms: N_8  and  C_9
REMARK    4  A    between atoms: N_8  and  C_13
REMARK    5  A    between atoms: C_9  and  C_10
REMARK    6  A    between atoms: C_10  and  C_11
REMARK    7  A    between atoms: C_10  and  O_12
REMARK    8  A    between atoms: C_13  and  C_14
REMARK    9  A    between atoms: C_14  and  C_15
REMARK   10  A    between atoms: C_14  and  O_16
REMARK                            x       y       z     vdW  Elec       q    Type
REMARK                         _______ _______ _______ _____ _____    ______ ____
ROOT
ATOM      1  N   UNL     1      16.225  11.892   8.152  0.00  0.00    +0.000 N 
ENDROOT
BRANCH   1   6
ATOM      2  C   UNL     1      21.158  14.852   7.666  0.00  0.00    +0.000 C 
ATOM      3  C   UNL     1      19.875  14.085   7.767  0.00  0.00    +0.000 A 
ATOM      4  C   UNL     1      18.666  14.740   7.975  0.00  0.00    +0.000 A 
ATOM      5  C   UNL     1      17.470  14.014   8.099  0.00  0.00    +0.000 A 
ATOM      6  C   UNL     1      17.424  12.609   8.047  0.00  0.00    +0.000 A 
ATOM      7  C   UNL     1      18.665  11.980   7.833  0.00  0.00    +0.000 A 
ATOM      8  C   UNL     1      19.867  12.695   7.706  0.00  0.00    +0.000 A 
ENDBRANCH   1   6
BRANCH   1   9
ATOM      9  C   UNL     1      15.879  11.204   9.419  0.00  0.00    +0.000 C 
BRANCH   9  10
ATOM     10  C   UNL     1      15.625   9.689   9.229  0.00  0.00    +0.000 C 
ATOM     11  C   UNL     1      16.648   8.863  10.001  0.00  0.00    +0.000 C 
BRANCH  10  12
ATOM     12  O   UNL     1      14.318   9.324   9.693  0.00  0.00    +0.000 OA
ATOM     13  H   UNL     1      14.280   8.355   9.755  0.00  0.00    +0.000 HD
ENDBRANCH  10  12
ENDBRANCH   9  10
ENDBRANCH   1   9
BRANCH   1  14
ATOM     14  C   UNL     1      15.538  11.363   6.946  0.00  0.00    +0.000 C 
BRANCH  14  15
ATOM     15  C   UNL     1      15.702  12.297   5.723  0.00  0.00    +0.000 C 
ATOM     16  C   UNL     1      16.481  11.656   4.580  0.00  0.00    +0.000 C 
BRANCH  15  17
ATOM     17  O   UNL     1      14.441  12.724   5.212  0.00  0.00    +0.000 OA
ATOM     18  H   UNL     1      13.846  11.956   5.331  0.00  0.00    +0.000 HD
ENDBRANCH  15  17
ENDBRANCH  14  15
ENDBRANCH   1  14
TORSDOF 7
ENDMDL
MODEL 7
REMARK VINA RESULT:    -4.547      2.484      4.687
REMARK INTER + INTRA:          -6.503
REMARK INTER:                  -5.936
REMARK INTRA:                  -0.567
REMARK UNBOUND:                -0.361
REMARK  Name = 
REMARK  10 active torsions:
REMARK  status: ('A' for Active; 'I' for Inactive)
REMARK    1  A    between atoms: C_1  and  C_2
REMARK    2  A    between atoms: C_5  and  N_8
REMARK    3  A    between atoms: N_8  and  C_9
REMARK    4  A    between atoms: N_8  and  C_13
REMARK    5  A    between atoms: C_9  and  C_10
REMARK    6  A    between atoms: C_10  and  C_11
REMARK    7  A    between atoms: C_10  and  O_12
REMARK    8  A    between atoms: C_13  and  C_14
REMARK    9  A    between atoms: C_14  and  C_15
REMARK   10  A    between atoms: C_14  and  O_16
REMARK                            x       y       z     vdW  Elec       q    Type
REMARK                         _______ _______ _______ _____ _____    ______ ____
ROOT
ATOM      1  N   UNL     1      18.122   1.455  -5.035  0.00  0.00    +0.000 N 
ENDROOT
BRANCH   1   6
ATOM      2  C   UNL     1      18.422  -4.309  -4.912  0.00  0.00    +0.000 C 
ATOM      3  C   UNL     1      18.339  -2.813  -4.920  0.00  0.00    +0.000 A 
ATOM      4  C   UNL     1      17.142  -2.165  -5.204  0.00  0.00    +0.000 A 
ATOM      5  C   UNL     1      17.077  -0.763  -5.239  0.00  0.00    +0.000 A 
ATOM      6  C   UNL     1      18.198   0.057  -5.018  0.00  0.00    +0.000 A 
ATOM      7  C   UNL     1      19.391  -0.631  -4.732  0.00  0.00    +0.000 A 
ATOM      8  C   UNL     1      19.470  -2.033  -4.692  0.00  0.00    +0.000 A 
ENDBRANCH   1   6
BRANCH   1   9
ATOM      9  C   UNL     1      17.610   2.187  -3.852  0.00  0.00    +0.000 C 
BRANCH   9  10
ATOM     10  C   UNL     1      16.093   2.486  -3.940  0.00  0.00    +0.000 C 
ATOM     11  C   UNL     1      15.398   2.173  -2.620  0.00  0.00    +0.000 C 
BRANCH  10  12
ATOM     12  O   UNL     1      15.858   3.866  -4.250  0.00  0.00    +0.000 OA
ATOM     13  H   UNL     1      14.901   4.028  -4.198  0.00  0.00    +0.000 HD
ENDBRANCH  10  12
ENDBRANCH   9  10
ENDBRANCH   1   9
BRANCH   1  14
ATOM     14  C   UNL     1      18.041   2.205  -6.315  0.00  0.00    +0.000 C 
BRANCH  14  15
ATOM     15  C   UNL     1      19.004   3.417  -6.344  0.00  0.00    +0.000 C 
ATOM     16  C   UNL     1      19.762   3.549  -7.660  0.00  0.00    +0.000 C 
BRANCH  15  17
ATOM     17  O   UNL     1      18.315   4.643  -6.106  0.00  0.00    +0.000 OA
ATOM     18  H   UNL     1      18.290   4.734  -5.132  0.00  0.00    +0.000 HD
ENDBRANCH  15  17
ENDBRANCH  14  15
ENDBRANCH   1  14
TORSDOF 7
ENDMDL
MODEL 8
REMARK VINA RESULT:    -4.518      3.171      5.396
REMARK INTER + INTRA:          -6.463
REMARK INTER:                  -5.891
REMARK INTRA:                  -0.573
REMARK UNBOUND:                -0.361
REMARK  Name = 
REMARK  10 active torsions:
REMARK  status: ('A' for Active; 'I' for Inactive)
REMARK    1  A    between atoms: C_1  and  C_2
REMARK    2  A    between atoms: C_5  and  N_8
REMARK    3  A    between atoms: N_8  and  C_9
REMARK    4  A    between atoms: N_8  and  C_13
REMARK    5  A    between atoms: C_9  and  C_10
REMARK    6  A    between atoms: C_10  and  C_11
REMARK    7  A    between atoms: C_10  and  O_12
REMARK    8  A    between atoms: C_13  and  C_14
REMARK    9  A    between atoms: C_14  and  C_15
REMARK   10  A    between atoms: C_14  and  O_16
REMARK                            x       y       z     vdW  Elec       q    Type
REMARK                         _______ _______ _______ _____ _____    ______ ____
ROOT
ATOM      1  N   UNL     1      17.887   2.386  -4.332  0.00  0.00    +0.000 N 
ENDROOT
BRANCH   1   6
ATOM      2  C   UNL     1      18.963   2.504 -10.002  0.00  0.00    +0.000 C 
ATOM      3  C   UNL     1      18.706   2.462  -8.527  0.00  0.00    +0.000 A 
ATOM      4  C   UNL     1      18.011   1.402  -7.953  0.00  0.00    +0.000 A 
ATOM      5  C   UNL     1      17.747   1.382  -6.574  0.00  0.00    +0.000 A 
ATOM      6  C   UNL     1      18.137   2.421  -5.709  0.00  0.00    +0.000 A 
ATOM      7  C   UNL     1      18.838   3.475  -6.323  0.00  0.00    +0.000 A 
ATOM      8  C   UNL     1      19.111   3.506  -7.701  0.00  0.00    +0.000 A 
ENDBRANCH   1   6
BRANCH   1   9
ATOM      9  C   UNL     1      18.992   2.611  -3.369  0.00  0.00    +0.000 C 
BRANCH   9  10
ATOM     10  C   UNL     1      19.371   1.333  -2.581  0.00  0.00    +0.000 C 
ATOM     11  C   UNL     1      20.444   0.538  -3.316  0.00  0.00    +0.000 C 
BRANCH  10  12
ATOM     12  O   UNL     1      19.875   1.662  -1.279  0.00  0.00    +0.000 OA
ATOM     13  H   UNL     1      19.126   1.676  -0.661  0.00  0.00    +0.000 HD
ENDBRANCH  10  12
ENDBRANCH   9  10
ENDBRANCH   1   9
BRANCH   1  14
ATOM     14  C   UNL     1      16.719   1.651  -3.781  0.00  0.00    +0.000 C 
BRANCH  14  15
ATOM     15  C   UNL     1      15.779   2.573  -2.968  0.00  0.00    +0.000 C 
ATOM     16  C   UNL     1      15.070   3.613  -3.827  0.00  0.00    +0.000 C 
BRANCH  15  17
ATOM     17  O   UNL     1      14.784   1.826  -2.268  0.00  0.00    +0.000 OA
ATOM     18  H   UNL     1      13.930   2.161  -2.610  0.00  0.00    +0.000 HD
ENDBRANCH  15  17
ENDBRANCH  14  15
ENDBRANCH   1  14
TORSDOF 7
ENDMDL
MODEL 9
REMARK VINA RESULT:    -4.469     15.006     17.669
REMARK INTER + INTRA:          -6.398
REMARK INTER:                  -6.017
REMARK INTRA:                  -0.381
REMARK UNBOUND:                -0.361
REMARK  Name = 
REMARK  10 active torsions:
REMARK  status: ('A' for Active; 'I' for Inactive)
REMARK    1  A    between atoms: C_1  and  C_2
REMARK    2  A    between atoms: C_5  and  N_8
REMARK    3  A    between atoms: N_8  and  C_9
REMARK    4  A    between atoms: N_8  and  C_13
REMARK    5  A    between atoms: C_9  and  C_10
REMARK    6  A    between atoms: C_10  and  C_11
REMARK    7  A    between atoms: C_10  and  O_12
REMARK    8  A    between atoms: C_13  and  C_14
REMARK    9  A    between atoms: C_14  and  C_15
REMARK   10  A    between atoms: C_14  and  O_16
REMARK                            x       y       z     vdW  Elec       q    Type
REMARK                         _______ _______ _______ _____ _____    ______ ____
ROOT
ATOM      1  N   UNL     1      16.614  11.470   8.541  0.00  0.00    +0.000 N 
ENDROOT
BRANCH   1   6
ATOM      2  C   UNL     1      19.312  11.222   3.443  0.00  0.00    +0.000 C 
ATOM      3  C   UNL     1      18.616  11.311   4.766  0.00  0.00    +0.000 A 
ATOM      4  C   UNL     1      19.317  11.141   5.955  0.00  0.00    +0.000 A 
ATOM      5  C   UNL     1      18.653  11.196   7.192  0.00  0.00    +0.000 A 
ATOM      6  C   UNL     1      17.266  11.397   7.303  0.00  0.00    +0.000 A 
ATOM      7  C   UNL     1      16.589  11.567   6.081  0.00  0.00    +0.000 A 
ATOM      8  C   UNL     1      17.241  11.516   4.838  0.00  0.00    +0.000 A 
ENDBRANCH   1   6
BRANCH   1   9
ATOM      9  C   UNL     1      15.249  10.911   8.696  0.00  0.00    +0.000 C 
BRANCH   9  10
ATOM     10  C   UNL     1      15.250   9.378   8.917  0.00  0.00    +0.000 C 
ATOM     11  C   UNL     1      16.434   8.953   9.778  0.00  0.00    +0.000 C 
BRANCH  10  12
ATOM     12  O   UNL     1      14.048   8.952   9.573  0.00  0.00    +0.000 OA
ATOM     13  H   UNL     1      13.723   8.157   9.119  0.00  0.00    +0.000 HD
ENDBRANCH  10  12
ENDBRANCH   9  10
ENDBRANCH   1   9
BRANCH   1  14
ATOM     14  C   UNL     1      16.985  12.498   9.546  0.00  0.00    +0.000 C 
BRANCH  14  15
ATOM     15  C   UNL     1      17.675  11.880  10.786  0.00  0.00    +0.000 C 
ATOM     16  C   UNL     1      18.954  12.607  11.185  0.00  0.00    +0.000 C 
BRANCH  15  17
ATOM     17  O   UNL     1      16.806  11.862  11.918  0.00  0.00    +0.000 OA
ATOM     18  H   UNL     1      15.991  11.421  11.604  0.00  0.00    +0.000 HD
ENDBRANCH  15  17
ENDBRANCH  14  15
ENDBRANCH   1  14
TORSDOF 7
ENDMDL
