MODEL 1
REMARK VINA RESULT:    -4.699      0.000      0.000
REMARK INTER + INTRA:          -6.994
REMARK INTER:                  -6.347
REMARK INTRA:                  -0.646
REMARK UNBOUND:                -0.646
REMARK  Name = 
REMARK  10 active torsions:
REMARK  status: ('A' for Active; 'I' for Inactive)
REMARK    1  A    between atoms: C_1  and  C_2
REMARK    2  A    between atoms: C_5  and  N_8
REMARK    3  A    between atoms: N_8  and  C_9
REMARK    4  A    between atoms: N_8  and  C_13
REMARK    5  A    between atoms: C_9  and  C_10
REMARK    6  A    between atoms: C_10  and  C_11
REMARK    7  A    between atoms: C_10  and  O_12
REMARK    8  A    between atoms: C_13  and  C_14
REMARK    9  A    between atoms: C_14  and  C_15
REMARK   10  A    between atoms: C_14  and  O_16
REMARK                            x       y       z     vdW  Elec       q    Type
REMARK                         _______ _______ _______ _____ _____    ______ ____
ROOT
ATOM      1  N   UNL     1      17.471   2.081  -4.270  0.00  0.00    +0.000 N 
ENDROOT
BRANCH   1   6
ATOM      2  C   UNL     1      18.549  -1.985  -8.224  0.00  0.00    +0.000 C 
ATOM      3  C   UNL     1      18.246  -0.929  -7.206  0.00  0.00    +0.000 A 
ATOM      4  C   UNL     1      18.420   0.419  -7.501  0.00  0.00    +0.000 A 
ATOM      5  C   UNL     1      18.163   1.403  -6.532  0.00  0.00    +0.000 A 
ATOM      6  C   UNL     1      17.745   1.094  -5.225  0.00  0.00    +0.000 A 
ATOM      7  C   UNL     1      17.577  -0.278  -4.963  0.00  0.00    +0.000 A 
ATOM      8  C   UNL     1      17.829  -1.272  -5.923  0.00  0.00    +0.000 A 
ENDBRANCH   1   6
BRANCH   1   9
ATOM      9  C   UNL     1      16.261   2.928  -4.402  0.00  0.00    +0.000 C 
BRANCH   9  10
ATOM     10  C   UNL     1      15.420   2.978  -3.103  0.00  0.00    +0.000 C 
ATOM     11  C   UNL     1      14.050   3.593  -3.364  0.00  0.00    +0.000 C 
BRANCH  10  12
ATOM     12  O   UNL     1      15.221   1.662  -2.568  0.00  0.00    +0.000 OA
ATOM     13  H   UNL     1      15.609   1.637  -1.678  0.00  0.00    +0.000 HD
ENDBRANCH  10  12
ENDBRANCH   9  10
ENDBRANCH   1   9
BRANCH   1  14
ATOM     14  C   UNL     1      18.553   2.664  -3.435  0.00  0.00    +0.000 C 
BRANCH  14  15
ATOM     15  C   UNL     1      18.925   1.751  -2.242  0.00  0.00    +0.000 C 
ATOM     16  C   UNL     1      20.318   2.027  -1.688  0.00  0.00    +0.000 C 
BRANCH  15  17
ATOM     17  O   UNL     1      17.992   1.877  -1.171  0.00  0.00    +0.000 OA
ATOM     18  H   UNL     1      17.316   1.190  -1.342  0.00  0.00    +0.000 HD
ENDBRANCH  15  17
ENDBRANCH  14  15
ENDBRANCH   1  14
TORSDOF 7
ENDMDL
MODEL 2
REMARK VINA RESULT:    -4.681      2.538      5.518
REMARK INTER + INTRA:          -6.969
REMARK INTER:                  -6.603
REMARK INTRA:                  -0.366
REMARK UNBOUND:                -0.646
REMARK  Name = 
REMARK  10 active torsions:
REMARK  status: ('A' for Active; 'I' for Inactive)
REMARK    1  A    between atoms: C_1  and  C_2
REMARK    2  A    between atoms: C_5  and  N_8
REMARK    3  A    between atoms: N_8  and  C_9
REMARK    4  A    between atoms: N_8  and  C_13
REMARK    5  A    between atoms: C_9  and  C_10
REMARK    6  A    between atoms: C_10  and  C_11
REMARK    7  A    between atoms: C_10  and  O_12
REMARK    8  A    between atoms: C_13  and  C_14
REMARK    9  A    between atoms: C_14  and  C_15
REMARK   10  A    between atoms: C_14  and  O_16
REMARK                            x       y       z     vdW  Elec       q    Type
REMARK                         _______ _______ _______ _____ _____    ______ ____
ROOT
ATOM      1  N   UNL     1      18.155  -0.388  -5.867  0.00  0.00    +0.000 N 
ENDROOT
BRANCH   1   6
ATOM      2  C   UNL     1      18.271   3.142  -1.301  0.00  0.00    +0.000 C 
ATOM      3  C   UNL     1      18.236   2.207  -2.470  0.00  0.00    +0.000 A 
ATOM      4  C   UNL     1      19.396   1.591  -2.927  0.00  0.00    +0.000 A 
ATOM      5  C   UNL     1      19.362   0.738  -4.043  0.00  0.00    +0.000 A 
ATOM      6  C   UNL     1      18.185   0.479  -4.767  0.00  0.00    +0.000 A 
ATOM      7  C   UNL     1      17.031   1.117  -4.276  0.00  0.00    +0.000 A 
ATOM      8  C   UNL     1      17.050   1.970  -3.160  0.00  0.00    +0.000 A 
ENDBRANCH   1   6
BRANCH   1   9
ATOM      9  C   UNL     1      18.332  -1.847  -5.669  0.00  0.00    +0.000 C 
BRANCH   9  10
ATOM     10  C   UNL     1      17.012  -2.640  -5.835  0.00  0.00    +0.000 C 
ATOM     11  C   UNL     1      17.292  -4.107  -6.136  0.00  0.00    +0.000 C 
BRANCH  10  12
ATOM     12  O   UNL     1      16.219  -2.574  -4.642  0.00  0.00    +0.000 OA
ATOM     13  H   UNL     1      16.755  -2.159  -3.946  0.00  0.00    +0.000 HD
ENDBRANCH  10  12
ENDBRANCH   9  10
ENDBRANCH   1   9
BRANCH   1  14
ATOM     14  C   UNL     1      18.460   0.098  -7.237  0.00  0.00    +0.000 C 
BRANCH  14  15
ATOM     15  C   UNL     1      17.807   1.470  -7.529  0.00  0.00    +0.000 C 
ATOM     16  C   UNL     1      18.824   2.593  -7.704  0.00  0.00    +0.000 C 
BRANCH  15  17
ATOM     17  O   UNL     1      16.991   1.428  -8.699  0.00  0.00    +0.000 OA
ATOM     18  H   UNL     1      16.558   2.304  -8.737  0.00  0.00    +0.000 HD
ENDBRANCH  15  17
ENDBRANCH  14  15
ENDBRANCH   1  14
TORSDOF 7
ENDMDL
MODEL 3
REMARK VINA RESULT:    -4.629     14.059     16.734
REMARK INTER + INTRA:          -6.899
REMARK INTER:                  -6.332
REMARK INTRA:                  -0.568
REMARK UNBOUND:                -0.646
REMARK  Name = 
REMARK  10 active torsions:
REMARK  status: ('A' for Active; 'I' for Inactive)
REMARK    1  A    between atoms: C_1  and  C_2
REMARK    2  A    between atoms: C_5  and  N_8
REMARK    3  A    between atoms: N_8  and  C_9
REMARK    4  A    between atoms: N_8  and  C_13
REMARK    5  A    between atoms: C_9  and  C_10
REMARK    6  A    between atoms: C_10  and  C_11
REMARK    7  A    between atoms: C_10  and  O_12
REMARK    8  A    between atoms: C_13  and  C_14
REMARK    9  A    between atoms: C_14  and  C_15
REMARK   10  A    between atoms: C_14  and  O_16
REMARK                            x       y       z     vdW  Elec       q    Type
REMARK                         _______ _______ _______ _____ _____    ______ ____
ROOT
ATOM      1  N   UNL     1      16.724  11.295   7.028  0.00  0.00    +0.000 N 
ENDROOT
BRANCH   1   6
ATOM      2  C   UNL     1      19.807  15.981   8.396  0.00  0.00    +0.000 C 
ATOM      3  C   UNL     1      19.013  14.768   8.017  0.00  0.00    +0.000 A 
ATOM      4  C   UNL     1      17.657  14.865   7.724  0.00  0.00    +0.000 A 
ATOM      5  C   UNL     1      16.911  13.721   7.399  0.00  0.00    +0.000 A 
ATOM      6  C   UNL     1      17.470  12.430   7.372  0.00  0.00    +0.000 A 
ATOM      7  C   UNL     1      18.843  12.370   7.671  0.00  0.00    +0.000 A 
ATOM      8  C   UNL     1      19.601  13.507   7.996  0.00  0.00    +0.000 A 
ENDBRANCH   1   6
BRANCH   1   9
ATOM      9  C   UNL     1      16.982  10.598   5.745  0.00  0.00    +0.000 C 
BRANCH   9  10
ATOM     10  C   UNL     1      17.011  11.561   4.533  0.00  0.00    +0.000 C 
ATOM     11  C   UNL     1      18.400  11.606   3.906  0.00  0.00    +0.000 C 
BRANCH  10  12
ATOM     12  O   UNL     1      16.081  11.147   3.524  0.00  0.00    +0.000 OA
ATOM     13  H   UNL     1      15.457  11.877   3.372  0.00  0.00    +0.000 HD
ENDBRANCH  10  12
ENDBRANCH   9  10
ENDBRANCH   1   9
BRANCH   1  14
ATOM     14  C   UNL     1      15.380  11.052   7.612  0.00  0.00    +0.000 C 
BRANCH  14  15
ATOM     15  C   UNL     1      15.436  10.096   8.828  0.00  0.00    +0.000 C 
ATOM     16  C   UNL     1      15.423  10.827  10.166  0.00  0.00    +0.000 C 
BRANCH  15  17
ATOM     17  O   UNL     1      14.352   9.169   8.821  0.00  0.00    +0.000 OA
ATOM     18  H   UNL     1      13.740   9.501   8.133  0.00  0.00    +0.000 HD
ENDBRANCH  15  17
ENDBRANCH  14  15
ENDBRANCH   1  14
TORSDOF 7
ENDMDL
MODEL 4
REMARK VINA RESULT:    -4.564      2.891      5.369
REMARK INTER + INTRA:          -6.811
REMARK INTER:                  -6.316
REMARK INTRA:                  -0.495
REMARK UNBOUND:                -0.646
REMARK  Name = 
REMARK  10 active torsions:
REMARK  status: ('A' for Active; 'I' for Inactive)
REMARK    1  A    between atoms: C_1  and  C_2
REMARK    2  A    between atoms: C_5  and  N_8
REMARK    3  A    between atoms: N_8  and  C_9
REMARK    4  A    between atoms: N_8  and  C_13
REMARK    5  A    between atoms: C_9  and  C_10
REMARK    6  A    between atoms: C_10  and  C_11
REMARK    7  A    between atoms: C_10  and  O_12
REMARK    8  A    between atoms: C_13  and  C_14
REMARK    9  A    between atoms: C_14  and  C_15
REMARK   10  A    between atoms: C_14  and  O_16
REMARK                            x       y       z     vdW  Elec       q    Type
REMARK                         _______ _______ _______ _____ _____    ______ ____
ROOT
ATOM      1  N   UNL     1      17.815  -0.357  -5.463  0.00  0.00    +0.000 N 
ENDROOT
BRANCH   1   6
ATOM      2  C   UNL     1      18.567   3.385  -1.133  0.00  0.00    +0.000 C 
ATOM      3  C   UNL     1      18.366   2.396  -2.240  0.00  0.00    +0.000 A 
ATOM      4  C   UNL     1      19.428   1.640  -2.724  0.00  0.00    +0.000 A 
ATOM      5  C   UNL     1      19.240   0.736  -3.782  0.00  0.00    +0.000 A 
ATOM      6  C   UNL     1      18.000   0.560  -4.421  0.00  0.00    +0.000 A 
ATOM      7  C   UNL     1      16.948   1.339  -3.905  0.00  0.00    +0.000 A 
ATOM      8  C   UNL     1      17.122   2.245  -2.845  0.00  0.00    +0.000 A 
ENDBRANCH   1   6
BRANCH   1   9
ATOM      9  C   UNL     1      18.237  -0.011  -6.842  0.00  0.00    +0.000 C 
BRANCH   9  10
ATOM     10  C   UNL     1      17.804   1.415  -7.262  0.00  0.00    +0.000 C 
ATOM     11  C   UNL     1      19.017   2.320  -7.446  0.00  0.00    +0.000 C 
BRANCH  10  12
ATOM     12  O   UNL     1      17.077   1.390  -8.498  0.00  0.00    +0.000 OA
ATOM     13  H   UNL     1      17.258   2.219  -8.971  0.00  0.00    +0.000 HD
ENDBRANCH  10  12
ENDBRANCH   9  10
ENDBRANCH   1   9
BRANCH   1  14
ATOM     14  C   UNL     1      16.785  -1.424  -5.375  0.00  0.00    +0.000 C 
BRANCH  14  15
ATOM     15  C   UNL     1      17.373  -2.829  -5.651  0.00  0.00    +0.000 C 
ATOM     16  C   UNL     1      18.608  -3.137  -4.813  0.00  0.00    +0.000 C 
BRANCH  15  17
ATOM     17  O   UNL     1      16.413  -3.858  -5.418  0.00  0.00    +0.000 OA
ATOM     18  H   UNL     1      16.193  -4.204  -6.307  0.00  0.00    +0.000 HD
ENDBRANCH  15  17
ENDBRANCH  14  15
ENDBRANCH   1  14
TORSDOF 7
ENDMDL
MODEL 5
REMARK VINA RESULT:    -4.439      2.121      3.776
REMARK INTER + INTRA:          -6.643
REMARK INTER:                  -5.923
REMARK INTRA:                  -0.720
REMARK UNBOUND:                -0.646
REMARK  Name = 
REMARK  10 active torsions:
REMARK  status: ('A' for Active; 'I' for Inactive)
REMARK    1  A    between atoms: C_1  and  C_2
REMARK    2  A    between atoms: C_5  and  N_8
REMARK    3  A    between atoms: N_8  and  C_9
REMARK    4  A    between atoms: N_8  and  C_13
REMARK    5  A    between atoms: C_9  and  C_10
REMARK    6  A    between atoms: C_10  and  C_11
REMARK    7  A    between atoms: C_10  and  O_12
REMARK    8  A    between atoms: C_13  and  C_14
REMARK    9  A    between atoms: C_14  and  C_15
REMARK   10  A    between atoms: C_14  and  O_16
REMARK                            x       y       z     vdW  Elec       q    Type
REMARK                         _______ _______ _______ _____ _____    ______ ____
ROOT
ATOM      1  N   UNL     1      18.352   1.462  -4.929  0.00  0.00    +0.000 N 
ENDROOT
BRANCH   1   6
ATOM      2  C   UNL     1      18.487  -4.309  -4.968  0.00  0.00    +0.000 C 
ATOM      3  C   UNL     1      18.458  -2.812  -4.982  0.00  0.00    +0.000 A 
ATOM      4  C   UNL     1      19.585  -2.073  -4.640  0.00  0.00    +0.000 A 
ATOM      5  C   UNL     1      19.544  -0.669  -4.625  0.00  0.00    +0.000 A 
ATOM      6  C   UNL     1      18.380   0.062  -4.926  0.00  0.00    +0.000 A 
ATOM      7  C   UNL     1      17.260  -0.718  -5.269  0.00  0.00    +0.000 A 
ATOM      8  C   UNL     1      17.289  -2.122  -5.290  0.00  0.00    +0.000 A 
ENDBRANCH   1   6
BRANCH   1   9
ATOM      9  C   UNL     1      19.306   2.223  -5.769  0.00  0.00    +0.000 C 
BRANCH   9  10
ATOM     10  C   UNL     1      18.739   2.556  -7.171  0.00  0.00    +0.000 C 
ATOM     11  C   UNL     1      19.111   1.476  -8.180  0.00  0.00    +0.000 C 
BRANCH  10  12
ATOM     12  O   UNL     1      17.308   2.657  -7.137  0.00  0.00    +0.000 OA
ATOM     13  H   UNL     1      17.067   3.578  -7.328  0.00  0.00    +0.000 HD
ENDBRANCH  10  12
ENDBRANCH   9  10
ENDBRANCH   1   9
BRANCH   1  14
ATOM     14  C   UNL     1      17.783   2.221  -3.786  0.00  0.00    +0.000 C 
BRANCH  14  15
ATOM     15  C   UNL     1      16.259   2.445  -3.934  0.00  0.00    +0.000 C 
ATOM     16  C   UNL     1      15.507   2.351  -2.611  0.00  0.00    +0.000 C 
BRANCH  15  17
ATOM     17  O   UNL     1      15.966   3.714  -4.518  0.00  0.00    +0.000 OA
ATOM     18  H   UNL     1      16.453   3.719  -5.367  0.00  0.00    +0.000 HD
ENDBRANCH  15  17
ENDBRANCH  14  15
ENDBRANCH   1  14
TORSDOF 7
ENDMDL
MODEL 6
REMARK VINA RESULT:    -4.390     14.097     16.794
REMARK INTER + INTRA:          -6.577
REMARK INTER:                  -6.015
REMARK INTRA:                  -0.562
REMARK UNBOUND:                -0.646
REMARK  Name = 
REMARK  10 active torsions:
REMARK  status: ('A' for Active; 'I' for Inactive)
REMARK    1  A    between atoms: C_1  and  C_2
REMARK    2  A    between atoms: C_5  and  N_8
REMARK    3  A    between atoms: N_8  and  C_9
REMARK    4  A    between atoms: N_8  and  C_13
REMARK    5  A    between atoms: C_9  and  C_10
REMARK    6  A    between atoms: C_10  and  C_11
REMARK    7  A    between atoms: C_10  and  O_12
REMARK    8  A    between atoms: C_13  and  C_14
REMARK    9  A    between atoms: C_14  and  C_15
REMARK   10  A    between atoms: C_14  and  O_16
REMARK                            x       y       z     vdW  Elec       q    Type
REMARK                         _______ _______ _______ _____ _____    ______ ____
ROOT
ATOM      1  N   UNL     1      16.410  11.602   6.951  0.00  0.00    +0.000 N 
ENDROOT
BRANCH   1   6
ATOM      2  C   UNL     1      20.303  15.001   9.523  0.00  0.00    +0.000 C 
ATOM      3  C   UNL     1      19.304  14.123   8.834  0.00  0.00    +0.000 A 
ATOM      4  C   UNL     1      18.097  14.639   8.374  0.00  0.00    +0.000 A 
ATOM      5  C   UNL     1      17.151  13.806   7.756  0.00  0.00    +0.000 A 
ATOM      6  C   UNL     1      17.349  12.424   7.587  0.00  0.00    +0.000 A 
ATOM      7  C   UNL     1      18.581  11.937   8.061  0.00  0.00    +0.000 A 
ATOM      8  C   UNL     1      19.537  12.760   8.680  0.00  0.00    +0.000 A 
ENDBRANCH   1   6
BRANCH   1   9
ATOM      9  C   UNL     1      15.196  11.160   7.679  0.00  0.00    +0.000 C 
BRANCH   9  10
ATOM     10  C   UNL     1      15.501  10.104   8.769  0.00  0.00    +0.000 C 
ATOM     11  C   UNL     1      15.608  10.754  10.143  0.00  0.00    +0.000 C 
BRANCH  10  12
ATOM     12  O   UNL     1      14.467   9.111   8.827  0.00  0.00    +0.000 OA
ATOM     13  H   UNL     1      13.835   9.292   8.112  0.00  0.00    +0.000 HD
ENDBRANCH  10  12
ENDBRANCH   9  10
ENDBRANCH   1   9
BRANCH   1  14
ATOM     14  C   UNL     1      16.791  10.748   5.797  0.00  0.00    +0.000 C 
BRANCH  14  15
ATOM     15  C   UNL     1      16.972  11.569   4.498  0.00  0.00    +0.000 C 
ATOM     16  C   UNL     1      18.388  11.499   3.936  0.00  0.00    +0.000 C 
BRANCH  15  17
ATOM     17  O   UNL     1      16.071  11.146   3.476  0.00  0.00    +0.000 OA
ATOM     18  H   UNL     1      16.298  10.209   3.311  0.00  0.00    +0.000 HD
ENDBRANCH  15  17
ENDBRANCH  14  15
ENDBRANCH   1  14
TORSDOF 7
ENDMDL
MODEL 7
REMARK VINA RESULT:    -4.335     13.401     16.414
REMARK INTER + INTRA:          -6.502
REMARK INTER:                  -6.050
REMARK INTRA:                  -0.452
REMARK UNBOUND:                -0.646
REMARK  Name = 
REMARK  10 active torsions:
REMARK  status: ('A' for Active; 'I' for Inactive)
REMARK    1  A    between atoms: C_1  and  C_2
REMARK    2  A    between atoms: C_5  and  N_8
REMARK    3  A    between atoms: N_8  and  C_9
REMARK    4  A    between atoms: N_8  and  C_13
REMARK    5  A    between atoms: C_9  and  C_10
REMARK    6  A    between atoms: C_10  and  C_11
REMARK    7  A    between atoms: C_10  and  O_12
REMARK    8  A    between atoms: C_13  and  C_14
REMARK    9  A    between atoms: C_14  and  C_15
REMARK   10  A    between atoms: C_14  and  O_16
REMARK                            x       y       z     vdW  Elec       q    Type
REMARK                         _______ _______ _______ _____ _____    ______ ____
ROOT
ATOM      1  N   UNL     1      18.071  11.144   6.644  0.00  0.00    +0.000 N 
ENDROOT
BRANCH   1   6
ATOM      2  C   UNL     1      15.727  11.966  11.855  0.00  0.00    +0.000 C 
ATOM      3  C   UNL     1      16.356  11.742  10.514  0.00  0.00    +0.000 A 
ATOM      4  C   UNL     1      17.132  12.729   9.916  0.00  0.00    +0.000 A 
ATOM      5  C   UNL     1      17.694  12.526   8.645  0.00  0.00    +0.000 A 
ATOM      6  C   UNL     1      17.492  11.348   7.903  0.00  0.00    +0.000 A 
ATOM      7  C   UNL     1      16.704  10.372   8.539  0.00  0.00    +0.000 A 
ATOM      8  C   UNL     1      16.138  10.561   9.811  0.00  0.00    +0.000 A 
ENDBRANCH   1   6
BRANCH   1   9
ATOM      9  C   UNL     1      19.444  10.594   6.538  0.00  0.00    +0.000 C 
BRANCH   9  10
ATOM     10  C   UNL     1      19.570   9.501   5.448  0.00  0.00    +0.000 C 
ATOM     11  C   UNL     1      21.032   9.159   5.185  0.00  0.00    +0.000 C 
BRANCH  10  12
ATOM     12  O   UNL     1      18.897   8.298   5.846  0.00  0.00    +0.000 OA
ATOM     13  H   UNL     1      19.536   7.568   5.805  0.00  0.00    +0.000 HD
ENDBRANCH  10  12
ENDBRANCH   9  10
ENDBRANCH   1   9
BRANCH   1  14
ATOM     14  C   UNL     1      17.608  11.901   5.453  0.00  0.00    +0.000 C 
BRANCH  14  15
ATOM     15  C   UNL     1      16.105  11.672   5.163  0.00  0.00    +0.000 C 
ATOM     16  C   UNL     1      15.207  12.737   5.780  0.00  0.00    +0.000 C 
BRANCH  15  17
ATOM     17  O   UNL     1      15.839  11.628   3.762  0.00  0.00    +0.000 OA
ATOM     18  H   UNL     1      15.041  11.068   3.674  0.00  0.00    +0.000 HD
ENDBRANCH  15  17
ENDBRANCH  14  15
ENDBRANCH   1  14
TORSDOF 7
ENDMDL
MODEL 8
REMARK VINA RESULT:    -4.314      2.263      3.259
REMARK INTER + INTRA:          -6.474
REMARK INTER:                  -6.021
REMARK INTRA:                  -0.453
REMARK UNBOUND:                -0.646
REMARK  Name = 
REMARK  10 active torsions:
REMARK  status: ('A' for Active; 'I' for Inactive)
REMARK    1  A    between atoms: C_1  and  C_2
REMARK    2  A    between atoms: C_5  and  N_8
REMARK    3  A    between atoms: N_8  and  C_9
REMARK    4  A    between atoms: N_8  and  C_13
REMARK    5  A    between atoms: C_9  and  C_10
REMARK    6  A    between atoms: C_10  and  C_11
REMARK    7  A    between atoms: C_10  and  O_12
REMARK    8  A    between atoms: C_13  and  C_14
REMARK    9  A    between atoms: C_14  and  C_15
REMARK   10  A    between atoms: C_14  and  O_16
REMARK                            x       y       z     vdW  Elec       q    Type
REMARK                         _______ _______ _______ _____ _____    ______ ____
ROOT
ATOM      1  N   UNL     1      17.943   1.529  -4.649  0.00  0.00    +0.000 N 
ENDROOT
BRANCH   1   6
ATOM      2  C   UNL     1      18.672  -4.177  -5.139  0.00  0.00    +0.000 C 
ATOM      3  C   UNL     1      18.477  -2.699  -4.988  0.00  0.00    +0.000 A 
ATOM      4  C   UNL     1      17.252  -2.107  -5.279  0.00  0.00    +0.000 A 
ATOM      5  C   UNL     1      17.083  -0.718  -5.164  0.00  0.00    +0.000 A 
ATOM      6  C   UNL     1      18.124   0.146  -4.780  0.00  0.00    +0.000 A 
ATOM      7  C   UNL     1      19.347  -0.486  -4.492  0.00  0.00    +0.000 A 
ATOM      8  C   UNL     1      19.529  -1.875  -4.600  0.00  0.00    +0.000 A 
ENDBRANCH   1   6
BRANCH   1   9
ATOM      9  C   UNL     1      16.619   2.072  -4.260  0.00  0.00    +0.000 C 
BRANCH   9  10
ATOM     10  C   UNL     1      16.293   1.843  -2.764  0.00  0.00    +0.000 C 
ATOM     11  C   UNL     1      17.182   2.703  -1.874  0.00  0.00    +0.000 C 
BRANCH  10  12
ATOM     12  O   UNL     1      14.927   2.174  -2.479  0.00  0.00    +0.000 OA
ATOM     13  H   UNL     1      14.779   2.051  -1.526  0.00  0.00    +0.000 HD
ENDBRANCH  10  12
ENDBRANCH   9  10
ENDBRANCH   1   9
BRANCH   1  14
ATOM     14  C   UNL     1      18.830   2.491  -5.352  0.00  0.00    +0.000 C 
BRANCH  14  15
ATOM     15  C   UNL     1      18.059   3.351  -6.383  0.00  0.00    +0.000 C 
ATOM     16  C   UNL     1      18.814   4.607  -6.800  0.00  0.00    +0.000 C 
BRANCH  15  17
ATOM     17  O   UNL     1      17.750   2.609  -7.562  0.00  0.00    +0.000 OA
ATOM     18  H   UNL     1      18.299   1.801  -7.504  0.00  0.00    +0.000 HD
ENDBRANCH  15  17
ENDBRANCH  14  15
ENDBRANCH   1  14
TORSDOF 7
ENDMDL
