MODEL 1
REMARK VINA RESULT:    -3.989      0.000      0.000
REMARK INTER + INTRA:          -4.377
REMARK INTER:                  -4.339
REMARK INTRA:                  -0.038
REMARK UNBOUND:                -0.038
REMARK  Name = 
REMARK  3 active torsions:
REMARK  status: ('A' for Active; 'I' for Inactive)
REMARK    1  A    between atoms: C_1  and  O_2
REMARK    2  A    between atoms: O_2  and  C_3
REMARK    3  A    between atoms: C_8  and  O_9
REMARK                            x       y       z     vdW  Elec       q    Type
REMARK                         _______ _______ _______ _____ _____    ______ ____
ROOT
ATOM      1  C   UNL     1      16.082  10.666   8.296  0.00  0.00    +0.000 A 
ATOM      2  C   UNL     1      17.377  11.145   8.490  0.00  0.00    +0.000 A 
ATOM      3  C   UNL     1      18.221  10.523   9.419  0.00  0.00    +0.000 A 
ATOM      4  C   UNL     1      17.775   9.425  10.157  0.00  0.00    +0.000 A 
ATOM      5  C   UNL     1      16.482   8.940   9.968  0.00  0.00    +0.000 A 
ATOM      6  C   UNL     1      15.652   9.563   9.045  0.00  0.00    +0.000 A 
ENDROOT
BRANCH   1   8
ATOM      7  C   UNL     1      15.634  12.076   6.436  0.00  0.00    +0.000 C 
ATOM      8  O   UNL     1      15.152  11.174   7.426  0.00  0.00    +0.000 OA
ENDBRANCH   1   8
BRANCH   6   9
ATOM      9  O   UNL     1      14.386   9.069   8.877  0.00  0.00    +0.000 OA
ATOM     10  H   UNL     1      13.907   9.771   8.396  0.00  0.00    +0.000 HD
ENDBRANCH   6   9
TORSDOF 2
ENDMDL
MODEL 2
REMARK VINA RESULT:    -3.743      3.820      4.779
REMARK INTER + INTRA:          -4.110
REMARK INTER:                  -4.065
REMARK INTRA:                  -0.045
REMARK UNBOUND:                -0.038
REMARK  Name = 
REMARK  3 active torsions:
REMARK  status: ('A' for Active; 'I' for Inactive)
REMARK    1  A    between atoms: C_1  and  O_2
REMARK    2  A    between atoms: O_2  and  C_3
REMARK    3  A    between atoms: C_8  and  O_9
REMARK                            x       y       z     vdW  Elec       q    Type
REMARK                         _______ _______ _______ _____ _____    ______ ____
ROOT
ATOM      1  C   UNL     1      17.877  11.676   4.667  0.00  0.00    +0.000 A 
ATOM      2  C   UNL     1      18.441  12.098   5.871  0.00  0.00    +0.000 A 
ATOM      3  C   UNL     1      17.615  12.492   6.931  0.00  0.00    +0.000 A 
ATOM      4  C   UNL     1      16.226  12.467   6.793  0.00  0.00    +0.000 A 
ATOM      5  C   UNL     1      15.655  12.047   5.594  0.00  0.00    +0.000 A 
ATOM      6  C   UNL     1      16.482  11.658   4.548  0.00  0.00    +0.000 A 
ENDROOT
BRANCH   1   8
ATOM      7  C   UNL     1      19.728  12.004   3.214  0.00  0.00    +0.000 C 
ATOM      8  O   UNL     1      18.560  11.265   3.551  0.00  0.00    +0.000 OA
ENDBRANCH   1   8
BRANCH   6   9
ATOM      9  O   UNL     1      15.897  11.249   3.379  0.00  0.00    +0.000 OA
ATOM     10  H   UNL     1      15.992  12.010   2.774  0.00  0.00    +0.000 HD
ENDBRANCH   6   9
TORSDOF 2
ENDMDL
MODEL 3
REMARK VINA RESULT:    -3.726     14.251     14.933
REMARK INTER + INTRA:          -4.091
REMARK INTER:                  -4.040
REMARK INTRA:                  -0.051
REMARK UNBOUND:                -0.038
REMARK  Name = 
REMARK  3 active torsions:
REMARK  status: ('A' for Active; 'I' for Inactive)
REMARK    1  A    between atoms: C_1  and  O_2
REMARK    2  A    between atoms: O_2  and  C_3
REMARK    3  A    between atoms: C_8  and  O_9
REMARK                            x       y       z     vdW  Elec       q    Type
REMARK                         _______ _______ _______ _____ _____    ______ ____
ROOT
ATOM      1  C   UNL     1      18.406   2.045  -3.458  0.00  0.00    +0.000 A 
ATOM      2  C   UNL     1      17.942   2.402  -4.724  0.00  0.00    +0.000 A 
ATOM      3  C   UNL     1      16.634   2.877  -4.882  0.00  0.00    +0.000 A 
ATOM      4  C   UNL     1      15.786   2.996  -3.779  0.00  0.00    +0.000 A 
ATOM      5  C   UNL     1      16.242   2.642  -2.511  0.00  0.00    +0.000 A 
ATOM      6  C   UNL     1      17.541   2.171  -2.364  0.00  0.00    +0.000 A 
ENDROOT
BRANCH   1   8
ATOM      7  C   UNL     1      19.958   0.253  -3.609  0.00  0.00    +0.000 C 
ATOM      8  O   UNL     1      19.656   1.567  -3.157  0.00  0.00    +0.000 OA
ENDBRANCH   1   8
BRANCH   6   9
ATOM      9  O   UNL     1      17.966   1.830  -1.108  0.00  0.00    +0.000 OA
ATOM     10  H   UNL     1      17.347   2.282  -0.504  0.00  0.00    +0.000 HD
ENDBRANCH   6   9
TORSDOF 2
ENDMDL
MODEL 4
REMARK VINA RESULT:    -3.715     14.075     14.667
REMARK INTER + INTRA:          -4.079
REMARK INTER:                  -4.028
REMARK INTRA:                  -0.051
REMARK UNBOUND:                -0.038
REMARK  Name = 
REMARK  3 active torsions:
REMARK  status: ('A' for Active; 'I' for Inactive)
REMARK    1  A    between atoms: C_1  and  O_2
REMARK    2  A    between atoms: O_2  and  C_3
REMARK    3  A    between atoms: C_8  and  O_9
REMARK                            x       y       z     vdW  Elec       q    Type
REMARK                         _______ _______ _______ _____ _____    ______ ____
ROOT
ATOM      1  C   UNL     1      17.048   2.121  -3.338  0.00  0.00    +0.000 A 
ATOM      2  C   UNL     1      17.286   2.328  -4.697  0.00  0.00    +0.000 A 
ATOM      3  C   UNL     1      18.596   2.499  -5.159  0.00  0.00    +0.000 A 
ATOM      4  C   UNL     1      19.671   2.466  -4.269  0.00  0.00    +0.000 A 
ATOM      5  C   UNL     1      19.442   2.259  -2.911  0.00  0.00    +0.000 A 
ATOM      6  C   UNL     1      18.138   2.091  -2.461  0.00  0.00    +0.000 A 
ENDROOT
BRANCH   1   8
ATOM      7  C   UNL     1      14.870   2.981  -2.930  0.00  0.00    +0.000 C 
ATOM      8  O   UNL     1      15.823   1.940  -2.748  0.00  0.00    +0.000 OA
ENDBRANCH   1   8
BRANCH   6   9
ATOM      9  O   UNL     1      17.938   1.890  -1.121  0.00  0.00    +0.000 OA
ATOM     10  H   UNL     1      18.201   2.731  -0.701  0.00  0.00    +0.000 HD
ENDBRANCH   6   9
TORSDOF 2
ENDMDL
MODEL 5
REMARK VINA RESULT:    -3.668      2.315      4.002
REMARK INTER + INTRA:          -4.027
REMARK INTER:                  -3.979
REMARK INTRA:                  -0.049
REMARK UNBOUND:                -0.038
REMARK  Name = 
REMARK  3 active torsions:
REMARK  status: ('A' for Active; 'I' for Inactive)
REMARK    1  A    between atoms: C_1  and  O_2
REMARK    2  A    between atoms: O_2  and  C_3
REMARK    3  A    between atoms: C_8  and  O_9
REMARK                            x       y       z     vdW  Elec       q    Type
REMARK                         _______ _______ _______ _____ _____    ______ ____
ROOT
ATOM      1  C   UNL     1      17.021  10.405   7.477  0.00  0.00    +0.000 A 
ATOM      2  C   UNL     1      16.107  11.429   7.232  0.00  0.00    +0.000 A 
ATOM      3  C   UNL     1      16.068  12.045   5.974  0.00  0.00    +0.000 A 
ATOM      4  C   UNL     1      16.939  11.641   4.961  0.00  0.00    +0.000 A 
ATOM      5  C   UNL     1      17.854  10.618   5.198  0.00  0.00    +0.000 A 
ATOM      6  C   UNL     1      17.886  10.013   6.448  0.00  0.00    +0.000 A 
ENDROOT
BRANCH   1   8
ATOM      7  C   UNL     1      15.989   9.167   9.224  0.00  0.00    +0.000 C 
ATOM      8  O   UNL     1      17.171   9.717   8.655  0.00  0.00    +0.000 OA
ENDBRANCH   1   8
BRANCH   6   9
ATOM      9  O   UNL     1      18.795   9.010   6.658  0.00  0.00    +0.000 OA
ATOM     10  H   UNL     1      19.386   9.352   7.355  0.00  0.00    +0.000 HD
ENDBRANCH   6   9
TORSDOF 2
ENDMDL
MODEL 6
REMARK VINA RESULT:    -3.655      1.413      3.161
REMARK INTER + INTRA:          -4.014
REMARK INTER:                  -3.963
REMARK INTRA:                  -0.051
REMARK UNBOUND:                -0.038
REMARK  Name = 
REMARK  3 active torsions:
REMARK  status: ('A' for Active; 'I' for Inactive)
REMARK    1  A    between atoms: C_1  and  O_2
REMARK    2  A    between atoms: O_2  and  C_3
REMARK    3  A    between atoms: C_8  and  O_9
REMARK                            x       y       z     vdW  Elec       q    Type
REMARK                         _______ _______ _______ _____ _____    ______ ____
ROOT
ATOM      1  C   UNL     1      16.704   9.679   9.000  0.00  0.00    +0.000 A 
ATOM      2  C   UNL     1      17.734   9.942   8.099  0.00  0.00    +0.000 A 
ATOM      3  C   UNL     1      17.519  10.814   7.025  0.00  0.00    +0.000 A 
ATOM      4  C   UNL     1      16.276  11.425   6.847  0.00  0.00    +0.000 A 
ATOM      5  C   UNL     1      15.242  11.168   7.744  0.00  0.00    +0.000 A 
ATOM      6  C   UNL     1      15.464  10.302   8.806  0.00  0.00    +0.000 A 
ENDROOT
BRANCH   1   8
ATOM      7  C   UNL     1      17.573   9.297  11.179  0.00  0.00    +0.000 C 
ATOM      8  O   UNL     1      16.772   8.850  10.091  0.00  0.00    +0.000 OA
ENDBRANCH   1   8
BRANCH   6   9
ATOM      9  O   UNL     1      14.432  10.065   9.675  0.00  0.00    +0.000 OA
ATOM     10  H   UNL     1      14.516   9.120   9.908  0.00  0.00    +0.000 HD
ENDBRANCH   6   9
TORSDOF 2
ENDMDL
MODEL 7
REMARK VINA RESULT:    -3.642      2.900      4.476
REMARK INTER + INTRA:          -3.999
REMARK INTER:                  -3.958
REMARK INTRA:                  -0.041
REMARK UNBOUND:                -0.038
REMARK  Name = 
REMARK  3 active torsions:
REMARK  status: ('A' for Active; 'I' for Inactive)
REMARK    1  A    between atoms: C_1  and  O_2
REMARK    2  A    between atoms: O_2  and  C_3
REMARK    3  A    between atoms: C_8  and  O_9
REMARK                            x       y       z     vdW  Elec       q    Type
REMARK                         _______ _______ _______ _____ _____    ______ ____
ROOT
ATOM      1  C   UNL     1      16.972  11.709   5.813  0.00  0.00    +0.000 A 
ATOM      2  C   UNL     1      18.105  11.880   6.607  0.00  0.00    +0.000 A 
ATOM      3  C   UNL     1      19.378  11.864   6.023  0.00  0.00    +0.000 A 
ATOM      4  C   UNL     1      19.523  11.676   4.647  0.00  0.00    +0.000 A 
ATOM      5  C   UNL     1      18.395  11.505   3.847  0.00  0.00    +0.000 A 
ATOM      6  C   UNL     1      17.137  11.522   4.435  0.00  0.00    +0.000 A 
ENDROOT
BRANCH   1   8
ATOM      7  C   UNL     1      15.444  11.210   7.563  0.00  0.00    +0.000 C 
ATOM      8  O   UNL     1      15.671  11.701   6.248  0.00  0.00    +0.000 OA
ENDBRANCH   1   8
BRANCH   6   9
ATOM      9  O   UNL     1      16.044  11.351   3.629  0.00  0.00    +0.000 OA
ATOM     10  H   UNL     1      16.046  12.129   3.039  0.00  0.00    +0.000 HD
ENDBRANCH   6   9
TORSDOF 2
ENDMDL
MODEL 8
REMARK VINA RESULT:    -3.641      1.703      3.545
REMARK INTER + INTRA:          -3.998
REMARK INTER:                  -3.954
REMARK INTRA:                  -0.044
REMARK UNBOUND:                -0.038
REMARK  Name = 
REMARK  3 active torsions:
REMARK  status: ('A' for Active; 'I' for Inactive)
REMARK    1  A    between atoms: C_1  and  O_2
REMARK    2  A    between atoms: O_2  and  C_3
REMARK    3  A    between atoms: C_8  and  O_9
REMARK                            x       y       z     vdW  Elec       q    Type
REMARK                         _______ _______ _______ _____ _____    ______ ____
ROOT
ATOM      1  C   UNL     1      16.294  10.843   7.405  0.00  0.00    +0.000 A 
ATOM      2  C   UNL     1      17.501  10.148   7.465  0.00  0.00    +0.000 A 
ATOM      3  C   UNL     1      18.385  10.185   6.379  0.00  0.00    +0.000 A 
ATOM      4  C   UNL     1      18.065  10.913   5.231  0.00  0.00    +0.000 A 
ATOM      5  C   UNL     1      16.861  11.610   5.164  0.00  0.00    +0.000 A 
ATOM      6  C   UNL     1      15.991  11.568   6.246  0.00  0.00    +0.000 A 
ENDROOT
BRANCH   1   8
ATOM      7  C   UNL     1      15.088   9.686   9.094  0.00  0.00    +0.000 C 
ATOM      8  O   UNL     1      15.338  10.895   8.388  0.00  0.00    +0.000 OA
ENDBRANCH   1   8
BRANCH   6   9
ATOM      9  O   UNL     1      14.813  12.261   6.156  0.00  0.00    +0.000 OA
ATOM     10  H   UNL     1      14.685  12.648   7.043  0.00  0.00    +0.000 HD
ENDBRANCH   6   9
TORSDOF 2
ENDMDL
MODEL 9
REMARK VINA RESULT:    -3.575     13.968     14.387
REMARK INTER + INTRA:          -3.926
REMARK INTER:                  -3.874
REMARK INTRA:                  -0.052
REMARK UNBOUND:                -0.038
REMARK  Name = 
REMARK  3 active torsions:
REMARK  status: ('A' for Active; 'I' for Inactive)
REMARK    1  A    between atoms: C_1  and  O_2
REMARK    2  A    between atoms: O_2  and  C_3
REMARK    3  A    between atoms: C_8  and  O_9
REMARK                            x       y       z     vdW  Elec       q    Type
REMARK                         _______ _______ _______ _____ _____    ______ ____
ROOT
ATOM      1  C   UNL     1      17.109   2.086  -2.600  0.00  0.00    +0.000 A 
ATOM      2  C   UNL     1      17.775   2.808  -1.611  0.00  0.00    +0.000 A 
ATOM      3  C   UNL     1      19.171   2.922  -1.649  0.00  0.00    +0.000 A 
ATOM      4  C   UNL     1      19.903   2.316  -2.672  0.00  0.00    +0.000 A 
ATOM      5  C   UNL     1      19.244   1.594  -3.664  0.00  0.00    +0.000 A 
ATOM      6  C   UNL     1      17.860   1.485  -3.618  0.00  0.00    +0.000 A 
ENDROOT
BRANCH   1   8
ATOM      7  C   UNL     1      14.968   3.033  -3.010  0.00  0.00    +0.000 C 
ATOM      8  O   UNL     1      15.753   1.891  -2.688  0.00  0.00    +0.000 OA
ENDBRANCH   1   8
BRANCH   6   9
ATOM      9  O   UNL     1      17.234   0.770  -4.604  0.00  0.00    +0.000 OA
ATOM     10  H   UNL     1      17.328  -0.163  -4.332  0.00  0.00    +0.000 HD
ENDBRANCH   6   9
TORSDOF 2
ENDMDL
