MODEL 1
REMARK VINA RESULT:    -4.682      0.000      0.000
REMARK INTER + INTRA:          -7.017
REMARK INTER:                  -6.325
REMARK INTRA:                  -0.692
REMARK UNBOUND:                -0.692
REMARK  Name = 
REMARK  10 active torsions:
REMARK  status: ('A' for Active; 'I' for Inactive)
REMARK    1  A    between atoms: C_1  and  C_2
REMARK    2  A    between atoms: C_5  and  N_8
REMARK    3  A    between atoms: N_8  and  C_9
REMARK    4  A    between atoms: N_8  and  C_13
REMARK    5  A    between atoms: C_9  and  C_10
REMARK    6  A    between atoms: C_10  and  C_11
REMARK    7  A    between atoms: C_10  and  O_12
REMARK    8  A    between atoms: C_13  and  C_14
REMARK    9  A    between atoms: C_14  and  C_15
REMARK   10  A    between atoms: C_14  and  O_16
REMARK                            x       y       z     vdW  Elec       q    Type
REMARK                         _______ _______ _______ _____ _____    ______ ____
ROOT
ATOM      1  N   UNL     1      17.418   2.063  -4.230  0.00  0.00    +0.000 N 
ENDROOT
BRANCH   1   6
ATOM      2  C   UNL     1      18.500  -2.214  -7.953  0.00  0.00    +0.000 C 
ATOM      3  C   UNL     1      18.241  -1.108  -6.976  0.00  0.00    +0.000 A 
ATOM      4  C   UNL     1      17.583  -1.354  -5.776  0.00  0.00    +0.000 A 
ATOM      5  C   UNL     1      17.317  -0.308  -4.877  0.00  0.00    +0.000 A 
ATOM      6  C   UNL     1      17.669   1.028  -5.139  0.00  0.00    +0.000 A 
ATOM      7  C   UNL     1      18.335   1.240  -6.360  0.00  0.00    +0.000 A 
ATOM      8  C   UNL     1      18.609   0.202  -7.267  0.00  0.00    +0.000 A 
ENDBRANCH   1   6
BRANCH   1   9
ATOM      9  C   UNL     1      16.219   2.921  -4.392  0.00  0.00    +0.000 C 
BRANCH   9  10
ATOM     10  C   UNL     1      15.373   3.021  -3.100  0.00  0.00    +0.000 C 
ATOM     11  C   UNL     1      14.010   3.640  -3.387  0.00  0.00    +0.000 C 
BRANCH  10  12
ATOM     12  O   UNL     1      15.160   1.725  -2.523  0.00  0.00    +0.000 OA
ATOM     13  H   UNL     1      15.632   1.072  -3.065  0.00  0.00    +0.000 HD
ENDBRANCH  10  12
ENDBRANCH   9  10
ENDBRANCH   1   9
BRANCH   1  14
ATOM     14  C   UNL     1      18.514   2.668  -3.430  0.00  0.00    +0.000 C 
BRANCH  14  15
ATOM     15  C   UNL     1      18.919   1.781  -2.228  0.00  0.00    +0.000 C 
ATOM     16  C   UNL     1      20.288   2.131  -1.658  0.00  0.00    +0.000 C 
BRANCH  15  17
ATOM     17  O   UNL     1      17.966   1.861  -1.170  0.00  0.00    +0.000 OA
ATOM     18  H   UNL     1      17.124   1.553  -1.563  0.00  0.00    +0.000 HD
ENDBRANCH  15  17
ENDBRANCH  14  15
ENDBRANCH   1  14
TORSDOF 7
ENDMDL
MODEL 2
REMARK VINA RESULT:    -4.656      2.561      5.534
REMARK INTER + INTRA:          -6.981
REMARK INTER:                  -6.618
REMARK INTRA:                  -0.363
REMARK UNBOUND:                -0.692
REMARK  Name = 
REMARK  10 active torsions:
REMARK  status: ('A' for Active; 'I' for Inactive)
REMARK    1  A    between atoms: C_1  and  C_2
REMARK    2  A    between atoms: C_5  and  N_8
REMARK    3  A    between atoms: N_8  and  C_9
REMARK    4  A    between atoms: N_8  and  C_13
REMARK    5  A    between atoms: C_9  and  C_10
REMARK    6  A    between atoms: C_10  and  C_11
REMARK    7  A    between atoms: C_10  and  O_12
REMARK    8  A    between atoms: C_13  and  C_14
REMARK    9  A    between atoms: C_14  and  C_15
REMARK   10  A    between atoms: C_14  and  O_16
REMARK                            x       y       z     vdW  Elec       q    Type
REMARK                         _______ _______ _______ _____ _____    ______ ____
ROOT
ATOM      1  N   UNL     1      18.142  -0.412  -5.873  0.00  0.00    +0.000 N 
ENDROOT
BRANCH   1   6
ATOM      2  C   UNL     1      18.265   3.147  -1.329  0.00  0.00    +0.000 C 
ATOM      3  C   UNL     1      18.229   2.205  -2.492  0.00  0.00    +0.000 A 
ATOM      4  C   UNL     1      19.389   1.591  -2.952  0.00  0.00    +0.000 A 
ATOM      5  C   UNL     1      19.354   0.732  -4.062  0.00  0.00    +0.000 A 
ATOM      6  C   UNL     1      18.173   0.462  -4.778  0.00  0.00    +0.000 A 
ATOM      7  C   UNL     1      17.019   1.097  -4.284  0.00  0.00    +0.000 A 
ATOM      8  C   UNL     1      17.041   1.957  -3.174  0.00  0.00    +0.000 A 
ENDBRANCH   1   6
BRANCH   1   9
ATOM      9  C   UNL     1      18.328  -1.868  -5.667  0.00  0.00    +0.000 C 
BRANCH   9  10
ATOM     10  C   UNL     1      17.014  -2.671  -5.833  0.00  0.00    +0.000 C 
ATOM     11  C   UNL     1      17.305  -4.133  -6.151  0.00  0.00    +0.000 C 
BRANCH  10  12
ATOM     12  O   UNL     1      16.228  -2.624  -4.634  0.00  0.00    +0.000 OA
ATOM     13  H   UNL     1      16.005  -1.696  -4.455  0.00  0.00    +0.000 HD
ENDBRANCH  10  12
ENDBRANCH   9  10
ENDBRANCH   1   9
BRANCH   1  14
ATOM     14  C   UNL     1      18.436   0.067  -7.247  0.00  0.00    +0.000 C 
BRANCH  14  15
ATOM     15  C   UNL     1      17.820   1.460  -7.526  0.00  0.00    +0.000 C 
ATOM     16  C   UNL     1      18.867   2.552  -7.711  0.00  0.00    +0.000 C 
BRANCH  15  17
ATOM     17  O   UNL     1      16.986   1.445  -8.683  0.00  0.00    +0.000 OA
ATOM     18  H   UNL     1      16.294   0.783  -8.487  0.00  0.00    +0.000 HD
ENDBRANCH  15  17
ENDBRANCH  14  15
ENDBRANCH   1  14
TORSDOF 7
ENDMDL
MODEL 3
REMARK VINA RESULT:    -4.584     14.014     16.733
REMARK INTER + INTRA:          -6.884
REMARK INTER:                  -6.284
REMARK INTRA:                  -0.600
REMARK UNBOUND:                -0.692
REMARK  Name = 
REMARK  10 active torsions:
REMARK  status: ('A' for Active; 'I' for Inactive)
REMARK    1  A    between atoms: C_1  and  C_2
REMARK    2  A    between atoms: C_5  and  N_8
REMARK    3  A    between atoms: N_8  and  C_9
REMARK    4  A    between atoms: N_8  and  C_13
REMARK    5  A    between atoms: C_9  and  C_10
REMARK    6  A    between atoms: C_10  and  C_11
REMARK    7  A    between atoms: C_10  and  O_12
REMARK    8  A    between atoms: C_13  and  C_14
REMARK    9  A    between atoms: C_14  and  C_15
REMARK   10  A    between atoms: C_14  and  O_16
REMARK                            x       y       z     vdW  Elec       q    Type
REMARK                         _______ _______ _______ _____ _____    ______ ____
ROOT
ATOM      1  N   UNL     1      16.792  11.378   6.972  0.00  0.00    +0.000 N 
ENDROOT
BRANCH   1   6
ATOM      2  C   UNL     1      19.939  15.991   8.437  0.00  0.00    +0.000 C 
ATOM      3  C   UNL     1      19.117  14.790   8.081  0.00  0.00    +0.000 A 
ATOM      4  C   UNL     1      19.701  13.533   7.970  0.00  0.00    +0.000 A 
ATOM      5  C   UNL     1      18.931  12.416   7.606  0.00  0.00    +0.000 A 
ATOM      6  C   UNL     1      17.558  12.500   7.315  0.00  0.00    +0.000 A 
ATOM      7  C   UNL     1      17.001  13.786   7.440  0.00  0.00    +0.000 A 
ATOM      8  C   UNL     1      17.758  14.911   7.805  0.00  0.00    +0.000 A 
ENDBRANCH   1   6
BRANCH   1   9
ATOM      9  C   UNL     1      17.070  10.646   5.714  0.00  0.00    +0.000 C 
BRANCH   9  10
ATOM     10  C   UNL     1      17.105  11.574   4.475  0.00  0.00    +0.000 C 
ATOM     11  C   UNL     1      18.481  11.555   3.819  0.00  0.00    +0.000 C 
BRANCH  10  12
ATOM     12  O   UNL     1      16.141  11.163   3.496  0.00  0.00    +0.000 OA
ATOM     13  H   UNL     1      16.526  11.307   2.615  0.00  0.00    +0.000 HD
ENDBRANCH  10  12
ENDBRANCH   9  10
ENDBRANCH   1   9
BRANCH   1  14
ATOM     14  C   UNL     1      15.425  11.184   7.520  0.00  0.00    +0.000 C 
BRANCH  14  15
ATOM     15  C   UNL     1      15.411  10.218   8.728  0.00  0.00    +0.000 C 
ATOM     16  C   UNL     1      15.477  10.936  10.071  0.00  0.00    +0.000 C 
BRANCH  15  17
ATOM     17  O   UNL     1      14.250   9.389   8.727  0.00  0.00    +0.000 OA
ATOM     18  H   UNL     1      14.593   8.473   8.761  0.00  0.00    +0.000 HD
ENDBRANCH  15  17
ENDBRANCH  14  15
ENDBRANCH   1  14
TORSDOF 7
ENDMDL
MODEL 4
REMARK VINA RESULT:    -4.494      2.918      5.385
REMARK INTER + INTRA:          -6.762
REMARK INTER:                  -6.280
REMARK INTRA:                  -0.482
REMARK UNBOUND:                -0.692
REMARK  Name = 
REMARK  10 active torsions:
REMARK  status: ('A' for Active; 'I' for Inactive)
REMARK    1  A    between atoms: C_1  and  C_2
REMARK    2  A    between atoms: C_5  and  N_8
REMARK    3  A    between atoms: N_8  and  C_9
REMARK    4  A    between atoms: N_8  and  C_13
REMARK    5  A    between atoms: C_9  and  C_10
REMARK    6  A    between atoms: C_10  and  C_11
REMARK    7  A    between atoms: C_10  and  O_12
REMARK    8  A    between atoms: C_13  and  C_14
REMARK    9  A    between atoms: C_14  and  C_15
REMARK   10  A    between atoms: C_14  and  O_16
REMARK                            x       y       z     vdW  Elec       q    Type
REMARK                         _______ _______ _______ _____ _____    ______ ____
ROOT
ATOM      1  N   UNL     1      17.770  -0.434  -5.500  0.00  0.00    +0.000 N 
ENDROOT
BRANCH   1   6
ATOM      2  C   UNL     1      18.425   3.349  -1.188  0.00  0.00    +0.000 C 
ATOM      3  C   UNL     1      18.261   2.385  -2.324  0.00  0.00    +0.000 A 
ATOM      4  C   UNL     1      17.021   2.194  -2.925  0.00  0.00    +0.000 A 
ATOM      5  C   UNL     1      16.867   1.267  -3.969  0.00  0.00    +0.000 A 
ATOM      6  C   UNL     1      17.927   0.474  -4.446  0.00  0.00    +0.000 A 
ATOM      7  C   UNL     1      19.165   0.695  -3.816  0.00  0.00    +0.000 A 
ATOM      8  C   UNL     1      19.334   1.620  -2.772  0.00  0.00    +0.000 A 
ENDBRANCH   1   6
BRANCH   1   9
ATOM      9  C   UNL     1      18.216  -0.071  -6.867  0.00  0.00    +0.000 C 
BRANCH   9  10
ATOM     10  C   UNL     1      17.807   1.367  -7.269  0.00  0.00    +0.000 C 
ATOM     11  C   UNL     1      19.033   2.257  -7.436  0.00  0.00    +0.000 C 
BRANCH  10  12
ATOM     12  O   UNL     1      17.084   1.369  -8.509  0.00  0.00    +0.000 OA
ATOM     13  H   UNL     1      16.431   0.650  -8.477  0.00  0.00    +0.000 HD
ENDBRANCH  10  12
ENDBRANCH   9  10
ENDBRANCH   1   9
BRANCH   1  14
ATOM     14  C   UNL     1      16.748  -1.510  -5.443  0.00  0.00    +0.000 C 
BRANCH  14  15
ATOM     15  C   UNL     1      17.344  -2.901  -5.770  0.00  0.00    +0.000 C 
ATOM     16  C   UNL     1      18.460  -3.314  -4.818  0.00  0.00    +0.000 C 
BRANCH  15  17
ATOM     17  O   UNL     1      16.346  -3.920  -5.751  0.00  0.00    +0.000 OA
ATOM     18  H   UNL     1      15.547  -3.499  -6.126  0.00  0.00    +0.000 HD
ENDBRANCH  15  17
ENDBRANCH  14  15
ENDBRANCH   1  14
TORSDOF 7
ENDMDL
MODEL 5
REMARK VINA RESULT:    -4.454      2.171      3.533
REMARK INTER + INTRA:          -6.708
REMARK INTER:                  -6.074
REMARK INTRA:                  -0.634
REMARK UNBOUND:                -0.692
REMARK  Name = 
REMARK  10 active torsions:
REMARK  status: ('A' for Active; 'I' for Inactive)
REMARK    1  A    between atoms: C_1  and  C_2
REMARK    2  A    between atoms: C_5  and  N_8
REMARK    3  A    between atoms: N_8  and  C_9
REMARK    4  A    between atoms: N_8  and  C_13
REMARK    5  A    between atoms: C_9  and  C_10
REMARK    6  A    between atoms: C_10  and  C_11
REMARK    7  A    between atoms: C_10  and  O_12
REMARK    8  A    between atoms: C_13  and  C_14
REMARK    9  A    between atoms: C_14  and  C_15
REMARK   10  A    between atoms: C_14  and  O_16
REMARK                            x       y       z     vdW  Elec       q    Type
REMARK                         _______ _______ _______ _____ _____    ______ ____
ROOT
ATOM      1  N   UNL     1      18.367   1.507  -4.551  0.00  0.00    +0.000 N 
ENDROOT
BRANCH   1   6
ATOM      2  C   UNL     1      18.183  -4.212  -5.318  0.00  0.00    +0.000 C 
ATOM      3  C   UNL     1      18.225  -2.731  -5.095  0.00  0.00    +0.000 A 
ATOM      4  C   UNL     1      17.096  -1.946  -5.301  0.00  0.00    +0.000 A 
ATOM      5  C   UNL     1      17.149  -0.554  -5.119  0.00  0.00    +0.000 A 
ATOM      6  C   UNL     1      18.326   0.121  -4.749  0.00  0.00    +0.000 A 
ATOM      7  C   UNL     1      19.447  -0.705  -4.547  0.00  0.00    +0.000 A 
ATOM      8  C   UNL     1      19.407  -2.098  -4.723  0.00  0.00    +0.000 A 
ENDBRANCH   1   6
BRANCH   1   9
ATOM      9  C   UNL     1      19.518   2.296  -5.053  0.00  0.00    +0.000 C 
BRANCH   9  10
ATOM     10  C   UNL     1      19.165   3.146  -6.298  0.00  0.00    +0.000 C 
ATOM     11  C   UNL     1      18.193   2.402  -7.208  0.00  0.00    +0.000 C 
BRANCH  10  12
ATOM     12  O   UNL     1      18.556   4.388  -5.918  0.00  0.00    +0.000 OA
ATOM     13  H   UNL     1      19.264   5.011  -5.686  0.00  0.00    +0.000 HD
ENDBRANCH  10  12
ENDBRANCH   9  10
ENDBRANCH   1   9
BRANCH   1  14
ATOM     14  C   UNL     1      17.601   2.149  -3.452  0.00  0.00    +0.000 C 
BRANCH  14  15
ATOM     15  C   UNL     1      16.156   2.504  -3.877  0.00  0.00    +0.000 C 
ATOM     16  C   UNL     1      15.194   2.608  -2.700  0.00  0.00    +0.000 C 
BRANCH  15  17
ATOM     17  O   UNL     1      16.106   3.734  -4.598  0.00  0.00    +0.000 OA
ATOM     18  H   UNL     1      16.282   3.488  -5.529  0.00  0.00    +0.000 HD
ENDBRANCH  15  17
ENDBRANCH  14  15
ENDBRANCH   1  14
TORSDOF 7
ENDMDL
MODEL 6
REMARK VINA RESULT:    -4.439     13.434     16.448
REMARK INTER + INTRA:          -6.689
REMARK INTER:                  -6.249
REMARK INTRA:                  -0.440
REMARK UNBOUND:                -0.692
REMARK  Name = 
REMARK  10 active torsions:
REMARK  status: ('A' for Active; 'I' for Inactive)
REMARK    1  A    between atoms: C_1  and  C_2
REMARK    2  A    between atoms: C_5  and  N_8
REMARK    3  A    between atoms: N_8  and  C_9
REMARK    4  A    between atoms: N_8  and  C_13
REMARK    5  A    between atoms: C_9  and  C_10
REMARK    6  A    between atoms: C_10  and  C_11
REMARK    7  A    between atoms: C_10  and  O_12
REMARK    8  A    between atoms: C_13  and  C_14
REMARK    9  A    between atoms: C_14  and  C_15
REMARK   10  A    between atoms: C_14  and  O_16
REMARK                            x       y       z     vdW  Elec       q    Type
REMARK                         _______ _______ _______ _____ _____    ______ ____
ROOT
ATOM      1  N   UNL     1      17.901  11.016   6.829  0.00  0.00    +0.000 N 
ENDROOT
BRANCH   1   6
ATOM      2  C   UNL     1      15.483  12.265  11.920  0.00  0.00    +0.000 C 
ATOM      3  C   UNL     1      16.093  11.955  10.588  0.00  0.00    +0.000 A 
ATOM      4  C   UNL     1      15.705  10.829   9.869  0.00  0.00    +0.000 A 
ATOM      5  C   UNL     1      16.302  10.527   8.634  0.00  0.00    +0.000 A 
ATOM      6  C   UNL     1      17.324  11.312   8.070  0.00  0.00    +0.000 A 
ATOM      7  C   UNL     1      17.689  12.443   8.823  0.00  0.00    +0.000 A 
ATOM      8  C   UNL     1      17.099  12.758  10.058  0.00  0.00    +0.000 A 
ENDBRANCH   1   6
BRANCH   1   9
ATOM      9  C   UNL     1      19.185  10.276   6.764  0.00  0.00    +0.000 C 
BRANCH   9  10
ATOM     10  C   UNL     1      19.294   9.373   5.511  0.00  0.00    +0.000 C 
ATOM     11  C   UNL     1      20.586   9.649   4.752  0.00  0.00    +0.000 C 
BRANCH  10  12
ATOM     12  O   UNL     1      19.279   7.985   5.874  0.00  0.00    +0.000 OA
ATOM     13  H   UNL     1      19.991   7.539   5.386  0.00  0.00    +0.000 HD
ENDBRANCH  10  12
ENDBRANCH   9  10
ENDBRANCH   1   9
BRANCH   1  14
ATOM     14  C   UNL     1      17.582  11.819   5.621  0.00  0.00    +0.000 C 
BRANCH  14  15
ATOM     15  C   UNL     1      16.105  11.660   5.188  0.00  0.00    +0.000 C 
ATOM     16  C   UNL     1      15.199  12.758   5.733  0.00  0.00    +0.000 C 
BRANCH  15  17
ATOM     17  O   UNL     1      15.971  11.641   3.768  0.00  0.00    +0.000 OA
ATOM     18  H   UNL     1      15.353  12.371   3.562  0.00  0.00    +0.000 HD
ENDBRANCH  15  17
ENDBRANCH  14  15
ENDBRANCH   1  14
TORSDOF 7
ENDMDL
MODEL 7
REMARK VINA RESULT:    -4.427     13.869     15.369
REMARK INTER + INTRA:          -6.672
REMARK INTER:                  -6.300
REMARK INTRA:                  -0.372
REMARK UNBOUND:                -0.692
REMARK  Name = 
REMARK  10 active torsions:
REMARK  status: ('A' for Active; 'I' for Inactive)
REMARK    1  A    between atoms: C_1  and  C_2
REMARK    2  A    between atoms: C_5  and  N_8
REMARK    3  A    between atoms: N_8  and  C_9
REMARK    4  A    between atoms: N_8  and  C_13
REMARK    5  A    between atoms: C_9  and  C_10
REMARK    6  A    between atoms: C_10  and  C_11
REMARK    7  A    between atoms: C_10  and  O_12
REMARK    8  A    between atoms: C_13  and  C_14
REMARK    9  A    between atoms: C_14  and  C_15
REMARK   10  A    between atoms: C_14  and  O_16
REMARK                            x       y       z     vdW  Elec       q    Type
REMARK                         _______ _______ _______ _____ _____    ______ ____
ROOT
ATOM      1  N   UNL     1      16.412  10.764   7.056  0.00  0.00    +0.000 N 
ENDROOT
BRANCH   1   6
ATOM      2  C   UNL     1      21.922   9.073   6.725  0.00  0.00    +0.000 C 
ATOM      3  C   UNL     1      20.498   9.534   6.800  0.00  0.00    +0.000 A 
ATOM      4  C   UNL     1      20.026  10.218   7.915  0.00  0.00    +0.000 A 
ATOM      5  C   UNL     1      18.682  10.620   7.992  0.00  0.00    +0.000 A 
ATOM      6  C   UNL     1      17.745  10.343   6.981  0.00  0.00    +0.000 A 
ATOM      7  C   UNL     1      18.258   9.651   5.868  0.00  0.00    +0.000 A 
ATOM      8  C   UNL     1      19.599   9.245   5.777  0.00  0.00    +0.000 A 
ENDBRANCH   1   6
BRANCH   1   9
ATOM      9  C   UNL     1      15.849  11.642   6.002  0.00  0.00    +0.000 C 
BRANCH   9  10
ATOM     10  C   UNL     1      15.301  12.978   6.563  0.00  0.00    +0.000 C 
ATOM     11  C   UNL     1      16.437  13.940   6.888  0.00  0.00    +0.000 C 
BRANCH  10  12
ATOM     12  O   UNL     1      14.434  13.617   5.615  0.00  0.00    +0.000 OA
ATOM     13  H   UNL     1      14.929  13.737   4.788  0.00  0.00    +0.000 HD
ENDBRANCH  10  12
ENDBRANCH   9  10
ENDBRANCH   1   9
BRANCH   1  14
ATOM     14  C   UNL     1      15.690  10.806   8.354  0.00  0.00    +0.000 C 
BRANCH  14  15
ATOM     15  C   UNL     1      15.434   9.390   8.926  0.00  0.00    +0.000 C 
ATOM     16  C   UNL     1      16.386   9.020  10.057  0.00  0.00    +0.000 C 
BRANCH  15  17
ATOM     17  O   UNL     1      14.099   9.250   9.408  0.00  0.00    +0.000 OA
ATOM     18  H   UNL     1      14.181   9.244  10.383  0.00  0.00    +0.000 HD
ENDBRANCH  15  17
ENDBRANCH  14  15
ENDBRANCH   1  14
TORSDOF 7
ENDMDL
MODEL 8
REMARK VINA RESULT:    -4.355     13.990     16.737
REMARK INTER + INTRA:          -6.574
REMARK INTER:                  -5.973
REMARK INTRA:                  -0.601
REMARK UNBOUND:                -0.692
REMARK  Name = 
REMARK  10 active torsions:
REMARK  status: ('A' for Active; 'I' for Inactive)
REMARK    1  A    between atoms: C_1  and  C_2
REMARK    2  A    between atoms: C_5  and  N_8
REMARK    3  A    between atoms: N_8  and  C_9
REMARK    4  A    between atoms: N_8  and  C_13
REMARK    5  A    between atoms: C_9  and  C_10
REMARK    6  A    between atoms: C_10  and  C_11
REMARK    7  A    between atoms: C_10  and  O_12
REMARK    8  A    between atoms: C_13  and  C_14
REMARK    9  A    between atoms: C_14  and  C_15
REMARK   10  A    between atoms: C_14  and  O_16
REMARK                            x       y       z     vdW  Elec       q    Type
REMARK                         _______ _______ _______ _____ _____    ______ ____
ROOT
ATOM      1  N   UNL     1      16.397  11.617   6.966  0.00  0.00    +0.000 N 
ENDROOT
BRANCH   1   6
ATOM      2  C   UNL     1      20.406  15.104   9.222  0.00  0.00    +0.000 C 
ATOM      3  C   UNL     1      19.375  14.204   8.614  0.00  0.00    +0.000 A 
ATOM      4  C   UNL     1      18.131  14.696   8.234  0.00  0.00    +0.000 A 
ATOM      5  C   UNL     1      17.157  13.841   7.692  0.00  0.00    +0.000 A 
ATOM      6  C   UNL     1      17.365  12.460   7.525  0.00  0.00    +0.000 A 
ATOM      7  C   UNL     1      18.635  11.998   7.917  0.00  0.00    +0.000 A 
ATOM      8  C   UNL     1      19.618  12.842   8.459  0.00  0.00    +0.000 A 
ENDBRANCH   1   6
BRANCH   1   9
ATOM      9  C   UNL     1      15.241  11.169   7.780  0.00  0.00    +0.000 C 
BRANCH   9  10
ATOM     10  C   UNL     1      15.591   9.989   8.719  0.00  0.00    +0.000 C 
ATOM     11  C   UNL     1      15.938  10.489  10.117  0.00  0.00    +0.000 C 
BRANCH  10  12
ATOM     12  O   UNL     1      14.488   9.078   8.834  0.00  0.00    +0.000 OA
ATOM     13  H   UNL     1      13.672   9.601   8.898  0.00  0.00    +0.000 HD
ENDBRANCH  10  12
ENDBRANCH   9  10
ENDBRANCH   1   9
BRANCH   1  14
ATOM     14  C   UNL     1      16.711  10.752   5.799  0.00  0.00    +0.000 C 
BRANCH  14  15
ATOM     15  C   UNL     1      16.915  11.572   4.502  0.00  0.00    +0.000 C 
ATOM     16  C   UNL     1      18.342  11.510   3.972  0.00  0.00    +0.000 C 
BRANCH  15  17
ATOM     17  O   UNL     1      16.038  11.141   3.463  0.00  0.00    +0.000 OA
ATOM     18  H   UNL     1      15.237  10.820   3.924  0.00  0.00    +0.000 HD
ENDBRANCH  15  17
ENDBRANCH  14  15
ENDBRANCH   1  14
TORSDOF 7
ENDMDL
MODEL 9
REMARK VINA RESULT:    -4.294      2.277      3.168
REMARK INTER + INTRA:          -6.492
REMARK INTER:                  -6.042
REMARK INTRA:                  -0.450
REMARK UNBOUND:                -0.692
REMARK  Name = 
REMARK  10 active torsions:
REMARK  status: ('A' for Active; 'I' for Inactive)
REMARK    1  A    between atoms: C_1  and  C_2
REMARK    2  A    between atoms: C_5  and  N_8
REMARK    3  A    between atoms: N_8  and  C_9
REMARK    4  A    between atoms: N_8  and  C_13
REMARK    5  A    between atoms: C_9  and  C_10
REMARK    6  A    between atoms: C_10  and  C_11
REMARK    7  A    between atoms: C_10  and  O_12
REMARK    8  A    between atoms: C_13  and  C_14
REMARK    9  A    between atoms: C_14  and  C_15
REMARK   10  A    between atoms: C_14  and  O_16
REMARK                            x       y       z     vdW  Elec       q    Type
REMARK                         _______ _______ _______ _____ _____    ______ ____
ROOT
ATOM      1  N   UNL     1      17.878   1.477  -4.677  0.00  0.00    +0.000 N 
ENDROOT
BRANCH   1   6
ATOM      2  C   UNL     1      18.554  -4.239  -5.129  0.00  0.00    +0.000 C 
ATOM      3  C   UNL     1      18.373  -2.758  -4.987  0.00  0.00    +0.000 A 
ATOM      4  C   UNL     1      17.147  -2.160  -5.258  0.00  0.00    +0.000 A 
ATOM      5  C   UNL     1      16.991  -0.768  -5.153  0.00  0.00    +0.000 A 
ATOM      6  C   UNL     1      18.046   0.092  -4.799  0.00  0.00    +0.000 A 
ATOM      7  C   UNL     1      19.270  -0.548  -4.530  0.00  0.00    +0.000 A 
ATOM      8  C   UNL     1      19.439  -1.939  -4.630  0.00  0.00    +0.000 A 
ENDBRANCH   1   6
BRANCH   1   9
ATOM      9  C   UNL     1      16.561   2.035  -4.286  0.00  0.00    +0.000 C 
BRANCH   9  10
ATOM     10  C   UNL     1      16.240   1.819  -2.786  0.00  0.00    +0.000 C 
ATOM     11  C   UNL     1      17.136   2.683  -1.907  0.00  0.00    +0.000 C 
BRANCH  10  12
ATOM     12  O   UNL     1      14.876   2.158  -2.499  0.00  0.00    +0.000 OA
ATOM     13  H   UNL     1      14.664   1.828  -1.610  0.00  0.00    +0.000 HD
ENDBRANCH  10  12
ENDBRANCH   9  10
ENDBRANCH   1   9
BRANCH   1  14
ATOM     14  C   UNL     1      18.771   2.425  -5.391  0.00  0.00    +0.000 C 
BRANCH  14  15
ATOM     15  C   UNL     1      18.015   3.240  -6.468  0.00  0.00    +0.000 C 
ATOM     16  C   UNL     1      18.788   4.464  -6.946  0.00  0.00    +0.000 C 
BRANCH  15  17
ATOM     17  O   UNL     1      17.700   2.443  -7.608  0.00  0.00    +0.000 OA
ATOM     18  H   UNL     1      17.484   3.085  -8.314  0.00  0.00    +0.000 HD
ENDBRANCH  15  17
ENDBRANCH  14  15
ENDBRANCH   1  14
TORSDOF 7
ENDMDL
