MODEL 1
REMARK VINA RESULT:    -3.986      0.000      0.000
REMARK INTER + INTRA:          -4.374
REMARK INTER:                  -4.336
REMARK INTRA:                  -0.038
REMARK UNBOUND:                -0.038
REMARK  Name = 
REMARK  3 active torsions:
REMARK  status: ('A' for Active; 'I' for Inactive)
REMARK    1  A    between atoms: C_1  and  O_2
REMARK    2  A    between atoms: O_2  and  C_3
REMARK    3  A    between atoms: C_8  and  O_9
REMARK                            x       y       z     vdW  Elec       q    Type
REMARK                         _______ _______ _______ _____ _____    ______ ____
ROOT
ATOM      1  C   UNL     1      16.086  10.654   8.323  0.00  0.00    +0.000 A 
ATOM      2  C   UNL     1      17.379  11.134   8.525  0.00  0.00    +0.000 A 
ATOM      3  C   UNL     1      18.217  10.514   9.460  0.00  0.00    +0.000 A 
ATOM      4  C   UNL     1      17.767   9.415  10.195  0.00  0.00    +0.000 A 
ATOM      5  C   UNL     1      16.476   8.930   9.999  0.00  0.00    +0.000 A 
ATOM      6  C   UNL     1      15.652   9.552   9.070  0.00  0.00    +0.000 A 
ENDROOT
BRANCH   1   8
ATOM      7  C   UNL     1      15.653  12.039   6.441  0.00  0.00    +0.000 C 
ATOM      8  O   UNL     1      15.160  11.161   7.446  0.00  0.00    +0.000 OA
ENDBRANCH   1   8
BRANCH   6   9
ATOM      9  O   UNL     1      14.387   9.057   8.894  0.00  0.00    +0.000 OA
ATOM     10  H   UNL     1      14.519   8.127   8.629  0.00  0.00    +0.000 HD
ENDBRANCH   6   9
TORSDOF 2
ENDMDL
MODEL 2
REMARK VINA RESULT:    -3.715     14.215     14.935
REMARK INTER + INTRA:          -4.079
REMARK INTER:                  -4.028
REMARK INTRA:                  -0.051
REMARK UNBOUND:                -0.038
REMARK  Name = 
REMARK  3 active torsions:
REMARK  status: ('A' for Active; 'I' for Inactive)
REMARK    1  A    between atoms: C_1  and  O_2
REMARK    2  A    between atoms: O_2  and  C_3
REMARK    3  A    between atoms: C_8  and  O_9
REMARK                            x       y       z     vdW  Elec       q    Type
REMARK                         _______ _______ _______ _____ _____    ______ ____
ROOT
ATOM      1  C   UNL     1      18.353   2.070  -3.481  0.00  0.00    +0.000 A 
ATOM      2  C   UNL     1      17.879   2.456  -4.734  0.00  0.00    +0.000 A 
ATOM      3  C   UNL     1      16.574   2.948  -4.867  0.00  0.00    +0.000 A 
ATOM      4  C   UNL     1      15.740   3.054  -3.752  0.00  0.00    +0.000 A 
ATOM      5  C   UNL     1      16.207   2.671  -2.497  0.00  0.00    +0.000 A 
ATOM      6  C   UNL     1      17.502   2.184  -2.374  0.00  0.00    +0.000 A 
ENDROOT
BRANCH   1   8
ATOM      7  C   UNL     1      19.882   0.262  -3.678  0.00  0.00    +0.000 C 
ATOM      8  O   UNL     1      19.601   1.574  -3.204  0.00  0.00    +0.000 OA
ENDBRANCH   1   8
BRANCH   6   9
ATOM      9  O   UNL     1      17.938   1.814  -1.130  0.00  0.00    +0.000 OA
ATOM     10  H   UNL     1      18.587   2.499  -0.880  0.00  0.00    +0.000 HD
ENDBRANCH   6   9
TORSDOF 2
ENDMDL
MODEL 3
REMARK VINA RESULT:    -3.693     14.097     14.727
REMARK INTER + INTRA:          -4.055
REMARK INTER:                  -4.004
REMARK INTRA:                  -0.051
REMARK UNBOUND:                -0.038
REMARK  Name = 
REMARK  3 active torsions:
REMARK  status: ('A' for Active; 'I' for Inactive)
REMARK    1  A    between atoms: C_1  and  O_2
REMARK    2  A    between atoms: O_2  and  C_3
REMARK    3  A    between atoms: C_8  and  O_9
REMARK                            x       y       z     vdW  Elec       q    Type
REMARK                         _______ _______ _______ _____ _____    ______ ____
ROOT
ATOM      1  C   UNL     1      17.027   2.152  -3.395  0.00  0.00    +0.000 A 
ATOM      2  C   UNL     1      17.260   2.364  -4.753  0.00  0.00    +0.000 A 
ATOM      3  C   UNL     1      18.571   2.493  -5.227  0.00  0.00    +0.000 A 
ATOM      4  C   UNL     1      19.653   2.411  -4.348  0.00  0.00    +0.000 A 
ATOM      5  C   UNL     1      19.429   2.199  -2.989  0.00  0.00    +0.000 A 
ATOM      6  C   UNL     1      18.124   2.073  -2.528  0.00  0.00    +0.000 A 
ENDROOT
BRANCH   1   8
ATOM      7  C   UNL     1      14.877   3.074  -2.978  0.00  0.00    +0.000 C 
ATOM      8  O   UNL     1      15.802   2.009  -2.794  0.00  0.00    +0.000 OA
ENDBRANCH   1   8
BRANCH   6   9
ATOM      9  O   UNL     1      17.929   1.865  -1.189  0.00  0.00    +0.000 OA
ATOM     10  H   UNL     1      18.702   2.279  -0.758  0.00  0.00    +0.000 HD
ENDBRANCH   6   9
TORSDOF 2
ENDMDL
MODEL 4
REMARK VINA RESULT:    -3.666      2.289      4.016
REMARK INTER + INTRA:          -4.026
REMARK INTER:                  -3.974
REMARK INTRA:                  -0.052
REMARK UNBOUND:                -0.038
REMARK  Name = 
REMARK  3 active torsions:
REMARK  status: ('A' for Active; 'I' for Inactive)
REMARK    1  A    between atoms: C_1  and  O_2
REMARK    2  A    between atoms: O_2  and  C_3
REMARK    3  A    between atoms: C_8  and  O_9
REMARK                            x       y       z     vdW  Elec       q    Type
REMARK                         _______ _______ _______ _____ _____    ______ ____
ROOT
ATOM      1  C   UNL     1      17.005  10.430   7.485  0.00  0.00    +0.000 A 
ATOM      2  C   UNL     1      16.089  11.451   7.234  0.00  0.00    +0.000 A 
ATOM      3  C   UNL     1      16.037  12.049   5.969  0.00  0.00    +0.000 A 
ATOM      4  C   UNL     1      16.898  11.630   4.952  0.00  0.00    +0.000 A 
ATOM      5  C   UNL     1      17.815  10.611   5.195  0.00  0.00    +0.000 A 
ATOM      6  C   UNL     1      17.860  10.024   6.453  0.00  0.00    +0.000 A 
ENDROOT
BRANCH   1   8
ATOM      7  C   UNL     1      16.026   9.073   9.173  0.00  0.00    +0.000 C 
ATOM      8  O   UNL     1      17.167   9.759   8.670  0.00  0.00    +0.000 OA
ENDBRANCH   1   8
BRANCH   6   9
ATOM      9  O   UNL     1      18.770   9.023   6.668  0.00  0.00    +0.000 OA
ATOM     10  H   UNL     1      18.278   8.198   6.493  0.00  0.00    +0.000 HD
ENDBRANCH   6   9
TORSDOF 2
ENDMDL
MODEL 5
REMARK VINA RESULT:    -3.647      1.427      3.168
REMARK INTER + INTRA:          -4.006
REMARK INTER:                  -3.956
REMARK INTRA:                  -0.049
REMARK UNBOUND:                -0.038
REMARK  Name = 
REMARK  3 active torsions:
REMARK  status: ('A' for Active; 'I' for Inactive)
REMARK    1  A    between atoms: C_1  and  O_2
REMARK    2  A    between atoms: O_2  and  C_3
REMARK    3  A    between atoms: C_8  and  O_9
REMARK                            x       y       z     vdW  Elec       q    Type
REMARK                         _______ _______ _______ _____ _____    ______ ____
ROOT
ATOM      1  C   UNL     1      16.715   9.666   9.009  0.00  0.00    +0.000 A 
ATOM      2  C   UNL     1      17.734   9.910   8.089  0.00  0.00    +0.000 A 
ATOM      3  C   UNL     1      17.512  10.776   7.012  0.00  0.00    +0.000 A 
ATOM      4  C   UNL     1      16.273  11.400   6.849  0.00  0.00    +0.000 A 
ATOM      5  C   UNL     1      15.251  11.162   7.764  0.00  0.00    +0.000 A 
ATOM      6  C   UNL     1      15.480  10.301   8.830  0.00  0.00    +0.000 A 
ENDROOT
BRANCH   1   8
ATOM      7  C   UNL     1      17.587   9.308  11.191  0.00  0.00    +0.000 C 
ATOM      8  O   UNL     1      16.792   8.846  10.106  0.00  0.00    +0.000 OA
ENDBRANCH   1   8
BRANCH   6   9
ATOM      9  O   UNL     1      14.459  10.083   9.716  0.00  0.00    +0.000 OA
ATOM     10  H   UNL     1      14.400  10.909  10.234  0.00  0.00    +0.000 HD
ENDBRANCH   6   9
TORSDOF 2
ENDMDL
MODEL 6
REMARK VINA RESULT:    -3.641      1.710      3.583
REMARK INTER + INTRA:          -3.999
REMARK INTER:                  -3.956
REMARK INTRA:                  -0.042
REMARK UNBOUND:                -0.038
REMARK  Name = 
REMARK  3 active torsions:
REMARK  status: ('A' for Active; 'I' for Inactive)
REMARK    1  A    between atoms: C_1  and  O_2
REMARK    2  A    between atoms: O_2  and  C_3
REMARK    3  A    between atoms: C_8  and  O_9
REMARK                            x       y       z     vdW  Elec       q    Type
REMARK                         _______ _______ _______ _____ _____    ______ ____
ROOT
ATOM      1  C   UNL     1      16.264  10.884   7.363  0.00  0.00    +0.000 A 
ATOM      2  C   UNL     1      17.469  10.189   7.452  0.00  0.00    +0.000 A 
ATOM      3  C   UNL     1      18.371  10.211   6.380  0.00  0.00    +0.000 A 
ATOM      4  C   UNL     1      18.072  10.926   5.218  0.00  0.00    +0.000 A 
ATOM      5  C   UNL     1      16.870  11.623   5.122  0.00  0.00    +0.000 A 
ATOM      6  C   UNL     1      15.981  11.595   6.190  0.00  0.00    +0.000 A 
ENDROOT
BRANCH   1   8
ATOM      7  C   UNL     1      15.108   9.783   9.123  0.00  0.00    +0.000 C 
ATOM      8  O   UNL     1      15.292  10.949   8.329  0.00  0.00    +0.000 OA
ENDBRANCH   1   8
BRANCH   6   9
ATOM      9  O   UNL     1      14.806  12.288   6.072  0.00  0.00    +0.000 OA
ATOM     10  H   UNL     1      14.127  11.602   5.924  0.00  0.00    +0.000 HD
ENDBRANCH   6   9
TORSDOF 2
ENDMDL
MODEL 7
REMARK VINA RESULT:    -3.636      3.390      4.436
REMARK INTER + INTRA:          -3.993
REMARK INTER:                  -3.941
REMARK INTRA:                  -0.052
REMARK UNBOUND:                -0.038
REMARK  Name = 
REMARK  3 active torsions:
REMARK  status: ('A' for Active; 'I' for Inactive)
REMARK    1  A    between atoms: C_1  and  O_2
REMARK    2  A    between atoms: O_2  and  C_3
REMARK    3  A    between atoms: C_8  and  O_9
REMARK                            x       y       z     vdW  Elec       q    Type
REMARK                         _______ _______ _______ _____ _____    ______ ____
ROOT
ATOM      1  C   UNL     1      17.912  11.515   5.043  0.00  0.00    +0.000 A 
ATOM      2  C   UNL     1      18.507  11.659   6.295  0.00  0.00    +0.000 A 
ATOM      3  C   UNL     1      17.718  11.952   7.415  0.00  0.00    +0.000 A 
ATOM      4  C   UNL     1      16.336  12.102   7.288  0.00  0.00    +0.000 A 
ATOM      5  C   UNL     1      15.734  11.960   6.040  0.00  0.00    +0.000 A 
ATOM      6  C   UNL     1      16.524  11.670   4.935  0.00  0.00    +0.000 A 
ENDROOT
BRANCH   1   8
ATOM      7  C   UNL     1      19.540  12.167   3.440  0.00  0.00    +0.000 C 
ATOM      8  O   UNL     1      18.557  11.231   3.866  0.00  0.00    +0.000 OA
ENDBRANCH   1   8
BRANCH   6   9
ATOM      9  O   UNL     1      15.909  11.534   3.718  0.00  0.00    +0.000 OA
ATOM     10  H   UNL     1      15.956  12.423   3.316  0.00  0.00    +0.000 HD
ENDBRANCH   6   9
TORSDOF 2
ENDMDL
MODEL 8
REMARK VINA RESULT:    -3.624     14.373     14.952
REMARK INTER + INTRA:          -3.981
REMARK INTER:                  -3.928
REMARK INTRA:                  -0.052
REMARK UNBOUND:                -0.038
REMARK  Name = 
REMARK  3 active torsions:
REMARK  status: ('A' for Active; 'I' for Inactive)
REMARK    1  A    between atoms: C_1  and  O_2
REMARK    2  A    between atoms: O_2  and  C_3
REMARK    3  A    between atoms: C_8  and  O_9
REMARK                            x       y       z     vdW  Elec       q    Type
REMARK                         _______ _______ _______ _____ _____    ______ ____
ROOT
ATOM      1  C   UNL     1      17.559   2.484  -4.607  0.00  0.00    +0.000 A 
ATOM      2  C   UNL     1      18.636   1.808  -4.036  0.00  0.00    +0.000 A 
ATOM      3  C   UNL     1      18.687   1.617  -2.649  0.00  0.00    +0.000 A 
ATOM      4  C   UNL     1      17.664   2.100  -1.831  0.00  0.00    +0.000 A 
ATOM      5  C   UNL     1      16.584   2.775  -2.394  0.00  0.00    +0.000 A 
ATOM      6  C   UNL     1      16.543   2.961  -3.770  0.00  0.00    +0.000 A 
ENDROOT
BRANCH   1   8
ATOM      7  C   UNL     1      18.279   3.673  -6.534  0.00  0.00    +0.000 C 
ATOM      8  O   UNL     1      17.380   2.743  -5.942  0.00  0.00    +0.000 OA
ENDBRANCH   1   8
BRANCH   6   9
ATOM      9  O   UNL     1      15.471   3.628  -4.301  0.00  0.00    +0.000 OA
ATOM     10  H   UNL     1      14.743   3.469  -3.671  0.00  0.00    +0.000 HD
ENDBRANCH   6   9
TORSDOF 2
ENDMDL
MODEL 9
REMARK VINA RESULT:    -3.592     13.968     14.422
REMARK INTER + INTRA:          -3.945
REMARK INTER:                  -3.893
REMARK INTRA:                  -0.052
REMARK UNBOUND:                -0.038
REMARK  Name = 
REMARK  3 active torsions:
REMARK  status: ('A' for Active; 'I' for Inactive)
REMARK    1  A    between atoms: C_1  and  O_2
REMARK    2  A    between atoms: O_2  and  C_3
REMARK    3  A    between atoms: C_8  and  O_9
REMARK                            x       y       z     vdW  Elec       q    Type
REMARK                         _______ _______ _______ _____ _____    ______ ____
ROOT
ATOM      1  C   UNL     1      16.959   2.096  -2.689  0.00  0.00    +0.000 A 
ATOM      2  C   UNL     1      17.588   2.840  -1.693  0.00  0.00    +0.000 A 
ATOM      3  C   UNL     1      18.986   2.922  -1.658  0.00  0.00    +0.000 A 
ATOM      4  C   UNL     1      19.758   2.261  -2.616  0.00  0.00    +0.000 A 
ATOM      5  C   UNL     1      19.136   1.515  -3.615  0.00  0.00    +0.000 A 
ATOM      6  C   UNL     1      17.749   1.440  -3.641  0.00  0.00    +0.000 A 
ENDROOT
BRANCH   1   8
ATOM      7  C   UNL     1      14.845   3.104  -3.093  0.00  0.00    +0.000 C 
ATOM      8  O   UNL     1      15.606   1.928  -2.844  0.00  0.00    +0.000 OA
ENDBRANCH   1   8
BRANCH   6   9
ATOM      9  O   UNL     1      17.161   0.701  -4.633  0.00  0.00    +0.000 OA
ATOM     10  H   UNL     1      17.451   1.123  -5.463  0.00  0.00    +0.000 HD
ENDBRANCH   6   9
TORSDOF 2
ENDMDL
