MODEL 1
REMARK VINA RESULT:    -4.909      0.000      0.000
REMARK INTER + INTRA:          -6.980
REMARK INTER:                  -6.631
REMARK INTRA:                  -0.348
REMARK UNBOUND:                -0.348
REMARK  Name = 
REMARK  10 active torsions:
REMARK  status: ('A' for Active; 'I' for Inactive)
REMARK    1  A    between atoms: C_1  and  C_2
REMARK    2  A    between atoms: C_5  and  N_8
REMARK    3  A    between atoms: N_8  and  C_9
REMARK    4  A    between atoms: N_8  and  C_13
REMARK    5  A    between atoms: C_9  and  C_10
REMARK    6  A    between atoms: C_10  and  C_11
REMARK    7  A    between atoms: C_10  and  O_12
REMARK    8  A    between atoms: C_13  and  C_14
REMARK    9  A    between atoms: C_14  and  C_15
REMARK   10  A    between atoms: C_14  and  O_16
REMARK                            x       y       z     vdW  Elec       q    Type
REMARK                         _______ _______ _______ _____ _____    ______ ____
ROOT
ATOM      1  N   UNL     1      18.146  -0.394  -5.854  0.00  0.00    +0.000 N 
ENDROOT
BRANCH   1   6
ATOM      2  C   UNL     1      18.285   3.113  -1.270  0.00  0.00    +0.000 C 
ATOM      3  C   UNL     1      18.243   2.183  -2.444  0.00  0.00    +0.000 A 
ATOM      4  C   UNL     1      19.398   1.553  -2.898  0.00  0.00    +0.000 A 
ATOM      5  C   UNL     1      19.358   0.707  -4.018  0.00  0.00    +0.000 A 
ATOM      6  C   UNL     1      18.182   0.467  -4.750  0.00  0.00    +0.000 A 
ATOM      7  C   UNL     1      17.034   1.118  -4.262  0.00  0.00    +0.000 A 
ATOM      8  C   UNL     1      17.059   1.966  -3.142  0.00  0.00    +0.000 A 
ENDBRANCH   1   6
BRANCH   1   9
ATOM      9  C   UNL     1      18.332  -1.853  -5.666  0.00  0.00    +0.000 C 
BRANCH   9  10
ATOM     10  C   UNL     1      17.016  -2.652  -5.835  0.00  0.00    +0.000 C 
ATOM     11  C   UNL     1      17.304  -4.116  -6.148  0.00  0.00    +0.000 C 
BRANCH  10  12
ATOM     12  O   UNL     1      16.226  -2.601  -4.639  0.00  0.00    +0.000 OA
ATOM     13  H   UNL     1      15.729  -1.766  -4.641  0.00  0.00    +0.000 HD
ENDBRANCH  10  12
ENDBRANCH   9  10
ENDBRANCH   1   9
BRANCH   1  14
ATOM     14  C   UNL     1      18.437   0.101  -7.224  0.00  0.00    +0.000 C 
BRANCH  14  15
ATOM     15  C   UNL     1      17.781   1.475  -7.501  0.00  0.00    +0.000 C 
ATOM     16  C   UNL     1      18.792   2.609  -7.620  0.00  0.00    +0.000 C 
BRANCH  15  17
ATOM     17  O   UNL     1      16.997   1.455  -8.693  0.00  0.00    +0.000 OA
ATOM     18  H   UNL     1      16.340   2.170  -8.575  0.00  0.00    +0.000 HD
ENDBRANCH  15  17
ENDBRANCH  14  15
ENDBRANCH   1  14
TORSDOF 7
ENDMDL
MODEL 2
REMARK VINA RESULT:    -4.895      2.765      5.490
REMARK INTER + INTRA:          -6.961
REMARK INTER:                  -6.365
REMARK INTRA:                  -0.596
REMARK UNBOUND:                -0.348
REMARK  Name = 
REMARK  10 active torsions:
REMARK  status: ('A' for Active; 'I' for Inactive)
REMARK    1  A    between atoms: C_1  and  C_2
REMARK    2  A    between atoms: C_5  and  N_8
REMARK    3  A    between atoms: N_8  and  C_9
REMARK    4  A    between atoms: N_8  and  C_13
REMARK    5  A    between atoms: C_9  and  C_10
REMARK    6  A    between atoms: C_10  and  C_11
REMARK    7  A    between atoms: C_10  and  O_12
REMARK    8  A    between atoms: C_13  and  C_14
REMARK    9  A    between atoms: C_14  and  C_15
REMARK   10  A    between atoms: C_14  and  O_16
REMARK                            x       y       z     vdW  Elec       q    Type
REMARK                         _______ _______ _______ _____ _____    ______ ____
ROOT
ATOM      1  N   UNL     1      17.588   1.825  -3.888  0.00  0.00    +0.000 N 
ENDROOT
BRANCH   1   6
ATOM      2  C   UNL     1      18.425  -3.449  -6.083  0.00  0.00    +0.000 C 
ATOM      3  C   UNL     1      18.209  -2.090  -5.490  0.00  0.00    +0.000 A 
ATOM      4  C   UNL     1      16.925  -1.595  -5.289  0.00  0.00    +0.000 A 
ATOM      5  C   UNL     1      16.728  -0.309  -4.761  0.00  0.00    +0.000 A 
ATOM      6  C   UNL     1      17.792   0.550  -4.433  0.00  0.00    +0.000 A 
ATOM      7  C   UNL     1      19.076   0.016  -4.647  0.00  0.00    +0.000 A 
ATOM      8  C   UNL     1      19.287  -1.269  -5.172  0.00  0.00    +0.000 A 
ENDBRANCH   1   6
BRANCH   1   9
ATOM      9  C   UNL     1      16.381   2.605  -4.254  0.00  0.00    +0.000 C 
BRANCH   9  10
ATOM     10  C   UNL     1      15.474   2.911  -3.037  0.00  0.00    +0.000 C 
ATOM     11  C   UNL     1      14.189   3.604  -3.476  0.00  0.00    +0.000 C 
BRANCH  10  12
ATOM     12  O   UNL     1      15.115   1.706  -2.346  0.00  0.00    +0.000 OA
ATOM     13  H   UNL     1      15.274   1.844  -1.398  0.00  0.00    +0.000 HD
ENDBRANCH  10  12
ENDBRANCH   9  10
ENDBRANCH   1   9
BRANCH   1  14
ATOM     14  C   UNL     1      18.725   2.635  -3.381  0.00  0.00    +0.000 C 
BRANCH  14  15
ATOM     15  C   UNL     1      19.105   2.262  -1.927  0.00  0.00    +0.000 C 
ATOM     16  C   UNL     1      19.805   3.393  -1.182  0.00  0.00    +0.000 C 
BRANCH  15  17
ATOM     17  O   UNL     1      17.962   1.873  -1.167  0.00  0.00    +0.000 OA
ATOM     18  H   UNL     1      17.926   0.898  -1.246  0.00  0.00    +0.000 HD
ENDBRANCH  15  17
ENDBRANCH  14  15
ENDBRANCH   1  14
TORSDOF 7
ENDMDL
MODEL 3
REMARK VINA RESULT:    -4.774      0.698      3.653
REMARK INTER + INTRA:          -6.797
REMARK INTER:                  -6.315
REMARK INTRA:                  -0.482
REMARK UNBOUND:                -0.348
REMARK  Name = 
REMARK  10 active torsions:
REMARK  status: ('A' for Active; 'I' for Inactive)
REMARK    1  A    between atoms: C_1  and  C_2
REMARK    2  A    between atoms: C_5  and  N_8
REMARK    3  A    between atoms: N_8  and  C_9
REMARK    4  A    between atoms: N_8  and  C_13
REMARK    5  A    between atoms: C_9  and  C_10
REMARK    6  A    between atoms: C_10  and  C_11
REMARK    7  A    between atoms: C_10  and  O_12
REMARK    8  A    between atoms: C_13  and  C_14
REMARK    9  A    between atoms: C_14  and  C_15
REMARK   10  A    between atoms: C_14  and  O_16
REMARK                            x       y       z     vdW  Elec       q    Type
REMARK                         _______ _______ _______ _____ _____    ______ ____
ROOT
ATOM      1  N   UNL     1      17.825  -0.349  -5.517  0.00  0.00    +0.000 N 
ENDROOT
BRANCH   1   6
ATOM      2  C   UNL     1      18.571   3.371  -1.166  0.00  0.00    +0.000 C 
ATOM      3  C   UNL     1      18.371   2.388  -2.278  0.00  0.00    +0.000 A 
ATOM      4  C   UNL     1      19.425   1.607  -2.740  0.00  0.00    +0.000 A 
ATOM      5  C   UNL     1      19.239   0.709  -3.804  0.00  0.00    +0.000 A 
ATOM      6  C   UNL     1      18.009   0.563  -4.470  0.00  0.00    +0.000 A 
ATOM      7  C   UNL     1      16.965   1.366  -3.975  0.00  0.00    +0.000 A 
ATOM      8  C   UNL     1      17.137   2.267  -2.911  0.00  0.00    +0.000 A 
ENDBRANCH   1   6
BRANCH   1   9
ATOM      9  C   UNL     1      18.248   0.005  -6.894  0.00  0.00    +0.000 C 
BRANCH   9  10
ATOM     10  C   UNL     1      17.797   1.426  -7.313  0.00  0.00    +0.000 C 
ATOM     11  C   UNL     1      18.999   2.345  -7.500  0.00  0.00    +0.000 C 
BRANCH  10  12
ATOM     12  O   UNL     1      17.068   1.392  -8.547  0.00  0.00    +0.000 OA
ATOM     13  H   UNL     1      16.903   2.308  -8.825  0.00  0.00    +0.000 HD
ENDBRANCH  10  12
ENDBRANCH   9  10
ENDBRANCH   1   9
BRANCH   1  14
ATOM     14  C   UNL     1      16.796  -1.417  -5.435  0.00  0.00    +0.000 C 
BRANCH  14  15
ATOM     15  C   UNL     1      17.394  -2.824  -5.677  0.00  0.00    +0.000 C 
ATOM     16  C   UNL     1      18.637  -3.100  -4.840  0.00  0.00    +0.000 C 
BRANCH  15  17
ATOM     17  O   UNL     1      16.443  -3.854  -5.410  0.00  0.00    +0.000 OA
ATOM     18  H   UNL     1      15.669  -3.634  -5.966  0.00  0.00    +0.000 HD
ENDBRANCH  15  17
ENDBRANCH  14  15
ENDBRANCH   1  14
TORSDOF 7
ENDMDL
MODEL 4
REMARK VINA RESULT:    -4.716      2.371      5.009
REMARK INTER + INTRA:          -6.718
REMARK INTER:                  -6.068
REMARK INTRA:                  -0.651
REMARK UNBOUND:                -0.348
REMARK  Name = 
REMARK  10 active torsions:
REMARK  status: ('A' for Active; 'I' for Inactive)
REMARK    1  A    between atoms: C_1  and  C_2
REMARK    2  A    between atoms: C_5  and  N_8
REMARK    3  A    between atoms: N_8  and  C_9
REMARK    4  A    between atoms: N_8  and  C_13
REMARK    5  A    between atoms: C_9  and  C_10
REMARK    6  A    between atoms: C_10  and  C_11
REMARK    7  A    between atoms: C_10  and  O_12
REMARK    8  A    between atoms: C_13  and  C_14
REMARK    9  A    between atoms: C_14  and  C_15
REMARK   10  A    between atoms: C_14  and  O_16
REMARK                            x       y       z     vdW  Elec       q    Type
REMARK                         _______ _______ _______ _____ _____    ______ ____
ROOT
ATOM      1  N   UNL     1      18.364   1.483  -4.525  0.00  0.00    +0.000 N 
ENDROOT
BRANCH   1   6
ATOM      2  C   UNL     1      18.219  -4.238  -5.285  0.00  0.00    +0.000 C 
ATOM      3  C   UNL     1      18.263  -2.751  -5.112  0.00  0.00    +0.000 A 
ATOM      4  C   UNL     1      19.434  -2.111  -4.720  0.00  0.00    +0.000 A 
ATOM      5  C   UNL     1      19.461  -0.720  -4.530  0.00  0.00    +0.000 A 
ATOM      6  C   UNL     1      18.325   0.093  -4.697  0.00  0.00    +0.000 A 
ATOM      7  C   UNL     1      17.160  -0.587  -5.095  0.00  0.00    +0.000 A 
ATOM      8  C   UNL     1      17.120  -1.977  -5.291  0.00  0.00    +0.000 A 
ENDBRANCH   1   6
BRANCH   1   9
ATOM      9  C   UNL     1      19.512   2.264  -5.045  0.00  0.00    +0.000 C 
BRANCH   9  10
ATOM     10  C   UNL     1      19.153   3.095  -6.302  0.00  0.00    +0.000 C 
ATOM     11  C   UNL     1      18.167   2.342  -7.188  0.00  0.00    +0.000 C 
BRANCH  10  12
ATOM     12  O   UNL     1      18.556   4.347  -5.938  0.00  0.00    +0.000 OA
ATOM     13  H   UNL     1      18.138   4.723  -6.730  0.00  0.00    +0.000 HD
ENDBRANCH  10  12
ENDBRANCH   9  10
ENDBRANCH   1   9
BRANCH   1  14
ATOM     14  C   UNL     1      17.600   2.144  -3.437  0.00  0.00    +0.000 C 
BRANCH  14  15
ATOM     15  C   UNL     1      16.158   2.504  -3.870  0.00  0.00    +0.000 C 
ATOM     16  C   UNL     1      15.192   2.622  -2.697  0.00  0.00    +0.000 C 
BRANCH  15  17
ATOM     17  O   UNL     1      16.118   3.728  -4.601  0.00  0.00    +0.000 OA
ATOM     18  H   UNL     1      15.190   3.812  -4.902  0.00  0.00    +0.000 HD
ENDBRANCH  15  17
ENDBRANCH  14  15
ENDBRANCH   1  14
TORSDOF 7
ENDMDL
MODEL 5
REMARK VINA RESULT:    -4.549      3.153      5.369
REMARK INTER + INTRA:          -6.493
REMARK INTER:                  -5.924
REMARK INTRA:                  -0.569
REMARK UNBOUND:                -0.348
REMARK  Name = 
REMARK  10 active torsions:
REMARK  status: ('A' for Active; 'I' for Inactive)
REMARK    1  A    between atoms: C_1  and  C_2
REMARK    2  A    between atoms: C_5  and  N_8
REMARK    3  A    between atoms: N_8  and  C_9
REMARK    4  A    between atoms: N_8  and  C_13
REMARK    5  A    between atoms: C_9  and  C_10
REMARK    6  A    between atoms: C_10  and  C_11
REMARK    7  A    between atoms: C_10  and  O_12
REMARK    8  A    between atoms: C_13  and  C_14
REMARK    9  A    between atoms: C_14  and  C_15
REMARK   10  A    between atoms: C_14  and  O_16
REMARK                            x       y       z     vdW  Elec       q    Type
REMARK                         _______ _______ _______ _____ _____    ______ ____
ROOT
ATOM      1  N   UNL     1      17.906   2.363  -4.294  0.00  0.00    +0.000 N 
ENDROOT
BRANCH   1   6
ATOM      2  C   UNL     1      18.896   2.602  -9.977  0.00  0.00    +0.000 C 
ATOM      3  C   UNL     1      18.663   2.533  -8.499  0.00  0.00    +0.000 A 
ATOM      4  C   UNL     1      18.168   1.375  -7.907  0.00  0.00    +0.000 A 
ATOM      5  C   UNL     1      17.923   1.325  -6.525  0.00  0.00    +0.000 A 
ATOM      6  C   UNL     1      18.134   2.425  -5.675  0.00  0.00    +0.000 A 
ATOM      7  C   UNL     1      18.636   3.578  -6.306  0.00  0.00    +0.000 A 
ATOM      8  C   UNL     1      18.888   3.640  -7.687  0.00  0.00    +0.000 A 
ENDBRANCH   1   6
BRANCH   1   9
ATOM      9  C   UNL     1      19.026   2.569  -3.345  0.00  0.00    +0.000 C 
BRANCH   9  10
ATOM     10  C   UNL     1      19.375   1.291  -2.542  0.00  0.00    +0.000 C 
ATOM     11  C   UNL     1      20.433   0.466  -3.264  0.00  0.00    +0.000 C 
BRANCH  10  12
ATOM     12  O   UNL     1      19.881   1.623  -1.242  0.00  0.00    +0.000 OA
ATOM     13  H   UNL     1      20.787   1.278  -1.174  0.00  0.00    +0.000 HD
ENDBRANCH  10  12
ENDBRANCH   9  10
ENDBRANCH   1   9
BRANCH   1  14
ATOM     14  C   UNL     1      16.747   1.617  -3.740  0.00  0.00    +0.000 C 
BRANCH  14  15
ATOM     15  C   UNL     1      15.789   2.534  -2.942  0.00  0.00    +0.000 C 
ATOM     16  C   UNL     1      15.072   3.556  -3.815  0.00  0.00    +0.000 C 
BRANCH  15  17
ATOM     17  O   UNL     1      14.801   1.781  -2.240  0.00  0.00    +0.000 OA
ATOM     18  H   UNL     1      13.949   2.203  -2.473  0.00  0.00    +0.000 HD
ENDBRANCH  15  17
ENDBRANCH  14  15
ENDBRANCH   1  14
TORSDOF 7
ENDMDL
MODEL 6
REMARK VINA RESULT:    -4.531      2.092      4.559
REMARK INTER + INTRA:          -6.468
REMARK INTER:                  -6.002
REMARK INTRA:                  -0.466
REMARK UNBOUND:                -0.348
REMARK  Name = 
REMARK  10 active torsions:
REMARK  status: ('A' for Active; 'I' for Inactive)
REMARK    1  A    between atoms: C_1  and  C_2
REMARK    2  A    between atoms: C_5  and  N_8
REMARK    3  A    between atoms: N_8  and  C_9
REMARK    4  A    between atoms: N_8  and  C_13
REMARK    5  A    between atoms: C_9  and  C_10
REMARK    6  A    between atoms: C_10  and  C_11
REMARK    7  A    between atoms: C_10  and  O_12
REMARK    8  A    between atoms: C_13  and  C_14
REMARK    9  A    between atoms: C_14  and  C_15
REMARK   10  A    between atoms: C_14  and  O_16
REMARK                            x       y       z     vdW  Elec       q    Type
REMARK                         _______ _______ _______ _____ _____    ______ ____
ROOT
ATOM      1  N   UNL     1      17.953   1.683  -4.634  0.00  0.00    +0.000 N 
ENDROOT
BRANCH   1   6
ATOM      2  C   UNL     1      18.757  -4.006  -5.202  0.00  0.00    +0.000 C 
ATOM      3  C   UNL     1      18.541  -2.533  -5.031  0.00  0.00    +0.000 A 
ATOM      4  C   UNL     1      17.323  -1.947  -5.359  0.00  0.00    +0.000 A 
ATOM      5  C   UNL     1      17.136  -0.562  -5.225  0.00  0.00    +0.000 A 
ATOM      6  C   UNL     1      18.153   0.304  -4.784  0.00  0.00    +0.000 A 
ATOM      7  C   UNL     1      19.370  -0.323  -4.459  0.00  0.00    +0.000 A 
ATOM      8  C   UNL     1      19.569  -1.708  -4.587  0.00  0.00    +0.000 A 
ENDBRANCH   1   6
BRANCH   1   9
ATOM      9  C   UNL     1      16.623   2.202  -4.233  0.00  0.00    +0.000 C 
BRANCH   9  10
ATOM     10  C   UNL     1      16.291   1.920  -2.747  0.00  0.00    +0.000 C 
ATOM     11  C   UNL     1      17.156   2.770  -1.824  0.00  0.00    +0.000 C 
BRANCH  10  12
ATOM     12  O   UNL     1      14.916   2.212  -2.463  0.00  0.00    +0.000 OA
ATOM     13  H   UNL     1      14.732   3.117  -2.765  0.00  0.00    +0.000 HD
ENDBRANCH  10  12
ENDBRANCH   9  10
ENDBRANCH   1   9
BRANCH   1  14
ATOM     14  C   UNL     1      18.824   2.665  -5.328  0.00  0.00    +0.000 C 
BRANCH  14  15
ATOM     15  C   UNL     1      18.069   3.433  -6.439  0.00  0.00    +0.000 C 
ATOM     16  C   UNL     1      18.844   4.632  -6.973  0.00  0.00    +0.000 C 
BRANCH  15  17
ATOM     17  O   UNL     1      17.750   2.587  -7.542  0.00  0.00    +0.000 OA
ATOM     18  H   UNL     1      18.048   3.079  -8.333  0.00  0.00    +0.000 HD
ENDBRANCH  15  17
ENDBRANCH  14  15
ENDBRANCH   1  14
TORSDOF 7
ENDMDL
MODEL 7
REMARK VINA RESULT:    -4.510     14.966     17.839
REMARK INTER + INTRA:          -6.440
REMARK INTER:                  -5.941
REMARK INTRA:                  -0.499
REMARK UNBOUND:                -0.348
REMARK  Name = 
REMARK  10 active torsions:
REMARK  status: ('A' for Active; 'I' for Inactive)
REMARK    1  A    between atoms: C_1  and  C_2
REMARK    2  A    between atoms: C_5  and  N_8
REMARK    3  A    between atoms: N_8  and  C_9
REMARK    4  A    between atoms: N_8  and  C_13
REMARK    5  A    between atoms: C_9  and  C_10
REMARK    6  A    between atoms: C_10  and  C_11
REMARK    7  A    between atoms: C_10  and  O_12
REMARK    8  A    between atoms: C_13  and  C_14
REMARK    9  A    between atoms: C_14  and  C_15
REMARK   10  A    between atoms: C_14  and  O_16
REMARK                            x       y       z     vdW  Elec       q    Type
REMARK                         _______ _______ _______ _____ _____    ______ ____
ROOT
ATOM      1  N   UNL     1      16.636  11.539   8.674  0.00  0.00    +0.000 N 
ENDROOT
BRANCH   1   6
ATOM      2  C   UNL     1      19.075  11.164   3.454  0.00  0.00    +0.000 C 
ATOM      3  C   UNL     1      18.437  11.237   4.808  0.00  0.00    +0.000 A 
ATOM      4  C   UNL     1      17.088  11.548   4.946  0.00  0.00    +0.000 A 
ATOM      5  C   UNL     1      16.503  11.644   6.219  0.00  0.00    +0.000 A 
ATOM      6  C   UNL     1      17.231  11.460   7.408  0.00  0.00    +0.000 A 
ATOM      7  C   UNL     1      18.591  11.146   7.230  0.00  0.00    +0.000 A 
ATOM      8  C   UNL     1      19.189  11.044   5.963  0.00  0.00    +0.000 A 
ENDBRANCH   1   6
BRANCH   1   9
ATOM      9  C   UNL     1      15.291  10.959   8.900  0.00  0.00    +0.000 C 
BRANCH   9  10
ATOM     10  C   UNL     1      15.307   9.412   8.964  0.00  0.00    +0.000 C 
ATOM     11  C   UNL     1      16.480   8.913   9.799  0.00  0.00    +0.000 C 
BRANCH  10  12
ATOM     12  O   UNL     1      14.098   8.909   9.550  0.00  0.00    +0.000 OA
ATOM     13  H   UNL     1      13.754   9.584  10.158  0.00  0.00    +0.000 HD
ENDBRANCH  10  12
ENDBRANCH   9  10
ENDBRANCH   1   9
BRANCH   1  14
ATOM     14  C   UNL     1      17.036  12.587   9.648  0.00  0.00    +0.000 C 
BRANCH  14  15
ATOM     15  C   UNL     1      16.846  12.126  11.113  0.00  0.00    +0.000 C 
ATOM     16  C   UNL     1      18.138  11.649  11.764  0.00  0.00    +0.000 C 
BRANCH  15  17
ATOM     17  O   UNL     1      16.298  13.163  11.925  0.00  0.00    +0.000 OA
ATOM     18  H   UNL     1      16.347  13.969  11.372  0.00  0.00    +0.000 HD
ENDBRANCH  15  17
ENDBRANCH  14  15
ENDBRANCH   1  14
TORSDOF 7
ENDMDL
MODEL 8
REMARK VINA RESULT:    -4.499     14.344     16.147
REMARK INTER + INTRA:          -6.425
REMARK INTER:                  -5.956
REMARK INTRA:                  -0.469
REMARK UNBOUND:                -0.348
REMARK  Name = 
REMARK  10 active torsions:
REMARK  status: ('A' for Active; 'I' for Inactive)
REMARK    1  A    between atoms: C_1  and  C_2
REMARK    2  A    between atoms: C_5  and  N_8
REMARK    3  A    between atoms: N_8  and  C_9
REMARK    4  A    between atoms: N_8  and  C_13
REMARK    5  A    between atoms: C_9  and  C_10
REMARK    6  A    between atoms: C_10  and  C_11
REMARK    7  A    between atoms: C_10  and  O_12
REMARK    8  A    between atoms: C_13  and  C_14
REMARK    9  A    between atoms: C_14  and  C_15
REMARK   10  A    between atoms: C_14  and  O_16
REMARK                            x       y       z     vdW  Elec       q    Type
REMARK                         _______ _______ _______ _____ _____    ______ ____
ROOT
ATOM      1  N   UNL     1      17.806  11.466   7.296  0.00  0.00    +0.000 N 
ENDROOT
BRANCH   1   6
ATOM      2  C   UNL     1      21.784   7.440   6.158  0.00  0.00    +0.000 C 
ATOM      3  C   UNL     1      20.764   8.501   6.439  0.00  0.00    +0.000 A 
ATOM      4  C   UNL     1      20.872   9.315   7.561  0.00  0.00    +0.000 A 
ATOM      5  C   UNL     1      19.898  10.288   7.836  0.00  0.00    +0.000 A 
ATOM      6  C   UNL     1      18.764  10.481   7.026  0.00  0.00    +0.000 A 
ATOM      7  C   UNL     1      18.689   9.641   5.900  0.00  0.00    +0.000 A 
ATOM      8  C   UNL     1      19.657   8.666   5.612  0.00  0.00    +0.000 A 
ENDBRANCH   1   6
BRANCH   1   9
ATOM      9  C   UNL     1      16.875  11.305   8.439  0.00  0.00    +0.000 C 
BRANCH   9  10
ATOM     10  C   UNL     1      16.206   9.909   8.475  0.00  0.00    +0.000 C 
ATOM     11  C   UNL     1      16.617   9.140   9.725  0.00  0.00    +0.000 C 
BRANCH  10  12
ATOM     12  O   UNL     1      14.776  10.024   8.474  0.00  0.00    +0.000 OA
ATOM     13  H   UNL     1      14.431   9.482   7.746  0.00  0.00    +0.000 HD
ENDBRANCH  10  12
ENDBRANCH   9  10
ENDBRANCH   1   9
BRANCH   1  14
ATOM     14  C   UNL     1      17.337  12.393   6.234  0.00  0.00    +0.000 C 
BRANCH  14  15
ATOM     15  C   UNL     1      15.984  11.951   5.628  0.00  0.00    +0.000 C 
ATOM     16  C   UNL     1      14.859  12.947   5.881  0.00  0.00    +0.000 C 
BRANCH  15  17
ATOM     17  O   UNL     1      16.081  11.742   4.220  0.00  0.00    +0.000 OA
ATOM     18  H   UNL     1      16.599  12.502   3.886  0.00  0.00    +0.000 HD
ENDBRANCH  15  17
ENDBRANCH  14  15
ENDBRANCH   1  14
TORSDOF 7
ENDMDL
MODEL 9
REMARK VINA RESULT:    -2.641     14.737     17.558
REMARK INTER + INTRA:          -3.916
REMARK INTER:                  -3.327
REMARK INTRA:                  -0.589
REMARK UNBOUND:                -0.348
REMARK  Name = 
REMARK  10 active torsions:
REMARK  status: ('A' for Active; 'I' for Inactive)
REMARK    1  A    between atoms: C_1  and  C_2
REMARK    2  A    between atoms: C_5  and  N_8
REMARK    3  A    between atoms: N_8  and  C_9
REMARK    4  A    between atoms: N_8  and  C_13
REMARK    5  A    between atoms: C_9  and  C_10
REMARK    6  A    between atoms: C_10  and  C_11
REMARK    7  A    between atoms: C_10  and  O_12
REMARK    8  A    between atoms: C_13  and  C_14
REMARK    9  A    between atoms: C_14  and  C_15
REMARK   10  A    between atoms: C_14  and  O_16
REMARK                            x       y       z     vdW  Elec       q    Type
REMARK                         _______ _______ _______ _____ _____    ______ ____
ROOT
ATOM      1  N   UNL     1      16.791  11.386   6.990  0.00  0.00    +0.000 N 
ENDROOT
BRANCH   1   6
ATOM      2  C   UNL     1      19.886  16.070   8.334  0.00  0.00    +0.000 C 
ATOM      3  C   UNL     1      19.087  14.859   7.961  0.00  0.00    +0.000 A 
ATOM      4  C   UNL     1      17.714  14.943   7.759  0.00  0.00    +0.000 A 
ATOM      5  C   UNL     1      16.965  13.799   7.439  0.00  0.00    +0.000 A 
ATOM      6  C   UNL     1      17.540  12.520   7.328  0.00  0.00    +0.000 A 
ATOM      7  C   UNL     1      18.931  12.472   7.537  0.00  0.00    +0.000 A 
ATOM      8  C   UNL     1      19.691  13.609   7.856  0.00  0.00    +0.000 A 
ENDBRANCH   1   6
BRANCH   1   9
ATOM      9  C   UNL     1      17.083  10.649   5.737  0.00  0.00    +0.000 C 
BRANCH   9  10
ATOM     10  C   UNL     1      17.109  11.569   4.491  0.00  0.00    +0.000 C 
ATOM     11  C   UNL     1      18.477  11.540   3.821  0.00  0.00    +0.000 C 
BRANCH  10  12
ATOM     12  O   UNL     1      16.132  11.155   3.526  0.00  0.00    +0.000 OA
ATOM     13  H   UNL     1      16.197  10.191   3.425  0.00  0.00    +0.000 HD
ENDBRANCH  10  12
ENDBRANCH   9  10
ENDBRANCH   1   9
BRANCH   1  14
ATOM     14  C   UNL     1      15.424  11.177   7.532  0.00  0.00    +0.000 C 
BRANCH  14  15
ATOM     15  C   UNL     1      15.419  10.231   8.757  0.00  0.00    +0.000 C 
ATOM     16  C   UNL     1      15.459  10.973  10.088  0.00  0.00    +0.000 C 
BRANCH  15  17
ATOM     17  O   UNL     1      14.276   9.379   8.760  0.00  0.00    +0.000 OA
ATOM     18  H   UNL     1      14.382   8.810   7.971  0.00  0.00    +0.000 HD
ENDBRANCH  15  17
ENDBRANCH  14  15
ENDBRANCH   1  14
TORSDOF 7
ENDMDL
