MODEL 1
REMARK VINA RESULT:    -4.695      0.000      0.000
REMARK INTER + INTRA:          -7.016
REMARK INTER:                  -6.342
REMARK INTRA:                  -0.674
REMARK UNBOUND:                -0.674
REMARK  Name = 
REMARK  10 active torsions:
REMARK  status: ('A' for Active; 'I' for Inactive)
REMARK    1  A    between atoms: C_1  and  C_2
REMARK    2  A    between atoms: C_5  and  N_8
REMARK    3  A    between atoms: N_8  and  C_9
REMARK    4  A    between atoms: N_8  and  C_13
REMARK    5  A    between atoms: C_9  and  C_10
REMARK    6  A    between atoms: C_10  and  C_11
REMARK    7  A    between atoms: C_10  and  O_12
REMARK    8  A    between atoms: C_13  and  C_14
REMARK    9  A    between atoms: C_14  and  C_15
REMARK   10  A    between atoms: C_14  and  O_16
REMARK                            x       y       z     vdW  Elec       q    Type
REMARK                         _______ _______ _______ _____ _____    ______ ____
ROOT
ATOM      1  N   UNL     1      17.418   2.084  -4.222  0.00  0.00    +0.000 N 
ENDROOT
BRANCH   1   6
ATOM      2  C   UNL     1      18.474  -2.150  -8.002  0.00  0.00    +0.000 C 
ATOM      3  C   UNL     1      18.177  -1.049  -7.030  0.00  0.00    +0.000 A 
ATOM      4  C   UNL     1      18.476   0.274  -7.336  0.00  0.00    +0.000 A 
ATOM      5  C   UNL     1      18.223   1.299  -6.410  0.00  0.00    +0.000 A 
ATOM      6  C   UNL     1      17.685   1.055  -5.133  0.00  0.00    +0.000 A 
ATOM      7  C   UNL     1      17.393  -0.294  -4.859  0.00  0.00    +0.000 A 
ATOM      8  C   UNL     1      17.639  -1.328  -5.777  0.00  0.00    +0.000 A 
ENDBRANCH   1   6
BRANCH   1   9
ATOM      9  C   UNL     1      16.209   2.927  -4.386  0.00  0.00    +0.000 C 
BRANCH   9  10
ATOM     10  C   UNL     1      15.358   3.014  -3.095  0.00  0.00    +0.000 C 
ATOM     11  C   UNL     1      14.000   3.645  -3.379  0.00  0.00    +0.000 C 
BRANCH  10  12
ATOM     12  O   UNL     1      15.135   1.712  -2.536  0.00  0.00    +0.000 OA
ATOM     13  H   UNL     1      14.321   1.747  -2.007  0.00  0.00    +0.000 HD
ENDBRANCH  10  12
ENDBRANCH   9  10
ENDBRANCH   1   9
BRANCH   1  14
ATOM     14  C   UNL     1      18.503   2.699  -3.416  0.00  0.00    +0.000 C 
BRANCH  14  15
ATOM     15  C   UNL     1      18.911   1.816  -2.213  0.00  0.00    +0.000 C 
ATOM     16  C   UNL     1      20.258   2.203  -1.613  0.00  0.00    +0.000 C 
BRANCH  15  17
ATOM     17  O   UNL     1      17.936   1.860  -1.172  0.00  0.00    +0.000 OA
ATOM     18  H   UNL     1      17.219   2.427  -1.522  0.00  0.00    +0.000 HD
ENDBRANCH  15  17
ENDBRANCH  14  15
ENDBRANCH   1  14
TORSDOF 7
ENDMDL
MODEL 2
REMARK VINA RESULT:    -4.665      2.551      5.508
REMARK INTER + INTRA:          -6.975
REMARK INTER:                  -6.616
REMARK INTRA:                  -0.360
REMARK UNBOUND:                -0.674
REMARK  Name = 
REMARK  10 active torsions:
REMARK  status: ('A' for Active; 'I' for Inactive)
REMARK    1  A    between atoms: C_1  and  C_2
REMARK    2  A    between atoms: C_5  and  N_8
REMARK    3  A    between atoms: N_8  and  C_9
REMARK    4  A    between atoms: N_8  and  C_13
REMARK    5  A    between atoms: C_9  and  C_10
REMARK    6  A    between atoms: C_10  and  C_11
REMARK    7  A    between atoms: C_10  and  O_12
REMARK    8  A    between atoms: C_13  and  C_14
REMARK    9  A    between atoms: C_14  and  C_15
REMARK   10  A    between atoms: C_14  and  O_16
REMARK                            x       y       z     vdW  Elec       q    Type
REMARK                         _______ _______ _______ _____ _____    ______ ____
ROOT
ATOM      1  N   UNL     1      18.145  -0.406  -5.861  0.00  0.00    +0.000 N 
ENDROOT
BRANCH   1   6
ATOM      2  C   UNL     1      18.272   3.135  -1.304  0.00  0.00    +0.000 C 
ATOM      3  C   UNL     1      18.234   2.197  -2.471  0.00  0.00    +0.000 A 
ATOM      4  C   UNL     1      19.393   1.579  -2.929  0.00  0.00    +0.000 A 
ATOM      5  C   UNL     1      19.356   0.724  -4.042  0.00  0.00    +0.000 A 
ATOM      6  C   UNL     1      18.177   0.463  -4.763  0.00  0.00    +0.000 A 
ATOM      7  C   UNL     1      17.025   1.103  -4.271  0.00  0.00    +0.000 A 
ATOM      8  C   UNL     1      17.047   1.959  -3.158  0.00  0.00    +0.000 A 
ENDBRANCH   1   6
BRANCH   1   9
ATOM      9  C   UNL     1      18.333  -1.863  -5.661  0.00  0.00    +0.000 C 
BRANCH   9  10
ATOM     10  C   UNL     1      17.019  -2.666  -5.821  0.00  0.00    +0.000 C 
ATOM     11  C   UNL     1      17.308  -4.138  -6.088  0.00  0.00    +0.000 C 
BRANCH  10  12
ATOM     12  O   UNL     1      16.216  -2.580  -4.635  0.00  0.00    +0.000 OA
ATOM     13  H   UNL     1      15.319  -2.313  -4.898  0.00  0.00    +0.000 HD
ENDBRANCH  10  12
ENDBRANCH   9  10
ENDBRANCH   1   9
BRANCH   1  14
ATOM     14  C   UNL     1      18.436   0.078  -7.234  0.00  0.00    +0.000 C 
BRANCH  14  15
ATOM     15  C   UNL     1      17.809   1.466  -7.509  0.00  0.00    +0.000 C 
ATOM     16  C   UNL     1      18.846   2.574  -7.655  0.00  0.00    +0.000 C 
BRANCH  15  17
ATOM     17  O   UNL     1      17.004   1.457  -8.687  0.00  0.00    +0.000 OA
ATOM     18  H   UNL     1      17.175   0.588  -9.103  0.00  0.00    +0.000 HD
ENDBRANCH  15  17
ENDBRANCH  14  15
ENDBRANCH   1  14
TORSDOF 7
ENDMDL
MODEL 3
REMARK VINA RESULT:    -4.589     13.981     16.741
REMARK INTER + INTRA:          -6.873
REMARK INTER:                  -6.271
REMARK INTRA:                  -0.602
REMARK UNBOUND:                -0.674
REMARK  Name = 
REMARK  10 active torsions:
REMARK  status: ('A' for Active; 'I' for Inactive)
REMARK    1  A    between atoms: C_1  and  C_2
REMARK    2  A    between atoms: C_5  and  N_8
REMARK    3  A    between atoms: N_8  and  C_9
REMARK    4  A    between atoms: N_8  and  C_13
REMARK    5  A    between atoms: C_9  and  C_10
REMARK    6  A    between atoms: C_10  and  C_11
REMARK    7  A    between atoms: C_10  and  O_12
REMARK    8  A    between atoms: C_13  and  C_14
REMARK    9  A    between atoms: C_14  and  C_15
REMARK   10  A    between atoms: C_14  and  O_16
REMARK                            x       y       z     vdW  Elec       q    Type
REMARK                         _______ _______ _______ _____ _____    ______ ____
ROOT
ATOM      1  N   UNL     1      16.793  11.387   6.981  0.00  0.00    +0.000 N 
ENDROOT
BRANCH   1   6
ATOM      2  C   UNL     1      19.836  16.070   8.443  0.00  0.00    +0.000 C 
ATOM      3  C   UNL     1      19.041  14.851   8.087  0.00  0.00    +0.000 A 
ATOM      4  C   UNL     1      19.652  13.606   7.980  0.00  0.00    +0.000 A 
ATOM      5  C   UNL     1      18.907  12.472   7.618  0.00  0.00    +0.000 A 
ATOM      6  C   UNL     1      17.533  12.526   7.323  0.00  0.00    +0.000 A 
ATOM      7  C   UNL     1      16.949  13.800   7.443  0.00  0.00    +0.000 A 
ATOM      8  C   UNL     1      17.681  14.942   7.807  0.00  0.00    +0.000 A 
ENDBRANCH   1   6
BRANCH   1   9
ATOM      9  C   UNL     1      17.102  10.646   5.734  0.00  0.00    +0.000 C 
BRANCH   9  10
ATOM     10  C   UNL     1      17.116  11.558   4.482  0.00  0.00    +0.000 C 
ATOM     11  C   UNL     1      18.484  11.539   3.810  0.00  0.00    +0.000 C 
BRANCH  10  12
ATOM     12  O   UNL     1      16.143  11.127   3.521  0.00  0.00    +0.000 OA
ATOM     13  H   UNL     1      16.584  10.532   2.892  0.00  0.00    +0.000 HD
ENDBRANCH  10  12
ENDBRANCH   9  10
ENDBRANCH   1   9
BRANCH   1  14
ATOM     14  C   UNL     1      15.421  11.174   7.509  0.00  0.00    +0.000 C 
BRANCH  14  15
ATOM     15  C   UNL     1      15.406  10.217   8.726  0.00  0.00    +0.000 C 
ATOM     16  C   UNL     1      15.437  10.947  10.063  0.00  0.00    +0.000 C 
BRANCH  15  17
ATOM     17  O   UNL     1      14.260   9.367   8.713  0.00  0.00    +0.000 OA
ATOM     18  H   UNL     1      14.618   8.462   8.613  0.00  0.00    +0.000 HD
ENDBRANCH  15  17
ENDBRANCH  14  15
ENDBRANCH   1  14
TORSDOF 7
ENDMDL
MODEL 4
REMARK VINA RESULT:    -4.545      2.913      5.369
REMARK INTER + INTRA:          -6.813
REMARK INTER:                  -6.320
REMARK INTRA:                  -0.493
REMARK UNBOUND:                -0.674
REMARK  Name = 
REMARK  10 active torsions:
REMARK  status: ('A' for Active; 'I' for Inactive)
REMARK    1  A    between atoms: C_1  and  C_2
REMARK    2  A    between atoms: C_5  and  N_8
REMARK    3  A    between atoms: N_8  and  C_9
REMARK    4  A    between atoms: N_8  and  C_13
REMARK    5  A    between atoms: C_9  and  C_10
REMARK    6  A    between atoms: C_10  and  C_11
REMARK    7  A    between atoms: C_10  and  O_12
REMARK    8  A    between atoms: C_13  and  C_14
REMARK    9  A    between atoms: C_14  and  C_15
REMARK   10  A    between atoms: C_14  and  O_16
REMARK                            x       y       z     vdW  Elec       q    Type
REMARK                         _______ _______ _______ _____ _____    ______ ____
ROOT
ATOM      1  N   UNL     1      17.798  -0.378  -5.502  0.00  0.00    +0.000 N 
ENDROOT
BRANCH   1   6
ATOM      2  C   UNL     1      18.553   3.356  -1.164  0.00  0.00    +0.000 C 
ATOM      3  C   UNL     1      18.351   2.369  -2.273  0.00  0.00    +0.000 A 
ATOM      4  C   UNL     1      19.414   1.617  -2.762  0.00  0.00    +0.000 A 
ATOM      5  C   UNL     1      19.226   0.715  -3.822  0.00  0.00    +0.000 A 
ATOM      6  C   UNL     1      17.984   0.537  -4.458  0.00  0.00    +0.000 A 
ATOM      7  C   UNL     1      16.932   1.312  -3.937  0.00  0.00    +0.000 A 
ATOM      8  C   UNL     1      17.106   2.216  -2.876  0.00  0.00    +0.000 A 
ENDBRANCH   1   6
BRANCH   1   9
ATOM      9  C   UNL     1      18.218  -0.029  -6.880  0.00  0.00    +0.000 C 
BRANCH   9  10
ATOM     10  C   UNL     1      17.793   1.402  -7.292  0.00  0.00    +0.000 C 
ATOM     11  C   UNL     1      19.010   2.304  -7.462  0.00  0.00    +0.000 C 
BRANCH  10  12
ATOM     12  O   UNL     1      17.074   1.389  -8.533  0.00  0.00    +0.000 OA
ATOM     13  H   UNL     1      17.721   1.398  -9.257  0.00  0.00    +0.000 HD
ENDBRANCH  10  12
ENDBRANCH   9  10
ENDBRANCH   1   9
BRANCH   1  14
ATOM     14  C   UNL     1      16.770  -1.447  -5.414  0.00  0.00    +0.000 C 
BRANCH  14  15
ATOM     15  C   UNL     1      17.360  -2.850  -5.693  0.00  0.00    +0.000 C 
ATOM     16  C   UNL     1      18.608  -3.150  -4.871  0.00  0.00    +0.000 C 
BRANCH  15  17
ATOM     17  O   UNL     1      16.408  -3.882  -5.442  0.00  0.00    +0.000 OA
ATOM     18  H   UNL     1      16.654  -4.607  -6.052  0.00  0.00    +0.000 HD
ENDBRANCH  15  17
ENDBRANCH  14  15
ENDBRANCH   1  14
TORSDOF 7
ENDMDL
MODEL 5
REMARK VINA RESULT:    -4.505      2.116      3.721
REMARK INTER + INTRA:          -6.760
REMARK INTER:                  -5.970
REMARK INTRA:                  -0.789
REMARK UNBOUND:                -0.674
REMARK  Name = 
REMARK  10 active torsions:
REMARK  status: ('A' for Active; 'I' for Inactive)
REMARK    1  A    between atoms: C_1  and  C_2
REMARK    2  A    between atoms: C_5  and  N_8
REMARK    3  A    between atoms: N_8  and  C_9
REMARK    4  A    between atoms: N_8  and  C_13
REMARK    5  A    between atoms: C_9  and  C_10
REMARK    6  A    between atoms: C_10  and  C_11
REMARK    7  A    between atoms: C_10  and  O_12
REMARK    8  A    between atoms: C_13  and  C_14
REMARK    9  A    between atoms: C_14  and  C_15
REMARK   10  A    between atoms: C_14  and  O_16
REMARK                            x       y       z     vdW  Elec       q    Type
REMARK                         _______ _______ _______ _____ _____    ______ ____
ROOT
ATOM      1  N   UNL     1      18.253   1.478  -4.773  0.00  0.00    +0.000 N 
ENDROOT
BRANCH   1   6
ATOM      2  C   UNL     1      18.409  -4.285  -5.078  0.00  0.00    +0.000 C 
ATOM      3  C   UNL     1      18.374  -2.788  -5.023  0.00  0.00    +0.000 A 
ATOM      4  C   UNL     1      19.502  -2.061  -4.656  0.00  0.00    +0.000 A 
ATOM      5  C   UNL     1      19.456  -0.659  -4.577  0.00  0.00    +0.000 A 
ATOM      6  C   UNL     1      18.287   0.079  -4.834  0.00  0.00    +0.000 A 
ATOM      7  C   UNL     1      17.167  -0.688  -5.204  0.00  0.00    +0.000 A 
ATOM      8  C   UNL     1      17.200  -2.090  -5.289  0.00  0.00    +0.000 A 
ENDBRANCH   1   6
BRANCH   1   9
ATOM      9  C   UNL     1      19.248   2.280  -5.525  0.00  0.00    +0.000 C 
BRANCH   9  10
ATOM     10  C   UNL     1      18.794   2.596  -6.971  0.00  0.00    +0.000 C 
ATOM     11  C   UNL     1      19.323   1.554  -7.949  0.00  0.00    +0.000 C 
BRANCH  10  12
ATOM     12  O   UNL     1      17.363   2.612  -7.069  0.00  0.00    +0.000 OA
ATOM     13  H   UNL     1      17.002   2.169  -6.284  0.00  0.00    +0.000 HD
ENDBRANCH  10  12
ENDBRANCH   9  10
ENDBRANCH   1   9
BRANCH   1  14
ATOM     14  C   UNL     1      17.621   2.182  -3.627  0.00  0.00    +0.000 C 
BRANCH  14  15
ATOM     15  C   UNL     1      16.132   2.511  -3.893  0.00  0.00    +0.000 C 
ATOM     16  C   UNL     1      15.302   2.601  -2.618  0.00  0.00    +0.000 C 
BRANCH  15  17
ATOM     17  O   UNL     1      15.982   3.737  -4.606  0.00  0.00    +0.000 OA
ATOM     18  H   UNL     1      15.303   3.553  -5.285  0.00  0.00    +0.000 HD
ENDBRANCH  15  17
ENDBRANCH  14  15
ENDBRANCH   1  14
TORSDOF 7
ENDMDL
MODEL 6
REMARK VINA RESULT:    -4.337     14.009     16.768
REMARK INTER + INTRA:          -6.533
REMARK INTER:                  -5.920
REMARK INTRA:                  -0.613
REMARK UNBOUND:                -0.674
REMARK  Name = 
REMARK  10 active torsions:
REMARK  status: ('A' for Active; 'I' for Inactive)
REMARK    1  A    between atoms: C_1  and  C_2
REMARK    2  A    between atoms: C_5  and  N_8
REMARK    3  A    between atoms: N_8  and  C_9
REMARK    4  A    between atoms: N_8  and  C_13
REMARK    5  A    between atoms: C_9  and  C_10
REMARK    6  A    between atoms: C_10  and  C_11
REMARK    7  A    between atoms: C_10  and  O_12
REMARK    8  A    between atoms: C_13  and  C_14
REMARK    9  A    between atoms: C_14  and  C_15
REMARK   10  A    between atoms: C_14  and  O_16
REMARK                            x       y       z     vdW  Elec       q    Type
REMARK                         _______ _______ _______ _____ _____    ______ ____
ROOT
ATOM      1  N   UNL     1      16.315  11.695   7.036  0.00  0.00    +0.000 N 
ENDROOT
BRANCH   1   6
ATOM      2  C   UNL     1      20.056  15.720   8.805  0.00  0.00    +0.000 C 
ATOM      3  C   UNL     1      19.096  14.676   8.323  0.00  0.00    +0.000 A 
ATOM      4  C   UNL     1      17.856  15.032   7.803  0.00  0.00    +0.000 A 
ATOM      5  C   UNL     1      16.947  14.048   7.381  0.00  0.00    +0.000 A 
ATOM      6  C   UNL     1      17.218  12.671   7.477  0.00  0.00    +0.000 A 
ATOM      7  C   UNL     1      18.481  12.348   8.006  0.00  0.00    +0.000 A 
ATOM      8  C   UNL     1      19.400  13.322   8.429  0.00  0.00    +0.000 A 
ENDBRANCH   1   6
BRANCH   1   9
ATOM      9  C   UNL     1      15.268  11.183   7.953  0.00  0.00    +0.000 C 
BRANCH   9  10
ATOM     10  C   UNL     1      15.654   9.836   8.612  0.00  0.00    +0.000 C 
ATOM     11  C   UNL     1      16.364  10.063   9.941  0.00  0.00    +0.000 C 
BRANCH  10  12
ATOM     12  O   UNL     1      14.491   9.033   8.861  0.00  0.00    +0.000 OA
ATOM     13  H   UNL     1      14.312   8.507   8.064  0.00  0.00    +0.000 HD
ENDBRANCH  10  12
ENDBRANCH   9  10
ENDBRANCH   1   9
BRANCH   1  14
ATOM     14  C   UNL     1      16.649  10.793   5.905  0.00  0.00    +0.000 C 
BRANCH  14  15
ATOM     15  C   UNL     1      16.884  11.571   4.587  0.00  0.00    +0.000 C 
ATOM     16  C   UNL     1      18.316  11.463   4.075  0.00  0.00    +0.000 C 
BRANCH  15  17
ATOM     17  O   UNL     1      16.009  11.129   3.551  0.00  0.00    +0.000 OA
ATOM     18  H   UNL     1      15.562  10.339   3.917  0.00  0.00    +0.000 HD
ENDBRANCH  15  17
ENDBRANCH  14  15
ENDBRANCH   1  14
TORSDOF 7
ENDMDL
MODEL 7
REMARK VINA RESULT:    -4.301      2.298      3.310
REMARK INTER + INTRA:          -6.483
REMARK INTER:                  -5.932
REMARK INTRA:                  -0.551
REMARK UNBOUND:                -0.674
REMARK  Name = 
REMARK  10 active torsions:
REMARK  status: ('A' for Active; 'I' for Inactive)
REMARK    1  A    between atoms: C_1  and  C_2
REMARK    2  A    between atoms: C_5  and  N_8
REMARK    3  A    between atoms: N_8  and  C_9
REMARK    4  A    between atoms: N_8  and  C_13
REMARK    5  A    between atoms: C_9  and  C_10
REMARK    6  A    between atoms: C_10  and  C_11
REMARK    7  A    between atoms: C_10  and  O_12
REMARK    8  A    between atoms: C_13  and  C_14
REMARK    9  A    between atoms: C_14  and  C_15
REMARK   10  A    between atoms: C_14  and  O_16
REMARK                            x       y       z     vdW  Elec       q    Type
REMARK                         _______ _______ _______ _____ _____    ______ ____
ROOT
ATOM      1  N   UNL     1      18.147   1.354  -5.082  0.00  0.00    +0.000 N 
ENDROOT
BRANCH   1   6
ATOM      2  C   UNL     1      18.533  -4.403  -4.887  0.00  0.00    +0.000 C 
ATOM      3  C   UNL     1      18.428  -2.909  -4.913  0.00  0.00    +0.000 A 
ATOM      4  C   UNL     1      17.219  -2.282  -5.197  0.00  0.00    +0.000 A 
ATOM      5  C   UNL     1      17.133  -0.881  -5.250  0.00  0.00    +0.000 A 
ATOM      6  C   UNL     1      18.244  -0.043  -5.047  0.00  0.00    +0.000 A 
ATOM      7  C   UNL     1      19.449  -0.710  -4.760  0.00  0.00    +0.000 A 
ATOM      8  C   UNL     1      19.548  -2.110  -4.702  0.00  0.00    +0.000 A 
ENDBRANCH   1   6
BRANCH   1   9
ATOM      9  C   UNL     1      17.662   2.095  -3.893  0.00  0.00    +0.000 C 
BRANCH   9  10
ATOM     10  C   UNL     1      16.148   2.415  -3.962  0.00  0.00    +0.000 C 
ATOM     11  C   UNL     1      15.472   2.144  -2.623  0.00  0.00    +0.000 C 
BRANCH  10  12
ATOM     12  O   UNL     1      15.928   3.792  -4.300  0.00  0.00    +0.000 OA
ATOM     13  H   UNL     1      16.608   4.057  -4.942  0.00  0.00    +0.000 HD
ENDBRANCH  10  12
ENDBRANCH   9  10
ENDBRANCH   1   9
BRANCH   1  14
ATOM     14  C   UNL     1      18.017   2.084  -6.369  0.00  0.00    +0.000 C 
BRANCH  14  15
ATOM     15  C   UNL     1      18.972   3.299  -6.451  0.00  0.00    +0.000 C 
ATOM     16  C   UNL     1      19.560   3.506  -7.842  0.00  0.00    +0.000 C 
BRANCH  15  17
ATOM     17  O   UNL     1      18.323   4.508  -6.061  0.00  0.00    +0.000 OA
ATOM     18  H   UNL     1      18.675   5.191  -6.667  0.00  0.00    +0.000 HD
ENDBRANCH  15  17
ENDBRANCH  14  15
ENDBRANCH   1  14
TORSDOF 7
ENDMDL
MODEL 8
REMARK VINA RESULT:    -4.299      1.704      3.861
REMARK INTER + INTRA:          -6.482
REMARK INTER:                  -5.910
REMARK INTRA:                  -0.572
REMARK UNBOUND:                -0.674
REMARK  Name = 
REMARK  10 active torsions:
REMARK  status: ('A' for Active; 'I' for Inactive)
REMARK    1  A    between atoms: C_1  and  C_2
REMARK    2  A    between atoms: C_5  and  N_8
REMARK    3  A    between atoms: N_8  and  C_9
REMARK    4  A    between atoms: N_8  and  C_13
REMARK    5  A    between atoms: C_9  and  C_10
REMARK    6  A    between atoms: C_10  and  C_11
REMARK    7  A    between atoms: C_10  and  O_12
REMARK    8  A    between atoms: C_13  and  C_14
REMARK    9  A    between atoms: C_14  and  C_15
REMARK   10  A    between atoms: C_14  and  O_16
REMARK                            x       y       z     vdW  Elec       q    Type
REMARK                         _______ _______ _______ _____ _____    ______ ____
ROOT
ATOM      1  N   UNL     1      17.910   2.386  -4.272  0.00  0.00    +0.000 N 
ENDROOT
BRANCH   1   6
ATOM      2  C   UNL     1      18.985   2.437  -9.944  0.00  0.00    +0.000 C 
ATOM      3  C   UNL     1      18.683   2.432  -8.476  0.00  0.00    +0.000 A 
ATOM      4  C   UNL     1      18.939   3.550  -7.690  0.00  0.00    +0.000 A 
ATOM      5  C   UNL     1      18.682   3.529  -6.309  0.00  0.00    +0.000 A 
ATOM      6  C   UNL     1      18.183   2.393  -5.645  0.00  0.00    +0.000 A 
ATOM      7  C   UNL     1      17.934   1.282  -6.472  0.00  0.00    +0.000 A 
ATOM      8  C   UNL     1      18.184   1.291  -7.854  0.00  0.00    +0.000 A 
ENDBRANCH   1   6
BRANCH   1   9
ATOM      9  C   UNL     1      19.000   2.631  -3.296  0.00  0.00    +0.000 C 
BRANCH   9  10
ATOM     10  C   UNL     1      19.335   1.383  -2.443  0.00  0.00    +0.000 C 
ATOM     11  C   UNL     1      20.393   0.524  -3.126  0.00  0.00    +0.000 C 
BRANCH  10  12
ATOM     12  O   UNL     1      19.834   1.761  -1.153  0.00  0.00    +0.000 OA
ATOM     13  H   UNL     1      19.843   0.969  -0.590  0.00  0.00    +0.000 HD
ENDBRANCH  10  12
ENDBRANCH   9  10
ENDBRANCH   1   9
BRANCH   1  14
ATOM     14  C   UNL     1      16.735   1.660  -3.725  0.00  0.00    +0.000 C 
BRANCH  14  15
ATOM     15  C   UNL     1      15.767   2.602  -2.969  0.00  0.00    +0.000 C 
ATOM     16  C   UNL     1      15.105   3.634  -3.875  0.00  0.00    +0.000 C 
BRANCH  15  17
ATOM     17  O   UNL     1      14.737   1.874  -2.303  0.00  0.00    +0.000 OA
ATOM     18  H   UNL     1      14.227   2.550  -1.811  0.00  0.00    +0.000 HD
ENDBRANCH  15  17
ENDBRANCH  14  15
ENDBRANCH   1  14
TORSDOF 7
ENDMDL
MODEL 9
REMARK VINA RESULT:    -4.298      2.395      3.592
REMARK INTER + INTRA:          -6.480
REMARK INTER:                  -6.025
REMARK INTRA:                  -0.455
REMARK UNBOUND:                -0.674
REMARK  Name = 
REMARK  10 active torsions:
REMARK  status: ('A' for Active; 'I' for Inactive)
REMARK    1  A    between atoms: C_1  and  C_2
REMARK    2  A    between atoms: C_5  and  N_8
REMARK    3  A    between atoms: N_8  and  C_9
REMARK    4  A    between atoms: N_8  and  C_13
REMARK    5  A    between atoms: C_9  and  C_10
REMARK    6  A    between atoms: C_10  and  C_11
REMARK    7  A    between atoms: C_10  and  O_12
REMARK    8  A    between atoms: C_13  and  C_14
REMARK    9  A    between atoms: C_14  and  C_15
REMARK   10  A    between atoms: C_14  and  O_16
REMARK                            x       y       z     vdW  Elec       q    Type
REMARK                         _______ _______ _______ _____ _____    ______ ____
ROOT
ATOM      1  N   UNL     1      18.231   1.951  -5.364  0.00  0.00    +0.000 N 
ENDROOT
BRANCH   1   6
ATOM      2  C   UNL     1      18.078  -3.381  -7.573  0.00  0.00    +0.000 C 
ATOM      3  C   UNL     1      18.141  -2.001  -6.993  0.00  0.00    +0.000 A 
ATOM      4  C   UNL     1      17.753  -1.760  -5.679  0.00  0.00    +0.000 A 
ATOM      5  C   UNL     1      17.786  -0.459  -5.150  0.00  0.00    +0.000 A 
ATOM      6  C   UNL     1      18.182   0.660  -5.904  0.00  0.00    +0.000 A 
ATOM      7  C   UNL     1      18.570   0.379  -7.227  0.00  0.00    +0.000 A 
ATOM      8  C   UNL     1      18.544  -0.917  -7.768  0.00  0.00    +0.000 A 
ENDBRANCH   1   6
BRANCH   1   9
ATOM      9  C   UNL     1      19.222   2.931  -5.869  0.00  0.00    +0.000 C 
BRANCH   9  10
ATOM     10  C   UNL     1      18.565   4.130  -6.596  0.00  0.00    +0.000 C 
ATOM     11  C   UNL     1      19.430   5.379  -6.479  0.00  0.00    +0.000 C 
BRANCH  10  12
ATOM     12  O   UNL     1      18.378   3.847  -7.990  0.00  0.00    +0.000 OA
ATOM     13  H   UNL     1      19.061   3.212  -8.262  0.00  0.00    +0.000 HD
ENDBRANCH  10  12
ENDBRANCH   9  10
ENDBRANCH   1   9
BRANCH   1  14
ATOM     14  C   UNL     1      17.710   2.235  -4.002  0.00  0.00    +0.000 C 
BRANCH  14  15
ATOM     15  C   UNL     1      16.185   2.495  -4.002  0.00  0.00    +0.000 C 
ATOM     16  C   UNL     1      15.527   2.209  -2.657  0.00  0.00    +0.000 C 
BRANCH  15  17
ATOM     17  O   UNL     1      15.880   3.841  -4.365  0.00  0.00    +0.000 OA
ATOM     18  H   UNL     1      15.957   3.864  -5.340  0.00  0.00    +0.000 HD
ENDBRANCH  15  17
ENDBRANCH  14  15
ENDBRANCH   1  14
TORSDOF 7
ENDMDL
