MODEL 1
REMARK VINA RESULT:    -3.979      0.000      0.000
REMARK INTER + INTRA:          -4.367
REMARK INTER:                  -4.328
REMARK INTRA:                  -0.039
REMARK UNBOUND:                -0.039
REMARK  Name = 
REMARK  3 active torsions:
REMARK  status: ('A' for Active; 'I' for Inactive)
REMARK    1  A    between atoms: C_1  and  O_2
REMARK    2  A    between atoms: O_2  and  C_3
REMARK    3  A    between atoms: C_8  and  O_9
REMARK                            x       y       z     vdW  Elec       q    Type
REMARK                         _______ _______ _______ _____ _____    ______ ____
ROOT
ATOM      1  C   UNL     1      16.065  10.672   8.327  0.00  0.00    +0.000 A 
ATOM      2  C   UNL     1      17.355  11.161   8.532  0.00  0.00    +0.000 A 
ATOM      3  C   UNL     1      18.200  10.541   9.460  0.00  0.00    +0.000 A 
ATOM      4  C   UNL     1      17.760   9.432  10.187  0.00  0.00    +0.000 A 
ATOM      5  C   UNL     1      16.473   8.937   9.988  0.00  0.00    +0.000 A 
ATOM      6  C   UNL     1      15.642   9.559   9.065  0.00  0.00    +0.000 A 
ENDROOT
BRANCH   1   8
ATOM      7  C   UNL     1      15.627  12.017   6.417  0.00  0.00    +0.000 C 
ATOM      8  O   UNL     1      15.135  11.178   7.456  0.00  0.00    +0.000 OA
ENDBRANCH   1   8
BRANCH   6   9
ATOM      9  O   UNL     1      14.382   9.055   8.887  0.00  0.00    +0.000 OA
ATOM     10  H   UNL     1      13.868   9.397   9.643  0.00  0.00    +0.000 HD
ENDBRANCH   6   9
TORSDOF 2
ENDMDL
MODEL 2
REMARK VINA RESULT:    -3.725     14.168     14.915
REMARK INTER + INTRA:          -4.091
REMARK INTER:                  -4.039
REMARK INTRA:                  -0.052
REMARK UNBOUND:                -0.039
REMARK  Name = 
REMARK  3 active torsions:
REMARK  status: ('A' for Active; 'I' for Inactive)
REMARK    1  A    between atoms: C_1  and  O_2
REMARK    2  A    between atoms: O_2  and  C_3
REMARK    3  A    between atoms: C_8  and  O_9
REMARK                            x       y       z     vdW  Elec       q    Type
REMARK                         _______ _______ _______ _____ _____    ______ ____
ROOT
ATOM      1  C   UNL     1      18.305   2.080  -3.474  0.00  0.00    +0.000 A 
ATOM      2  C   UNL     1      17.795   2.427  -4.724  0.00  0.00    +0.000 A 
ATOM      3  C   UNL     1      16.484   2.905  -4.837  0.00  0.00    +0.000 A 
ATOM      4  C   UNL     1      15.679   3.037  -3.704  0.00  0.00    +0.000 A 
ATOM      5  C   UNL     1      16.181   2.694  -2.451  0.00  0.00    +0.000 A 
ATOM      6  C   UNL     1      17.483   2.220  -2.349  0.00  0.00    +0.000 A 
ENDROOT
BRANCH   1   8
ATOM      7  C   UNL     1      19.848   0.284  -3.673  0.00  0.00    +0.000 C 
ATOM      8  O   UNL     1      19.564   1.601  -3.216  0.00  0.00    +0.000 OA
ENDBRANCH   1   8
BRANCH   6   9
ATOM      9  O   UNL     1      17.954   1.889  -1.107  0.00  0.00    +0.000 OA
ATOM     10  H   UNL     1      17.459   2.463  -0.492  0.00  0.00    +0.000 HD
ENDBRANCH   6   9
TORSDOF 2
ENDMDL
MODEL 3
REMARK VINA RESULT:    -3.721     14.061     14.712
REMARK INTER + INTRA:          -4.086
REMARK INTER:                  -4.034
REMARK INTRA:                  -0.052
REMARK UNBOUND:                -0.039
REMARK  Name = 
REMARK  3 active torsions:
REMARK  status: ('A' for Active; 'I' for Inactive)
REMARK    1  A    between atoms: C_1  and  O_2
REMARK    2  A    between atoms: O_2  and  C_3
REMARK    3  A    between atoms: C_8  and  O_9
REMARK                            x       y       z     vdW  Elec       q    Type
REMARK                         _______ _______ _______ _____ _____    ______ ____
ROOT
ATOM      1  C   UNL     1      17.049   2.096  -3.355  0.00  0.00    +0.000 A 
ATOM      2  C   UNL     1      17.288   2.289  -4.715  0.00  0.00    +0.000 A 
ATOM      3  C   UNL     1      18.599   2.457  -5.179  0.00  0.00    +0.000 A 
ATOM      4  C   UNL     1      19.673   2.434  -4.287  0.00  0.00    +0.000 A 
ATOM      5  C   UNL     1      19.443   2.240  -2.927  0.00  0.00    +0.000 A 
ATOM      6  C   UNL     1      18.140   2.075  -2.476  0.00  0.00    +0.000 A 
ENDROOT
BRANCH   1   8
ATOM      7  C   UNL     1      14.882   2.972  -2.930  0.00  0.00    +0.000 C 
ATOM      8  O   UNL     1      15.824   1.919  -2.764  0.00  0.00    +0.000 OA
ENDBRANCH   1   8
BRANCH   6   9
ATOM      9  O   UNL     1      17.938   1.886  -1.135  0.00  0.00    +0.000 OA
ATOM     10  H   UNL     1      18.393   1.047  -0.931  0.00  0.00    +0.000 HD
ENDBRANCH   6   9
TORSDOF 2
ENDMDL
MODEL 4
REMARK VINA RESULT:    -3.668      2.330      4.020
REMARK INTER + INTRA:          -4.028
REMARK INTER:                  -3.979
REMARK INTRA:                  -0.049
REMARK UNBOUND:                -0.039
REMARK  Name = 
REMARK  3 active torsions:
REMARK  status: ('A' for Active; 'I' for Inactive)
REMARK    1  A    between atoms: C_1  and  O_2
REMARK    2  A    between atoms: O_2  and  C_3
REMARK    3  A    between atoms: C_8  and  O_9
REMARK                            x       y       z     vdW  Elec       q    Type
REMARK                         _______ _______ _______ _____ _____    ______ ____
ROOT
ATOM      1  C   UNL     1      17.050  10.414   7.484  0.00  0.00    +0.000 A 
ATOM      2  C   UNL     1      16.130  11.434   7.245  0.00  0.00    +0.000 A 
ATOM      3  C   UNL     1      16.064  12.035   5.982  0.00  0.00    +0.000 A 
ATOM      4  C   UNL     1      16.916  11.622   4.956  0.00  0.00    +0.000 A 
ATOM      5  C   UNL     1      17.838  10.603   5.187  0.00  0.00    +0.000 A 
ATOM      6  C   UNL     1      17.896  10.013   6.443  0.00  0.00    +0.000 A 
ENDROOT
BRANCH   1   8
ATOM      7  C   UNL     1      16.061   9.157   9.242  0.00  0.00    +0.000 C 
ATOM      8  O   UNL     1      17.224   9.740   8.666  0.00  0.00    +0.000 OA
ENDBRANCH   1   8
BRANCH   6   9
ATOM      9  O   UNL     1      18.810   9.014   6.646  0.00  0.00    +0.000 OA
ATOM     10  H   UNL     1      19.251   9.247   7.486  0.00  0.00    +0.000 HD
ENDBRANCH   6   9
TORSDOF 2
ENDMDL
MODEL 5
REMARK VINA RESULT:    -3.652      1.414      3.165
REMARK INTER + INTRA:          -4.011
REMARK INTER:                  -3.959
REMARK INTRA:                  -0.052
REMARK UNBOUND:                -0.039
REMARK  Name = 
REMARK  3 active torsions:
REMARK  status: ('A' for Active; 'I' for Inactive)
REMARK    1  A    between atoms: C_1  and  O_2
REMARK    2  A    between atoms: O_2  and  C_3
REMARK    3  A    between atoms: C_8  and  O_9
REMARK                            x       y       z     vdW  Elec       q    Type
REMARK                         _______ _______ _______ _____ _____    ______ ____
ROOT
ATOM      1  C   UNL     1      16.705   9.676   8.990  0.00  0.00    +0.000 A 
ATOM      2  C   UNL     1      17.737   9.949   8.094  0.00  0.00    +0.000 A 
ATOM      3  C   UNL     1      17.521  10.827   7.024  0.00  0.00    +0.000 A 
ATOM      4  C   UNL     1      16.276  11.434   6.847  0.00  0.00    +0.000 A 
ATOM      5  C   UNL     1      15.240  11.166   7.739  0.00  0.00    +0.000 A 
ATOM      6  C   UNL     1      15.463  10.293   8.796  0.00  0.00    +0.000 A 
ENDROOT
BRANCH   1   8
ATOM      7  C   UNL     1      17.593   9.270  11.156  0.00  0.00    +0.000 C 
ATOM      8  O   UNL     1      16.774   8.840  10.076  0.00  0.00    +0.000 OA
ENDBRANCH   1   8
BRANCH   6   9
ATOM      9  O   UNL     1      14.430  10.046   9.659  0.00  0.00    +0.000 OA
ATOM     10  H   UNL     1      13.742  10.695   9.417  0.00  0.00    +0.000 HD
ENDBRANCH   6   9
TORSDOF 2
ENDMDL
MODEL 6
REMARK VINA RESULT:    -3.643      1.732      3.549
REMARK INTER + INTRA:          -4.001
REMARK INTER:                  -3.956
REMARK INTRA:                  -0.045
REMARK UNBOUND:                -0.039
REMARK  Name = 
REMARK  3 active torsions:
REMARK  status: ('A' for Active; 'I' for Inactive)
REMARK    1  A    between atoms: C_1  and  O_2
REMARK    2  A    between atoms: O_2  and  C_3
REMARK    3  A    between atoms: C_8  and  O_9
REMARK                            x       y       z     vdW  Elec       q    Type
REMARK                         _______ _______ _______ _____ _____    ______ ____
ROOT
ATOM      1  C   UNL     1      16.310  10.836   7.431  0.00  0.00    +0.000 A 
ATOM      2  C   UNL     1      17.489  10.095   7.484  0.00  0.00    +0.000 A 
ATOM      3  C   UNL     1      18.334  10.042   6.368  0.00  0.00    +0.000 A 
ATOM      4  C   UNL     1      18.002  10.727   5.197  0.00  0.00    +0.000 A 
ATOM      5  C   UNL     1      16.826  11.470   5.136  0.00  0.00    +0.000 A 
ATOM      6  C   UNL     1      15.994  11.516   6.248  0.00  0.00    +0.000 A 
ENDROOT
BRANCH   1   8
ATOM      7  C   UNL     1      15.092   9.805   9.192  0.00  0.00    +0.000 C 
ATOM      8  O   UNL     1      15.393  10.975   8.442  0.00  0.00    +0.000 OA
ENDBRANCH   1   8
BRANCH   6   9
ATOM      9  O   UNL     1      14.843  12.253   6.164  0.00  0.00    +0.000 OA
ATOM     10  H   UNL     1      14.276  11.910   6.881  0.00  0.00    +0.000 HD
ENDBRANCH   6   9
TORSDOF 2
ENDMDL
MODEL 7
REMARK VINA RESULT:    -3.628      1.863      3.296
REMARK INTER + INTRA:          -3.985
REMARK INTER:                  -3.939
REMARK INTRA:                  -0.045
REMARK UNBOUND:                -0.039
REMARK  Name = 
REMARK  3 active torsions:
REMARK  status: ('A' for Active; 'I' for Inactive)
REMARK    1  A    between atoms: C_1  and  O_2
REMARK    2  A    between atoms: O_2  and  C_3
REMARK    3  A    between atoms: C_8  and  O_9
REMARK                            x       y       z     vdW  Elec       q    Type
REMARK                         _______ _______ _______ _____ _____    ______ ____
ROOT
ATOM      1  C   UNL     1      16.257  11.491   9.375  0.00  0.00    +0.000 A 
ATOM      2  C   UNL     1      17.065  12.600   9.128  0.00  0.00    +0.000 A 
ATOM      3  C   UNL     1      17.098  13.170   7.849  0.00  0.00    +0.000 A 
ATOM      4  C   UNL     1      16.327  12.634   6.815  0.00  0.00    +0.000 A 
ATOM      5  C   UNL     1      15.518  11.526   7.055  0.00  0.00    +0.000 A 
ATOM      6  C   UNL     1      15.491  10.968   8.326  0.00  0.00    +0.000 A 
ENDROOT
BRANCH   1   8
ATOM      7  C   UNL     1      16.027  11.646  11.735  0.00  0.00    +0.000 C 
ATOM      8  O   UNL     1      16.128  10.833  10.572  0.00  0.00    +0.000 OA
ENDBRANCH   1   8
BRANCH   6   9
ATOM      9  O   UNL     1      14.688   9.879   8.538  0.00  0.00    +0.000 OA
ATOM     10  H   UNL     1      13.924  10.227   9.037  0.00  0.00    +0.000 HD
ENDBRANCH   6   9
TORSDOF 2
ENDMDL
MODEL 8
REMARK VINA RESULT:    -3.623     14.516     15.110
REMARK INTER + INTRA:          -3.979
REMARK INTER:                  -3.936
REMARK INTRA:                  -0.043
REMARK UNBOUND:                -0.039
REMARK  Name = 
REMARK  3 active torsions:
REMARK  status: ('A' for Active; 'I' for Inactive)
REMARK    1  A    between atoms: C_1  and  O_2
REMARK    2  A    between atoms: O_2  and  C_3
REMARK    3  A    between atoms: C_8  and  O_9
REMARK                            x       y       z     vdW  Elec       q    Type
REMARK                         _______ _______ _______ _____ _____    ______ ____
ROOT
ATOM      1  C   UNL     1      17.552   2.490  -4.612  0.00  0.00    +0.000 A 
ATOM      2  C   UNL     1      18.640   1.819  -4.056  0.00  0.00    +0.000 A 
ATOM      3  C   UNL     1      18.710   1.628  -2.671  0.00  0.00    +0.000 A 
ATOM      4  C   UNL     1      17.697   2.106  -1.838  0.00  0.00    +0.000 A 
ATOM      5  C   UNL     1      16.606   2.777  -2.386  0.00  0.00    +0.000 A 
ATOM      6  C   UNL     1      16.545   2.963  -3.761  0.00  0.00    +0.000 A 
ENDROOT
BRANCH   1   8
ATOM      7  C   UNL     1      17.786   1.747  -6.857  0.00  0.00    +0.000 C 
ATOM      8  O   UNL     1      17.353   2.749  -5.945  0.00  0.00    +0.000 OA
ENDBRANCH   1   8
BRANCH   6   9
ATOM      9  O   UNL     1      15.463   3.626  -4.276  0.00  0.00    +0.000 OA
ATOM     10  H   UNL     1      14.705   3.035  -4.105  0.00  0.00    +0.000 HD
ENDBRANCH   6   9
TORSDOF 2
ENDMDL
MODEL 9
REMARK VINA RESULT:    -3.610     13.887     14.371
REMARK INTER + INTRA:          -3.966
REMARK INTER:                  -3.916
REMARK INTRA:                  -0.050
REMARK UNBOUND:                -0.039
REMARK  Name = 
REMARK  3 active torsions:
REMARK  status: ('A' for Active; 'I' for Inactive)
REMARK    1  A    between atoms: C_1  and  O_2
REMARK    2  A    between atoms: O_2  and  C_3
REMARK    3  A    between atoms: C_8  and  O_9
REMARK                            x       y       z     vdW  Elec       q    Type
REMARK                         _______ _______ _______ _____ _____    ______ ____
ROOT
ATOM      1  C   UNL     1      16.970   2.142  -2.603  0.00  0.00    +0.000 A 
ATOM      2  C   UNL     1      17.642   2.889  -1.637  0.00  0.00    +0.000 A 
ATOM      3  C   UNL     1      19.039   2.989  -1.676  0.00  0.00    +0.000 A 
ATOM      4  C   UNL     1      19.766   2.344  -2.678  0.00  0.00    +0.000 A 
ATOM      5  C   UNL     1      19.102   1.597  -3.648  0.00  0.00    +0.000 A 
ATOM      6  C   UNL     1      17.716   1.503  -3.600  0.00  0.00    +0.000 A 
ENDROOT
BRANCH   1   8
ATOM      7  C   UNL     1      14.843   3.083  -3.091  0.00  0.00    +0.000 C 
ATOM      8  O   UNL     1      15.613   1.958  -2.686  0.00  0.00    +0.000 OA
ENDBRANCH   1   8
BRANCH   6   9
ATOM      9  O   UNL     1      17.085   0.762  -4.564  0.00  0.00    +0.000 OA
ATOM     10  H   UNL     1      16.135   0.847  -4.359  0.00  0.00    +0.000 HD
ENDBRANCH   6   9
TORSDOF 2
ENDMDL
