MODEL 1
REMARK VINA RESULT:    -3.980      0.000      0.000
REMARK INTER + INTRA:          -4.368
REMARK INTER:                  -4.329
REMARK INTRA:                  -0.038
REMARK UNBOUND:                -0.038
REMARK  Name = 
REMARK  3 active torsions:
REMARK  status: ('A' for Active; 'I' for Inactive)
REMARK    1  A    between atoms: C_1  and  O_2
REMARK    2  A    between atoms: O_2  and  C_3
REMARK    3  A    between atoms: C_8  and  O_9
REMARK                            x       y       z     vdW  Elec       q    Type
REMARK                         _______ _______ _______ _____ _____    ______ ____
ROOT
ATOM      1  C   UNL     1      16.071  10.670   8.323  0.00  0.00    +0.000 A 
ATOM      2  C   UNL     1      17.362  11.158   8.517  0.00  0.00    +0.000 A 
ATOM      3  C   UNL     1      18.215  10.535   9.438  0.00  0.00    +0.000 A 
ATOM      4  C   UNL     1      17.780   9.427  10.167  0.00  0.00    +0.000 A 
ATOM      5  C   UNL     1      16.491   8.933   9.978  0.00  0.00    +0.000 A 
ATOM      6  C   UNL     1      15.653   9.557   9.063  0.00  0.00    +0.000 A 
ENDROOT
BRANCH   1   8
ATOM      7  C   UNL     1      15.615  12.033   6.430  0.00  0.00    +0.000 C 
ATOM      8  O   UNL     1      15.133  11.178   7.460  0.00  0.00    +0.000 OA
ENDBRANCH   1   8
BRANCH   6   9
ATOM      9  O   UNL     1      14.390   9.054   8.895  0.00  0.00    +0.000 OA
ATOM     10  H   UNL     1      14.356   8.774   7.961  0.00  0.00    +0.000 HD
ENDBRANCH   6   9
TORSDOF 2
ENDMDL
MODEL 2
REMARK VINA RESULT:    -3.720     14.222     14.935
REMARK INTER + INTRA:          -4.085
REMARK INTER:                  -4.032
REMARK INTRA:                  -0.052
REMARK UNBOUND:                -0.038
REMARK  Name = 
REMARK  3 active torsions:
REMARK  status: ('A' for Active; 'I' for Inactive)
REMARK    1  A    between atoms: C_1  and  O_2
REMARK    2  A    between atoms: O_2  and  C_3
REMARK    3  A    between atoms: C_8  and  O_9
REMARK                            x       y       z     vdW  Elec       q    Type
REMARK                         _______ _______ _______ _____ _____    ______ ____
ROOT
ATOM      1  C   UNL     1      18.439   2.051  -3.435  0.00  0.00    +0.000 A 
ATOM      2  C   UNL     1      17.983   2.382  -4.710  0.00  0.00    +0.000 A 
ATOM      3  C   UNL     1      16.674   2.846  -4.886  0.00  0.00    +0.000 A 
ATOM      4  C   UNL     1      15.817   2.980  -3.792  0.00  0.00    +0.000 A 
ATOM      5  C   UNL     1      16.265   2.651  -2.515  0.00  0.00    +0.000 A 
ATOM      6  C   UNL     1      17.565   2.191  -2.349  0.00  0.00    +0.000 A 
ENDROOT
BRANCH   1   8
ATOM      7  C   UNL     1      20.015   0.278  -3.570  0.00  0.00    +0.000 C 
ATOM      8  O   UNL     1      19.689   1.586  -3.115  0.00  0.00    +0.000 OA
ENDBRANCH   1   8
BRANCH   6   9
ATOM      9  O   UNL     1      17.982   1.875  -1.084  0.00  0.00    +0.000 OA
ATOM     10  H   UNL     1      17.360   1.185  -0.783  0.00  0.00    +0.000 HD
ENDBRANCH   6   9
TORSDOF 2
ENDMDL
MODEL 3
REMARK VINA RESULT:    -3.696     14.085     14.720
REMARK INTER + INTRA:          -4.059
REMARK INTER:                  -4.007
REMARK INTRA:                  -0.052
REMARK UNBOUND:                -0.038
REMARK  Name = 
REMARK  3 active torsions:
REMARK  status: ('A' for Active; 'I' for Inactive)
REMARK    1  A    between atoms: C_1  and  O_2
REMARK    2  A    between atoms: O_2  and  C_3
REMARK    3  A    between atoms: C_8  and  O_9
REMARK                            x       y       z     vdW  Elec       q    Type
REMARK                         _______ _______ _______ _____ _____    ______ ____
ROOT
ATOM      1  C   UNL     1      17.020   2.142  -3.425  0.00  0.00    +0.000 A 
ATOM      2  C   UNL     1      17.275   2.390  -4.773  0.00  0.00    +0.000 A 
ATOM      3  C   UNL     1      18.592   2.574  -5.214  0.00  0.00    +0.000 A 
ATOM      4  C   UNL     1      19.655   2.514  -4.311  0.00  0.00    +0.000 A 
ATOM      5  C   UNL     1      19.408   2.267  -2.962  0.00  0.00    +0.000 A 
ATOM      6  C   UNL     1      18.099   2.085  -2.535  0.00  0.00    +0.000 A 
ENDROOT
BRANCH   1   8
ATOM      7  C   UNL     1      14.850   3.006  -2.987  0.00  0.00    +0.000 C 
ATOM      8  O   UNL     1      15.787   1.944  -2.857  0.00  0.00    +0.000 OA
ENDBRANCH   1   8
BRANCH   6   9
ATOM      9  O   UNL     1      17.881   1.844  -1.204  0.00  0.00    +0.000 OA
ATOM     10  H   UNL     1      17.292   2.566  -0.914  0.00  0.00    +0.000 HD
ENDBRANCH   6   9
TORSDOF 2
ENDMDL
MODEL 4
REMARK VINA RESULT:    -3.660      2.331      3.986
REMARK INTER + INTRA:          -4.019
REMARK INTER:                  -3.967
REMARK INTRA:                  -0.053
REMARK UNBOUND:                -0.038
REMARK  Name = 
REMARK  3 active torsions:
REMARK  status: ('A' for Active; 'I' for Inactive)
REMARK    1  A    between atoms: C_1  and  O_2
REMARK    2  A    between atoms: O_2  and  C_3
REMARK    3  A    between atoms: C_8  and  O_9
REMARK                            x       y       z     vdW  Elec       q    Type
REMARK                         _______ _______ _______ _____ _____    ______ ____
ROOT
ATOM      1  C   UNL     1      17.087  10.429   7.592  0.00  0.00    +0.000 A 
ATOM      2  C   UNL     1      16.149  11.427   7.331  0.00  0.00    +0.000 A 
ATOM      3  C   UNL     1      16.041  11.966   6.043  0.00  0.00    +0.000 A 
ATOM      4  C   UNL     1      16.869  11.513   5.014  0.00  0.00    +0.000 A 
ATOM      5  C   UNL     1      17.808  10.516   5.267  0.00  0.00    +0.000 A 
ATOM      6  C   UNL     1      17.908   9.987   6.547  0.00  0.00    +0.000 A 
ENDROOT
BRANCH   1   8
ATOM      7  C   UNL     1      16.232   9.031   9.312  0.00  0.00    +0.000 C 
ATOM      8  O   UNL     1      17.303   9.814   8.799  0.00  0.00    +0.000 OA
ENDBRANCH   1   8
BRANCH   6   9
ATOM      9  O   UNL     1      18.839   9.008   6.771  0.00  0.00    +0.000 OA
ATOM     10  H   UNL     1      19.377   9.342   7.515  0.00  0.00    +0.000 HD
ENDBRANCH   6   9
TORSDOF 2
ENDMDL
MODEL 5
REMARK VINA RESULT:    -3.648      1.403      3.159
REMARK INTER + INTRA:          -4.006
REMARK INTER:                  -3.953
REMARK INTRA:                  -0.053
REMARK UNBOUND:                -0.038
REMARK  Name = 
REMARK  3 active torsions:
REMARK  status: ('A' for Active; 'I' for Inactive)
REMARK    1  A    between atoms: C_1  and  O_2
REMARK    2  A    between atoms: O_2  and  C_3
REMARK    3  A    between atoms: C_8  and  O_9
REMARK                            x       y       z     vdW  Elec       q    Type
REMARK                         _______ _______ _______ _____ _____    ______ ____
ROOT
ATOM      1  C   UNL     1      16.700   9.694   9.000  0.00  0.00    +0.000 A 
ATOM      2  C   UNL     1      17.740   9.974   8.115  0.00  0.00    +0.000 A 
ATOM      3  C   UNL     1      17.530  10.850   7.043  0.00  0.00    +0.000 A 
ATOM      4  C   UNL     1      16.283  11.447   6.851  0.00  0.00    +0.000 A 
ATOM      5  C   UNL     1      15.239  11.172   7.731  0.00  0.00    +0.000 A 
ATOM      6  C   UNL     1      15.456  10.302   8.791  0.00  0.00    +0.000 A 
ENDROOT
BRANCH   1   8
ATOM      7  C   UNL     1      17.596   9.278  11.161  0.00  0.00    +0.000 C 
ATOM      8  O   UNL     1      16.762   8.859  10.087  0.00  0.00    +0.000 OA
ENDBRANCH   1   8
BRANCH   6   9
ATOM      9  O   UNL     1      14.414  10.047   9.643  0.00  0.00    +0.000 OA
ATOM     10  H   UNL     1      13.693   9.733   9.065  0.00  0.00    +0.000 HD
ENDBRANCH   6   9
TORSDOF 2
ENDMDL
MODEL 6
REMARK VINA RESULT:    -3.638     14.391     14.977
REMARK INTER + INTRA:          -3.995
REMARK INTER:                  -3.942
REMARK INTRA:                  -0.053
REMARK UNBOUND:                -0.038
REMARK  Name = 
REMARK  3 active torsions:
REMARK  status: ('A' for Active; 'I' for Inactive)
REMARK    1  A    between atoms: C_1  and  O_2
REMARK    2  A    between atoms: O_2  and  C_3
REMARK    3  A    between atoms: C_8  and  O_9
REMARK                            x       y       z     vdW  Elec       q    Type
REMARK                         _______ _______ _______ _____ _____    ______ ____
ROOT
ATOM      1  C   UNL     1      17.528   2.508  -4.648  0.00  0.00    +0.000 A 
ATOM      2  C   UNL     1      18.602   1.816  -4.091  0.00  0.00    +0.000 A 
ATOM      3  C   UNL     1      18.659   1.607  -2.708  0.00  0.00    +0.000 A 
ATOM      4  C   UNL     1      17.646   2.089  -1.877  0.00  0.00    +0.000 A 
ATOM      5  C   UNL     1      16.569   2.781  -2.425  0.00  0.00    +0.000 A 
ATOM      6  C   UNL     1      16.521   2.984  -3.799  0.00  0.00    +0.000 A 
ENDROOT
BRANCH   1   8
ATOM      7  C   UNL     1      18.272   3.681  -6.576  0.00  0.00    +0.000 C 
ATOM      8  O   UNL     1      17.343   2.785  -5.979  0.00  0.00    +0.000 OA
ENDBRANCH   1   8
BRANCH   6   9
ATOM      9  O   UNL     1      15.452   3.667  -4.314  0.00  0.00    +0.000 OA
ATOM     10  H   UNL     1      15.245   3.209  -5.151  0.00  0.00    +0.000 HD
ENDBRANCH   6   9
TORSDOF 2
ENDMDL
MODEL 7
REMARK VINA RESULT:    -3.633      3.510      4.530
REMARK INTER + INTRA:          -3.990
REMARK INTER:                  -3.945
REMARK INTRA:                  -0.045
REMARK UNBOUND:                -0.038
REMARK  Name = 
REMARK  3 active torsions:
REMARK  status: ('A' for Active; 'I' for Inactive)
REMARK    1  A    between atoms: C_1  and  O_2
REMARK    2  A    between atoms: O_2  and  C_3
REMARK    3  A    between atoms: C_8  and  O_9
REMARK                            x       y       z     vdW  Elec       q    Type
REMARK                         _______ _______ _______ _____ _____    ______ ____
ROOT
ATOM      1  C   UNL     1      17.880  11.819   4.958  0.00  0.00    +0.000 A 
ATOM      2  C   UNL     1      18.470  12.097   6.190  0.00  0.00    +0.000 A 
ATOM      3  C   UNL     1      17.667  12.306   7.319  0.00  0.00    +0.000 A 
ATOM      4  C   UNL     1      16.276  12.239   7.220  0.00  0.00    +0.000 A 
ATOM      5  C   UNL     1      15.680  11.961   5.992  0.00  0.00    +0.000 A 
ATOM      6  C   UNL     1      16.484  11.755   4.878  0.00  0.00    +0.000 A 
ENDROOT
BRANCH   1   8
ATOM      7  C   UNL     1      19.655  12.433   3.502  0.00  0.00    +0.000 C 
ATOM      8  O   UNL     1      18.539  11.594   3.776  0.00  0.00    +0.000 OA
ENDBRANCH   1   8
BRANCH   6   9
ATOM      9  O   UNL     1      15.874  11.484   3.682  0.00  0.00    +0.000 OA
ATOM     10  H   UNL     1      15.763  10.514   3.675  0.00  0.00    +0.000 HD
ENDBRANCH   6   9
TORSDOF 2
ENDMDL
MODEL 8
REMARK VINA RESULT:    -3.633      1.819      3.712
REMARK INTER + INTRA:          -3.990
REMARK INTER:                  -3.941
REMARK INTRA:                  -0.048
REMARK UNBOUND:                -0.038
REMARK  Name = 
REMARK  3 active torsions:
REMARK  status: ('A' for Active; 'I' for Inactive)
REMARK    1  A    between atoms: C_1  and  O_2
REMARK    2  A    between atoms: O_2  and  C_3
REMARK    3  A    between atoms: C_8  and  O_9
REMARK                            x       y       z     vdW  Elec       q    Type
REMARK                         _______ _______ _______ _____ _____    ______ ____
ROOT
ATOM      1  C   UNL     1      16.401  11.018   7.216  0.00  0.00    +0.000 A 
ATOM      2  C   UNL     1      17.619  10.340   7.198  0.00  0.00    +0.000 A 
ATOM      3  C   UNL     1      18.389  10.314   6.028  0.00  0.00    +0.000 A 
ATOM      4  C   UNL     1      17.945  10.963   4.875  0.00  0.00    +0.000 A 
ATOM      5  C   UNL     1      16.729  11.642   4.884  0.00  0.00    +0.000 A 
ATOM      6  C   UNL     1      15.972  11.663   6.049  0.00  0.00    +0.000 A 
ENDROOT
BRANCH   1   8
ATOM      7  C   UNL     1      15.216   9.915   8.956  0.00  0.00    +0.000 C 
ATOM      8  O   UNL     1      15.547  11.125   8.284  0.00  0.00    +0.000 OA
ENDBRANCH   1   8
BRANCH   6   9
ATOM      9  O   UNL     1      14.781  12.337   6.034  0.00  0.00    +0.000 OA
ATOM     10  H   UNL     1      14.952  13.156   6.537  0.00  0.00    +0.000 HD
ENDBRANCH   6   9
TORSDOF 2
ENDMDL
MODEL 9
REMARK VINA RESULT:    -3.571     13.928     14.385
REMARK INTER + INTRA:          -3.922
REMARK INTER:                  -3.874
REMARK INTRA:                  -0.048
REMARK UNBOUND:                -0.038
REMARK  Name = 
REMARK  3 active torsions:
REMARK  status: ('A' for Active; 'I' for Inactive)
REMARK    1  A    between atoms: C_1  and  O_2
REMARK    2  A    between atoms: O_2  and  C_3
REMARK    3  A    between atoms: C_8  and  O_9
REMARK                            x       y       z     vdW  Elec       q    Type
REMARK                         _______ _______ _______ _____ _____    ______ ____
ROOT
ATOM      1  C   UNL     1      17.115   2.104  -2.586  0.00  0.00    +0.000 A 
ATOM      2  C   UNL     1      17.786   2.821  -1.597  0.00  0.00    +0.000 A 
ATOM      3  C   UNL     1      19.178   2.962  -1.658  0.00  0.00    +0.000 A 
ATOM      4  C   UNL     1      19.902   2.388  -2.704  0.00  0.00    +0.000 A 
ATOM      5  C   UNL     1      19.239   1.670  -3.697  0.00  0.00    +0.000 A 
ATOM      6  C   UNL     1      17.858   1.535  -3.628  0.00  0.00    +0.000 A 
ENDROOT
BRANCH   1   8
ATOM      7  C   UNL     1      14.955   3.002  -3.008  0.00  0.00    +0.000 C 
ATOM      8  O   UNL     1      15.762   1.885  -2.652  0.00  0.00    +0.000 OA
ENDBRANCH   1   8
BRANCH   6   9
ATOM      9  O   UNL     1      17.228   0.825  -4.615  0.00  0.00    +0.000 OA
ATOM     10  H   UNL     1      17.596  -0.076  -4.546  0.00  0.00    +0.000 HD
ENDBRANCH   6   9
TORSDOF 2
ENDMDL
