MODEL 1
REMARK VINA RESULT:    -1.999      0.000      0.000
REMARK INTER + INTRA:          -2.033
REMARK INTER:                  -2.700
REMARK INTRA:                   0.668
REMARK UNBOUND:                 0.668
REMARK  Name = 
REMARK  10 active torsions:
REMARK  status: ('A' for Active; 'I' for Inactive)
REMARK    1  A    between atoms: C_1  and  C_2
REMARK    2  A    between atoms: C_5  and  N_8
REMARK    3  A    between atoms: N_8  and  C_9
REMARK    4  A    between atoms: N_8  and  C_13
REMARK    5  A    between atoms: C_9  and  C_10
REMARK    6  A    between atoms: C_10  and  C_11
REMARK    7  A    between atoms: C_10  and  O_12
REMARK    8  A    between atoms: C_13  and  C_14
REMARK    9  A    between atoms: C_14  and  C_15
REMARK   10  A    between atoms: C_14  and  O_16
REMARK                            x       y       z     vdW  Elec       q    Type
REMARK                         _______ _______ _______ _____ _____    ______ ____
ROOT
ATOM      1  N   UNL     1       6.578   6.466   3.439  0.00  0.00    +0.000 N 
ENDROOT
BRANCH   1   6
ATOM      2  C   UNL     1      10.310   2.696   5.715  0.00  0.00    +0.000 C 
ATOM      3  C   UNL     1       9.343   3.662   5.103  0.00  0.00    +0.000 A 
ATOM      4  C   UNL     1       9.789   4.819   4.474  0.00  0.00    +0.000 A 
ATOM      5  C   UNL     1       8.876   5.736   3.929  0.00  0.00    +0.000 A 
ATOM      6  C   UNL     1       7.483   5.558   4.002  0.00  0.00    +0.000 A 
ATOM      7  C   UNL     1       7.067   4.376   4.643  0.00  0.00    +0.000 A 
ATOM      8  C   UNL     1       7.970   3.450   5.191  0.00  0.00    +0.000 A 
ENDBRANCH   1   6
BRANCH   1   9
ATOM      9  C   UNL     1       6.161   7.669   4.200  0.00  0.00    +0.000 C 
BRANCH   9  10
ATOM     10  C   UNL     1       7.344   8.613   4.526  0.00  0.00    +0.000 C 
ATOM     11  C   UNL     1       7.581   9.602   3.391  0.00  0.00    +0.000 C 
BRANCH  10  12
ATOM     12  O   UNL     1       7.089   9.363   5.722  0.00  0.00    +0.000 OA
ATOM     13  H   UNL     1       6.933   8.732   6.445  0.00  0.00    +0.000 HD
ENDBRANCH  10  12
ENDBRANCH   9  10
ENDBRANCH   1   9
BRANCH   1  14
ATOM     14  C   UNL     1       5.641   6.052   2.363  0.00  0.00    +0.000 C 
BRANCH  14  15
ATOM     15  C   UNL     1       6.073   4.726   1.691  0.00  0.00    +0.000 C 
ATOM     16  C   UNL     1       5.407   3.499   2.303  0.00  0.00    +0.000 C 
BRANCH  15  17
ATOM     17  O   UNL     1       5.794   4.729   0.292  0.00  0.00    +0.000 OA
ATOM     18  H   UNL     1       6.670   4.680  -0.141  0.00  0.00    +0.000 HD
ENDBRANCH  15  17
ENDBRANCH  14  15
ENDBRANCH   1  14
TORSDOF 7
ENDMDL
MODEL 2
REMARK VINA RESULT:    -1.941      0.818      3.798
REMARK INTER + INTRA:          -1.954
REMARK INTER:                  -2.557
REMARK INTRA:                   0.603
REMARK UNBOUND:                 0.668
REMARK  Name = 
REMARK  10 active torsions:
REMARK  status: ('A' for Active; 'I' for Inactive)
REMARK    1  A    between atoms: C_1  and  C_2
REMARK    2  A    between atoms: C_5  and  N_8
REMARK    3  A    between atoms: N_8  and  C_9
REMARK    4  A    between atoms: N_8  and  C_13
REMARK    5  A    between atoms: C_9  and  C_10
REMARK    6  A    between atoms: C_10  and  C_11
REMARK    7  A    between atoms: C_10  and  O_12
REMARK    8  A    between atoms: C_13  and  C_14
REMARK    9  A    between atoms: C_14  and  C_15
REMARK   10  A    between atoms: C_14  and  O_16
REMARK                            x       y       z     vdW  Elec       q    Type
REMARK                         _______ _______ _______ _____ _____    ______ ____
ROOT
ATOM      1  N   UNL     1       6.498   6.308   3.518  0.00  0.00    +0.000 N 
ENDROOT
BRANCH   1   6
ATOM      2  C   UNL     1      10.367   2.641   5.733  0.00  0.00    +0.000 C 
ATOM      3  C   UNL     1       9.365   3.581   5.136  0.00  0.00    +0.000 A 
ATOM      4  C   UNL     1       9.762   4.803   4.602  0.00  0.00    +0.000 A 
ATOM      5  C   UNL     1       8.815   5.693   4.071  0.00  0.00    +0.000 A 
ATOM      6  C   UNL     1       7.435   5.423   4.067  0.00  0.00    +0.000 A 
ATOM      7  C   UNL     1       7.070   4.179   4.612  0.00  0.00    +0.000 A 
ATOM      8  C   UNL     1       8.007   3.278   5.145  0.00  0.00    +0.000 A 
ENDBRANCH   1   6
BRANCH   1   9
ATOM      9  C   UNL     1       6.318   6.382   2.048  0.00  0.00    +0.000 C 
BRANCH   9  10
ATOM     10  C   UNL     1       5.375   5.282   1.502  0.00  0.00    +0.000 C 
ATOM     11  C   UNL     1       5.860   4.768   0.152  0.00  0.00    +0.000 C 
BRANCH  10  12
ATOM     12  O   UNL     1       5.308   4.168   2.403  0.00  0.00    +0.000 OA
ATOM     13  H   UNL     1       5.477   3.358   1.894  0.00  0.00    +0.000 HD
ENDBRANCH  10  12
ENDBRANCH   9  10
ENDBRANCH   1   9
BRANCH   1  14
ATOM     14  C   UNL     1       6.047   7.511   4.263  0.00  0.00    +0.000 C 
BRANCH  14  15
ATOM     15  C   UNL     1       7.197   8.522   4.490  0.00  0.00    +0.000 C 
ATOM     16  C   UNL     1       7.305   9.565   3.384  0.00  0.00    +0.000 C 
BRANCH  15  17
ATOM     17  O   UNL     1       7.057   9.209   5.733  0.00  0.00    +0.000 OA
ATOM     18  H   UNL     1       7.739   8.818   6.316  0.00  0.00    +0.000 HD
ENDBRANCH  15  17
ENDBRANCH  14  15
ENDBRANCH   1  14
TORSDOF 7
ENDMDL
MODEL 3
REMARK VINA RESULT:     0.351      2.438      4.755
REMARK INTER + INTRA:           1.142
REMARK INTER:                   1.520
REMARK INTRA:                  -0.378
REMARK UNBOUND:                 0.668
REMARK  Name = 
REMARK  10 active torsions:
REMARK  status: ('A' for Active; 'I' for Inactive)
REMARK    1  A    between atoms: C_1  and  C_2
REMARK    2  A    between atoms: C_5  and  N_8
REMARK    3  A    between atoms: N_8  and  C_9
REMARK    4  A    between atoms: N_8  and  C_13
REMARK    5  A    between atoms: C_9  and  C_10
REMARK    6  A    between atoms: C_10  and  C_11
REMARK    7  A    between atoms: C_10  and  O_12
REMARK    8  A    between atoms: C_13  and  C_14
REMARK    9  A    between atoms: C_14  and  C_15
REMARK   10  A    between atoms: C_14  and  O_16
REMARK                            x       y       z     vdW  Elec       q    Type
REMARK                         _______ _______ _______ _____ _____    ______ ____
ROOT
ATOM      1  N   UNL     1       8.200   5.488   4.806  0.00  0.00    +0.000 N 
ENDROOT
BRANCH   1   6
ATOM      2  C   UNL     1       4.142   7.009   0.992  0.00  0.00    +0.000 C 
ATOM      3  C   UNL     1       5.177   6.607   1.998  0.00  0.00    +0.000 A 
ATOM      4  C   UNL     1       5.657   7.518   2.932  0.00  0.00    +0.000 A 
ATOM      5  C   UNL     1       6.650   7.144   3.853  0.00  0.00    +0.000 A 
ATOM      6  C   UNL     1       7.225   5.860   3.872  0.00  0.00    +0.000 A 
ATOM      7  C   UNL     1       6.714   4.965   2.915  0.00  0.00    +0.000 A 
ATOM      8  C   UNL     1       5.720   5.325   1.990  0.00  0.00    +0.000 A 
ENDBRANCH   1   6
BRANCH   1   9
ATOM      9  C   UNL     1       9.489   6.219   4.866  0.00  0.00    +0.000 C 
BRANCH   9  10
ATOM     10  C   UNL     1      10.080   6.510   3.465  0.00  0.00    +0.000 C 
ATOM     11  C   UNL     1      10.781   7.863   3.440  0.00  0.00    +0.000 C 
BRANCH  10  12
ATOM     12  O   UNL     1      11.034   5.507   3.091  0.00  0.00    +0.000 OA
ATOM     13  H   UNL     1      11.607   5.879   2.399  0.00  0.00    +0.000 HD
ENDBRANCH  10  12
ENDBRANCH   9  10
ENDBRANCH   1   9
BRANCH   1  14
ATOM     14  C   UNL     1       8.232   4.119   5.380  0.00  0.00    +0.000 C 
BRANCH  14  15
ATOM     15  C   UNL     1       9.326   3.238   4.731  0.00  0.00    +0.000 C 
ATOM     16  C   UNL     1      10.351   2.720   5.733  0.00  0.00    +0.000 C 
BRANCH  15  17
ATOM     17  O   UNL     1       8.765   2.115   4.052  0.00  0.00    +0.000 OA
ATOM     18  H   UNL     1       9.436   1.861   3.387  0.00  0.00    +0.000 HD
ENDBRANCH  15  17
ENDBRANCH  14  15
ENDBRANCH   1  14
TORSDOF 7
ENDMDL
