MODEL 1
REMARK VINA RESULT:    -1.919      0.000      0.000
REMARK INTER + INTRA:          -2.238
REMARK INTER:                  -2.592
REMARK INTRA:                   0.354
REMARK UNBOUND:                 0.354
REMARK  Name = 
REMARK  10 active torsions:
REMARK  status: ('A' for Active; 'I' for Inactive)
REMARK    1  A    between atoms: C_1  and  C_2
REMARK    2  A    between atoms: C_5  and  N_8
REMARK    3  A    between atoms: N_8  and  C_9
REMARK    4  A    between atoms: N_8  and  C_13
REMARK    5  A    between atoms: C_9  and  C_10
REMARK    6  A    between atoms: C_10  and  C_11
REMARK    7  A    between atoms: C_10  and  O_12
REMARK    8  A    between atoms: C_13  and  C_14
REMARK    9  A    between atoms: C_14  and  C_15
REMARK   10  A    between atoms: C_14  and  O_16
REMARK                            x       y       z     vdW  Elec       q    Type
REMARK                         _______ _______ _______ _____ _____    ______ ____
ROOT
ATOM      1  N   UNL     1      19.367   8.644  -0.229  0.00  0.00    +0.000 N 
ENDROOT
BRANCH   1   6
ATOM      2  C   UNL     1      17.477   9.404  -5.630  0.00  0.00    +0.000 C 
ATOM      3  C   UNL     1      17.977   9.230  -4.229  0.00  0.00    +0.000 A 
ATOM      4  C   UNL     1      19.223   8.663  -3.981  0.00  0.00    +0.000 A 
ATOM      5  C   UNL     1      19.674   8.475  -2.664  0.00  0.00    +0.000 A 
ATOM      6  C   UNL     1      18.903   8.817  -1.539  0.00  0.00    +0.000 A 
ATOM      7  C   UNL     1      17.651   9.390  -1.827  0.00  0.00    +0.000 A 
ATOM      8  C   UNL     1      17.188   9.586  -3.139  0.00  0.00    +0.000 A 
ENDBRANCH   1   6
BRANCH   1   9
ATOM      9  C   UNL     1      18.997   9.619   0.826  0.00  0.00    +0.000 C 
BRANCH   9  10
ATOM     10  C   UNL     1      17.921   9.073   1.796  0.00  0.00    +0.000 C 
ATOM     11  C   UNL     1      18.254   9.433   3.239  0.00  0.00    +0.000 C 
BRANCH  10  12
ATOM     12  O   UNL     1      16.629   9.615   1.490  0.00  0.00    +0.000 OA
ATOM     13  H   UNL     1      15.957   8.981   1.790  0.00  0.00    +0.000 HD
ENDBRANCH  10  12
ENDBRANCH   9  10
ENDBRANCH   1   9
BRANCH   1  14
ATOM     14  C   UNL     1      20.592   7.853   0.055  0.00  0.00    +0.000 C 
BRANCH  14  15
ATOM     15  C   UNL     1      20.354   6.778   1.142  0.00  0.00    +0.000 C 
ATOM     16  C   UNL     1      20.936   7.158   2.499  0.00  0.00    +0.000 C 
BRANCH  15  17
ATOM     17  O   UNL     1      18.965   6.505   1.319  0.00  0.00    +0.000 OA
ATOM     18  H   UNL     1      18.620   7.267   1.827  0.00  0.00    +0.000 HD
ENDBRANCH  15  17
ENDBRANCH  14  15
ENDBRANCH   1  14
TORSDOF 7
ENDMDL
MODEL 2
REMARK VINA RESULT:    -1.712     11.879     13.479
REMARK INTER + INTRA:          -1.958
REMARK INTER:                  -2.694
REMARK INTRA:                   0.736
REMARK UNBOUND:                 0.354
REMARK  Name = 
REMARK  10 active torsions:
REMARK  status: ('A' for Active; 'I' for Inactive)
REMARK    1  A    between atoms: C_1  and  C_2
REMARK    2  A    between atoms: C_5  and  N_8
REMARK    3  A    between atoms: N_8  and  C_9
REMARK    4  A    between atoms: N_8  and  C_13
REMARK    5  A    between atoms: C_9  and  C_10
REMARK    6  A    between atoms: C_10  and  C_11
REMARK    7  A    between atoms: C_10  and  O_12
REMARK    8  A    between atoms: C_13  and  C_14
REMARK    9  A    between atoms: C_14  and  C_15
REMARK   10  A    between atoms: C_14  and  O_16
REMARK                            x       y       z     vdW  Elec       q    Type
REMARK                         _______ _______ _______ _____ _____    ______ ____
ROOT
ATOM      1  N   UNL     1       6.453   6.471   3.381  0.00  0.00    +0.000 N 
ENDROOT
BRANCH   1   6
ATOM      2  C   UNL     1      10.210   2.772   5.733  0.00  0.00    +0.000 C 
ATOM      3  C   UNL     1       9.237   3.719   5.101  0.00  0.00    +0.000 A 
ATOM      4  C   UNL     1       9.674   4.887   4.486  0.00  0.00    +0.000 A 
ATOM      5  C   UNL     1       8.754   5.787   3.922  0.00  0.00    +0.000 A 
ATOM      6  C   UNL     1       7.363   5.580   3.963  0.00  0.00    +0.000 A 
ATOM      7  C   UNL     1       6.958   4.388   4.591  0.00  0.00    +0.000 A 
ATOM      8  C   UNL     1       7.867   3.479   5.158  0.00  0.00    +0.000 A 
ENDBRANCH   1   6
BRANCH   1   9
ATOM      9  C   UNL     1       6.103   7.734   4.075  0.00  0.00    +0.000 C 
BRANCH   9  10
ATOM     10  C   UNL     1       7.348   8.545   4.511  0.00  0.00    +0.000 C 
ATOM     11  C   UNL     1       7.771   9.521   3.420  0.00  0.00    +0.000 C 
BRANCH  10  12
ATOM     12  O   UNL     1       7.080   9.298   5.702  0.00  0.00    +0.000 OA
ATOM     13  H   UNL     1       7.572   8.890   6.433  0.00  0.00    +0.000 HD
ENDBRANCH  10  12
ENDBRANCH   9  10
ENDBRANCH   1   9
BRANCH   1  14
ATOM     14  C   UNL     1       5.454   6.008   2.384  0.00  0.00    +0.000 C 
BRANCH  14  15
ATOM     15  C   UNL     1       5.933   4.751   1.618  0.00  0.00    +0.000 C 
ATOM     16  C   UNL     1       5.386   3.452   2.197  0.00  0.00    +0.000 C 
BRANCH  15  17
ATOM     17  O   UNL     1       5.572   4.806   0.239  0.00  0.00    +0.000 OA
ATOM     18  H   UNL     1       6.313   4.375  -0.234  0.00  0.00    +0.000 HD
ENDBRANCH  15  17
ENDBRANCH  14  15
ENDBRANCH   1  14
TORSDOF 7
ENDMDL
