MODEL 1
REMARK VINA RESULT:    -1.804      0.000      0.000
REMARK INTER + INTRA:          -1.892
REMARK INTER:                  -2.437
REMARK INTRA:                   0.545
REMARK UNBOUND:                 0.545
REMARK  Name = 
REMARK  10 active torsions:
REMARK  status: ('A' for Active; 'I' for Inactive)
REMARK    1  A    between atoms: C_1  and  C_2
REMARK    2  A    between atoms: C_5  and  N_8
REMARK    3  A    between atoms: N_8  and  C_9
REMARK    4  A    between atoms: N_8  and  C_13
REMARK    5  A    between atoms: C_9  and  C_10
REMARK    6  A    between atoms: C_10  and  C_11
REMARK    7  A    between atoms: C_10  and  O_12
REMARK    8  A    between atoms: C_13  and  C_14
REMARK    9  A    between atoms: C_14  and  C_15
REMARK   10  A    between atoms: C_14  and  O_16
REMARK                            x       y       z     vdW  Elec       q    Type
REMARK                         _______ _______ _______ _____ _____    ______ ____
ROOT
ATOM      1  N   UNL     1       6.492   6.562   3.225  0.00  0.00    +0.000 N 
ENDROOT
BRANCH   1   6
ATOM      2  C   UNL     1      10.208   2.915   5.719  0.00  0.00    +0.000 C 
ATOM      3  C   UNL     1       9.244   3.848   5.051  0.00  0.00    +0.000 A 
ATOM      4  C   UNL     1       9.696   4.972   4.368  0.00  0.00    +0.000 A 
ATOM      5  C   UNL     1       8.786   5.859   3.769  0.00  0.00    +0.000 A 
ATOM      6  C   UNL     1       7.393   5.684   3.841  0.00  0.00    +0.000 A 
ATOM      7  C   UNL     1       6.972   4.536   4.537  0.00  0.00    +0.000 A 
ATOM      8  C   UNL     1       7.871   3.640   5.139  0.00  0.00    +0.000 A 
ENDBRANCH   1   6
BRANCH   1   9
ATOM      9  C   UNL     1       6.149   7.851   3.873  0.00  0.00    +0.000 C 
BRANCH   9  10
ATOM     10  C   UNL     1       7.381   8.562   4.484  0.00  0.00    +0.000 C 
ATOM     11  C   UNL     1       7.928   9.620   3.533  0.00  0.00    +0.000 C 
BRANCH  10  12
ATOM     12  O   UNL     1       7.043   9.208   5.720  0.00  0.00    +0.000 OA
ATOM     13  H   UNL     1       6.281   8.743   6.104  0.00  0.00    +0.000 HD
ENDBRANCH  10  12
ENDBRANCH   9  10
ENDBRANCH   1   9
BRANCH   1  14
ATOM     14  C   UNL     1       5.493   6.074   2.240  0.00  0.00    +0.000 C 
BRANCH  14  15
ATOM     15  C   UNL     1       5.949   4.769   1.543  0.00  0.00    +0.000 C 
ATOM     16  C   UNL     1       5.281   3.522   2.109  0.00  0.00    +0.000 C 
BRANCH  15  17
ATOM     17  O   UNL     1       5.699   4.806   0.139  0.00  0.00    +0.000 OA
ATOM     18  H   UNL     1       4.726   4.744   0.054  0.00  0.00    +0.000 HD
ENDBRANCH  15  17
ENDBRANCH  14  15
ENDBRANCH   1  14
TORSDOF 7
ENDMDL
MODEL 2
REMARK VINA RESULT:    -1.768      0.980      3.804
REMARK INTER + INTRA:          -1.843
REMARK INTER:                  -2.535
REMARK INTRA:                   0.692
REMARK UNBOUND:                 0.545
REMARK  Name = 
REMARK  10 active torsions:
REMARK  status: ('A' for Active; 'I' for Inactive)
REMARK    1  A    between atoms: C_1  and  C_2
REMARK    2  A    between atoms: C_5  and  N_8
REMARK    3  A    between atoms: N_8  and  C_9
REMARK    4  A    between atoms: N_8  and  C_13
REMARK    5  A    between atoms: C_9  and  C_10
REMARK    6  A    between atoms: C_10  and  C_11
REMARK    7  A    between atoms: C_10  and  O_12
REMARK    8  A    between atoms: C_13  and  C_14
REMARK    9  A    between atoms: C_14  and  C_15
REMARK   10  A    between atoms: C_14  and  O_16
REMARK                            x       y       z     vdW  Elec       q    Type
REMARK                         _______ _______ _______ _____ _____    ______ ____
ROOT
ATOM      1  N   UNL     1       6.577   6.145   3.696  0.00  0.00    +0.000 N 
ENDROOT
BRANCH   1   6
ATOM      2  C   UNL     1      10.442   2.372   5.733  0.00  0.00    +0.000 C 
ATOM      3  C   UNL     1       9.443   3.342   5.181  0.00  0.00    +0.000 A 
ATOM      4  C   UNL     1       9.827   4.623   4.799  0.00  0.00    +0.000 A 
ATOM      5  C   UNL     1       8.881   5.539   4.310  0.00  0.00    +0.000 A 
ATOM      6  C   UNL     1       7.512   5.233   4.202  0.00  0.00    +0.000 A 
ATOM      7  C   UNL     1       7.160   3.929   4.595  0.00  0.00    +0.000 A 
ATOM      8  C   UNL     1       8.097   3.003   5.083  0.00  0.00    +0.000 A 
ENDBRANCH   1   6
BRANCH   1   9
ATOM      9  C   UNL     1       6.401   6.294   2.231  0.00  0.00    +0.000 C 
BRANCH   9  10
ATOM     10  C   UNL     1       5.426   5.250   1.634  0.00  0.00    +0.000 C 
ATOM     11  C   UNL     1       5.925   4.748   0.283  0.00  0.00    +0.000 C 
BRANCH  10  12
ATOM     12  O   UNL     1       5.287   4.118   2.504  0.00  0.00    +0.000 OA
ATOM     13  H   UNL     1       4.649   4.349   3.199  0.00  0.00    +0.000 HD
ENDBRANCH  10  12
ENDBRANCH   9  10
ENDBRANCH   1   9
BRANCH   1  14
ATOM     14  C   UNL     1       6.124   7.308   4.500  0.00  0.00    +0.000 C 
BRANCH  14  15
ATOM     15  C   UNL     1       7.185   8.434   4.549  0.00  0.00    +0.000 C 
ATOM     16  C   UNL     1       7.118   9.373   3.350  0.00  0.00    +0.000 C 
BRANCH  15  17
ATOM     17  O   UNL     1       7.066   9.220   5.733  0.00  0.00    +0.000 OA
ATOM     18  H   UNL     1       6.356   9.865   5.538  0.00  0.00    +0.000 HD
ENDBRANCH  15  17
ENDBRANCH  14  15
ENDBRANCH   1  14
TORSDOF 7
ENDMDL
MODEL 3
REMARK VINA RESULT:    -1.190     11.838     13.551
REMARK INTER + INTRA:          -1.062
REMARK INTER:                  -2.210
REMARK INTRA:                   1.147
REMARK UNBOUND:                 0.545
REMARK  Name = 
REMARK  10 active torsions:
REMARK  status: ('A' for Active; 'I' for Inactive)
REMARK    1  A    between atoms: C_1  and  C_2
REMARK    2  A    between atoms: C_5  and  N_8
REMARK    3  A    between atoms: N_8  and  C_9
REMARK    4  A    between atoms: N_8  and  C_13
REMARK    5  A    between atoms: C_9  and  C_10
REMARK    6  A    between atoms: C_10  and  C_11
REMARK    7  A    between atoms: C_10  and  O_12
REMARK    8  A    between atoms: C_13  and  C_14
REMARK    9  A    between atoms: C_14  and  C_15
REMARK   10  A    between atoms: C_14  and  O_16
REMARK                            x       y       z     vdW  Elec       q    Type
REMARK                         _______ _______ _______ _____ _____    ______ ____
ROOT
ATOM      1  N   UNL     1      19.845   8.977   0.554  0.00  0.00    +0.000 N 
ENDROOT
BRANCH   1   6
ATOM      2  C   UNL     1      18.281   9.181  -5.000  0.00  0.00    +0.000 C 
ATOM      3  C   UNL     1      18.692   9.153  -3.559  0.00  0.00    +0.000 A 
ATOM      4  C   UNL     1      20.002   8.857  -3.196  0.00  0.00    +0.000 A 
ATOM      5  C   UNL     1      20.374   8.802  -1.843  0.00  0.00    +0.000 A 
ATOM      6  C   UNL     1      19.463   9.014  -0.793  0.00  0.00    +0.000 A 
ATOM      7  C   UNL     1      18.148   9.312  -1.197  0.00  0.00    +0.000 A 
ATOM      8  C   UNL     1      17.763   9.372  -2.547  0.00  0.00    +0.000 A 
ENDBRANCH   1   6
BRANCH   1   9
ATOM      9  C   UNL     1      20.755   7.911   1.039  0.00  0.00    +0.000 C 
BRANCH   9  10
ATOM     10  C   UNL     1      20.285   7.283   2.374  0.00  0.00    +0.000 C 
ATOM     11  C   UNL     1      20.574   5.787   2.403  0.00  0.00    +0.000 C 
BRANCH  10  12
ATOM     12  O   UNL     1      20.953   7.886   3.490  0.00  0.00    +0.000 OA
ATOM     13  H   UNL     1      20.816   7.318   4.266  0.00  0.00    +0.000 HD
ENDBRANCH  10  12
ENDBRANCH   9  10
ENDBRANCH   1   9
BRANCH   1  14
ATOM     14  C   UNL     1      19.016   9.617   1.607  0.00  0.00    +0.000 C 
BRANCH  14  15
ATOM     15  C   UNL     1      17.646   8.918   1.777  0.00  0.00    +0.000 C 
ATOM     16  C   UNL     1      17.215   8.790   3.233  0.00  0.00    +0.000 C 
BRANCH  15  17
ATOM     17  O   UNL     1      16.613   9.603   1.070  0.00  0.00    +0.000 OA
ATOM     18  H   UNL     1      16.290  10.285   1.692  0.00  0.00    +0.000 HD
ENDBRANCH  15  17
ENDBRANCH  14  15
ENDBRANCH   1  14
TORSDOF 7
ENDMDL
MODEL 4
REMARK VINA RESULT:    -0.742     12.230     14.129
REMARK INTER + INTRA:          -0.458
REMARK INTER:                  -1.803
REMARK INTRA:                   1.345
REMARK UNBOUND:                 0.545
REMARK  Name = 
REMARK  10 active torsions:
REMARK  status: ('A' for Active; 'I' for Inactive)
REMARK    1  A    between atoms: C_1  and  C_2
REMARK    2  A    between atoms: C_5  and  N_8
REMARK    3  A    between atoms: N_8  and  C_9
REMARK    4  A    between atoms: N_8  and  C_13
REMARK    5  A    between atoms: C_9  and  C_10
REMARK    6  A    between atoms: C_10  and  C_11
REMARK    7  A    between atoms: C_10  and  O_12
REMARK    8  A    between atoms: C_13  and  C_14
REMARK    9  A    between atoms: C_14  and  C_15
REMARK   10  A    between atoms: C_14  and  O_16
REMARK                            x       y       z     vdW  Elec       q    Type
REMARK                         _______ _______ _______ _____ _____    ______ ____
ROOT
ATOM      1  N   UNL     1      20.339   7.881   0.943  0.00  0.00    +0.000 N 
ENDROOT
BRANCH   1   6
ATOM      2  C   UNL     1      19.122   9.176  -4.550  0.00  0.00    +0.000 C 
ATOM      3  C   UNL     1      19.451   8.820  -3.132  0.00  0.00    +0.000 A 
ATOM      4  C   UNL     1      18.596   8.021  -2.380  0.00  0.00    +0.000 A 
ATOM      5  C   UNL     1      18.894   7.715  -1.042  0.00  0.00    +0.000 A 
ATOM      6  C   UNL     1      20.038   8.206  -0.385  0.00  0.00    +0.000 A 
ATOM      7  C   UNL     1      20.880   9.009  -1.177  0.00  0.00    +0.000 A 
ATOM      8  C   UNL     1      20.594   9.320  -2.516  0.00  0.00    +0.000 A 
ENDBRANCH   1   6
BRANCH   1   9
ATOM      9  C   UNL     1      19.931   6.568   1.498  0.00  0.00    +0.000 C 
BRANCH   9  10
ATOM     10  C   UNL     1      20.946   6.010   2.526  0.00  0.00    +0.000 C 
ATOM     11  C   UNL     1      20.861   6.770   3.844  0.00  0.00    +0.000 C 
BRANCH  10  12
ATOM     12  O   UNL     1      20.695   4.623   2.796  0.00  0.00    +0.000 OA
ATOM     13  H   UNL     1      19.740   4.512   2.935  0.00  0.00    +0.000 HD
ENDBRANCH  10  12
ENDBRANCH   9  10
ENDBRANCH   1   9
BRANCH   1  14
ATOM     14  C   UNL     1      20.582   8.939   1.957  0.00  0.00    +0.000 C 
BRANCH  14  15
ATOM     15  C   UNL     1      19.271   9.620   2.417  0.00  0.00    +0.000 C 
ATOM     16  C   UNL     1      18.026   9.025   1.769  0.00  0.00    +0.000 C 
BRANCH  15  17
ATOM     17  O   UNL     1      19.108   9.548   3.833  0.00  0.00    +0.000 OA
ATOM     18  H   UNL     1      19.120  10.478   4.136  0.00  0.00    +0.000 HD
ENDBRANCH  15  17
ENDBRANCH  14  15
ENDBRANCH   1  14
TORSDOF 7
ENDMDL
MODEL 5
REMARK VINA RESULT:     0.416      2.510      4.764
REMARK INTER + INTRA:           1.107
REMARK INTER:                   1.441
REMARK INTRA:                  -0.334
REMARK UNBOUND:                 0.545
REMARK  Name = 
REMARK  10 active torsions:
REMARK  status: ('A' for Active; 'I' for Inactive)
REMARK    1  A    between atoms: C_1  and  C_2
REMARK    2  A    between atoms: C_5  and  N_8
REMARK    3  A    between atoms: N_8  and  C_9
REMARK    4  A    between atoms: N_8  and  C_13
REMARK    5  A    between atoms: C_9  and  C_10
REMARK    6  A    between atoms: C_10  and  C_11
REMARK    7  A    between atoms: C_10  and  O_12
REMARK    8  A    between atoms: C_13  and  C_14
REMARK    9  A    between atoms: C_14  and  C_15
REMARK   10  A    between atoms: C_14  and  O_16
REMARK                            x       y       z     vdW  Elec       q    Type
REMARK                         _______ _______ _______ _____ _____    ______ ____
ROOT
ATOM      1  N   UNL     1       8.188   5.368   4.778  0.00  0.00    +0.000 N 
ENDROOT
BRANCH   1   6
ATOM      2  C   UNL     1       4.166   7.013   0.978  0.00  0.00    +0.000 C 
ATOM      3  C   UNL     1       5.191   6.578   1.979  0.00  0.00    +0.000 A 
ATOM      4  C   UNL     1       5.673   7.463   2.938  0.00  0.00    +0.000 A 
ATOM      5  C   UNL     1       6.657   7.058   3.856  0.00  0.00    +0.000 A 
ATOM      6  C   UNL     1       7.222   5.770   3.848  0.00  0.00    +0.000 A 
ATOM      7  C   UNL     1       6.710   4.902   2.866  0.00  0.00    +0.000 A 
ATOM      8  C   UNL     1       5.724   5.293   1.944  0.00  0.00    +0.000 A 
ENDBRANCH   1   6
BRANCH   1   9
ATOM      9  C   UNL     1       9.479   6.092   4.869  0.00  0.00    +0.000 C 
BRANCH   9  10
ATOM     10  C   UNL     1      10.091   6.405   3.482  0.00  0.00    +0.000 C 
ATOM     11  C   UNL     1      10.780   7.765   3.485  0.00  0.00    +0.000 C 
BRANCH  10  12
ATOM     12  O   UNL     1      11.061   5.416   3.112  0.00  0.00    +0.000 OA
ATOM     13  H   UNL     1      10.604   4.718   2.613  0.00  0.00    +0.000 HD
ENDBRANCH  10  12
ENDBRANCH   9  10
ENDBRANCH   1   9
BRANCH   1  14
ATOM     14  C   UNL     1       8.210   3.982   5.313  0.00  0.00    +0.000 C 
BRANCH  14  15
ATOM     15  C   UNL     1       9.359   3.140   4.707  0.00  0.00    +0.000 C 
ATOM     16  C   UNL     1      10.411   2.735   5.733  0.00  0.00    +0.000 C 
BRANCH  15  17
ATOM     17  O   UNL     1       8.871   1.954   4.083  0.00  0.00    +0.000 OA
ATOM     18  H   UNL     1       7.900   1.987   4.201  0.00  0.00    +0.000 HD
ENDBRANCH  15  17
ENDBRANCH  14  15
ENDBRANCH   1  14
TORSDOF 7
ENDMDL
