MODEL 1
REMARK VINA RESULT:    -3.479      0.000      0.000
REMARK INTER + INTRA:          -3.822
REMARK INTER:                  -3.785
REMARK INTRA:                  -0.037
REMARK UNBOUND:                -0.037
REMARK  Name = 
REMARK  3 active torsions:
REMARK  status: ('A' for Active; 'I' for Inactive)
REMARK    1  A    between atoms: C_1  and  O_2
REMARK    2  A    between atoms: O_2  and  C_3
REMARK    3  A    between atoms: C_8  and  O_9
REMARK                            x       y       z     vdW  Elec       q    Type
REMARK                         _______ _______ _______ _____ _____    ______ ____
ROOT
ATOM      1  C   UNL     1       6.725   5.555   3.452  0.00  0.00    +0.000 A 
ATOM      2  C   UNL     1       7.153   4.262   3.751  0.00  0.00    +0.000 A 
ATOM      3  C   UNL     1       7.934   4.029   4.891  0.00  0.00    +0.000 A 
ATOM      4  C   UNL     1       8.289   5.084   5.733  0.00  0.00    +0.000 A 
ATOM      5  C   UNL     1       7.866   6.379   5.441  0.00  0.00    +0.000 A 
ATOM      6  C   UNL     1       7.092   6.600   4.309  0.00  0.00    +0.000 A 
ENDROOT
BRANCH   1   8
ATOM      7  C   UNL     1       5.687   4.918   1.412  0.00  0.00    +0.000 C 
ATOM      8  O   UNL     1       5.961   5.928   2.376  0.00  0.00    +0.000 OA
ENDBRANCH   1   8
BRANCH   6   9
ATOM      9  O   UNL     1       6.688   7.881   4.043  0.00  0.00    +0.000 OA
ATOM     10  H   UNL     1       5.828   7.782   3.590  0.00  0.00    +0.000 HD
ENDBRANCH   6   9
TORSDOF 2
ENDMDL
MODEL 2
REMARK VINA RESULT:    -3.425      1.560      2.514
REMARK INTER + INTRA:          -3.763
REMARK INTER:                  -3.717
REMARK INTRA:                  -0.046
REMARK UNBOUND:                -0.037
REMARK  Name = 
REMARK  3 active torsions:
REMARK  status: ('A' for Active; 'I' for Inactive)
REMARK    1  A    between atoms: C_1  and  O_2
REMARK    2  A    between atoms: O_2  and  C_3
REMARK    3  A    between atoms: C_8  and  O_9
REMARK                            x       y       z     vdW  Elec       q    Type
REMARK                         _______ _______ _______ _____ _____    ______ ____
ROOT
ATOM      1  C   UNL     1       6.447   5.144   2.832  0.00  0.00    +0.000 A 
ATOM      2  C   UNL     1       7.170   6.185   3.412  0.00  0.00    +0.000 A 
ATOM      3  C   UNL     1       7.846   5.979   4.621  0.00  0.00    +0.000 A 
ATOM      4  C   UNL     1       7.800   4.735   5.254  0.00  0.00    +0.000 A 
ATOM      5  C   UNL     1       7.080   3.690   4.680  0.00  0.00    +0.000 A 
ATOM      6  C   UNL     1       6.413   3.904   3.481  0.00  0.00    +0.000 A 
ENDROOT
BRANCH   1   8
ATOM      7  C   UNL     1       4.918   6.349   1.468  0.00  0.00    +0.000 C 
ATOM      8  O   UNL     1       5.740   5.204   1.657  0.00  0.00    +0.000 OA
ENDBRANCH   1   8
BRANCH   6   9
ATOM      9  O   UNL     1       5.711   2.861   2.936  0.00  0.00    +0.000 OA
ATOM     10  H   UNL     1       6.113   2.061   3.325  0.00  0.00    +0.000 HD
ENDBRANCH   6   9
TORSDOF 2
ENDMDL
MODEL 3
REMARK VINA RESULT:    -3.099      0.851      2.680
REMARK INTER + INTRA:          -3.408
REMARK INTER:                  -3.370
REMARK INTRA:                  -0.038
REMARK UNBOUND:                -0.037
REMARK  Name = 
REMARK  3 active torsions:
REMARK  status: ('A' for Active; 'I' for Inactive)
REMARK    1  A    between atoms: C_1  and  O_2
REMARK    2  A    between atoms: O_2  and  C_3
REMARK    3  A    between atoms: C_8  and  O_9
REMARK                            x       y       z     vdW  Elec       q    Type
REMARK                         _______ _______ _______ _____ _____    ______ ____
ROOT
ATOM      1  C   UNL     1       7.205   6.466   4.233  0.00  0.00    +0.000 A 
ATOM      2  C   UNL     1       8.046   6.284   5.331  0.00  0.00    +0.000 A 
ATOM      3  C   UNL     1       8.401   4.990   5.733  0.00  0.00    +0.000 A 
ATOM      4  C   UNL     1       7.919   3.877   5.043  0.00  0.00    +0.000 A 
ATOM      5  C   UNL     1       7.079   4.050   3.945  0.00  0.00    +0.000 A 
ATOM      6  C   UNL     1       6.732   5.337   3.553  0.00  0.00    +0.000 A 
ENDROOT
BRANCH   1   8
ATOM      7  C   UNL     1       7.081   8.823   4.502  0.00  0.00    +0.000 C 
ATOM      8  O   UNL     1       6.776   7.668   3.730  0.00  0.00    +0.000 OA
ENDBRANCH   1   8
BRANCH   6   9
ATOM      9  O   UNL     1       5.905   5.482   2.471  0.00  0.00    +0.000 OA
ATOM     10  H   UNL     1       5.047   5.754   2.849  0.00  0.00    +0.000 HD
ENDBRANCH   6   9
TORSDOF 2
ENDMDL
MODEL 4
REMARK VINA RESULT:    -2.832      1.441      3.196
REMARK INTER + INTRA:          -3.118
REMARK INTER:                  -3.078
REMARK INTRA:                  -0.040
REMARK UNBOUND:                -0.037
REMARK  Name = 
REMARK  3 active torsions:
REMARK  status: ('A' for Active; 'I' for Inactive)
REMARK    1  A    between atoms: C_1  and  O_2
REMARK    2  A    between atoms: O_2  and  C_3
REMARK    3  A    between atoms: C_8  and  O_9
REMARK                            x       y       z     vdW  Elec       q    Type
REMARK                         _______ _______ _______ _____ _____    ______ ____
ROOT
ATOM      1  C   UNL     1       7.178   6.141   3.984  0.00  0.00    +0.000 A 
ATOM      2  C   UNL     1       6.824   5.092   3.138  0.00  0.00    +0.000 A 
ATOM      3  C   UNL     1       5.857   5.291   2.144  0.00  0.00    +0.000 A 
ATOM      4  C   UNL     1       5.241   6.535   1.994  0.00  0.00    +0.000 A 
ATOM      5  C   UNL     1       5.590   7.588   2.836  0.00  0.00    +0.000 A 
ATOM      6  C   UNL     1       6.550   7.382   3.819  0.00  0.00    +0.000 A 
ENDROOT
BRANCH   1   8
ATOM      7  C   UNL     1       8.346   4.812   5.570  0.00  0.00    +0.000 C 
ATOM      8  O   UNL     1       8.103   6.090   4.996  0.00  0.00    +0.000 OA
ENDBRANCH   1   8
BRANCH   6   9
ATOM      9  O   UNL     1       6.876   8.433   4.635  0.00  0.00    +0.000 OA
ATOM     10  H   UNL     1       6.025   8.728   5.011  0.00  0.00    +0.000 HD
ENDBRANCH   6   9
TORSDOF 2
ENDMDL
MODEL 5
REMARK VINA RESULT:    -2.391      2.103      3.657
REMARK INTER + INTRA:          -2.638
REMARK INTER:                  -2.587
REMARK INTRA:                  -0.051
REMARK UNBOUND:                -0.037
REMARK  Name = 
REMARK  3 active torsions:
REMARK  status: ('A' for Active; 'I' for Inactive)
REMARK    1  A    between atoms: C_1  and  O_2
REMARK    2  A    between atoms: O_2  and  C_3
REMARK    3  A    between atoms: C_8  and  O_9
REMARK                            x       y       z     vdW  Elec       q    Type
REMARK                         _______ _______ _______ _____ _____    ______ ____
ROOT
ATOM      1  C   UNL     1       8.094   4.307   5.107  0.00  0.00    +0.000 A 
ATOM      2  C   UNL     1       8.537   5.506   5.665  0.00  0.00    +0.000 A 
ATOM      3  C   UNL     1       8.035   6.725   5.193  0.00  0.00    +0.000 A 
ATOM      4  C   UNL     1       7.092   6.751   4.164  0.00  0.00    +0.000 A 
ATOM      5  C   UNL     1       6.644   5.558   3.602  0.00  0.00    +0.000 A 
ATOM      6  C   UNL     1       7.148   4.354   4.076  0.00  0.00    +0.000 A 
ENDROOT
BRANCH   1   8
ATOM      7  C   UNL     1       9.825   2.679   5.110  0.00  0.00    +0.000 C 
ATOM      8  O   UNL     1       8.498   3.047   5.467  0.00  0.00    +0.000 OA
ENDBRANCH   1   8
BRANCH   6   9
ATOM      9  O   UNL     1       6.693   3.194   3.507  0.00  0.00    +0.000 OA
ATOM     10  H   UNL     1       5.873   2.984   3.994  0.00  0.00    +0.000 HD
ENDBRANCH   6   9
TORSDOF 2
ENDMDL
MODEL 6
REMARK VINA RESULT:    -2.351      1.787      4.062
REMARK INTER + INTRA:          -2.594
REMARK INTER:                  -2.557
REMARK INTRA:                  -0.037
REMARK UNBOUND:                -0.037
REMARK  Name = 
REMARK  3 active torsions:
REMARK  status: ('A' for Active; 'I' for Inactive)
REMARK    1  A    between atoms: C_1  and  O_2
REMARK    2  A    between atoms: O_2  and  C_3
REMARK    3  A    between atoms: C_8  and  O_9
REMARK                            x       y       z     vdW  Elec       q    Type
REMARK                         _______ _______ _______ _____ _____    ______ ____
ROOT
ATOM      1  C   UNL     1       6.395   5.720   3.101  0.00  0.00    +0.000 A 
ATOM      2  C   UNL     1       6.332   7.061   3.475  0.00  0.00    +0.000 A 
ATOM      3  C   UNL     1       5.538   7.955   2.745  0.00  0.00    +0.000 A 
ATOM      4  C   UNL     1       4.807   7.512   1.641  0.00  0.00    +0.000 A 
ATOM      5  C   UNL     1       4.865   6.174   1.261  0.00  0.00    +0.000 A 
ATOM      6  C   UNL     1       5.655   5.295   1.991  0.00  0.00    +0.000 A 
ENDROOT
BRANCH   1   8
ATOM      7  C   UNL     1       7.900   5.138   4.846  0.00  0.00    +0.000 C 
ATOM      8  O   UNL     1       7.127   4.739   3.720  0.00  0.00    +0.000 OA
ENDBRANCH   1   8
BRANCH   6   9
ATOM      9  O   UNL     1       5.696   3.983   1.598  0.00  0.00    +0.000 OA
ATOM     10  H   UNL     1       6.040   3.502   2.375  0.00  0.00    +0.000 HD
ENDBRANCH   6   9
TORSDOF 2
ENDMDL
MODEL 7
REMARK VINA RESULT:    -2.250     21.935     22.980
REMARK INTER + INTRA:          -2.485
REMARK INTER:                  -2.445
REMARK INTRA:                  -0.040
REMARK UNBOUND:                -0.037
REMARK  Name = 
REMARK  3 active torsions:
REMARK  status: ('A' for Active; 'I' for Inactive)
REMARK    1  A    between atoms: C_1  and  O_2
REMARK    2  A    between atoms: O_2  and  C_3
REMARK    3  A    between atoms: C_8  and  O_9
REMARK                            x       y       z     vdW  Elec       q    Type
REMARK                         _______ _______ _______ _____ _____    ______ ____
ROOT
ATOM      1  C   UNL     1      20.840   7.543 -13.404  0.00  0.00    +0.000 A 
ATOM      2  C   UNL     1      20.801   8.936 -13.431  0.00  0.00    +0.000 A 
ATOM      3  C   UNL     1      20.835   9.614 -14.656  0.00  0.00    +0.000 A 
ATOM      4  C   UNL     1      20.909   8.904 -15.856  0.00  0.00    +0.000 A 
ATOM      5  C   UNL     1      20.947   7.511 -15.837  0.00  0.00    +0.000 A 
ATOM      6  C   UNL     1      20.914   6.848 -14.617  0.00  0.00    +0.000 A 
ENDROOT
BRANCH   1   8
ATOM      7  C   UNL     1      20.227   7.320 -11.119  0.00  0.00    +0.000 C 
ATOM      8  O   UNL     1      20.815   6.752 -12.283  0.00  0.00    +0.000 OA
ENDBRANCH   1   8
BRANCH   6   9
ATOM      9  O   UNL     1      20.953   5.479 -14.625  0.00  0.00    +0.000 OA
ATOM     10  H   UNL     1      20.717   5.219 -13.714  0.00  0.00    +0.000 HD
ENDBRANCH   6   9
TORSDOF 2
ENDMDL
MODEL 8
REMARK VINA RESULT:    -2.187      1.740      2.455
REMARK INTER + INTRA:          -2.417
REMARK INTER:                  -2.390
REMARK INTRA:                  -0.027
REMARK UNBOUND:                -0.037
REMARK  Name = 
REMARK  3 active torsions:
REMARK  status: ('A' for Active; 'I' for Inactive)
REMARK    1  A    between atoms: C_1  and  O_2
REMARK    2  A    between atoms: O_2  and  C_3
REMARK    3  A    between atoms: C_8  and  O_9
REMARK                            x       y       z     vdW  Elec       q    Type
REMARK                         _______ _______ _______ _____ _____    ______ ____
ROOT
ATOM      1  C   UNL     1       7.773   5.749   4.190  0.00  0.00    +0.000 A 
ATOM      2  C   UNL     1       7.082   4.659   4.717  0.00  0.00    +0.000 A 
ATOM      3  C   UNL     1       7.788   3.572   5.246  0.00  0.00    +0.000 A 
ATOM      4  C   UNL     1       9.184   3.570   5.251  0.00  0.00    +0.000 A 
ATOM      5  C   UNL     1       9.882   4.656   4.727  0.00  0.00    +0.000 A 
ATOM      6  C   UNL     1       9.173   5.729   4.203  0.00  0.00    +0.000 A 
ENDROOT
BRANCH   1   8
ATOM      7  C   UNL     1       6.725   7.851   4.553  0.00  0.00    +0.000 C 
ATOM      8  O   UNL     1       7.215   6.876   3.641  0.00  0.00    +0.000 OA
ENDBRANCH   1   8
BRANCH   6   9
ATOM      9  O   UNL     1       9.882   6.785   3.694  0.00  0.00    +0.000 OA
ATOM     10  H   UNL     1      10.172   6.486   2.811  0.00  0.00    +0.000 HD
ENDBRANCH   6   9
TORSDOF 2
ENDMDL
