MODEL 1
REMARK VINA RESULT:    -3.407      0.000      0.000
REMARK INTER + INTRA:          -3.750
REMARK INTER:                  -3.705
REMARK INTRA:                  -0.045
REMARK UNBOUND:                -0.045
REMARK  Name = 
REMARK  3 active torsions:
REMARK  status: ('A' for Active; 'I' for Inactive)
REMARK    1  A    between atoms: C_1  and  O_2
REMARK    2  A    between atoms: O_2  and  C_3
REMARK    3  A    between atoms: C_8  and  O_9
REMARK                            x       y       z     vdW  Elec       q    Type
REMARK                         _______ _______ _______ _____ _____    ______ ____
ROOT
ATOM      1  C   UNL     1       6.401   5.135   2.796  0.00  0.00    +0.000 A 
ATOM      2  C   UNL     1       7.124   6.190   3.351  0.00  0.00    +0.000 A 
ATOM      3  C   UNL     1       7.832   6.002   4.545  0.00  0.00    +0.000 A 
ATOM      4  C   UNL     1       7.818   4.763   5.188  0.00  0.00    +0.000 A 
ATOM      5  C   UNL     1       7.099   3.704   4.639  0.00  0.00    +0.000 A 
ATOM      6  C   UNL     1       6.399   3.900   3.455  0.00  0.00    +0.000 A 
ENDROOT
BRANCH   1   8
ATOM      7  C   UNL     1       4.879   6.343   1.428  0.00  0.00    +0.000 C 
ATOM      8  O   UNL     1       5.665   5.177   1.639  0.00  0.00    +0.000 OA
ENDBRANCH   1   8
BRANCH   6   9
ATOM      9  O   UNL     1       5.699   2.844   2.935  0.00  0.00    +0.000 OA
ATOM     10  H   UNL     1       6.194   2.053   3.221  0.00  0.00    +0.000 HD
ENDBRANCH   6   9
TORSDOF 2
ENDMDL
MODEL 2
REMARK VINA RESULT:    -3.392      1.552      2.529
REMARK INTER + INTRA:          -3.735
REMARK INTER:                  -3.697
REMARK INTRA:                  -0.037
REMARK UNBOUND:                -0.045
REMARK  Name = 
REMARK  3 active torsions:
REMARK  status: ('A' for Active; 'I' for Inactive)
REMARK    1  A    between atoms: C_1  and  O_2
REMARK    2  A    between atoms: O_2  and  C_3
REMARK    3  A    between atoms: C_8  and  O_9
REMARK                            x       y       z     vdW  Elec       q    Type
REMARK                         _______ _______ _______ _____ _____    ______ ____
ROOT
ATOM      1  C   UNL     1       6.688   5.551   3.428  0.00  0.00    +0.000 A 
ATOM      2  C   UNL     1       7.079   4.261   3.786  0.00  0.00    +0.000 A 
ATOM      3  C   UNL     1       7.850   4.058   4.938  0.00  0.00    +0.000 A 
ATOM      4  C   UNL     1       8.233   5.140   5.733  0.00  0.00    +0.000 A 
ATOM      5  C   UNL     1       7.846   6.431   5.382  0.00  0.00    +0.000 A 
ATOM      6  C   UNL     1       7.081   6.623   4.238  0.00  0.00    +0.000 A 
ENDROOT
BRANCH   1   8
ATOM      7  C   UNL     1       5.581   4.840   1.449  0.00  0.00    +0.000 C 
ATOM      8  O   UNL     1       5.937   5.896   2.334  0.00  0.00    +0.000 OA
ENDBRANCH   1   8
BRANCH   6   9
ATOM      9  O   UNL     1       6.713   7.902   3.914  0.00  0.00    +0.000 OA
ATOM     10  H   UNL     1       5.771   7.960   4.165  0.00  0.00    +0.000 HD
ENDBRANCH   6   9
TORSDOF 2
ENDMDL
MODEL 3
REMARK VINA RESULT:    -2.963     14.181     15.074
REMARK INTER + INTRA:          -3.268
REMARK INTER:                  -3.224
REMARK INTRA:                  -0.044
REMARK UNBOUND:                -0.045
REMARK  Name = 
REMARK  3 active torsions:
REMARK  status: ('A' for Active; 'I' for Inactive)
REMARK    1  A    between atoms: C_1  and  O_2
REMARK    2  A    between atoms: O_2  and  C_3
REMARK    3  A    between atoms: C_8  and  O_9
REMARK                            x       y       z     vdW  Elec       q    Type
REMARK                         _______ _______ _______ _____ _____    ______ ____
ROOT
ATOM      1  C   UNL     1      19.162   9.227  -2.889  0.00  0.00    +0.000 A 
ATOM      2  C   UNL     1      17.871   9.484  -2.429  0.00  0.00    +0.000 A 
ATOM      3  C   UNL     1      16.817   9.620  -3.342  0.00  0.00    +0.000 A 
ATOM      4  C   UNL     1      17.049   9.502  -4.714  0.00  0.00    +0.000 A 
ATOM      5  C   UNL     1      18.336   9.245  -5.181  0.00  0.00    +0.000 A 
ATOM      6  C   UNL     1      19.375   9.111  -4.268  0.00  0.00    +0.000 A 
ENDROOT
BRANCH   1   8
ATOM      7  C   UNL     1      20.121   8.344  -0.902  0.00  0.00    +0.000 C 
ATOM      8  O   UNL     1      20.283   9.071  -2.114  0.00  0.00    +0.000 OA
ENDBRANCH   1   8
BRANCH   6   9
ATOM      9  O   UNL     1      20.631   8.859  -4.751  0.00  0.00    +0.000 OA
ATOM     10  H   UNL     1      20.508   8.734  -5.712  0.00  0.00    +0.000 HD
ENDBRANCH   6   9
TORSDOF 2
ENDMDL
MODEL 4
REMARK VINA RESULT:    -2.905     13.830     14.447
REMARK INTER + INTRA:          -3.205
REMARK INTER:                  -3.167
REMARK INTRA:                  -0.038
REMARK UNBOUND:                -0.045
REMARK  Name = 
REMARK  3 active torsions:
REMARK  status: ('A' for Active; 'I' for Inactive)
REMARK    1  A    between atoms: C_1  and  O_2
REMARK    2  A    between atoms: O_2  and  C_3
REMARK    3  A    between atoms: C_8  and  O_9
REMARK                            x       y       z     vdW  Elec       q    Type
REMARK                         _______ _______ _______ _____ _____    ______ ____
ROOT
ATOM      1  C   UNL     1      18.210   8.922  -3.477  0.00  0.00    +0.000 A 
ATOM      2  C   UNL     1      19.121   8.530  -4.457  0.00  0.00    +0.000 A 
ATOM      3  C   UNL     1      20.402   8.102  -4.090  0.00  0.00    +0.000 A 
ATOM      4  C   UNL     1      20.778   8.064  -2.746  0.00  0.00    +0.000 A 
ATOM      5  C   UNL     1      19.874   8.454  -1.761  0.00  0.00    +0.000 A 
ATOM      6  C   UNL     1      18.605   8.878  -2.134  0.00  0.00    +0.000 A 
ENDROOT
BRANCH   1   8
ATOM      7  C   UNL     1      16.562   9.619  -5.040  0.00  0.00    +0.000 C 
ATOM      8  O   UNL     1      16.928   9.362  -3.690  0.00  0.00    +0.000 OA
ENDBRANCH   1   8
BRANCH   6   9
ATOM      9  O   UNL     1      17.734   9.256  -1.147  0.00  0.00    +0.000 OA
ATOM     10  H   UNL     1      18.230   9.904  -0.612  0.00  0.00    +0.000 HD
ENDBRANCH   6   9
TORSDOF 2
ENDMDL
MODEL 5
REMARK VINA RESULT:    -2.822     13.654     14.511
REMARK INTER + INTRA:          -3.115
REMARK INTER:                  -3.069
REMARK INTRA:                  -0.045
REMARK UNBOUND:                -0.045
REMARK  Name = 
REMARK  3 active torsions:
REMARK  status: ('A' for Active; 'I' for Inactive)
REMARK    1  A    between atoms: C_1  and  O_2
REMARK    2  A    between atoms: O_2  and  C_3
REMARK    3  A    between atoms: C_8  and  O_9
REMARK                            x       y       z     vdW  Elec       q    Type
REMARK                         _______ _______ _______ _____ _____    ______ ____
ROOT
ATOM      1  C   UNL     1      18.573   9.433  -2.104  0.00  0.00    +0.000 A 
ATOM      2  C   UNL     1      19.961   9.446  -2.228  0.00  0.00    +0.000 A 
ATOM      3  C   UNL     1      20.552   9.316  -3.491  0.00  0.00    +0.000 A 
ATOM      4  C   UNL     1      19.760   9.172  -4.631  0.00  0.00    +0.000 A 
ATOM      5  C   UNL     1      18.372   9.159  -4.516  0.00  0.00    +0.000 A 
ATOM      6  C   UNL     1      17.795   9.288  -3.259  0.00  0.00    +0.000 A 
ENDROOT
BRANCH   1   8
ATOM      7  C   UNL     1      18.355   8.822   0.182  0.00  0.00    +0.000 C 
ATOM      8  O   UNL     1      17.862   9.549  -0.936  0.00  0.00    +0.000 OA
ENDBRANCH   1   8
BRANCH   6   9
ATOM      9  O   UNL     1      16.428   9.272  -3.170  0.00  0.00    +0.000 OA
ATOM     10  H   UNL     1      16.179  10.202  -3.009  0.00  0.00    +0.000 HD
ENDBRANCH   6   9
TORSDOF 2
ENDMDL
MODEL 6
REMARK VINA RESULT:    -2.808      2.240      4.090
REMARK INTER + INTRA:          -3.099
REMARK INTER:                  -3.059
REMARK INTRA:                  -0.040
REMARK UNBOUND:                -0.045
REMARK  Name = 
REMARK  3 active torsions:
REMARK  status: ('A' for Active; 'I' for Inactive)
REMARK    1  A    between atoms: C_1  and  O_2
REMARK    2  A    between atoms: O_2  and  C_3
REMARK    3  A    between atoms: C_8  and  O_9
REMARK                            x       y       z     vdW  Elec       q    Type
REMARK                         _______ _______ _______ _____ _____    ______ ____
ROOT
ATOM      1  C   UNL     1       7.080   6.067   3.913  0.00  0.00    +0.000 A 
ATOM      2  C   UNL     1       6.701   5.057   3.029  0.00  0.00    +0.000 A 
ATOM      3  C   UNL     1       5.754   5.319   2.032  0.00  0.00    +0.000 A 
ATOM      4  C   UNL     1       5.182   6.588   1.915  0.00  0.00    +0.000 A 
ATOM      5  C   UNL     1       5.556   7.602   2.793  0.00  0.00    +0.000 A 
ATOM      6  C   UNL     1       6.497   7.332   3.780  0.00  0.00    +0.000 A 
ENDROOT
BRANCH   1   8
ATOM      7  C   UNL     1       8.178   4.650   5.474  0.00  0.00    +0.000 C 
ATOM      8  O   UNL     1       7.991   5.952   4.932  0.00  0.00    +0.000 OA
ENDBRANCH   1   8
BRANCH   6   9
ATOM      9  O   UNL     1       6.848   8.345   4.632  0.00  0.00    +0.000 OA
ATOM     10  H   UNL     1       7.279   7.898   5.385  0.00  0.00    +0.000 HD
ENDBRANCH   6   9
TORSDOF 2
ENDMDL
MODEL 7
REMARK VINA RESULT:    -2.283     12.563     13.343
REMARK INTER + INTRA:          -2.528
REMARK INTER:                  -2.480
REMARK INTRA:                  -0.048
REMARK UNBOUND:                -0.045
REMARK  Name = 
REMARK  3 active torsions:
REMARK  status: ('A' for Active; 'I' for Inactive)
REMARK    1  A    between atoms: C_1  and  O_2
REMARK    2  A    between atoms: O_2  and  C_3
REMARK    3  A    between atoms: C_8  and  O_9
REMARK                            x       y       z     vdW  Elec       q    Type
REMARK                         _______ _______ _______ _____ _____    ______ ____
ROOT
ATOM      1  C   UNL     1      18.911   8.809  -0.254  0.00  0.00    +0.000 A 
ATOM      2  C   UNL     1      20.235   8.395  -0.123  0.00  0.00    +0.000 A 
ATOM      3  C   UNL     1      20.734   8.030   1.133  0.00  0.00    +0.000 A 
ATOM      4  C   UNL     1      19.912   8.077   2.262  0.00  0.00    +0.000 A 
ATOM      5  C   UNL     1      18.588   8.490   2.139  0.00  0.00    +0.000 A 
ATOM      6  C   UNL     1      18.102   8.850   0.889  0.00  0.00    +0.000 A 
ENDROOT
BRANCH   1   8
ATOM      7  C   UNL     1      18.432   8.320  -2.530  0.00  0.00    +0.000 C 
ATOM      8  O   UNL     1      18.292   9.194  -1.416  0.00  0.00    +0.000 OA
ENDBRANCH   1   8
BRANCH   6   9
ATOM      9  O   UNL     1      16.796   9.252   0.793  0.00  0.00    +0.000 OA
ATOM     10  H   UNL     1      16.816  10.208   0.993  0.00  0.00    +0.000 HD
ENDBRANCH   6   9
TORSDOF 2
ENDMDL
MODEL 8
REMARK VINA RESULT:    -2.218     14.023     14.760
REMARK INTER + INTRA:          -2.457
REMARK INTER:                  -2.419
REMARK INTRA:                  -0.038
REMARK UNBOUND:                -0.045
REMARK  Name = 
REMARK  3 active torsions:
REMARK  status: ('A' for Active; 'I' for Inactive)
REMARK    1  A    between atoms: C_1  and  O_2
REMARK    2  A    between atoms: O_2  and  C_3
REMARK    3  A    between atoms: C_8  and  O_9
REMARK                            x       y       z     vdW  Elec       q    Type
REMARK                         _______ _______ _______ _____ _____    ______ ____
ROOT
ATOM      1  C   UNL     1      19.731   8.513  -2.730  0.00  0.00    +0.000 A 
ATOM      2  C   UNL     1      20.811   8.651  -1.859  0.00  0.00    +0.000 A 
ATOM      3  C   UNL     1      20.617   9.204  -0.587  0.00  0.00    +0.000 A 
ATOM      4  C   UNL     1      19.348   9.620  -0.182  0.00  0.00    +0.000 A 
ATOM      5  C   UNL     1      18.264   9.484  -1.046  0.00  0.00    +0.000 A 
ATOM      6  C   UNL     1      18.465   8.935  -2.306  0.00  0.00    +0.000 A 
ENDROOT
BRANCH   1   8
ATOM      7  C   UNL     1      20.953   7.279  -4.353  0.00  0.00    +0.000 C 
ATOM      8  O   UNL     1      19.774   7.992  -3.999  0.00  0.00    +0.000 OA
ENDBRANCH   1   8
BRANCH   6   9
ATOM      9  O   UNL     1      17.385   8.812  -3.138  0.00  0.00    +0.000 OA
ATOM     10  H   UNL     1      16.681   9.338  -2.712  0.00  0.00    +0.000 HD
ENDBRANCH   6   9
TORSDOF 2
ENDMDL
