MODEL 1
REMARK VINA RESULT:    -1.766      0.000      0.000
REMARK INTER + INTRA:          -1.986
REMARK INTER:                  -2.385
REMARK INTRA:                   0.399
REMARK UNBOUND:                 0.399
REMARK  Name = 
REMARK  10 active torsions:
REMARK  status: ('A' for Active; 'I' for Inactive)
REMARK    1  A    between atoms: C_1  and  C_2
REMARK    2  A    between atoms: C_5  and  N_8
REMARK    3  A    between atoms: N_8  and  C_9
REMARK    4  A    between atoms: N_8  and  C_13
REMARK    5  A    between atoms: C_9  and  C_10
REMARK    6  A    between atoms: C_10  and  C_11
REMARK    7  A    between atoms: C_10  and  O_12
REMARK    8  A    between atoms: C_13  and  C_14
REMARK    9  A    between atoms: C_14  and  C_15
REMARK   10  A    between atoms: C_14  and  O_16
REMARK                            x       y       z     vdW  Elec       q    Type
REMARK                         _______ _______ _______ _____ _____    ______ ____
ROOT
ATOM      1  N   UNL     1       6.664   6.098   3.790  0.00  0.00    +0.000 N 
ENDROOT
BRANCH   1   6
ATOM      2  C   UNL     1      10.569   2.316   5.733  0.00  0.00    +0.000 C 
ATOM      3  C   UNL     1       9.557   3.286   5.206  0.00  0.00    +0.000 A 
ATOM      4  C   UNL     1       9.950   4.509   4.671  0.00  0.00    +0.000 A 
ATOM      5  C   UNL     1       8.995   5.427   4.207  0.00  0.00    +0.000 A 
ATOM      6  C   UNL     1       7.611   5.186   4.273  0.00  0.00    +0.000 A 
ATOM      7  C   UNL     1       7.250   3.940   4.818  0.00  0.00    +0.000 A 
ATOM      8  C   UNL     1       8.195   3.011   5.285  0.00  0.00    +0.000 A 
ENDBRANCH   1   6
BRANCH   1   9
ATOM      9  C   UNL     1       6.495   6.291   2.330  0.00  0.00    +0.000 C 
BRANCH   9  10
ATOM     10  C   UNL     1       5.441   5.337   1.717  0.00  0.00    +0.000 C 
ATOM     11  C   UNL     1       5.842   4.915   0.308  0.00  0.00    +0.000 C 
BRANCH  10  12
ATOM     12  O   UNL     1       5.295   4.152   2.511  0.00  0.00    +0.000 OA
ATOM     13  H   UNL     1       5.773   4.289   3.346  0.00  0.00    +0.000 HD
ENDBRANCH  10  12
ENDBRANCH   9  10
ENDBRANCH   1   9
BRANCH   1  14
ATOM     14  C   UNL     1       6.189   7.229   4.629  0.00  0.00    +0.000 C 
BRANCH  14  15
ATOM     15  C   UNL     1       7.159   8.433   4.590  0.00  0.00    +0.000 C 
ATOM     16  C   UNL     1       6.998   9.294   3.343  0.00  0.00    +0.000 C 
BRANCH  15  17
ATOM     17  O   UNL     1       7.000   9.275   5.732  0.00  0.00    +0.000 OA
ATOM     18  H   UNL     1       6.055   9.526   5.730  0.00  0.00    +0.000 HD
ENDBRANCH  15  17
ENDBRANCH  14  15
ENDBRANCH   1  14
TORSDOF 7
ENDMDL
MODEL 2
REMARK VINA RESULT:    -0.966      1.201      3.622
REMARK INTER + INTRA:          -0.905
REMARK INTER:                  -1.696
REMARK INTRA:                   0.791
REMARK UNBOUND:                 0.399
REMARK  Name = 
REMARK  10 active torsions:
REMARK  status: ('A' for Active; 'I' for Inactive)
REMARK    1  A    between atoms: C_1  and  C_2
REMARK    2  A    between atoms: C_5  and  N_8
REMARK    3  A    between atoms: N_8  and  C_9
REMARK    4  A    between atoms: N_8  and  C_13
REMARK    5  A    between atoms: C_9  and  C_10
REMARK    6  A    between atoms: C_10  and  C_11
REMARK    7  A    between atoms: C_10  and  O_12
REMARK    8  A    between atoms: C_13  and  C_14
REMARK    9  A    between atoms: C_14  and  C_15
REMARK   10  A    between atoms: C_14  and  O_16
REMARK                            x       y       z     vdW  Elec       q    Type
REMARK                         _______ _______ _______ _____ _____    ______ ____
ROOT
ATOM      1  N   UNL     1       6.904   6.522   3.813  0.00  0.00    +0.000 N 
ENDROOT
BRANCH   1   6
ATOM      2  C   UNL     1      10.426   2.318   5.615  0.00  0.00    +0.000 C 
ATOM      3  C   UNL     1       9.515   3.420   5.169  0.00  0.00    +0.000 A 
ATOM      4  C   UNL     1       8.140   3.328   5.352  0.00  0.00    +0.000 A 
ATOM      5  C   UNL     1       7.287   4.351   4.905  0.00  0.00    +0.000 A 
ATOM      6  C   UNL     1       7.758   5.496   4.238  0.00  0.00    +0.000 A 
ATOM      7  C   UNL     1       9.154   5.557   4.073  0.00  0.00    +0.000 A 
ATOM      8  C   UNL     1      10.017   4.542   4.516  0.00  0.00    +0.000 A 
ENDBRANCH   1   6
BRANCH   1   9
ATOM      9  C   UNL     1       6.688   7.713   4.669  0.00  0.00    +0.000 C 
BRANCH   9  10
ATOM     10  C   UNL     1       6.680   9.036   3.865  0.00  0.00    +0.000 C 
ATOM     11  C   UNL     1       8.082   9.387   3.379  0.00  0.00    +0.000 C 
BRANCH  10  12
ATOM     12  O   UNL     1       5.824   8.937   2.719  0.00  0.00    +0.000 OA
ATOM     13  H   UNL     1       5.189   9.671   2.753  0.00  0.00    +0.000 HD
ENDBRANCH  10  12
ENDBRANCH   9  10
ENDBRANCH   1   9
BRANCH   1  14
ATOM     14  C   UNL     1       5.832   6.266   2.817  0.00  0.00    +0.000 C 
BRANCH  14  15
ATOM     15  C   UNL     1       6.163   5.067   1.896  0.00  0.00    +0.000 C 
ATOM     16  C   UNL     1       5.505   3.767   2.344  0.00  0.00    +0.000 C 
BRANCH  15  17
ATOM     17  O   UNL     1       5.776   5.316   0.546  0.00  0.00    +0.000 OA
ATOM     18  H   UNL     1       5.648   4.430   0.152  0.00  0.00    +0.000 HD
ENDBRANCH  15  17
ENDBRANCH  14  15
ENDBRANCH   1  14
TORSDOF 7
ENDMDL
MODEL 3
REMARK VINA RESULT:     0.466      2.347      5.576
REMARK INTER + INTRA:           1.029
REMARK INTER:                   1.389
REMARK INTRA:                  -0.360
REMARK UNBOUND:                 0.399
REMARK  Name = 
REMARK  10 active torsions:
REMARK  status: ('A' for Active; 'I' for Inactive)
REMARK    1  A    between atoms: C_1  and  C_2
REMARK    2  A    between atoms: C_5  and  N_8
REMARK    3  A    between atoms: N_8  and  C_9
REMARK    4  A    between atoms: N_8  and  C_13
REMARK    5  A    between atoms: C_9  and  C_10
REMARK    6  A    between atoms: C_10  and  C_11
REMARK    7  A    between atoms: C_10  and  O_12
REMARK    8  A    between atoms: C_13  and  C_14
REMARK    9  A    between atoms: C_14  and  C_15
REMARK   10  A    between atoms: C_14  and  O_16
REMARK                            x       y       z     vdW  Elec       q    Type
REMARK                         _______ _______ _______ _____ _____    ______ ____
ROOT
ATOM      1  N   UNL     1       8.253   5.232   4.819  0.00  0.00    +0.000 N 
ENDROOT
BRANCH   1   6
ATOM      2  C   UNL     1       4.220   7.127   1.149  0.00  0.00    +0.000 C 
ATOM      3  C   UNL     1       5.284   6.643   2.086  0.00  0.00    +0.000 A 
ATOM      4  C   UNL     1       5.765   5.340   2.010  0.00  0.00    +0.000 A 
ATOM      5  C   UNL     1       6.741   4.883   2.910  0.00  0.00    +0.000 A 
ATOM      6  C   UNL     1       7.266   5.688   3.937  0.00  0.00    +0.000 A 
ATOM      7  C   UNL     1       6.759   7.000   3.983  0.00  0.00    +0.000 A 
ATOM      8  C   UNL     1       5.784   7.470   3.087  0.00  0.00    +0.000 A 
ENDBRANCH   1   6
BRANCH   1   9
ATOM      9  C   UNL     1       9.564   5.923   4.890  0.00  0.00    +0.000 C 
BRANCH   9  10
ATOM     10  C   UNL     1      10.132   6.276   3.494  0.00  0.00    +0.000 C 
ATOM     11  C   UNL     1      10.694   7.693   3.477  0.00  0.00    +0.000 C 
BRANCH  10  12
ATOM     12  O   UNL     1      11.185   5.376   3.123  0.00  0.00    +0.000 OA
ATOM     13  H   UNL     1      10.922   4.926   2.303  0.00  0.00    +0.000 HD
ENDBRANCH  10  12
ENDBRANCH   9  10
ENDBRANCH   1   9
BRANCH   1  14
ATOM     14  C   UNL     1       8.260   3.829   5.307  0.00  0.00    +0.000 C 
BRANCH  14  15
ATOM     15  C   UNL     1       9.422   3.005   4.700  0.00  0.00    +0.000 C 
ATOM     16  C   UNL     1      10.460   2.582   5.733  0.00  0.00    +0.000 C 
BRANCH  15  17
ATOM     17  O   UNL     1       8.948   1.831   4.043  0.00  0.00    +0.000 OA
ATOM     18  H   UNL     1       7.998   1.779   4.271  0.00  0.00    +0.000 HD
ENDBRANCH  15  17
ENDBRANCH  14  15
ENDBRANCH   1  14
TORSDOF 7
ENDMDL
