MODEL 1
REMARK VINA RESULT:    -1.637      0.000      0.000
REMARK INTER + INTRA:          -1.964
REMARK INTER:                  -2.212
REMARK INTRA:                   0.248
REMARK UNBOUND:                 0.248
REMARK  Name = 
REMARK  10 active torsions:
REMARK  status: ('A' for Active; 'I' for Inactive)
REMARK    1  A    between atoms: C_1  and  C_2
REMARK    2  A    between atoms: C_5  and  N_8
REMARK    3  A    between atoms: N_8  and  C_9
REMARK    4  A    between atoms: N_8  and  C_13
REMARK    5  A    between atoms: C_9  and  C_10
REMARK    6  A    between atoms: C_10  and  C_11
REMARK    7  A    between atoms: C_10  and  O_12
REMARK    8  A    between atoms: C_13  and  C_14
REMARK    9  A    between atoms: C_14  and  C_15
REMARK   10  A    between atoms: C_14  and  O_16
REMARK                            x       y       z     vdW  Elec       q    Type
REMARK                         _______ _______ _______ _____ _____    ______ ____
ROOT
ATOM      1  N   UNL     1       6.610   6.166   3.608  0.00  0.00    +0.000 N 
ENDROOT
BRANCH   1   6
ATOM      2  C   UNL     1      10.567   2.512   5.686  0.00  0.00    +0.000 C 
ATOM      3  C   UNL     1       9.542   3.449   5.125  0.00  0.00    +0.000 A 
ATOM      4  C   UNL     1       9.917   4.661   4.556  0.00  0.00    +0.000 A 
ATOM      5  C   UNL     1       8.949   5.549   4.058  0.00  0.00    +0.000 A 
ATOM      6  C   UNL     1       7.569   5.285   4.124  0.00  0.00    +0.000 A 
ATOM      7  C   UNL     1       7.226   4.050   4.703  0.00  0.00    +0.000 A 
ATOM      8  C   UNL     1       8.184   3.152   5.203  0.00  0.00    +0.000 A 
ENDBRANCH   1   6
BRANCH   1   9
ATOM      9  C   UNL     1       6.440   6.305   2.142  0.00  0.00    +0.000 C 
BRANCH   9  10
ATOM     10  C   UNL     1       5.361   5.352   1.570  0.00  0.00    +0.000 C 
ATOM     11  C   UNL     1       5.715   4.917   0.153  0.00  0.00    +0.000 C 
BRANCH  10  12
ATOM     12  O   UNL     1       5.234   4.174   2.378  0.00  0.00    +0.000 OA
ATOM     13  H   UNL     1       4.536   3.618   1.993  0.00  0.00    +0.000 HD
ENDBRANCH  10  12
ENDBRANCH   9  10
ENDBRANCH   1   9
BRANCH   1  14
ATOM     14  C   UNL     1       6.117   7.318   4.405  0.00  0.00    +0.000 C 
BRANCH  14  15
ATOM     15  C   UNL     1       7.171   8.446   4.517  0.00  0.00    +0.000 C 
ATOM     16  C   UNL     1       7.170   9.388   3.319  0.00  0.00    +0.000 C 
BRANCH  15  17
ATOM     17  O   UNL     1       6.983   9.229   5.695  0.00  0.00    +0.000 OA
ATOM     18  H   UNL     1       7.887   9.422   6.017  0.00  0.00    +0.000 HD
ENDBRANCH  15  17
ENDBRANCH  14  15
ENDBRANCH   1  14
TORSDOF 7
ENDMDL
MODEL 2
REMARK VINA RESULT:     0.640      2.333      5.527
REMARK INTER + INTRA:           1.112
REMARK INTER:                   1.575
REMARK INTRA:                  -0.463
REMARK UNBOUND:                 0.248
REMARK  Name = 
REMARK  10 active torsions:
REMARK  status: ('A' for Active; 'I' for Inactive)
REMARK    1  A    between atoms: C_1  and  C_2
REMARK    2  A    between atoms: C_5  and  N_8
REMARK    3  A    between atoms: N_8  and  C_9
REMARK    4  A    between atoms: N_8  and  C_13
REMARK    5  A    between atoms: C_9  and  C_10
REMARK    6  A    between atoms: C_10  and  C_11
REMARK    7  A    between atoms: C_10  and  O_12
REMARK    8  A    between atoms: C_13  and  C_14
REMARK    9  A    between atoms: C_14  and  C_15
REMARK   10  A    between atoms: C_14  and  O_16
REMARK                            x       y       z     vdW  Elec       q    Type
REMARK                         _______ _______ _______ _____ _____    ______ ____
ROOT
ATOM      1  N   UNL     1       8.232   5.434   4.806  0.00  0.00    +0.000 N 
ENDROOT
BRANCH   1   6
ATOM      2  C   UNL     1       4.147   7.013   1.045  0.00  0.00    +0.000 C 
ATOM      3  C   UNL     1       5.224   6.611   2.005  0.00  0.00    +0.000 A 
ATOM      4  C   UNL     1       5.729   5.314   2.010  0.00  0.00    +0.000 A 
ATOM      5  C   UNL     1       6.718   4.935   2.932  0.00  0.00    +0.000 A 
ATOM      6  C   UNL     1       7.232   5.814   3.903  0.00  0.00    +0.000 A 
ATOM      7  C   UNL     1       6.700   7.116   3.867  0.00  0.00    +0.000 A 
ATOM      8  C   UNL     1       5.713   7.510   2.949  0.00  0.00    +0.000 A 
ENDBRANCH   1   6
BRANCH   1   9
ATOM      9  C   UNL     1       9.535   6.141   4.814  0.00  0.00    +0.000 C 
BRANCH   9  10
ATOM     10  C   UNL     1      10.088   6.394   3.390  0.00  0.00    +0.000 C 
ATOM     11  C   UNL     1      10.498   7.852   3.216  0.00  0.00    +0.000 C 
BRANCH  10  12
ATOM     12  O   UNL     1      11.237   5.576   3.131  0.00  0.00    +0.000 OA
ATOM     13  H   UNL     1      11.971   6.159   2.873  0.00  0.00    +0.000 HD
ENDBRANCH  10  12
ENDBRANCH   9  10
ENDBRANCH   1   9
BRANCH   1  14
ATOM     14  C   UNL     1       8.258   4.070   5.396  0.00  0.00    +0.000 C 
BRANCH  14  15
ATOM     15  C   UNL     1       9.324   3.167   4.731  0.00  0.00    +0.000 C 
ATOM     16  C   UNL     1      10.281   2.532   5.733  0.00  0.00    +0.000 C 
BRANCH  15  17
ATOM     17  O   UNL     1       8.727   2.121   3.967  0.00  0.00    +0.000 OA
ATOM     18  H   UNL     1       8.849   2.388   3.033  0.00  0.00    +0.000 HD
ENDBRANCH  15  17
ENDBRANCH  14  15
ENDBRANCH   1  14
TORSDOF 7
ENDMDL
