MODEL 1
REMARK VINA RESULT:    -3.415      0.000      0.000
REMARK INTER + INTRA:          -3.760
REMARK INTER:                  -3.714
REMARK INTRA:                  -0.046
REMARK UNBOUND:                -0.046
REMARK  Name = 
REMARK  3 active torsions:
REMARK  status: ('A' for Active; 'I' for Inactive)
REMARK    1  A    between atoms: C_1  and  O_2
REMARK    2  A    between atoms: O_2  and  C_3
REMARK    3  A    between atoms: C_8  and  O_9
REMARK                            x       y       z     vdW  Elec       q    Type
REMARK                         _______ _______ _______ _____ _____    ______ ____
ROOT
ATOM      1  C   UNL     1       6.399   5.103   2.762  0.00  0.00    +0.000 A 
ATOM      2  C   UNL     1       7.128   6.138   3.345  0.00  0.00    +0.000 A 
ATOM      3  C   UNL     1       7.814   5.920   4.547  0.00  0.00    +0.000 A 
ATOM      4  C   UNL     1       7.773   4.671   5.169  0.00  0.00    +0.000 A 
ATOM      5  C   UNL     1       7.047   3.632   4.592  0.00  0.00    +0.000 A 
ATOM      6  C   UNL     1       6.370   3.857   3.400  0.00  0.00    +0.000 A 
ENDROOT
BRANCH   1   8
ATOM      7  C   UNL     1       4.881   6.334   1.410  0.00  0.00    +0.000 C 
ATOM      8  O   UNL     1       5.682   5.173   1.594  0.00  0.00    +0.000 OA
ENDBRANCH   1   8
BRANCH   6   9
ATOM      9  O   UNL     1       5.663   2.820   2.853  0.00  0.00    +0.000 OA
ATOM     10  H   UNL     1       6.186   2.023   3.064  0.00  0.00    +0.000 HD
ENDBRANCH   6   9
TORSDOF 2
ENDMDL
MODEL 2
REMARK VINA RESULT:    -3.414      1.582      2.537
REMARK INTER + INTRA:          -3.759
REMARK INTER:                  -3.721
REMARK INTRA:                  -0.037
REMARK UNBOUND:                -0.046
REMARK  Name = 
REMARK  3 active torsions:
REMARK  status: ('A' for Active; 'I' for Inactive)
REMARK    1  A    between atoms: C_1  and  O_2
REMARK    2  A    between atoms: O_2  and  C_3
REMARK    3  A    between atoms: C_8  and  O_9
REMARK                            x       y       z     vdW  Elec       q    Type
REMARK                         _______ _______ _______ _____ _____    ______ ____
ROOT
ATOM      1  C   UNL     1       6.708   5.529   3.442  0.00  0.00    +0.000 A 
ATOM      2  C   UNL     1       7.116   4.227   3.727  0.00  0.00    +0.000 A 
ATOM      3  C   UNL     1       7.891   3.970   4.865  0.00  0.00    +0.000 A 
ATOM      4  C   UNL     1       8.260   5.011   5.720  0.00  0.00    +0.000 A 
ATOM      5  C   UNL     1       7.856   6.314   5.441  0.00  0.00    +0.000 A 
ATOM      6  C   UNL     1       7.088   6.560   4.310  0.00  0.00    +0.000 A 
ENDROOT
BRANCH   1   8
ATOM      7  C   UNL     1       5.625   4.919   1.416  0.00  0.00    +0.000 C 
ATOM      8  O   UNL     1       5.951   5.925   2.368  0.00  0.00    +0.000 OA
ENDBRANCH   1   8
BRANCH   6   9
ATOM      9  O   UNL     1       6.703   7.849   4.057  0.00  0.00    +0.000 OA
ATOM     10  H   UNL     1       7.068   8.049   3.174  0.00  0.00    +0.000 HD
ENDBRANCH   6   9
TORSDOF 2
ENDMDL
MODEL 3
REMARK VINA RESULT:    -3.079      1.676      2.476
REMARK INTER + INTRA:          -3.395
REMARK INTER:                  -3.357
REMARK INTRA:                  -0.038
REMARK UNBOUND:                -0.046
REMARK  Name = 
REMARK  3 active torsions:
REMARK  status: ('A' for Active; 'I' for Inactive)
REMARK    1  A    between atoms: C_1  and  O_2
REMARK    2  A    between atoms: O_2  and  C_3
REMARK    3  A    between atoms: C_8  and  O_9
REMARK                            x       y       z     vdW  Elec       q    Type
REMARK                         _______ _______ _______ _____ _____    ______ ____
ROOT
ATOM      1  C   UNL     1       7.212   6.400   4.236  0.00  0.00    +0.000 A 
ATOM      2  C   UNL     1       8.033   6.198   5.345  0.00  0.00    +0.000 A 
ATOM      3  C   UNL     1       8.377   4.897   5.733  0.00  0.00    +0.000 A 
ATOM      4  C   UNL     1       7.901   3.796   5.019  0.00  0.00    +0.000 A 
ATOM      5  C   UNL     1       7.080   3.989   3.910  0.00  0.00    +0.000 A 
ATOM      6  C   UNL     1       6.745   5.283   3.532  0.00  0.00    +0.000 A 
ENDROOT
BRANCH   1   8
ATOM      7  C   UNL     1       7.079   8.752   4.546  0.00  0.00    +0.000 C 
ATOM      8  O   UNL     1       6.796   7.611   3.745  0.00  0.00    +0.000 OA
ENDBRANCH   1   8
BRANCH   6   9
ATOM      9  O   UNL     1       5.936   5.448   2.439  0.00  0.00    +0.000 OA
ATOM     10  H   UNL     1       6.525   5.804   1.746  0.00  0.00    +0.000 HD
ENDBRANCH   6   9
TORSDOF 2
ENDMDL
MODEL 4
REMARK VINA RESULT:    -2.949     14.224     15.126
REMARK INTER + INTRA:          -3.253
REMARK INTER:                  -3.211
REMARK INTRA:                  -0.042
REMARK UNBOUND:                -0.046
REMARK  Name = 
REMARK  3 active torsions:
REMARK  status: ('A' for Active; 'I' for Inactive)
REMARK    1  A    between atoms: C_1  and  O_2
REMARK    2  A    between atoms: O_2  and  C_3
REMARK    3  A    between atoms: C_8  and  O_9
REMARK                            x       y       z     vdW  Elec       q    Type
REMARK                         _______ _______ _______ _____ _____    ______ ____
ROOT
ATOM      1  C   UNL     1      19.256   9.193  -2.880  0.00  0.00    +0.000 A 
ATOM      2  C   UNL     1      17.985   9.461  -2.372  0.00  0.00    +0.000 A 
ATOM      3  C   UNL     1      16.901   9.618  -3.245  0.00  0.00    +0.000 A 
ATOM      4  C   UNL     1      17.082   9.509  -4.625  0.00  0.00    +0.000 A 
ATOM      5  C   UNL     1      18.348   9.241  -5.140  0.00  0.00    +0.000 A 
ATOM      6  C   UNL     1      19.418   9.087  -4.267  0.00  0.00    +0.000 A 
ENDROOT
BRANCH   1   8
ATOM      7  C   UNL     1      20.252   8.412  -0.869  0.00  0.00    +0.000 C 
ATOM      8  O   UNL     1      20.402   9.017  -2.147  0.00  0.00    +0.000 OA
ENDBRANCH   1   8
BRANCH   6   9
ATOM      9  O   UNL     1      20.653   8.824  -4.797  0.00  0.00    +0.000 OA
ATOM     10  H   UNL     1      20.966   8.034  -4.318  0.00  0.00    +0.000 HD
ENDBRANCH   6   9
TORSDOF 2
ENDMDL
MODEL 5
REMARK VINA RESULT:    -2.861     13.899     14.520
REMARK INTER + INTRA:          -3.157
REMARK INTER:                  -3.120
REMARK INTRA:                  -0.037
REMARK UNBOUND:                -0.046
REMARK  Name = 
REMARK  3 active torsions:
REMARK  status: ('A' for Active; 'I' for Inactive)
REMARK    1  A    between atoms: C_1  and  O_2
REMARK    2  A    between atoms: O_2  and  C_3
REMARK    3  A    between atoms: C_8  and  O_9
REMARK                            x       y       z     vdW  Elec       q    Type
REMARK                         _______ _______ _______ _____ _____    ______ ____
ROOT
ATOM      1  C   UNL     1      18.283   9.050  -3.481  0.00  0.00    +0.000 A 
ATOM      2  C   UNL     1      19.225   8.830  -4.485  0.00  0.00    +0.000 A 
ATOM      3  C   UNL     1      20.506   8.369  -4.153  0.00  0.00    +0.000 A 
ATOM      4  C   UNL     1      20.848   8.127  -2.822  0.00  0.00    +0.000 A 
ATOM      5  C   UNL     1      19.912   8.344  -1.813  0.00  0.00    +0.000 A 
ATOM      6  C   UNL     1      18.644   8.802  -2.151  0.00  0.00    +0.000 A 
ENDROOT
BRANCH   1   8
ATOM      7  C   UNL     1      16.549   9.620  -5.003  0.00  0.00    +0.000 C 
ATOM      8  O   UNL     1      16.999   9.499  -3.659  0.00  0.00    +0.000 OA
ENDBRANCH   1   8
BRANCH   6   9
ATOM      9  O   UNL     1      17.741   9.007  -1.143  0.00  0.00    +0.000 OA
ATOM     10  H   UNL     1      16.952   9.372  -1.587  0.00  0.00    +0.000 HD
ENDBRANCH   6   9
TORSDOF 2
ENDMDL
MODEL 6
REMARK VINA RESULT:    -2.844     13.572     14.456
REMARK INTER + INTRA:          -3.139
REMARK INTER:                  -3.100
REMARK INTRA:                  -0.039
REMARK UNBOUND:                -0.046
REMARK  Name = 
REMARK  3 active torsions:
REMARK  status: ('A' for Active; 'I' for Inactive)
REMARK    1  A    between atoms: C_1  and  O_2
REMARK    2  A    between atoms: O_2  and  C_3
REMARK    3  A    between atoms: C_8  and  O_9
REMARK                            x       y       z     vdW  Elec       q    Type
REMARK                         _______ _______ _______ _____ _____    ______ ____
ROOT
ATOM      1  C   UNL     1      18.327   9.295  -2.475  0.00  0.00    +0.000 A 
ATOM      2  C   UNL     1      19.693   9.291  -2.753  0.00  0.00    +0.000 A 
ATOM      3  C   UNL     1      20.138   9.283  -4.081  0.00  0.00    +0.000 A 
ATOM      4  C   UNL     1      19.221   9.279  -5.134  0.00  0.00    +0.000 A 
ATOM      5  C   UNL     1      17.854   9.284  -4.865  0.00  0.00    +0.000 A 
ATOM      6  C   UNL     1      17.423   9.291  -3.545  0.00  0.00    +0.000 A 
ENDROOT
BRANCH   1   8
ATOM      7  C   UNL     1      18.552   8.811  -0.160  0.00  0.00    +0.000 C 
ATOM      8  O   UNL     1      17.753   9.301  -1.230  0.00  0.00    +0.000 OA
ENDBRANCH   1   8
BRANCH   6   9
ATOM      9  O   UNL     1      16.074   9.295  -3.305  0.00  0.00    +0.000 OA
ATOM     10  H   UNL     1      15.721   8.573  -3.859  0.00  0.00    +0.000 HD
ENDBRANCH   6   9
TORSDOF 2
ENDMDL
MODEL 7
REMARK VINA RESULT:    -2.820      2.273      4.103
REMARK INTER + INTRA:          -3.113
REMARK INTER:                  -3.073
REMARK INTRA:                  -0.040
REMARK UNBOUND:                -0.046
REMARK  Name = 
REMARK  3 active torsions:
REMARK  status: ('A' for Active; 'I' for Inactive)
REMARK    1  A    between atoms: C_1  and  O_2
REMARK    2  A    between atoms: O_2  and  C_3
REMARK    3  A    between atoms: C_8  and  O_9
REMARK                            x       y       z     vdW  Elec       q    Type
REMARK                         _______ _______ _______ _____ _____    ______ ____
ROOT
ATOM      1  C   UNL     1       7.125   6.051   3.945  0.00  0.00    +0.000 A 
ATOM      2  C   UNL     1       6.766   5.040   3.056  0.00  0.00    +0.000 A 
ATOM      3  C   UNL     1       5.815   5.290   2.058  0.00  0.00    +0.000 A 
ATOM      4  C   UNL     1       5.221   6.549   1.946  0.00  0.00    +0.000 A 
ATOM      5  C   UNL     1       5.575   7.565   2.830  0.00  0.00    +0.000 A 
ATOM      6  C   UNL     1       6.519   7.307   3.817  0.00  0.00    +0.000 A 
ENDROOT
BRANCH   1   8
ATOM      7  C   UNL     1       8.237   4.649   5.508  0.00  0.00    +0.000 C 
ATOM      8  O   UNL     1       8.035   5.948   4.966  0.00  0.00    +0.000 OA
ENDBRANCH   1   8
BRANCH   6   9
ATOM      9  O   UNL     1       6.850   8.322   4.675  0.00  0.00    +0.000 OA
ATOM     10  H   UNL     1       7.679   8.027   5.099  0.00  0.00    +0.000 HD
ENDBRANCH   6   9
TORSDOF 2
ENDMDL
MODEL 8
REMARK VINA RESULT:    -2.683     14.322     14.959
REMARK INTER + INTRA:          -2.965
REMARK INTER:                  -2.927
REMARK INTRA:                  -0.038
REMARK UNBOUND:                -0.046
REMARK  Name = 
REMARK  3 active torsions:
REMARK  status: ('A' for Active; 'I' for Inactive)
REMARK    1  A    between atoms: C_1  and  O_2
REMARK    2  A    between atoms: O_2  and  C_3
REMARK    3  A    between atoms: C_8  and  O_9
REMARK                            x       y       z     vdW  Elec       q    Type
REMARK                         _______ _______ _______ _____ _____    ______ ____
ROOT
ATOM      1  C   UNL     1      18.815   9.116  -3.739  0.00  0.00    +0.000 A 
ATOM      2  C   UNL     1      18.093   9.251  -2.554  0.00  0.00    +0.000 A 
ATOM      3  C   UNL     1      18.704   8.963  -1.326  0.00  0.00    +0.000 A 
ATOM      4  C   UNL     1      20.034   8.541  -1.279  0.00  0.00    +0.000 A 
ATOM      5  C   UNL     1      20.761   8.405  -2.459  0.00  0.00    +0.000 A 
ATOM      6  C   UNL     1      20.147   8.692  -3.672  0.00  0.00    +0.000 A 
ENDROOT
BRANCH   1   8
ATOM      7  C   UNL     1      16.946   9.567  -5.135  0.00  0.00    +0.000 C 
ATOM      8  O   UNL     1      18.347   9.361  -5.005  0.00  0.00    +0.000 OA
ENDBRANCH   1   8
BRANCH   6   9
ATOM      9  O   UNL     1      20.883   8.550  -4.818  0.00  0.00    +0.000 OA
ATOM     10  H   UNL     1      21.484   7.803  -4.637  0.00  0.00    +0.000 HD
ENDBRANCH   6   9
TORSDOF 2
ENDMDL
MODEL 9
REMARK VINA RESULT:    -2.283     12.579     13.364
REMARK INTER + INTRA:          -2.529
REMARK INTER:                  -2.482
REMARK INTRA:                  -0.048
REMARK UNBOUND:                -0.046
REMARK  Name = 
REMARK  3 active torsions:
REMARK  status: ('A' for Active; 'I' for Inactive)
REMARK    1  A    between atoms: C_1  and  O_2
REMARK    2  A    between atoms: O_2  and  C_3
REMARK    3  A    between atoms: C_8  and  O_9
REMARK                            x       y       z     vdW  Elec       q    Type
REMARK                         _______ _______ _______ _____ _____    ______ ____
ROOT
ATOM      1  C   UNL     1      18.896   8.825  -0.264  0.00  0.00    +0.000 A 
ATOM      2  C   UNL     1      20.221   8.411  -0.132  0.00  0.00    +0.000 A 
ATOM      3  C   UNL     1      20.722   8.060   1.129  0.00  0.00    +0.000 A 
ATOM      4  C   UNL     1      19.903   8.121   2.258  0.00  0.00    +0.000 A 
ATOM      5  C   UNL     1      18.578   8.533   2.133  0.00  0.00    +0.000 A 
ATOM      6  C   UNL     1      18.090   8.880   0.880  0.00  0.00    +0.000 A 
ENDROOT
BRANCH   1   8
ATOM      7  C   UNL     1      18.443   8.328  -2.543  0.00  0.00    +0.000 C 
ATOM      8  O   UNL     1      18.276   9.197  -1.429  0.00  0.00    +0.000 OA
ENDBRANCH   1   8
BRANCH   6   9
ATOM      9  O   UNL     1      16.785   9.281   0.782  0.00  0.00    +0.000 OA
ATOM     10  H   UNL     1      16.553   9.592   1.679  0.00  0.00    +0.000 HD
ENDBRANCH   6   9
TORSDOF 2
ENDMDL
